Protein in INSANE! Membrane UpperLeaflet>POPC=1.0 LowerLeaflet>POPC=1.0
10365
    1AU     AUC    1   4.214   6.037   6.217 -0.0508 -0.0281  0.0406
    1AU     AUC    2   4.404   5.874   6.013 -0.0342 -0.0032 -0.0406
    1AU     AUC    3   4.387   6.216   5.988 -0.0134 -0.0484 -0.0816
    1AU     AUC    4   4.039   5.879   6.432  0.0220  0.0490  0.0083
    1AU     AUC    5   3.991   6.220   6.357  0.0536 -0.0581 -0.0237
    1AU     AUC    6   3.904   5.979   6.152 -0.0626 -0.0065 -0.0082
    1AU     AUC    7   4.142   5.983   5.881  0.0231 -0.0193 -0.0469
    1AU     AUC    8   4.259   6.088   6.531  0.0802  0.0178  0.0502
    1AU     AUC    9   4.515   6.102   6.281 -0.0642  0.0979 -0.0342
    1AU     AUC   10   4.305   6.330   6.282  0.0785  0.0019 -0.0379
    1AU     AUC   11   4.035   6.286   6.089 -0.0068 -0.0867  0.1490
    1AU     AUC   12   4.351   5.791   6.329 -0.0310  0.0857 -0.1399
    1AU     AUC   13   4.119   5.736   6.130  0.0145  0.0329 -0.0620
    1AU     AUC   14   4.599   5.696   5.793 -0.0076  0.0124 -0.0697
    1AU     AUC   15   4.646   6.068   5.780 -0.0091 -0.0440  0.0322
    1AU     AUC   16   4.561   6.391   5.811  0.0509  0.0064 -0.0019
    1AU     AUC   17   3.853   5.715   6.685  0.0394  0.0263 -0.0337
    1AU     AUC   18   3.743   6.064   6.642  0.0043  0.0646  0.0913
    1AU     AUC   19   3.699   6.387   6.525 -0.0758  0.0264 -0.0682
    1AU     AUC   20   3.510   5.932   6.089  0.0311  0.0453  0.1189
    1AU     AUC   21   3.786   5.921   5.829 -0.0095 -0.0187 -0.0926
    1AU     AUC   22   4.060   5.951   5.568  0.0188  0.0749  0.1279
    1AU     AUC   23   4.335   6.134   6.846 -0.0292 -0.0893 -0.0423
    1AU     AUC   24   4.615   6.115   6.613  0.0296  0.0521 -0.0551
    1AU     AUC   25   4.859   6.132   6.356 -0.1119 -0.0106 -0.0340
    1AU     AUC   26   4.373   6.648   6.353 -0.0161  0.0531 -0.0190
    1AU     AUC   27   4.130   6.659   6.099 -0.0592 -0.0319  0.0187
    1AU     AUC   28   3.887   6.530   5.892 -0.0425 -0.0096  0.0541
    1AU     AUC   29   4.510   5.540   6.464 -0.0244  0.0163 -0.0244
    1AU     AUC   30   4.269   5.420   6.273 -0.0746  0.0211 -0.0800
    1AU     AUC   31   4.025   5.446   6.098  0.0473  0.0229  0.1289
    1AU     AUC   32   4.485   6.556   6.106  0.0454 -0.0029 -0.0322
    1AU     AUC   33   4.227   6.531   5.836  0.0753  0.0979 -0.0757
    1AU     AUC   34   4.566   5.556   6.087  0.1401  0.0148 -0.0647
    1AU     AUC   35   4.309   5.542   5.906  0.0502  0.0271 -0.0204
    1AU     AUC   36   4.028   6.581   6.469 -0.0084 -0.0188  0.0687
    1AU     AUC   37   3.760   6.451   6.202  0.0773 -0.0289  0.0184
    1AU     AUC   38   4.185   5.606   6.618 -0.1015  0.0154  0.1369
    1AU     AUC   39   3.935   5.536   6.424 -0.0949  0.1067  0.0315
    1AU     AUC   40   4.353   5.857   5.633 -0.0127  0.1097  0.0889
    1AU     AUC   41   4.300   6.204   5.644  0.0148  0.0571  0.0944
    1AU     AUC   42   3.679   5.831   6.394  0.0003 -0.1196 -0.0057
    1AU     AUC   43   3.580   6.155   6.312 -0.0457 -0.0175 -0.1222
    1AU     AUC   44   4.735   5.900   6.075  0.0008 -0.0535 -0.0076
    1AU     AUC   45   4.752   6.287   6.101  0.0819 -0.1135 -0.0244
    1AU     AUC   46   4.067   5.965   6.803 -0.0761 -0.0626 -0.0294
    1AU     AUC   47   4.032   6.271   6.684 -0.0228  0.0004 -0.0146
    1AU     AUC   48   3.658   6.210   5.957  0.0512  0.0049 -0.0189
    1AU     AUC   49   3.948   6.232   5.738  0.0278  0.1093 -0.0297
    1AU     AUC   50   4.361   6.411   6.623 -0.0090  0.1211 -0.0304
    1AU     AUC   51   4.652   6.403   6.412 -0.0177  0.0221 -0.0581
    1AU     AUC   52   3.773   5.684   6.086 -0.0018  0.0733 -0.0617
    1AU     AUC   53   4.010   5.655   5.787  0.0340 -0.0192  0.0863
    1AU     AUC   54   4.439   5.832   6.695 -0.1955 -0.0203  0.1064
    1AU     AUC   55   4.705   5.803   6.358 -0.0080 -0.0103  0.0292
    1AU    AUSL   56   4.525   6.758   5.795  0.0010  0.0187 -0.0137
    1AU    AUSL   57   4.675   6.813   6.242 -0.0741  0.0475  0.0726
    1AU     AUL   58   4.831   6.949   5.908 -0.0420  0.0104  0.0313
    1AU       S   59   5.126   6.998   6.253  0.1617 -0.1293 -0.0237
    1AU     LIG   60   5.208   7.220   6.540 -0.1057 -0.5491  0.2332
    1AU     LIG   61   5.301   7.626   6.655 -0.1205  0.2496 -0.0012
    1AU     LIG   62   5.533   8.003   6.656  0.0321  0.1231 -0.0215
    1AU       S   63   4.482   7.200   5.757  0.2194 -0.2529  0.1034
    1AU     LIG   64   4.193   7.631   5.661  0.0131  0.1579 -0.0109
    1AU     LIG   65   3.964   7.876   5.932 -0.2342 -0.0193 -0.0332
    1AU     LIG   66   3.828   8.222   6.177 -0.4130  0.1701 -0.1672
    1AU    AUSL   67   4.275   6.959   6.122  0.0298  0.0191  0.0718
    1AU    AUSL   68   3.852   6.889   6.057  0.0312 -0.0316 -0.0181
    1AU     AUL   69   3.942   7.235   6.024 -0.0312  0.0536  0.0402
    1AU       S   70   4.418   7.181   5.996  0.0829  0.3015 -0.0261
    1AU     LIG   71   4.677   7.315   6.279 -0.3645 -0.0477  0.3123
    1AU     LIG   72   4.980   7.558   6.258  0.0581  0.2629  0.4010
    1AU     LIG   73   4.984   8.011   6.423 -0.0193 -0.0102  0.1847
    1AU       S   74   3.903   7.206   6.496  0.0097 -0.3739  0.4197
    1AU     LIG   75   4.013   7.544   6.736 -0.0570 -0.1108  0.0368
    1AU     LIG   76   4.152   7.978   6.543 -0.3027  0.0187 -0.4935
    1AU     LIG   77   4.391   8.308   6.409 -0.0118  0.0588  0.4287
    1AU    AUSL   78   4.110   6.870   5.721 -0.0203  0.0146  0.0560
    1AU    AUSL   79   4.318   6.565   5.459  0.0339 -0.0299 -0.0107
    1AU     AUL   80   4.499   6.803   5.490  0.0858  0.0251  0.0557
    1AU       S   81   4.130   7.042   5.646 -0.2797  0.1649 -0.1706
    1AU     LIG   82   3.864   7.392   5.377 -0.0420  0.2490 -0.1910
    1AU     LIG   83   3.692   7.770   5.450  0.0346  0.1005 -0.2755
    1AU     LIG   84   3.725   8.142   5.120 -0.1130 -0.1107  0.1260
    1AU       S   85   4.089   6.762   5.246 -0.2455  0.4257  0.2958
    1AU     LIG   86   4.344   7.009   5.068 -0.0330 -0.0587  0.1184
    1AU     LIG   87   4.316   7.288   5.236  0.1033 -0.4080 -0.2621
    1AU     LIG   88   4.604   7.556   5.429 -0.3207  0.1862  0.0408
    1AU    AUSL   89   4.507   5.282   5.776  0.0325 -0.0970  0.0258
    1AU    AUSL   90   4.111   5.477   5.733  0.0413 -0.0452  0.0204
    1AU     AUL   91   4.250   5.169   5.578 -0.0334 -0.0361 -0.0430
    1AU       S   92   4.327   4.795   5.889  0.3552  0.2495 -0.1502
    1AU     LIG   93   4.310   4.703   5.447 -0.1002  0.0812  0.0853
    1AU     LIG   94   4.303   4.504   5.055 -0.0690 -0.1186 -0.0055
    1AU     LIG   95   4.264   4.325   4.684 -0.2345 -0.1677  0.2550
    1AU       S   96   4.341   5.380   5.176  0.2707 -0.0088 -0.0266
    1AU     LIG   97   4.618   5.026   5.149 -0.3422  0.1312 -0.2875
    1AU     LIG   98   4.818   4.902   5.451 -0.2621 -0.0727  0.0518
    1AU     LIG   99   4.793   4.532   5.709  0.2258 -0.1782  0.0159
    1AU    AUSL  100   4.627   5.153   6.187 -0.0006 -0.0466 -0.0526
    1AU    AUSL  101   4.857   5.507   5.879 -0.0024 -0.0511 -0.0510
    1AU     AUL  102   4.753   5.137   5.855 -0.0177  0.0158  0.0630
    1AU       S  103   5.169   5.292   5.988 -0.3880  0.1692 -0.0303
    1AU     LIG  104   5.260   5.017   5.694 -0.0317  0.0004 -0.0313
    1AU     LIG  105   5.271   4.633   5.780  0.1177  0.0995  0.1549
    1AU     LIG  106   5.527   4.289   5.862  0.2240  0.0640 -0.3231
    1AU       S  107   4.498   4.757   5.997 -0.1194 -0.2772 -0.1482
    1AU     LIG  108   4.590   4.368   6.207  0.2711  0.1962 -0.3149
    1AU     LIG  109   4.771   3.974   6.059 -0.1531 -0.0261 -0.1093
    1AU     LIG  110   4.828   3.610   5.823 -0.0378 -0.0741 -0.1107
    1AU    AUSL  111   4.201   5.216   6.084 -0.0005  0.0173 -0.0189
    1AU    AUSL  112   4.343   5.300   6.501  0.0083  0.0469 -0.0043
    1AU     AUL  113   4.487   5.009   6.382  0.0347  0.0116 -0.0265
    1AU       S  114   4.236   4.853   6.743  0.2485  0.0158  0.2814
    1AU     LIG  115   4.459   4.546   6.639 -0.2674 -0.2286 -0.1163
    1AU     LIG  116   4.450   4.155   6.664 -0.1311  0.2172  0.0785
    1AU     LIG  117   4.553   3.758   6.569 -0.2851  0.0010 -0.1015
    1AU       S  118   4.175   4.927   6.030  0.2630 -0.2585 -0.1326
    1AU     LIG  119   3.810   4.844   6.067 -0.1528  0.4221 -0.1038
    1AU     LIG  120   3.417   4.770   5.901 -0.2305  0.2651 -0.2721
    1AU     LIG  121   3.397   4.445   5.561  0.2114 -0.0549 -0.2973
    1AU    AUSL  122   3.649   6.730   6.436 -0.0662  0.0174  0.0296
    1AU    AUSL  123   3.601   6.550   6.013 -0.0499 -0.0425 -0.0464
    1AU     AUL  124   3.527   6.869   6.131 -0.0356  0.0463 -0.0625
    1AU       S  125   3.704   7.198   6.445 -0.1594  0.1164 -0.1054
    1AU     LIG  126   3.681   7.708   6.427  0.3275  0.0565 -0.0745
    1AU     LIG  127   3.747   7.989   6.810 -0.1658  0.1694 -0.0736
    1AU     LIG  128   3.846   8.394   6.838 -0.4550 -0.1075 -0.2722
    1AU       S  129   3.111   6.622   6.125  0.1497 -0.1351 -0.0723
    1AU     LIG  130   3.001   7.038   6.168  0.0285 -0.3288  0.0428
    1AU     LIG  131   3.160   7.409   6.280  0.2954 -0.1200 -0.0723
    1AU     LIG  132   3.188   7.752   6.503 -0.1252 -0.0792 -0.0585
    1AU    AUSL  133   4.073   6.695   6.382 -0.0542 -0.0826 -0.0352
    1AU    AUSL  134   3.896   6.695   6.798 -0.0150 -0.0200 -0.0240
    1AU     AUL  135   3.686   6.831   6.734 -0.0604  0.0238  0.0120
    1AU       S  136   4.012   7.017   6.986  0.1625 -0.0732 -0.0357
    1AU     LIG  137   3.695   6.896   7.255  0.1639 -0.3464  0.0361
    1AU     LIG  138   3.273   6.837   7.244  0.1401  0.0675  0.0806
    1AU     LIG  139   2.807   6.816   7.072  0.1805  0.0960 -0.2871
    1AU       S  140   3.982   7.101   6.491  0.0847  0.4206  0.1712
    1AU     LIG  141   4.228   7.525   6.278 -0.2056 -0.1406  0.2868
    1AU     LIG  142   4.546   7.740   6.023  0.0895 -0.1403 -0.1854
    1AU     LIG  143   4.909   7.581   5.809  0.0284  0.2198  0.2171
    1AU    AUSL  144   4.025   5.339   6.779 -0.0234  0.0339 -0.0859
    1AU    AUSL  145   4.399   5.592   6.820  0.0514 -0.0193  0.1287
    1AU     AUL  146   4.483   5.247   6.816  0.0904 -0.0477  0.0428
    1AU       S  147   4.134   4.932   6.860  0.3016  0.1633 -0.0068
    1AU     LIG  148   4.325   4.504   7.134 -0.0917 -0.1797  0.1271
    1AU     LIG  149   4.297   4.093   7.210  0.0439  0.4800  0.0363
    1AU     LIG  150   4.182   3.768   6.901  0.2150  0.2846  0.0088
    1AU       S  151   4.272   5.426   7.199 -0.2892 -0.3019 -0.0671
    1AU     LIG  152   4.449   4.979   7.212  0.0681  0.3997  0.2222
    1AU     LIG  153   4.789   4.794   6.972  0.0972  0.0774 -0.0978
    1AU     LIG  154   5.067   4.524   6.683 -0.0321  0.0870 -0.0762
    1AU    AUSL  155   3.954   5.111   6.432  0.0551 -0.0522  0.0055
    1AU    AUSL  156   3.626   5.410   6.628 -0.0855  0.0001  0.0919
    1AU     AUL  157   3.766   5.203   6.786 -0.0915  0.0557 -0.0326
    1AU       S  158   3.388   5.118   6.524 -0.1894  0.1644  0.2434
    1AU     LIG  159   3.288   4.847   6.894 -0.2621  0.2818  0.1824
    1AU     LIG  160   3.551   4.442   6.861  0.2955  0.0545 -0.3126
    1AU     LIG  161   3.987   4.255   6.860 -0.1712 -0.0835  0.0674
    1AU       S  162   4.027   4.922   6.489  0.3369 -0.0654  0.1321
    1AU     LIG  163   3.980   4.548   6.441  0.0407 -0.1032  0.3957
    1AU     LIG  164   4.116   4.200   6.265  0.2003  0.0958  0.2166
    1AU     LIG  165   4.105   3.841   6.371 -0.1129  0.1128  0.2676
    1AU    AUSL  166   4.408   6.033   5.354 -0.0407 -0.0186 -0.0439
    1AU    AUSL  167   4.475   5.658   5.556  0.0475 -0.0652  0.0328
    1AU     AUL  168   4.466   5.874   5.095 -0.0688 -0.0332  0.0000
    1AU       S  169   4.519   5.470   5.333 -0.1840 -0.2376  0.5346
    1AU     LIG  170   5.020   5.475   5.380  0.1024  0.5200 -0.0965
    1AU     LIG  171   5.430   5.324   5.316 -0.1283 -0.2051  0.1595
    1AU     LIG  172   5.938   5.521   5.193 -0.2857  0.3194 -0.2073
    1AU       S  173   4.836   6.231   5.147 -0.1428  0.4306  0.2404
    1AU     LIG  174   4.737   6.692   4.980  0.1747  0.1182  0.3725
    1AU     LIG  175   4.557   6.795   4.546 -0.0392  0.3333 -0.0372
    1AU     LIG  176   4.218   6.657   4.226 -0.4745 -0.0010 -0.1480
    1AU    AUSL  177   4.817   5.866   5.452 -0.0208 -0.0131  0.0386
    1AU    AUSL  178   5.048   6.241   5.680 -0.0128  0.0412 -0.1322
    1AU     AUL  179   5.189   6.005   5.448 -0.0646  0.0164 -0.1271
    1AU       S  180   4.869   6.042   5.130 -0.1416 -0.4115  0.1435
    1AU     LIG  181   5.262   5.750   5.005 -0.1135  0.2277 -0.1973
    1AU     LIG  182   5.669   5.700   4.798  0.1784 -0.1847  0.1380
    1AU     LIG  183   6.030   5.601   4.587  0.2037  0.1763  0.1894
    1AU       S  184   5.486   6.260   5.796  0.2148  0.0485 -0.0700
    1AU     LIG  185   5.606   6.713   5.835  0.0569 -0.2524  0.0137
    1AU     LIG  186   5.824   7.113   5.776  0.3113  0.1780  0.1639
    1AU     LIG  187   5.962   7.385   5.902 -0.2863 -0.3060  0.2414
    1AU    AUSL  188   4.639   6.293   5.583 -0.0175  0.0465 -0.0853
    1AU    AUSL  189   4.048   6.239   5.291  0.0244 -0.0115 -0.1484
    1AU     AUL  190   4.396   6.357   5.203  0.0467  0.0146 -0.0129
    1AU       S  191   3.904   6.540   5.128 -0.1416  0.0796  0.5324
    1AU     LIG  192   3.497   6.611   5.089  0.0521 -0.0028  0.1554
    1AU     LIG  193   3.120   6.748   5.046  0.1604  0.1905  0.1304
    1AU     LIG  194   3.002   7.149   5.157  0.1266  0.1404  0.3419
    1AU       S  195   4.823   6.404   5.309  0.0769 -0.0790 -0.2782
    1AU     LIG  196   5.106   6.794   5.467 -0.0646 -0.4328  0.1055
    1AU     LIG  197   5.272   7.210   5.566  0.0020 -0.0653  0.2197
    1AU     LIG  198   5.352   7.419   5.921  0.0178 -0.1737 -0.0853
    1AU    AUSL  199   3.317   5.967   6.330  0.0221  0.0433  0.0406
    1AU    AUSL  200   3.429   6.382   6.377  0.0432 -0.1321  0.0207
    1AU     AUL  201   3.044   6.185   6.382 -0.0050 -0.0343  0.0200
    1AU       S  202   3.211   6.590   6.325 -0.1717  0.1540 -0.0637
    1AU     LIG  203   2.798   6.678   6.569  0.0452  0.0129  0.1742
    1AU     LIG  204   2.392   6.885   6.790 -0.0043 -0.2426  0.0966
    1AU     LIG  205   2.402   7.255   7.060  0.1568  0.0616 -0.0204
    1AU       S  206   2.922   5.777   6.528 -0.1349  0.0465 -0.0872
    1AU     LIG  207   2.599   5.895   6.357  0.0459  0.0181 -0.1878
    1AU     LIG  208   2.149   5.803   6.441  0.4918 -0.1302  0.1792
    1AU     LIG  209   1.728   5.998   6.330  0.0332  0.0497 -0.1087
    1AU    AUSL  210   3.621   5.833   6.615  0.0145  0.0455 -0.0362
    1AU    AUSL  211   3.365   5.537   6.275  0.0487  0.0867 -0.0378
    1AU     AUL  212   3.344   5.594   6.581  0.0463 -0.0735  0.0181
    1AU       S  213   3.008   5.864   6.757  0.3432 -0.2273 -0.4136
    1AU     LIG  214   2.987   5.790   7.142  0.0374 -0.2030 -0.0063
    1AU     LIG  215   2.873   5.591   7.488 -0.0043  0.2842 -0.2886
    1AU     LIG  216   2.816   5.680   7.975 -0.0022 -0.4416  0.1711
    1AU       S  217   3.148   5.200   6.388 -0.1104  0.0603  0.5430
    1AU     LIG  218   2.772   5.288   6.273 -0.0833  0.0444 -0.0857
    1AU     LIG  219   2.447   5.078   6.014 -0.2545 -0.1353 -0.0745
    1AU     LIG  220   2.508   4.608   6.089 -0.1530  0.3457  0.0523
    1AU    AUSL  221   3.371   6.170   6.750 -0.0047 -0.0834 -0.0228
    1AU    AUSL  222   3.669   5.947   7.032 -0.0064  0.0604 -0.0656
    1AU     AUL  223   3.440   5.811   6.964 -0.0005 -0.0877  0.0044
    1AU       S  224   3.512   6.257   7.186 -0.1270 -0.5097  0.0997
    1AU     LIG  225   3.412   5.860   7.450  0.1023 -0.1606  0.0944
    1AU     LIG  226   3.269   5.532   7.839  0.1369 -0.2809 -0.1632
    1AU     LIG  227   3.347   5.249   8.174  0.1170 -0.0210 -0.1467
    1AU       S  228   3.154   6.204   6.829  0.1034  0.2860  0.1211
    1AU     LIG  229   2.764   6.294   6.925 -0.0283  0.1895  0.1248
    1AU     LIG  230   2.402   6.401   6.758 -0.2954  0.0415 -0.0293
    1AU     LIG  231   2.300   6.266   6.349  0.4014  0.0940  0.1045
    1AU    AUSL  232   5.066   6.164   6.119  0.0748  0.0263 -0.0110
    1AU    AUSL  233   4.797   6.479   5.957 -0.0440 -0.0252 -0.0252
    1AU     AUL  234   5.082   6.518   5.853  0.1336  0.0698 -0.0201
    1AU       S  235   5.309   6.185   6.105 -0.0168  0.0972 -0.0659
    1AU     LIG  236   5.533   5.838   6.308 -0.3684 -0.1149  0.0729
    1AU     LIG  237   5.894   5.701   6.189  0.0428 -0.1452  0.0331
    1AU     LIG  238   6.186   5.451   6.200  0.2665 -0.3140  0.1579
    1AU       S  239   5.252   6.827   6.134 -0.2347  0.1150  0.0696
    1AU     LIG  240   5.603   7.058   6.293 -0.2426 -0.0201 -0.0688
    1AU     LIG  241   5.661   7.487   6.303 -0.0454 -0.0653 -0.0203
    1AU     LIG  242   5.961   7.811   6.476 -0.1499 -0.1532 -0.3238
    1AU    AUSL  243   4.811   5.922   5.866 -0.0834  0.0310 -0.0388
    1AU    AUSL  244   5.083   5.734   6.160 -0.0109 -0.1005 -0.1106
    1AU     AUL  245   5.112   5.800   5.863 -0.0649 -0.0489  0.0177
    1AU       S  246   5.469   6.071   5.850 -0.1386  0.1127  0.5432
    1AU     LIG  247   5.580   5.730   5.685 -0.0270 -0.0171 -0.1527
    1AU     LIG  248   5.677   5.276   5.784 -0.0989  0.1511 -0.5505
    1AU     LIG  249   5.757   4.833   5.805  0.1295  0.1707  0.0719
    1AU       S  250   5.315   5.433   6.082  0.0367 -0.1883 -0.3313
    1AU     LIG  251   5.634   5.272   6.301  0.1810 -0.0454 -0.1172
    1AU     LIG  252   5.920   4.996   6.407 -0.0497  0.2345  0.2204
    1AU     LIG  253   6.068   4.625   6.650  0.1317 -0.2755  0.0791
    1AU    AUSL  254   4.029   6.182   7.099 -0.0325  0.0735 -0.0554
    1AU    AUSL  255   4.015   5.751   6.915 -0.0105  0.0878 -0.0445
    1AU     AUL  256   3.844   5.893   7.285  0.0730 -0.0226 -0.0438
    1AU       S  257   4.095   5.534   7.198  0.2078  0.3604 -0.0283
    1AU     LIG  258   3.749   5.447   7.216  0.1820  0.3727 -0.1133
    1AU     LIG  259   3.372   5.310   7.105 -0.2001 -0.0239 -0.3710
    1AU     LIG  260   2.976   5.350   6.833  0.3340  0.3034  0.1234
    1AU       S  261   3.649   6.335   7.283  0.3131  0.1870 -0.1795
    1AU     LIG  262   3.694   6.532   7.581  0.1001  0.2252 -0.2895
    1AU     LIG  263   3.760   6.863   7.850  0.0135 -0.0269  0.0027
    1AU     LIG  264   3.876   7.113   8.228 -0.1062  0.0962  0.1713
    1AU    AUSL  265   3.773   6.302   6.736  0.0265 -0.0493  0.0420
    1AU    AUSL  266   4.230   6.438   6.830  0.1235  0.0306  0.0273
    1AU     AUL  267   4.004   6.536   7.073  0.0318  0.0730  0.0263
    1AU       S  268   4.175   6.982   7.147  0.1027  0.0532 -0.3425
    1AU     LIG  269   4.158   6.740   7.531 -0.0854  0.0237  0.0190
    1AU     LIG  270   4.579   6.604   7.592  0.0285  0.1326 -0.0917
    1AU     LIG  271   4.816   6.587   7.894 -0.1099  0.2826  0.0299
    1AU       S  272   3.556   6.456   7.084  0.0168 -0.4428  0.0675
    1AU     LIG  273   3.259   6.658   6.834  0.1454  0.2264  0.1816
    1AU     LIG  274   3.207   7.003   6.573  0.0497 -0.0608  0.0440
    1AU     LIG  275   2.761   7.191   6.647 -0.0753  0.1927 -0.1345
    1AU    AUSL  276   3.540   6.363   5.618  0.1164 -0.1017  0.0551
    1AU    AUSL  277   3.320   6.235   5.981  0.0009  0.0283  0.0343
    1AU     AUL  278   3.425   6.621   5.724  0.0749 -0.0836 -0.0077
    1AU       S  279   3.119   6.393   5.977  0.3864 -0.0811  0.0906
    1AU     LIG  280   2.696   6.473   6.064  0.0085 -0.0168 -0.0336
    1AU     LIG  281   2.199   6.543   5.939 -0.0078 -0.0648 -0.3170
    1AU     LIG  282   1.790   6.358   6.028 -0.1767 -0.0533 -0.2409
    1AU       S  283   3.181   6.327   5.438  0.1966  0.2849 -0.0216
    1AU     LIG  284   2.971   6.658   5.564  0.3185 -0.1347 -0.0225
    1AU     LIG  285   2.737   6.887   5.825  0.0209  0.0565  0.0316
    1AU     LIG  286   2.487   6.896   6.230  0.1993 -0.1158 -0.2949
    1AU    AUSL  287   3.404   5.934   5.678  0.0425  0.0206  0.0101
    1AU    AUSL  288   3.710   5.632   5.559  0.0107  0.0930  0.0835
    1AU     AUL  289   3.533   5.741   5.311  0.0207 -0.0248  0.0866
    1AU       S  290   3.187   6.014   5.583 -0.2317  0.3912 -0.1691
    1AU     LIG  291   2.847   6.085   5.695 -0.1969 -0.2604 -0.4286
    1AU     LIG  292   2.291   6.104   5.803 -0.3700  0.1554  0.5911
    1AU     LIG  293   1.955   5.833   5.906 -0.0673 -0.0820  0.0662
    1AU       S  294   3.366   5.412   5.578 -0.8228 -0.0463  0.0706
    1AU     LIG  295   3.044   5.051   5.822 -0.1423  0.1013 -0.1777
    1AU     LIG  296   3.005   4.795   6.138  0.0226 -0.0355 -0.1118
    1AU     LIG  297   2.912   4.548   6.553  0.0228 -0.1267  0.0085
    1AU    AUSL  298   3.811   6.045   5.592 -0.0558 -0.0063 -0.0483
    1AU    AUSL  299   3.944   6.476   5.677  0.0517 -0.0113 -0.0460
    1AU     AUL  300   3.671   6.233   5.351  0.1132 -0.0017  0.0320
    1AU       S  301   3.850   6.682   5.418 -0.4031  0.1635 -0.0314
    1AU     LIG  302   3.575   6.992   5.454 -0.1609  0.1483 -0.0932
    1AU     LIG  303   3.310   7.123   5.751  0.4427  0.4049  0.3092
    1AU     LIG  304   3.472   7.461   5.922  0.0413 -0.0252  0.2286
    1AU       S  305   3.205   6.170   5.288  0.0900 -0.1358 -0.3941
    1AU     LIG  306   3.228   6.138   4.945 -0.0852  0.0903 -0.2236
    1AU     LIG  307   3.619   6.166   4.821 -0.1839  0.2110  0.0703
    1AU     LIG  308   3.957   5.956   4.928  0.0193 -0.0011  0.1295
    1AU    AUSL  309   4.596   6.569   6.606  0.1045  0.0142 -0.0310
    1AU    AUSL  310   4.974   6.523   6.366 -0.1143 -0.0078 -0.0065
    1AU     AUL  311   4.777   6.842   6.518 -0.0678 -0.0225 -0.0060
    1AU       S  312   4.965   6.725   6.932 -0.0845  0.2520  0.0697
    1AU     LIG  313   5.018   7.160   7.045 -0.2267 -0.1130  0.0343
    1AU     LIG  314   5.429   7.510   7.098  0.1520  0.1209 -0.1982
    1AU     LIG  315   5.743   7.779   7.100  0.0283  0.1038  0.1296
    1AU       S  316   5.182   6.657   6.315  0.0998  0.3199  0.5542
    1AU     LIG  317   5.631   6.534   6.278 -0.0544 -0.4216  0.0074
    1AU     LIG  318   5.920   6.228   5.969 -0.1330  0.2567 -0.0142
    1AU     LIG  319   6.049   5.909   5.738 -0.1248 -0.2108  0.1955
    1AU    AUSL  320   4.615   6.361   7.010  0.0268  0.0901 -0.0381
    1AU    AUSL  321   4.320   6.880   6.671 -0.1018 -0.0428  0.0352
    1AU     AUL  322   4.480   6.677   6.956  0.0538 -0.0034 -0.0789
    1AU       S  323   4.921   6.594   7.108  0.2906 -0.2016  0.1962
    1AU     LIG  324   5.054   6.847   7.515  0.2961  0.4346 -0.0338
    1AU     LIG  325   5.437   6.693   7.799  0.0664 -0.1076  0.3534
    1AU     LIG  326   5.321   6.658   8.228  0.0240 -0.0128  0.0211
    1AU       S  327   4.287   7.104   6.903  0.0019 -0.2027  0.4964
    1AU     LIG  328   4.473   7.462   6.677  0.1868 -0.1208  0.0591
    1AU     LIG  329   4.556   7.887   6.778 -0.0425 -0.3377 -0.0912
    1AU     LIG  330   4.698   8.038   7.311  0.0525 -0.1999  0.1894
    1AU    AUSL  331   4.921   6.292   6.712  0.0696 -0.0394 -0.0352
    1AU    AUSL  332   4.622   5.974   6.787 -0.1478 -0.0225 -0.0466
    1AU     AUL  333   4.855   6.120   7.030 -0.0191 -0.0001  0.0147
    1AU       S  334   5.206   5.871   6.883  0.4514  0.2759  0.2707
    1AU     LIG  335   5.345   6.149   7.129  0.1529 -0.3649 -0.0404
    1AU     LIG  336   5.424   6.622   7.184 -0.2000  0.4606  0.1575
    1AU     LIG  337   5.493   7.000   7.295  0.1736 -0.3923  0.1441
    1AU       S  338   5.062   6.525   6.825  0.3796  0.1252 -0.1506
    1AU     LIG  339   5.426   6.859   6.730  0.1372  0.1934 -0.2312
    1AU     LIG  340   5.672   7.207   6.821 -0.1573  0.1994  0.0977
    1AU     LIG  341   5.944   7.305   7.078 -0.2444 -0.3162  0.0042
    1AU    AUSL  342   3.741   5.288   5.845  0.0309  0.0520  0.0975
    1AU    AUSL  343   4.085   5.744   5.380 -0.0515  0.0339  0.0044
    1AU     AUL  344   3.855   5.357   5.445 -0.0722 -0.0368 -0.0745
    1AU       S  345   3.440   5.188   5.594  0.3976 -0.1091 -0.4655
    1AU     LIG  346   3.354   4.884   5.419  0.0956  0.4995 -0.1244
    1AU     LIG  347   3.047   4.598   5.191 -0.2569  0.0869 -0.0376
    1AU     LIG  348   2.567   4.536   5.370  0.0535 -0.0439 -0.1123
    1AU       S  349   4.168   5.536   5.162 -0.0307 -0.1949 -0.0790
    1AU     LIG  350   3.843   5.444   4.949  0.0563  0.1537 -0.4039
    1AU     LIG  351   3.592   5.283   4.623  0.0926  0.4051 -0.0256
    1AU     LIG  352   3.186   5.062   4.474 -0.0091  0.1082  0.1654
    1AU    AUSL  353   3.589   5.705   5.961 -0.0123  0.0091 -0.0302
    1AU    AUSL  354   3.801   5.445   6.237  0.0991 -0.0151  0.0512
    1AU     AUL  355   3.552   5.277   6.068 -0.0768 -0.0618  0.0283
    1AU       S  356   3.249   5.507   5.800  0.0023 -0.0036  0.4987
    1AU     LIG  357   2.959   5.722   6.032 -0.4737  0.3835  0.0020
    1AU     LIG  358   2.414   5.595   5.916  0.1106  0.3624 -0.4294
    1AU     LIG  359   2.182   5.419   5.611 -0.1460  0.2435  0.2899
    1AU       S  360   3.479   4.987   6.424  0.0924  0.0183  0.4171
    1AU     LIG  361   3.407   4.548   6.416  0.0273 -0.0511  0.3731
    1AU     LIG  362   3.120   4.253   6.195 -0.1209  0.0401  0.3618
    1AU     LIG  363   3.273   3.972   6.206  0.2597 -0.1916 -0.1987
    1AU    AUSL  364   4.831   5.584   6.730 -0.1093 -0.1156  0.0414
    1AU    AUSL  365   4.382   5.929   7.131  0.0818  0.0505  0.0115
    1AU     AUL  366   4.657   5.683   7.059 -0.0615 -0.0735 -0.0221
    1AU       S  367   4.286   5.654   7.318 -0.1067  0.2517  0.0334
    1AU     LIG  368   4.580   5.449   7.616  0.3085 -0.3912  0.2167
    1AU     LIG  369   5.004   5.553   7.484  0.2730 -0.1158  0.1344
    1AU     LIG  370   5.399   5.772   7.456  0.1370 -0.1599 -0.2493
    1AU       S  371   5.113   5.685   6.920  0.3746  0.0660  0.0345
    1AU     LIG  372   5.455   5.501   6.741  0.0317  0.1383  0.0401
    1AU     LIG  373   5.299   5.157   6.664 -0.3591 -0.0699  0.0161
    1AU     LIG  374   4.960   5.004   6.589  0.5093 -0.4139  0.2797
    1AU    AUSL  375   4.933   5.936   6.500 -0.0311 -0.0486 -0.1069
    1AU    AUSL  376   4.723   5.538   6.325  0.0205  0.0517  0.0426
    1AU     AUL  377   5.059   5.556   6.480  0.0637 -0.0261 -0.0229
    1AU       S  378   5.216   5.956   6.658 -0.1630 -0.0421  0.1115
    1AU     LIG  379   5.439   6.282   6.634  0.2928  0.0299 -0.0000
    1AU     LIG  380   5.693   6.386   6.798 -0.0649 -0.4322  0.1143
    1AU     LIG  381   6.247   6.443   6.855  0.0036  0.1736  0.0428
    1AU       S  382   5.116   5.188   6.181  0.0068  0.0647  0.0820
    1AU     LIG  383   4.950   4.769   6.191  0.1261  0.1913 -0.0367
    1AU     LIG  384   5.123   4.336   6.234 -0.0872 -0.0179  0.0806
    1AU     LIG  385   4.981   4.001   6.541  0.1672  0.0538 -0.4686
    2POPC   NC3  386   2.147   4.166   8.041  0.0941  0.0052  0.2111
    2POPC   PO4  387   1.709   3.962   8.120 -0.2598  0.1629  0.1806
    2POPC   GL1  388   1.502   4.041   7.728 -0.0351 -0.1429  0.1066
    2POPC   GL2  389   1.187   4.231   7.753 -0.1189  0.0302 -0.1125
    2POPC   C1A  390   1.648   3.708   7.466  0.2503 -0.0726 -0.0943
    2POPC   D2A  391   1.712   3.872   7.049 -0.1088 -0.0714 -0.2524
    2POPC   C3A  392   1.451   3.776   6.624  0.0056  0.0952 -0.0741
    2POPC   C4A  393   1.104   3.721   6.381 -0.0709 -0.0908  0.1414
    2POPC   C1B  394   1.316   4.112   7.279 -0.4019 -0.0361  0.2387
    2POPC   C2B  395   1.618   4.511   7.059  0.1166  0.2060  0.1886
    2POPC   C3B  396   1.693   4.458   6.605 -0.1161  0.1011 -0.2211
    2POPC   C4B  397   1.803   4.403   6.161 -0.1207 -0.0112  0.0039
    3POPC   NC3  398   7.200   7.277   8.206  0.0072 -0.0117 -0.1826
    3POPC   PO4  399   7.359   6.931   8.215  0.0008  0.0249  0.0258
    3POPC   GL1  400   7.332   7.017   7.785 -0.3076  0.1067  0.1940
    3POPC   GL2  401   7.642   7.109   7.534 -0.1165  0.2869 -0.0654
    3POPC   C1A  402   7.135   7.223   7.430 -0.1186 -0.1204  0.3160
    3POPC   D2A  403   7.130   7.257   7.031 -0.1104 -0.1935  0.0553
    3POPC   C3A  404   6.788   7.296   6.783 -0.4014 -0.3271  0.1774
    3POPC   C4A  405   6.577   7.695   6.586  0.0165 -0.0931 -0.2073
    3POPC   C1B  406   7.656   7.389   7.211  0.1185  0.2212 -0.1341
    3POPC   C2B  407   7.841   7.732   7.003  0.2035 -0.1890 -0.0914
    3POPC   C3B  408   7.738   8.032   6.702 -0.2715  0.0909 -0.1215
    3POPC   C4B  409   7.548   7.979   6.358  0.2383 -0.0650  0.3306
    4POPC   NC3  410   4.538   7.305   9.129 -0.0786  0.1448 -0.0797
    4POPC   PO4  411   4.805   7.795   9.099  0.1765  0.0543 -0.0704
    4POPC   GL1  412   5.086   7.637   8.683 -0.1307 -0.3026 -0.0346
    4POPC   GL2  413   5.205   7.905   8.604 -0.2749 -0.1624 -0.2109
    4POPC   C1A  414   5.441   7.305   8.512  0.0085  0.2533  0.0894
    4POPC   D2A  415   5.748   7.115   8.459 -0.2897 -0.3290  0.3696
    4POPC   C3A  416   5.890   7.316   8.083 -0.2300  0.3056  0.3170
    4POPC   C4A  417   6.202   7.524   7.937  0.2517 -0.0200  0.2981
    4POPC   C1B  418   4.740   7.869   8.387  0.0346  0.0082 -0.1322
    4POPC   C2B  419   4.364   7.932   8.168 -0.1293  0.1713 -0.1070
    4POPC   C3B  420   4.245   7.877   7.679 -0.2385  0.0368  0.3242
    4POPC   C4B  421   4.117   7.893   7.129 -0.0106 -0.3580  0.0063
    5POPC   NC3  422   1.823   2.958   8.057  0.1954 -0.1348 -0.0233
    5POPC   PO4  423   2.154   3.148   7.930 -0.2373 -0.1049 -0.1871
    5POPC   GL1  424   1.916   3.212   7.595  0.1089  0.2469 -0.0874
    5POPC   GL2  425   1.770   2.898   7.537  0.0455 -0.1170  0.2349
    5POPC   C1A  426   1.863   3.276   7.157  0.3494  0.1444 -0.0786
    5POPC   D2A  427   1.755   3.377   6.685 -0.1901  0.1006 -0.0065
    5POPC   C3A  428   1.879   3.688   6.366  0.1910 -0.4501 -0.3718
    5POPC   C4A  429   1.757   3.910   5.972 -0.0795 -0.0095 -0.1809
    5POPC   C1B  430   1.658   2.785   7.219 -0.2497 -0.0483 -0.1580
    5POPC   C2B  431   1.539   2.571   6.835  0.2140 -0.1566 -0.2746
    5POPC   C3B  432   1.236   2.703   6.570  0.2660 -0.3122  0.1090
    5POPC   C4B  433   1.007   2.874   6.163 -0.1926 -0.2805 -0.0837
    6POPC   NC3  434   7.821   0.708   8.503 -0.2672  0.1993 -0.2917
    6POPC   PO4  435   7.605   0.755   8.080 -0.0077  0.3783 -0.0027
    6POPC   GL1  436   7.705   0.672   7.730 -0.2308  0.1079 -0.1647
    6POPC   GL2  437   7.444   0.433   7.660 -0.0443  0.0370  0.3464
    6POPC   C1A  438   7.606   0.800   7.299  0.1053 -0.0796 -0.0825
    6POPC   D2A  439   7.668   0.829   6.825  0.0769 -0.0794 -0.0892
    6POPC   C3A  440   7.386   0.534   6.779  0.0827 -0.2349  0.0591
    6POPC   C4A  441   7.012   0.615   6.679 -0.1703  0.1938  0.1256
    6POPC   C1B  442   7.168   0.520   7.221 -0.0550  0.1083  0.1486
    6POPC   C2B  443   7.146   0.902   7.078  0.0581 -0.1277  0.0136
    6POPC   C3B  444   7.284   1.237   7.078  0.0640  0.2217  0.0037
    6POPC   C4B  445   6.971   1.491   7.026 -0.2120  0.2176  0.1270
    7POPC   NC3  446   1.420   4.415   8.204 -0.2619  0.0085  0.0527
    7POPC   PO4  447   1.843   4.462   8.384 -0.1633  0.2367  0.1411
    7POPC   GL1  448   2.010   4.631   8.035  0.2400 -0.1083  0.3009
    7POPC   GL2  449   1.746   4.433   7.830 -0.3284  0.0554  0.2482
    7POPC   C1A  450   2.198   4.693   7.638 -0.1218 -0.1092 -0.3247
    7POPC   D2A  451   2.001   4.751   7.204 -0.0720 -0.0930 -0.0367
    7POPC   C3A  452   2.267   4.957   6.884 -0.0810 -0.3291  0.1717
    7POPC   C4A  453   2.168   5.171   6.426 -0.1262 -0.2642 -0.1534
    7POPC   C1B  454   1.926   4.197   7.462 -0.0470 -0.0799  0.1201
    7POPC   C2B  455   2.101   4.184   7.128  0.3983 -0.4231 -0.0878
    7POPC   C3B  456   2.061   4.102   6.706 -0.2218  0.0515 -0.0985
    7POPC   C4B  457   2.225   4.177   6.297  0.0340 -0.0494 -0.1981
    8POPC   NC3  458   4.966   4.553   9.279  0.0568  0.0207  0.1598
    8POPC   PO4  459   5.079   4.819   9.418 -0.4609  0.1749 -0.2013
    8POPC   GL1  460   5.087   4.937   9.000 -0.1778  0.1459 -0.0610
    8POPC   GL2  461   5.300   5.176   8.881  0.2304 -0.0076 -0.0596
    8POPC   C1A  462   4.977   4.907   8.599  0.0451  0.1965 -0.2523
    8POPC   D2A  463   4.858   4.705   8.252 -0.2004  0.3007 -0.2902
    8POPC   C3A  464   4.490   4.513   8.052  0.2919 -0.1174 -0.0421
    8POPC   C4A  465   4.183   4.177   7.802 -0.1904 -0.0581  0.2881
    8POPC   C1B  466   5.071   5.444   9.000  0.3300 -0.0856 -0.0400
    8POPC   C2B  467   4.804   5.771   8.913 -0.0951  0.0636 -0.0264
    8POPC   C3B  468   4.709   6.113   8.626 -0.1166  0.1682  0.1339
    8POPC   C4B  469   5.058   6.310   8.661 -0.2290 -0.0921 -0.0316
    9POPC   NC3  470   4.947   0.921   8.523  0.0632 -0.0300 -0.2295
    9POPC   PO4  471   4.650   1.039   8.324  0.0986 -0.1478 -0.1914
    9POPC   GL1  472   4.602   1.196   7.951 -0.5582 -0.1821 -0.1027
    9POPC   GL2  473   4.777   1.423   7.892  0.0031 -0.1110 -0.3534
    9POPC   C1A  474   4.663   1.003   7.580  0.0764 -0.0368 -0.0805
    9POPC   D2A  475   4.697   0.989   7.101 -0.2838 -0.2563  0.0108
    9POPC   C3A  476   4.323   0.890   6.847  0.2345  0.4784 -0.0127
    9POPC   C4A  477   3.903   0.817   7.019  0.0459  0.1390  0.0737
    9POPC   C1B  478   4.944   1.391   7.415  0.2036 -0.0407 -0.2266
    9POPC   C2B  479   5.108   1.293   7.060  0.1245  0.0959  0.0506
    9POPC   C3B  480   5.522   1.194   6.885 -0.0203  0.1301  0.1630
    9POPC   C4B  481   5.634   0.865   6.553  0.1256  0.1215  0.0395
   10POPC   NC3  482   7.406   5.667   7.867  0.2652 -0.0109  0.0347
   10POPC   PO4  483   7.746   5.333   7.659 -0.1136 -0.2764 -0.2273
   10POPC   GL1  484   7.293   5.374   7.464 -0.1392 -0.0759 -0.1255
   10POPC   GL2  485   7.440   5.522   7.239 -0.2244  0.1963  0.0535
   10POPC   C1A  486   6.924   5.386   7.152  0.2068 -0.2992  0.1446
   10POPC   D2A  487   6.877   5.605   6.719 -0.0803 -0.0208  0.1678
   10POPC   C3A  488   6.607   5.694   6.401 -0.1418  0.2668  0.0918
   10POPC   C4A  489   6.292   5.972   6.202 -0.1168 -0.1313 -0.0208
   10POPC   C1B  490   7.485   5.772   6.851 -0.2857 -0.0558  0.2238
   10POPC   C2B  491   7.872   6.026   6.607 -0.1421  0.1161 -0.0071
   10POPC   C3B  492   8.051   6.331   6.409 -0.1463  0.2630 -0.0788
   10POPC   C4B  493   8.043   6.628   6.016  0.2373  0.2096  0.0383
   11POPC   NC3  494   3.795   7.138   9.457 -0.2226 -0.1127  0.1087
   11POPC   PO4  495   4.059   7.464   9.185  0.0959  0.0308 -0.1234
   11POPC   GL1  496   3.776   7.186   8.902 -0.3652  0.2313  0.1070
   11POPC   GL2  497   3.529   7.066   8.703 -0.0053  0.0596 -0.0806
   11POPC   C1A  498   3.894   6.698   8.622 -0.4334 -0.3345  0.0293
   11POPC   D2A  499   3.819   6.550   8.196 -0.2437  0.2277 -0.0151
   11POPC   C3A  500   3.513   6.338   8.106  0.1196 -0.0667  0.1330
   11POPC   C4A  501   3.388   5.934   8.152  0.0096  0.0170  0.2806
   11POPC   C1B  502   3.558   7.467   8.460 -0.0222  0.0885  0.1132
   11POPC   C2B  503   3.418   7.692   8.171  0.4038 -0.0896 -0.2400
   11POPC   C3B  504   3.422   7.653   7.748 -0.1844  0.3082 -0.1167
   11POPC   C4B  505   3.343   7.193   7.587  0.1714 -0.0917 -0.0164
   12POPC   NC3  506   2.427   8.308   8.553 -0.2451  0.0675  0.1413
   12POPC   PO4  507   2.566   7.945   8.547  0.0649  0.0223 -0.0670
   12POPC   GL1  508   2.658   7.831   8.127  0.0330 -0.4200  0.2651
   12POPC   GL2  509   2.911   7.991   7.844  0.1439 -0.1659  0.0819
   12POPC   C1A  510   2.430   7.979   7.703  0.1467 -0.0826 -0.0037
   12POPC   D2A  511   2.121   8.237   7.455  0.0479 -0.2872  0.1201
   12POPC   C3A  512   2.335   8.618   7.217 -0.3072  0.2253  0.2257
   12POPC   C4A  513   2.607   8.953   7.347 -0.0449  0.0915 -0.1984
   12POPC   C1B  514   2.964   7.788   7.469  0.0986 -0.1008 -0.1636
   12POPC   C2B  515   3.056   7.812   7.008 -0.0666  0.0265  0.0879
   12POPC   C3B  516   2.778   8.101   6.701  0.0535 -0.2214  0.1475
   12POPC   C4B  517   2.542   8.418   6.438 -0.1843  0.1804  0.1906
   13POPC   NC3  518   6.605   4.718   8.417  0.0626  0.0254 -0.0714
   13POPC   PO4  519   6.308   4.449   8.198  0.1669 -0.0015 -0.0515
   13POPC   GL1  520   6.511   4.619   7.852  0.2144 -0.0720  0.1546
   13POPC   GL2  521   6.525   5.019   7.846 -0.2846  0.0551 -0.1376
   13POPC   C1A  522   6.366   4.586   7.418 -0.1687  0.0840  0.0883
   13POPC   D2A  523   6.080   4.268   7.112  0.1150  0.2338  0.1341
   13POPC   C3A  524   5.909   4.167   6.702 -0.1582 -0.2422 -0.0544
   13POPC   C4A  525   5.525   4.222   6.394  0.2588 -0.0525 -0.1691
   13POPC   C1B  526   6.352   5.222   7.505  0.0756  0.2193 -0.0899
   13POPC   C2B  527   6.413   5.224   7.043  0.1182  0.4830 -0.0958
   13POPC   C3B  528   6.427   5.167   6.615  0.3896  0.0777  0.2563
   13POPC   C4B  529   6.401   5.029   6.224 -0.1924 -0.1841  0.2423
   14POPC   NC3  530   1.876   8.404   8.192  0.1211 -0.3774 -0.2788
   14POPC   PO4  531   2.112   8.013   8.348  0.0793  0.0840  0.0866
   14POPC   GL1  532   2.032   7.880   8.013  0.5383 -0.0251 -0.0347
   14POPC   GL2  533   2.167   7.578   8.025  0.2077 -0.1698  0.1045
   14POPC   C1A  534   2.023   7.791   7.536 -0.0621  0.3804  0.0024
   14POPC   D2A  535   2.067   7.817   7.175 -0.0953 -0.0764  0.1073
   14POPC   C3A  536   2.090   7.562   6.813 -0.3636 -0.2620  0.0461
   14POPC   C4A  537   2.272   7.302   6.518 -0.0722 -0.3701 -0.0012
   14POPC   C1B  538   2.361   7.467   7.656 -0.1075 -0.1303 -0.1434
   14POPC   C2B  539   2.540   7.721   7.329 -0.0475 -0.0537  0.0211
   14POPC   C3B  540   2.560   7.684   6.889 -0.1192  0.0412  0.0816
   14POPC   C4B  541   2.542   7.757   6.428  0.1789 -0.0325  0.0383
   15POPC   NC3  542   1.387   6.379   8.554  0.2514  0.1429  0.0188
   15POPC   PO4  543   1.760   6.146   8.541  0.0128 -0.1372  0.2369
   15POPC   GL1  544   1.965   6.244   8.120  0.1074 -0.1270  0.1245
   15POPC   GL2  545   2.190   6.341   8.359  0.1821 -0.0141  0.2008
   15POPC   C1A  546   2.088   6.102   7.664  0.1128 -0.2323 -0.2013
   15POPC   D2A  547   2.536   6.000   7.283 -0.3603  0.0714  0.2634
   15POPC   C3A  548   2.480   5.868   6.855  0.2483 -0.0810  0.0235
   15POPC   C4A  549   2.479   5.462   6.693  0.0864 -0.0835 -0.1850
   15POPC   C1B  550   2.622   6.550   8.278  0.0438 -0.0099 -0.0530
   15POPC   C2B  551   2.804   6.884   8.038  0.0978  0.0930  0.0212
   15POPC   C3B  552   2.586   7.061   7.832  0.0625 -0.0975  0.1581
   15POPC   C4B  553   2.336   6.899   7.468  0.1983  0.0109 -0.1376
   16POPC   NC3  554   5.963   0.760   7.898  0.0534 -0.0868  0.3347
   16POPC   PO4  555   5.491   0.816   8.065  0.0099 -0.0173 -0.2831
   16POPC   GL1  556   5.408   0.980   7.735  0.0891  0.0174 -0.1677
   16POPC   GL2  557   5.543   0.744   7.540 -0.0674 -0.0435  0.1636
   16POPC   C1A  558   5.588   1.252   7.377  0.2545  0.0315  0.1481
   16POPC   D2A  559   5.936   1.223   7.116  0.2116 -0.2878 -0.0478
   16POPC   C3A  560   6.007   1.170   6.686 -0.0517  0.2948 -0.0951
   16POPC   C4A  561   6.404   1.266   6.632  0.1356  0.0860  0.1064
   16POPC   C1B  562   5.725   0.780   7.065 -0.1875 -0.2827 -0.1251
   16POPC   C2B  563   6.017   0.624   6.767  0.2246 -0.2115  0.1157
   16POPC   C3B  564   6.162   0.184   6.711 -0.1075  0.2150 -0.1108
   16POPC   C4B  565   6.103  -0.215   6.769  0.0297 -0.0097  0.2095
   17POPC   NC3  566   4.671   2.449   8.102  0.1788  0.1709 -0.2281
   17POPC   PO4  567   5.041   2.301   8.005 -0.0402  0.2150 -0.0472
   17POPC   GL1  568   4.962   2.553   7.667  0.1523  0.0272 -0.0601
   17POPC   GL2  569   4.657   2.423   7.430  0.1469  0.1374 -0.1353
   17POPC   C1A  570   5.013   2.788   7.273 -0.0705  0.1816 -0.0318
   17POPC   D2A  571   5.136   3.062   7.005  0.2120  0.3106  0.2355
   17POPC   C3A  572   5.124   2.948   6.517 -0.2011  0.2978  0.1772
   17POPC   C4A  573   4.969   2.976   6.080  0.3157 -0.0205 -0.1041
   17POPC   C1B  574   4.669   2.319   7.053  0.0798 -0.1206  0.2511
   17POPC   C2B  575   4.821   2.231   6.608 -0.2620  0.2309 -0.1379
   17POPC   C3B  576   5.208   2.188   6.694 -0.0821 -0.1839  0.0296
   17POPC   C4B  577   5.567   2.080   6.797  0.2406  0.1678  0.2331
   18POPC   NC3  578   6.277   7.087   8.622 -0.2300 -0.2642  0.5061
   18POPC   PO4  579   6.627   7.297   8.505 -0.1873  0.1293 -0.1248
   18POPC   GL1  580   6.501   7.137   8.122  0.0988 -0.0259  0.1137
   18POPC   GL2  581   6.810   7.018   7.929 -0.2492 -0.1566  0.0587
   18POPC   C1A  582   6.339   6.860   7.741  0.0508  0.2900  0.2092
   18POPC   D2A  583   6.417   6.647   7.384 -0.1248 -0.1825 -0.2050
   18POPC   C3A  584   6.693   6.665   7.094  0.3291 -0.0693 -0.0653
   18POPC   C4A  585   6.933   6.685   6.689  0.0413  0.1507 -0.0277
   18POPC   C1B  586   6.645   7.132   7.488 -0.1558  0.1125 -0.0609
   18POPC   C2B  587   6.391   7.078   7.060 -0.3109  0.4059 -0.0461
   18POPC   C3B  588   6.204   7.279   6.627 -0.1621  0.0121 -0.2223
   18POPC   C4B  589   6.147   7.091   6.261 -0.4002 -0.2117 -0.4768
   19POPC   NC3  590   3.010   9.083   8.052 -0.0020 -0.0485 -0.2163
   19POPC   PO4  591   2.568   8.810   8.240 -0.1708  0.1161 -0.4220
   19POPC   GL1  592   2.356   8.949   7.839 -0.2089  0.2352 -0.1075
   19POPC   GL2  593   2.359   8.645   7.675  0.0756 -0.2386  0.2888
   19POPC   C1A  594   2.085   9.088   7.444 -0.2234  0.2558 -0.1168
   19POPC   D2A  595   2.191   9.046   7.005 -0.1967 -0.1832 -0.0771
   19POPC   C3A  596   2.123   9.424   6.816  0.1104  0.1246 -0.2012
   19POPC   C4A  597   2.477   9.805   6.718  0.0849 -0.2328 -0.0691
   19POPC   C1B  598   2.636   8.349   7.528 -0.4502  0.0938 -0.3449
   19POPC   C2B  599   2.685   8.225   7.225  0.0792 -0.2058  0.4420
   19POPC   C3B  600   2.352   8.172   6.927 -0.1785  0.4549  0.2380
   19POPC   C4B  601   2.110   8.177   6.458 -0.4002  0.0756  0.0253
   20POPC   NC3  602   3.038   1.367   8.484 -0.0583 -0.0601 -0.0551
   20POPC   PO4  603   3.083   1.206   8.089 -0.1997 -0.0773  0.0913
   20POPC   GL1  604   3.145   1.322   7.639  0.3471  0.3355 -0.0511
   20POPC   GL2  605   3.269   1.608   7.664 -0.0339  0.1247 -0.0467
   20POPC   C1A  606   3.082   1.098   7.324 -0.1774 -0.1584  0.1893
   20POPC   D2A  607   3.004   0.865   6.848  0.1639 -0.1919 -0.2708
   20POPC   C3A  608   3.369   0.729   6.529  0.3145 -0.1119  0.2778
   20POPC   C4A  609   3.525   0.293   6.260 -0.1108  0.0367  0.2436
   20POPC   C1B  610   3.405   1.571   7.199  0.3182 -0.4754 -0.3661
   20POPC   C2B  611   3.591   1.537   6.755  0.2317 -0.0817 -0.0710
   20POPC   C3B  612   3.511   1.718   6.346 -0.1653 -0.1659 -0.3810
   20POPC   C4B  613   3.432   1.789   5.934 -0.0110 -0.2837  0.0271
   21POPC   NC3  614   2.808   0.528   7.900 -0.1173 -0.2786 -0.2317
   21POPC   PO4  615   2.597   0.181   8.074  0.2982 -0.0754 -0.1617
   21POPC   GL1  616   2.774   0.061   7.766 -0.1645  0.0323 -0.0901
   21POPC   GL2  617   2.713  -0.315   7.662 -0.0577  0.0781 -0.1394
   21POPC   C1A  618   2.965   0.087   7.360  0.0359  0.0332  0.1895
   21POPC   D2A  619   3.020  -0.020   6.922  0.1381 -0.0460 -0.4271
   21POPC   C3A  620   3.110   0.229   6.611  0.0186  0.3045 -0.3629
   21POPC   C4A  621   2.781   0.563   6.479 -0.1512 -0.2557 -0.2625
   21POPC   C1B  622   2.963  -0.399   7.246  0.0099 -0.1147  0.1805
   21POPC   C2B  623   3.077  -0.674   6.819  0.0495  0.2376 -0.1164
   21POPC   C3B  624   2.899  -0.763   6.391 -0.0245  0.2624  0.1689
   21POPC   C4B  625   2.601  -0.972   6.036  0.1889 -0.1202 -0.3295
   22POPC   NC3  626   3.821   3.406   8.432  0.0731 -0.0375  0.0305
   22POPC   PO4  627   3.535   3.201   8.256 -0.2638 -0.0343  0.0293
   22POPC   GL1  628   3.657   3.083   7.787  0.1196 -0.0801 -0.2701
   22POPC   GL2  629   3.934   2.844   7.874  0.0901  0.2444  0.0464
   22POPC   C1A  630   3.491   3.325   7.403  0.0394  0.2416  0.1057
   22POPC   D2A  631   3.142   3.307   7.022 -0.0380  0.1013 -0.4619
   22POPC   C3A  632   3.406   3.162   6.721  0.2640  0.5516 -0.3480
   22POPC   C4A  633   3.542   2.738   6.622  0.1182 -0.3419  0.0854
   22POPC   C1B  634   4.125   2.745   7.438 -0.0930  0.0457  0.2571
   22POPC   C2B  635   4.145   2.782   7.068 -0.0971  0.1350 -0.0824
   22POPC   C3B  636   4.116   2.863   6.577  0.0129  0.0887 -0.1762
   22POPC   C4B  637   4.048   3.103   6.200  0.1580  0.1296  0.2804
   23POPC   NC3  638   6.958   2.872   8.699 -0.1313 -0.0620 -0.2523
   23POPC   PO4  639   7.099   2.608   8.296 -0.1248 -0.3390 -0.2064
   23POPC   GL1  640   6.877   2.646   7.910 -0.2914 -0.1228 -0.0385
   23POPC   GL2  641   6.589   2.680   7.762 -0.0541 -0.0852 -0.4278
   23POPC   C1A  642   7.015   2.863   7.526  0.0145  0.1443  0.1911
   23POPC   D2A  643   7.434   3.057   7.273 -0.1452  0.0773  0.1687
   23POPC   C3A  644   7.458   3.213   6.806 -0.0662  0.0406  0.0926
   23POPC   C4A  645   7.593   3.398   6.424 -0.1060  0.0858 -0.0869
   23POPC   C1B  646   6.342   2.927   7.554  0.2024  0.1413 -0.0001
   23POPC   C2B  647   6.473   3.294   7.195  0.0823  0.2317 -0.3156
   23POPC   C3B  648   6.638   3.536   6.873 -0.1510  0.2150 -0.1442
   23POPC   C4B  649   6.779   3.631   6.445  0.2102  0.3077  0.0930
   24POPC   NC3  650   1.832   6.648   8.517  0.2630 -0.0060  0.0521
   24POPC   PO4  651   1.552   6.802   8.250 -0.0495  0.2529  0.0766
   24POPC   GL1  652   1.202   6.636   8.052  0.3734 -0.2138 -0.0132
   24POPC   GL2  653   0.933   6.850   7.831 -0.5350  0.0230 -0.0238
   24POPC   C1A  654   1.218   6.471   7.656  0.0817 -0.2171 -0.1391
   24POPC   D2A  655   1.300   6.437   7.287  0.2102 -0.0088 -0.2745
   24POPC   C3A  656   1.634   6.371   7.012 -0.1407 -0.0197 -0.0386
   24POPC   C4A  657   1.940   6.208   6.700 -0.0678 -0.5840 -0.3837
   24POPC   C1B  658   1.001   6.825   7.338 -0.0805 -0.1542  0.1660
   24POPC   C2B  659   0.901   6.758   6.874 -0.0693 -0.0255  0.0066
   24POPC   C3B  660   0.972   6.763   6.462  0.0765  0.2052  0.1973
   24POPC   C4B  661   1.048   6.986   6.097 -0.0035  0.0630 -0.2618
   25POPC   NC3  662   0.379   4.420   7.964 -0.0046  0.1467 -0.0288
   25POPC   PO4  663  -0.055   4.251   7.960 -0.3189 -0.2243 -0.1372
   25POPC   GL1  664  -0.017   4.415   7.634  0.0584 -0.2238 -0.1476
   25POPC   GL2  665  -0.074   4.713   7.688 -0.0676 -0.0222 -0.0063
   25POPC   C1A  666  -0.144   4.319   7.289  0.0738  0.2817 -0.0874
   25POPC   D2A  667  -0.564   4.169   7.130  0.3547 -0.0565  0.1097
   25POPC   C3A  668  -0.401   3.843   6.839 -0.2179  0.1075 -0.2207
   25POPC   C4A  669  -0.110   3.545   6.854  0.0614 -0.3124  0.2166
   25POPC   C1B  670   0.148   4.777   7.332 -0.0565  0.0584 -0.0795
   25POPC   C2B  671   0.271   4.461   7.021 -0.1349 -0.1516 -0.0639
   25POPC   C3B  672   0.327   4.348   6.526  0.1294  0.0264  0.2699
   25POPC   C4B  673   0.312   4.012   6.342  0.2738  0.1540  0.0988
   26POPC   NC3  674   2.227   2.096   8.272  0.2283  0.2920  0.6551
   26POPC   PO4  675   2.007   2.489   8.249  0.4227 -0.3838  0.2765
   26POPC   GL1  676   2.151   2.618   7.864 -0.1675 -0.0044 -0.0323
   26POPC   GL2  677   2.254   2.317   7.695  0.2100  0.0149 -0.0757
   26POPC   C1A  678   2.177   2.706   7.361  0.2012  0.0664  0.0275
   26POPC   D2A  679   2.379   2.934   6.984  0.0772  0.0137 -0.0214
   26POPC   C3A  680   2.266   3.114   6.588 -0.2358 -0.1777 -0.0754
   26POPC   C4A  681   2.009   3.237   6.278 -0.0983 -0.0836  0.2750
   26POPC   C1B  682   2.590   2.388   7.329 -0.3338  0.0533  0.2216
   26POPC   C2B  683   2.540   2.477   6.863  0.2131 -0.2888  0.2627
   26POPC   C3B  684   2.753   2.166   6.542 -0.2346 -0.2574  0.1205
   26POPC   C4B  685   3.032   1.973   6.212  0.3038 -0.1393  0.1290
   27POPC   NC3  686   3.305   4.798   9.571 -0.0554 -0.0773 -0.0847
   27POPC   PO4  687   3.581   4.909   9.328 -0.0166  0.2088 -0.2509
   27POPC   GL1  688   3.724   5.167   9.030 -0.5999 -0.0787  0.1540
   27POPC   GL2  689   3.905   4.989   8.751  0.1420  0.0128  0.2279
   27POPC   C1A  690   3.694   5.433   8.701  0.0582 -0.3679  0.1879
   27POPC   D2A  691   3.705   5.937   8.668 -0.0825 -0.2150 -0.2918
   27POPC   C3A  692   4.097   5.978   8.775 -0.3267 -0.0821  0.1025
   27POPC   C4A  693   4.330   5.821   8.465 -0.0797  0.2282 -0.0075
   27POPC   C1B  694   3.782   4.923   8.415  0.2921  0.0530 -0.0364
   27POPC   C2B  695   3.786   5.220   8.036 -0.1815  0.2908  0.0151
   27POPC   C3B  696   3.508   5.213   7.597  0.2885  0.3914 -0.0131
   27POPC   C4B  697   3.446   4.801   7.391  0.1263  0.2029  0.0708
   28POPC   NC3  698   8.674   7.681   8.289 -0.1054  0.0895  0.0138
   28POPC   PO4  699   8.349   7.356   8.111 -0.1995  0.1559 -0.0314
   28POPC   GL1  700   8.371   7.291   7.602  0.1423 -0.0749 -0.1446
   28POPC   GL2  701   8.087   7.359   7.343  0.1665 -0.2083 -0.2060
   28POPC   C1A  702   8.424   7.034   7.187 -0.0807 -0.1965  0.0189
   28POPC   D2A  703   8.730   7.030   6.867 -0.3638 -0.1180  0.0872
   28POPC   C3A  704   8.830   7.331   6.568 -0.1771  0.2208  0.2952
   28POPC   C4A  705   8.581   7.642   6.401 -0.1903  0.0563 -0.2400
   28POPC   C1B  706   7.967   7.029   7.031 -0.1971 -0.4903  0.3739
   28POPC   C2B  707   7.884   6.907   6.645  0.2544 -0.2633  0.1574
   28POPC   C3B  708   7.733   6.970   6.312 -0.0625  0.0430 -0.0731
   28POPC   C4B  709   7.662   6.987   5.905 -0.1210  0.0678  0.1596
   29POPC   NC3  710   9.560   7.037   8.385 -0.1264  0.1486 -0.0193
   29POPC   PO4  711   9.973   7.152   8.319 -0.1706 -0.0122  0.2219
   29POPC   GL1  712  10.114   7.256   7.885  0.0308  0.1399  0.3121
   29POPC   GL2  713   9.822   7.131   7.707  0.2347 -0.0593  0.3545
   29POPC   C1A  714  10.250   7.123   7.508 -0.0210 -0.0593  0.1094
   29POPC   D2A  715  10.043   7.014   7.034 -0.2203  0.3370 -0.1588
   29POPC   C3A  716  10.240   6.970   6.619  0.0295 -0.3943  0.0854
   29POPC   C4A  717  10.298   6.895   6.160 -0.0443 -0.1874  0.0742
   29POPC   C1B  718   9.621   7.205   7.271  0.2800 -0.3713  0.1268
   29POPC   C2B  719   9.267   7.403   6.947  0.0233 -0.2004 -0.0311
   29POPC   C3B  720   8.972   7.688   6.927 -0.1652  0.1629  0.0872
   29POPC   C4B  721   8.702   8.059   6.654 -0.3361  0.0953  0.0738
   30POPC   NC3  722   4.666   3.502   8.656  0.3417  0.3005 -0.2429
   30POPC   PO4  723   4.232   3.693   8.533 -0.0929 -0.3033  0.0163
   30POPC   GL1  724   4.114   3.642   8.085 -0.0448 -0.2452  0.0572
   30POPC   GL2  725   4.041   3.328   8.016  0.2456  0.2383  0.2301
   30POPC   C1A  726   4.141   3.709   7.629  0.0628 -0.2543 -0.1347
   30POPC   D2A  727   3.824   3.647   7.361  0.0950  0.2755 -0.0008
   30POPC   C3A  728   3.647   3.913   6.956 -0.5088 -0.2274 -0.3514
   30POPC   C4A  729   3.642   4.046   6.510  0.1646 -0.0925 -0.0114
   30POPC   C1B  730   4.035   3.234   7.575 -0.0452  0.1079  0.2689
   30POPC   C2B  731   4.250   3.374   7.214 -0.0189 -0.1933 -0.2959
   30POPC   C3B  732   4.247   3.217   6.885  0.0105 -0.1154  0.1565
   30POPC   C4B  733   4.252   3.373   6.571  0.2919  0.0759 -0.0091
   31POPC   NC3  734   1.128   7.565   8.615  0.0835 -0.0711 -0.3717
   31POPC   PO4  735   1.186   7.692   8.186 -0.1301 -0.0799  0.3091
   31POPC   GL1  736   1.057   7.758   7.779 -0.3708  0.1724 -0.0169
   31POPC   GL2  737   0.965   7.356   7.755  0.1348 -0.0517  0.1914
   31POPC   C1A  738   0.975   7.850   7.261 -0.1325  0.2825  0.2363
   31POPC   D2A  739   0.643   7.688   6.943 -0.0189 -0.1929  0.0996
   31POPC   C3A  740   0.573   7.834   6.529 -0.0484 -0.3374 -0.0200
   31POPC   C4A  741   0.362   8.024   6.157  0.0076  0.1116 -0.1407
   31POPC   C1B  742   1.055   7.341   7.325 -0.4887  0.0497 -0.0799
   31POPC   C2B  743   0.720   7.236   7.041 -0.6376  0.1578  0.3244
   31POPC   C3B  744   0.306   7.402   6.741  0.0941  0.1239 -0.2814
   31POPC   C4B  745  -0.031   7.664   6.439 -0.1585  0.5057 -0.1943
   32POPC   NC3  746   2.930   2.252   8.751  0.1017 -0.1082  0.1637
   32POPC   PO4  747   2.983   2.573   8.317  0.0317 -0.1225 -0.1675
   32POPC   GL1  748   2.994   2.770   7.925 -0.1337 -0.0341  0.0555
   32POPC   GL2  749   2.640   2.804   7.657  0.0557 -0.0404  0.0534
   32POPC   C1A  750   3.072   3.014   7.493 -0.0552 -0.0563 -0.1287
   32POPC   D2A  751   2.847   2.938   7.084  0.2307  0.1749  0.4104
   32POPC   C3A  752   3.060   2.818   6.713  0.0412 -0.0432  0.1677
   32POPC   C4A  753   2.766   2.698   6.474 -0.3433  0.2558  0.0171
   32POPC   C1B  754   2.519   3.167   7.431  0.5778  0.2452  0.0555
   32POPC   C2B  755   2.650   3.481   7.057  0.1078  0.1672  0.0787
   32POPC   C3B  756   2.899   3.683   6.699  0.0280  0.0385  0.1366
   32POPC   C4B  757   3.345   3.693   6.619 -0.3970 -0.0225 -0.2989
   33POPC   NC3  758   3.041   3.685   7.986  0.1282 -0.0899  0.3013
   33POPC   PO4  759   2.498   3.748   8.101 -0.1051 -0.2344 -0.0679
   33POPC   GL1  760   2.597   3.722   7.637  0.0681 -0.3429 -0.0179
   33POPC   GL2  761   2.931   3.529   7.519 -0.1680  0.3508 -0.1021
   33POPC   C1A  762   2.300   3.709   7.310 -0.0396  0.1087  0.3036
   33POPC   D2A  763   2.155   3.646   6.838  0.1070  0.4141  0.0312
   33POPC   C3A  764   2.419   3.595   6.628  0.1425  0.1042  0.3349
   33POPC   C4A  765   2.754   3.214   6.668 -0.5054  0.4115 -0.1654
   33POPC   C1B  766   3.263   3.783   7.268 -0.4113  0.1619 -0.0578
   33POPC   C2B  767   3.365   4.281   7.318  0.1546  0.0975 -0.3127
   33POPC   C3B  768   3.438   4.446   7.808 -0.3605 -0.0138 -0.0520
   33POPC   C4B  769   3.512   4.822   7.943 -0.2705 -0.2178 -0.1860
   34POPC   NC3  770   8.913   3.097   8.146  0.1009 -0.1873  0.2567
   34POPC   PO4  771   8.753   3.348   7.866  0.0837 -0.0749 -0.0484
   34POPC   GL1  772   8.790   3.169   7.412  0.2646 -0.2856 -0.1986
   34POPC   GL2  773   8.468   3.241   7.395 -0.2693  0.0148 -0.2414
   34POPC   C1A  774   8.804   3.014   7.023  0.1804 -0.2984 -0.0756
   34POPC   D2A  775   8.534   3.016   6.646  0.4168  0.0380  0.2345
   34POPC   C3A  776   8.148   2.745   6.720  0.0361  0.0415 -0.0028
   34POPC   C4A  777   7.929   2.400   6.452  0.2051 -0.5053  0.0755
   34POPC   C1B  778   8.372   3.360   7.047  0.0813 -0.3327  0.0434
   34POPC   C2B  779   8.069   3.688   6.941  0.1474  0.1131  0.0572
   34POPC   C3B  780   7.812   3.775   6.658  0.0020 -0.0502  0.0327
   34POPC   C4B  781   7.857   3.810   6.282 -0.1057 -0.1295  0.0518
   35POPC   NC3  782   8.488   1.795   7.688 -0.0972 -0.0499  0.0943
   35POPC   PO4  783   8.323   1.388   7.826 -0.1391 -0.3110  0.0870
   35POPC   GL1  784   8.291   1.038   7.626  0.1075 -0.0819  0.0867
   35POPC   GL2  785   8.498   0.870   7.794 -0.1577 -0.1123  0.0515
   35POPC   C1A  786   8.504   0.943   7.270 -0.0439 -0.4191  0.2990
   35POPC   D2A  787   8.709   0.706   6.908  0.4550 -0.0479  0.0314
   35POPC   C3A  788   8.555   0.772   6.499  0.0906  0.2867 -0.0532
   35POPC   C4A  789   8.581   1.115   6.218 -0.2731  0.2919 -0.0334
   35POPC   C1B  790   8.154   0.607   7.457 -0.1180 -0.0716 -0.1132
   35POPC   C2B  791   8.200   0.662   6.974 -0.4247  0.1483 -0.0391
   35POPC   C3B  792   8.285   0.376   6.676 -0.3151 -0.0103  0.0167
   35POPC   C4B  793   8.161   0.198   6.234 -0.1374 -0.1051  0.3969
   36POPC   NC3  794   8.103   8.570   8.209  0.0771 -0.1538 -0.0360
   36POPC   PO4  795   7.752   8.528   7.993 -0.0330  0.0650  0.0342
   36POPC   GL1  796   7.834   8.387   7.575  0.1478 -0.1582 -0.1136
   36POPC   GL2  797   7.662   8.248   7.569 -0.1138  0.1730  0.0545
   36POPC   C1A  798   8.038   8.356   7.095  0.1870 -0.3525  0.0390
   36POPC   D2A  799   8.150   8.703   6.670  0.2161 -0.0005 -0.1777
   36POPC   C3A  800   8.553   8.690   6.543 -0.0132  0.0303  0.1998
   36POPC   C4A  801   8.840   8.371   6.251  0.1984  0.1117 -0.3406
   36POPC   C1B  802   7.491   8.062   7.213 -0.2966 -0.4062 -0.1198
   36POPC   C2B  803   7.239   7.770   7.264  0.1884  0.0363  0.1863
   36POPC   C3B  804   6.908   7.658   7.564  0.1406  0.1123  0.0433
   36POPC   C4B  805   6.596   7.963   7.722 -0.2850  0.0286 -0.1986
   37POPC   NC3  806   0.236   8.840   8.336  0.1167 -0.0641 -0.0462
   37POPC   PO4  807   0.039   8.448   8.208  0.3809  0.1353 -0.0873
   37POPC   GL1  808   0.060   8.237   7.831 -0.1770 -0.0675 -0.1168
   37POPC   GL2  809   0.121   8.380   7.598  0.0663  0.2888 -0.1639
   37POPC   C1A  810   0.305   7.834   7.854  0.0108  0.2215  0.0821
   37POPC   D2A  811   0.542   7.575   7.566  0.0512 -0.1343  0.2542
   37POPC   C3A  812   0.306   7.498   7.231  0.0824 -0.2442  0.2569
   37POPC   C4A  813  -0.057   7.751   6.981 -0.0980 -0.3998  0.0769
   37POPC   C1B  814  -0.038   8.462   7.178 -0.3299 -0.0957 -0.4696
   37POPC   C2B  815  -0.172   8.345   6.937 -0.0481 -0.3024  0.0358
   37POPC   C3B  816  -0.422   8.022   6.666  0.2278 -0.1251 -0.0238
   37POPC   C4B  817  -0.617   7.694   6.322  0.1717  0.2243 -0.0589
   38POPC   NC3  818   0.997   4.188   8.527 -0.0932  0.1688  0.0582
   38POPC   PO4  819   0.858   4.378   8.098  0.1552  0.2853 -0.1483
   38POPC   GL1  820   0.805   4.492   7.670 -0.4811 -0.1117  0.1862
   38POPC   GL2  821   0.635   4.833   7.557  0.0376 -0.0923  0.1663
   38POPC   C1A  822   0.759   4.283   7.325  0.0399  0.0985  0.0309
   38POPC   D2A  823   0.578   4.014   6.941 -0.1621 -0.1746 -0.0493
   38POPC   C3A  824   1.072   3.847   6.916  0.0071  0.1666  0.1421
   38POPC   C4A  825   1.348   3.568   7.092 -0.2416  0.1899  0.0222
   38POPC   C1B  826   0.679   4.773   7.126 -0.0853 -0.0394  0.2660
   38POPC   C2B  827   0.662   4.680   6.666  0.2141  0.3577  0.0458
   38POPC   C3B  828   0.662   4.731   6.235 -0.2410 -0.2268 -0.1123
   38POPC   C4B  829   0.697   5.004   5.892  0.2405 -0.1410 -0.0920
   39POPC   NC3  830   5.347   2.723   8.129  0.1883  0.1127  0.0643
   39POPC   PO4  831   4.955   2.889   8.111  0.5968  0.1026  0.1357
   39POPC   GL1  832   4.978   3.139   7.760 -0.1292  0.0757  0.2229
   39POPC   GL2  833   5.276   2.989   7.745  0.4408  0.1847  0.0363
   39POPC   C1A  834   5.013   3.347   7.420 -0.0880 -0.1477  0.0512
   39POPC   D2A  835   5.199   3.646   7.080  0.0493 -0.1477  0.1948
   39POPC   C3A  836   5.208   3.463   6.621  0.0058 -0.2921 -0.0286
   39POPC   C4A  837   4.888   3.520   6.348  0.3299 -0.2011  0.0598
   39POPC   C1B  838   5.513   3.224   7.463 -0.0120 -0.1270  0.0931
   39POPC   C2B  839   5.650   3.636   7.303  0.4174  0.2601  0.2662
   39POPC   C3B  840   5.592   4.017   7.150  0.2252  0.1363 -0.3976
   39POPC   C4B  841   5.353   4.094   6.823  0.1066  0.3271 -0.1118
   40POPC   NC3  842   9.445   8.006   8.232  0.0878 -0.0897 -0.2976
   40POPC   PO4  843   9.241   7.656   8.190 -0.3734 -0.1865  0.0311
   40POPC   GL1  844   9.212   7.774   7.830 -0.1522  0.4169 -0.1011
   40POPC   GL2  845   9.349   7.968   7.721 -0.0213 -0.0846 -0.1220
   40POPC   C1A  846   8.871   7.995   7.569 -0.0576 -0.1602 -0.0720
   40POPC   D2A  847   8.630   7.908   7.283 -0.0284  0.2414 -0.0247
   40POPC   C3A  848   8.166   7.902   7.398  0.1753  0.3472 -0.0183
   40POPC   C4A  849   7.815   7.747   7.470  0.0286  0.0129 -0.2781
   40POPC   C1B  850   9.644   7.866   7.497  0.1756 -0.2423  0.1958
   40POPC   C2B  851  10.025   8.013   7.285 -0.0232  0.1711  0.3983
   40POPC   C3B  852  10.304   8.231   7.039  0.3439  0.2360 -0.1915
   40POPC   C4B  853  10.557   8.760   6.993  0.3332  0.1594  0.3716
   41POPC   NC3  854   9.108   2.266   8.266  0.0426  0.1037  0.0310
   41POPC   PO4  855   9.028   2.619   7.922  0.0555  0.2381  0.0019
   41POPC   GL1  856   9.238   2.542   7.618 -0.0984  0.2302  0.2456
   41POPC   GL2  857   8.836   2.556   7.366  0.0206  0.1700 -0.1969
   41POPC   C1A  858   9.451   2.219   7.310 -0.0413 -0.1105  0.2124
   41POPC   D2A  859   9.217   2.173   6.944 -0.2721  0.1498  0.0900
   41POPC   C3A  860   9.442   2.207   6.478  0.1076  0.2172  0.3274
   41POPC   C4A  861   9.695   2.364   6.248  0.0792  0.1036  0.1052
   41POPC   C1B  862   8.648   2.235   7.154  0.1319  0.2526 -0.1369
   41POPC   C2B  863   8.480   1.742   7.031 -0.0225 -0.1970 -0.2619
   41POPC   C3B  864   8.506   1.365   6.836  0.1907 -0.3742 -0.2445
   41POPC   C4B  865   8.982   1.170   6.719 -0.2359  0.1280  0.3325
   42POPC   NC3  866   8.897   6.648   8.084  0.1150 -0.0960  0.4939
   42POPC   PO4  867   9.238   6.505   7.908 -0.2010  0.1792 -0.2070
   42POPC   GL1  868   9.316   6.691   7.593 -0.0294 -0.0579 -0.1850
   42POPC   GL2  869   9.707   6.665   7.496 -0.1331 -0.1720 -0.1615
   42POPC   C1A  870   9.312   6.806   7.153 -0.3023 -0.4651  0.1011
   42POPC   D2A  871   9.277   6.996   6.663  0.1584  0.1363  0.0900
   42POPC   C3A  872   9.031   6.781   6.443 -0.1585 -0.0471 -0.0584
   42POPC   C4A  873   8.960   6.446   6.190 -0.0539  0.0197 -0.0668
   42POPC   C1B  874   9.817   6.551   7.156 -0.3004 -0.2721  0.0262
   42POPC   C2B  875   9.741   6.720   6.747 -0.0564 -0.0177 -0.2129
   42POPC   C3B  876   9.718   7.004   6.399 -0.0245  0.2193 -0.1982
   42POPC   C4B  877   9.744   6.848   6.024  0.1495 -0.1105 -0.2770
   43POPC   NC3  878   3.490   0.012   8.962 -0.0039 -0.2807  0.2001
   43POPC   PO4  879   3.315   0.024   8.539  0.4278  0.1466  0.1800
   43POPC   GL1  880   3.481   0.022   8.145 -0.2209  0.0054  0.3117
   43POPC   GL2  881   3.779  -0.157   8.012  0.1519 -0.2042 -0.1569
   43POPC   C1A  882   3.389   0.263   7.782  0.1138 -0.1192 -0.0460
   43POPC   D2A  883   3.279   0.498   7.264  0.0972 -0.0985  0.1285
   43POPC   C3A  884   3.529   0.513   6.947  0.0046 -0.0566  0.2222
   43POPC   C4A  885   3.648   0.265   6.750 -0.1009 -0.1138 -0.0892
   43POPC   C1B  886   3.760  -0.283   7.561 -0.3202  0.1067  0.0430
   43POPC   C2B  887   4.097  -0.500   7.325  0.1515  0.1609 -0.2253
   43POPC   C3B  888   4.455  -0.771   7.056  0.3569  0.4989  0.3768
   43POPC   C4B  889   4.554  -0.865   6.637  0.0541  0.1311  0.0707
   44POPC   NC3  890   1.033   1.164   8.526  0.2426 -0.2550  0.2770
   44POPC   PO4  891   1.187   1.321   8.102  0.2833 -0.0701 -0.1765
   44POPC   GL1  892   0.957   1.255   7.793  0.1330 -0.1092 -0.2776
   44POPC   GL2  893   0.941   1.609   7.664 -0.1829  0.3598  0.0501
   44POPC   C1A  894   0.987   1.066   7.528 -0.0035 -0.1629  0.2900
   44POPC   D2A  895   1.201   0.776   7.127 -0.2252 -0.2277 -0.1510
   44POPC   C3A  896   1.524   0.928   6.884 -0.1131  0.0521 -0.0767
   44POPC   C4A  897   1.704   0.690   6.607 -0.3759  0.3978 -0.0683
   44POPC   C1B  898   0.889   1.645   7.183  0.0684 -0.0658 -0.3035
   44POPC   C2B  899   0.968   1.482   6.948  0.1997 -0.2851  0.0439
   44POPC   C3B  900   1.225   1.407   6.607 -0.0900  0.1072  0.0002
   44POPC   C4B  901   1.283   1.527   6.180  0.0133  0.2849 -0.0267
   45POPC   NC3  902   1.678   1.346   8.141  0.1637  0.1356 -0.1416
   45POPC   PO4  903   1.482   0.959   8.375  0.2161 -0.0732  0.0110
   45POPC   GL1  904   1.447   0.972   7.851 -0.0953  0.1410  0.2698
   45POPC   GL2  905   1.805   1.104   7.765 -0.0465 -0.1424 -0.2001
   45POPC   C1A  906   1.654   0.852   7.399  0.0970 -0.1976  0.0251
   45POPC   D2A  907   1.979   1.049   7.035 -0.0614 -0.2244  0.1553
   45POPC   C3A  908   2.061   1.136   6.655 -0.1059  0.1224  0.1972
   45POPC   C4A  909   1.726   1.250   6.324  0.2153  0.2691 -0.1134
   45POPC   C1B  910   1.859   1.317   7.456  0.0279  0.3601  0.0374
   45POPC   C2B  911   2.054   1.616   7.103 -0.1116 -0.3445 -0.0926
   45POPC   C3B  912   1.825   1.919   6.911  0.1105  0.0526 -0.1762
   45POPC   C4B  913   1.772   2.202   6.663  0.0653 -0.0673 -0.2364
   46POPC   NC3  914   6.107   8.005   8.857 -0.0653  0.1491 -0.0343
   46POPC   PO4  915   5.690   8.229   8.871 -0.0272  0.2025 -0.2292
   46POPC   GL1  916   5.705   8.152   8.475 -0.1403  0.2642 -0.2698
   46POPC   GL2  917   5.717   7.754   8.588  0.3767  0.0159  0.1283
   46POPC   C1A  918   5.849   7.994   8.085  0.3182  0.2116 -0.1775
   46POPC   D2A  919   5.843   8.001   7.674  0.3153 -0.1953  0.1863
   46POPC   C3A  920   5.996   7.635   7.491 -0.0496  0.1452 -0.0804
   46POPC   C4A  921   6.340   7.501   7.341  0.0150  0.1209  0.1553
   46POPC   C1B  922   5.441   7.703   8.211 -0.0208  0.2445 -0.2059
   46POPC   C2B  923   5.111   7.749   7.994 -0.0318  0.1177  0.0638
   46POPC   C3B  924   4.756   8.041   7.899 -0.1512  0.0448  0.1478
   46POPC   C4B  925   4.595   8.395   8.104  0.0404  0.1213 -0.1952
   47POPC   NC3  926   7.092   6.505   8.297  0.2746 -0.4195 -0.0014
   47POPC   PO4  927   7.187   6.082   8.132 -0.0899 -0.0449 -0.1702
   47POPC   GL1  928   6.949   5.959   7.798 -0.0903 -0.1598 -0.1258
   47POPC   GL2  929   6.975   5.773   7.551  0.0462  0.0445 -0.0132
   47POPC   C1A  930   6.684   6.181   7.532  0.1926  0.0974 -0.0975
   47POPC   D2A  931   6.264   6.164   7.361 -0.0055  0.3358 -0.0094
   47POPC   C3A  932   6.023   5.813   7.555 -0.2122 -0.1003 -0.1969
   47POPC   C4A  933   5.862   5.425   7.552 -0.2300  0.3493  0.6891
   47POPC   C1B  934   7.084   5.861   7.115 -0.0826 -0.0132  0.0873
   47POPC   C2B  935   6.756   6.086   6.907 -0.0265 -0.0739 -0.1843
   47POPC   C3B  936   6.599   6.270   6.554 -0.0524  0.3662  0.0263
   47POPC   C4B  937   6.118   6.401   6.380 -0.1447 -0.1773  0.2892
   48POPC   NC3  938   1.918   7.562   8.513 -0.2049 -0.0222 -0.1284
   48POPC   PO4  939   2.015   7.150   8.443  0.1259 -0.1775  0.0966
   48POPC   GL1  940   2.268   6.843   8.130 -0.1011  0.0212  0.0476
   48POPC   GL2  941   1.982   6.791   8.003  0.0842  0.1321 -0.1993
   48POPC   C1A  942   2.374   6.495   7.828 -0.1007 -0.1854  0.0112
   48POPC   D2A  943   2.634   6.125   7.731 -0.2156  0.5185  0.1416
   48POPC   C3A  944   2.417   5.696   7.721  0.1001  0.1053  0.2868
   48POPC   C4A  945   2.314   5.277   7.741 -0.0414  0.1593 -0.1708
   48POPC   C1B  946   1.604   6.811   7.631 -0.2036 -0.2794 -0.0955
   48POPC   C2B  947   1.472   6.975   7.298  0.0859  0.3500 -0.0841
   48POPC   C3B  948   1.396   6.865   6.885 -0.1006 -0.0214  0.2341
   48POPC   C4B  949   1.290   6.479   6.664  0.1446  0.0464 -0.1085
   49POPC   NC3  950   6.952   8.707   8.264  0.2946 -0.1630 -0.2454
   49POPC   PO4  951   6.654   8.660   8.537 -0.2544 -0.0685 -0.2258
   49POPC   GL1  952   6.562   8.450   8.122 -0.1407  0.2061  0.3116
   49POPC   GL2  953   6.737   8.348   7.935  0.0197 -0.0701  0.0695
   49POPC   C1A  954   6.204   8.259   7.842  0.1473  0.1908 -0.1306
   49POPC   D2A  955   6.106   8.148   7.331  0.0145 -0.2538  0.5664
   49POPC   C3A  956   6.526   7.953   7.206  0.0576 -0.0682  0.1711
   49POPC   C4A  957   6.757   7.698   7.047  0.0849  0.1402  0.0729
   49POPC   C1B  958   6.875   8.307   7.428 -0.0098  0.0640  0.1544
   49POPC   C2B  959   6.931   8.289   7.101 -0.0980 -0.1460  0.0679
   49POPC   C3B  960   6.891   8.490   6.647  0.1652 -0.2295  0.2077
   49POPC   C4B  961   7.155   8.280   6.293 -0.2076 -0.3031  0.0139
   50POPC   NC3  962   1.236   7.169   8.133  0.1822 -0.2114 -0.3490
   50POPC   PO4  963   1.486   7.195   8.563  0.0360  0.3169  0.2475
   50POPC   GL1  964   1.668   7.288   8.109 -0.2647 -0.2846 -0.1602
   50POPC   GL2  965   1.595   7.499   8.005 -0.2228  0.0345 -0.0348
   50POPC   C1A  966   1.956   7.221   7.784 -0.0730 -0.0061 -0.1203
   50POPC   D2A  967   1.897   7.247   7.242  0.2292  0.1448  0.1788
   50POPC   C3A  968   1.530   7.375   6.941  0.1276 -0.0963 -0.2263
   50POPC   C4A  969   1.140   7.380   6.813 -0.1559 -0.0637  0.0529
   50POPC   C1B  970   1.517   7.454   7.571  0.0300 -0.1822  0.0398
   50POPC   C2B  971   1.460   7.784   7.328 -0.1227 -0.2720  0.0109
   50POPC   C3B  972   1.436   7.895   6.973 -0.3589  0.2836  0.2000
   50POPC   C4B  973   1.208   7.876   6.587 -0.0338  0.1469 -0.0680
   51POPC   NC3  974   0.893   0.109   8.692  0.2829 -0.1529  0.1613
   51POPC   PO4  975   0.838   0.327   8.289 -0.0027  0.1905  0.0321
   51POPC   GL1  976   0.884   0.100   7.881 -0.0389  0.3992  0.3964
   51POPC   GL2  977   0.568  -0.119   7.759  0.0155  0.1497  0.2896
   51POPC   C1A  978   0.847   0.195   7.457  0.1356  0.0556 -0.0268
   51POPC   D2A  979   0.954   0.321   7.032  0.1812 -0.0227 -0.0846
   51POPC   C3A  980   0.640   0.066   6.913 -0.1587  0.2634 -0.1555
   51POPC   C4A  981   0.372   0.004   6.507  0.0978  0.1366 -0.0180
   51POPC   C1B  982   0.445  -0.176   7.347 -0.0992  0.1715  0.1120
   51POPC   C2B  983   0.442  -0.446   7.040 -0.1510  0.2476  0.3656
   51POPC   C3B  984   0.362  -0.862   6.826 -0.5892  0.0924  0.0520
   51POPC   C4B  985   0.409  -1.080   7.240 -0.0949 -0.0215  0.1521
   52POPC   NC3  986   7.382   8.080   8.506 -0.0540 -0.1656  0.0644
   52POPC   PO4  987   7.313   8.371   8.247  0.1258 -0.1268 -0.0807
   52POPC   GL1  988   7.235   8.517   7.831 -0.0107 -0.0163  0.1803
   52POPC   GL2  989   7.084   8.748   7.746 -0.1414  0.3506 -0.0481
   52POPC   C1A  990   7.324   8.534   7.359 -0.0554 -0.3550  0.0346
   52POPC   D2A  991   7.582   8.614   6.987 -0.2020 -0.0817  0.0095
   52POPC   C3A  992   7.292   8.317   6.775  0.1629 -0.2308 -0.0977
   52POPC   C4A  993   7.018   7.956   6.701 -0.1692  0.3005 -0.0261
   52POPC   C1B  994   6.900   8.839   7.310  0.4027 -0.1108  0.1506
   52POPC   C2B  995   7.126   8.771   6.933  0.1519 -0.2832 -0.1959
   52POPC   C3B  996   7.281   8.755   6.528 -0.0347 -0.2585 -0.0835
   52POPC   C4B  997   7.231   8.934   6.097 -0.1336 -0.3706  0.1417
   53POPC   NC3  998   1.401   9.258   8.365 -0.0429  0.0343  0.0006
   53POPC   PO4  999   1.074   9.031   8.134  0.1106 -0.0467 -0.1592
   53POPC   GL1 1000   1.154   8.996   7.667 -0.1908  0.4339  0.1346
   53POPC   GL2 1001   1.058   9.256   7.663 -0.1548 -0.2226  0.1203
   53POPC   C1A 1002   1.272   8.839   7.211  0.0601 -0.0523  0.0164
   53POPC   D2A 1003   1.366   9.032   6.872  0.0515  0.0099  0.0441
   53POPC   C3A 1004   1.275   8.827   6.533  0.2457  0.0004  0.0843
   53POPC   C4A 1005   0.923   8.663   6.359  0.1057 -0.3597  0.0608
   53POPC   C1B 1006   0.972   9.300   7.137  0.0294  0.3271  0.0474
   53POPC   C2B 1007   0.986   9.297   6.645 -0.1087 -0.1252  0.1336
   53POPC   C3B 1008   1.027   9.198   6.203 -0.0530 -0.1223 -0.1147
   53POPC   C4B 1009   1.136   8.805   5.959 -0.0792 -0.1844  0.0163
   54POPC   NC3 1010   2.475   2.875   8.161  0.0168  0.1422 -0.1283
   54POPC   PO4 1011   2.568   2.374   8.084  0.0770  0.3175  0.0555
   54POPC   GL1 1012   2.803   2.322   7.760  0.2245  0.2971  0.1846
   54POPC   GL2 1013   2.971   2.016   7.745  0.3716  0.1027 -0.3593
   54POPC   C1A 1014   3.065   2.533   7.490  0.5162 -0.0084 -0.0624
   54POPC   D2A 1015   3.272   2.689   7.144 -0.0983  0.0940  0.0618
   54POPC   C3A 1016   3.721   2.965   7.014  0.3068  0.0614  0.1014
   54POPC   C4A 1017   3.784   3.390   6.923 -0.1171 -0.0911 -0.1055
   54POPC   C1B 1018   2.946   2.060   7.322  0.2242 -0.2416  0.0330
   54POPC   C2B 1019   2.984   2.354   6.961 -0.2586 -0.3937 -0.1933
   54POPC   C3B 1020   3.249   2.293   6.604 -0.1411 -0.3200  0.2188
   54POPC   C4B 1021   3.253   2.593   6.231  0.1300 -0.0235 -0.0708
   55POPC   NC3 1022   5.546   1.764   8.292 -0.3799 -0.0601  0.2997
   55POPC   PO4 1023   5.993   1.582   8.323 -0.4347 -0.0570 -0.0679
   55POPC   GL1 1024   5.860   1.582   7.867 -0.0418  0.1802 -0.2472
   55POPC   GL2 1025   5.553   1.530   7.804  0.1464 -0.0169 -0.0041
   55POPC   C1A 1026   5.857   1.684   7.442 -0.2813 -0.4470  0.1315
   55POPC   D2A 1027   5.576   1.784   7.164  0.2361 -0.1325  0.1599
   55POPC   C3A 1028   5.324   1.614   6.711 -0.1881  0.4551  0.2314
   55POPC   C4A 1029   5.198   1.498   6.213  0.0629 -0.0239  0.0106
   55POPC   C1B 1030   5.317   1.672   7.579 -0.0432 -0.0238  0.0223
   55POPC   C2B 1031   5.168   2.074   7.469  0.3391 -0.0011  0.2588
   55POPC   C3B 1032   5.287   2.305   7.240 -0.1718 -0.4661 -0.1189
   55POPC   C4B 1033   5.473   2.559   6.931  0.1279 -0.2708  0.0738
   56POPC   NC3 1034   3.504   2.686   8.108  0.2323  0.1781  0.1851
   56POPC   PO4 1035   3.792   2.334   8.041 -0.3109 -0.2962  0.1181
   56POPC   GL1 1036   3.837   2.357   7.629  0.1393 -0.1114  0.1951
   56POPC   GL2 1037   3.691   2.490   7.334  0.0287  0.0148 -0.1101
   56POPC   C1A 1038   4.155   2.309   7.208 -0.0965  0.1003 -0.0619
   56POPC   D2A 1039   4.286   2.385   6.729 -0.3865 -0.0062  0.0102
   56POPC   C3A 1040   3.934   2.470   6.389  0.2406  0.0967 -0.3800
   56POPC   C4A 1041   3.622   2.266   6.094  0.2498  0.0527 -0.3141
   56POPC   C1B 1042   3.779   2.465   6.938 -0.0028  0.0022 -0.0889
   56POPC   C2B 1043   3.718   2.109   6.564 -0.0738 -0.0712  0.1622
   56POPC   C3B 1044   3.972   1.884   6.297  0.1455  0.3354  0.0274
   56POPC   C4B 1045   3.934   1.440   6.118  0.2510 -0.0674 -0.3442
   57POPC   NC3 1046   6.616   5.235   8.651 -0.1999 -0.2446  0.0973
   57POPC   PO4 1047   6.761   5.162   8.278  0.2724  0.1815 -0.0668
   57POPC   GL1 1048   6.510   5.456   8.099  0.0743 -0.1589 -0.1263
   57POPC   GL2 1049   6.593   5.827   8.128 -0.0482 -0.1581  0.2052
   57POPC   C1A 1050   6.172   5.405   7.931  0.0767 -0.2424  0.0282
   57POPC   D2A 1051   5.664   5.337   7.969 -0.1257  0.4011  0.0739
   57POPC   C3A 1052   5.436   5.738   8.092 -0.2079 -0.0809 -0.0648
   57POPC   C4A 1053   5.209   5.797   8.606  0.0779  0.2602 -0.0489
   57POPC   C1B 1054   6.500   5.774   7.726  0.3319  0.0704 -0.0512
   57POPC   C2B 1055   6.476   5.693   7.271 -0.0377  0.0089  0.0871
   57POPC   C3B 1056   6.298   5.759   6.873  0.1780 -0.0668 -0.1326
   57POPC   C4B 1057   5.931   5.974   6.657  0.0357 -0.3600 -0.2351
   58POPC   NC3 1058   0.410   1.802   8.300  0.0813 -0.2703  0.0617
   58POPC   PO4 1059   0.553   1.307   8.365  0.2288  0.0811  0.1230
   58POPC   GL1 1060   0.517   1.391   7.971  0.1387  0.2147  0.0670
   58POPC   GL2 1061   0.472   1.055   7.918  0.2997 -0.0179  0.2642
   58POPC   C1A 1062   0.361   1.506   7.512  0.0164  0.1595  0.0006
   58POPC   D2A 1063   0.398   1.524   7.041 -0.1082 -0.2205  0.3807
   58POPC   C3A 1064   0.559   1.387   6.701 -0.0690  0.2063 -0.1227
   58POPC   C4A 1065   0.792   1.144   6.341  0.0125  0.3119 -0.3447
   58POPC   C1B 1066   0.463   0.993   7.468 -0.0233  0.2018 -0.3703
   58POPC   C2B 1067   0.655   1.145   7.161  0.1494  0.1752 -0.0643
   58POPC   C3B 1068   0.937   0.965   6.756 -0.3770 -0.1791  0.1327
   58POPC   C4B 1069   1.257   0.976   6.398  0.4389 -0.3227 -0.1285
   59POPC   NC3 1070   7.162   0.471   8.077 -0.0729  0.2555 -0.0783
   59POPC   PO4 1071   7.006   0.811   7.810  0.0676  0.3232  0.0616
   59POPC   GL1 1072   6.841   0.955   7.423  0.1690  0.0706 -0.0397
   59POPC   GL2 1073   6.753   0.651   7.375 -0.0097 -0.0355  0.2319
   59POPC   C1A 1074   6.501   1.076   7.160 -0.1448 -0.0925 -0.0374
   59POPC   D2A 1075   6.461   1.464   7.153 -0.2361 -0.1581  0.0214
   59POPC   C3A 1076   6.409   1.728   6.721  0.2112  0.0391 -0.0734
   59POPC   C4A 1077   6.675   2.080   6.508 -0.4712  0.0793 -0.1047
   59POPC   C1B 1078   6.710   0.259   7.143 -0.2081 -0.4070 -0.1293
   59POPC   C2B 1079   6.653   0.291   6.680 -0.2472  0.1996 -0.1198
   59POPC   C3B 1080   6.443   0.407   6.246  0.0131 -0.0101 -0.0996
   59POPC   C4B 1081   6.145   0.216   5.962  0.1377  0.2803  0.5803
   60POPC   NC3 1082   1.513   5.685   8.655 -0.0513 -0.0456  0.1178
   60POPC   PO4 1083   1.103   5.531   8.544  0.0915  0.1213  0.1165
   60POPC   GL1 1084   0.917   5.609   8.149 -0.1561  0.0992 -0.0090
   60POPC   GL2 1085   0.640   5.443   8.096 -0.1241 -0.0289 -0.3043
   60POPC   C1A 1086   1.110   5.845   7.760  0.0083  0.2102 -0.1329
   60POPC   D2A 1087   1.389   5.971   7.347  0.0559 -0.1562  0.2098
   60POPC   C3A 1088   1.780   5.899   7.350 -0.0817 -0.1008  0.2690
   60POPC   C4A 1089   2.131   6.182   7.153  0.1241  0.2319  0.0797
   60POPC   C1B 1090   0.815   5.359   7.680 -0.0841 -0.2037 -0.0061
   60POPC   C2B 1091   1.115   5.199   7.293  0.2655 -0.1669 -0.2485
   60POPC   C3B 1092   1.050   5.036   6.920  0.0846 -0.3555  0.0235
   60POPC   C4B 1093   0.945   5.126   6.487  0.0202 -0.2337 -0.1582
   61POPC   NC3 1094   3.592   9.254   8.816 -0.1804  0.3436  0.0394
   61POPC   PO4 1095   3.904   9.244   8.429 -0.0237 -0.0647 -0.1087
   61POPC   GL1 1096   3.762   9.005   8.108  0.2040 -0.1277  0.1125
   61POPC   GL2 1097   3.508   9.146   7.862 -0.0150 -0.1336 -0.2441
   61POPC   C1A 1098   3.917   8.918   7.664  0.2031  0.0284  0.1216
   61POPC   D2A 1099   4.035   8.684   7.251  0.0834  0.0155 -0.1526
   61POPC   C3A 1100   3.933   8.940   6.827  0.1138  0.0020 -0.4130
   61POPC   C4A 1101   4.177   9.214   6.729 -0.0725 -0.2090  0.0467
   61POPC   C1B 1102   3.372   8.819   7.446  0.1177 -0.0467 -0.1493
   61POPC   C2B 1103   2.968   8.611   7.157  0.1585 -0.1970  0.0979
   61POPC   C3B 1104   2.585   8.814   6.828  0.0063 -0.0814 -0.2289
   61POPC   C4B 1105   2.319   8.865   6.457 -0.0930 -0.0792  0.0294
   62POPC   NC3 1106   1.943   0.746   8.352  0.0112  0.1637  0.3719
   62POPC   PO4 1107   2.434   0.680   8.167  0.0610 -0.1459  0.1840
   62POPC   GL1 1108   2.403   0.886   7.735  0.2673  0.1957 -0.2227
   62POPC   GL2 1109   2.710   1.031   7.744  0.0606 -0.0672  0.1326
   62POPC   C1A 1110   2.144   0.754   7.457  0.1537  0.3594 -0.0859
   62POPC   D2A 1111   2.029   0.515   7.188 -0.0095 -0.0226  0.0136
   62POPC   C3A 1112   2.450   0.375   7.164  0.1207 -0.1294 -0.0796
   62POPC   C4A 1113   2.888   0.443   7.008  0.0323 -0.2907 -0.2230
   62POPC   C1B 1114   2.712   0.835   7.335  0.0481  0.3713 -0.2389
   62POPC   C2B 1115   2.426   0.882   6.978 -0.2885 -0.1105 -0.1331
   62POPC   C3B 1116   2.331   0.632   6.697 -0.1969  0.1075  0.2245
   62POPC   C4B 1117   2.379   0.336   6.308 -0.2060  0.0089 -0.0321
   63POPC   NC3 1118   7.939   9.022   7.964  0.1061  0.0938  0.3240
   63POPC   PO4 1119   8.368   9.042   8.017  0.1042  0.1352 -0.2101
   63POPC   GL1 1120   8.309   9.148   7.704  0.0842 -0.2044  0.0116
   63POPC   GL2 1121   8.078   9.367   7.562 -0.2230  0.0745  0.1992
   63POPC   C1A 1122   8.240   8.937   7.274  0.0823 -0.0742  0.2917
   63POPC   D2A 1123   8.086   9.173   6.900 -0.1108 -0.0054  0.2198
   63POPC   C3A 1124   8.143   9.608   6.964 -0.2059  0.0930 -0.1599
   63POPC   C4A 1125   8.302   9.906   7.234 -0.0405 -0.1883  0.0088
   63POPC   C1B 1126   8.412   9.444   7.312 -0.0270  0.3363  0.0973
   63POPC   C2B 1127   8.850   9.553   7.281  0.3216  0.0410  0.2741
   63POPC   C3B 1128   9.145   9.776   7.089 -0.0336  0.1552 -0.0686
   63POPC   C4B 1129   9.633   9.788   7.263  0.1262 -0.0399 -0.3820
   64POPC   NC3 1130   4.519   6.495   9.371  0.0308 -0.2088  0.1212
   64POPC   PO4 1131   4.193   6.860   9.275  0.4510  0.0741 -0.0618
   64POPC   GL1 1132   4.249   6.994   8.808 -0.0903 -0.0220 -0.4577
   64POPC   GL2 1133   4.578   7.145   8.611 -0.0369 -0.0136 -0.1049
   64POPC   C1A 1134   4.291   6.894   8.273 -0.1068  0.3400  0.3468
   64POPC   D2A 1135   4.300   6.926   7.970 -0.0111  0.0383  0.1107
   64POPC   C3A 1136   4.658   7.060   7.710  0.0537 -0.1097 -0.0990
   64POPC   C4A 1137   4.592   7.037   7.308  0.1528 -0.0627  0.2123
   64POPC   C1B 1138   4.763   7.319   8.318 -0.3249  0.0281  0.1849
   64POPC   C2B 1139   4.656   7.509   7.820 -0.2074 -0.0769 -0.3267
   64POPC   C3B 1140   4.944   7.485   7.457 -0.2804  0.1277 -0.1263
   64POPC   C4B 1141   4.941   7.674   7.078 -0.0612 -0.1459 -0.0446
   65POPC   NC3 1142   2.939   5.292   8.750  0.3174  0.0360 -0.2175
   65POPC   PO4 1143   2.529   5.067   8.601  0.2200  0.2507 -0.1153
   65POPC   GL1 1144   2.846   5.180   8.225  0.3375 -0.0594  0.1153
   65POPC   GL2 1145   2.976   4.877   8.158  0.0683  0.0146 -0.0779
   65POPC   C1A 1146   2.854   5.198   7.785  0.0473 -0.2466 -0.2474
   65POPC   D2A 1147   3.049   5.134   7.395 -0.0111  0.1555  0.0645
   65POPC   C3A 1148   2.795   4.881   6.957  0.1212  0.1435 -0.1535
   65POPC   C4A 1149   2.595   4.927   6.516  0.3411  0.0661 -0.1999
   65POPC   C1B 1150   2.991   4.696   7.694  0.1715  0.0698 -0.0210
   65POPC   C2B 1151   2.901   4.587   7.349  0.1865  0.0186  0.0181
   65POPC   C3B 1152   2.968   4.388   6.978  0.1120  0.0338 -0.0721
   65POPC   C4B 1153   3.118   4.116   6.763 -0.0210  0.1460 -0.1582
   66POPC   NC3 1154   0.865   1.751   8.078 -0.2199  0.1125 -0.0294
   66POPC   PO4 1155   0.735   2.143   8.153 -0.0502  0.0237 -0.0592
   66POPC   GL1 1156   0.683   2.458   7.968 -0.1319  0.2315  0.1076
   66POPC   GL2 1157   0.389   2.583   7.836 -0.2352  0.2411 -0.0083
   66POPC   C1A 1158   0.786   2.363   7.570  0.0137  0.0207  0.3939
   66POPC   D2A 1159   0.995   2.115   7.272 -0.0418 -0.0321 -0.1977
   66POPC   C3A 1160   1.431   2.273   7.207 -0.0913  0.0459 -0.0776
   66POPC   C4A 1161   1.729   2.278   7.467  0.1434 -0.1187 -0.1015
   66POPC   C1B 1162   0.501   2.779   7.394 -0.0896  0.0944  0.2745
   66POPC   C2B 1163   0.597   3.029   7.083  0.2736  0.1492 -0.1758
   66POPC   C3B 1164   0.386   3.328   6.910 -0.0208  0.5534  0.3452
   66POPC   C4B 1165   0.371   3.646   6.636 -0.2755  0.1581  0.1160
   67POPC   NC3 1166   0.446   0.655   8.203  0.0316  0.0024 -0.1960
   67POPC   PO4 1167   0.050   0.402   8.035  0.4682 -0.2099 -0.0541
   67POPC   GL1 1168   0.298   0.482   7.708 -0.0601  0.5186  0.1544
   67POPC   GL2 1169   0.668   0.590   7.785 -0.0966  0.0692  0.0232
   67POPC   C1A 1170   0.334   0.367   7.233  0.1130  0.2304  0.0601
   67POPC   D2A 1171   0.170   0.241   6.880 -0.2607  0.1035  0.1906
   67POPC   C3A 1172  -0.137   0.094   6.604 -0.0673  0.0477 -0.0425
   67POPC   C4A 1173  -0.353  -0.199   6.615  0.0237  0.0176 -0.1699
   67POPC   C1B 1174   1.206   0.566   7.638  0.2424 -0.3864 -0.0123
   67POPC   C2B 1175   1.431   0.404   7.390  0.0358 -0.0139  0.2598
   67POPC   C3B 1176   1.591   0.335   7.059 -0.0313 -0.1150 -0.0385
   67POPC   C4B 1177   1.891   0.237   6.723  0.0488  0.3397 -0.4684
   68POPC   NC3 1178   5.892   9.011   8.231 -0.2476 -0.0748  0.0523
   68POPC   PO4 1179   5.502   9.156   8.230 -0.1379  0.2921 -0.0784
   68POPC   GL1 1180   5.304   9.084   7.812 -0.1511 -0.1625 -0.1213
   68POPC   GL2 1181   5.509   8.942   7.717  0.1452 -0.1478 -0.3650
   68POPC   C1A 1182   5.089   9.503   7.736 -0.2512 -0.1266 -0.1308
   68POPC   D2A 1183   4.918   9.655   7.488 -0.3401  0.0007 -0.0052
   68POPC   C3A 1184   5.068   9.606   7.058 -0.4054 -0.2632  0.2508
   68POPC   C4A 1185   5.226   9.384   6.730 -0.0251 -0.0078 -0.2404
   68POPC   C1B 1186   5.586   8.860   7.287 -0.5173  0.0031  0.0136
   68POPC   C2B 1187   5.342   8.597   7.025 -0.1203 -0.0990  0.3731
   68POPC   C3B 1188   5.305   8.416   6.587 -0.0811  0.1921 -0.3761
   68POPC   C4B 1189   5.226   8.431   6.231  0.0568  0.1126  0.0664
   69POPC   NC3 1190   8.106   5.685   8.410 -0.2950 -0.1255 -0.3988
   69POPC   PO4 1191   8.406   5.765   8.159  0.0534 -0.0005 -0.2290
   69POPC   GL1 1192   8.369   6.090   7.757  0.2056 -0.1213 -0.0541
   69POPC   GL2 1193   8.205   6.054   7.466  0.0495 -0.1212 -0.2308
   69POPC   C1A 1194   8.682   6.073   7.273  0.1476 -0.1732 -0.1264
   69POPC   D2A 1195   9.044   6.015   6.843 -0.0106 -0.0697  0.0644
   69POPC   C3A 1196   9.179   6.117   6.473 -0.0762  0.3448  0.2099
   69POPC   C4A 1197   9.081   5.981   5.924 -0.0615 -0.1381  0.0768
   69POPC   C1B 1198   8.223   6.280   7.108  0.0969 -0.0712  0.1969
   69POPC   C2B 1199   8.412   6.137   6.732 -0.1667 -0.1163  0.2947
   69POPC   C3B 1200   8.558   6.181   6.353 -0.0169 -0.0299 -0.1545
   69POPC   C4B 1201   8.550   5.864   5.981 -0.0127 -0.0068 -0.2111
   70POPC   NC3 1202   6.960   4.738   8.015  0.2283  0.1099  0.1397
   70POPC   PO4 1203   7.025   4.414   7.698 -0.0039 -0.6416 -0.2324
   70POPC   GL1 1204   6.768   4.344   7.453  0.1121  0.0262 -0.1218
   70POPC   GL2 1205   6.470   4.165   7.630  0.0160 -0.2222 -0.2055
   70POPC   C1A 1206   6.830   4.262   6.944 -0.1152  0.2083 -0.0930
   70POPC   D2A 1207   6.834   4.075   6.613  0.2037 -0.0378 -0.2445
   70POPC   C3A 1208   6.796   4.335   6.281 -0.2001 -0.1081 -0.3398
   70POPC   C4A 1209   6.839   4.823   6.191 -0.0482  0.0664 -0.1885
   70POPC   C1B 1210   6.511   3.972   7.231  0.0957  0.1291  0.1218
   70POPC   C2B 1211   6.375   3.948   6.788  0.1710 -0.0446  0.0986
   70POPC   C3B 1212   6.139   4.039   6.309  0.0172 -0.0456 -0.0361
   70POPC   C4B 1213   5.855   3.907   6.030  0.1340  0.3036  0.2147
   71POPC   NC3 1214   9.240   4.568   7.965  0.1117 -0.0293  0.0930
   71POPC   PO4 1215   9.226   4.962   8.168  0.1703 -0.0447  0.1052
   71POPC   GL1 1216   9.154   5.081   7.832  0.0287 -0.0122 -0.1654
   71POPC   GL2 1217   9.114   4.884   7.574  0.1872  0.0356  0.1394
   71POPC   C1A 1218   9.490   5.193   7.492  0.0371 -0.2761 -0.2190
   71POPC   D2A 1219   9.556   5.254   7.012 -0.0183  0.3304  0.0467
   71POPC   C3A 1220   9.939   5.131   6.918 -0.1358 -0.2762 -0.3473
   71POPC   C4A 1221  10.281   5.376   6.858  0.2311  0.1544 -0.2617
   71POPC   C1B 1222   9.356   4.762   7.122 -0.1523 -0.0883  0.1327
   71POPC   C2B 1223   9.614   4.822   6.745 -0.1610 -0.1088  0.1543
   71POPC   C3B 1224   9.858   4.815   6.457  0.2228 -0.0880 -0.2646
   71POPC   C4B 1225  10.138   5.207   6.371  0.1150  0.0402  0.1146
   72POPC   NC3 1226   8.983   1.389   8.540  0.1893  0.1477 -0.3430
   72POPC   PO4 1227   9.290   1.486   8.270 -0.0177 -0.0275  0.0586
   72POPC   GL1 1228   9.394   1.444   7.938 -0.0503 -0.2962  0.0603
   72POPC   GL2 1229   9.663   1.280   7.718 -0.2045  0.3063  0.0273
   72POPC   C1A 1230   9.304   1.637   7.486  0.2939 -0.1101 -0.2117
   72POPC   D2A 1231   9.397   1.501   6.983  0.1907  0.2564  0.1761
   72POPC   C3A 1232   9.243   1.682   6.717 -0.1306 -0.0958 -0.0929
   72POPC   C4A 1233   8.945   1.622   6.473  0.0614  0.2801  0.2562
   72POPC   C1B 1234   9.638   1.195   7.276 -0.1508 -0.3278  0.0038
   72POPC   C2B 1235   9.930   1.021   6.890  0.0044 -0.0111  0.2737
   72POPC   C3B 1236  10.167   0.713   6.897  0.1711 -0.1139 -0.2181
   72POPC   C4B 1237  10.322   0.585   6.517  0.1910 -0.0643 -0.0280
   73POPC   NC3 1238   5.059   6.334   9.938 -0.0783  0.0796 -0.0641
   73POPC   PO4 1239   4.973   6.574   9.580 -0.0066 -0.2531  0.1583
   73POPC   GL1 1240   5.014   6.696   9.140  0.2222 -0.1941 -0.1000
   73POPC   GL2 1241   4.739   6.801   8.984  0.1054 -0.0134 -0.0341
   73POPC   C1A 1242   5.149   6.799   8.709 -0.0480 -0.0158  0.0039
   73POPC   D2A 1243   4.855   6.793   8.357 -0.4595 -0.1497 -0.0015
   73POPC   C3A 1244   5.071   7.050   8.025  0.0745 -0.3032  0.2462
   73POPC   C4A 1245   5.376   7.232   8.018 -0.2624 -0.0312 -0.1072
   73POPC   C1B 1246   4.536   6.573   8.684 -0.1410 -0.1972  0.0464
   73POPC   C2B 1247   4.323   6.406   8.382  0.2550  0.2157  0.1789
   73POPC   C3B 1248   3.934   6.044   8.246 -0.0774 -0.0939  0.1612
   73POPC   C4B 1249   3.790   5.674   8.237  0.1369 -0.1740 -0.1094
   74POPC   NC3 1250   3.949   4.512   9.224 -0.0958  0.2410  0.1345
   74POPC   PO4 1251   4.130   4.557   8.834  0.0552  0.0131 -0.0196
   74POPC   GL1 1252   4.243   4.726   8.474 -0.2500  0.2439  0.3102
   74POPC   GL2 1253   4.480   4.989   8.479 -0.0249  0.0532  0.3275
   74POPC   C1A 1254   4.204   4.940   8.011  0.1023  0.1334  0.0857
   74POPC   D2A 1255   4.123   5.207   7.630 -0.2445 -0.2737  0.1786
   74POPC   C3A 1256   3.888   5.539   7.685  0.2552 -0.1336 -0.0997
   74POPC   C4A 1257   3.768   6.028   7.766  0.1418  0.0182 -0.0904
   74POPC   C1B 1258   4.686   5.171   8.111 -0.0830  0.0106  0.1263
   74POPC   C2B 1259   4.695   4.955   7.759 -0.0145  0.1409  0.1388
   74POPC   C3B 1260   4.917   5.006   7.419 -0.0501  0.0778 -0.2336
   74POPC   C4B 1261   4.872   5.254   7.069  0.0837 -0.0688 -0.3341
   75POPC   NC3 1262   3.846   5.395   9.458  0.2696 -0.2755  0.4140
   75POPC   PO4 1263   4.263   5.504   9.314 -0.0694  0.0354 -0.0321
   75POPC   GL1 1264   4.201   5.419   8.852 -0.0255  0.2223 -0.3758
   75POPC   GL2 1265   4.508   5.298   8.885 -0.1201  0.1559 -0.2261
   75POPC   C1A 1266   4.174   5.345   8.400  0.3508  0.1052  0.1404
   75POPC   D2A 1267   4.287   5.474   8.053  0.3949 -0.0560 -0.2622
   75POPC   C3A 1268   4.323   5.904   7.990  0.0600  0.3598  0.4906
   75POPC   C4A 1269   4.239   6.386   7.916  0.0640 -0.0261 -0.0375
   75POPC   C1B 1270   4.709   5.507   8.549  0.0094 -0.2226  0.2273
   75POPC   C2B 1271   4.904   5.718   8.221 -0.2999 -0.0598 -0.0284
   75POPC   C3B 1272   4.931   5.840   7.848  0.3726  0.3295  0.0111
   75POPC   C4B 1273   4.715   6.091   7.572  0.1064  0.0073  0.0824
   76POPC   NC3 1274   8.190   2.305   8.233  0.0437 -0.0286  0.0440
   76POPC   PO4 1275   8.179   2.726   8.009 -0.0048 -0.0291  0.0873
   76POPC   GL1 1276   8.151   2.756   7.562  0.2219 -0.1604 -0.1851
   76POPC   GL2 1277   7.821   2.734   7.417 -0.2157 -0.0676 -0.1350
   76POPC   C1A 1278   8.413   2.678   7.183 -0.0718 -0.0343 -0.0039
   76POPC   D2A 1279   8.639   2.516   6.757 -0.2758  0.1395  0.2402
   76POPC   C3A 1280   8.450   2.439   6.414  0.0980 -0.2791  0.2748
   76POPC   C4A 1281   8.287   2.465   6.043  0.1460 -0.0010  0.0143
   76POPC   C1B 1282   7.754   2.636   7.044 -0.0229 -0.0225  0.1487
   76POPC   C2B 1283   7.507   2.584   6.740 -0.1228  0.0571  0.1067
   76POPC   C3B 1284   7.233   2.847   6.492 -0.1023 -0.0438 -0.2088
   76POPC   C4B 1285   7.112   3.287   6.360  0.2405  0.0788  0.0282
   77POPC   NC3 1286   5.981   3.053   8.546 -0.1312  0.0900 -0.0586
   77POPC   PO4 1287   6.021   2.652   8.263  0.3597 -0.1609  0.1455
   77POPC   GL1 1288   5.972   2.615   7.812  0.2078  0.1720 -0.0581
   77POPC   GL2 1289   6.155   2.529   7.625  0.2535 -0.0082 -0.3494
   77POPC   C1A 1290   5.701   2.694   7.458  0.1626 -0.0543 -0.0504
   77POPC   D2A 1291   5.923   2.723   7.051  0.0960 -0.1248  0.0620
   77POPC   C3A 1292   5.940   2.455   6.728  0.2647  0.0032 -0.0404
   77POPC   C4A 1293   5.643   2.336   6.400  0.1358 -0.0422 -0.1377
   77POPC   C1B 1294   6.313   2.403   7.332 -0.2441  0.2664  0.1101
   77POPC   C2B 1295   6.411   2.298   6.880 -0.1935 -0.0520 -0.0223
   77POPC   C3B 1296   6.187   2.084   6.455  0.1086 -0.1288 -0.2252
   77POPC   C4B 1297   6.420   2.017   6.029 -0.1032  0.0427 -0.2627
   78POPC   NC3 1298   7.763   1.973   8.142  0.0730  0.1964 -0.2000
   78POPC   PO4 1299   8.178   1.872   8.022  0.0948  0.1111 -0.1250
   78POPC   GL1 1300   7.971   1.859   7.642  0.0221  0.1930 -0.0043
   78POPC   GL2 1301   8.106   1.642   7.424 -0.1272  0.0011 -0.0841
   78POPC   C1A 1302   7.813   2.000   7.297 -0.0645 -0.0207  0.3048
   78POPC   D2A 1303   7.652   2.167   6.937  0.0916 -0.0314  0.1318
   78POPC   C3A 1304   7.713   1.957   6.561  0.0816 -0.1847 -0.1663
   78POPC   C4A 1305   8.029   1.976   6.199  0.3742 -0.1471 -0.1891
   78POPC   C1B 1306   7.973   1.531   6.899 -0.0998 -0.0481  0.0672
   78POPC   C2B 1307   7.647   1.421   6.490 -0.0890  0.0178 -0.0156
   78POPC   C3B 1308   7.682   1.580   5.995  0.0939 -0.1806 -0.1632
   78POPC   C4B 1309   7.885   1.371   5.603 -0.0940 -0.0943 -0.3860
   79POPC   NC3 1310   8.088   6.903   7.727 -0.0686 -0.1181 -0.1196
   79POPC   PO4 1311   8.539   6.944   7.930  0.0768  0.2107  0.1462
   79POPC   GL1 1312   8.858   6.844   7.643 -0.1301 -0.1958 -0.1824
   79POPC   GL2 1313   9.033   7.086   7.499 -0.6168  0.2855  0.0056
   79POPC   C1A 1314   8.932   6.541   7.270  0.0676  0.2270  0.2480
   79POPC   D2A 1315   8.761   6.483   6.778  0.1573 -0.0070 -0.0644
   79POPC   C3A 1316   8.395   6.790   6.629  0.1513  0.1966 -0.1856
   79POPC   C4A 1317   8.242   7.252   6.530 -0.0452 -0.0155 -0.0318
   79POPC   C1B 1318   8.795   7.360   7.224  0.0175  0.0650 -0.0992
   79POPC   C2B 1319   8.452   7.540   6.917 -0.0279  0.1196 -0.0006
   79POPC   C3B 1320   8.225   7.849   6.683  0.1677 -0.1776  0.1067
   79POPC   C4B 1321   7.939   7.663   6.399  0.0764 -0.0767 -0.0379
   80POPC   NC3 1322   6.011   4.725   8.580 -0.1948  0.1508  0.0793
   80POPC   PO4 1323   6.151   5.121   8.797 -0.1686  0.2263  0.1495
   80POPC   GL1 1324   6.185   5.220   8.410  0.2685  0.0545  0.1772
   80POPC   GL2 1325   6.165   4.962   8.181 -0.0974 -0.3241 -0.0437
   80POPC   C1A 1326   5.883   5.546   8.360 -0.0486  0.0271  0.2186
   80POPC   D2A 1327   5.956   5.863   8.099  0.3029  0.4183  0.0630
   80POPC   C3A 1328   5.710   6.081   7.850 -0.1201  0.0440 -0.2178
   80POPC   C4A 1329   5.296   6.233   7.624 -0.1381  0.3614 -0.0155
   80POPC   C1B 1330   6.055   4.919   7.714 -0.0017  0.4730  0.0041
   80POPC   C2B 1331   5.911   4.988   7.271  0.0221  0.4133  0.2145
   80POPC   C3B 1332   5.897   5.320   6.980  0.2124  0.1270 -0.0505
   80POPC   C4B 1333   5.987   5.472   6.675 -0.0520 -0.1576 -0.0145
   81POPC   NC3 1334   8.278   5.139   8.056 -0.0874 -0.1153  0.0807
   81POPC   PO4 1335   8.210   5.531   7.704 -0.0499  0.0806 -0.3156
   81POPC   GL1 1336   8.107   5.378   7.268  0.2708 -0.1744  0.0316
   81POPC   GL2 1337   8.140   5.757   7.071 -0.0578  0.2871  0.2381
   81POPC   C1A 1338   7.844   5.350   6.898 -0.1095 -0.0681  0.0920
   81POPC   D2A 1339   7.792   5.363   6.424  0.3583 -0.1350  0.2747
   81POPC   C3A 1340   7.322   5.088   6.234 -0.0849  0.1223 -0.1210
   81POPC   C4A 1341   7.286   4.570   6.222  0.1063  0.2155  0.0536
   81POPC   C1B 1342   8.225   5.609   6.600 -0.1388  0.0772 -0.0540
   81POPC   C2B 1343   8.151   5.813   6.264 -0.0393 -0.0545  0.2470
   81POPC   C3B 1344   8.080   6.127   5.956 -0.4546 -0.0108 -0.2882
   81POPC   C4B 1345   8.249   6.238   5.541  0.3146  0.2571 -0.1927
   82POPC   NC3 1346   8.225   7.702   8.486 -0.2431 -0.2526 -0.0497
   82POPC   PO4 1347   8.446   8.119   8.254 -0.0746 -0.0160 -0.0007
   82POPC   GL1 1348   8.580   8.296   7.846 -0.0785 -0.0213  0.1259
   82POPC   GL2 1349   8.619   8.583   7.983  0.0542 -0.0243 -0.3331
   82POPC   C1A 1350   8.404   8.329   7.456 -0.0014  0.0076  0.3038
   82POPC   D2A 1351   8.630   8.515   7.079  0.2278 -0.2720 -0.1273
   82POPC   C3A 1352   8.936   8.393   6.859  0.2483 -0.1443 -0.3118
   82POPC   C4A 1353   9.272   8.513   6.506 -0.2340 -0.2132  0.0570
   82POPC   C1B 1354   8.828   8.595   7.514 -0.0416 -0.1485  0.2014
   82POPC   C2B 1355   9.108   8.340   7.316 -0.3978  0.0275 -0.0280
   82POPC   C3B 1356   9.308   8.004   7.204  0.2835  0.0786 -0.1384
   82POPC   C4B 1357   9.215   7.547   7.421  0.1977  0.1501  0.1043
   83POPC   NC3 1358   5.833   6.633   9.147  0.2144 -0.0326  0.0579
   83POPC   PO4 1359   5.923   6.777   8.795 -0.0427  0.0937  0.1091
   83POPC   GL1 1360   6.170   6.544   8.507  0.2190  0.0091 -0.1246
   83POPC   GL2 1361   6.144   6.777   8.261  0.0686 -0.2744  0.1475
   83POPC   C1A 1362   5.890   6.301   8.318 -0.0393  0.1951  0.0722
   83POPC   D2A 1363   5.447   6.187   8.407 -0.1048 -0.0601  0.0018
   83POPC   C3A 1364   5.165   6.210   8.105 -0.2712  0.2012 -0.1613
   83POPC   C4A 1365   4.672   6.217   8.160 -0.1353  0.2445  0.0921
   83POPC   C1B 1366   5.887   6.803   8.025 -0.0693 -0.0300  0.2451
   83POPC   C2B 1367   5.998   7.063   7.522  0.0868 -0.1051  0.1918
   83POPC   C3B 1368   5.953   6.735   7.176  0.2215  0.1307 -0.3843
   83POPC   C4B 1369   5.945   6.794   6.674  0.0617  0.1140 -0.1544
   84POPC   NC3 1370   7.670   4.825   8.220 -0.0291 -0.0467  0.1288
   84POPC   PO4 1371   7.391   4.974   7.873  0.0272 -0.3439 -0.1453
   84POPC   GL1 1372   7.220   4.813   7.505 -0.0151 -0.2068 -0.0667
   84POPC   GL2 1373   6.945   4.952   7.456  0.0934 -0.0639  0.0284
   84POPC   C1A 1374   7.317   5.054   7.032 -0.4286  0.0346  0.2064
   84POPC   D2A 1375   7.402   5.248   6.683  0.2228 -0.0038 -0.0179
   84POPC   C3A 1376   7.345   5.583   6.327 -0.1095 -0.0775 -0.1976
   84POPC   C4A 1377   7.700   5.829   5.976  0.1916 -0.0190 -0.2700
   84POPC   C1B 1378   6.793   4.756   7.125  0.1261 -0.3461  0.2496
   84POPC   C2B 1379   6.562   4.673   6.723 -0.3130 -0.1340 -0.3392
   84POPC   C3B 1380   6.338   4.559   6.271  0.1329 -0.0725  0.0220
   84POPC   C4B 1381   5.945   4.440   6.054  0.0521  0.3463 -0.1130
   85POPC   NC3 1382   8.664   6.204   8.179 -0.1087 -0.2633  0.1322
   85POPC   PO4 1383   9.100   6.247   8.328  0.0383  0.2224  0.0059
   85POPC   GL1 1384   9.166   5.968   7.965  0.1553 -0.0328 -0.0508
   85POPC   GL2 1385   9.219   5.614   7.972  0.0669 -0.0220 -0.0779
   85POPC   C1A 1386   9.155   6.000   7.476 -0.1778  0.0236  0.1710
   85POPC   D2A 1387   9.408   6.261   7.300 -0.0116 -0.3253  0.0594
   85POPC   C3A 1388   9.284   6.472   6.802 -0.1391  0.2252  0.1116
   85POPC   C4A 1389   9.526   6.513   6.389  0.0048 -0.0001  0.1101
   85POPC   C1B 1390   9.078   5.495   7.524 -0.0046  0.3042 -0.0278
   85POPC   C2B 1391   9.025   5.581   7.117 -0.2521 -0.0805  0.1730
   85POPC   C3B 1392   8.715   5.628   6.767 -0.2059 -0.2918 -0.3402
   85POPC   C4B 1393   8.826   5.772   6.408  0.0985 -0.1314 -0.1622
   86POPC   NC3 1394   6.438   9.377   8.119 -0.2147  0.0030  0.2315
   86POPC   PO4 1395   6.168   9.736   8.059 -0.2519 -0.2707 -0.0140
   86POPC   GL1 1396   6.262   9.546   7.661 -0.1872 -0.0265  0.3463
   86POPC   GL2 1397   6.216   9.206   7.655 -0.1171 -0.0425  0.0710
   86POPC   C1A 1398   6.313   9.652   7.172 -0.2588 -0.0744  0.2269
   86POPC   D2A 1399   6.585   9.522   6.838 -0.0131 -0.2538 -0.0314
   86POPC   C3A 1400   6.465   9.601   6.467 -0.2732  0.2304  0.0393
   86POPC   C4A 1401   6.361   9.527   6.008 -0.0011  0.2274  0.0217
   86POPC   C1B 1402   5.962   9.341   7.220 -0.0738 -0.2722 -0.1626
   86POPC   C2B 1403   5.750   9.153   6.892  0.1800  0.1628  0.0415
   86POPC   C3B 1404   5.726   8.785   6.656 -0.3059  0.1021  0.0037
   86POPC   C4B 1405   5.773   8.412   6.364  0.3056 -0.0104 -0.0569
   87POPC   NC3 1406   5.196   8.195   9.052  0.3004 -0.1258 -0.2050
   87POPC   PO4 1407   4.968   8.468   8.687  0.1479  0.3977 -0.0886
   87POPC   GL1 1408   5.298   8.370   8.422 -0.3422 -0.0485 -0.1866
   87POPC   GL2 1409   5.301   8.686   8.245 -0.1488  0.0031  0.0359
   87POPC   C1A 1410   5.362   8.205   8.015  0.1303 -0.0514 -0.2633
   87POPC   D2A 1411   5.551   8.410   7.595 -0.0600  0.1000 -0.1514
   87POPC   C3A 1412   5.543   8.238   7.251  0.1991 -0.3082 -0.0494
   87POPC   C4A 1413   5.174   8.135   7.050  0.1692  0.2714  0.1522
   87POPC   C1B 1414   5.025   8.545   7.848 -0.2999  0.1408  0.1073
   87POPC   C2B 1415   5.095   8.271   7.578  0.1624 -0.0008  0.0849
   87POPC   C3B 1416   5.314   7.866   7.525  0.0633 -0.1088 -0.3416
   87POPC   C4B 1417   5.517   7.533   7.654 -0.0696  0.1933  0.0460
   88POPC   NC3 1418   3.826   0.995   8.518 -0.2279 -0.1705  0.1564
   88POPC   PO4 1419   3.695   0.876   8.080 -0.3125  0.1853  0.0396
   88POPC   GL1 1420   3.767   0.604   7.867 -0.0804 -0.2329 -0.0331
   88POPC   GL2 1421   3.896   0.770   7.612  0.1742 -0.1882 -0.0084
   88POPC   C1A 1422   3.767   0.268   7.543 -0.0805  0.1365  0.2596
   88POPC   D2A 1423   3.587   0.016   7.195 -0.0267  0.0513 -0.0871
   88POPC   C3A 1424   3.609  -0.430   7.150  0.1300  0.3951 -0.1438
   88POPC   C4A 1425   3.487  -0.978   7.000 -0.1871 -0.0460 -0.0485
   88POPC   C1B 1426   3.539   0.921   7.394  0.0506 -0.0693 -0.0857
   88POPC   C2B 1427   3.474   1.083   6.937 -0.0773  0.1934  0.2102
   88POPC   C3B 1428   3.720   1.171   6.527  0.0002 -0.2341  0.0595
   88POPC   C4B 1429   4.120   1.082   6.471 -0.0350  0.0906  0.2312
   89POPC   NC3 1430   8.358   3.615   7.717 -0.1851 -0.2741 -0.0833
   89POPC   PO4 1431   8.271   3.185   7.868 -0.1854 -0.1047  0.2900
   89POPC   GL1 1432   7.970   3.230   7.510  0.4201  0.1881  0.2602
   89POPC   GL2 1433   7.893   3.526   7.416 -0.1188  0.4379  0.0806
   89POPC   C1A 1434   8.036   3.044   7.097  0.3290  0.0942 -0.3153
   89POPC   D2A 1435   7.931   3.176   6.707 -0.2823 -0.2429  0.0772
   89POPC   C3A 1436   7.746   2.939   6.397  0.1988 -0.3126  0.1753
   89POPC   C4A 1437   7.538   2.598   6.189  0.1775 -0.1072  0.0362
   89POPC   C1B 1438   7.547   3.610   7.111 -0.0593  0.0343 -0.3367
   89POPC   C2B 1439   7.252   3.610   6.766  0.1115  0.3687 -0.1225
   89POPC   C3B 1440   7.278   3.793   6.373 -0.0208  0.1077 -0.1141
   89POPC   C4B 1441   7.295   4.063   6.112  0.0683  0.0869  0.2576
   90POPC   NC3 1442   5.901   4.057   9.175 -0.0763  0.0607 -0.0004
   90POPC   PO4 1443   5.849   4.274   8.880  0.2432 -0.2573 -0.4633
   90POPC   GL1 1444   5.596   4.282   8.505  0.3851 -0.2026  0.0288
   90POPC   GL2 1445   5.760   4.351   8.277 -0.1371  0.1302 -0.0830
   90POPC   C1A 1446   5.230   4.366   8.190 -0.0512 -0.2103  0.0551
   90POPC   D2A 1447   4.972   4.095   7.898  0.0320 -0.1023 -0.1250
   90POPC   C3A 1448   4.648   4.229   7.627  0.1113  0.1462 -0.1130
   90POPC   C4A 1449   4.815   4.535   7.422  0.0980  0.1442 -0.0902
   90POPC   C1B 1450   5.677   4.589   8.001  0.2742 -0.0065 -0.1617
   90POPC   C2B 1451   5.611   4.822   7.669  0.3509 -0.1613 -0.4886
   90POPC   C3B 1452   5.387   4.877   7.330 -0.0947 -0.2137 -0.1823
   90POPC   C4B 1453   5.288   4.542   7.143 -0.3354 -0.0626 -0.0813
   91POPC   NC3 1454   6.852   2.202   8.070 -0.0424 -0.0180  0.1260
   91POPC   PO4 1455   6.934   1.753   7.987  0.0734  0.2522  0.0973
   91POPC   GL1 1456   6.912   1.988   7.608  0.0895 -0.1006 -0.0253
   91POPC   GL2 1457   7.277   1.941   7.419 -0.4892 -0.1050 -0.1523
   91POPC   C1A 1458   6.794   2.411   7.429  0.1620 -0.3282 -0.2852
   91POPC   D2A 1459   6.691   2.724   7.187 -0.2151  0.3822  0.0724
   91POPC   C3A 1460   6.431   2.822   6.870 -0.1475  0.0438 -0.3241
   91POPC   C4A 1461   6.160   3.118   6.747 -0.0778 -0.4386 -0.3662
   91POPC   C1B 1462   7.334   2.366   7.287  0.2827 -0.3419  0.1383
   91POPC   C2B 1463   7.150   2.661   7.056  0.4411  0.1179  0.2129
   91POPC   C3B 1464   6.827   2.556   6.741 -0.1984  0.1225 -0.1033
   91POPC   C4B 1465   6.629   2.635   6.391  0.4235 -0.0593 -0.2347
   92POPC   NC3 1466   5.049   9.266   8.285  0.0859  0.0335  0.1792
   92POPC   PO4 1467   4.599   9.243   8.323  0.1854 -0.2043  0.2238
   92POPC   GL1 1468   4.798   9.020   7.845 -0.1204  0.0211 -0.0345
   92POPC   GL2 1469   4.513   9.245   7.766  0.0392  0.1988  0.1787
   92POPC   C1A 1470   4.712   9.229   7.357 -0.0312 -0.0216  0.0805
   92POPC   D2A 1471   4.546   9.478   7.032 -0.1384 -0.0430  0.2603
   92POPC   C3A 1472   4.741   9.334   6.648  0.0602  0.2936  0.0666
   92POPC   C4A 1473   4.953   9.539   6.369 -0.1665  0.0050  0.3998
   92POPC   C1B 1474   4.392   8.907   7.594 -0.1432  0.0179 -0.0520
   92POPC   C2B 1475   4.777   8.686   7.413 -0.0899 -0.1537 -0.1780
   92POPC   C3B 1476   4.874   8.510   7.095 -0.0436 -0.1295 -0.1596
   92POPC   C4B 1477   4.788   8.397   6.715 -0.1564 -0.1035  0.1921
   93POPC   NC3 1478   6.189   8.607   8.496  0.0264  0.0870 -0.1474
   93POPC   PO4 1479   6.397   8.903   8.233 -0.2610 -0.1129 -0.0307
   93POPC   GL1 1480   6.211   8.724   7.871  0.1588 -0.2437 -0.0232
   93POPC   GL2 1481   5.972   8.742   7.621 -0.2221  0.1432  0.3132
   93POPC   C1A 1482   6.499   8.617   7.608 -0.0792 -0.1707 -0.2492
   93POPC   D2A 1483   6.497   8.566   7.143 -0.0017 -0.0554  0.1359
   93POPC   C3A 1484   6.531   8.215   6.800 -0.0828 -0.0407  0.1482
   93POPC   C4A 1485   6.634   8.158   6.375 -0.2346 -0.2499 -0.0385
   93POPC   C1B 1486   6.068   8.700   7.293  0.4354  0.1709 -0.2325
   93POPC   C2B 1487   5.880   8.484   7.010  0.2162 -0.2656 -0.1847
   93POPC   C3B 1488   5.996   8.190   6.768 -0.0456 -0.2499 -0.0374
   93POPC   C4B 1489   6.215   7.753   6.894 -0.1680  0.0124 -0.2469
   94POPC   NC3 1490   7.172   1.321   7.984  0.0657 -0.2145 -0.1941
   94POPC   PO4 1491   7.475   1.700   7.806  0.0127  0.1878 -0.0502
   94POPC   GL1 1492   7.582   1.545   7.422  0.1954  0.0521  0.0578
   94POPC   GL2 1493   7.749   1.293   7.342 -0.1084  0.0881 -0.1640
   94POPC   C1A 1494   7.473   1.672   6.934  0.0441 -0.0465  0.2515
   94POPC   D2A 1495   7.189   1.619   6.511 -0.2237  0.0494 -0.0299
   94POPC   C3A 1496   7.226   1.452   6.086  0.0571 -0.2007 -0.0015
   94POPC   C4A 1497   7.053   1.369   5.782  0.1747 -0.0510  0.2055
   94POPC   C1B 1498   8.023   1.085   7.061 -0.0935 -0.2871 -0.2148
   94POPC   C2B 1499   8.118   1.075   6.589  0.0910 -0.2226 -0.1556
   94POPC   C3B 1500   8.066   1.246   6.165  0.1456  0.0481 -0.1375
   94POPC   C4B 1501   8.268   1.580   5.858  0.1931 -0.0687 -0.0026
   95POPC   NC3 1502   4.231   9.410   8.084  0.1006 -0.1030  0.1441
   95POPC   PO4 1503   4.340   9.809   8.203 -0.2004 -0.0657  0.1755
   95POPC   GL1 1504   4.504   9.795   7.896  0.1357 -0.0972 -0.1877
   95POPC   GL2 1505   4.178   9.741   7.725 -0.1423  0.0912 -0.0788
   95POPC   C1A 1506   4.545   9.941   7.422 -0.0551  0.2951 -0.0258
   95POPC   D2A 1507   4.785  10.117   7.096 -0.0395 -0.1232 -0.0531
   95POPC   C3A 1508   4.793   9.851   6.747 -0.1404 -0.1231 -0.0570
   95POPC   C4A 1509   4.486   9.785   6.350  0.0049  0.0591 -0.0268
   95POPC   C1B 1510   4.108   9.710   7.271 -0.0297 -0.0420 -0.3361
   95POPC   C2B 1511   3.953   9.630   6.888  0.2019  0.3138  0.2248
   95POPC   C3B 1512   3.632   9.514   6.653  0.1257  0.0138 -0.0459
   95POPC   C4B 1513   3.491   9.518   6.200  0.4545  0.0347  0.0103
   96POPC   NC3 1514   3.095   3.045   8.293  0.1085  0.1388 -0.2055
   96POPC   PO4 1515   3.221   3.538   8.408  0.1244  0.1095 -0.0445
   96POPC   GL1 1516   3.536   3.676   8.124 -0.2142 -0.1038  0.1038
   96POPC   GL2 1517   3.643   3.572   7.860  0.0254  0.0053  0.0663
   96POPC   C1A 1518   3.809   4.054   8.102 -0.0534 -0.3881 -0.2769
   96POPC   D2A 1519   3.925   4.531   8.089 -0.2924  0.0727  0.0799
   96POPC   C3A 1520   3.953   4.674   7.700  0.0458 -0.1361  0.2963
   96POPC   C4A 1521   4.297   4.631   7.566  0.0734 -0.0575  0.0380
   96POPC   C1B 1522   3.600   4.001   7.664  0.0708  0.1109 -0.0618
   96POPC   C2B 1523   3.826   4.175   7.360 -0.2796 -0.1531  0.1219
   96POPC   C3B 1524   3.860   4.546   7.243 -0.0586 -0.0349 -0.2186
   96POPC   C4B 1525   3.864   4.970   7.281  0.2372 -0.4308  0.3616
   97POPC   NC3 1526   1.717   3.657   8.724 -0.2096 -0.1498 -0.1327
   97POPC   PO4 1527   1.379   3.582   8.342  0.0939  0.2737 -0.1144
   97POPC   GL1 1528   1.364   3.516   7.915  0.1491  0.1069 -0.1654
   97POPC   GL2 1529   1.470   3.257   7.847  0.0103  0.1807  0.1171
   97POPC   C1A 1530   1.129   3.713   7.543 -0.3227 -0.3084  0.0572
   97POPC   D2A 1531   0.755   3.764   7.299  0.0297 -0.1449  0.1001
   97POPC   C3A 1532   0.399   3.481   7.330 -0.2888 -0.1435 -0.0742
   97POPC   C4A 1533  -0.005   3.234   7.330 -0.1915  0.1127  0.1883
   97POPC   C1B 1534   1.366   3.219   7.402 -0.0987 -0.0907  0.1060
   97POPC   C2B 1535   1.384   3.140   6.921  0.1575 -0.1759  0.0462
   97POPC   C3B 1536   1.329   3.255   6.488 -0.0873  0.2878 -0.0643
   97POPC   C4B 1537   1.561   3.400   6.117 -0.1944 -0.3788 -0.0904
   98POPC   NC3 1538   2.458   1.902   7.869 -0.4358 -0.1282 -0.0179
   98POPC   PO4 1539   2.785   1.580   7.946  0.1521  0.0009  0.0276
   98POPC   GL1 1540   2.676   1.670   7.490  0.0125  0.0871 -0.1349
   98POPC   GL2 1541   2.850   1.611   7.249  0.1670  0.2775  0.0971
   98POPC   C1A 1542   2.462   1.946   7.071  0.0113 -0.1505 -0.1882
   98POPC   D2A 1543   2.270   2.010   6.679  0.0484 -0.2786 -0.3948
   98POPC   C3A 1544   2.276   2.384   6.433  0.0015 -0.2594 -0.4310
   98POPC   C4A 1545   2.317   2.796   6.251 -0.0346 -0.1832  0.0170
   98POPC   C1B 1546   2.949   1.366   6.928 -0.0410  0.2842  0.4829
   98POPC   C2B 1547   3.209   1.275   6.575 -0.0023 -0.0433  0.3107
   98POPC   C3B 1548   3.370   1.288   6.119 -0.0148 -0.1262 -0.2181
   98POPC   C4B 1549   3.391   1.310   5.740 -0.1817 -0.1627  0.2857
   99POPC   NC3 1550   8.885   1.589   7.999 -0.0309 -0.0417 -0.1529
   99POPC   PO4 1551   8.672   2.021   8.111  0.0348 -0.1884 -0.2896
   99POPC   GL1 1552   8.774   2.235   7.770 -0.1885  0.2610 -0.1616
   99POPC   GL2 1553   8.416   2.298   7.693 -0.3936  0.0735  0.0804
   99POPC   C1A 1554   9.017   2.081   7.467 -0.3415 -0.1328  0.3020
   99POPC   D2A 1555   8.952   1.752   7.108 -0.1581  0.0757  0.0065
   99POPC   C3A 1556   8.818   1.998   6.760  0.0987 -0.1821  0.0361
   99POPC   C4A 1557   8.564   2.019   6.241 -0.3000  0.1007  0.1400
   99POPC   C1B 1558   8.156   2.310   7.372 -0.1413 -0.0855  0.0388
   99POPC   C2B 1559   8.163   2.228   6.957  0.1541  0.2323 -0.0259
   99POPC   C3B 1560   8.329   2.004   6.627  0.1140  0.3341 -0.0187
   99POPC   C4B 1561   8.250   1.552   6.458 -0.0761 -0.1228  0.0784
  100POPC   NC3 1562   5.863   0.208   7.742  0.0021  0.2266  0.3360
  100POPC   PO4 1563   5.538   0.389   7.802  0.3843  0.1140 -0.0007
  100POPC   GL1 1564   5.477   0.112   7.432 -0.0655 -0.0828 -0.2537
  100POPC   GL2 1565   5.315   0.379   7.208 -0.3724  0.0077 -0.0829
  100POPC   C1A 1566   5.470  -0.318   7.409 -0.1719  0.1457  0.0131
  100POPC   D2A 1567   5.198  -0.604   7.319  0.0091  0.3481  0.2396
  100POPC   C3A 1568   5.000  -0.740   7.004 -0.5127  0.2100 -0.0654
  100POPC   C4A 1569   5.175  -0.769   6.543  0.1211  0.2666 -0.1518
  100POPC   C1B 1570   5.394   0.386   6.780 -0.0921 -0.1929 -0.1168
  100POPC   C2B 1571   5.154   0.363   6.458 -0.1664 -0.0016  0.0733
  100POPC   C3B 1572   5.040   0.301   6.092 -0.0570 -0.1351  0.0528
  100POPC   C4B 1573   4.616   0.278   5.863 -0.1624  0.0214 -0.3733
  101POPC   NC3 1574   2.382   9.170   8.601 -0.1554  0.1649  0.1093
  101POPC   PO4 1575   2.141   9.303   8.224  0.1685 -0.0362 -0.0077
  101POPC   GL1 1576   1.894   8.930   7.985 -0.0073  0.1685 -0.2990
  101POPC   GL2 1577   1.635   9.059   7.836 -0.0534 -0.2363  0.2097
  101POPC   C1A 1578   1.827   8.680   7.608  0.1868  0.0156 -0.0237
  101POPC   D2A 1579   1.774   8.767   7.211 -0.1142  0.0462  0.1338
  101POPC   C3A 1580   1.568   8.546   6.820  0.0993  0.0148 -0.1933
  101POPC   C4A 1581   1.594   8.238   6.563  0.1073 -0.1176 -0.1402
  101POPC   C1B 1582   1.566   9.188   7.439  0.2994  0.1017 -0.1530
  101POPC   C2B 1583   1.677   9.420   7.149 -0.0244  0.1234 -0.2248
  101POPC   C3B 1584   1.637   9.499   6.654 -0.0522 -0.0016  0.1025
  101POPC   C4B 1585   1.487   9.225   6.359  0.0144 -0.0896 -0.3012
  102POPC   NC3 1586   1.846   5.311   8.433  0.0163 -0.3912 -0.0926
  102POPC   PO4 1587   1.658   4.968   8.143 -0.0530 -0.0057  0.0843
  102POPC   GL1 1588   1.848   5.074   7.836  0.2545 -0.0900  0.2196
  102POPC   GL2 1589   1.602   5.194   7.695  0.2416 -0.0932  0.2515
  102POPC   C1A 1590   1.973   5.217   7.335 -0.0590 -0.0310 -0.3059
  102POPC   D2A 1591   2.016   5.367   6.934 -0.0023  0.0721  0.0791
  102POPC   C3A 1592   1.906   5.769   6.898  0.1853  0.1693 -0.2090
  102POPC   C4A 1593   1.390   5.977   6.668 -0.0945  0.0473  0.0953
  102POPC   C1B 1594   1.412   5.563   7.514 -0.1419 -0.1862 -0.0081
  102POPC   C2B 1595   1.438   5.566   7.092 -0.0340 -0.2343 -0.3549
  102POPC   C3B 1596   1.408   5.349   6.826 -0.2902 -0.3302 -0.1859
  102POPC   C4B 1597   1.764   5.479   6.495 -0.0663 -0.0494  0.0565
  103POPC   NC3 1598   5.975   3.904   8.368  0.0956 -0.2010  0.3470
  103POPC   PO4 1599   6.367   4.001   8.202 -0.1184  0.2108 -0.0387
  103POPC   GL1 1600   6.019   4.004   7.896  0.1625  0.0583  0.1471
  103POPC   GL2 1601   6.046   4.310   7.812 -0.0189 -0.0929  0.1212
  103POPC   C1A 1602   6.020   3.912   7.489  0.0093  0.0400  0.0267
  103POPC   D2A 1603   6.116   3.621   7.220  0.0683 -0.2189  0.1601
  103POPC   C3A 1604   5.868   3.666   6.847  0.2051  0.1244  0.6243
  103POPC   C4A 1605   5.755   3.740   6.441  0.1800 -0.1632 -0.0065
  103POPC   C1B 1606   5.790   4.435   7.462 -0.0619 -0.3457  0.0710
  103POPC   C2B 1607   5.749   4.606   6.986 -0.1229  0.3110  0.1354
  103POPC   C3B 1608   5.546   4.738   6.669 -0.2899  0.0441 -0.2818
  103POPC   C4B 1609   5.489   4.733   6.238  0.1801  0.0083 -0.0107
  104POPC   NC3 1610   1.218   2.092   7.926  0.1730 -0.0120  0.2167
  104POPC   PO4 1611   1.380   1.756   8.236  0.0270 -0.2614 -0.0040
  104POPC   GL1 1612   1.524   1.704   7.727  0.5406 -0.0422 -0.2373
  104POPC   GL2 1613   1.419   1.454   7.686  0.1732 -0.0217  0.4178
  104POPC   C1A 1614   1.493   1.801   7.366  0.2696  0.0815  0.1708
  104POPC   D2A 1615   1.342   1.840   6.910 -0.3115 -0.0290  0.2225
  104POPC   C3A 1616   1.119   2.131   6.754  0.1616 -0.0714 -0.0828
  104POPC   C4A 1617   0.843   2.323   6.484 -0.0039 -0.1367 -0.0376
  104POPC   C1B 1618   1.374   1.364   7.226 -0.2510 -0.0001  0.0335
  104POPC   C2B 1619   1.683   1.399   6.845  0.0376 -0.1803 -0.3976
  104POPC   C3B 1620   1.964   1.617   6.553  0.0497  0.2383 -0.0009
  104POPC   C4B 1621   1.945   2.053   6.249 -0.0366 -0.2569  0.1541
  105POPC   NC3 1622   0.686   6.043   8.873  0.0182 -0.1121  0.2543
  105POPC   PO4 1623   0.915   6.243   8.464  0.1294 -0.0907  0.0049
  105POPC   GL1 1624   0.738   6.136   8.156  0.0909  0.0635  0.1005
  105POPC   GL2 1625   0.853   6.250   7.927 -0.0824  0.5702 -0.2139
  105POPC   C1A 1626   0.547   5.838   7.805  0.1856 -0.1391  0.1546
  105POPC   D2A 1627   0.645   5.738   7.448  0.0091 -0.0482  0.0375
  105POPC   C3A 1628   0.902   5.680   7.055 -0.2780  0.1252  0.1522
  105POPC   C4A 1629   0.946   5.709   6.504  0.0707  0.0239 -0.1914
  105POPC   C1B 1630   0.819   6.206   7.504 -0.1227 -0.0147 -0.0179
  105POPC   C2B 1631   0.932   6.180   7.087  0.1376  0.1855 -0.0134
  105POPC   C3B 1632   0.880   6.215   6.670  0.1639 -0.1502  0.3479
  105POPC   C4B 1633   0.768   6.109   6.321 -0.2484  0.0130  0.0502
  106POPC   NC3 1634   6.651   3.562   8.158 -0.0633 -0.0417  0.0884
  106POPC   PO4 1635   6.343   3.543   8.462  0.3908  0.1948  0.0747
  106POPC   GL1 1636   6.087   3.399   8.081 -0.4607  0.1294  0.2241
  106POPC   GL2 1637   5.798   3.554   8.086 -0.0506  0.0854 -0.0447
  106POPC   C1A 1638   5.941   3.251   7.674 -0.3401 -0.2412 -0.2466
  106POPC   D2A 1639   5.945   3.170   7.313 -0.0225  0.1168 -0.1975
  106POPC   C3A 1640   5.646   3.240   6.948 -0.1300  0.0686  0.0288
  106POPC   C4A 1641   5.636   3.041   6.684 -0.0437 -0.1060 -0.2412
  106POPC   C1B 1642   5.464   3.528   7.890 -0.0682  0.0019  0.3945
  106POPC   C2B 1643   5.235   3.746   7.591 -0.0084  0.0698  0.0317
  106POPC   C3B 1644   5.092   4.065   7.364 -0.0530  0.2213  0.0997
  106POPC   C4B 1645   4.832   4.158   7.010  0.0577 -0.1335  0.1194
  107POPC   NC3 1646   7.288   9.464   8.659  0.0263  0.0341 -0.1692
  107POPC   PO4 1647   7.273   9.755   8.273 -0.2342  0.1124  0.2422
  107POPC   GL1 1648   7.165   9.733   7.774  0.1012  0.1192  0.0447
  107POPC   GL2 1649   6.842   9.629   7.684 -0.1304  0.1371 -0.0761
  107POPC   C1A 1650   7.251   9.683   7.317 -0.2544 -0.2042 -0.1259
  107POPC   D2A 1651   7.124   9.793   6.830  0.0500  0.0272 -0.3410
  107POPC   C3A 1652   7.388   9.802   6.519  0.1098 -0.1519  0.4032
  107POPC   C4A 1653   7.680   9.893   6.119  0.0581  0.2258 -0.0476
  107POPC   C1B 1654   6.813   9.529   7.366  0.1687 -0.2493  0.1639
  107POPC   C2B 1655   6.475   9.149   7.142  0.1368 -0.0441 -0.1811
  107POPC   C3B 1656   6.238   9.022   6.806  0.1472  0.0622 -0.1561
  107POPC   C4B 1657   6.252   8.631   6.606  0.1028  0.1007 -0.0026
  108POPC   NC3 1658   3.897   0.353   8.218 -0.0785  0.0885 -0.0812
  108POPC   PO4 1659   4.171   0.683   8.320  0.0585 -0.0110  0.1179
  108POPC   GL1 1660   4.250   0.537   7.838 -0.1229 -0.0042 -0.0168
  108POPC   GL2 1661   4.534   0.558   7.900  0.0893 -0.2800 -0.0171
  108POPC   C1A 1662   4.321   0.638   7.360 -0.4038  0.0210 -0.3288
  108POPC   D2A 1663   4.296   0.375   6.884 -0.0314  0.0353  0.0698
  108POPC   C3A 1664   4.454   0.516   6.526 -0.2150 -0.1382 -0.0997
  108POPC   C4A 1665   4.572   0.763   6.262  0.1083 -0.0033  0.0624
  108POPC   C1B 1666   4.876   0.542   7.548 -0.2188 -0.1728 -0.0918
  108POPC   C2B 1667   5.082   0.829   7.335 -0.0338  0.0269 -0.1434
  108POPC   C3B 1668   5.213   0.838   6.897  0.2406  0.1420  0.1686
  108POPC   C4B 1669   4.879   0.664   6.700 -0.2216 -0.2195  0.1912
  109POPC   NC3 1670   6.860   3.908   7.798 -0.1452 -0.0424 -0.0002
  109POPC   PO4 1671   7.054   3.475   7.950 -0.1244  0.1812 -0.3001
  109POPC   GL1 1672   7.029   3.505   7.506  0.0440 -0.0311 -0.2533
  109POPC   GL2 1673   7.104   3.782   7.365  0.5428 -0.1571 -0.1127
  109POPC   C1A 1674   6.987   3.317   7.177 -0.0547 -0.0611  0.0119
  109POPC   D2A 1675   6.937   3.056   6.842  0.1665 -0.0755  0.1927
  109POPC   C3A 1676   6.591   3.194   6.547  0.1574  0.1717  0.0300
  109POPC   C4A 1677   6.440   3.138   6.165 -0.2081 -0.1456 -0.1895
  109POPC   C1B 1678   7.334   4.035   7.023 -0.0823  0.0256 -0.2305
  109POPC   C2B 1679   7.309   4.209   6.677 -0.0200 -0.2371  0.3563
  109POPC   C3B 1680   7.054   4.630   6.689 -0.0170 -0.4760  0.1219
  109POPC   C4B 1681   6.945   5.110   6.721 -0.0583 -0.2439  0.3011
  110POPC   NC3 1682   2.218   6.075   8.770  0.0424  0.1834  0.2879
  110POPC   PO4 1683   2.044   5.744   8.593 -0.3898  0.3898  0.0657
  110POPC   GL1 1684   1.810   5.707   8.181 -0.0237  0.2146 -0.1700
  110POPC   GL2 1685   1.546   5.625   8.084 -0.1613 -0.0233 -0.1162
  110POPC   C1A 1686   1.948   5.631   7.725  0.3795 -0.2278 -0.1309
  110POPC   D2A 1687   2.236   5.641   7.260 -0.0082  0.1464 -0.2191
  110POPC   C3A 1688   2.462   5.378   7.232 -0.0404  0.1493 -0.1729
  110POPC   C4A 1689   2.462   4.978   7.347 -0.3329  0.1841 -0.1914
  110POPC   C1B 1690   1.567   6.053   7.856 -0.2218  0.5047 -0.0317
  110POPC   C2B 1691   1.721   6.342   7.533  0.1252  0.2291 -0.1901
  110POPC   C3B 1692   1.973   6.573   7.363  0.0183 -0.2392  0.3001
  110POPC   C4B 1693   1.919   6.807   6.974 -0.2568  0.1394  0.0069
  111POPC   NC3 1694   8.306   0.119   8.275  0.0819  0.0142 -0.1753
  111POPC   PO4 1695   8.642   0.246   8.217 -0.3141 -0.3251 -0.0427
  111POPC   GL1 1696   8.922   0.219   7.888  0.0119 -0.2663 -0.2590
  111POPC   GL2 1697   8.785   0.492   7.809  0.0604 -0.0402  0.2090
  111POPC   C1A 1698   9.147   0.151   7.558  0.0065 -0.1050 -0.3008
  111POPC   D2A 1699   9.182   0.598   7.267  0.2452 -0.1194 -0.0521
  111POPC   C3A 1700   9.245   0.480   6.744  0.2750  0.0705  0.1812
  111POPC   C4A 1701   9.187   0.275   6.348  0.0829 -0.2263 -0.2713
  111POPC   C1B 1702   8.716   0.456   7.377 -0.1251  0.0482  0.2755
  111POPC   C2B 1703   8.709   0.222   6.913  0.4005 -0.0184  0.1902
  111POPC   C3B 1704   8.765   0.176   6.534  0.0099 -0.1178  0.3206
  111POPC   C4B 1705   8.631   0.179   6.116 -0.1665  0.0748 -0.0213
  112POPC   NC3 1706   5.699   4.879   8.989 -0.3212  0.2917 -0.0284
  112POPC   PO4 1707   5.383   4.540   8.920  0.0196 -0.2354  0.0087
  112POPC   GL1 1708   5.485   4.774   8.522 -0.1009 -0.4752 -0.0277
  112POPC   GL2 1709   5.667   5.057   8.532  0.2229  0.0707 -0.0403
  112POPC   C1A 1710   5.375   4.967   8.123  0.1277  0.1378 -0.0391
  112POPC   D2A 1711   5.156   4.838   7.853  0.0982 -0.0669  0.0879
  112POPC   C3A 1712   5.277   4.455   7.659 -0.2674  0.1108  0.3431
  112POPC   C4A 1713   5.500   4.075   7.843 -0.2545  0.1750 -0.1328
  112POPC   C1B 1714   5.395   5.359   8.399  0.0096 -0.1865  0.0754
  112POPC   C2B 1715   5.138   5.369   7.955  0.0129 -0.0103  0.1171
  112POPC   C3B 1716   5.351   5.269   7.631  0.2203  0.1904 -0.1922
  112POPC   C4B 1717   5.452   5.319   7.181  0.2625 -0.0417  0.0587
  113POPC   NC3 1718   3.007   7.002   8.806 -0.1515 -0.0738  0.1024
  113POPC   PO4 1719   3.170   6.588   9.146  0.1014  0.0547  0.0096
  113POPC   GL1 1720   3.398   6.613   8.746 -0.0589  0.1067  0.0667
  113POPC   GL2 1721   3.488   6.396   8.600 -0.0082  0.1976  0.0150
  113POPC   C1A 1722   3.285   6.714   8.219  0.2639 -0.2542 -0.2852
  113POPC   D2A 1723   3.216   6.736   7.863  0.1091 -0.0428  0.3808
  113POPC   C3A 1724   2.819   6.616   7.638  0.0325 -0.1228  0.0171
  113POPC   C4A 1725   2.494   6.479   7.274  0.3353  0.1481 -0.0790
  113POPC   C1B 1726   3.113   6.217   8.467 -0.2224 -0.2139  0.1852
  113POPC   C2B 1727   2.973   6.263   8.067 -0.1085  0.0460  0.0757
  113POPC   C3B 1728   3.125   6.230   7.668 -0.0829 -0.0218  0.1828
  113POPC   C4B 1729   3.066   6.349   7.285  0.0746 -0.0093  0.2652
  114POPC   NC3 1730   2.407   7.482   8.446  0.0970 -0.0305 -0.1004
  114POPC   PO4 1731   2.757   7.486   8.656  0.1984 -0.2984 -0.3069
  114POPC   GL1 1732   2.829   7.332   8.259  0.1478  0.0456 -0.1280
  114POPC   GL2 1733   3.115   7.179   8.319  0.3108  0.3126  0.1670
  114POPC   C1A 1734   2.979   7.438   7.860 -0.1302 -0.1641  0.1722
  114POPC   D2A 1735   2.784   7.290   7.454 -0.0396  0.1608 -0.2580
  114POPC   C3A 1736   3.015   7.292   7.064  0.1713  0.0429  0.0706
  114POPC   C4A 1737   3.418   7.321   6.851 -0.1629  0.0409 -0.2358
  114POPC   C1B 1738   3.441   7.177   8.078 -0.2287  0.2522 -0.0112
  114POPC   C2B 1739   3.849   7.322   7.708  0.1330 -0.0136 -0.0597
  114POPC   C3B 1740   4.236   7.347   7.532  0.1349  0.0851 -0.1379
  114POPC   C4B 1741   4.466   7.549   7.215 -0.1520 -0.2177 -0.1860
  115POPC   NC3 1742   8.984   5.150   8.550 -0.1600 -0.1776  0.5024
  115POPC   PO4 1743   9.355   5.468   8.390 -0.1075  0.1538 -0.1442
  115POPC   GL1 1744   9.677   5.311   8.177 -0.2669 -0.0384  0.0075
  115POPC   GL2 1745   9.859   5.593   8.083  0.0181  0.0240 -0.0768
  115POPC   C1A 1746  10.027   5.208   7.802  0.0801 -0.1531  0.2148
  115POPC   D2A 1747  10.055   5.303   7.397 -0.2625 -0.1957  0.0456
  115POPC   C3A 1748   9.940   5.665   7.107 -0.2415  0.0501 -0.0128
  115POPC   C4A 1749   9.780   5.567   6.676  0.0497 -0.0913 -0.2814
  115POPC   C1B 1750   9.666   5.677   7.629  0.0184 -0.2760 -0.0747
  115POPC   C2B 1751   9.469   5.705   7.236  0.2498 -0.0134 -0.1110
  115POPC   C3B 1752   9.500   5.935   6.911  0.1471  0.1060 -0.2325
  115POPC   C4B 1753   9.722   6.180   6.820  0.2556 -0.2756  0.2212
  116POPC   NC3 1754   8.382   4.497   8.124 -0.0279  0.0984 -0.0564
  116POPC   PO4 1755   7.975   4.426   8.078  0.1574  0.1187  0.0615
  116POPC   GL1 1756   7.773   4.361   7.738 -0.0276 -0.0707  0.3230
  116POPC   GL2 1757   7.554   4.482   7.698  0.0916 -0.1595 -0.0767
  116POPC   C1A 1758   8.020   4.442   7.315  0.0796 -0.1359 -0.0962
  116POPC   D2A 1759   8.304   4.385   6.990  0.1372 -0.0384 -0.2805
  116POPC   C3A 1760   8.450   4.652   6.650 -0.0306 -0.4676 -0.3946
  116POPC   C4A 1761   8.440   5.089   6.785 -0.4353 -0.0123 -0.0582
  116POPC   C1B 1762   7.454   4.521   7.175  0.1444 -0.3296  0.1481
  116POPC   C2B 1763   7.505   4.709   6.746  0.0099 -0.2703 -0.1963
  116POPC   C3B 1764   7.705   4.883   6.424 -0.0837  0.0039  0.3015
  116POPC   C4B 1765   8.195   4.968   6.207  0.3282  0.3375 -0.0236
  117POPC   NC3 1766   2.914   8.141   8.915  0.1017 -0.1078 -0.0119
  117POPC   PO4 1767   3.162   8.374   8.720  0.2317 -0.2606  0.0368
  117POPC   GL1 1768   3.358   8.226   8.323 -0.3519  0.1253 -0.1459
  117POPC   GL2 1769   3.613   8.124   8.338  0.1415  0.1607  0.0932
  117POPC   C1A 1770   3.346   8.172   7.940 -0.0622  0.2090  0.3043
  117POPC   D2A 1771   3.730   8.014   7.739 -0.2317  0.0746  0.1904
  117POPC   C3A 1772   3.876   7.787   8.005 -0.2453  0.1571  0.1617
  117POPC   C4A 1773   4.227   7.436   8.086  0.2011  0.0981 -0.0894
  117POPC   C1B 1774   3.981   8.326   8.121  0.3933  0.0361  0.0996
  117POPC   C2B 1775   4.149   8.546   7.840  0.4133 -0.3787  0.0234
  117POPC   C3B 1776   4.333   8.407   7.483 -0.0813  0.1703 -0.1197
  117POPC   C4B 1777   4.383   8.381   6.951 -0.2900 -0.4184 -0.0796
  118POPC   NC3 1778   0.078   1.415   8.286  0.0536 -0.0032  0.2493
  118POPC   PO4 1779  -0.113   1.882   8.227 -0.0275 -0.1845  0.1541
  118POPC   GL1 1780   0.096   1.789   7.849 -0.0852  0.0648 -0.1807
  118POPC   GL2 1781   0.399   2.024   7.744  0.1717  0.0255 -0.0569
  118POPC   C1A 1782   0.063   1.856   7.440 -0.0237 -0.1031 -0.1348
  118POPC   D2A 1783   0.070   2.019   6.943 -0.0508  0.0618 -0.1859
  118POPC   C3A 1784  -0.009   2.451   6.838 -0.2133  0.1110 -0.0564
  118POPC   C4A 1785   0.157   2.876   6.874 -0.3207  0.0891 -0.0124
  118POPC   C1B 1786   0.546   1.952   7.337 -0.1105  0.1815  0.3282
  118POPC   C2B 1787   0.618   1.962   6.896  0.0589 -0.1716 -0.1000
  118POPC   C3B 1788   0.371   1.855   6.569  0.5047 -0.1216  0.0530
  118POPC   C4B 1789   0.055   1.816   6.431  0.1146 -0.0135  0.0508
  119POPC   NC3 1790   7.601   9.399   8.105  0.2261  0.1435 -0.1025
  119POPC   PO4 1791   7.991   9.526   7.990  0.2645 -0.2403  0.1969
  119POPC   GL1 1792   7.696   9.680   7.701  0.1671 -0.1015 -0.1964
  119POPC   GL2 1793   7.867   9.823   7.507  0.0348 -0.5242  0.0853
  119POPC   C1A 1794   7.691   9.443   7.275 -0.2599  0.0888  0.1292
  119POPC   D2A 1795   7.566   9.604   6.881  0.2081 -0.0288 -0.1984
  119POPC   C3A 1796   7.832   9.534   6.521 -0.1548 -0.0149 -0.0538
  119POPC   C4A 1797   7.903   9.405   6.167  0.2026  0.0195  0.3676
  119POPC   C1B 1798   7.772  10.058   7.111  0.1469  0.1202 -0.1403
  119POPC   C2B 1799   7.802  10.003   6.658 -0.3308  0.0894  0.0986
  119POPC   C3B 1800   7.943  10.362   6.401  0.0876  0.1863  0.1341
  119POPC   C4B 1801   7.964  10.490   6.010 -0.1502 -0.2597  0.1019
  120POPC   NC3 1802   2.561   1.124   8.196  0.2571 -0.4079  0.3638
  120POPC   PO4 1803   2.147   1.170   8.137  0.0027  0.3098 -0.2324
  120POPC   GL1 1804   2.265   1.371   7.810 -0.2685 -0.0301 -0.0166
  120POPC   GL2 1805   1.971   1.689   7.816 -0.1118  0.1080 -0.2398
  120POPC   C1A 1806   2.366   1.307   7.375 -0.3314 -0.0113 -0.2565
  120POPC   D2A 1807   2.456   1.412   6.913 -0.1213  0.2258 -0.0365
  120POPC   C3A 1808   2.661   1.117   6.601 -0.2955 -0.4011 -0.3195
  120POPC   C4A 1809   2.942   0.991   6.238 -0.0843  0.2847  0.2942
  120POPC   C1B 1810   1.990   1.908   7.493  0.0649 -0.1031 -0.3153
  120POPC   C2B 1811   2.105   2.277   7.163 -0.1158  0.1683 -0.0964
  120POPC   C3B 1812   2.062   2.590   6.831 -0.1457 -0.0748 -0.2934
  120POPC   C4B 1813   1.878   2.848   6.514  0.2834  0.4540 -0.2405
  121POPC   NC3 1814   9.073   0.500   8.318 -0.0799  0.5764 -0.0581
  121POPC   PO4 1815   8.736   0.843   8.205  0.1051 -0.1358 -0.3121
  121POPC   GL1 1816   8.959   1.111   7.784  0.3571 -0.0765 -0.0123
  121POPC   GL2 1817   8.719   1.317   7.577 -0.0319 -0.2917  0.3007
  121POPC   C1A 1818   9.269   0.981   7.590  0.0953  0.0387  0.0963
  121POPC   D2A 1819   9.642   0.712   7.500  0.2935  0.2148  0.0754
  121POPC   C3A 1820   9.647   0.662   7.089  0.1236  0.0986 -0.0907
  121POPC   C4A 1821   9.687   0.628   6.626 -0.0451 -0.0230 -0.1970
  121POPC   C1B 1822   8.911   1.275   7.198  0.2125 -0.0093 -0.1294
  121POPC   C2B 1823   9.195   1.053   7.095 -0.1269  0.0551 -0.3045
  121POPC   C3B 1824   9.456   1.041   6.703 -0.1320 -0.2182 -0.2529
  121POPC   C4B 1825   9.761   1.399   6.645  0.0732 -0.1317 -0.1282
  122POPC   NC3 1826   9.644   6.058   8.208  0.1620  0.1376  0.0025
  122POPC   PO4 1827   9.953   6.236   8.247  0.2897  0.0803 -0.2349
  122POPC   GL1 1828  10.048   6.337   7.840 -0.2429 -0.0090 -0.2438
  122POPC   GL2 1829  10.178   6.655   7.754  0.0224  0.0130 -0.0772
  122POPC   C1A 1830  10.021   6.158   7.410  0.1329  0.2280  0.1081
  122POPC   D2A 1831  10.194   6.120   7.048 -0.1309  0.0860  0.0670
  122POPC   C3A 1832  10.204   5.898   6.722 -0.1191  0.1566  0.4432
  122POPC   C4A 1833  10.120   5.734   6.368 -0.0923  0.0859 -0.1149
  122POPC   C1B 1834  10.307   6.582   7.236 -0.0204 -0.3353  0.0384
  122POPC   C2B 1835  10.148   6.551   6.833 -0.3015 -0.1424 -0.0511
  122POPC   C3B 1836  10.007   6.366   6.430  0.0190 -0.1671  0.1132
  122POPC   C4B 1837  10.007   6.173   6.092 -0.0792  0.1516  0.0861
  123POPC   NC3 1838   6.718   0.399   7.870 -0.0869  0.1496  0.0863
  123POPC   PO4 1839   6.324   0.321   7.655 -0.0738 -0.1620 -0.4120
  123POPC   GL1 1840   6.080   0.381   7.366 -0.0544  0.0076 -0.0401
  123POPC   GL2 1841   6.068   0.636   7.340  0.0096  0.2110 -0.0728
  123POPC   C1A 1842   5.809   0.212   7.059 -0.0164 -0.0065  0.0344
  123POPC   D2A 1843   5.665  -0.072   6.902  0.1336 -0.3053  0.0328
  123POPC   C3A 1844   5.528  -0.039   6.447 -0.0233 -0.0641  0.0450
  123POPC   C4A 1845   5.480   0.101   5.986 -0.1256 -0.2467  0.3150
  123POPC   C1B 1846   6.423   0.590   7.023  0.0356 -0.1007 -0.2552
  123POPC   C2B 1847   6.494   0.776   6.663  0.0627 -0.0947  0.2462
  123POPC   C3B 1848   6.867   1.165   6.642  0.0810  0.3498  0.1220
  123POPC   C4B 1849   7.235   1.001   6.563 -0.2161  0.1080 -0.4612
  124POPC   NC3 1850   7.750   2.995   7.910 -0.2600  0.2784  0.3035
  124POPC   PO4 1851   7.911   3.561   7.925 -0.2557 -0.0727  0.3209
  124POPC   GL1 1852   7.941   3.908   7.716  0.0225  0.0503 -0.0428
  124POPC   GL2 1853   8.215   4.080   7.624 -0.2369 -0.0476  0.2658
  124POPC   C1A 1854   7.700   4.043   7.339 -0.1496  0.3719  0.1627
  124POPC   D2A 1855   7.813   4.190   6.928 -0.0547 -0.0224 -0.2206
  124POPC   C3A 1856   8.256   4.072   6.646  0.1680 -0.2482 -0.1373
  124POPC   C4A 1857   8.325   3.912   6.164 -0.1516 -0.0044 -0.0685
  124POPC   C1B 1858   8.441   3.933   7.193  0.2042  0.2443  0.0844
  124POPC   C2B 1859   8.715   4.151   6.831  0.2202  0.2137 -0.1484
  124POPC   C3B 1860   8.744   4.204   6.478  0.4785 -0.4266  0.0068
  124POPC   C4B 1861   8.697   4.195   6.031  0.0388  0.0562  0.3095
  125POPC   NC3 1862   9.023   8.760   8.224  0.2146  0.0141  0.1887
  125POPC   PO4 1863   9.518   8.908   8.102  0.1503  0.1167 -0.0876
  125POPC   GL1 1864   9.493   8.892   7.715 -0.0774 -0.1960 -0.4037
  125POPC   GL2 1865   9.378   8.708   7.529 -0.0297  0.1074 -0.0941
  125POPC   C1A 1866   9.713   8.991   7.265  0.5544 -0.2851  0.0472
  125POPC   D2A 1867   9.591   8.899   6.843  0.2375 -0.2225  0.0848
  125POPC   C3A 1868   9.746   8.706   6.507  0.1477  0.2662  0.1641
  125POPC   C4A 1869   9.670   8.338   6.199  0.3879  0.1622 -0.0660
  125POPC   C1B 1870   9.171   8.767   7.109  0.2004 -0.0029 -0.1457
  125POPC   C2B 1871   9.049   8.983   6.708 -0.0814  0.2143 -0.5175
  125POPC   C3B 1872   9.399   9.061   6.401  0.1136 -0.1763 -0.1638
  125POPC   C4B 1873   9.513   9.435   6.094 -0.0307  0.2691  0.1646
  126POPC   NC3 1874   4.169   2.040   8.148 -0.2782  0.0645  0.4886
  126POPC   PO4 1875   4.302   1.581   8.082  0.1136 -0.3721  0.0615
  126POPC   GL1 1876   4.222   1.553   7.765 -0.0376  0.2328 -0.0794
  126POPC   GL2 1877   4.102   1.933   7.544 -0.4519 -0.0611  0.1717
  126POPC   C1A 1878   4.396   1.478   7.332 -0.0669 -0.1069 -0.1750
  126POPC   D2A 1879   4.618   1.559   7.054  0.0943  0.0218  0.4149
  126POPC   C3A 1880   4.223   1.859   6.965 -0.2620 -0.0568  0.4773
  126POPC   C4A 1881   3.852   1.854   7.092 -0.0701 -0.1337 -0.0832
  126POPC   C1B 1882   4.547   1.947   7.371 -0.0574  0.3553 -0.2383
  126POPC   C2B 1883   4.916   1.924   7.002 -0.3143 -0.0070  0.0619
  126POPC   C3B 1884   4.912   1.766   6.552  0.1784 -0.0338 -0.4015
  126POPC   C4B 1885   4.984   2.018   6.178 -0.3267  0.1617 -0.3228
  127POPC   NC3 1886   3.835   2.834   8.491  0.2934  0.1093 -0.2439
  127POPC   PO4 1887   4.194   2.545   8.222 -0.0817  0.4738 -0.3208
  127POPC   GL1 1888   4.431   2.919   7.928 -0.2216  0.1218 -0.3997
  127POPC   GL2 1889   4.577   2.840   7.681 -0.0839 -0.0779 -0.0566
  127POPC   C1A 1890   4.526   3.378   7.704  0.0689  0.4843  0.0976
  127POPC   D2A 1891   4.620   3.748   7.500  0.2256  0.1324 -0.1899
  127POPC   C3A 1892   4.703   3.640   7.119  0.0769  0.2755 -0.1410
  127POPC   C4A 1893   4.753   3.328   6.795 -0.1038  0.0309  0.0128
  127POPC   C1B 1894   4.576   2.977   7.184 -0.2067 -0.0517 -0.0337
  127POPC   C2B 1895   4.605   2.780   6.845  0.1450  0.1998 -0.0961
  127POPC   C3B 1896   4.607   2.994   6.443 -0.1338  0.0918 -0.1204
  127POPC   C4B 1897   4.496   3.194   6.055 -0.0599  0.0779  0.2865
  128POPC   NC3 1898   2.848   8.301   8.292  0.2371 -0.0193 -0.2109
  128POPC   PO4 1899   3.028   8.679   8.348  0.2461 -0.1224 -0.5499
  128POPC   GL1 1900   3.270   8.688   8.036  0.2215 -0.2127 -0.0292
  128POPC   GL2 1901   3.033   8.552   7.790 -0.0093  0.1898 -0.1977
  128POPC   C1A 1902   3.627   8.496   7.695  0.3439 -0.1973 -0.3326
  128POPC   D2A 1903   3.732   8.234   7.334 -0.1370 -0.3583 -0.2390
  128POPC   C3A 1904   3.537   7.813   7.252  0.0147 -0.0560  0.0351
  128POPC   C4A 1905   3.849   7.416   7.227 -0.0439  0.3425  0.3142
  128POPC   C1B 1906   3.152   8.304   7.469 -0.0161  0.2262 -0.1541
  128POPC   C2B 1907   3.372   8.260   7.022 -0.1491  0.0854  0.0638
  128POPC   C3B 1908   3.437   8.203   6.482  0.0265  0.1713 -0.2716
  128POPC   C4B 1909   3.671   8.598   6.409 -0.0908  0.0750  0.0699
  129POPC   NC3 1910   3.521   1.369   8.180 -0.0034  0.1040  0.3788
  129POPC   PO4 1911   3.900   1.501   8.341 -0.2489  0.1930  0.0384
  129POPC   GL1 1912   3.838   1.712   7.964  0.0247  0.0658 -0.0709
  129POPC   GL2 1913   3.678   1.858   7.924  0.2568  0.1246 -0.0689
  129POPC   C1A 1914   3.738   1.622   7.561 -0.1596 -0.0672 -0.2066
  129POPC   D2A 1915   3.888   1.288   7.301 -0.3428 -0.0591 -0.1307
  129POPC   C3A 1916   4.061   1.375   6.928  0.2044  0.4104  0.1483
  129POPC   C4A 1917   4.282   1.517   6.556  0.1196  0.1996 -0.1998
  129POPC   C1B 1918   3.443   2.044   7.536 -0.0779  0.1877  0.1897
  129POPC   C2B 1919   3.404   2.092   7.118  0.2442  0.3007 -0.1217
  129POPC   C3B 1920   3.099   1.878   6.817 -0.0659  0.4630  0.1430
  129POPC   C4B 1921   2.811   1.660   6.535  0.1692 -0.2243 -0.0083
  130POPC   NC3 1922   9.321   9.313   8.330  0.1295 -0.4047 -0.0831
  130POPC   PO4 1923   8.859   9.204   8.359  0.1862 -0.1971 -0.0831
  130POPC   GL1 1924   8.866   9.088   7.907 -0.3722  0.3785 -0.0170
  130POPC   GL2 1925   9.045   9.378   7.817  0.0576 -0.4229  0.0748
  130POPC   C1A 1926   8.749   9.079   7.453  0.1531  0.1030  0.0537
  130POPC   D2A 1927   8.668   8.993   7.003  0.4809 -0.2612  0.0739
  130POPC   C3A 1928   8.764   9.404   6.784  0.0092  0.2629 -0.0986
  130POPC   C4A 1929   8.364   9.531   6.511  0.0713 -0.2765  0.2561
  130POPC   C1B 1930   9.334   9.393   7.430  0.0284  0.3004  0.1575
  130POPC   C2B 1931   9.684   9.399   6.996 -0.0516 -0.0917  0.1002
  130POPC   C3B 1932   9.866   9.231   6.540 -0.1419  0.0665 -0.0515
  130POPC   C4B 1933  10.228   9.228   6.223 -0.2126  0.2780 -0.1093
  131POPC   NC3 1934   8.503   3.419   8.284  0.1318 -0.0775 -0.1137
  131POPC   PO4 1935   8.811   3.821   8.068  0.0689 -0.0320 -0.2671
  131POPC   GL1 1936   8.773   3.882   7.681  0.2450  0.0718 -0.3529
  131POPC   GL2 1937   8.830   3.737   7.471  0.0084  0.1388 -0.0227
  131POPC   C1A 1938   8.625   4.306   7.389  0.0791 -0.1658 -0.0177
  131POPC   D2A 1939   8.790   4.627   7.082 -0.2143 -0.1896 -0.0740
  131POPC   C3A 1940   9.043   4.679   6.711  0.1248 -0.2092 -0.2226
  131POPC   C4A 1941   9.314   4.745   6.362 -0.2726 -0.0740  0.1259
  131POPC   C1B 1942   8.865   3.673   6.950  0.2113 -0.0365  0.3555
  131POPC   C2B 1943   8.584   3.667   6.596 -0.3761  0.2556  0.0246
  131POPC   C3B 1944   8.339   3.420   6.375 -0.0882 -0.2050 -0.0125
  131POPC   C4B 1945   8.307   2.947   6.117 -0.0055 -0.3626  0.0824
  132POPC   NC3 1946   2.211   9.613   7.846  0.3115 -0.1222 -0.0292
  132POPC   PO4 1947   2.073   9.985   8.103 -0.2230 -0.1403 -0.3269
  132POPC   GL1 1948   1.796   9.862   7.781  0.1107 -0.2142  0.1809
  132POPC   GL2 1949   1.472   9.542   7.780 -0.0475 -0.0226 -0.0085
  132POPC   C1A 1950   1.867   9.810   7.382  0.0867 -0.2078  0.3189
  132POPC   D2A 1951   2.220   9.581   7.323 -0.2623  0.0453  0.1022
  132POPC   C3A 1952   2.536   9.525   7.151  0.1283  0.4416  0.0566
  132POPC   C4A 1953   2.633   9.284   6.718 -0.0889  0.0609 -0.2233
  132POPC   C1B 1954   1.293   9.618   7.397 -0.3596 -0.1222 -0.0980
  132POPC   C2B 1955   1.244   9.678   6.954 -0.0751 -0.1446  0.1880
  132POPC   C3B 1956   1.137   9.762   6.545 -0.2194 -0.3371 -0.1275
  132POPC   C4B 1957   0.841   9.673   6.183  0.2542  0.1504  0.0773
  133POPC   NC3 1958   0.820   5.086   8.436 -0.2138 -0.0097 -0.2553
  133POPC   PO4 1959   1.039   4.790   8.246  0.0572 -0.0792 -0.2693
  133POPC   GL1 1960   1.252   4.739   7.880 -0.2428 -0.2192 -0.4638
  133POPC   GL2 1961   1.095   4.901   7.709  0.1204 -0.1300 -0.0172
  133POPC   C1A 1962   1.562   4.772   7.493 -0.1751  0.2260  0.0543
  133POPC   D2A 1963   1.524   5.008   7.141  0.1397 -0.2762  0.1593
  133POPC   C3A 1964   1.729   4.963   6.701 -0.0623  0.0130 -0.0572
  133POPC   C4A 1965   1.627   5.050   6.242  0.0475 -0.0365 -0.3316
  133POPC   C1B 1966   1.164   4.643   7.311  0.2105 -0.1430  0.2354
  133POPC   C2B 1967   1.086   4.406   6.920 -0.4001 -0.1192 -0.0167
  133POPC   C3B 1968   1.246   4.658   6.545  0.1761  0.0684 -0.3309
  133POPC   C4B 1969   1.143   4.735   6.152  0.5470  0.0208 -0.2352
  134POPC   NC3 1970   0.883   3.350   8.143 -0.1648  0.1657  0.1786
  134POPC   PO4 1971   0.743   2.888   8.089 -0.2168 -0.2011  0.0596
  134POPC   GL1 1972   0.950   2.881   7.759  0.1234 -0.0802  0.1937
  134POPC   GL2 1973   0.804   3.137   7.610  0.0266 -0.0057  0.0854
  134POPC   C1A 1974   1.107   2.664   7.403 -0.0646 -0.3571 -0.3014
  134POPC   D2A 1975   0.988   2.516   7.017  0.1033  0.0952  0.1595
  134POPC   C3A 1976   0.755   2.867   6.637  0.0150  0.2634  0.1216
  134POPC   C4A 1977   0.379   2.921   6.381 -0.3635 -0.1712  0.0471
  134POPC   C1B 1978   0.953   3.289   7.234 -0.0176 -0.0037 -0.0291
  134POPC   C2B 1979   0.919   3.339   6.764  0.1175  0.1342 -0.1986
  134POPC   C3B 1980   0.699   3.392   6.400 -0.2366 -0.0363  0.0690
  134POPC   C4B 1981   0.650   3.679   6.046  0.0478 -0.1276 -0.1258
  135POPC   NC3 1982   0.253   2.887   8.235 -0.0501 -0.1923  0.1088
  135POPC   PO4 1983  -0.182   2.628   8.207  0.0837  0.0494 -0.1821
  135POPC   GL1 1984  -0.111   2.776   7.832 -0.0989  0.2137 -0.3395
  135POPC   GL2 1985  -0.356   3.009   7.856  0.4570 -0.0893  0.1641
  135POPC   C1A 1986  -0.002   2.724   7.427 -0.0844  0.1392 -0.0607
  135POPC   D2A 1987   0.208   2.368   7.274  0.0796 -0.0556  0.2012
  135POPC   C3A 1988   0.503   2.475   6.950  0.0066  0.1781  0.1740
  135POPC   C4A 1989   0.362   2.413   6.554  0.3481 -0.0273  0.0032
  135POPC   C1B 1990  -0.436   3.008   7.436 -0.0836  0.1034  0.0717
  135POPC   C2B 1991  -0.339   2.819   7.093  0.2163 -0.1564 -0.1043
  135POPC   C3B 1992  -0.539   2.605   6.722 -0.0239  0.0383 -0.0553
  135POPC   C4B 1993  -0.762   2.299   6.355  0.2752  0.0059 -0.0538
  136POPC   NC3 1994   7.757   6.693   8.105  0.1228 -0.1224 -0.4576
  136POPC   PO4 1995   7.894   6.342   7.768  0.1074  0.1338 -0.2646
  136POPC   GL1 1996   7.731   6.603   7.536  0.0778 -0.0800 -0.2417
  136POPC   GL2 1997   7.957   6.641   7.296 -0.0185 -0.1941 -0.1895
  136POPC   C1A 1998   7.422   6.826   7.225 -0.0656  0.0508  0.2288
  136POPC   D2A 1999   7.391   6.894   6.799 -0.0279 -0.2460 -0.0890
  136POPC   C3A 2000   7.596   7.347   6.693  0.0186 -0.0915 -0.2494
  136POPC   C4A 2001   7.372   7.665   6.800 -0.2945 -0.1824  0.1289
  136POPC   C1B 2002   7.839   6.508   6.892  0.1537  0.1952  0.1139
  136POPC   C2B 2003   7.553   6.439   6.532  0.0714 -0.0883 -0.0502
  136POPC   C3B 2004   7.354   6.613   6.191  0.1641  0.0296 -0.0514
  136POPC   C4B 2005   7.093   6.968   5.975 -0.2240 -0.1779  0.2956
  137POPC   NC3 2006   8.811   5.285   8.077  0.2219  0.0952 -0.0642
  137POPC   PO4 2007   8.738   4.800   7.981  0.3394 -0.1518  0.0511
  137POPC   GL1 2008   8.620   4.829   7.569 -0.1782 -0.1885 -0.1006
  137POPC   GL2 2009   8.499   5.125   7.570  0.1002 -0.1367  0.1950
  137POPC   C1A 2010   8.339   4.815   7.241  0.1429  0.2030 -0.3708
  137POPC   D2A 2011   7.963   4.835   6.985  0.0864  0.1615  0.1603
  137POPC   C3A 2012   7.949   4.528   6.595 -0.2687 -0.3832 -0.1548
  137POPC   C4A 2013   7.693   4.328   6.284 -0.3825 -0.1655 -0.1178
  137POPC   C1B 2014   8.778   5.158   7.146  0.0505  0.2788  0.1078
  137POPC   C2B 2015   9.077   5.205   6.856  0.0804  0.4251 -0.1063
  137POPC   C3B 2016   9.329   5.197   6.557  0.0330 -0.0113 -0.0298
  137POPC   C4B 2017   9.678   5.311   6.240 -0.1291  0.1160  0.1480
  138POPC   NC3 2018   6.818   9.186   8.421 -0.0092  0.0343 -0.0214
  138POPC   PO4 2019   7.087   9.274   8.109  0.3201  0.0589  0.0956
  138POPC   GL1 2020   7.267   9.210   7.723 -0.0808  0.0741  0.1899
  138POPC   GL2 2021   7.581   9.214   7.641  0.1089 -0.2500  0.1773
  138POPC   C1A 2022   7.240   9.155   7.269 -0.0591 -0.2335  0.1086
  138POPC   D2A 2023   6.952   9.220   6.936  0.1149  0.1013  0.0293
  138POPC   C3A 2024   6.844   9.004   6.566 -0.0015  0.2697  0.0096
  138POPC   C4A 2025   6.493   9.014   6.288 -0.1235 -0.0297 -0.1016
  138POPC   C1B 2026   7.685   8.981   7.267  0.3118 -0.1641  0.1502
  138POPC   C2B 2027   7.542   9.107   6.874 -0.0913 -0.0698  0.0271
  138POPC   C3B 2028   7.347   9.295   6.569  0.1829  0.1686  0.1384
  138POPC   C4B 2029   7.389   9.466   6.137 -0.2563 -0.1632 -0.0779
  139POPC   NC3 2030   1.073   8.234   7.979 -0.0957  0.1724 -0.2841
  139POPC   PO4 2031   1.294   8.572   7.967 -0.2155  0.1193  0.1930
  139POPC   GL1 2032   1.326   8.527   7.576 -0.1986 -0.0282 -0.2699
  139POPC   GL2 2033   1.128   8.251   7.498  0.0013  0.1607 -0.0874
  139POPC   C1A 2034   1.655   8.264   7.318  0.3823 -0.0040  0.1736
  139POPC   D2A 2035   1.854   8.211   6.966  0.0820 -0.2487  0.0040
  139POPC   C3A 2036   2.074   8.584   6.816 -0.1547 -0.0541 -0.1969
  139POPC   C4A 2037   1.792   8.982   6.697 -0.2141  0.1432  0.0932
  139POPC   C1B 2038   1.162   8.314   7.123  0.0332 -0.1407  0.4119
  139POPC   C2B 2039   0.944   8.365   6.710  0.2157  0.2838 -0.0134
  139POPC   C3B 2040   0.557   8.326   6.539  0.2499  0.3323  0.1614
  139POPC   C4B 2041   0.128   8.108   6.623  0.2901 -0.0639 -0.0207
  140POPC   NC3 2042   6.558   6.184   8.811  0.0711 -0.2141 -0.1175
  140POPC   PO4 2043   6.803   6.153   8.465  0.1309  0.0524  0.2550
  140POPC   GL1 2044   6.523   6.354   8.221  0.1447 -0.0388 -0.0662
  140POPC   GL2 2045   6.717   6.501   7.993 -0.3084  0.0590  0.2321
  140POPC   C1A 2046   6.245   6.394   7.890  0.4467  0.1289  0.1439
  140POPC   D2A 2047   5.893   6.545   7.634 -0.3446  0.0689  0.0319
  140POPC   C3A 2048   5.792   6.261   7.349  0.2085 -0.0949  0.1604
  140POPC   C4A 2049   5.750   5.903   7.095 -0.6284 -0.2331 -0.1756
  140POPC   C1B 2050   6.878   6.663   7.638 -0.0458  0.4142 -0.1379
  140POPC   C2B 2051   7.090   6.368   7.283  0.0162 -0.0478 -0.1276
  140POPC   C3B 2052   7.244   6.329   6.843 -0.1375 -0.0363 -0.4688
  140POPC   C4B 2053   7.098   6.063   6.549 -0.2418  0.1315 -0.3358
  141POPC   NC3 2054   0.299   3.832   8.706 -0.1940 -0.0365 -0.0158
  141POPC   PO4 2055   0.045   3.757   8.280 -0.0112  0.0189 -0.3399
  141POPC   GL1 2056   0.111   3.794   7.797  0.1151 -0.1592  0.3619
  141POPC   GL2 2057   0.269   4.043   7.583  0.2382  0.2134 -0.0766
  141POPC   C1A 2058  -0.126   3.677   7.508  0.0566 -0.1546 -0.1430
  141POPC   D2A 2059  -0.467   3.554   7.231  0.0565 -0.0474 -0.0485
  141POPC   C3A 2060  -0.494   3.296   6.959  0.0320  0.2525  0.0199
  141POPC   C4A 2061  -0.621   3.070   6.556  0.1287 -0.0427 -0.1139
  141POPC   C1B 2062   0.170   3.935   7.134 -0.1216 -0.1853 -0.1114
  141POPC   C2B 2063   0.044   4.056   6.790 -0.1508 -0.0035  0.2355
  141POPC   C3B 2064  -0.247   4.355   6.793  0.2810 -0.0806 -0.2294
  141POPC   C4B 2065  -0.491   4.227   6.420 -0.0884 -0.0105 -0.0362
  142POPC   NC3 2066   5.503   2.312   8.779 -0.3781 -0.0148  0.0436
  142POPC   PO4 2067   5.380   2.221   8.358  0.0414 -0.2188 -0.1022
  142POPC   GL1 2068   5.582   2.157   7.950 -0.4490 -0.2375  0.1919
  142POPC   GL2 2069   5.920   2.057   7.964 -0.1469  0.1870 -0.1376
  142POPC   C1A 2070   5.648   2.198   7.536  0.0452 -0.0775  0.0492
  142POPC   D2A 2071   5.844   2.226   7.185  0.0869  0.0590  0.0260
  142POPC   C3A 2072   6.016   1.959   7.046  0.4729  0.2081  0.1642
  142POPC   C4A 2073   5.922   1.656   6.811 -0.0992  0.2737  0.1690
  142POPC   C1B 2074   6.192   1.979   7.616  0.0750  0.0848  0.0254
  142POPC   C2B 2075   6.540   1.912   7.280  0.2543  0.1201 -0.1397
  142POPC   C3B 2076   6.923   2.041   7.133 -0.1215 -0.0459  0.4438
  142POPC   C4B 2077   7.185   2.052   6.764  0.0180  0.1449  0.2513
  143POPC   NC3 2078   2.499   4.567   8.428 -0.0774 -0.2418  0.1600
  143POPC   PO4 2079   2.825   4.392   8.305 -0.1758  0.1507  0.1709
  143POPC   GL1 2080   2.694   4.232   7.896  0.0419  0.0489 -0.1915
  143POPC   GL2 2081   3.008   4.090   7.699  0.2291 -0.2103  0.0065
  143POPC   C1A 2082   2.483   4.290   7.554 -0.4317  0.0420  0.0566
  143POPC   D2A 2083   2.480   4.488   7.133 -0.0821  0.1672  0.0063
  143POPC   C3A 2084   2.451   4.435   6.756  0.1325  0.0880  0.1451
  143POPC   C4A 2085   2.158   4.615   6.451 -0.2347 -0.0931 -0.3220
  143POPC   C1B 2086   2.858   4.057   7.317 -0.1399  0.1550 -0.2141
  143POPC   C2B 2087   2.575   3.970   6.956  0.0879 -0.1247  0.2581
  143POPC   C3B 2088   2.643   4.052   6.502  0.0916  0.0718 -0.4382
  143POPC   C4B 2089   2.697   4.131   6.045 -0.0335  0.1968  0.0992
  144POPC   NC3 2090   4.071   0.057   4.546 -0.1671 -0.2327  0.0932
  144POPC   PO4 2091   4.434  -0.001   4.268  0.1917  0.2899  0.2734
  144POPC   GL1 2092   4.579  -0.136   4.683  0.1905 -0.1919  0.3560
  144POPC   GL2 2093   4.440  -0.404   4.731  0.1812  0.0138  0.3079
  144POPC   C1A 2094   4.635  -0.011   5.191  0.2134  0.1111 -0.2695
  144POPC   D2A 2095   4.429  -0.094   5.583 -0.1188  0.0061  0.0599
  144POPC   C3A 2096   4.491  -0.387   5.914  0.2135  0.2741 -0.0916
  144POPC   C4A 2097   4.420  -0.427   6.278  0.0671  0.4542  0.1857
  144POPC   C1B 2098   4.193  -0.274   5.102 -0.1044 -0.1993  0.3049
  144POPC   C2B 2099   3.910  -0.093   5.514 -0.1049 -0.1992 -0.0234
  144POPC   C3B 2100   4.073  -0.158   5.964  0.0721 -0.1870  0.0190
  144POPC   C4B 2101   3.962   0.018   6.372  0.1483 -0.2508 -0.0779
  145POPC   NC3 2102   7.500   0.772   4.396 -0.0187  0.0004  0.1950
  145POPC   PO4 2103   7.256   1.066   4.491  0.1621  0.0148 -0.2136
  145POPC   GL1 2104   7.216   0.867   4.888  0.0226 -0.1675 -0.4493
  145POPC   GL2 2105   6.947   0.773   5.031 -0.1071 -0.1316 -0.0669
  145POPC   C1A 2106   7.450   1.097   5.291  0.1684  0.1169 -0.0794
  145POPC   D2A 2107   7.454   1.061   5.768  0.3618 -0.0721 -0.2373
  145POPC   C3A 2108   7.504   0.973   6.166 -0.0602  0.1385 -0.2235
  145POPC   C4A 2109   7.357   0.531   6.294  0.0032 -0.0096  0.2651
  145POPC   C1B 2110   6.810   1.039   5.364 -0.0479 -0.4442  0.0072
  145POPC   C2B 2111   6.613   1.003   5.760 -0.0842 -0.0874  0.3426
  145POPC   C3B 2112   6.444   1.024   6.153 -0.0227  0.1355  0.2168
  145POPC   C4B 2113   6.052   0.759   6.239 -0.2430  0.0212  0.0860
  146POPC   NC3 2114   6.447   4.731   4.149 -0.3159  0.0577  0.0352
  146POPC   PO4 2115   6.715   4.288   4.103 -0.0199 -0.2456 -0.0107
  146POPC   GL1 2116   6.713   4.328   4.579  0.2838  0.0299  0.0862
  146POPC   GL2 2117   6.453   4.483   4.619  0.2003  0.0861 -0.2887
  146POPC   C1A 2118   6.802   4.187   5.018  0.0220  0.0669  0.0356
  146POPC   D2A 2119   6.707   4.256   5.433 -0.0915 -0.0973 -0.0975
  146POPC   C3A 2120   6.802   3.916   5.912  0.0055  0.2123  0.1701
  146POPC   C4A 2121   6.826   3.451   5.869 -0.0725 -0.0977 -0.0050
  146POPC   C1B 2122   6.637   4.722   4.956 -0.0457  0.3632 -0.1716
  146POPC   C2B 2123   6.514   4.924   5.376 -0.1330 -0.2000  0.0387
  146POPC   C3B 2124   6.139   5.151   5.528  0.1491 -0.0071  0.0092
  146POPC   C4B 2125   5.827   5.016   5.311  0.4063  0.1203  0.0251
  147POPC   NC3 2126   7.172   2.507   4.206 -0.1636 -0.0509  0.2368
  147POPC   PO4 2127   7.663   2.376   4.436  0.1168  0.2985  0.0897
  147POPC   GL1 2128   7.516   1.892   4.688  0.1678 -0.1680 -0.3056
  147POPC   GL2 2129   7.896   1.804   4.665  0.0332  0.2766 -0.3273
  147POPC   C1A 2130   7.221   1.870   5.161  0.1712 -0.0543  0.1475
  147POPC   D2A 2131   7.262   1.731   5.547 -0.3205  0.1726  0.0638
  147POPC   C3A 2132   7.357   1.990   5.817  0.1355  0.3218 -0.3516
  147POPC   C4A 2133   7.381   2.032   6.226 -0.0443 -0.3740 -0.0486
  147POPC   C1B 2134   8.060   1.707   5.071  0.2353 -0.0566 -0.0560
  147POPC   C2B 2135   8.398   1.634   5.379  0.0876 -0.3204 -0.1823
  147POPC   C3B 2136   8.756   1.777   5.572  0.2965 -0.0815  0.1656
  147POPC   C4B 2137   8.901   1.695   5.926  0.2431  0.3244 -0.1679
  148POPC   NC3 2138   0.227   8.534   4.696  0.1060 -0.1176 -0.0240
  148POPC   PO4 2139   0.407   8.086   4.856 -0.0379  0.3789 -0.2945
  148POPC   GL1 2140   0.137   7.828   5.041 -0.3575  0.1362  0.1059
  148POPC   GL2 2141  -0.041   7.483   4.941  0.2280  0.0674  0.1621
  148POPC   C1A 2142  -0.113   7.736   5.342 -0.0895  0.2350  0.0206
  148POPC   D2A 2143  -0.463   7.874   5.475 -0.3485  0.0226  0.0230
  148POPC   C3A 2144  -0.550   7.588   5.720  0.2828  0.2136  0.0737
  148POPC   C4A 2145  -0.803   7.361   5.980 -0.1100 -0.1108  0.1917
  148POPC   C1B 2146  -0.418   7.316   5.167  0.1547  0.0496 -0.2271
  148POPC   C2B 2147  -0.692   7.102   5.462  0.0111 -0.2247 -0.0461
  148POPC   C3B 2148  -1.074   6.969   5.676 -0.1659  0.0646 -0.0253
  148POPC   C4B 2149  -1.335   6.773   5.667  0.2240  0.1069 -0.0270
  149POPC   NC3 2150   7.367   3.688   4.317 -0.3423 -0.0626 -0.3283
  149POPC   PO4 2151   7.045   3.430   4.327 -0.3464 -0.0839 -0.1864
  149POPC   GL1 2152   6.810   3.381   4.627 -0.1778  0.0628  0.0976
  149POPC   GL2 2153   6.419   3.380   4.577 -0.2041  0.0472  0.1766
  149POPC   C1A 2154   6.710   3.258   5.022  0.1041 -0.0372 -0.2290
  149POPC   D2A 2155   6.630   3.317   5.371 -0.2312  0.0415  0.2509
  149POPC   C3A 2156   6.262   3.330   5.621 -0.0575 -0.1336  0.0880
  149POPC   C4A 2157   6.197   3.702   5.749  0.0105  0.1090  0.0034
  149POPC   C1B 2158   6.230   3.482   5.024  0.0554  0.0170  0.0732
  149POPC   C2B 2159   5.999   3.924   5.277  0.2750 -0.1137 -0.0579
  149POPC   C3B 2160   6.008   4.151   5.619 -0.0781 -0.0726 -0.2540
  149POPC   C4B 2161   6.413   4.199   5.897 -0.1798  0.3284 -0.1681
  150POPC   NC3 2162   7.849   7.329   4.419  0.5905 -0.1488  0.3656
  150POPC   PO4 2163   7.573   7.614   4.393 -0.1091  0.0747 -0.5858
  150POPC   GL1 2164   7.480   7.275   4.739  0.3168  0.1534  0.0177
  150POPC   GL2 2165   7.658   7.371   4.954 -0.4581  0.1732 -0.0526
  150POPC   C1A 2166   7.265   7.000   5.082 -0.1708 -0.1911 -0.0077
  150POPC   D2A 2167   7.335   6.777   5.475  0.3447  0.0975  0.3189
  150POPC   C3A 2168   7.472   6.419   5.416  0.1163  0.0946  0.1152
  150POPC   C4A 2169   7.738   6.085   5.393  0.1646 -0.2845 -0.0214
  150POPC   C1B 2170   7.566   7.231   5.373 -0.0568 -0.3002 -0.2085
  150POPC   C2B 2171   7.969   7.225   5.527  0.0572  0.1209  0.1060
  150POPC   C3B 2172   8.095   7.230   5.983 -0.2597 -0.2832 -0.0513
  150POPC   C4B 2173   8.467   7.175   6.040  0.0418 -0.2375 -0.2700
  151POPC   NC3 2174   0.276   9.439   4.186  0.2020 -0.2860  0.2020
  151POPC   PO4 2175   0.663   9.535   4.101  0.0058 -0.3095  0.0016
  151POPC   GL1 2176   0.580   9.527   4.581  0.1129 -0.2647 -0.1787
  151POPC   GL2 2177   0.274   9.466   4.699 -0.2439  0.0000 -0.1549
  151POPC   C1A 2178   0.702   9.375   4.992 -0.3180 -0.0437  0.0312
  151POPC   D2A 2179   0.782   9.252   5.396 -0.1860 -0.3003  0.0938
  151POPC   C3A 2180   0.627   9.432   5.744  0.4094 -0.1363  0.0491
  151POPC   C4A 2181   0.267   9.631   6.009 -0.0884 -0.0248 -0.0181
  151POPC   C1B 2182   0.219   9.229   5.121 -0.3461  0.1017 -0.1046
  151POPC   C2B 2183   0.414   8.991   5.485 -0.0890  0.0689  0.1255
  151POPC   C3B 2184   0.634   8.948   5.871 -0.1038 -0.0418  0.3486
  151POPC   C4B 2185   0.441   8.748   6.204 -0.2698  0.0879 -0.1551
  152POPC   NC3 2186   6.285   4.479   3.690  0.0528 -0.0882 -0.4466
  152POPC   PO4 2187   6.034   4.575   3.970 -0.4418  0.1938  0.0703
  152POPC   GL1 2188   5.577   4.778   4.028 -0.0467 -0.1235  0.1730
  152POPC   GL2 2189   5.257   4.675   3.979 -0.1006  0.1187  0.1896
  152POPC   C1A 2190   5.477   4.924   4.331  0.4094  0.1301  0.0400
  152POPC   D2A 2191   5.317   4.844   4.653  0.3649 -0.1925  0.0503
  152POPC   C3A 2192   5.269   4.785   5.110 -0.1615 -0.0868  0.0555
  152POPC   C4A 2193   5.107   4.492   5.352 -0.0809  0.1359 -0.2114
  152POPC   C1B 2194   4.995   4.657   4.308 -0.1685 -0.3746 -0.1219
  152POPC   C2B 2195   4.717   4.596   4.639  0.3342 -0.0318  0.0902
  152POPC   C3B 2196   4.797   4.564   5.018  0.0753  0.0972 -0.0696
  152POPC   C4B 2197   4.685   4.191   5.365 -0.1184  0.1471 -0.3645
  153POPC   NC3 2198   1.869   2.788   4.260 -0.0328 -0.3108 -0.0985
  153POPC   PO4 2199   1.471   3.120   4.241 -0.0637 -0.2053  0.2592
  153POPC   GL1 2200   1.340   3.296   4.551  0.1010 -0.0433  0.1441
  153POPC   GL2 2201   1.072   3.287   4.622  0.0816  0.0377 -0.2012
  153POPC   C1A 2202   1.418   3.476   5.000 -0.0666  0.1413  0.2435
  153POPC   D2A 2203   1.448   3.084   5.367  0.0204 -0.2516 -0.1562
  153POPC   C3A 2204   1.385   3.130   5.735  0.0333  0.2734  0.2382
  153POPC   C4A 2205   1.504   2.896   6.087 -0.0108  0.1040  0.1812
  153POPC   C1B 2206   0.960   3.545   4.904 -0.1132 -0.2039  0.0017
  153POPC   C2B 2207   0.605   3.317   5.170 -0.2938 -0.0773  0.0510
  153POPC   C3B 2208   0.571   3.195   5.512  0.2623 -0.2932 -0.0594
  153POPC   C4B 2209   0.602   3.130   5.944 -0.0546  0.1952 -0.0745
  154POPC   NC3 2210   4.532   2.777   4.035  0.0942 -0.0351 -0.0498
  154POPC   PO4 2211   5.017   2.719   4.170  0.2001  0.0502  0.2168
  154POPC   GL1 2212   5.209   2.572   4.572 -0.1060 -0.2841 -0.1746
  154POPC   GL2 2213   5.071   2.327   4.599 -0.0399  0.2438  0.2123
  154POPC   C1A 2214   5.378   2.736   4.979  0.2158  0.6800 -0.1359
  154POPC   D2A 2215   5.495   2.868   5.455 -0.4662  0.0958  0.0974
  154POPC   C3A 2216   5.343   3.184   5.727  0.1011  0.0524 -0.2890
  154POPC   C4A 2217   5.393   3.278   6.191  0.1507 -0.4854 -0.2410
  154POPC   C1B 2218   4.835   2.169   5.002 -0.1644  0.5627 -0.1192
  154POPC   C2B 2219   4.941   2.178   5.401  0.2074 -0.1593 -0.0362
  154POPC   C3B 2220   5.017   2.341   5.812 -0.0274 -0.1394 -0.4399
  154POPC   C4B 2221   5.184   2.469   6.284 -0.0293 -0.1572  0.4760
  155POPC   NC3 2222   3.806   4.862   3.372 -0.2733 -0.0281  0.2104
  155POPC   PO4 2223   4.223   4.863   3.490  0.2931 -0.2421  0.1759
  155POPC   GL1 2224   3.994   4.927   3.898 -0.1206 -0.2722  0.0293
  155POPC   GL2 2225   3.659   4.883   4.000  0.0972  0.0438  0.1247
  155POPC   C1A 2226   3.927   5.045   4.352 -0.0512 -0.0142 -0.0806
  155POPC   D2A 2227   4.134   4.888   4.739  0.1420  0.3720  0.1637
  155POPC   C3A 2228   3.951   5.004   5.116 -0.1315  0.0218  0.0274
  155POPC   C4A 2229   3.803   4.811   5.556 -0.1669 -0.2370 -0.2585
  155POPC   C1B 2230   3.944   4.540   4.244  0.2162  0.1550 -0.1387
  155POPC   C2B 2231   3.725   4.171   4.515 -0.0217 -0.0877 -0.0647
  155POPC   C3B 2232   3.683   3.971   4.834 -0.0355  0.2898  0.0503
  155POPC   C4B 2233   3.472   4.047   5.194  0.2994  0.1537 -0.0521
  156POPC   NC3 2234   4.767   8.217   3.658  0.2340  0.0692 -0.0375
  156POPC   PO4 2235   4.985   8.455   3.929  0.0710 -0.0634  0.1775
  156POPC   GL1 2236   4.916   8.358   4.401 -0.1372  0.0500 -0.2205
  156POPC   GL2 2237   4.704   8.664   4.665  0.1383  0.1008  0.0338
  156POPC   C1A 2238   4.743   8.154   4.799 -0.0159  0.3636  0.1773
  156POPC   D2A 2239   4.556   7.994   5.131 -0.0673  0.2165 -0.2758
  156POPC   C3A 2240   4.631   8.122   5.577 -0.0264 -0.0681 -0.1825
  156POPC   C4A 2241   4.962   8.062   5.882 -0.0801  0.2278 -0.0173
  156POPC   C1B 2242   4.328   8.851   4.939 -0.0591  0.2043 -0.0100
  156POPC   C2B 2243   4.100   9.070   5.369  0.0672 -0.4643 -0.3245
  156POPC   C3B 2244   4.079   9.090   5.818 -0.0505  0.0374 -0.0555
  156POPC   C4B 2245   3.936   9.242   6.326  0.0722 -0.2270 -0.0595
  157POPC   NC3 2246   6.177   6.954   3.303  0.2354  0.4344  0.0637
  157POPC   PO4 2247   5.701   6.702   3.309 -0.3670  0.2247  0.0937
  157POPC   GL1 2248   5.537   6.678   3.754 -0.0104 -0.1055 -0.1380
  157POPC   GL2 2249   5.766   6.534   3.926 -0.2139 -0.2690  0.3197
  157POPC   C1A 2250   5.304   6.820   4.100  0.1204  0.2335 -0.0385
  157POPC   D2A 2251   5.099   7.102   4.377 -0.1310 -0.1363 -0.2012
  157POPC   C3A 2252   4.997   7.025   4.743  0.0954 -0.2311 -0.5376
  157POPC   C4A 2253   4.902   7.150   5.152 -0.1709 -0.0700  0.0851
  157POPC   C1B 2254   5.883   6.663   4.413 -0.1857 -0.2887  0.1307
  157POPC   C2B 2255   5.956   6.598   4.787  0.3170 -0.1835  0.2198
  157POPC   C3B 2256   5.960   6.600   5.143 -0.0038 -0.0452  0.1039
  157POPC   C4B 2257   5.989   6.418   5.560 -0.1293  0.0185  0.1651
  158POPC   NC3 2258   2.274   7.780   2.837  0.0532 -0.0444 -0.0172
  158POPC   PO4 2259   2.716   7.702   3.191  0.2494  0.0495 -0.0792
  158POPC   GL1 2260   2.690   7.402   3.550 -0.2087  0.0063 -0.1468
  158POPC   GL2 2261   2.896   7.478   3.853 -0.1277  0.3142  0.2837
  158POPC   C1A 2262   2.522   7.176   3.909  0.0858  0.1794 -0.0283
  158POPC   D2A 2263   2.524   6.855   4.303 -0.3726  0.0008 -0.2268
  158POPC   C3A 2264   2.649   6.428   4.243 -0.0222 -0.3626  0.0372
  158POPC   C4A 2265   3.024   6.258   4.136 -0.2318 -0.1530  0.0226
  158POPC   C1B 2266   2.867   7.284   4.312 -0.2479  0.2327  0.0572
  158POPC   C2B 2267   2.738   7.369   4.771  0.3980 -0.2662 -0.0558
  158POPC   C3B 2268   2.569   7.477   5.163  0.0470  0.0305 -0.1350
  158POPC   C4B 2269   2.327   7.529   5.527 -0.1840 -0.2503 -0.2484
  159POPC   NC3 2270   0.649   5.502   4.133 -0.0963  0.0576  0.0259
  159POPC   PO4 2271   0.354   5.132   4.052 -0.1525 -0.1076 -0.2478
  159POPC   GL1 2272   0.548   5.140   4.481  0.0595  0.2123 -0.1743
  159POPC   GL2 2273   0.193   5.040   4.590 -0.2565  0.0307 -0.4679
  159POPC   C1A 2274   0.698   4.988   4.772  0.1442 -0.2285  0.0042
  159POPC   D2A 2275   1.112   4.808   5.024  0.1117  0.0994  0.0540
  159POPC   C3A 2276   1.297   5.000   5.372  0.2021 -0.1386 -0.3015
  159POPC   C4A 2277   1.497   4.895   5.846  0.4657  0.1017  0.3788
  159POPC   C1B 2278   0.243   4.858   4.981  0.0155  0.0192  0.3206
  159POPC   C2B 2279   0.159   4.454   5.179  0.2659  0.2129  0.0883
  159POPC   C3B 2280   0.353   4.202   5.448  0.1152 -0.3600  0.1038
  159POPC   C4B 2281   0.354   4.013   5.854 -0.3377 -0.1394  0.0263
  160POPC   NC3 2282   6.651   9.272   4.421  0.1284  0.2024  0.0077
  160POPC   PO4 2283   6.214   9.504   4.480 -0.3787  0.3076 -0.0329
  160POPC   GL1 2284   6.239   9.286   4.774  0.0550  0.2404  0.2245
  160POPC   GL2 2285   6.557   9.301   4.903 -0.0062  0.0960  0.2914
  160POPC   C1A 2286   6.051   9.283   5.131  0.0240  0.1900  0.0431
  160POPC   D2A 2287   6.221   9.329   5.564  0.1055  0.0231 -0.3170
  160POPC   C3A 2288   6.164   9.063   5.870  0.1077  0.0834  0.3845
  160POPC   C4A 2289   6.064   8.744   6.107  0.1929  0.0353 -0.2933
  160POPC   C1B 2290   6.454   8.993   5.205  0.3191 -0.1190  0.2317
  160POPC   C2B 2291   6.427   8.775   5.494  0.0770  0.1984  0.2560
  160POPC   C3B 2292   6.564   8.595   5.860 -0.3696  0.1265  0.0000
  160POPC   C4B 2293   6.822   8.639   6.169  0.0772 -0.0475 -0.1955
  161POPC   NC3 2294   9.531   3.877   4.334  0.1591 -0.0807  0.0165
  161POPC   PO4 2295   9.866   3.702   4.387  0.1130 -0.2124  0.2865
  161POPC   GL1 2296   9.722   3.376   4.677  0.3208  0.0429  0.2474
  161POPC   GL2 2297   9.981   3.238   4.804 -0.1412 -0.0629  0.1913
  161POPC   C1A 2298   9.459   3.572   4.994  0.0927 -0.1052 -0.1485
  161POPC   D2A 2299   9.494   3.561   5.405  0.1639  0.1369 -0.0428
  161POPC   C3A 2300   9.411   3.505   5.870  0.0958 -0.0683 -0.0648
  161POPC   C4A 2301   9.378   3.383   6.274  0.0654 -0.0548  0.0838
  161POPC   C1B 2302   9.827   3.261   5.186 -0.0068  0.0940 -0.0234
  161POPC   C2B 2303   9.708   3.046   5.513  0.3134  0.0428 -0.3215
  161POPC   C3B 2304   9.653   3.070   6.006 -0.1773 -0.1280  0.0472
  161POPC   C4B 2305   9.559   2.883   6.392  0.0221  0.2139 -0.1427
  162POPC   NC3 2306   5.913   0.242   4.445 -0.0369  0.0157  0.2881
  162POPC   PO4 2307   5.755  -0.158   4.234  0.2164 -0.2111 -0.2955
  162POPC   GL1 2308   5.760  -0.176   4.721  0.1937 -0.0059  0.2648
  162POPC   GL2 2309   5.522   0.142   4.800 -0.1323  0.1639  0.1554
  162POPC   C1A 2310   5.537  -0.418   4.973 -0.3669  0.1687 -0.1716
  162POPC   D2A 2311   5.302  -0.483   5.250  0.2900  0.3324  0.3015
  162POPC   C3A 2312   5.434  -0.338   5.706 -0.0391  0.0734  0.1416
  162POPC   C4A 2313   5.333  -0.435   6.130  0.0978 -0.2229  0.3718
  162POPC   C1B 2314   5.759   0.050   5.157 -0.0275  0.2507 -0.1946
  162POPC   C2B 2315   5.854  -0.063   5.606 -0.2362 -0.1333 -0.1358
  162POPC   C3B 2316   5.841  -0.236   6.024  0.3810 -0.0581 -0.2439
  162POPC   C4B 2317   6.002  -0.544   6.371  0.1784 -0.0525  0.0684
  163POPC   NC3 2318   5.101   1.483   3.698 -0.0377 -0.2857 -0.0436
  163POPC   PO4 2319   4.944   1.165   4.036 -0.0495 -0.1665  0.0066
  163POPC   GL1 2320   4.917   1.380   4.510  0.0907  0.3792 -0.1219
  163POPC   GL2 2321   4.619   1.390   4.762 -0.1936  0.0554 -0.1470
  163POPC   C1A 2322   5.058   1.758   4.716  0.2974  0.0224  0.1018
  163POPC   D2A 2323   5.436   1.810   4.834 -0.2328 -0.3082  0.1909
  163POPC   C3A 2324   5.742   1.546   4.897 -0.0524 -0.3115 -0.1848
  163POPC   C4A 2325   6.234   1.332   4.899 -0.1758  0.1506 -0.0657
  163POPC   C1B 2326   4.872   1.405   5.073  0.0681  0.2720 -0.1091
  163POPC   C2B 2327   5.115   1.744   5.258  0.1167 -0.0996 -0.1204
  163POPC   C3B 2328   5.497   1.777   5.355  0.2894  0.2101  0.1018
  163POPC   C4B 2329   5.750   1.369   5.377  0.1794 -0.3072 -0.2222
  164POPC   NC3 2330   4.734   9.001   3.734  0.2301  0.1677 -0.0102
  164POPC   PO4 2331   4.817   9.431   3.893  0.0548 -0.1465  0.0977
  164POPC   GL1 2332   4.951   9.387   4.309  0.1069 -0.1335  0.1145
  164POPC   GL2 2333   4.887   9.168   4.593 -0.3970 -0.1801 -0.0594
  164POPC   C1A 2334   5.070   9.582   4.764 -0.0375 -0.1900  0.0005
  164POPC   D2A 2335   5.184   9.800   5.189  0.0078 -0.1235  0.5134
  164POPC   C3A 2336   4.989   9.719   5.594  0.1126  0.0237  0.1008
  164POPC   C4A 2337   4.913   9.319   5.634  0.3196 -0.1930 -0.0363
  164POPC   C1B 2338   4.824   9.113   4.997 -0.3862 -0.1904  0.1665
  164POPC   C2B 2339   4.724   8.922   5.329  0.0335 -0.0621 -0.2474
  164POPC   C3B 2340   4.843   8.608   5.680 -0.2210 -0.1745 -0.0815
  164POPC   C4B 2341   4.763   8.479   6.059  0.0226 -0.1716 -0.3010
  165POPC   NC3 2342   4.620   7.966   3.119 -0.0140  0.0375  0.0002
  165POPC   PO4 2343   4.316   8.076   3.468  0.1308 -0.0481 -0.1567
  165POPC   GL1 2344   4.573   7.751   3.685  0.0099 -0.1104 -0.0171
  165POPC   GL2 2345   4.669   7.754   3.935  0.0513  0.0198 -0.0550
  165POPC   C1A 2346   4.673   7.240   3.609  0.1436 -0.0123 -0.0146
  165POPC   D2A 2347   4.891   6.926   3.869 -0.3634  0.0952 -0.1379
  165POPC   C3A 2348   4.803   6.576   4.132  0.2597 -0.2428  0.1224
  165POPC   C4A 2349   5.010   6.572   4.493  0.1564  0.0856 -0.0913
  165POPC   C1B 2350   4.828   7.759   4.386  0.2369 -0.1850  0.1218
  165POPC   C2B 2351   5.144   7.938   4.560 -0.0759 -0.2344 -0.1126
  165POPC   C3B 2352   5.529   7.808   4.959 -0.1978  0.2582 -0.1041
  165POPC   C4B 2353   5.980   7.791   5.059  0.1990 -0.1182  0.0334
  166POPC   NC3 2354   9.527   6.992   3.910 -0.0295  0.2208 -0.0270
  166POPC   PO4 2355   9.146   7.006   4.236 -0.0478 -0.2819  0.3960
  166POPC   GL1 2356   9.113   6.828   4.694 -0.0261 -0.0112  0.1021
  166POPC   GL2 2357   9.202   6.430   4.813 -0.1609  0.1282 -0.2214
  166POPC   C1A 2358   9.255   6.804   5.178 -0.0216  0.0788 -0.1680
  166POPC   D2A 2359   9.557   6.924   5.498  0.2557  0.1013 -0.0189
  166POPC   C3A 2360   9.452   7.201   5.654 -0.0125  0.0194  0.0446
  166POPC   C4A 2361   9.380   7.342   6.178 -0.1487  0.1679  0.0323
  166POPC   C1B 2362   9.101   5.948   5.147 -0.1501 -0.1565 -0.0174
  166POPC   C2B 2363   8.849   5.732   5.429 -0.0321  0.2929  0.0172
  166POPC   C3B 2364   8.487   5.637   5.471  0.1231 -0.2231 -0.0244
  166POPC   C4B 2365   8.126   5.606   5.825  0.0339 -0.0834 -0.0417
  167POPC   NC3 2366   4.471   1.216   4.261 -0.1868  0.2506 -0.3902
  167POPC   PO4 2367   4.355   1.626   4.284  0.1417  0.0005 -0.1970
  167POPC   GL1 2368   4.300   1.806   4.634 -0.1148  0.2533 -0.2499
  167POPC   GL2 2369   4.073   1.895   4.698 -0.0748 -0.0994  0.0226
  167POPC   C1A 2370   4.444   1.774   5.020  0.2575 -0.4829  0.0056
  167POPC   D2A 2371   4.610   1.806   5.524  0.0841  0.1285 -0.0118
  167POPC   C3A 2372   4.565   1.875   5.902 -0.0260 -0.2329  0.0362
  167POPC   C4A 2373   4.490   1.967   6.357  0.2194  0.0009  0.1469
  167POPC   C1B 2374   3.923   2.074   5.084 -0.0357  0.0096 -0.2829
  167POPC   C2B 2375   3.849   2.210   5.467  0.0451 -0.0057  0.0259
  167POPC   C3B 2376   3.605   2.521   5.690  0.3035 -0.3222  0.1838
  167POPC   C4B 2377   3.255   2.763   5.673  0.0840  0.5608  0.4399
  168POPC   NC3 2378   8.588   0.288   4.503  0.1520 -0.0144 -0.1585
  168POPC   PO4 2379   8.288   0.609   4.247 -0.1130  0.0964 -0.1673
  168POPC   GL1 2380   8.045   0.605   4.603  0.4211 -0.0209 -0.1352
  168POPC   GL2 2381   8.314   0.870   4.737 -0.2168  0.0277 -0.2012
  168POPC   C1A 2382   7.995   0.522   4.935  0.0226  0.1079  0.2279
  168POPC   D2A 2383   8.332   0.221   5.245  0.0751  0.0950  0.1216
  168POPC   C3A 2384   8.524   0.531   5.579  0.1912 -0.1420  0.0985
  168POPC   C4A 2385   8.437   0.653   6.004  0.2815 -0.1835  0.2429
  168POPC   C1B 2386   8.733   1.153   4.712  0.3364  0.1337  0.1448
  168POPC   C2B 2387   8.929   1.513   4.613 -0.2361 -0.0008 -0.1016
  168POPC   C3B 2388   9.280   1.560   4.893  0.0019  0.1416  0.0545
  168POPC   C4B 2389   9.229   1.672   5.336  0.0219 -0.0272  0.0818
  169POPC   NC3 2390   7.783   8.583   4.226  0.0752 -0.0048  0.4237
  169POPC   PO4 2391   7.568   8.884   4.416  0.1913 -0.0797  0.2795
  169POPC   GL1 2392   7.582   8.801   4.850 -0.1203 -0.0780 -0.4402
  169POPC   GL2 2393   7.405   9.038   4.907  0.2004  0.0007  0.1488
  169POPC   C1A 2394   7.880   8.663   5.277 -0.2139  0.0589  0.0066
  169POPC   D2A 2395   8.092   8.623   5.722 -0.0487  0.0734  0.0666
  169POPC   C3A 2396   8.014   8.505   6.152  0.1711 -0.0537  0.0134
  169POPC   C4A 2397   7.725   8.464   6.461  0.0644  0.2579 -0.2374
  169POPC   C1B 2398   7.022   8.859   5.148  0.0597  0.2994  0.1877
  169POPC   C2B 2399   6.896   8.714   5.519 -0.3336  0.0126 -0.1114
  169POPC   C3B 2400   7.065   8.404   5.724 -0.0776  0.0595 -0.1536
  169POPC   C4B 2401   7.393   7.967   5.829 -0.2552 -0.1512 -0.0217
  170POPC   NC3 2402   2.985   3.480   3.999 -0.2823  0.1030 -0.3566
  170POPC   PO4 2403   2.727   3.177   4.202  0.1272 -0.0155  0.0213
  170POPC   GL1 2404   2.704   2.929   4.638  0.1429  0.2583  0.3895
  170POPC   GL2 2405   3.015   2.834   4.743  0.0561  0.2374 -0.0685
  170POPC   C1A 2406   2.552   2.909   5.076 -0.3009 -0.1822 -0.0651
  170POPC   D2A 2407   2.691   2.724   5.472 -0.3523  0.5657 -0.0165
  170POPC   C3A 2408   2.787   2.876   5.888 -0.0136 -0.0700 -0.2501
  170POPC   C4A 2409   3.038   3.103   6.269  0.0834  0.2626  0.1881
  170POPC   C1B 2410   3.179   3.072   5.122  0.0817  0.0549  0.1701
  170POPC   C2B 2411   2.981   3.157   5.470 -0.1636  0.0004  0.2523
  170POPC   C3B 2412   2.875   3.493   5.723 -0.1059  0.2749  0.0057
  170POPC   C4B 2413   2.904   3.668   6.188  0.3588 -0.2690  0.0559
  171POPC   NC3 2414   3.012   1.559   4.383 -0.0162 -0.0209  0.0098
  171POPC   PO4 2415   3.416   1.284   4.343  0.1903 -0.1912 -0.1985
  171POPC   GL1 2416   3.436   1.532   4.672 -0.0444 -0.0239 -0.0166
  171POPC   GL2 2417   3.655   1.743   4.843  0.0492 -0.3572 -0.0478
  171POPC   C1A 2418   3.148   1.610   5.071  0.0431 -0.3082  0.1439
  171POPC   D2A 2419   3.018   1.879   5.265 -0.1671 -0.0789  0.0746
  171POPC   C3A 2420   2.941   1.800   5.698 -0.1273  0.3031  0.0490
  171POPC   C4A 2421   2.946   1.498   5.989  0.0364 -0.1400 -0.1642
  171POPC   C1B 2422   3.465   2.058   5.097 -0.2665 -0.0972 -0.1061
  171POPC   C2B 2423   3.371   2.122   5.479 -0.0940 -0.1651  0.0297
  171POPC   C3B 2424   3.029   2.326   5.812  0.2198  0.1330  0.0931
  171POPC   C4B 2425   2.652   2.400   6.092 -0.0221  0.1595 -0.1377
  172POPC   NC3 2426   4.315   4.121   3.380  0.1253 -0.0692 -0.0424
  172POPC   PO4 2427   4.168   3.965   3.783  0.1090  0.0057 -0.1647
  172POPC   GL1 2428   4.246   4.046   4.225 -0.1092 -0.0556 -0.0998
  172POPC   GL2 2429   4.100   3.798   4.536 -0.2459  0.1473 -0.0008
  172POPC   C1A 2430   4.647   4.077   4.492 -0.0029  0.0742  0.1697
  172POPC   D2A 2431   4.816   4.085   4.862  0.0978 -0.2878 -0.0502
  172POPC   C3A 2432   5.277   4.360   4.924  0.0713  0.1710 -0.0095
  172POPC   C4A 2433   5.594   4.435   5.354 -0.3701 -0.0461  0.1630
  172POPC   C1B 2434   4.034   3.604   4.958 -0.1225 -0.0828  0.0153
  172POPC   C2B 2435   3.901   3.522   5.418  0.3426 -0.1518 -0.2231
  172POPC   C3B 2436   3.791   3.395   5.841  0.1033 -0.1617 -0.5160
  172POPC   C4B 2437   3.358   3.483   6.043 -0.0950  0.0277 -0.3893
  173POPC   NC3 2438   1.548   0.731   4.375 -0.1545 -0.2014  0.2243
  173POPC   PO4 2439   1.152   0.655   4.234 -0.3211  0.2157  0.2075
  173POPC   GL1 2440   0.930   0.718   4.663 -0.0345  0.2315 -0.0967
  173POPC   GL2 2441   1.135   0.528   4.845  0.3948  0.0370 -0.3055
  173POPC   C1A 2442   0.591   0.677   5.060 -0.3194  0.1617  0.1744
  173POPC   D2A 2443   0.329   0.449   5.272  0.1334  0.0982  0.0240
  173POPC   C3A 2444  -0.134   0.407   5.361  0.1355  0.0227  0.0564
  173POPC   C4A 2445  -0.390   0.675   5.547 -0.2142 -0.1123  0.0861
  173POPC   C1B 2446   1.174   0.866   5.092  0.0555 -0.1375  0.0709
  173POPC   C2B 2447   1.164   0.785   5.595  0.3666  0.0129 -0.0599
  173POPC   C3B 2448   1.028   0.733   6.043  0.0970  0.3034 -0.2176
  173POPC   C4B 2449   1.172   0.553   6.615 -0.0207  0.1607 -0.2789
  174POPC   NC3 2450   2.234   7.747   3.779  0.1266  0.0474  0.4390
  174POPC   PO4 2451   1.815   7.872   3.897 -0.2164 -0.0398 -0.1045
  174POPC   GL1 2452   2.068   7.667   4.270  0.2484 -0.2418 -0.0189
  174POPC   GL2 2453   2.367   7.524   4.208  0.0752  0.3365  0.0159
  174POPC   C1A 2454   2.249   7.614   4.793 -0.2809 -0.1099 -0.1546
  174POPC   D2A 2455   1.970   7.593   5.158 -0.0450  0.0055 -0.1470
  174POPC   C3A 2456   2.001   7.178   5.525  0.0841  0.1594 -0.0132
  174POPC   C4A 2457   2.222   7.102   5.808  0.0780  0.1517  0.0316
  174POPC   C1B 2458   2.250   7.221   4.538  0.0319  0.0778 -0.1108
  174POPC   C2B 2459   2.102   6.807   4.642 -0.0041  0.0362  0.0027
  174POPC   C3B 2460   1.877   6.436   4.925 -0.2373  0.2911  0.1005
  174POPC   C4B 2461   1.555   6.371   5.115 -0.0092 -0.0097 -0.3877
  175POPC   NC3 2462   1.746   0.948   3.928  0.1678  0.0824 -0.0963
  175POPC   PO4 2463   1.989   1.083   4.217 -0.0957 -0.0448  0.2208
  175POPC   GL1 2464   1.791   1.072   4.629 -0.0511 -0.1139 -0.0743
  175POPC   GL2 2465   1.855   1.392   4.714 -0.0853 -0.0049  0.0966
  175POPC   C1A 2466   1.691   1.077   5.061  0.0552  0.1977 -0.0800
  175POPC   D2A 2467   1.834   1.043   5.480 -0.0870  0.3329 -0.1350
  175POPC   C3A 2468   1.667   0.724   5.569  0.0301  0.0424  0.1367
  175POPC   C4A 2469   1.457   0.393   5.272  0.0641  0.0554  0.0655
  175POPC   C1B 2470   2.112   1.621   5.047  0.2380 -0.1972 -0.0623
  175POPC   C2B 2471   2.321   1.733   5.279  0.0686 -0.2563  0.0499
  175POPC   C3B 2472   2.443   1.691   5.767  0.2008  0.2466  0.0114
  175POPC   C4B 2473   2.466   1.924   6.140 -0.1259  0.1934  0.0843
  176POPC   NC3 2474   2.105   9.440   4.309 -0.2725 -0.0809  0.1323
  176POPC   PO4 2475   1.699   9.583   4.327 -0.1383 -0.2294 -0.0299
  176POPC   GL1 2476   1.737   9.519   4.846  0.0454  0.0460  0.0799
  176POPC   GL2 2477   2.086   9.356   4.923  0.0166 -0.2129  0.2808
  176POPC   C1A 2478   1.529   9.589   5.224 -0.4196 -0.0536 -0.2340
  176POPC   D2A 2479   1.117   9.681   5.514 -0.1527 -0.0738  0.3633
  176POPC   C3A 2480   1.170   9.997   5.856 -0.0239  0.3288 -0.0868
  176POPC   C4A 2481   1.406  10.122   6.177  0.1396  0.2102 -0.0339
  176POPC   C1B 2482   2.233   9.097   5.329 -0.1288 -0.2154  0.1861
  176POPC   C2B 2483   2.243   9.112   5.720 -0.0637 -0.0299 -0.0202
  176POPC   C3B 2484   2.471   9.223   6.144 -0.0457  0.0872  0.3191
  176POPC   C4B 2485   2.696   9.617   6.368 -0.4449 -0.0690 -0.0396
  177POPC   NC3 2486   5.086   3.507   3.807 -0.1787  0.0347 -0.1917
  177POPC   PO4 2487   4.662   3.319   3.983 -0.1571  0.0663  0.0398
  177POPC   GL1 2488   4.686   3.166   4.478 -0.2563  0.0330  0.0998
  177POPC   GL2 2489   4.933   2.970   4.601 -0.0424  0.0584 -0.0135
  177POPC   C1A 2490   4.416   3.252   4.797 -0.1118 -0.1208 -0.2201
  177POPC   D2A 2491   4.357   3.207   5.172 -0.0606  0.1274 -0.0274
  177POPC   C3A 2492   4.384   3.406   5.562 -0.3865 -0.1693 -0.0782
  177POPC   C4A 2493   4.341   3.624   5.905 -0.0806  0.4426  0.0278
  177POPC   C1B 2494   4.894   2.644   4.957  0.0018 -0.0464  0.0308
  177POPC   C2B 2495   4.591   2.664   5.222  0.0180 -0.2126 -0.1222
  177POPC   C3B 2496   4.214   2.784   5.417  0.1014  0.0362 -0.0907
  177POPC   C4B 2497   4.097   3.055   5.729 -0.0602  0.0492  0.0048
  178POPC   NC3 2498   9.399   5.659   4.091 -0.0871  0.2766  0.1091
  178POPC   PO4 2499   9.444   5.150   4.238 -0.0384  0.0636 -0.0481
  178POPC   GL1 2500   9.374   5.141   4.625 -0.0119 -0.2760 -0.1761
  178POPC   GL2 2501   9.350   4.854   4.664  0.0853  0.1902  0.1398
  178POPC   C1A 2502   9.588   5.160   5.014 -0.0287  0.2328 -0.1989
  178POPC   D2A 2503   9.562   5.031   5.417 -0.2367  0.2985 -0.0149
  178POPC   C3A 2504   9.639   5.338   5.729  0.0800 -0.0058  0.0382
  178POPC   C4A 2505   9.888   5.599   5.915  0.1803  0.1194  0.1162
  178POPC   C1B 2506   9.439   4.666   5.024  0.0806 -0.0633  0.3228
  178POPC   C2B 2507   9.361   4.417   5.323 -0.0907  0.0989 -0.1442
  178POPC   C3B 2508   9.673   4.460   5.623  0.0774 -0.1883  0.2002
  178POPC   C4B 2509   9.758   4.469   6.056  0.0816 -0.2815  0.0482
  179POPC   NC3 2510   0.252   0.596   3.819 -0.1654 -0.0973  0.1757
  179POPC   PO4 2511   0.095   0.671   4.225  0.1978  0.4498 -0.0020
  179POPC   GL1 2512   0.266   0.488   4.636 -0.1347 -0.0143  0.1717
  179POPC   GL2 2513  -0.010   0.328   4.891  0.1253  0.0318  0.3942
  179POPC   C1A 2514   0.551   0.203   4.898 -0.1329  0.5086  0.1886
  179POPC   D2A 2515   0.541  -0.014   5.335  0.3562  0.0391  0.1728
  179POPC   C3A 2516   0.705   0.279   5.640 -0.3618  0.1207 -0.0651
  179POPC   C4A 2517   0.543   0.365   6.043 -0.0289 -0.1564  0.1750
  179POPC   C1B 2518  -0.016  -0.026   5.121  0.0603 -0.0133 -0.1895
  179POPC   C2B 2519   0.153  -0.245   5.506  0.3049 -0.0056  0.0113
  179POPC   C3B 2520   0.198  -0.580   5.890  0.0240  0.2392 -0.0426
  179POPC   C4B 2521  -0.003  -0.835   6.042 -0.0234 -0.2304  0.4127
  180POPC   NC3 2522   7.229   1.590   3.989  0.1825 -0.0139 -0.0279
  180POPC   PO4 2523   7.133   1.551   4.449  0.3975 -0.0308 -0.0278
  180POPC   GL1 2524   6.952   1.875   4.711 -0.1219  0.0783 -0.0336
  180POPC   GL2 2525   7.009   2.191   4.570 -0.0998 -0.1711  0.0578
  180POPC   C1A 2526   6.723   1.725   5.066 -0.0232 -0.1298  0.0519
  180POPC   D2A 2527   6.569   1.502   5.361 -0.1775  0.0858  0.0032
  180POPC   C3A 2528   6.426   1.556   5.767 -0.0137 -0.1404 -0.0172
  180POPC   C4A 2529   6.663   1.477   6.219  0.0863  0.0702 -0.0443
  180POPC   C1B 2530   6.756   2.206   5.041  0.1097 -0.0636 -0.3434
  180POPC   C2B 2531   6.875   2.396   5.470 -0.0653  0.1198  0.0100
  180POPC   C3B 2532   6.926   2.397   5.896 -0.1860 -0.1225 -0.1210
  180POPC   C4B 2533   7.123   2.411   6.363  0.1769  0.0281 -0.0513
  181POPC   NC3 2534   9.308   8.209   4.263 -0.0577  0.1597 -0.0301
  181POPC   PO4 2535   9.568   8.516   4.424 -0.0404  0.0028 -0.0767
  181POPC   GL1 2536   9.453   8.426   4.983  0.0761 -0.2802  0.0285
  181POPC   GL2 2537   9.564   8.175   5.223 -0.0474 -0.1619 -0.0846
  181POPC   C1A 2538   9.066   8.357   5.178  0.4203  0.0193 -0.0739
  181POPC   D2A 2539   8.743   8.045   5.177 -0.0415  0.3225 -0.0951
  181POPC   C3A 2540   8.722   7.912   5.524 -0.0307 -0.0985  0.2904
  181POPC   C4A 2541   8.791   7.871   5.972  0.0756  0.1587  0.2662
  181POPC   C1B 2542   9.662   8.286   5.692 -0.0367  0.0025 -0.0222
  181POPC   C2B 2543  10.132   8.427   5.790  0.1203 -0.1463  0.1584
  181POPC   C3B 2544  10.480   8.359   5.985  0.1759  0.3318 -0.0108
  181POPC   C4B 2545  10.938   8.343   6.100  0.4008  0.0356  0.0457
  182POPC   NC3 2546   7.598   7.837   4.857  0.2781 -0.2718  0.1308
  182POPC   PO4 2547   7.168   7.817   4.678  0.1673  0.2067 -0.1058
  182POPC   GL1 2548   6.757   7.843   5.001 -0.0839  0.1233  0.2125
  182POPC   GL2 2549   6.437   8.014   4.911 -0.1692  0.1421  0.0400
  182POPC   C1A 2550   6.620   7.683   5.345 -0.0936  0.0385 -0.3462
  182POPC   D2A 2551   6.394   7.380   5.590 -0.0938  0.1021  0.1928
  182POPC   C3A 2552   6.555   7.262   5.924 -0.0850 -0.1647  0.1636
  182POPC   C4A 2553   6.648   7.222   6.304  0.2139  0.0460  0.4433
  182POPC   C1B 2554   6.307   8.045   5.271 -0.0152  0.1732  0.0660
  182POPC   C2B 2555   6.134   7.805   5.568 -0.2606 -0.1935 -0.0915
  182POPC   C3B 2556   5.793   7.838   5.973  0.0339  0.1006  0.2477
  182POPC   C4B 2557   5.433   7.961   6.093 -0.1136  0.3449 -0.1882
  183POPC   NC3 2558   1.823   4.361   4.092 -0.1940  0.2350  0.3591
  183POPC   PO4 2559   2.050   4.836   3.927  0.0166 -0.1968  0.0723
  183POPC   GL1 2560   2.091   5.211   4.175  0.2075  0.0425 -0.2964
  183POPC   GL2 2561   2.297   5.391   4.205 -0.0794 -0.1167 -0.1355
  183POPC   C1A 2562   2.202   5.234   4.683 -0.0713 -0.2179 -0.2489
  183POPC   D2A 2563   2.205   5.498   4.994 -0.1110 -0.1781  0.0939
  183POPC   C3A 2564   2.584   5.495   5.198 -0.1989 -0.0971  0.3814
  183POPC   C4A 2565   2.973   5.768   5.247  0.0705  0.1284  0.2709
  183POPC   C1B 2566   2.006   5.666   4.531  0.3008 -0.0106  0.0877
  183POPC   C2B 2567   2.051   5.981   4.822 -0.0865  0.4498  0.3533
  183POPC   C3B 2568   2.230   6.183   5.161  0.0373  0.0983 -0.4276
  183POPC   C4B 2569   2.427   5.899   5.371 -0.2423  0.0975  0.1114
  184POPC   NC3 2570   9.570   1.115   4.252 -0.0614 -0.1050 -0.1667
  184POPC   PO4 2571   9.736   1.367   4.490 -0.2043  0.0754 -0.1188
  184POPC   GL1 2572   9.879   1.596   4.766  0.2092  0.2255 -0.1073
  184POPC   GL2 2573  10.112   1.432   4.806 -0.2693 -0.1996 -0.1477
  184POPC   C1A 2574   9.702   1.795   5.065 -0.1376  0.0873  0.2179
  184POPC   D2A 2575   9.677   1.880   5.541 -0.1471 -0.0710 -0.1632
  184POPC   C3A 2576   9.456   1.647   5.826 -0.0569  0.1591  0.1275
  184POPC   C4A 2577   9.355   1.779   6.183 -0.0391  0.1638  0.0810
  184POPC   C1B 2578  10.111   1.368   5.237  0.1113  0.2599 -0.0086
  184POPC   C2B 2579   9.668   1.347   5.495  0.1327 -0.0742  0.0528
  184POPC   C3B 2580   9.689   1.184   5.845 -0.2229 -0.0310 -0.1409
  184POPC   C4B 2581   9.517   0.793   6.043 -0.2581 -0.1049  0.0238
  185POPC   NC3 2582   3.001   1.463   3.910  0.2270 -0.0980  0.0236
  185POPC   PO4 2583   2.581   1.370   4.017 -0.1760  0.1478  0.5085
  185POPC   GL1 2584   2.498   1.366   4.572 -0.1755  0.1381  0.2161
  185POPC   GL2 2585   2.293   1.088   4.671  0.0957  0.0363  0.4431
  185POPC   C1A 2586   2.699   1.252   4.954  0.3985 -0.1021 -0.0135
  185POPC   D2A 2587   3.054   1.073   5.157 -0.2225  0.0916 -0.0362
  185POPC   C3A 2588   3.224   0.856   5.571 -0.1766 -0.1272 -0.1733
  185POPC   C4A 2589   3.237   0.648   5.931  0.2965  0.1030  0.2299
  185POPC   C1B 2590   2.253   1.152   5.085  0.2073  0.3365 -0.2864
  185POPC   C2B 2591   2.299   1.268   5.506  0.0455 -0.1654 -0.2549
  185POPC   C3B 2592   2.144   1.292   5.922  0.3726  0.0905 -0.1736
  185POPC   C4B 2593   2.329   1.473   6.271  0.1079  0.0137 -0.1743
  186POPC   NC3 2594   0.362   3.235   4.130 -0.1433 -0.2174 -0.3516
  186POPC   PO4 2595   0.725   2.976   4.383 -0.0087 -0.3739  0.0013
  186POPC   GL1 2596   0.740   2.877   4.697  0.1593  0.2827 -0.4236
  186POPC   GL2 2597   0.417   2.735   4.700 -0.2964  0.1874 -0.4068
  186POPC   C1A 2598   0.639   2.778   5.148  0.2232  0.1035  0.1842
  186POPC   D2A 2599   0.397   2.595   5.421 -0.1820 -0.2138 -0.2255
  186POPC   C3A 2600   0.383   2.264   5.610 -0.0237  0.3009  0.2157
  186POPC   C4A 2601   0.486   2.050   6.013 -0.0593 -0.1075  0.3099
  186POPC   C1B 2602   0.091   2.762   5.037  0.0450 -0.1711  0.2579
  186POPC   C2B 2603  -0.285   2.631   5.212 -0.0460 -0.0463  0.0414
  186POPC   C3B 2604  -0.543   2.631   5.609  0.0264  0.1019  0.1679
  186POPC   C4B 2605  -0.506   2.677   6.013 -0.0920 -0.1813 -0.1361
  187POPC   NC3 2606   8.843   3.537   3.758 -0.0945  0.1638 -0.1321
  187POPC   PO4 2607   8.275   3.540   3.889 -0.1688 -0.0746 -0.2315
  187POPC   GL1 2608   8.372   3.628   4.332 -0.2350 -0.3340 -0.0451
  187POPC   GL2 2609   8.688   3.697   4.510  0.1564 -0.0369  0.1814
  187POPC   C1A 2610   8.132   3.573   4.803  0.2779 -0.1556  0.3836
  187POPC   D2A 2611   7.842   3.339   5.008 -0.0493 -0.1187 -0.1756
  187POPC   C3A 2612   7.961   2.971   5.206 -0.2540 -0.2768  0.0809
  187POPC   C4A 2613   8.188   3.089   5.601 -0.1373  0.3276  0.4385
  187POPC   C1B 2614   8.671   3.722   4.928  0.2946  0.1334  0.0111
  187POPC   C2B 2615   8.550   3.746   5.282  0.2034  0.0094  0.4174
  187POPC   C3B 2616   8.345   3.847   5.649  0.1261 -0.2129  0.3435
  187POPC   C4B 2617   7.909   3.852   5.787  0.1924 -0.2053  0.1227
  188POPC   NC3 2618   3.090   4.194   3.556  0.1823 -0.0834  0.2352
  188POPC   PO4 2619   3.083   3.952   3.871 -0.4414  0.1911  0.2301
  188POPC   GL1 2620   3.095   3.918   4.364  0.0347 -0.3341  0.2265
  188POPC   GL2 2621   3.185   4.156   4.470 -0.3191 -0.0136  0.4226
  188POPC   C1A 2622   3.175   3.850   4.843 -0.0524  0.3103 -0.1092
  188POPC   D2A 2623   2.994   3.790   5.300  0.1412  0.2902 -0.0289
  188POPC   C3A 2624   2.976   4.109   5.611  0.2280  0.0807 -0.4831
  188POPC   C4A 2625   2.950   4.558   5.713  0.0917  0.2713  0.1067
  188POPC   C1B 2626   3.357   4.405   4.839 -0.1329 -0.0909  0.1156
  188POPC   C2B 2627   3.691   4.540   5.141 -0.1691  0.0351 -0.4469
  188POPC   C3B 2628   3.919   4.312   5.437  0.2522  0.0621 -0.1947
  188POPC   C4B 2629   4.325   4.271   5.766  0.2304 -0.0121 -0.1417
  189POPC   NC3 2630   8.539   1.819   3.854 -0.0687 -0.3902 -0.0564
  189POPC   PO4 2631   8.932   1.651   3.872  0.3055 -0.0851  0.0628
  189POPC   GL1 2632   8.765   1.884   4.260 -0.3534 -0.1558  0.0648
  189POPC   GL2 2633   8.655   2.257   4.357 -0.2297 -0.0815 -0.0258
  189POPC   C1A 2634   8.958   1.971   4.676  0.1673  0.0819  0.4626
  189POPC   D2A 2635   9.324   2.169   4.851  0.0852  0.4796 -0.1677
  189POPC   C3A 2636   9.313   2.147   5.430  0.1165 -0.1207  0.2436
  189POPC   C4A 2637   9.433   2.141   5.840  0.0255 -0.4006 -0.1542
  189POPC   C1B 2638   8.616   2.363   4.784  0.2173  0.0502  0.0446
  189POPC   C2B 2639   8.336   2.650   5.099 -0.4052  0.0096  0.2422
  189POPC   C3B 2640   8.237   2.582   5.564 -0.2156 -0.2010  0.1621
  189POPC   C4B 2641   7.918   2.812   5.909 -0.1871  0.2328 -0.3187
  190POPC   NC3 2642   7.323   3.025   4.210  0.0847 -0.3776 -0.0377
  190POPC   PO4 2643   7.613   3.262   4.167  0.1212 -0.1192  0.3636
  190POPC   GL1 2644   7.706   3.241   4.563  0.1628  0.2330  0.2606
  190POPC   GL2 2645   7.418   3.347   4.737 -0.1197  0.1181  0.2107
  190POPC   C1A 2646   7.867   2.912   4.722  0.1464 -0.0915  0.3842
  190POPC   D2A 2647   7.941   2.555   4.852 -0.1398  0.1144  0.0444
  190POPC   C3A 2648   7.887   2.456   5.300  0.0239  0.3195  0.2411
  190POPC   C4A 2649   7.778   2.333   5.729  0.1480  0.1414 -0.1401
  190POPC   C1B 2650   7.158   3.301   5.043 -0.0307  0.1574  0.1667
  190POPC   C2B 2651   7.151   3.396   5.409  0.1149  0.0262 -0.2271
  190POPC   C3B 2652   6.991   3.783   5.361  0.0880 -0.1882 -0.0982
  190POPC   C4B 2653   6.517   3.815   5.283 -0.1339 -0.2410  0.0142
  191POPC   NC3 2654   6.955   3.829   4.042 -0.1273 -0.1712 -0.0568
  191POPC   PO4 2655   6.661   3.820   4.361  0.1353 -0.1477  0.0543
  191POPC   GL1 2656   6.380   3.966   4.681  0.0100  0.0633  0.0054
  191POPC   GL2 2657   6.072   3.974   4.720  0.1643  0.1832  0.1797
  191POPC   C1A 2658   6.321   4.268   5.077 -0.1396  0.0942  0.3871
  191POPC   D2A 2659   6.083   4.592   5.313 -0.0519  0.2286  0.1199
  191POPC   C3A 2660   6.214   4.634   5.669  0.1450 -0.0223 -0.1136
  191POPC   C4A 2661   6.639   4.627   5.790  0.0770 -0.1066 -0.2968
  191POPC   C1B 2662   5.746   4.202   4.991 -0.4519  0.0060  0.1733
  191POPC   C2B 2663   5.683   4.598   4.856  0.3013 -0.1845 -0.1123
  191POPC   C3B 2664   5.736   5.158   4.750 -0.0039  0.2304 -0.4576
  191POPC   C4B 2665   5.479   5.381   4.429 -0.2142  0.3065  0.1978
  192POPC   NC3 2666   6.022   5.570   3.684 -0.4233  0.2227 -0.2438
  192POPC   PO4 2667   5.594   5.718   3.683  0.1213  0.0265 -0.0892
  192POPC   GL1 2668   5.308   5.945   3.852 -0.0157 -0.0309 -0.1279
  192POPC   GL2 2669   5.251   6.265   3.933  0.1325  0.1488 -0.1075
  192POPC   C1A 2670   4.901   6.019   4.209 -0.0067  0.3842  0.3548
  192POPC   D2A 2671   4.471   6.207   4.163 -0.2312  0.3490  0.5689
  192POPC   C3A 2672   4.147   5.988   4.383 -0.1825 -0.1300  0.1834
  192POPC   C4A 2673   3.796   5.713   4.461 -0.0281 -0.2667  0.1273
  192POPC   C1B 2674   5.495   6.309   4.260  0.1728 -0.1240  0.0201
  192POPC   C2B 2675   5.504   6.302   4.705 -0.0213  0.0984 -0.0660
  192POPC   C3B 2676   5.694   6.181   5.067  0.2849 -0.3894  0.3070
  192POPC   C4B 2677   5.705   5.963   5.309  0.0162 -0.1119  0.4012
  193POPC   NC3 2678   8.351   1.073   4.154 -0.0023 -0.2833 -0.3945
  193POPC   PO4 2679   7.956   1.166   4.471  0.2180  0.0151 -0.0908
  193POPC   GL1 2680   7.694   1.226   4.770  0.2992  0.1034  0.1668
  193POPC   GL2 2681   7.719   0.906   4.822 -0.0320 -0.5189 -0.3097
  193POPC   C1A 2682   7.638   1.531   5.171  0.0960 -0.1853  0.0297
  193POPC   D2A 2683   7.706   1.993   5.282  0.1351 -0.0180 -0.0829
  193POPC   C3A 2684   8.001   1.930   5.557 -0.3378 -0.1962  0.1421
  193POPC   C4A 2685   8.382   2.078   5.708  0.0131  0.2091 -0.0436
  193POPC   C1B 2686   8.004   1.093   5.111 -0.1597 -0.2288  0.1345
  193POPC   C2B 2687   8.395   1.062   5.258 -0.1976 -0.2376  0.0614
  193POPC   C3B 2688   8.644   0.718   5.058  0.4171  0.0808 -0.1300
  193POPC   C4B 2689   8.891   0.394   5.106 -0.0786  0.0560  0.1297
  194POPC   NC3 2690   6.742   7.647   4.388 -0.0848  0.1495  0.2104
  194POPC   PO4 2691   6.748   8.138   4.467  0.0815 -0.2196 -0.0866
  194POPC   GL1 2692   7.047   8.370   4.804  0.0452 -0.0986  0.0085
  194POPC   GL2 2693   7.445   8.320   4.853  0.0541  0.0236  0.0700
  194POPC   C1A 2694   7.158   8.143   5.227 -0.2536  0.1967  0.1447
  194POPC   D2A 2695   7.529   8.010   5.293 -0.1366  0.0322 -0.1880
  194POPC   C3A 2696   7.736   8.292   5.598 -0.3188 -0.0571  0.3525
  194POPC   C4A 2697   7.519   8.549   5.914 -0.1091  0.1344  0.0384
  194POPC   C1B 2698   7.442   8.510   5.225 -0.0410 -0.0282  0.0759
  194POPC   C2B 2699   7.441   8.821   5.534  0.2287  0.0794  0.1232
  194POPC   C3B 2700   7.359   9.172   5.686  0.1363  0.0522  0.2784
  194POPC   C4B 2701   7.072   9.393   5.742  0.0357 -0.1049  0.2762
  195POPC   NC3 2702   1.214   7.194   4.395  0.0707  0.0125  0.2487
  195POPC   PO4 2703   1.509   6.933   4.097  0.2314  0.1701 -0.0317
  195POPC   GL1 2704   1.497   6.822   4.575 -0.3109  0.1076  0.2153
  195POPC   GL2 2705   1.231   6.810   4.813 -0.0243 -0.1463 -0.2887
  195POPC   C1A 2706   1.693   6.867   5.014 -0.1987  0.1254  0.0350
  195POPC   D2A 2707   1.826   6.692   5.415 -0.0959 -0.0319  0.1474
  195POPC   C3A 2708   1.861   6.204   5.527  0.0806 -0.1192 -0.0380
  195POPC   C4A 2709   1.940   5.821   5.377 -0.3072 -0.1372 -0.3610
  195POPC   C1B 2710   1.268   6.839   5.248 -0.2675 -0.0390 -0.4248
  195POPC   C2B 2711   1.532   7.066   5.660 -0.0443  0.1186  0.3013
  195POPC   C3B 2712   1.736   6.959   5.973 -0.1087 -0.1143 -0.0321
  195POPC   C4B 2713   2.003   6.827   6.374 -0.2512  0.0089 -0.0955
  196POPC   NC3 2714   6.490   2.073   4.516 -0.1876 -0.0141 -0.0814
  196POPC   PO4 2715   6.712   2.454   4.210 -0.2483 -0.0725 -0.1937
  196POPC   GL1 2716   6.594   2.562   4.692 -0.0850  0.2854  0.0346
  196POPC   GL2 2717   6.323   2.498   4.874  0.0054 -0.0112 -0.1376
  196POPC   C1A 2718   6.746   2.774   4.972  0.0975 -0.0392 -0.0945
  196POPC   D2A 2719   7.044   2.819   5.232  0.1240 -0.1514  0.1948
  196POPC   C3A 2720   7.060   3.017   5.691  0.2654  0.2621  0.3010
  196POPC   C4A 2721   6.932   2.898   6.120 -0.0756  0.0949  0.1365
  196POPC   C1B 2722   6.304   2.400   5.310  0.0273  0.2913  0.0111
  196POPC   C2B 2723   6.483   2.043   5.446  0.0251  0.2118  0.1408
  196POPC   C3B 2724   6.852   1.870   5.662  0.2260 -0.1159  0.0359
  196POPC   C4B 2725   6.955   1.903   6.049  0.1762 -0.0316 -0.0062
  197POPC   NC3 2726   8.633   5.305   4.682 -0.0566  0.1214 -0.0855
  197POPC   PO4 2727   9.093   5.565   4.567  0.1998 -0.0685  0.0557
  197POPC   GL1 2728   9.010   5.443   4.979 -0.1085 -0.0556 -0.2041
  197POPC   GL2 2729   8.988   5.119   5.018  0.1914  0.0468 -0.1257
  197POPC   C1A 2730   9.193   5.345   5.448 -0.1006  0.0572  0.0705
  197POPC   D2A 2731   9.022   5.383   5.840 -0.1690  0.0533  0.0855
  197POPC   C3A 2732   8.921   4.954   5.928  0.0262  0.0798 -0.0812
  197POPC   C4A 2733   8.794   4.726   6.221  0.2114 -0.2703  0.0456
  197POPC   C1B 2734   8.728   5.156   5.402  0.0249  0.2394  0.1444
  197POPC   C2B 2735   8.533   5.250   5.847 -0.1611  0.0658  0.0567
  197POPC   C3B 2736   8.547   5.334   6.296  0.1645 -0.0809 -0.0495
  197POPC   C4B 2737   8.869   5.120   6.443  0.0675  0.0617 -0.1420
  198POPC   NC3 2738   6.921   8.730   4.382 -0.3385 -0.1597 -0.1761
  198POPC   PO4 2739   7.099   9.146   4.522 -0.0278 -0.1658  0.0371
  198POPC   GL1 2740   7.249   9.580   4.814  0.0840  0.3352 -0.2197
  198POPC   GL2 2741   7.059   9.486   5.083 -0.0630 -0.0743 -0.0966
  198POPC   C1A 2742   7.256   9.920   5.156 -0.0925  0.2610  0.1984
  198POPC   D2A 2743   7.204  10.299   5.424  0.0862  0.1451  0.2063
  198POPC   C3A 2744   7.078  10.437   5.861  0.3399  0.0595 -0.0910
  198POPC   C4A 2745   6.935  10.708   6.135  0.2581 -0.5202  0.1154
  198POPC   C1B 2746   7.423   9.473   5.252 -0.2416  0.1402 -0.1226
  198POPC   C2B 2747   7.506   9.687   5.695  0.0209 -0.2987 -0.0820
  198POPC   C3B 2748   7.186   9.948   5.923 -0.2655  0.0747  0.1096
  198POPC   C4B 2749   6.934   9.797   6.288  0.1547 -0.1134  0.3100
  199POPC   NC3 2750   5.269   2.375   3.948  0.0896  0.2590 -0.1623
  199POPC   PO4 2751   5.581   2.399   4.166  0.0243 -0.0130 -0.0407
  199POPC   GL1 2752   5.626   2.295   4.653 -0.0266 -0.0703 -0.0265
  199POPC   GL2 2753   5.743   2.627   4.728  0.1076  0.1651  0.0847
  199POPC   C1A 2754   5.338   2.276   5.026 -0.0200 -0.1661 -0.2971
  199POPC   D2A 2755   5.434   2.348   5.489  0.0564  0.1554  0.0279
  199POPC   C3A 2756   5.052   2.645   5.425 -0.0796  0.0116 -0.0914
  199POPC   C4A 2757   4.728   2.956   5.630 -0.2860 -0.0809  0.0549
  199POPC   C1B 2758   5.847   2.703   5.176 -0.2184  0.3540  0.1775
  199POPC   C2B 2759   6.016   2.833   5.552  0.3088  0.0660  0.1733
  199POPC   C3B 2760   6.089   2.862   6.016 -0.1770  0.0870  0.3058
  199POPC   C4B 2761   6.047   2.774   6.393  0.1353  0.1608 -0.0222
  200POPC   NC3 2762   8.707   3.147   4.090  0.2047 -0.0251 -0.0459
  200POPC   PO4 2763   9.178   3.120   3.918 -0.0416 -0.1208 -0.1603
  200POPC   GL1 2764   9.141   3.088   4.374 -0.1029  0.1670  0.2557
  200POPC   GL2 2765   9.366   2.934   4.668  0.6415  0.3406 -0.1814
  200POPC   C1A 2766   8.984   3.337   4.772  0.1673  0.4924  0.3376
  200POPC   D2A 2767   8.890   3.375   5.201  0.1866  0.3567  0.2531
  200POPC   C3A 2768   8.716   3.392   5.618  0.1802 -0.0814 -0.1764
  200POPC   C4A 2769   8.456   3.424   5.815 -0.4112 -0.1441 -0.4728
  200POPC   C1B 2770   9.302   3.074   5.028 -0.0829  0.1130  0.1561
  200POPC   C2B 2771   9.224   3.189   5.478  0.3816  0.1573  0.1431
  200POPC   C3B 2772   9.041   3.162   5.919 -0.0463  0.2389 -0.0751
  200POPC   C4B 2773   8.778   3.222   6.237  0.0828  0.1730 -0.2372
  201POPC   NC3 2774   5.247   6.900   3.398 -0.1455  0.0102  0.5565
  201POPC   PO4 2775   5.045   6.579   3.452  0.0195 -0.1690 -0.4092
  201POPC   GL1 2776   4.636   6.491   3.643 -0.0495 -0.1469 -0.1036
  201POPC   GL2 2777   4.469   6.116   3.658 -0.1541 -0.0160 -0.0705
  201POPC   C1A 2778   4.378   6.833   3.705 -0.1956  0.0233 -0.0155
  201POPC   D2A 2779   4.117   7.102   3.711 -0.0344  0.1230 -0.1512
  201POPC   C3A 2780   4.264   7.420   3.934  0.1111  0.1197 -0.1612
  201POPC   C4A 2781   4.160   7.817   4.037  0.1843  0.1753 -0.1573
  201POPC   C1B 2782   4.337   5.755   3.886  0.0530 -0.2653 -0.1722
  201POPC   C2B 2783   4.148   5.382   4.073  0.2923  0.0268  0.2897
  201POPC   C3B 2784   4.353   4.881   4.183 -0.1382 -0.0610  0.1039
  201POPC   C4B 2785   4.432   4.513   4.271 -0.2064  0.1775  0.2257
  202POPC   NC3 2786   3.215   9.264   4.490 -0.0420  0.0965  0.3745
  202POPC   PO4 2787   3.534   9.078   4.205  0.1529  0.1741  0.1849
  202POPC   GL1 2788   3.493   8.846   4.563 -0.0864  0.1140  0.1274
  202POPC   GL2 2789   3.256   8.766   4.664 -0.1734  0.0363 -0.0054
  202POPC   C1A 2790   3.614   8.807   5.025 -0.4938 -0.2637  0.0631
  202POPC   D2A 2791   3.965   8.588   5.177  0.1212 -0.1666  0.0794
  202POPC   C3A 2792   4.353   8.614   5.431  0.0523 -0.0056  0.0711
  202POPC   C4A 2793   4.739   8.461   5.216 -0.1356  0.0944  0.1690
  202POPC   C1B 2794   3.244   8.308   4.928  0.1471  0.3133  0.3069
  202POPC   C2B 2795   3.314   7.947   5.264  0.2238  0.1468 -0.0191
  202POPC   C3B 2796   3.192   7.843   5.721 -0.1419  0.2491  0.1853
  202POPC   C4B 2797   3.353   7.991   6.046 -0.2094  0.4621 -0.2376
  203POPC   NC3 2798   0.784   8.626   4.081 -0.0425 -0.0921 -0.0427
  203POPC   PO4 2799   0.682   8.555   4.456 -0.1575 -0.1798 -0.0556
  203POPC   GL1 2800   0.854   8.265   4.763  0.2373 -0.0849 -0.0246
  203POPC   GL2 2801   0.776   8.244   5.183 -0.1800  0.1146 -0.2230
  203POPC   C1A 2802   1.068   7.853   4.748 -0.0808 -0.1290  0.2513
  203POPC   D2A 2803   1.191   7.416   4.839  0.0333  0.1080 -0.0099
  203POPC   C3A 2804   1.459   7.412   5.254 -0.1424 -0.3651  0.0049
  203POPC   C4A 2805   1.657   7.551   5.660 -0.1061  0.0568 -0.1948
  203POPC   C1B 2806   0.663   8.002   5.610  0.1508  0.0627  0.1730
  203POPC   C2B 2807   0.265   7.885   5.650 -0.0611 -0.0164  0.0842
  203POPC   C3B 2808  -0.106   7.808   5.928  0.1777  0.0503 -0.0805
  203POPC   C4B 2809  -0.468   8.056   5.979  0.3069 -0.2786  0.3606
  204POPC   NC3 2810   8.118   8.967   4.229  0.0021  0.2153  0.1448
  204POPC   PO4 2811   8.650   8.907   4.251 -0.0721  0.0053 -0.4976
  204POPC   GL1 2812   8.402   8.988   4.619  0.0848 -0.0096 -0.1962
  204POPC   GL2 2813   8.602   9.224   4.718 -0.1262  0.2047  0.0106
  204POPC   C1A 2814   8.294   8.876   4.996 -0.3019 -0.1115 -0.2142
  204POPC   D2A 2815   8.281   9.070   5.444 -0.0601 -0.0161  0.0427
  204POPC   C3A 2816   8.322   9.039   5.800 -0.2489  0.0839  0.2353
  204POPC   C4A 2817   8.276   8.908   6.171 -0.1090  0.0265 -0.2519
  204POPC   C1B 2818   8.793   9.267   5.140  0.0591 -0.1271  0.0834
  204POPC   C2B 2819   8.719   9.265   5.547  0.1094  0.0636  0.1720
  204POPC   C3B 2820   8.962   9.559   5.836  0.2887  0.3783 -0.1769
  204POPC   C4B 2821   9.006   9.514   6.263  0.0705 -0.1012  0.0319
  205POPC   NC3 2822   5.660   1.847   4.320 -0.0359  0.0147 -0.0241
  205POPC   PO4 2823   6.054   1.873   4.292  0.2025 -0.1463  0.0076
  205POPC   GL1 2824   6.018   1.994   4.765  0.3804  0.1317 -0.2207
  205POPC   GL2 2825   6.273   2.009   4.970 -0.0602  0.0377 -0.2647
  205POPC   C1A 2826   5.834   2.229   5.122 -0.0578 -0.1487 -0.1291
  205POPC   D2A 2827   5.914   2.208   5.606 -0.1438  0.0137 -0.0682
  205POPC   C3A 2828   5.711   2.527   5.855 -0.0624  0.0493  0.0006
  205POPC   C4A 2829   5.621   2.774   6.172  0.1829  0.3206 -0.0073
  205POPC   C1B 2830   6.071   1.729   5.263 -0.2720  0.2233  0.0042
  205POPC   C2B 2831   5.959   1.754   5.624 -0.2577 -0.1093  0.0869
  205POPC   C3B 2832   5.893   1.914   6.035  0.1058 -0.0601  0.1137
  205POPC   C4B 2833   5.683   1.813   6.304 -0.1541 -0.2248 -0.1292
  206POPC   NC3 2834   9.650   2.526   3.946 -0.2086 -0.2149  0.0546
  206POPC   PO4 2835   9.239   2.668   4.189 -0.0003  0.3551  0.0102
  206POPC   GL1 2836   8.829   2.728   4.442  0.0774 -0.2958  0.0923
  206POPC   GL2 2837   9.059   2.501   4.670 -0.2933 -0.1389  0.1711
  206POPC   C1A 2838   8.671   2.877   4.698 -0.3007  0.3973 -0.2845
  206POPC   D2A 2839   8.328   3.074   4.812 -0.1200 -0.0544  0.0108
  206POPC   C3A 2840   8.359   3.311   5.184  0.1363  0.0119 -0.0804
  206POPC   C4A 2841   8.048   3.583   5.377 -0.1524  0.1108 -0.0512
  206POPC   C1B 2842   8.931   2.700   5.096 -0.1879  0.3269 -0.1815
  206POPC   C2B 2843   8.724   2.976   5.421 -0.1476 -0.0799 -0.0636
  206POPC   C3B 2844   8.712   2.826   5.843 -0.2075  0.4273 -0.1781
  206POPC   C4B 2845   8.761   2.744   6.272  0.0275  0.0644 -0.0941
  207POPC   NC3 2846   4.893   0.191   4.221  0.0335 -0.3829  0.0266
  207POPC   PO4 2847   5.030   0.481   4.626  0.1550 -0.1696  0.0075
  207POPC   GL1 2848   4.789   0.375   4.949 -0.1247 -0.0688  0.2580
  207POPC   GL2 2849   4.424   0.375   4.830 -0.2723  0.1221  0.1531
  207POPC   C1A 2850   4.604   0.417   5.405  0.1396 -0.0491  0.2126
  207POPC   D2A 2851   4.425   0.831   5.635  0.0048  0.0031  0.2056
  207POPC   C3A 2852   4.114   0.889   5.979 -0.3053 -0.1449  0.3375
  207POPC   C4A 2853   3.698   0.896   6.106  0.2973 -0.2162  0.0512
  207POPC   C1B 2854   4.171   0.294   5.211 -0.0492 -0.0205  0.2412
  207POPC   C2B 2855   4.176   0.367   5.696  0.1273  0.1102  0.0697
  207POPC   C3B 2856   4.021   0.412   6.073 -0.0536  0.4186  0.0139
  207POPC   C4B 2857   3.948   0.645   6.528  0.1548  0.1440  0.0180
  208POPC   NC3 2858   0.002   4.744   4.281  0.1080 -0.2693  0.0497
  208POPC   PO4 2859   0.499   4.611   4.331 -0.0247  0.4277  0.1449
  208POPC   GL1 2860   0.621   4.501   4.707 -0.2323  0.0101  0.1199
  208POPC   GL2 2861   0.503   4.201   4.915  0.0020 -0.0217 -0.1888
  208POPC   C1A 2862   0.619   4.582   5.171  0.1412 -0.3230  0.1333
  208POPC   D2A 2863   0.895   4.698   5.511 -0.0154  0.2024  0.0090
  208POPC   C3A 2864   0.785   5.124   5.418 -0.1643 -0.0637 -0.0898
  208POPC   C4A 2865   0.852   5.404   5.008  0.2401  0.0925  0.2617
  208POPC   C1B 2866   0.759   4.057   5.237  0.0594  0.1216  0.0049
  208POPC   C2B 2867   0.874   4.228   5.582 -0.0149 -0.1698 -0.0702
  208POPC   C3B 2868   0.854   4.307   6.032 -0.0721  0.0695 -0.2355
  208POPC   C4B 2869   0.843   4.137   6.538  0.3961  0.2077  0.2675
  209POPC   NC3 2870   2.322   3.195   4.516  0.1275  0.0626  0.0354
  209POPC   PO4 2871   1.891   3.363   4.419 -0.2954 -0.0955  0.0105
  209POPC   GL1 2872   1.867   3.172   4.832  0.0622 -0.0929 -0.3658
  209POPC   GL2 2873   1.616   2.904   4.734  0.0731  0.1341  0.2582
  209POPC   C1A 2874   1.993   3.011   5.209  0.3157  0.0107 -0.0640
  209POPC   D2A 2875   2.195   2.681   5.306  0.1461 -0.0521  0.1539
  209POPC   C3A 2876   2.314   2.629   5.743 -0.2261 -0.2119  0.1524
  209POPC   C4A 2877   1.996   2.502   6.025  0.4159  0.1400  0.2408
  209POPC   C1B 2878   1.311   2.886   4.953 -0.0199 -0.0626  0.2439
  209POPC   C2B 2879   1.092   3.114   5.068 -0.2707 -0.3496  0.4354
  209POPC   C3B 2880   1.074   3.403   5.367 -0.0876 -0.2848  0.0499
  209POPC   C4B 2881   0.725   3.648   5.555 -0.1133  0.0379  0.2101
  210POPC   NC3 2882   4.260   1.029   4.649 -0.1819  0.1581 -0.0530
  210POPC   PO4 2883   4.657   0.892   4.685 -0.0458 -0.1039 -0.0320
  210POPC   GL1 2884   4.570   0.906   5.076 -0.5262  0.1135  0.1203
  210POPC   GL2 2885   4.386   0.750   5.149 -0.5792  0.1341 -0.0091
  210POPC   C1A 2886   4.538   1.259   5.425  0.0156 -0.0503 -0.1789
  210POPC   D2A 2887   4.882   1.419   5.716 -0.1499  0.0003  0.0356
  210POPC   C3A 2888   5.155   1.806   5.703  0.2336 -0.0822 -0.1277
  210POPC   C4A 2889   5.424   2.035   5.891 -0.1140  0.0920  0.1922
  210POPC   C1B 2890   4.028   0.728   5.375 -0.0459  0.1078  0.2244
  210POPC   C2B 2891   3.690   0.684   5.661  0.0887 -0.0685  0.3965
  210POPC   C3B 2892   3.601   0.231   5.771 -0.1298  0.0573 -0.0577
  210POPC   C4B 2893   3.236   0.109   5.834  0.2193  0.1240 -0.0913
  211POPC   NC3 2894   2.140   1.538   4.299  0.1155 -0.2402  0.1280
  211POPC   PO4 2895   1.809   1.905   4.308 -0.0915 -0.2111  0.0577
  211POPC   GL1 2896   1.732   1.985   4.746  0.0914  0.0570  0.1952
  211POPC   GL2 2897   1.488   1.856   4.773  0.1874  0.0995  0.2910
  211POPC   C1A 2898   2.023   2.165   5.052 -0.2686 -0.1441  0.2386
  211POPC   D2A 2899   1.902   2.279   5.418  0.0041  0.0245  0.1332
  211POPC   C3A 2900   1.449   2.384   5.557 -0.1111  0.1747 -0.1442
  211POPC   C4A 2901   1.198   2.555   5.850  0.1141 -0.0602  0.1191
  211POPC   C1B 2902   1.352   1.532   5.044  0.1108  0.3018  0.3033
  211POPC   C2B 2903   1.394   1.334   5.460 -0.2861  0.1469 -0.1214
  211POPC   C3B 2904   1.420   1.061   5.885  0.2580  0.0492 -0.0736
  211POPC   C4B 2905   1.752   0.778   6.075  0.2050  0.2697 -0.3005
  212POPC   NC3 2906   2.580   0.373   3.730 -0.2304  0.0741 -0.0005
  212POPC   PO4 2907   2.872   0.452   4.131  0.2729 -0.3318  0.0950
  212POPC   GL1 2908   2.696   0.517   4.531 -0.1757 -0.0237 -0.0361
  212POPC   GL2 2909   2.797   0.284   4.757  0.0482  0.1114  0.1488
  212POPC   C1A 2910   2.658   0.793   4.887  0.2812 -0.0405 -0.0805
  212POPC   D2A 2911   2.685   0.758   5.326 -0.5135  0.0290 -0.1368
  212POPC   C3A 2912   2.705   0.603   5.716 -0.0904  0.3964 -0.1690
  212POPC   C4A 2913   2.805   0.307   5.999 -0.1445 -0.0596 -0.1229
  212POPC   C1B 2914   2.594   0.287   5.134 -0.3984  0.2468 -0.3635
  212POPC   C2B 2915   2.420   0.293   5.497  0.0300 -0.0233  0.1724
  212POPC   C3B 2916   2.190   0.303   5.829  0.4444 -0.0828  0.1173
  212POPC   C4B 2917   1.918   0.407   6.234 -0.3494  0.0614 -0.3677
  213POPC   NC3 2918   3.407   7.194   2.909 -0.1412  0.0515  0.4274
  213POPC   PO4 2919   3.669   6.877   2.925  0.2363  0.1517  0.0638
  213POPC   GL1 2920   3.676   6.759   3.406 -0.1403  0.1681 -0.1255
  213POPC   GL2 2921   3.540   6.975   3.660 -0.0032 -0.0221  0.1376
  213POPC   C1A 2922   4.009   6.531   3.640 -0.4892  0.0502  0.4096
  213POPC   D2A 2923   4.013   6.208   3.938 -0.2040 -0.0421 -0.1354
  213POPC   C3A 2924   3.778   5.862   3.979 -0.2107 -0.2216  0.1894
  213POPC   C4A 2925   3.640   5.414   4.051  0.1131 -0.2299 -0.2243
  213POPC   C1B 2926   3.398   7.088   4.065  0.0394  0.1519  0.0452
  213POPC   C2B 2927   3.402   6.986   4.514 -0.1422 -0.2595 -0.0336
  213POPC   C3B 2928   3.508   7.068   4.877  0.1804  0.1286  0.1903
  213POPC   C4B 2929   3.800   7.065   5.000  0.1521  0.1349  0.2887
  214POPC   NC3 2930   6.369   0.138   4.165  0.1261 -0.0308  0.2507
  214POPC   PO4 2931   6.715   0.221   4.272  0.1913  0.4918  0.1328
  214POPC   GL1 2932   6.605   0.100   4.690  0.1454 -0.0332 -0.2463
  214POPC   GL2 2933   6.243   0.147   4.820 -0.4869 -0.0134  0.2030
  214POPC   C1A 2934   6.524   0.467   5.044 -0.2187  0.3282  0.0089
  214POPC   D2A 2935   6.659   0.599   5.507  0.0200  0.0724  0.0370
  214POPC   C3A 2936   6.287   0.624   5.730 -0.2557 -0.0109 -0.3141
  214POPC   C4A 2937   5.833   0.463   5.739 -0.0518 -0.0790 -0.0541
  214POPC   C1B 2938   6.526  -0.028   5.175 -0.0603 -0.1204  0.2057
  214POPC   C2B 2939   6.717  -0.370   5.414  0.0229  0.0136  0.3756
  214POPC   C3B 2940   6.699  -0.644   5.803  0.2086  0.1333  0.1077
  214POPC   C4B 2941   6.918  -0.396   6.193 -0.1762 -0.2651  0.0657
  215POPC   NC3 2942   6.461   2.885   4.301 -0.1026  0.0172 -0.2148
  215POPC   PO4 2943   6.845   2.920   4.277  0.1676 -0.2494 -0.0326
  215POPC   GL1 2944   7.098   2.687   4.661  0.0039 -0.2954 -0.1251
  215POPC   GL2 2945   7.397   2.742   4.593 -0.2172  0.0801  0.2985
  215POPC   C1A 2946   7.216   2.396   4.968  0.1440 -0.0947 -0.0075
  215POPC   D2A 2947   7.373   2.398   5.401 -0.0471  0.0484 -0.0399
  215POPC   C3A 2948   7.396   2.641   5.691  0.1504  0.1295 -0.2812
  215POPC   C4A 2949   7.471   3.041   6.041  0.1527 -0.0584  0.1250
  215POPC   C1B 2950   7.495   2.784   4.992  0.3012 -0.1046  0.1036
  215POPC   C2B 2951   7.509   3.027   5.436  0.1445 -0.0030 -0.0985
  215POPC   C3B 2952   7.710   3.318   5.672 -0.1857 -0.2868  0.0569
  215POPC   C4B 2953   7.973   3.389   6.065 -0.0975  0.2505  0.3922
  216POPC   NC3 2954   6.394   8.343   3.958  0.0087  0.0923 -0.1363
  216POPC   PO4 2955   6.435   8.669   4.292 -0.1305  0.0632 -0.1279
  216POPC   GL1 2956   6.368   8.745   4.683  0.3511  0.0968  0.0521
  216POPC   GL2 2957   6.597   8.563   4.895  0.3816  0.1217  0.0800
  216POPC   C1A 2958   6.173   8.592   5.079  0.1354  0.0513 -0.1271
  216POPC   D2A 2959   5.938   8.541   5.519 -0.4227 -0.0448  0.1196
  216POPC   C3A 2960   6.150   8.226   5.796  0.1750  0.0167 -0.4068
  216POPC   C4A 2961   6.132   8.165   6.226  0.1304  0.0313  0.1012
  216POPC   C1B 2962   6.712   8.348   5.229  0.0241 -0.0656  0.1768
  216POPC   C2B 2963   6.634   8.138   5.612  0.1498 -0.1239  0.0291
  216POPC   C3B 2964   6.594   7.820   5.975  0.0401 -0.0009  0.1188
  216POPC   C4B 2965   6.295   7.601   6.225 -0.3415 -0.0174  0.2473
  217POPC   NC3 2966   9.587   6.097   4.279  0.0305 -0.0179 -0.1487
  217POPC   PO4 2967   9.138   6.072   4.439  0.3491  0.0428 -0.1293
  217POPC   GL1 2968   9.431   5.983   4.744 -0.3484  0.2493  0.0282
  217POPC   GL2 2969   9.545   5.579   4.765 -0.2390  0.3808 -0.1752
  217POPC   C1A 2970   9.535   6.178   5.173 -0.1027  0.2798  0.0769
  217POPC   D2A 2971   9.222   6.253   5.513  0.1904 -0.2703 -0.0840
  217POPC   C3A 2972   9.055   6.607   5.681 -0.1566 -0.0059  0.1473
  217POPC   C4A 2973   9.138   6.908   5.880 -0.0975 -0.1066  0.0495
  217POPC   C1B 2974   9.532   5.643   5.188 -0.0053  0.2849 -0.0407
  217POPC   C2B 2975   9.454   5.810   5.623  0.3028  0.1773  0.3437
  217POPC   C3B 2976   9.382   5.653   6.081  0.3502  0.1826  0.4058
  217POPC   C4B 2977   9.274   5.660   6.555 -0.2019 -0.1344 -0.1125
  218POPC   NC3 2978   1.640   8.386   4.014 -0.0527  0.3617  0.2163
  218POPC   PO4 2979   1.807   8.630   4.387 -0.0279  0.2580  0.1186
  218POPC   GL1 2980   2.083   8.640   4.799  0.0062  0.0478  0.0844
  218POPC   GL2 2981   1.960   8.819   4.907 -0.0377 -0.2477  0.3425
  218POPC   C1A 2982   2.279   8.606   5.200  0.1931 -0.2830  0.1293
  218POPC   D2A 2983   2.597   8.691   5.539 -0.2262  0.2958 -0.0115
  218POPC   C3A 2984   2.839   8.289   5.838  0.0120 -0.0762 -0.1108
  218POPC   C4A 2985   2.878   8.065   6.245  0.1428  0.1667 -0.1608
  218POPC   C1B 2986   1.786   9.109   5.247 -0.0851  0.2056 -0.0314
  218POPC   C2B 2987   1.646   9.205   5.566 -0.0276  0.0294  0.2680
  218POPC   C3B 2988   1.746   9.180   5.947 -0.2281 -0.2783 -0.2422
  218POPC   C4B 2989   1.971   9.173   6.263 -0.0688  0.0974 -0.0994
  219POPC   NC3 2990   3.460   3.423   4.027 -0.0317 -0.1738  0.2387
  219POPC   PO4 2991   3.323   3.124   4.250  0.2634  0.1646 -0.2538
  219POPC   GL1 2992   3.080   3.356   4.510 -0.2275 -0.1138  0.0516
  219POPC   GL2 2993   3.065   3.356   4.732 -0.0677  0.0711  0.2742
  219POPC   C1A 2994   2.722   3.659   4.662 -0.2132 -0.0049 -0.0152
  219POPC   D2A 2995   2.259   3.708   4.670  0.1551 -0.2772 -0.1302
  219POPC   C3A 2996   2.210   4.039   4.961 -0.0121  0.4034 -0.1148
  219POPC   C4A 2997   2.077   4.487   5.217  0.2012 -0.0283 -0.1563
  219POPC   C1B 2998   2.713   3.463   5.115 -0.1318  0.0391 -0.0745
  219POPC   C2B 2999   2.422   3.244   5.497 -0.0197 -0.2347  0.1612
  219POPC   C3B 3000   2.310   3.127   5.797  0.1536  0.0114  0.2299
  219POPC   C4B 3001   2.582   3.246   6.185 -0.1720 -0.2150 -0.0727
  220POPC   NC3 3002   2.416   5.108   3.730 -0.0742  0.0371 -0.2069
  220POPC   PO4 3003   2.533   5.522   3.755 -0.1027 -0.0666 -0.0154
  220POPC   GL1 3004   2.810   5.233   3.997  0.0396 -0.0597 -0.3106
  220POPC   GL2 3005   3.194   5.166   3.987 -0.1895 -0.1173 -0.0692
  220POPC   C1A 3006   2.677   5.097   4.393 -0.1137 -0.0551 -0.0039
  220POPC   D2A 3007   2.691   5.449   4.679 -0.1987  0.0606 -0.1290
  220POPC   C3A 3008   3.045   5.453   4.777  0.2058 -0.2462 -0.0478
  220POPC   C4A 3009   3.425   5.687   4.807  0.0734 -0.0593  0.0578
  220POPC   C1B 3010   3.159   5.543   4.221  0.2236  0.0617 -0.3105
  220POPC   C2B 3011   3.389   5.976   4.354  0.1739  0.3339 -0.1689
  220POPC   C3B 3012   3.617   6.295   4.354 -0.0733  0.2461 -0.0082
  220POPC   C4B 3013   3.775   6.662   4.623 -0.0985 -0.2099  0.0038
  221POPC   NC3 3014   1.632   5.089   3.902  0.0005 -0.0267 -0.1250
  221POPC   PO4 3015   1.369   5.412   3.920 -0.1166  0.0221 -0.2742
  221POPC   GL1 3016   1.534   5.358   4.349  0.1042  0.0181  0.1571
  221POPC   GL2 3017   1.580   5.008   4.409 -0.2152  0.1347 -0.2633
  221POPC   C1A 3018   1.670   5.377   4.757 -0.0766  0.0918  0.2514
  221POPC   D2A 3019   1.792   5.245   5.225  0.0927 -0.0171  0.0232
  221POPC   C3A 3020   1.688   5.263   5.594 -0.1169  0.3281 -0.1304
  221POPC   C4A 3021   1.629   5.473   5.970 -0.2409  0.1517 -0.1357
  221POPC   C1B 3022   1.227   5.249   4.749  0.0203  0.0911  0.0313
  221POPC   C2B 3023   1.343   5.460   5.172  0.2602 -0.1622  0.0056
  221POPC   C3B 3024   1.213   5.454   5.541 -0.3104  0.2536  0.0526
  221POPC   C4B 3025   1.165   5.281   5.917  0.1728 -0.0044  0.0168
  222POPC   NC3 3026   6.463   1.049   4.383 -0.1605  0.0925 -0.0727
  222POPC   PO4 3027   6.065   0.703   4.331  0.1728 -0.0207 -0.1152
  222POPC   GL1 3028   6.032   0.645   4.757  0.1172  0.0534 -0.4241
  222POPC   GL2 3029   6.283   0.844   4.903 -0.0641 -0.0428  0.2966
  222POPC   C1A 3030   6.054   0.473   5.196 -0.2313  0.0665 -0.1562
  222POPC   D2A 3031   6.223   0.235   5.437  0.0282 -0.1268  0.1590
  222POPC   C3A 3032   6.611   0.149   5.744 -0.0898  0.1293 -0.0698
  222POPC   C4A 3033   6.923   0.127   5.566  0.1483  0.2503  0.1090
  222POPC   C1B 3034   6.317   0.929   5.254 -0.2440 -0.1012 -0.3632
  222POPC   C2B 3035   6.183   1.102   5.580 -0.1935  0.0349  0.1868
  222POPC   C3B 3036   6.034   1.275   5.977 -0.0568  0.0963  0.1511
  222POPC   C4B 3037   6.170   1.570   6.310  0.0536  0.0881  0.3588
  223POPC   NC3 3038   2.093   5.504   3.365  0.0009  0.2985  0.3094
  223POPC   PO4 3039   2.244   5.839   3.540  0.4051 -0.2635 -0.4129
  223POPC   GL1 3040   2.297   5.897   4.005  0.1769 -0.3099  0.3187
  223POPC   GL2 3041   2.735   5.802   4.102  0.0893 -0.0132  0.2548
  223POPC   C1A 3042   2.271   6.084   4.375 -0.1281 -0.2333 -0.3531
  223POPC   D2A 3043   2.437   6.358   4.706  0.1302  0.3585  0.0067
  223POPC   C3A 3044   2.852   6.341   4.672  0.1822 -0.0106  0.4313
  223POPC   C4A 3045   3.265   6.504   4.618 -0.1571  0.1036  0.2026
  223POPC   C1B 3046   2.826   5.875   4.517  0.1763 -0.0494 -0.1716
  223POPC   C2B 3047   2.655   5.943   4.900  0.2095 -0.2017  0.1240
  223POPC   C3B 3048   2.691   6.300   5.144  0.3940  0.2469 -0.3543
  223POPC   C4B 3049   2.462   6.480   5.538 -0.0343 -0.2545  0.1179
  224POPC   NC3 3050   6.808   5.130   4.120  0.2667  0.3336 -0.1620
  224POPC   PO4 3051   6.318   5.200   4.166  0.3227  0.6830  0.1255
  224POPC   GL1 3052   6.495   5.059   4.529  0.2688 -0.0098 -0.1880
  224POPC   GL2 3053   6.773   4.915   4.545 -0.0599 -0.2114 -0.1942
  224POPC   C1A 3054   6.743   5.182   4.953  0.1522  0.2332 -0.0505
  224POPC   D2A 3055   6.978   5.600   4.991  0.0731 -0.0990 -0.0840
  224POPC   C3A 3056   6.998   5.567   5.468 -0.3197  0.0634 -0.0214
  224POPC   C4A 3057   7.301   5.324   5.708  0.0159  0.2800 -0.0773
  224POPC   C1B 3058   7.101   4.720   4.718 -0.2561 -0.0965 -0.2602
  224POPC   C2B 3059   7.106   4.748   5.219 -0.0292  0.3763 -0.0626
  224POPC   C3B 3060   6.980   4.902   5.600 -0.3600 -0.0899 -0.2777
  224POPC   C4B 3061   6.654   5.222   5.782 -0.0308 -0.1675  0.2932
  225POPC   NC3 3062   8.781   8.296   4.171  0.2308  0.0992 -0.1560
  225POPC   PO4 3063   9.041   8.643   4.265 -0.1835  0.1843 -0.1362
  225POPC   GL1 3064   9.155   8.793   4.658 -0.0540  0.0297 -0.3706
  225POPC   GL2 3065   9.123   9.094   4.722 -0.1717 -0.1078  0.0387
  225POPC   C1A 3066   8.925   8.778   4.999 -0.0966  0.1911 -0.0386
  225POPC   D2A 3067   8.946   8.790   5.488  0.1448 -0.0362  0.0450
  225POPC   C3A 3068   9.306   8.667   5.507 -0.1582 -0.1418 -0.2120
  225POPC   C4A 3069   9.725   8.814   5.294 -0.1564  0.0730  0.0417
  225POPC   C1B 3070   9.357   9.139   5.139 -0.1624 -0.0622  0.1420
  225POPC   C2B 3071   9.392   9.162   5.584 -0.1597 -0.1961 -0.1758
  225POPC   C3B 3072   9.066   9.097   5.958  0.1113 -0.2462 -0.1393
  225POPC   C4B 3073   8.701   8.775   5.950 -0.1046  0.1580 -0.2368
  226POPC   NC3 3074   2.322   3.918   3.729 -0.3995  0.0780 -0.2355
  226POPC   PO4 3075   2.271   4.111   4.144 -0.0260 -0.2199 -0.0486
  226POPC   GL1 3076   2.428   4.387   4.494  0.3404 -0.0479  0.1100
  226POPC   GL2 3077   2.713   4.166   4.594  0.0038 -0.0071 -0.2273
  226POPC   C1A 3078   2.408   4.638   4.835  0.2352  0.0405 -0.0559
  226POPC   D2A 3079   2.265   4.939   5.129 -0.2627 -0.1532 -0.3293
  226POPC   C3A 3080   2.226   4.834   5.555  0.1010 -0.4990  0.2139
  226POPC   C4A 3081   1.985   4.899   5.958 -0.3464 -0.2905 -0.2311
  226POPC   C1B 3082   2.725   4.203   5.018  0.2114  0.1241 -0.3112
  226POPC   C2B 3083   2.527   4.008   5.381 -0.2754 -0.0405  0.0812
  226POPC   C3B 3084   2.470   3.751   5.765 -0.0392 -0.3888 -0.3406
  226POPC   C4B 3085   2.379   3.713   6.147  0.2212 -0.4605  0.1940
  227POPC   NC3 3086   3.927   9.409   4.222  0.0060 -0.2582 -0.0146
  227POPC   PO4 3087   3.570   9.597   4.520 -0.0780  0.4028 -0.0222
  227POPC   GL1 3088   3.548   9.468   4.880  0.0898 -0.1388 -0.2834
  227POPC   GL2 3089   3.825   9.718   4.979  0.1035  0.1798  0.1491
  227POPC   C1A 3090   3.696   9.272   5.259 -0.1394  0.2080  0.1189
  227POPC   D2A 3091   3.636   8.885   5.530  0.0356  0.4622 -0.0055
  227POPC   C3A 3092   3.781   8.704   5.897  0.1935  0.0124  0.0204
  227POPC   C4A 3093   4.146   8.768   6.225 -0.2688 -0.1298  0.1169
  227POPC   C1B 3094   3.673  10.045   5.201  0.2611  0.3567 -0.0516
  227POPC   C2B 3095   3.572  10.512   5.151  0.2283  0.0372  0.0696
  227POPC   C3B 3096   3.507  11.014   5.090  0.1824  0.0189 -0.1894
  227POPC   C4B 3097   3.605  11.418   5.407 -0.2842  0.1464  0.0134
  228POPC   NC3 3098   5.169   0.908   4.445 -0.0269 -0.2950 -0.1552
  228POPC   PO4 3099   5.529   0.555   4.445 -0.1619  0.1956 -0.0491
  228POPC   GL1 3100   5.443   0.701   4.857 -0.0239  0.1683  0.0395
  228POPC   GL2 3101   5.131   0.794   4.983 -0.2053  0.0950 -0.1824
  228POPC   C1A 3102   5.508   0.471   5.225 -0.4185 -0.1956  0.1477
  228POPC   D2A 3103   5.307   0.399   5.648  0.1424  0.2061  0.0365
  228POPC   C3A 3104   5.490   0.575   6.148 -0.0461  0.3178  0.1127
  228POPC   C4A 3105   5.763   0.399   6.432  0.0345  0.3489  0.1167
  228POPC   C1B 3106   5.016   0.721   5.417 -0.0409 -0.1771  0.1323
  228POPC   C2B 3107   4.870   0.930   5.739 -0.1981  0.0814 -0.4190
  228POPC   C3B 3108   4.975   1.055   6.039 -0.1169  0.0848  0.0098
  228POPC   C4B 3109   5.162   1.022   6.445  0.1676  0.0544 -0.0646
  229POPC   NC3 3110   0.554   4.018   4.453  0.0352  0.0202  0.2851
  229POPC   PO4 3111   0.218   4.199   4.304  0.2776 -0.2582 -0.4193
  229POPC   GL1 3112   0.069   4.031   4.776  0.0368  0.0605  0.1360
  229POPC   GL2 3113   0.191   3.769   4.951 -0.1737  0.1933  0.0653
  229POPC   C1A 3114  -0.069   4.039   5.205  0.1310  0.2629 -0.3298
  229POPC   D2A 3115  -0.237   4.014   5.678 -0.1926 -0.1873 -0.0956
  229POPC   C3A 3116  -0.069   4.000   6.031 -0.0425  0.0098 -0.0357
  229POPC   C4A 3117  -0.158   3.879   6.426  0.0131  0.1444 -0.0245
  229POPC   C1B 3118   0.309   3.678   5.353  0.0006  0.0732  0.1471
  229POPC   C2B 3119   0.164   3.516   5.752  0.0374  0.1736  0.1730
  229POPC   C3B 3120   0.202   3.496   6.107 -0.2217 -0.0314 -0.0176
  229POPC   C4B 3121   0.065   3.297   6.471 -0.1692  0.3113  0.1198
  230POPC   NC3 3122   6.991   6.980   3.724  0.2292 -0.0940 -0.0046
  230POPC   PO4 3123   6.506   6.970   3.753 -0.0812 -0.1925 -0.1085
  230POPC   GL1 3124   6.327   6.857   4.134  0.1830  0.0972  0.0207
  230POPC   GL2 3125   6.212   6.500   4.101 -0.0291 -0.1493 -0.1382
  230POPC   C1A 3126   6.228   7.073   4.592 -0.3687 -0.2021  0.2526
  230POPC   D2A 3127   5.990   7.049   4.920 -0.1554  0.2363 -0.2225
  230POPC   C3A 3128   6.010   7.333   5.286 -0.1721 -0.0676  0.1086
  230POPC   C4A 3129   5.725   7.545   5.486  0.0219  0.1643  0.0162
  230POPC   C1B 3130   6.455   6.455   4.482 -0.1244 -0.2474 -0.2090
  230POPC   C2B 3131   6.480   6.602   4.964 -0.0377 -0.0155 -0.0530
  230POPC   C3B 3132   6.410   6.365   5.377  0.4281  0.0826  0.0626
  230POPC   C4B 3133   6.428   6.329   5.825 -0.0341 -0.1353 -0.1625
  231POPC   NC3 3134   0.422   6.810   4.679 -0.2606 -0.2740  0.2037
  231POPC   PO4 3135   0.834   7.123   4.727 -0.1863  0.1994 -0.1728
  231POPC   GL1 3136   0.883   7.103   5.061  0.1932 -0.1355  0.1196
  231POPC   GL2 3137   0.615   6.941   5.194  0.2709 -0.0118 -0.1869
  231POPC   C1A 3138   1.048   7.197   5.421 -0.0021 -0.5316  0.2371
  231POPC   D2A 3139   1.173   7.392   5.831 -0.4468  0.0432  0.0693
  231POPC   C3A 3140   1.441   7.292   6.156  0.2166 -0.0936  0.0353
  231POPC   C4A 3141   1.815   7.288   6.511 -0.3191  0.2042 -0.2303
  231POPC   C1B 3142   0.915   6.745   5.641 -0.1158 -0.4106 -0.2125
  231POPC   C2B 3143   0.921   6.442   5.967  0.1150  0.3236  0.0508
  231POPC   C3B 3144   1.242   6.174   6.206  0.2859  0.2677  0.1189
  231POPC   C4B 3145   1.247   5.757   6.120 -0.2479  0.2600 -0.0138
  232POPC   NC3 3146   2.761   7.917   3.634  0.0536  0.1714  0.1219
  232POPC   PO4 3147   2.550   8.085   3.956 -0.0590  0.1138 -0.0315
  232POPC   GL1 3148   2.453   7.978   4.406  0.1318 -0.3316  0.0058
  232POPC   GL2 3149   2.763   7.759   4.514  0.0861  0.3532  0.2026
  232POPC   C1A 3150   2.035   8.058   4.754  0.2406 -0.0472  0.0500
  232POPC   D2A 3151   1.925   8.225   5.148  0.2883 -0.1001 -0.2394
  232POPC   C3A 3152   2.024   8.417   5.547  0.4172 -0.1136 -0.1394
  232POPC   C4A 3153   2.108   8.620   5.809  0.1868  0.3847  0.3010
  232POPC   C1B 3154   2.851   7.860   4.941 -0.0557 -0.1343  0.1434
  232POPC   C2B 3155   2.792   7.839   5.446  0.1264  0.0604 -0.0246
  232POPC   C3B 3156   2.704   7.700   5.888 -0.1130 -0.3388  0.0684
  232POPC   C4B 3157   2.601   7.350   6.118 -0.0567 -0.2980  0.1538
  233POPC   NC3 3158   5.694   3.915   4.216 -0.0053  0.3539 -0.2274
  233POPC   PO4 3159   5.610   3.454   3.975  0.0687  0.2420  0.2801
  233POPC   GL1 3160   5.539   3.476   4.475 -0.1328  0.1689  0.1321
  233POPC   GL2 3161   5.773   3.594   4.608  0.0486 -0.0119  0.0923
  233POPC   C1A 3162   5.366   3.310   4.897 -0.0173 -0.0036  0.3052
  233POPC   D2A 3163   5.240   3.469   5.304 -0.3435  0.0731 -0.3542
  233POPC   C3A 3164   4.816   3.383   5.385 -0.2165  0.0543  0.1640
  233POPC   C4A 3165   4.836   3.128   5.055 -0.0160 -0.2191  0.3287
  233POPC   C1B 3166   5.641   3.663   5.103  0.0678  0.1653  0.2535
  233POPC   C2B 3167   5.599   3.816   5.556 -0.2029  0.0493 -0.0978
  233POPC   C3B 3168   5.331   3.706   5.803  0.1864 -0.1954  0.1753
  233POPC   C4B 3169   5.301   3.799   6.214  0.1138 -0.0890  0.1253
  234POPC   NC3 3170   5.457   8.395   4.149  0.1647  0.0295 -0.0734
  234POPC   PO4 3171   5.669   7.993   4.129 -0.0210  0.1133 -0.2328
  234POPC   GL1 3172   5.798   7.907   4.584 -0.0310 -0.2748  0.0961
  234POPC   GL2 3173   6.173   7.754   4.560 -0.1113 -0.1787 -0.0742
  234POPC   C1A 3174   5.814   7.498   4.699 -0.2103 -0.0958 -0.1259
  234POPC   D2A 3175   5.658   7.154   4.497  0.0806 -0.1967  0.1237
  234POPC   C3A 3176   5.472   6.836   4.796  0.3013 -0.2656  0.0763
  234POPC   C4A 3177   5.215   6.581   4.996  0.1796 -0.4361  0.0264
  234POPC   C1B 3178   6.331   7.543   4.946  0.2437  0.2271 -0.0332
  234POPC   C2B 3179   6.422   7.085   5.157 -0.1034  0.0395 -0.0529
  234POPC   C3B 3180   6.236   6.916   5.485  0.1518 -0.0010 -0.4354
  234POPC   C4B 3181   6.180   6.770   5.878 -0.0267  0.2801 -0.0317
  235POPC   NC3 3182   7.119   6.822   4.333  0.0625 -0.1335  0.2619
  235POPC   PO4 3183   6.719   7.128   4.206 -0.0563 -0.2480  0.1572
  235POPC   GL1 3184   6.774   7.144   4.578  0.1013  0.0809 -0.3863
  235POPC   GL2 3185   6.912   6.881   4.760  0.1682 -0.1187  0.0278
  235POPC   C1A 3186   6.839   7.296   4.993 -0.2540  0.2086 -0.0955
  235POPC   D2A 3187   6.900   7.216   5.451  0.0375  0.2018 -0.4524
  235POPC   C3A 3188   7.151   7.451   5.762  0.1355  0.0488  0.2101
  235POPC   C4A 3189   7.112   7.790   6.152 -0.1073  0.2143  0.2555
  235POPC   C1B 3190   6.847   6.799   5.247  0.0001 -0.1191 -0.0870
  235POPC   C2B 3191   6.652   6.797   5.655 -0.1037  0.1374  0.0897
  235POPC   C3B 3192   6.621   6.775   6.113 -0.1386 -0.0613  0.1194
  235POPC   C4B 3193   6.457   6.833   6.567 -0.4191 -0.2640  0.2895
  236POPC   NC3 3194   7.909   4.526   3.903 -0.1015  0.0847  0.0312
  236POPC   PO4 3195   7.613   4.105   4.128  0.2312  0.3355 -0.0569
  236POPC   GL1 3196   7.646   4.135   4.556  0.5268  0.0636 -0.2251
  236POPC   GL2 3197   7.957   4.127   4.608 -0.0167 -0.2774  0.3359
  236POPC   C1A 3198   7.355   4.113   4.990  0.0657  0.5113  0.0357
  236POPC   D2A 3199   7.320   4.286   5.393 -0.0091 -0.2548 -0.0484
  236POPC   C3A 3200   7.611   4.280   5.771  0.1147 -0.0925 -0.0126
  236POPC   C4A 3201   7.798   4.627   5.937  0.0088  0.0970 -0.4218
  236POPC   C1B 3202   7.712   3.807   4.855  0.2648 -0.0857 -0.0686
  236POPC   C2B 3203   7.470   3.639   5.183 -0.0388  0.1014 -0.0262
  236POPC   C3B 3204   7.476   3.793   5.628  0.5746 -0.0268  0.1341
  236POPC   C4B 3205   7.314   3.540   5.954 -0.1078 -0.0801  0.0528
  237POPC   NC3 3206   0.498   7.740   4.495  0.2768 -0.1851 -0.2295
  237POPC   PO4 3207   0.339   7.341   4.566  0.1358 -0.0449  0.1821
  237POPC   GL1 3208   0.446   7.343   4.963  0.0777 -0.3592  0.4084
  237POPC   GL2 3209   0.656   7.589   4.957 -0.1455 -0.0997  0.1020
  237POPC   C1A 3210   0.617   7.426   5.434 -0.0199 -0.1428 -0.0833
  237POPC   D2A 3211   0.654   7.275   5.843  0.1457  0.2253 -0.1349
  237POPC   C3A 3212   0.709   7.619   5.898 -0.1417  0.0621 -0.1965
  237POPC   C4A 3213   0.902   7.950   6.154 -0.3148  0.2513  0.3357
  237POPC   C1B 3214   1.015   7.843   5.229  0.0862 -0.0089  0.1028
  237POPC   C2B 3215   1.107   7.830   5.675  0.1002  0.0925 -0.2000
  237POPC   C3B 3216   1.385   7.840   6.011 -0.3678  0.3018 -0.3880
  237POPC   C4B 3217   1.746   7.779   6.326 -0.1428  0.0076 -0.0459
  238POPC   NC3 3218   8.410   5.814   3.804  0.0135  0.3223  0.1803
  238POPC   PO4 3219   8.047   5.914   4.124  0.1866 -0.0354 -0.0436
  238POPC   GL1 3220   7.880   6.028   4.544  0.4527  0.1011  0.1216
  238POPC   GL2 3221   7.539   5.910   4.753  0.0917 -0.0659  0.2572
  238POPC   C1A 3222   7.821   6.280   4.954 -0.0260  0.1059 -0.1691
  238POPC   D2A 3223   8.181   6.454   5.103  0.0895  0.0682  0.2139
  238POPC   C3A 3224   8.363   6.836   5.169 -0.2548 -0.0012  0.0849
  238POPC   C4A 3225   8.354   7.271   5.119  0.1971 -0.1422  0.0522
  238POPC   C1B 3226   7.253   5.996   5.167  0.0406  0.3144 -0.1372
  238POPC   C2B 3227   7.293   5.937   5.601 -0.0798 -0.2007 -0.0577
  238POPC   C3B 3228   6.995   5.758   5.960  0.0286 -0.2388 -0.2344
  238POPC   C4B 3229   6.924   5.334   6.227 -0.1408 -0.4093  0.1378
  239POPC   NC3 3230   8.914   6.557   4.392 -0.3746  0.2576  0.1250
  239POPC   PO4 3231   8.612   6.897   4.451  0.0508  0.2830  0.1608
  239POPC   GL1 3232   8.649   6.602   4.812 -0.0875  0.1145 -0.2875
  239POPC   GL2 3233   8.732   6.259   4.722  0.1228 -0.1344 -0.0898
  239POPC   C1A 3234   8.684   6.548   5.311  0.0057  0.2304  0.1073
  239POPC   D2A 3235   8.740   6.196   5.553 -0.1824  0.0874  0.0948
  239POPC   C3A 3236   8.626   6.349   5.884  0.2746  0.0425  0.0953
  239POPC   C4A 3237   8.556   6.694   6.143 -0.1128  0.0143  0.2111
  239POPC   C1B 3238   8.548   6.082   5.108 -0.1480  0.1292 -0.1346
  239POPC   C2B 3239   8.140   5.942   5.176  0.2508  0.0917 -0.2468
  239POPC   C3B 3240   8.065   5.622   5.112  0.1679 -0.2598 -0.1284
  239POPC   C4B 3241   8.314   5.251   5.198  0.2323 -0.0315  0.1458
  240POPC   NC3 3242   5.217   4.708   3.470  0.0926  0.1175  0.2549
  240POPC   PO4 3243   5.141   4.279   3.526 -0.0222  0.1158  0.0265
  240POPC   GL1 3244   5.270   4.173   4.059 -0.0075 -0.1498 -0.1083
  240POPC   GL2 3245   5.207   3.818   4.193 -0.1196 -0.0251  0.2266
  240POPC   C1A 3246   5.122   4.230   4.471 -0.1286  0.2334 -0.0618
  240POPC   D2A 3247   5.377   3.900   4.696  0.3078 -0.3052 -0.1407
  240POPC   C3A 3248   5.201   3.948   5.195  0.0495 -0.1524 -0.0449
  240POPC   C4A 3249   5.088   4.075   5.625 -0.2436 -0.1699 -0.0631
  240POPC   C1B 3250   4.930   3.659   4.510 -0.1169  0.3504  0.0148
  240POPC   C2B 3251   4.796   3.569   4.916 -0.3391 -0.2363  0.1530
  240POPC   C3B 3252   4.504   3.689   5.111 -0.1389 -0.0363  0.0775
  240POPC   C4B 3253   4.269   3.864   5.385 -0.1665  0.0070 -0.0248
  241POPC   NC3 3254   8.953   7.293   4.515  0.0080 -0.4578 -0.0986
  241POPC   PO4 3255   9.102   7.772   4.427  0.0018  0.5859  0.0045
  241POPC   GL1 3256   8.906   7.649   4.808  0.0471  0.1672  0.0580
  241POPC   GL2 3257   8.561   7.571   4.787  0.0555  0.1859  0.1382
  241POPC   C1A 3258   8.832   7.495   5.202 -0.0871 -0.0519  0.1110
  241POPC   D2A 3259   8.506   7.480   5.590 -0.3385  0.0152  0.0412
  241POPC   C3A 3260   8.299   7.694   5.941  0.2460 -0.3521 -0.2353
  241POPC   C4A 3261   7.876   7.992   6.004  0.0645 -0.1906 -0.1189
  241POPC   C1B 3262   8.344   7.795   5.146  0.2649 -0.0123  0.2053
  241POPC   C2B 3263   8.250   8.058   5.500 -0.0125 -0.3318  0.2329
  241POPC   C3B 3264   8.436   8.151   5.906  0.0404  0.0244 -0.0235
  241POPC   C4B 3265   8.364   8.097   6.244 -0.1071  0.2917 -0.0266
  242POPC   NC3 3266   3.916   2.576   3.550  0.1135 -0.2047 -0.0300
  242POPC   PO4 3267   4.067   2.534   4.027 -0.0253  0.4977  0.2972
  242POPC   GL1 3268   4.313   2.477   4.411 -0.0821  0.0433 -0.0429
  242POPC   GL2 3269   4.528   2.602   4.487 -0.1106  0.0111 -0.3475
  242POPC   C1A 3270   4.393   2.321   4.823  0.1866  0.0734 -0.1122
  242POPC   D2A 3271   4.377   2.186   5.292  0.1987  0.1340 -0.0922
  242POPC   C3A 3272   4.551   2.443   5.696 -0.1109 -0.0314  0.3705
  242POPC   C4A 3273   4.679   2.473   6.186  0.0145  0.0716  0.1280
  242POPC   C1B 3274   4.277   2.770   4.839  0.2134 -0.0042  0.2894
  242POPC   C2B 3275   3.908   2.566   5.044  0.0058  0.1841  0.0671
  242POPC   C3B 3276   3.513   2.605   5.184  0.0744 -0.0894 -0.1660
  242POPC   C4B 3277   3.090   2.467   5.103  0.2983  0.1785 -0.0762
  243POPC   NC3 3278   2.498   6.504   3.215  0.0522 -0.0740 -0.3194
  243POPC   PO4 3279   2.886   6.430   3.149  0.2080 -0.3700 -0.1759
  243POPC   GL1 3280   3.006   6.540   3.549  0.0734 -0.3910 -0.0173
  243POPC   GL2 3281   2.713   6.473   3.730 -0.0927 -0.0313  0.2588
  243POPC   C1A 3282   2.995   6.747   4.124 -0.2076  0.0071 -0.1718
  243POPC   D2A 3283   2.904   6.870   4.580 -0.0153 -0.0700 -0.2833
  243POPC   C3A 3284   2.657   6.785   4.885 -0.0855 -0.2017  0.0975
  243POPC   C4A 3285   2.289   6.686   5.096  0.0160  0.0854  0.0571
  243POPC   C1B 3286   2.286   6.592   3.913  0.1810  0.0597  0.2924
  243POPC   C2B 3287   1.948   6.581   4.235  0.3611 -0.1508 -0.1078
  243POPC   C3B 3288   1.631   6.256   4.491 -0.2223  0.0057  0.1230
  243POPC   C4B 3289   1.198   6.269   4.649 -0.2586  0.1176 -0.3292
  244POPC   NC3 3290   1.169   9.678   4.282  0.4462 -0.2404  0.1048
  244POPC   PO4 3291   1.402   9.283   4.063 -0.0773  0.1272 -0.1606
  244POPC   GL1 3292   1.341   9.309   4.613  0.1209  0.0522  0.0088
  244POPC   GL2 3293   1.068   9.459   4.705 -0.4534  0.0638 -0.2877
  244POPC   C1A 3294   1.393   9.117   4.985 -0.4030 -0.0557 -0.1248
  244POPC   D2A 3295   1.250   9.025   5.377 -0.3290 -0.0202 -0.0807
  244POPC   C3A 3296   0.850   8.732   5.386  0.0571  0.0487 -0.0152
  244POPC   C4A 3297   0.394   8.542   5.324 -0.0173 -0.1607 -0.0097
  244POPC   C1B 3298   1.086   9.746   5.007 -0.1308 -0.1222 -0.1452
  244POPC   C2B 3299   0.971  10.144   5.277  0.1492  0.1654 -0.4949
  244POPC   C3B 3300   0.655  10.471   5.602 -0.2834 -0.0559 -0.4127
  244POPC   C4B 3301   0.459  10.882   5.699  0.2844 -0.4637  0.0817
  245POPC   NC3 3302   3.804   8.138   3.324  0.1155 -0.0737  0.2564
  245POPC   PO4 3303   3.598   7.726   3.220 -0.3475 -0.4603 -0.0128
  245POPC   GL1 3304   3.743   7.722   3.653  0.0845  0.2037  0.4214
  245POPC   GL2 3305   3.383   7.688   3.876 -0.0356  0.4462  0.4960
  245POPC   C1A 3306   3.784   7.433   4.060  0.1756 -0.0100  0.1784
  245POPC   D2A 3307   3.987   7.077   4.168 -0.0627  0.0032  0.0433
  245POPC   C3A 3308   3.792   6.709   4.079  0.1754 -0.1218 -0.0802
  245POPC   C4A 3309   3.439   6.528   3.935 -0.1662 -0.1418  0.2498
  245POPC   C1B 3310   3.336   7.553   4.240  0.0487 -0.0173 -0.1037
  245POPC   C2B 3311   3.681   7.448   4.521 -0.1967 -0.1515 -0.1180
  245POPC   C3B 3312   4.027   7.374   4.757 -0.1067 -0.1097  0.2508
  245POPC   C4B 3313   4.157   6.965   4.659 -0.1014  0.1536 -0.0042
  246POPC   NC3 3314   4.315   5.312   3.338 -0.0876 -0.1848  0.2124
  246POPC   PO4 3315   4.706   5.569   3.357  0.0809  0.2984 -0.1655
  246POPC   GL1 3316   4.769   5.649   3.727 -0.0622 -0.1482 -0.1378
  246POPC   GL2 3317   5.022   5.550   3.763  0.1681  0.0957 -0.2887
  246POPC   C1A 3318   4.636   5.558   4.178  0.1460 -0.0989  0.0260
  246POPC   D2A 3319   4.562   5.713   4.586 -0.0845  0.1083 -0.2931
  246POPC   C3A 3320   4.800   5.557   4.880  0.2205  0.2022 -0.2389
  246POPC   C4A 3321   5.090   5.266   4.836  0.1644  0.2348 -0.0931
  246POPC   C1B 3322   5.091   5.222   3.907  0.2785  0.0971 -0.1642
  246POPC   C2B 3323   5.027   5.131   4.241 -0.0523 -0.2836 -0.0146
  246POPC   C3B 3324   4.703   5.196   4.511  0.0028  0.2606  0.3095
  246POPC   C4B 3325   4.261   5.323   4.678 -0.0601  0.1240  0.0713
  247POPC   NC3 3326   0.778   1.357   3.931  0.1490 -0.0329  0.1692
  247POPC   PO4 3327   0.814   1.100   4.351 -0.0901 -0.0399  0.0926
  247POPC   GL1 3328   0.788   1.137   4.855 -0.1826 -0.0339 -0.1547
  247POPC   GL2 3329   0.872   1.432   4.969  0.1540 -0.1254  0.0122
  247POPC   C1A 3330   0.843   1.166   5.413 -0.0481  0.1519  0.0779
  247POPC   D2A 3331   0.959   1.284   5.800 -0.2476 -0.1120  0.1131
  247POPC   C3A 3332   0.767   1.631   6.028 -0.1190 -0.0259 -0.1986
  247POPC   C4A 3333   0.856   1.783   6.491 -0.1405  0.2002  0.2925
  247POPC   C1B 3334   0.974   1.646   5.355  0.0324  0.0990 -0.2635
  247POPC   C2B 3335   1.344   1.839   5.749  0.0241  0.0603 -0.0586
  247POPC   C3B 3336   1.606   2.113   5.926  0.0288 -0.2147  0.0756
  247POPC   C4B 3337   1.581   2.450   6.291 -0.0531 -0.1291 -0.1343
  248POPC   NC3 3338   5.797   8.670   3.654  0.1869  0.1457  0.1004
  248POPC   PO4 3339   5.938   8.514   4.067 -0.1512 -0.0102 -0.0295
  248POPC   GL1 3340   5.857   8.512   4.469  0.0755  0.2293 -0.2694
  248POPC   GL2 3341   5.898   8.876   4.660 -0.1283 -0.1619  0.0725
  248POPC   C1A 3342   5.910   8.235   4.891 -0.1325  0.1995  0.2647
  248POPC   D2A 3343   5.643   8.296   5.162 -0.1917 -0.4151  0.2973
  248POPC   C3A 3344   5.672   8.046   5.536 -0.4556 -0.0223 -0.1676
  248POPC   C4A 3345   5.311   7.775   5.583 -0.1449  0.0304  0.0881
  248POPC   C1B 3346   5.739   8.827   5.059 -0.0086  0.2124 -0.1191
  248POPC   C2B 3347   5.814   9.028   5.455  0.2308  0.0086 -0.0779
  248POPC   C3B 3348   5.697   8.825   5.791 -0.1632 -0.1443  0.0886
  248POPC   C4B 3349   5.545   8.823   6.212  0.0366  0.0465 -0.2814
  249POPC   NC3 3350   9.474   7.339   4.472  0.0436  0.1727 -0.2381
  249POPC   PO4 3351   9.627   6.870   4.448 -0.0232 -0.2311  0.0396
  249POPC   GL1 3352   9.635   7.023   4.828  0.0089 -0.0723 -0.0973
  249POPC   GL2 3353   9.745   6.819   5.008 -0.1279 -0.2027  0.1650
  249POPC   C1A 3354   9.832   7.261   5.332  0.0747 -0.2148  0.0878
  249POPC   D2A 3355   9.926   7.424   5.788 -0.2411  0.3745 -0.7894
  249POPC   C3A 3356  10.032   7.402   6.247  0.5675  0.0576 -0.0356
  249POPC   C4A 3357  10.501   7.398   6.394  0.1897  0.1056  0.0145
  249POPC   C1B 3358   9.918   6.482   5.329  0.2371  0.0517 -0.5626
  249POPC   C2B 3359   9.726   6.311   5.624  0.1305  0.2237 -0.0928
  249POPC   C3B 3360   9.547   6.175   5.937  0.1817  0.0528 -0.2952
  249POPC   C4B 3361   9.663   5.916   6.374  0.1608 -0.2404 -0.1351
  250POPC   NC3 3362   7.639   1.538   4.316  0.2222  0.0459  0.2232
  250POPC   PO4 3363   8.091   1.523   4.041 -0.2171 -0.0884 -0.0132
  250POPC   GL1 3364   8.259   1.615   4.373  0.2073  0.1652  0.0168
  250POPC   GL2 3365   8.304   1.946   4.350 -0.0127 -0.2120  0.0036
  250POPC   C1A 3366   8.399   1.611   4.726  0.3514  0.0535  0.3262
  250POPC   D2A 3367   8.722   1.700   5.034  0.1177  0.4506  0.0261
  250POPC   C3A 3368   8.789   1.330   5.250  0.0408  0.0802 -0.0501
  250POPC   C4A 3369   8.874   0.890   5.416  0.3258  0.0002  0.2691
  250POPC   C1B 3370   8.283   2.056   4.796 -0.2309 -0.1907  0.5023
  250POPC   C2B 3371   8.367   2.194   5.213  0.0983  0.1245 -0.1031
  250POPC   C3B 3372   8.724   2.305   5.420  0.2383  0.1731 -0.1302
  250POPC   C4B 3373   8.879   2.227   5.873 -0.0502  0.2214  0.6165
  251POPC   NC3 3374   3.356   2.584   4.468 -0.0500  0.0595  0.1595
  251POPC   PO4 3375   3.098   2.243   4.202 -0.2365 -0.1176  0.2258
  251POPC   GL1 3376   2.701   2.312   4.406 -0.0177 -0.0880 -0.1019
  251POPC   GL2 3377   2.759   2.026   4.704 -0.0431 -0.2007 -0.1095
  251POPC   C1A 3378   2.478   2.352   4.854  0.2754 -0.0470 -0.1512
  251POPC   D2A 3379   2.583   2.246   5.209  0.0874  0.2550  0.1598
  251POPC   C3A 3380   2.356   2.159   5.504 -0.2388  0.0867 -0.0974
  251POPC   C4A 3381   2.059   2.002   5.774 -0.2234  0.0501 -0.3732
  251POPC   C1B 3382   2.622   1.741   4.931  0.1111  0.0296  0.2559
  251POPC   C2B 3383   2.779   1.488   5.367  0.4474  0.0310 -0.1771
  251POPC   C3B 3384   2.867   1.152   5.565  0.1277  0.0961  0.1485
  251POPC   C4B 3385   2.630   1.118   5.900 -0.1094 -0.1632  0.1013
  252POPC   NC3 3386   0.446   5.666   3.740 -0.0765 -0.1112  0.1528
  252POPC   PO4 3387   0.379   5.939   4.148 -0.4213  0.3429  0.1049
  252POPC   GL1 3388   0.316   5.869   4.562  0.1029 -0.0797 -0.0436
  252POPC   GL2 3389   0.568   5.628   4.623 -0.0201  0.3933  0.3009
  252POPC   C1A 3390   0.220   5.901   5.066  0.0163 -0.2273 -0.1756
  252POPC   D2A 3391   0.301   5.868   5.490 -0.0472  0.2971 -0.1236
  252POPC   C3A 3392   0.632   5.970   5.760 -0.0366 -0.0035 -0.1098
  252POPC   C4A 3393   1.059   5.928   5.692 -0.0518 -0.2561 -0.0235
  252POPC   C1B 3394   0.305   5.439   4.918  0.0337 -0.0969  0.2025
  252POPC   C2B 3395   0.342   5.309   5.344 -0.2767  0.0314 -0.0407
  252POPC   C3B 3396   0.336   4.892   5.496 -0.2026 -0.0409 -0.0264
  252POPC   C4B 3397   0.427   4.544   5.771 -0.2097  0.1074 -0.0663
  253POPC   NC3 3398   0.932   6.275   3.791  0.0993 -0.1907  0.1989
  253POPC   PO4 3399   0.912   5.936   4.016  0.1977  0.1506  0.1788
  253POPC   GL1 3400   0.971   5.867   4.367  0.0916 -0.1076 -0.0642
  253POPC   GL2 3401   1.082   5.561   4.382  0.1662 -0.0858  0.2238
  253POPC   C1A 3402   0.886   5.934   4.853  0.1102  0.1269  0.1364
  253POPC   D2A 3403   0.858   5.921   5.213  0.3126  0.2264 -0.0382
  253POPC   C3A 3404   0.774   5.597   5.502  0.2260 -0.0477  0.2789
  253POPC   C4A 3405   0.750   5.541   6.020  0.0382  0.0405  0.2206
  253POPC   C1B 3406   1.369   5.738   4.723 -0.1060 -0.1692 -0.1249
  253POPC   C2B 3407   1.326   5.949   5.031  0.0519  0.1428 -0.3464
  253POPC   C3B 3408   1.423   5.902   5.393  0.1656 -0.0514 -0.0719
  253POPC   C4B 3409   1.512   6.032   5.839 -0.1779 -0.0939 -0.2615
  254POPC   NC3 3410   3.833   1.682   4.182  0.1224  0.1575 -0.1880
  254POPC   PO4 3411   3.985   1.421   4.582 -0.2228  0.4116 -0.1689
  254POPC   GL1 3412   4.039   1.506   5.106  0.3297 -0.1420  0.2037
  254POPC   GL2 3413   4.119   1.234   5.069  0.3288 -0.1518 -0.2697
  254POPC   C1A 3414   4.111   1.781   5.419  0.1441  0.0742  0.0067
  254POPC   D2A 3415   3.994   1.780   5.804 -0.2312  0.0746 -0.2539
  254POPC   C3A 3416   4.217   2.218   5.903 -0.1131 -0.1140 -0.0260
  254POPC   C4A 3417   4.171   2.637   6.015 -0.0872 -0.1433 -0.1263
  254POPC   C1B 3418   4.070   1.168   5.568 -0.4156 -0.0381  0.5666
  254POPC   C2B 3419   4.367   1.331   5.861  0.0907 -0.1144 -0.1111
  254POPC   C3B 3420   4.642   1.460   6.178  0.2348  0.3057 -0.1519
  254POPC   C4B 3421   4.732   1.212   6.609  0.1043  0.1343  0.2588
  255POPC   NC3 3422   5.316   9.288   4.007 -0.1240 -0.2460  0.2347
  255POPC   PO4 3423   5.126   8.843   4.240  0.1732  0.5219  0.0781
  255POPC   GL1 3424   5.336   8.671   4.542 -0.1331  0.0266 -0.2277
  255POPC   GL2 3425   5.431   8.363   4.652 -0.1373  0.0108 -0.1470
  255POPC   C1A 3426   5.190   8.737   5.030 -0.0668  0.3827 -0.1686
  255POPC   D2A 3427   5.375   8.789   5.388  0.4574 -0.2099  0.0417
  255POPC   C3A 3428   5.215   8.943   5.734  0.0903  0.0144 -0.1580
  255POPC   C4A 3429   4.839   8.984   6.066  0.1905 -0.1148  0.3234
  255POPC   C1B 3430   5.182   8.193   5.039  0.1216 -0.2231 -0.1976
  255POPC   C2B 3431   5.115   8.199   5.438 -0.1297 -0.4401 -0.0557
  255POPC   C3B 3432   5.288   8.397   5.650 -0.0996  0.0907 -0.0155
  255POPC   C4B 3433   5.693   8.369   5.906  0.1860  0.0000  0.0682
  256POPC   NC3 3434   7.062   0.239   3.894  0.0605  0.1854 -0.0430
  256POPC   PO4 3435   7.434   0.300   4.274  0.0495 -0.3133  0.0309
  256POPC   GL1 3436   7.632   0.095   4.629  0.0581 -0.2087 -0.0865
  256POPC   GL2 3437   7.546   0.410   4.836 -0.1590 -0.0646 -0.1609
  256POPC   C1A 3438   7.807   0.010   5.029  0.0697  0.0831  0.0896
  256POPC   D2A 3439   7.919  -0.040   5.456  0.1486 -0.1722 -0.0701
  256POPC   C3A 3440   7.949   0.350   5.749  0.0135 -0.1658  0.1389
  256POPC   C4A 3441   7.518   0.538   5.795 -0.2926  0.0263  0.0361
  256POPC   C1B 3442   7.683   0.680   5.296 -0.0036 -0.2193  0.1320
  256POPC   C2B 3443   7.934   0.873   5.538 -0.1356 -0.1946 -0.0291
  256POPC   C3B 3444   8.335   1.085   5.697  0.0957 -0.0758 -0.0307
  256POPC   C4B 3445   8.705   1.216   5.777  0.0961  0.4736  0.2339
  257POPC   NC3 3446   5.458   7.756   3.735 -0.0019 -0.0381  0.5496
  257POPC   PO4 3447   5.045   7.642   3.538 -0.2385 -0.0830 -0.2419
  257POPC   GL1 3448   5.046   7.443   3.952 -0.0683 -0.0802 -0.0077
  257POPC   GL2 3449   5.284   7.574   4.256  0.0889  0.0705 -0.1849
  257POPC   C1A 3450   4.628   7.261   4.201 -0.1085 -0.1032  0.1558
  257POPC   D2A 3451   4.563   7.261   4.626  0.3206  0.1546  0.0817
  257POPC   C3A 3452   4.646   7.549   4.861  0.0882  0.2134 -0.1980
  257POPC   C4A 3453   5.029   7.694   5.138  0.0296 -0.2461  0.0118
  257POPC   C1B 3454   5.333   7.465   4.694 -0.2466  0.0661 -0.0961
  257POPC   C2B 3455   5.567   7.292   5.051  0.2297  0.0811  0.0516
  257POPC   C3B 3456   5.629   6.946   5.283  0.0169 -0.1476 -0.1250
  257POPC   C4B 3457   5.540   6.519   5.342 -0.3119 -0.3023  0.0242
  258POPC   NC3 3458   3.134   0.148   4.450  0.0733 -0.0790 -0.0283
  258POPC   PO4 3459   2.776  -0.156   4.522  0.0980  0.2349  0.0227
  258POPC   GL1 3460   2.778  -0.156   4.949 -0.5445 -0.0830  0.1253
  258POPC   GL2 3461   3.046  -0.393   4.986 -0.0649 -0.1598  0.2235
  258POPC   C1A 3462   2.443  -0.192   5.232 -0.0781 -0.0026 -0.0977
  258POPC   D2A 3463   2.126  -0.163   5.541  0.1917  0.1657 -0.1166
  258POPC   C3A 3464   2.027  -0.147   5.996 -0.1687 -0.1671  0.1361
  258POPC   C4A 3465   2.132  -0.082   6.373  0.0183  0.2737 -0.0183
  258POPC   C1B 3466   3.275  -0.678   5.274  0.0220 -0.3878  0.1007
  258POPC   C2B 3467   3.057  -0.968   5.650  0.2795  0.0761 -0.1425
  258POPC   C3B 3468   3.168  -1.126   6.094  0.0680  0.1217 -0.1976
  258POPC   C4B 3469   3.179  -1.140   6.634 -0.2422  0.3101 -0.0033
  259POPC   NC3 3470   5.560   6.165   3.466 -0.0216 -0.0304 -0.0937
  259POPC   PO4 3471   5.928   6.067   3.735 -0.2508  0.3786  0.0376
  259POPC   GL1 3472   5.867   6.025   4.132  0.1896 -0.2950 -0.1263
  259POPC   GL2 3473   5.748   5.737   4.143  0.1294 -0.1323 -0.0297
  259POPC   C1A 3474   5.950   6.114   4.478 -0.1244 -0.0654  0.0486
  259POPC   D2A 3475   6.155   6.145   4.901 -0.0499  0.2928  0.5354
  259POPC   C3A 3476   6.234   5.887   5.289 -0.1140 -0.1311  0.0908
  259POPC   C4A 3477   6.465   5.451   5.325  0.2209  0.2563 -0.2353
  259POPC   C1B 3478   5.368   5.886   4.400  0.2531  0.2741 -0.1842
  259POPC   C2B 3479   5.027   6.099   4.668  0.0839 -0.1235 -0.1634
  259POPC   C3B 3480   4.630   6.308   4.675 -0.1069  0.1170  0.0599
  259POPC   C4B 3481   4.218   6.333   4.768 -0.0753  0.0052  0.0602
  260POPC   NC3 3482   7.818   6.487   4.221  0.2495  0.1383 -0.0764
  260POPC   PO4 3483   7.624   6.900   4.309  0.1185  0.0048  0.2345
  260POPC   GL1 3484   7.579   6.820   4.665 -0.3730 -0.0833  0.1970
  260POPC   GL2 3485   7.476   6.480   4.543  0.3052  0.1828 -0.3581
  260POPC   C1A 3486   7.700   6.720   5.125 -0.0452 -0.1903 -0.0180
  260POPC   D2A 3487   7.922   6.572   5.509 -0.0943 -0.1434 -0.0231
  260POPC   C3A 3488   7.640   6.354   5.898 -0.1431 -0.0666  0.4814
  260POPC   C4A 3489   7.330   6.108   6.078  0.1836 -0.0553  0.2586
  260POPC   C1B 3490   7.350   6.470   4.924  0.0598  0.2155  0.0228
  260POPC   C2B 3491   6.997   6.365   5.307  0.1393 -0.1096  0.0361
  260POPC   C3B 3492   7.038   6.355   5.730  0.4152 -0.2136 -0.0116
  260POPC   C4B 3493   6.872   6.249   6.052 -0.2306  0.1780  0.3372
  261POPC   NC3 3494   1.887   9.538   3.846  0.0341  0.2451  0.0564
  261POPC   PO4 3495   1.991   9.894   3.985 -0.0859  0.2806 -0.2255
  261POPC   GL1 3496   1.973   9.962   4.500 -0.1318 -0.2584  0.1741
  261POPC   GL2 3497   2.056  10.291   4.331 -0.2595  0.0454 -0.1390
  261POPC   C1A 3498   1.948   9.918   4.912  0.2597 -0.3020 -0.3238
  261POPC   D2A 3499   1.920   9.955   5.421  0.0226  0.3969  0.0878
  261POPC   C3A 3500   1.639   9.828   5.711 -0.1084  0.1144  0.2153
  261POPC   C4A 3501   1.357   9.619   6.069 -0.3094  0.1212 -0.4168
  261POPC   C1B 3502   2.114  10.343   4.801 -0.0901 -0.0273  0.0972
  261POPC   C2B 3503   2.108  10.378   5.294 -0.0144  0.0799  0.1552
  261POPC   C3B 3504   2.212  10.502   5.763  0.2144 -0.0457  0.1384
  261POPC   C4B 3505   2.304  10.582   6.208 -0.0555 -0.0524 -0.2708
  262POPC   NC3 3506   9.217   4.693   4.228 -0.2637 -0.1535 -0.0671
  262POPC   PO4 3507   9.036   4.175   4.248  0.0727  0.0638  0.3016
  262POPC   GL1 3508   8.895   4.170   4.631 -0.0517 -0.0144 -0.3292
  262POPC   GL2 3509   9.228   3.997   4.865 -0.1593 -0.2254  0.1001
  262POPC   C1A 3510   8.740   4.279   5.123 -0.0797 -0.2744 -0.1274
  262POPC   D2A 3511   8.414   4.301   5.387  0.0530 -0.3032 -0.0941
  262POPC   C3A 3512   8.247   4.300   5.809  0.1160 -0.0009  0.0376
  262POPC   C4A 3513   8.286   4.449   6.246 -0.2368  0.2994 -0.0078
  262POPC   C1B 3514   9.147   3.932   5.279  0.2788 -0.1470  0.0003
  262POPC   C2B 3515   8.824   3.939   5.633  0.1616  0.2785 -0.0003
  262POPC   C3B 3516   8.935   3.730   6.006  0.0986  0.1941 -0.1223
  262POPC   C4B 3517   9.039   3.750   6.429  0.2659  0.2245  0.0875
  263POPC   NC3 3518   1.384   8.846   4.366 -0.0413  0.1728 -0.1414
  263POPC   PO4 3519   1.201   8.482   4.296 -0.0181 -0.1670 -0.0534
  263POPC   GL1 3520   1.404   8.303   4.700 -0.2362 -0.1573  0.1940
  263POPC   GL2 3521   1.613   8.460   4.828 -0.0066 -0.0724 -0.1895
  263POPC   C1A 3522   1.237   8.224   5.048 -0.0645  0.3959  0.1277
  263POPC   D2A 3523   1.173   8.288   5.492  0.0340 -0.2297  0.0683
  263POPC   C3A 3524   1.587   8.220   5.617 -0.0634 -0.2776  0.1957
  263POPC   C4A 3525   1.838   8.135   5.974 -0.1919 -0.1929 -0.0414
  263POPC   C1B 3526   1.600   8.583   5.210  0.0541 -0.0483  0.2238
  263POPC   C2B 3527   1.612   8.733   5.598  0.4246 -0.0819 -0.1434
  263POPC   C3B 3528   1.617   8.698   6.075 -0.1278  0.1208 -0.0007
  263POPC   C4B 3529   1.884   8.664   6.339 -0.4648 -0.1407  0.1009
  264POPC   NC3 3530   9.533   2.441   4.521  0.1897  0.1615  0.3291
  264POPC   PO4 3531   9.969   2.355   4.280  0.2016 -0.2758 -0.1510
  264POPC   GL1 3532   9.950   2.139   4.708  0.1058  0.0953  0.1779
  264POPC   GL2 3533  10.209   2.305   4.943 -0.1766 -0.3491 -0.2682
  264POPC   C1A 3534   9.819   2.243   5.225  0.1655  0.2035  0.0133
  264POPC   D2A 3535   9.690   2.520   5.694  0.0147  0.2100  0.1035
  264POPC   C3A 3536   9.990   2.661   5.945 -0.2608 -0.4043  0.1313
  264POPC   C4A 3537  10.417   2.571   5.984 -0.2347 -0.0505  0.5115
  264POPC   C1B 3538  10.462   2.278   5.272 -0.0725 -0.0235  0.0092
  264POPC   C2B 3539  10.622   2.081   5.688  0.2913 -0.3138  0.1413
  264POPC   C3B 3540  10.842   2.067   6.120 -0.1678  0.1942 -0.0850
  264POPC   C4B 3541  11.159   1.924   6.408 -0.1219  0.0935  0.2516
  265POPC   NC3 3542   5.673   0.974   4.197  0.1121 -0.1837  0.2300
  265POPC   PO4 3543   5.503   1.421   4.160 -0.0443 -0.3951 -0.2448
  265POPC   GL1 3544   5.415   1.366   4.541 -0.0124 -0.0868 -0.1224
  265POPC   GL2 3545   5.768   1.108   4.705 -0.0917  0.2268 -0.0720
  265POPC   C1A 3546   5.325   1.319   4.960 -0.3350 -0.1739 -0.1005
  265POPC   D2A 3547   5.292   1.177   5.303  0.2409 -0.2738 -0.4053
  265POPC   C3A 3548   5.383   1.281   5.691  0.1648 -0.0274  0.0625
  265POPC   C4A 3549   5.621   1.523   5.901  0.1000 -0.3042 -0.0510
  265POPC   C1B 3550   5.800   0.889   5.166  0.0350  0.0017 -0.3263
  265POPC   C2B 3551   5.628   0.869   5.673  0.1050  0.0507  0.2333
  265POPC   C3B 3552   5.541   1.053   6.122  0.0858  0.0730  0.1781
  265POPC   C4B 3553   5.618   1.325   6.416  0.0325  0.4393  0.1418
  266POPC   NC3 3554   4.565   8.683   4.123 -0.1780  0.3304  0.3192
  266POPC   PO4 3555   4.178   8.488   3.791  0.0491  0.0584  0.0643
  266POPC   GL1 3556   4.123   8.312   4.229  0.0532  0.0681  0.2291
  266POPC   GL2 3557   4.408   8.130   4.365 -0.0392  0.2170  0.0374
  266POPC   C1A 3558   3.863   8.016   4.455 -0.3067 -0.1818 -0.2821
  266POPC   D2A 3559   3.410   7.945   4.669  0.3553 -0.0428  0.1290
  266POPC   C3A 3560   3.269   7.607   4.886  0.0944 -0.1796  0.0846
  266POPC   C4A 3561   3.401   7.420   5.271  0.0347 -0.2703  0.1122
  266POPC   C1B 3562   4.277   7.863   4.654 -0.3856  0.2683  0.0049
  266POPC   C2B 3563   4.106   7.784   5.081 -0.1139  0.1344 -0.0743
  266POPC   C3B 3564   4.095   8.103   5.461  0.1849  0.0243  0.1632
  266POPC   C4B 3565   4.263   8.430   5.871 -0.0448 -0.0455 -0.1695
  267POPC   NC3 3566   8.795   4.794   3.910 -0.0175  0.0400  0.2256
  267POPC   PO4 3567   8.325   4.843   4.081  0.0678  0.0735 -0.1361
  267POPC   GL1 3568   8.230   5.071   4.475 -0.2769  0.2666  0.0998
  267POPC   GL2 3569   7.986   5.306   4.544 -0.2989  0.1496  0.1504
  267POPC   C1A 3570   8.170   4.853   4.797  0.0431 -0.1415  0.0449
  267POPC   D2A 3571   8.270   4.392   4.917 -0.0964 -0.1993 -0.1989
  267POPC   C3A 3572   8.164   4.035   5.067  0.1771 -0.0678  0.0033
  267POPC   C4A 3573   7.816   4.081   5.375 -0.1930 -0.0678 -0.2196
  267POPC   C1B 3574   7.821   5.210   4.900 -0.0421  0.3165  0.0716
  267POPC   C2B 3575   7.719   4.981   5.204 -0.2005 -0.0685 -0.0513
  267POPC   C3B 3576   7.454   4.775   5.587  0.0066  0.1674 -0.0695
  267POPC   C4B 3577   7.088   4.427   5.772 -0.1680 -0.1991 -0.0683
  268POPC   NC3 3578   1.038   1.533   4.462  0.1266  0.1499 -0.1692
  268POPC   PO4 3579   0.871   1.891   4.259  0.1072 -0.1622  0.0146
  268POPC   GL1 3580   0.731   1.933   4.627 -0.0474  0.3433 -0.1923
  268POPC   GL2 3581   0.964   1.905   4.842  0.1635 -0.2466  0.1835
  268POPC   C1A 3582   0.499   1.822   5.096  0.0399 -0.0121  0.3345
  268POPC   D2A 3583   0.519   1.789   5.527  0.0958  0.1515 -0.1376
  268POPC   C3A 3584   0.254   1.632   5.927 -0.1548  0.0730  0.0056
  268POPC   C4A 3585   0.346   1.356   6.197 -0.0817  0.0379  0.0533
  268POPC   C1B 3586   1.238   2.074   5.178  0.2116 -0.0051  0.0763
  268POPC   C2B 3587   1.644   1.850   5.298  0.4349  0.0923 -0.2331
  268POPC   C3B 3588   1.877   1.609   5.560 -0.1739 -0.1928 -0.0603
  268POPC   C4B 3589   1.767   1.633   6.072  0.4035 -0.1222 -0.0357
  269POPC   NC3 3590   9.205   0.471   4.490  0.2763 -0.1525 -0.0166
  269POPC   PO4 3591   9.557   0.754   4.637 -0.1467 -0.1633 -0.1293
  269POPC   GL1 3592   9.702   0.862   4.988  0.0186  0.0060 -0.0854
  269POPC   GL2 3593   9.679   1.168   4.932 -0.2196 -0.0784  0.0926
  269POPC   C1A 3594   9.874   0.894   5.400 -0.2352 -0.3951  0.1679
  269POPC   D2A 3595   9.932   0.597   5.747  0.1126  0.0375 -0.0624
  269POPC   C3A 3596  10.097   0.868   6.055  0.2050 -0.0197 -0.0166
  269POPC   C4A 3597   9.963   0.974   6.395 -0.1486  0.1227 -0.0325
  269POPC   C1B 3598   9.314   1.133   5.230 -0.0083  0.2824  0.1511
  269POPC   C2B 3599   9.208   1.211   5.633 -0.0422  0.0809  0.0409
  269POPC   C3B 3600   9.125   1.221   6.067  0.0644 -0.1360 -0.1079
  269POPC   C4B 3601   9.344   1.341   6.314 -0.1898  0.0370 -0.5130
  270POPC   NC3 3602   5.924   2.812   4.192  0.0333  0.0373 -0.2007
  270POPC   PO4 3603   6.014   3.200   4.405  0.0997  0.1374  0.2630
  270POPC   GL1 3604   6.058   2.995   4.791 -0.0050 -0.0808 -0.0615
  270POPC   GL2 3605   5.831   3.168   4.896 -0.2093  0.1894 -0.0591
  270POPC   C1A 3606   6.288   2.983   5.139  0.2057 -0.2143 -0.1923
  270POPC   D2A 3607   6.556   2.784   5.533  0.5542 -0.3653  0.0236
  270POPC   C3A 3608   6.381   2.499   5.824 -0.1054 -0.2048 -0.1928
  270POPC   C4A 3609   6.077   2.358   6.094 -0.1266  0.0383  0.1292
  270POPC   C1B 3610   5.810   3.257   5.265 -0.0391  0.4709  0.0406
  270POPC   C2B 3611   5.819   3.232   5.871 -0.0385  0.1635 -0.1402
  270POPC   C3B 3612   5.913   3.290   6.276  0.1315 -0.2378 -0.0259
  270POPC   C4B 3613   6.228   3.580   6.429 -0.0162 -0.2878 -0.0158
  271POPC   NC3 3614   2.862   5.119   3.444  0.1133  0.2891  0.1659
  271POPC   PO4 3615   2.899   4.828   3.751  0.2905  0.2366  0.0631
  271POPC   GL1 3616   3.149   4.707   4.083 -0.1584 -0.3225 -0.0202
  271POPC   GL2 3617   2.911   4.522   4.283 -0.1977 -0.0040 -0.0285
  271POPC   C1A 3618   3.412   4.591   4.366 -0.2650  0.2886  0.0388
  271POPC   D2A 3619   3.672   4.727   4.635 -0.0040  0.1646 -0.0848
  271POPC   C3A 3620   3.475   4.982   4.952  0.1439 -0.0267 -0.1040
  271POPC   C4A 3621   3.286   5.279   5.144  0.3223  0.0984 -0.1364
  271POPC   C1B 3622   2.897   4.702   4.690  0.1523  0.0513 -0.3531
  271POPC   C2B 3623   2.770   5.000   5.025 -0.0049  0.0013 -0.0771
  271POPC   C3B 3624   2.679   5.048   5.460  0.1254  0.0804 -0.2226
  271POPC   C4B 3625   2.747   5.449   5.667  0.0765  0.1620  0.4619
  272POPC   NC3 3626   3.286   0.663   4.275  0.1935 -0.1415 -0.0658
  272POPC   PO4 3627   3.622   0.405   4.469 -0.0500  0.1455 -0.2543
  272POPC   GL1 3628   3.362   0.434   4.752 -0.0916  0.1365 -0.0442
  272POPC   GL2 3629   3.231   0.126   4.968  0.4318 -0.0059  0.0591
  272POPC   C1A 3630   3.138   0.613   5.063 -0.0466 -0.1609  0.0363
  272POPC   D2A 3631   3.159   0.387   5.441  0.0346 -0.1012 -0.0746
  272POPC   C3A 3632   2.856   0.090   5.524 -0.0481  0.1211  0.2634
  272POPC   C4A 3633   2.476  -0.048   5.860 -0.3706 -0.0160  0.2911
  272POPC   C1B 3634   3.365  -0.089   5.370  0.0938  0.0261  0.0044
  272POPC   C2B 3635   3.401  -0.401   5.703 -0.0596 -0.1088 -0.0701
  272POPC   C3B 3636   3.430  -0.637   5.993 -0.0969 -0.2925  0.1371
  272POPC   C4B 3637   3.461  -0.674   6.494 -0.0330  0.1644  0.4069
  273POPC   NC3 3638   7.289   6.209   3.528  0.2341 -0.3216 -0.0369
  273POPC   PO4 3639   6.922   6.128   3.814  0.0015  0.1084  0.0266
  273POPC   GL1 3640   6.798   6.013   4.190  0.0528  0.1757 -0.1290
  273POPC   GL2 3641   6.967   6.301   4.327  0.0169  0.1455 -0.1720
  273POPC   C1A 3642   6.511   5.925   4.574  0.2988 -0.1337 -0.1605
  273POPC   D2A 3643   6.397   5.665   4.897  0.1108  0.1133 -0.0342
  273POPC   C3A 3644   6.217   5.297   4.890 -0.4187  0.1202 -0.2684
  273POPC   C4A 3645   6.139   4.901   4.908  0.3866  0.1429 -0.1837
  273POPC   C1B 3646   6.883   6.345   4.709  0.0850 -0.0013 -0.2170
  273POPC   C2B 3647   6.743   6.043   5.070  0.0069  0.0315  0.0046
  273POPC   C3B 3648   6.768   5.960   5.530  0.1513  0.0131 -0.0959
  273POPC   C4B 3649   6.496   5.678   5.801 -0.2945 -0.1199 -0.4003
  274POPC   NC3 3650   4.235   3.553   4.073 -0.0989  0.1174  0.0678
  274POPC   PO4 3651   3.902   3.365   4.238  0.1991  0.3569 -0.3992
  274POPC   GL1 3652   3.764   3.179   4.684 -0.0846  0.2851 -0.0337
  274POPC   GL2 3653   3.532   3.265   4.687 -0.0296  0.3825 -0.1328
  274POPC   C1A 3654   3.844   3.119   5.171 -0.0537 -0.2243  0.1435
  274POPC   D2A 3655   3.605   3.061   5.486 -0.0854  0.2359  0.2832
  274POPC   C3A 3656   3.546   2.994   6.047 -0.0349 -0.2540  0.2890
  274POPC   C4A 3657   3.669   3.393   6.362  0.0839 -0.3031 -0.0427
  274POPC   C1B 3658   3.475   3.505   5.019  0.2346  0.2770 -0.2861
  274POPC   C2B 3659   3.427   3.602   5.531  0.1840  0.1865 -0.0039
  274POPC   C3B 3660   3.490   4.018   5.749 -0.0891  0.1838 -0.0802
  274POPC   C4B 3661   3.667   4.292   5.982 -0.0349  0.0001 -0.1203
  275POPC   NC3 3662   0.218   6.430   4.209  0.0439 -0.0064 -0.0836
  275POPC   PO4 3663   0.635   6.383   4.181  0.0417  0.1227 -0.3372
  275POPC   GL1 3664   0.677   6.225   4.534 -0.0498 -0.1850 -0.1556
  275POPC   GL2 3665   0.815   6.573   4.752 -0.0242 -0.0117  0.0557
  275POPC   C1A 3666   0.531   6.255   4.992 -0.3786  0.0558  0.1250
  275POPC   D2A 3667   0.662   6.337   5.428 -0.2995  0.1017 -0.0826
  275POPC   C3A 3668   0.487   6.536   5.773  0.2763 -0.0221 -0.0676
  275POPC   C4A 3669   0.417   6.876   5.651  0.0228  0.0554 -0.1967
  275POPC   C1B 3670   1.016   6.377   5.067  0.1543 -0.1480  0.1625
  275POPC   C2B 3671   1.171   6.342   5.428  0.3340 -0.0633 -0.0655
  275POPC   C3B 3672   1.377   6.561   5.839  0.1462  0.0154 -0.0942
  275POPC   C4B 3673   1.454   6.713   6.290 -0.2567  0.1734 -0.0732
  276POPC   NC3 3674   9.061   9.300   4.270  0.0074  0.1679 -0.0087
  276POPC   PO4 3675   9.115   9.759   4.295  0.2520 -0.0620 -0.0348
  276POPC   GL1 3676   8.975   9.667   4.668  0.1140 -0.0222 -0.1075
  276POPC   GL2 3677   8.661   9.713   4.876  0.1186  0.1656  0.4053
  276POPC   C1A 3678   9.213   9.673   5.027  0.1865 -0.0232  0.1733
  276POPC   D2A 3679   9.316   9.659   5.489  0.2766  0.0746  0.0169
  276POPC   C3A 3680   9.521   9.982   5.820  0.1743  0.0240  0.0840
  276POPC   C4A 3681   9.794  10.073   6.212  0.1191  0.1541  0.4836
  276POPC   C1B 3682   8.814   9.708   5.337 -0.0244  0.2725  0.0899
  276POPC   C2B 3683   9.036  10.008   5.628 -0.2990  0.2237 -0.0769
  276POPC   C3B 3684   8.980  10.402   5.923 -0.2264  0.2607 -0.1654
  276POPC   C4B 3685   9.034  10.479   6.324 -0.0881 -0.1479 -0.1787
  277POPC   NC3 3686   7.531   9.375   4.439  0.1806 -0.3099 -0.1522
  277POPC   PO4 3687   7.975   9.424   4.319 -0.0012  0.0929 -0.1278
  277POPC   GL1 3688   8.080   9.399   4.713  0.1368  0.0038 -0.0577
  277POPC   GL2 3689   7.952   9.204   4.756  0.2495 -0.1232  0.1828
  277POPC   C1A 3690   8.322   9.457   5.158 -0.3090  0.3591  0.2094
  277POPC   D2A 3691   8.429   9.664   5.680 -0.3231 -0.2424  0.1101
  277POPC   C3A 3692   8.518   9.403   6.044  0.0753 -0.0176  0.1032
  277POPC   C4A 3693   8.653   9.126   6.351  0.0476  0.0238 -0.0589
  277POPC   C1B 3694   7.859   9.148   5.155  0.0535  0.2901 -0.0412
  277POPC   C2B 3695   7.831   9.234   5.639  0.1242 -0.1251 -0.0991
  277POPC   C3B 3696   7.786   8.963   5.971  0.0376 -0.1978 -0.1370
  277POPC   C4B 3697   7.812   9.001   6.419  0.1060 -0.0130  0.2674
  278POPC   NC3 3698   2.696   8.713   3.959  0.0883 -0.1002  0.0356
  278POPC   PO4 3699   2.798   8.948   4.378  0.0139  0.0916 -0.3919
  278POPC   GL1 3700   2.738   8.946   4.762  0.0639  0.0401 -0.1603
  278POPC   GL2 3701   2.481   9.063   4.894  0.1522  0.4737  0.0280
  278POPC   C1A 3702   2.829   8.627   5.031 -0.0266  0.1709  0.2264
  278POPC   D2A 3703   2.960   8.305   5.360 -0.3102  0.2431  0.1256
  278POPC   C3A 3704   3.295   8.307   5.638 -0.2480  0.2593  0.2731
  278POPC   C4A 3705   3.673   8.268   5.692  0.0035 -0.1251 -0.0051
  278POPC   C1B 3706   2.738   9.108   5.294 -0.0082  0.1001  0.0808
  278POPC   C2B 3707   2.819   9.206   5.642 -0.0254 -0.0328  0.0973
  278POPC   C3B 3708   2.999   9.400   6.029  0.1653 -0.1442  0.0751
  278POPC   C4B 3709   3.141   9.405   6.492  0.0974 -0.1134  0.0630
  279POPC   NC3 3710   8.439   4.215   4.466  0.0301 -0.1274  0.2520
  279POPC   PO4 3711   8.663   4.580   4.364 -0.1725 -0.2388  0.2739
  279POPC   GL1 3712   8.669   4.680   4.749 -0.1485 -0.1864  0.1021
  279POPC   GL2 3713   8.933   4.633   4.843  0.0251 -0.0839  0.4345
  279POPC   C1A 3714   8.501   4.771   5.169  0.2460 -0.1816 -0.2087
  279POPC   D2A 3715   8.568   4.741   5.628  0.0092 -0.0181  0.0194
  279POPC   C3A 3716   8.973   4.419   5.722 -0.1036  0.1174 -0.0970
  279POPC   C4A 3717   9.295   4.360   5.932  0.0030  0.0544 -0.5705
  279POPC   C1B 3718   8.977   4.647   5.236 -0.0967  0.0889 -0.2095
  279POPC   C2B 3719   9.134   4.839   5.492  0.0685 -0.0592 -0.2796
  279POPC   C3B 3720   9.433   4.879   5.870 -0.0965  0.0361  0.2483
  279POPC   C4B 3721   9.905   4.968   5.932  0.3258 -0.0225 -0.1242
  280POPC   NC3 3722   1.402   7.636   3.760  0.4929  0.0681 -0.2756
  280POPC   PO4 3723   1.317   8.015   4.033  0.1661 -0.1068 -0.2656
  280POPC   GL1 3724   1.577   7.839   4.427 -0.1047 -0.1838  0.1283
  280POPC   GL2 3725   1.629   7.490   4.478  0.0463  0.2603  0.0908
  280POPC   C1A 3726   1.561   7.745   4.891  0.0216 -0.1657  0.5734
  280POPC   D2A 3727   1.553   7.902   5.285  0.1580 -0.0744  0.1366
  280POPC   C3A 3728   2.008   7.906   5.549  0.0182 -0.0397 -0.3010
  280POPC   C4A 3729   2.149   7.669   5.991 -0.2451  0.0665 -0.3520
  280POPC   C1B 3730   1.812   7.238   4.723  0.5622 -0.1751  0.0967
  280POPC   C2B 3731   2.135   7.141   5.047 -0.2245  0.0232 -0.2408
  280POPC   C3B 3732   2.467   7.047   5.388 -0.3421 -0.0120  0.2112
  280POPC   C4B 3733   2.817   7.336   5.594 -0.2665 -0.1005  0.1622
  281POPC   NC3 3734   1.409   2.133   4.129 -0.2273  0.1494 -0.0856
  281POPC   PO4 3735   1.269   2.201   4.484 -0.0597  0.0899  0.1955
  281POPC   GL1 3736   1.326   2.367   4.832 -0.3091  0.1318 -0.0879
  281POPC   GL2 3737   1.022   2.477   4.917  0.0109 -0.2067 -0.0351
  281POPC   C1A 3738   1.642   2.516   5.095  0.3604 -0.0767 -0.1290
  281POPC   D2A 3739   1.782   2.769   5.580  0.0993 -0.0904  0.2024
  281POPC   C3A 3740   1.858   3.179   5.744 -0.3586 -0.0547 -0.1825
  281POPC   C4A 3741   2.015   3.551   5.899  0.1390 -0.3637  0.0639
  281POPC   C1B 3742   1.124   2.608   5.334  0.2116 -0.1429 -0.4142
  281POPC   C2B 3743   0.986   2.950   5.547 -0.2468 -0.1259 -0.2201
  281POPC   C3B 3744   1.014   3.376   5.881  0.1030  0.2726  0.0128
  281POPC   C4B 3745   1.128   3.862   5.791 -0.0286  0.0541  0.1520
  282POPC   NC3 3746   2.073   8.265   4.119  0.0901  0.2233 -0.2398
  282POPC   PO4 3747   2.202   8.570   3.996  0.1298 -0.2002 -0.0025
  282POPC   GL1 3748   2.486   8.496   4.340  0.1719 -0.2429 -0.2332
  282POPC   GL2 3749   2.743   8.420   4.328 -0.1819  0.1874 -0.1320
  282POPC   C1A 3750   2.473   8.329   4.855  0.1112 -0.0077  0.0807
  282POPC   D2A 3751   2.359   7.942   5.139  0.0727 -0.0698 -0.0847
  282POPC   C3A 3752   2.422   8.179   5.496 -0.0839 -0.0884 -0.0755
  282POPC   C4A 3753   2.330   8.188   5.983  0.4086  0.1309 -0.0262
  282POPC   C1B 3754   3.094   8.254   4.436 -0.0455 -0.0402 -0.3977
  282POPC   C2B 3755   3.503   8.385   4.376  0.2026  0.0304 -0.2072
  282POPC   C3B 3756   3.853   8.489   4.670  0.0050  0.0992 -0.1839
  282POPC   C4B 3757   4.205   8.297   4.915 -0.0266  0.2338  0.0993
  283POPC   NC3 3758   0.963   4.302   4.312  0.2424 -0.0638 -0.0270
  283POPC   PO4 3759   0.990   3.863   4.334  0.3523  0.1189 -0.2133
  283POPC   GL1 3760   0.992   4.007   4.823 -0.1615 -0.1015  0.2149
  283POPC   GL2 3761   1.068   4.301   4.844  0.0180  0.1944  0.1333
  283POPC   C1A 3762   1.279   3.932   5.246 -0.0082  0.0480 -0.3299
  283POPC   D2A 3763   1.539   3.613   5.550  0.2705 -0.1299 -0.4112
  283POPC   C3A 3764   1.844   3.456   5.335 -0.3184 -0.1239  0.1282
  283POPC   C4A 3765   2.254   3.547   5.135 -0.2544 -0.0116  0.2740
  283POPC   C1B 3766   1.361   4.365   5.023 -0.0365 -0.0723 -0.2521
  283POPC   C2B 3767   1.283   4.421   5.390  0.1459 -0.0532 -0.1183
  283POPC   C3B 3768   1.416   4.289   5.882  0.0952  0.0521 -0.1076
  283POPC   C4B 3769   1.292   4.260   6.282 -0.0632 -0.0319 -0.0851
  284POPC   NC3 3770   8.117   7.784   4.335 -0.0002  0.1841  0.1790
  284POPC   PO4 3771   7.763   8.085   4.364 -0.0592  0.0057 -0.3792
  284POPC   GL1 3772   8.030   8.118   4.757 -0.0559  0.2651  0.2080
  284POPC   GL2 3773   7.958   8.105   5.054  0.2642 -0.2091  0.2397
  284POPC   C1A 3774   8.404   8.393   5.048 -0.1801  0.1896 -0.4298
  284POPC   D2A 3775   8.531   8.512   5.519 -0.0629 -0.0955 -0.1065
  284POPC   C3A 3776   8.900   8.338   5.719  0.1341  0.0812 -0.2789
  284POPC   C4A 3777   9.217   8.570   5.990 -0.0854 -0.0904  0.2248
  284POPC   C1B 3778   7.928   7.681   5.379  0.0668 -0.1687 -0.0096
  284POPC   C2B 3779   7.710   7.554   5.798  0.1441  0.2162  0.0441
  284POPC   C3B 3780   7.515   7.443   6.161 -0.1111  0.2205 -0.3913
  284POPC   C4B 3781   7.145   7.245   6.413 -0.2245 -0.0708 -0.0189
  285POPC   NC3 3782   1.465   3.627   4.197  0.0288 -0.0343 -0.0444
  285POPC   PO4 3783   1.816   3.903   3.930  0.0955 -0.0536 -0.0062
  285POPC   GL1 3784   1.869   3.938   4.408  0.1054 -0.1707  0.0650
  285POPC   GL2 3785   1.623   3.796   4.646  0.1852 -0.0067 -0.1590
  285POPC   C1A 3786   1.880   4.295   4.780 -0.0810  0.1953 -0.0378
  285POPC   D2A 3787   1.799   4.760   4.965 -0.0850 -0.0679  0.0316
  285POPC   C3A 3788   1.701   4.794   5.409 -0.1316 -0.0338 -0.3073
  285POPC   C4A 3789   1.844   4.501   5.679  0.2540 -0.2339  0.0521
  285POPC   C1B 3790   1.748   3.849   5.057  0.0444  0.0135 -0.0125
  285POPC   C2B 3791   1.741   4.127   5.306  0.2191 -0.1425  0.0800
  285POPC   C3B 3792   2.078   3.961   5.539  0.5675 -0.2858  0.0267
  285POPC   C4B 3793   2.287   4.304   5.762  0.1637  0.1827  0.2152
  286POPC   NC3 3794   7.842   5.006   4.080  0.2245 -0.2488  0.0577
  286POPC   PO4 3795   7.391   5.147   4.082 -0.0944 -0.0631  0.0646
  286POPC   GL1 3796   7.488   5.127   4.504  0.0837 -0.0627 -0.0132
  286POPC   GL2 3797   7.130   5.287   4.568 -0.2471  0.0273  0.1324
  286POPC   C1A 3798   7.574   4.799   4.725  0.0611 -0.2299 -0.1307
  286POPC   D2A 3799   7.707   4.507   5.045  0.0359 -0.1368  0.0583
  286POPC   C3A 3800   7.962   4.596   5.427  0.0645 -0.1512 -0.1944
  286POPC   C4A 3801   8.091   4.994   5.709  0.0262  0.1018 -0.1680
  286POPC   C1B 3802   7.357   5.181   4.982  0.1292  0.0649 -0.1572
  286POPC   C2B 3803   7.507   5.532   5.216  0.0722  0.0229  0.0238
  286POPC   C3B 3804   7.800   5.465   5.495  0.0348 -0.1522 -0.2261
  286POPC   C4B 3805   7.747   5.245   5.938  0.0751  0.0414  0.0897
  287W        W 3806   6.112   3.019   0.586 -0.1640 -0.3742 -0.1947
  288W        W 3807   0.959   5.526   3.688  0.1636 -0.0136  0.1363
  289W        W 3808   0.255   2.664  10.181 -0.0471  0.0418 -0.1052
  290W        W 3809   7.628   8.799   1.086 -0.0014  0.0029  0.1119
  291W        W 3810   6.099   4.190   0.660  0.0377  0.0312 -0.1598
  292W        W 3811   6.554   3.327   3.583 -0.0464  0.1144 -0.1675
  293W        W 3812   0.974   5.801   0.253  0.1250  0.1521 -0.1951
  294W        W 3813   7.386   6.083   7.620 -0.0295 -0.3522 -0.0490
  295W        W 3814   3.296   3.844   0.465  0.0838 -0.0550  0.3555
  296W        W 3815   6.022   7.704   9.352  0.2292 -0.1806 -0.1191
  297W        W 3816   4.079   4.129  12.040  0.0250  0.0249  0.1417
  298W        W 3817   9.448   6.137  11.109 -0.1239  0.1181  0.1020
  299W        W 3818   0.766   6.957  10.410  0.4306  0.0494 -0.0903
  300W        W 3819   2.966   0.526   9.301  0.1827  0.1149  0.0207
  301W        W 3820   0.277   0.862   8.627  0.5105 -0.1526  0.3585
  302W        W 3821   8.437   1.112   9.566 -0.0824 -0.2027  0.0023
  303W        W 3822   6.876   8.085  11.717 -0.3323  0.1683  0.0263
  304W        W 3823   1.819   5.296  12.348  0.2915 -0.2526  0.1529
  305W        W 3824   7.957   9.510   3.817 -0.2364 -0.1378  0.1605
  306W        W 3825   5.637   0.111  12.224  0.2487  0.1776  0.0523
  307W        W 3826   7.555   4.264   2.063 -0.2301  0.0252 -0.2762
  308W        W 3827   7.722   4.943  10.532  0.1610  0.2678 -0.2600
  309W        W 3828   2.578   9.312   8.105 -0.4769 -0.1784  0.3842
  310W        W 3829   2.403   1.945   9.532  0.2833 -0.2485  0.1947
  311W        W 3830   4.998   3.899   9.135 -0.1858 -0.2249 -0.5190
  312W        W 3831   3.240   2.225   8.093  0.1062  0.0787  0.0419
  313W        W 3832   7.129   2.828  11.650  0.1137  0.2231 -0.0706
  314W        W 3833   9.247   7.341   3.544  0.0563  0.2521 -0.0769
  315W        W 3834   0.816   6.719   9.655 -0.1014  0.1518  0.0326
  316W        W 3835   0.989   8.389  12.377 -0.1128 -0.3569  0.2443
  317W        W 3836   1.881   2.667   9.328 -0.1476 -0.1151  0.1839
  318W        W 3837   0.581   1.432   9.220 -0.0408  0.0747 -0.1199
  319W        W 3838   3.819   4.406   3.702 -0.3483  0.1908  0.0621
  320W        W 3839   9.098   6.334  11.885 -0.0928 -0.1654 -0.3745
  321W        W 3840   6.646   4.624   9.458 -0.0618  0.1481 -0.1401
  322W        W 3841   4.499   2.080  11.403  0.0295 -0.1856 -0.1007
  323W        W 3842   4.711   6.495   1.234  0.0510 -0.1269  0.1856
  324W        W 3843   0.535   0.839   2.808 -0.0127  0.1609  0.1962
  325W        W 3844   4.860   0.134   9.294  0.2465 -0.0899  0.2225
  326W        W 3845   3.594   7.557   9.135 -0.0851  0.0314  0.0261
  327W        W 3846   7.866   8.188   8.384  0.0056 -0.1350 -0.0541
  328W        W 3847   9.394   1.169  10.735  0.0404 -0.2424 -0.1364
  329W        W 3848   0.359   9.228   1.363 -0.1942 -0.2533 -0.1202
  330W        W 3849   8.898   5.528   1.710  0.1077 -0.0241  0.0823
  331W        W 3850   4.671   2.047   4.400 -0.1080  0.2027 -0.1698
  332W        W 3851   6.897   5.296  11.060 -0.1056 -0.0852  0.1230
  333W        W 3852   5.030   0.283   7.917  0.0933 -0.2798 -0.1564
  334W        W 3853   3.234   0.708   1.909 -0.1880 -0.2046  0.0161
  335W        W 3854   0.885   1.938   2.080  0.2581 -0.1672 -0.1411
  336W        W 3855   7.625   7.575   8.313  0.0667 -0.1737  0.2992
  337W        W 3856   3.193   9.680   1.074  0.0042  0.1578  0.2418
  338W        W 3857   6.309   9.309   1.859 -0.0064 -0.0731 -0.2683
  339W        W 3858   5.409   7.239  10.886  0.0704  0.1768 -0.0736
  340W        W 3859   7.112   5.513  12.391 -0.2001 -0.0336  0.3688
  341W        W 3860   6.308   5.477   0.455  0.1500 -0.3104  0.0986
  342W        W 3861   8.022   4.513   2.320  0.2696  0.1813  0.0225
  343W        W 3862   2.297   1.392   0.628 -0.0603  0.1463 -0.0069
  344W        W 3863   2.997   6.115  12.349  0.0901  0.1475 -0.0296
  345W        W 3864   1.601   1.873   0.914 -0.5095 -0.1515  0.0846
  346W        W 3865   4.772   4.477   2.083 -0.2331 -0.0207  0.0145
  347W        W 3866   0.459   4.187  11.647 -0.0269 -0.0271  0.0057
  348W        W 3867   3.558   9.260  12.374  0.1765  0.0083  0.0774
  349W        W 3868   7.580   1.045   9.295  0.2879  0.2929 -0.1303
  350W        W 3869   0.587   7.757  10.755  0.0732  0.1009 -0.2860
  351W        W 3870   6.469   1.038   2.882 -0.0547  0.1090  0.2297
  352W        W 3871   1.600   8.503  11.886  0.0252  0.2152  0.1353
  353W        W 3872   0.540   8.720   3.069 -0.0756  0.1159  0.1978
  354W        W 3873   5.154   2.057   1.234 -0.3556  0.1207 -0.2086
  355W        W 3874   5.730   7.932  10.311 -0.1033  0.0328  0.0728
  356W        W 3875   7.875   0.291  10.002 -0.3081  0.2007  0.1002
  357W        W 3876   6.560   2.777   2.812  0.2018 -0.1465  0.3435
  358W        W 3877   6.173   8.178   3.020 -0.0550 -0.0472 -0.2627
  359W        W 3878   8.577   4.193   8.445 -0.1247  0.1889 -0.0357
  360W        W 3879   3.144   8.810   1.623  0.2297 -0.3522  0.3152
  361W        W 3880   6.633   4.520  10.022  0.2101  0.0583 -0.3100
  362W        W 3881   2.717   2.853   8.605  0.0311 -0.0138  0.2906
  363W        W 3882   5.262   9.687   3.178 -0.0920 -0.3428  0.0586
  364W        W 3883   6.371   0.308   9.510 -0.2139 -0.1644  0.1554
  365W        W 3884   0.358   0.266   1.794  0.1229 -0.1385  0.3278
  366W        W 3885   7.702   1.339  12.011  0.2587  0.0832 -0.2486
  367W        W 3886   8.676   4.406   1.152 -0.1820 -0.0582  0.3044
  368W        W 3887   9.157   4.432  12.221  0.2043 -0.0527 -0.0950
  369W        W 3888   3.088   2.879   9.254  0.2140  0.1167  0.2333
  370W        W 3889   8.751   0.696   9.623 -0.1812 -0.0182  0.1924
  371W        W 3890   0.553   1.577  10.995 -0.1050  0.0265  0.1605
  372W        W 3891   6.374   7.088  11.740  0.3024  0.0439 -0.0361
  373W        W 3892   5.912   4.998   3.042  0.0586 -0.4192 -0.0578
  374W        W 3893   3.992   7.819  10.788  0.1726 -0.0164  0.0871
  375W        W 3894   5.417   3.030   2.527 -0.1421  0.0661 -0.2014
  376W        W 3895   6.424   3.625   7.720 -0.1049  0.1097  0.1325
  377W        W 3896   7.228   5.675   1.988  0.0054  0.5915 -0.0546
  378W        W 3897   4.558   9.583   2.243  0.0763 -0.2416  0.3406
  379W        W 3898   0.275   8.222   1.547 -0.0932  0.0554 -0.3882
  380W        W 3899   6.509   1.568   4.036 -0.0118 -0.1390  0.1411
  381W        W 3900   2.566   1.299  12.471  0.2913  0.1368  0.1038
  382W        W 3901   7.230   0.263  10.458  0.1599 -0.1362 -0.1594
  383W        W 3902   0.098   8.285  11.038 -0.1795  0.1312  0.0973
  384W        W 3903   8.460   9.371  11.044  0.2205 -0.0116 -0.2104
  385W        W 3904   5.259   8.627  11.304 -0.2381  0.0948 -0.3431
  386W        W 3905   9.117   6.067   9.204  0.0446 -0.1324  0.1229
  387W        W 3906   6.571   3.430   2.749  0.0557 -0.1212  0.2388
  388W        W 3907   3.740   9.221   3.735  0.0870  0.1460 -0.0199
  389W        W 3908   0.061   3.934  11.444 -0.0439 -0.2471  0.0908
  390W        W 3909   8.619   7.778   4.165 -0.0938  0.1773  0.0902
  391W        W 3910   8.633   6.888   9.954  0.1994  0.2769 -0.1158
  392W        W 3911   2.734   9.267   3.618 -0.0060  0.0940 -0.0187
  393W        W 3912   8.914   0.797  12.334  0.1914 -0.1298  0.1169
  394W        W 3913   2.823   3.911   0.249  0.4878  0.3388  0.2080
  395W        W 3914   6.629   6.590  10.253 -0.2679 -0.2260  0.1937
  396W        W 3915   2.863   9.360  11.793 -0.0573  0.1119 -0.0321
  397W        W 3916   9.114   3.564   4.282 -0.1124  0.4348  0.0729
  398W        W 3917   2.417   1.843  10.810 -0.0969  0.1863 -0.2736
  399W        W 3918   9.222   6.502   1.496 -0.1721  0.1794 -0.1341
  400W        W 3919   7.554   6.887  11.975  0.1085  0.4355 -0.1551
  401W        W 3920   6.249   1.866   8.686  0.0773  0.3813  0.1598
  402W        W 3921   8.954   4.305   3.209 -0.0090  0.0087  0.0135
  403W        W 3922   8.471   1.082  10.876 -0.0360  0.1285  0.1562
  404W        W 3923   2.660   4.580   2.022  0.4429 -0.1462 -0.1166
  405W        W 3924   4.569   1.288  11.718 -0.2406  0.2210  0.1472
  406W        W 3925   8.992   0.219  11.431 -0.2481  0.3273 -0.0967
  407W        W 3926   5.402   5.677  12.085 -0.3125 -0.2117  0.2492
  408W        W 3927   1.352   0.260   2.373 -0.0961  0.1286  0.3888
  409W        W 3928   1.893   6.925   8.883  0.0749  0.0087 -0.0966
  410W        W 3929   3.039   7.879   8.441 -0.0271 -0.0278  0.0193
  411W        W 3930   4.992   2.666   1.706  0.1705  0.2294 -0.3163
  412W        W 3931   0.220   6.247  10.094 -0.2752 -0.1719 -0.2676
  413W        W 3932   2.110   0.681   2.856 -0.1376 -0.1227  0.0660
  414W        W 3933   6.820   4.372   2.721 -0.0179 -0.4325 -0.2508
  415W        W 3934   8.072   4.181   8.535 -0.0593  0.5267  0.0128
  416W        W 3935   4.753   0.712  12.401 -0.3645 -0.0357  0.2405
  417W        W 3936   0.853   4.626   3.893 -0.3313  0.0562  0.2635
  418W        W 3937   1.971   4.322   2.772  0.1666  0.0941 -0.1203
  419W        W 3938   3.924   8.986   2.128 -0.3099  0.1193 -0.1675
  420W        W 3939   3.437   3.826  10.226 -0.0451 -0.1040  0.0100
  421W        W 3940   2.705   0.121   1.783 -0.0410  0.2334  0.3558
  422W        W 3941   1.534   5.290   2.780 -0.0860  0.4196 -0.0636
  423W        W 3942   9.452   9.028   4.255  0.3065 -0.1211  0.0237
  424W        W 3943   1.448   1.207   1.751  0.0015  0.2446  0.0209
  425W        W 3944   3.163   8.734   1.112 -0.1975  0.2646  0.1444
  426W        W 3945   3.685   4.311  11.275 -0.1658  0.3268  0.0711
  427W        W 3946   7.006   1.181   1.828 -0.0248  0.0601 -0.0813
  428W        W 3947   0.310   0.487  10.330  0.0829  0.0251 -0.2097
  429W        W 3948   0.141   3.380   1.314 -0.1553  0.1239 -0.2141
  430W        W 3949   8.278   3.709  10.814  0.0865 -0.1093 -0.0300
  431W        W 3950   8.847   5.513  10.452 -0.1786 -0.0282  0.1062
  432W        W 3951   0.144   0.610  11.439  0.0451  0.0786 -0.0245
  433W        W 3952   0.657   2.800  11.295 -0.0031  0.1431 -0.0446
  434W        W 3953   2.519   1.047   9.660 -0.0612 -0.1042  0.2733
  435W        W 3954   5.253   3.489   9.283 -0.2512 -0.1690 -0.1461
  436W        W 3955   1.435   0.962   0.764 -0.0624 -0.0909  0.2537
  437W        W 3956   1.490   4.033   8.550 -0.0990 -0.3390  0.2387
  438W        W 3957   4.087   0.412   3.559  0.3047  0.0491  0.0840
  439W        W 3958   5.465   7.865   0.147 -0.1623  0.0497 -0.2559
  440W        W 3959   9.094   4.696   3.488 -0.0427  0.1173  0.0071
  441W        W 3960   6.445   4.531   1.251  0.2203  0.3511 -0.2087
  442W        W 3961   7.820   5.632   0.797  0.0342  0.0875 -0.0359
  443W        W 3962   1.743   3.425   2.078 -0.3551 -0.0209 -0.2289
  444W        W 3963   5.497   0.366   1.782  0.0817  0.1824 -0.3075
  445W        W 3964   7.102   5.690  10.806  0.3340  0.2132  0.0465
  446W        W 3965   3.726   8.492  12.321  0.0918  0.3700 -0.1047
  447W        W 3966   7.992   6.740   9.873 -0.0599 -0.3594  0.0760
  448W        W 3967   3.536   5.299   0.567 -0.0688  0.0341  0.3743
  449W        W 3968   0.105   0.459   2.708  0.2335 -0.1323  0.2490
  450W        W 3969   7.952   6.667   1.099  0.0150 -0.1366 -0.1222
  451W        W 3970   6.083   6.520   3.576 -0.1214 -0.0479  0.2318
  452W        W 3971   3.789   0.007   3.640 -0.1635  0.0380 -0.3281
  453W        W 3972   6.318   3.605   9.974 -0.2886  0.3455  0.0652
  454W        W 3973   6.703   6.246  10.953 -0.0016  0.4641 -0.1520
  455W        W 3974   3.086   1.943   9.255 -0.1935 -0.4523  0.1209
  456W        W 3975   5.614   3.448  12.452 -0.2515  0.0012 -0.3249
  457W        W 3976   4.675   9.462   0.237  0.2891 -0.2187  0.1535
  458W        W 3977   2.212   4.709  10.789  0.1173  0.1872 -0.1210
  459W        W 3978   4.988   8.252   9.958  0.1416  0.0590 -0.2133
  460W        W 3979   1.234   8.569   9.977  0.2730  0.0763 -0.0079
  461W        W 3980   8.377   5.656  10.454 -0.2181  0.1612 -0.1437
  462W        W 3981   7.199   1.139   3.708 -0.2370  0.1539 -0.1093
  463W        W 3982   7.459   8.586  10.266 -0.0882  0.1823 -0.1066
  464W        W 3983   5.090   5.517  10.741  0.3352  0.2314  0.3108
  465W        W 3984   8.015   8.955  10.938  0.0713  0.1708  0.0066
  466W        W 3985   8.585   8.245   9.491 -0.1659  0.0966 -0.0904
  467W        W 3986   7.260   2.267  11.672  0.1849 -0.0864 -0.2583
  468W        W 3987   4.336   2.956  12.419 -0.1154  0.0087 -0.0371
  469W        W 3988   2.135   3.676   1.355  0.0978 -0.1274  0.0381
  470W        W 3989   5.619   3.916  10.128  0.0440 -0.1470  0.0785
  471W        W 3990   9.417   2.990  11.555 -0.2067 -0.2747 -0.0422
  472W        W 3991   4.606   7.784   9.862  0.1733 -0.0797 -0.3735
  473W        W 3992   7.197   5.855  10.332  0.1969 -0.2655  0.1483
  474W        W 3993   7.385   9.224   1.888  0.2348  0.2319  0.2090
  475W        W 3994   7.596   5.609   4.291 -0.0234 -0.1643 -0.4964
  476W        W 3995   9.561   0.808   9.569  0.2243  0.0005  0.1204
  477W        W 3996   8.617   8.730   9.010  0.0360 -0.2340 -0.1076
  478W        W 3997   8.978   4.091   1.995  0.0571  0.0407  0.1433
  479W        W 3998   9.252   4.087   9.609  0.1772 -0.1106  0.2184
  480W        W 3999   8.106   8.930   8.788  0.2444 -0.4134  0.0621
  481W        W 4000   3.957   3.530   3.636  0.1308 -0.0088 -0.0717
  482W        W 4001   2.818   4.609   2.511  0.2455  0.1237  0.1019
  483W        W 4002   5.092   6.875   2.307  0.0145  0.0983 -0.3810
  484W        W 4003   1.231   7.681   2.690 -0.1214 -0.0137  0.2429
  485W        W 4004   2.309   9.702   0.443 -0.3058  0.0768  0.0147
  486W        W 4005   0.753   7.148   9.924  0.2551 -0.2673  0.1765
  487W        W 4006   3.619   8.609   2.324 -0.0474  0.2025  0.0731
  488W        W 4007   0.898   7.377   3.470 -0.1575  0.0761 -0.0425
  489W        W 4008   7.082   7.494   0.430  0.1099 -0.1061  0.1343
  490W        W 4009   3.428   0.315   3.930  0.2006  0.1127  0.1927
  491W        W 4010   4.687   1.299   2.963 -0.0562  0.2203  0.2371
  492W        W 4011   2.560   2.873  10.627  0.1549 -0.1050  0.3309
  493W        W 4012   8.623   3.324  10.868  0.0798 -0.0916  0.2685
  494W        W 4013   6.425   6.119  11.883  0.0877 -0.2364 -0.0472
  495W        W 4014   2.415   8.837   0.203 -0.0665 -0.2276  0.4185
  496W        W 4015   9.670   3.811   9.489  0.0848  0.1619 -0.2790
  497W        W 4016   6.253   2.730   3.430  0.0058 -0.0989 -0.1332
  498W        W 4017   6.934   7.310   1.713  0.2538  0.2943 -0.0063
  499W        W 4018   9.082   5.750   3.088  0.2348  0.1051  0.1948
  500W        W 4019   1.866   1.374   0.935  0.2445 -0.0785  0.0784
  501W        W 4020   0.029   4.184   2.675  0.0214 -0.3088 -0.0288
  502W        W 4021   4.473   4.344   0.790  0.0837  0.2405  0.0018
  503W        W 4022   9.339   0.515   0.214 -0.0470 -0.1522 -0.0845
  504W        W 4023   9.528   2.760   8.808  0.2922  0.2977  0.3358
  505W        W 4024   3.115   1.234   3.464  0.0631  0.0125  0.2155
  506W        W 4025   8.562   3.174   3.641 -0.3936  0.1960  0.1289
  507W        W 4026   8.708   5.813   4.459 -0.1042 -0.1495  0.0652
  508W        W 4027   6.323   9.413  11.304  0.0682 -0.1481 -0.1241
  509W        W 4028   9.311   4.635   9.869  0.1648 -0.1966  0.0988
  510W        W 4029   1.928   5.495  10.346 -0.0249  0.0084  0.3239
  511W        W 4030   7.265   4.286   2.542  0.4504 -0.1814  0.5017
  512W        W 4031   4.098   2.760   2.870  0.1018  0.1343  0.3405
  513W        W 4032   4.112   6.778  10.272 -0.0191  0.0227 -0.1648
  514W        W 4033   6.786   3.585   1.214 -0.2297  0.1605 -0.3583
  515W        W 4034   6.286   3.088   3.918  0.2150  0.1775 -0.3054
  516W        W 4035   1.244   3.246  10.289  0.0875 -0.0728  0.2827
  517W        W 4036   2.347   8.388   8.095  0.1151 -0.0039  0.0819
  518W        W 4037   8.219   3.131   4.272  0.0076 -0.0491  0.1628
  519W        W 4038   3.178   0.843  10.392  0.0299  0.0447  0.0500
  520W        W 4039   3.016   8.006   4.029  0.0553  0.2071 -0.1350
  521W        W 4040   6.305   6.386   2.741  0.0222 -0.1179 -0.2833
  522W        W 4041   3.776   3.798  11.514 -0.1980  0.2111  0.0468
  523W        W 4042   2.915   1.337   2.880 -0.2464 -0.1721  0.0318
  524W        W 4043   3.531   0.282   1.436  0.0323 -0.3217  0.0995
  525W        W 4044   0.096   0.648  12.432 -0.2866  0.0462  0.0809
  526W        W 4045   7.749   4.844   0.927 -0.4745 -0.1318 -0.0966
  527W        W 4046   2.527   0.799  11.142  0.0970  0.3301  0.0984
  528W        W 4047   5.733   4.961  11.510 -0.1354 -0.1726  0.1390
  529W        W 4048   4.498   1.712  12.104 -0.3929  0.0496  0.1726
  530W        W 4049   4.800   7.259   0.547 -0.3512 -0.0483 -0.0636
  531W        W 4050   7.317   6.853   9.589 -0.1271 -0.0158 -0.0022
  532W        W 4051   1.459   3.562   9.677 -0.0731  0.1121 -0.2107
  533W        W 4052   2.515   2.387   0.171 -0.0990 -0.3406  0.2647
  534W        W 4053   3.480   5.763   0.685  0.1508  0.2309 -0.0258
  535W        W 4054   8.789   9.563   3.320  0.2214  0.0005  0.3307
  536W        W 4055   0.902   1.667   1.142  0.1045  0.1881 -0.0103
  537W        W 4056   9.312   6.131   0.092 -0.1893  0.1525  0.0176
  538W        W 4057   0.821   2.835  10.176  0.0329  0.0587  0.2159
  539W        W 4058   3.830   0.708   3.994 -0.5702  0.0313 -0.2098
  540W        W 4059   7.435   8.189   0.003 -0.0107 -0.2063 -0.0123
  541W        W 4060   0.470   1.686   1.829 -0.1258 -0.1644 -0.0437
  542W        W 4061   6.697   5.033  11.527  0.0274  0.0830 -0.2779
  543W        W 4062   4.891   3.444   2.397  0.3285 -0.2613  0.1344
  544W        W 4063   7.255   9.097   1.388 -0.1107 -0.0825 -0.0463
  545W        W 4064   9.367   0.662   3.027 -0.1167  0.1363  0.1918
  546W        W 4065   4.243   3.218   8.521 -0.2047  0.1224  0.0705
  547W        W 4066   4.383   1.070   9.234 -0.0407  0.4226 -0.2904
  548W        W 4067   1.883   7.623   2.571 -0.0621 -0.0589 -0.1582
  549W        W 4068   6.709   6.873   1.468 -0.0905  0.0193 -0.0520
  550W        W 4069   4.363   6.256   1.943  0.3515  0.0823 -0.0197
  551W        W 4070   8.549   5.473   2.326  0.1874  0.0708 -0.1809
  552W        W 4071   2.311   3.253   1.943  0.1361 -0.0458  0.0776
  553W        W 4072   3.000   3.297   8.821 -0.2502 -0.0547  0.2479
  554W        W 4073   5.948   5.293   9.710  0.0338  0.3209 -0.1424
  555W        W 4074   1.348   6.301  10.267  0.2139  0.0143  0.0877
  556W        W 4075   0.438   2.976   0.553 -0.3868 -0.0525  0.0750
  557W        W 4076   1.083   3.371   9.327 -0.1803 -0.0026 -0.4667
  558W        W 4077   8.623   9.519   4.303 -0.1696  0.0052 -0.0698
  559W        W 4078   6.033   7.810   0.954  0.0619  0.3124  0.1332
  560W        W 4079   4.725   7.334  11.369 -0.1373  0.1050 -0.0461
  561W        W 4080   0.287   8.145   4.311 -0.0556 -0.2399  0.0418
  562W        W 4081   2.047   0.383  10.686  0.0395  0.1180 -0.0998
  563W        W 4082   3.017   1.086   2.439  0.2305 -0.1955  0.3672
  564W        W 4083   9.132   1.702   0.621 -0.1515 -0.2615  0.1565
  565W        W 4084   5.908   9.439   8.457 -0.0228 -0.2879  0.0619
  566W        W 4085   2.076   6.395  11.717 -0.2135 -0.1238 -0.0414
  567W        W 4086   7.593   1.194   8.269 -0.2774 -0.2205 -0.3852
  568W        W 4087   3.846   7.655   0.330  0.0814 -0.2030  0.0953
  569W        W 4088   0.109   9.061  10.412  0.3135  0.0589 -0.2759
  570W        W 4089   6.653   7.998  10.049  0.1781  0.2403 -0.1386
  571W        W 4090   7.113   5.202   3.456 -0.1608  0.0851 -0.0196
  572W        W 4091   2.779   5.180  12.353 -0.0130 -0.1676 -0.0753
  573W        W 4092   2.625   2.118   9.992 -0.3034  0.1321  0.0950
  574W        W 4093   0.101   4.150   2.139  0.2442 -0.2859  0.0473
  575W        W 4094   8.917   0.948   1.076 -0.0162 -0.0794 -0.0142
  576W        W 4095   6.933   1.049  10.837 -0.2653  0.0087 -0.3889
  577W        W 4096   4.086   7.788   0.778  0.0670  0.3147  0.1853
  578W        W 4097   2.205   8.316   0.324 -0.1666 -0.3627  0.1845
  579W        W 4098   6.712   9.003   4.001 -0.0064 -0.0334  0.2321
  580W        W 4099   2.155   2.339  10.224  0.5344  0.0926 -0.1879
  581W        W 4100   4.315   6.294  11.914  0.3179 -0.0201  0.0351
  582W        W 4101   3.204   2.780   8.741  0.1729 -0.1830  0.1230
  583W        W 4102   1.813   3.664  10.129 -0.1645  0.2830  0.0866
  584W        W 4103   4.851   0.234   0.170 -0.1646 -0.0030  0.0341
  585W        W 4104   6.263   7.492   8.931  0.0199  0.0196 -0.0059
  586W        W 4105   7.612   3.735   0.310 -0.0399 -0.2946  0.0523
  587W        W 4106   5.253   1.359  11.848 -0.1828  0.0015  0.0860
  588W        W 4107   5.083   7.749   2.779  0.2561 -0.0087 -0.1890
  589W        W 4108   6.690   0.473   0.784 -0.0999  0.1568  0.1235
  590W        W 4109   5.370   9.552   9.973  0.2965  0.1569 -0.1153
  591W        W 4110   1.620   2.217  11.106 -0.2699 -0.3165  0.3161
  592W        W 4111   2.311   5.795   0.120  0.1507  0.0266 -0.0701
  593W        W 4112   1.226   5.959   8.277 -0.4349  0.0897  0.3786
  594W        W 4113   2.112   7.892  11.062 -0.1248 -0.3399  0.0108
  595W        W 4114   7.653   9.118   3.946 -0.2238 -0.0759  0.1417
  596W        W 4115   0.799   2.073   3.492  0.2620 -0.0247  0.2081
  597W        W 4116   7.983   2.089  10.068 -0.0619 -0.1753 -0.3194
  598W        W 4117   4.258   8.957  11.413  0.0145 -0.1436 -0.0528
  599W        W 4118   1.593   0.336   0.925 -0.0169 -0.1814  0.1942
  600W        W 4119   0.924   2.741   9.623 -0.2824  0.2660 -0.3631
  601W        W 4120   1.086   8.623  11.054 -0.2590 -0.0652 -0.2113
  602W        W 4121   8.261   3.960   8.128  0.0300  0.5359 -0.1575
  603W        W 4122   2.211   0.118  12.490 -0.2568  0.1781 -0.2303
  604W        W 4123   4.314   0.910   3.793 -0.2337 -0.5590  0.1928
  605W        W 4124   3.317   3.211   1.614 -0.0140  0.3460  0.3052
  606W        W 4125   1.631   1.185  10.906  0.0723 -0.0406 -0.0315
  607W        W 4126   9.590   2.026   3.972  0.1195  0.1265  0.0222
  608W        W 4127   1.385   5.874   1.318 -0.3596 -0.0718  0.2341
  609W        W 4128   4.151   1.080   1.825 -0.0494 -0.1012 -0.4255
  610W        W 4129   0.037   3.350  11.879  0.1725 -0.3096  0.1223
  611W        W 4130   6.029   4.525   2.864 -0.2219  0.0821  0.0857
  612W        W 4131   3.999   7.066  10.683  0.1503  0.4254  0.1340
  613W        W 4132   8.510   7.192  11.003 -0.0995  0.0927  0.0899
  614W        W 4133   2.587   7.284  11.767 -0.1064  0.0918  0.0591
  615W        W 4134   6.057   9.024   0.922 -0.0934 -0.3227  0.1328
  616W        W 4135   5.937   3.755   9.717 -0.2365  0.1188 -0.0366
  617W        W 4136   6.226   3.112   9.970  0.1488 -0.0746 -0.2098
  618W        W 4137   9.555   8.554   2.906  0.1356  0.2736 -0.2703
  619W        W 4138   6.515   5.872   0.789  0.0690 -0.2480 -0.0730
  620W        W 4139   4.605   5.184   2.942 -0.1556  0.1348  0.1822
  621W        W 4140   6.024   9.537   1.021 -0.3797  0.0326 -0.1070
  622W        W 4141   9.040   2.353   0.310  0.3108 -0.2373 -0.1938
  623W        W 4142   8.823   4.526  10.216 -0.3134  0.2050 -0.0216
  624W        W 4143   6.410   1.834  11.198  0.0265  0.1355 -0.0467
  625W        W 4144   6.711   7.085  10.291 -0.1796 -0.0700  0.3365
  626W        W 4145   1.659   0.152  12.169  0.1743  0.4926 -0.2973
  627W        W 4146   7.901   7.614   1.875  0.0853  0.2680  0.1753
  628W        W 4147   0.670   5.873   9.436 -0.4589 -0.0127  0.2781
  629W        W 4148   3.344   3.841   1.959  0.5627  0.0875  0.0040
  630W        W 4149   5.794   8.716  11.414 -0.1305 -0.0913  0.0439
  631W        W 4150   1.778   4.045   0.011  0.0517  0.0400  0.0351
  632W        W 4151   9.696   5.749   9.975 -0.1153 -0.2405  0.0337
  633W        W 4152   4.800   8.396  10.508 -0.1218  0.2559 -0.0977
  634W        W 4153   6.539   4.898   1.586 -0.0404  0.2559 -0.2292
  635W        W 4154   5.372   1.049   0.517 -0.0609  0.0774 -0.1102
  636W        W 4155   5.764   9.592   1.632  0.0589 -0.2979  0.2327
  637W        W 4156   0.021   8.703   8.802  0.2799  0.2556  0.0289
  638W        W 4157   3.375   1.394   2.291 -0.2679 -0.1190 -0.5118
  639W        W 4158   1.603   6.633  12.453  0.0910 -0.0119 -0.2186
  640W        W 4159   4.484   5.966   9.212 -0.0305  0.0900  0.0546
  641W        W 4160   6.645   8.530  11.826 -0.1114 -0.2288 -0.0378
  642W        W 4161   7.470   8.845   3.252 -0.0436 -0.0220  0.0049
  643W        W 4162   0.904   5.293   1.057  0.0866 -0.1469 -0.2248
  644W        W 4163   4.697   5.753  11.484  0.0090  0.0464 -0.1011
  645W        W 4164   4.030   8.498  10.322 -0.2293 -0.0824 -0.1263
  646W        W 4165   7.152   2.620   3.681  0.0448 -0.0106  0.0756
  647W        W 4166   0.318   1.125  12.397 -0.2372 -0.1058 -0.0693
  648W        W 4167   1.012   5.085   8.881  0.0953  0.1315 -0.0227
  649W        W 4168   1.859   0.800   0.989  0.0289 -0.2901  0.0512
  650W        W 4169   1.894   9.283   9.068  0.3021  0.1770 -0.0178
  651W        W 4170   9.404   8.659   2.309  0.0115 -0.0558 -0.1943
  652W        W 4171   1.234   4.942   2.277 -0.2045  0.0768  0.1578
  653W        W 4172   6.676   4.421   1.765  0.0076 -0.2428  0.1433
  654W        W 4173   4.495   0.810   0.601 -0.2048 -0.0334 -0.1064
  655W        W 4174   2.013   1.459  10.597 -0.1053 -0.0411  0.2472
  656W        W 4175   1.420   3.806   2.252  0.1878 -0.1486 -0.0451
  657W        W 4176   8.176   1.986   2.429  0.0442 -0.1125 -0.3504
  658W        W 4177   3.298   2.577  10.263 -0.5529 -0.2237  0.0607
  659W        W 4178   0.040   1.376  10.318  0.0416 -0.1714 -0.1196
  660W        W 4179   4.719   3.594  11.346  0.3198 -0.2882  0.0180
  661W        W 4180   9.521   7.405  12.169 -0.0302  0.1769  0.1591
  662W        W 4181   2.956   0.147  11.766  0.3280  0.2206 -0.2464
  663W        W 4182   1.124   7.116   8.870 -0.0677 -0.0839 -0.2678
  664W        W 4183   7.526   3.363   8.201 -0.1769 -0.1393  0.0828
  665W        W 4184   8.918   4.555   8.428 -0.0969  0.0446  0.0576
  666W        W 4185   4.813   5.401   1.514  0.0113 -0.0364  0.0485
  667W        W 4186   2.010   5.004   3.444  0.2761  0.2332 -0.0275
  668W        W 4187   0.495   0.161   2.695 -0.0233  0.2642  0.0489
  669W        W 4188   3.519   8.749   8.462  0.1841  0.0438  0.0178
  670W        W 4189   6.227   3.495   9.018  0.1514  0.1112 -0.0429
  671W        W 4190   5.351   2.355  11.232  0.0696 -0.1767  0.0048
  672W        W 4191   1.948   5.547   0.374  0.1140  0.0143  0.5533
  673W        W 4192   5.886   0.762   8.410  0.3251  0.1268  0.1621
  674W        W 4193   9.137   9.384   9.310  0.1125 -0.0033 -0.0656
  675W        W 4194   8.486   6.519   0.367 -0.2462  0.2471 -0.0432
  676W        W 4195   5.096   6.659  11.676  0.0405 -0.0871 -0.2561
  677W        W 4196   6.268   3.774   2.486 -0.1985  0.0817 -0.1360
  678W        W 4197   6.124   1.181   7.584 -0.1693  0.4072  0.1978
  679W        W 4198   8.055   0.308   8.707 -0.0269  0.1222 -0.3812
  680W        W 4199   3.446   9.271  10.258  0.2355 -0.1520  0.3126
  681W        W 4200   3.416   3.843   9.525  0.0915 -0.2652  0.0041
  682W        W 4201   5.377   2.550   2.855  0.1479 -0.2046 -0.0151
  683W        W 4202   4.506   2.061   2.788  0.0154 -0.3440  0.0320
  684W        W 4203   9.425   6.517  12.290 -0.0697 -0.0509  0.3883
  685W        W 4204   4.328   3.356  11.072 -0.2099  0.0711 -0.2729
  686W        W 4205   9.008   8.213   1.605  0.0296  0.0102  0.0422
  687W        W 4206   6.031   6.220   8.937  0.2024  0.1264 -0.1846
  688W        W 4207   7.344   7.495  11.156  0.1102  0.3207 -0.0054
  689W        W 4208   0.531   7.523   1.009  0.0210  0.1575 -0.0428
  690W        W 4209   8.435   3.055  12.427  0.0600 -0.2212 -0.0986
  691W        W 4210   8.232   7.220   1.980  0.1816 -0.2192  0.0562
  692W        W 4211   4.979   3.439   2.895  0.4632 -0.1785 -0.0995
  693W        W 4212   8.716   9.075   1.581  0.2369 -0.1076  0.1041
  694W        W 4213   4.844   8.796   8.293 -0.1463  0.2671  0.0985
  695W        W 4214   0.752   5.037   2.352 -0.2834  0.2229  0.2444
  696W        W 4215   9.112   1.150  12.020  0.2406  0.0897 -0.1775
  697W        W 4216   8.693   6.480  11.573  0.2259  0.1691  0.0729
  698W        W 4217   7.322   8.177   0.685 -0.2830 -0.0078 -0.0975
  699W        W 4218   3.031   3.608   1.440  0.2119 -0.1104  0.0650
  700W        W 4219   1.648   2.966   0.971  0.3689 -0.0353 -0.0850
  701W        W 4220   4.841   9.630  12.235 -0.1241 -0.0742 -0.2060
  702W        W 4221   7.234   6.005   3.068 -0.0249  0.2605  0.1288
  703W        W 4222   2.602   9.133  10.748  0.0028 -0.3032  0.0564
  704W        W 4223   4.128   7.777  10.049  0.3114 -0.0915 -0.1533
  705W        W 4224   0.625   2.342  10.294  0.3602 -0.0080  0.1089
  706W        W 4225   8.772   0.111  11.877 -0.1814  0.2807 -0.1174
  707W        W 4226   8.226   9.032  11.443  0.0120 -0.0311  0.2706
  708W        W 4227   5.366   1.972  10.227  0.1571 -0.3234  0.0386
  709W        W 4228   6.264   2.644   2.420  0.1061 -0.0588  0.0305
  710W        W 4229   3.087   1.473   9.112 -0.0827  0.0951  0.0214
  711W        W 4230   2.778   3.998  11.723  0.1660  0.1730  0.3520
  712W        W 4231   4.600   8.705   0.615 -0.1255 -0.1311  0.0414
  713W        W 4232   2.931   7.570  10.308  0.2636  0.0682  0.0103
  714W        W 4233   9.299   0.560   7.863 -0.2024 -0.1044 -0.2409
  715W        W 4234   7.375   8.701   3.955  0.0724  0.1940  0.0093
  716W        W 4235   0.083   7.774  10.744 -0.2576  0.4027  0.3098
  717W        W 4236   9.252   3.659   1.923 -0.1210 -0.1323 -0.1325
  718W        W 4237   1.725   6.474   1.883 -0.1308 -0.2121  0.7282
  719W        W 4238   1.670   5.064   2.024 -0.0396  0.1038  0.2063
  720W        W 4239   2.711   4.561   8.984  0.1413 -0.2687 -0.1706
  721W        W 4240   3.693   9.164  11.368  0.2249 -0.1071 -0.1023
  722W        W 4241   9.677   8.982  11.761 -0.0969  0.0935 -0.1241
  723W        W 4242   2.981   0.248   3.011  0.2149  0.0370  0.2169
  724W        W 4243   8.114   7.190  10.722 -0.1280 -0.0664  0.2467
  725W        W 4244   3.078   0.607   2.438 -0.0759 -0.0177 -0.0944
  726W        W 4245   9.545   9.672   1.824 -0.1975 -0.2478  0.2457
  727W        W 4246   0.340   3.587   3.103 -0.0839 -0.0904 -0.0169
  728W        W 4247   9.305   1.986   7.867  0.1071  0.2281  0.3415
  729W        W 4248   4.087   5.745  12.455  0.2188  0.0070 -0.0400
  730W        W 4249   4.214   4.723  10.613  0.0443  0.0607  0.0777
  731W        W 4250   0.712   5.581   2.021 -0.2622  0.4034 -0.3231
  732W        W 4251   7.043   3.358   3.364  0.0720 -0.1124  0.1178
  733W        W 4252   1.175   2.115   1.123  0.4850 -0.0088 -0.1446
  734W        W 4253   7.591   5.701   2.804 -0.1403 -0.1295 -0.0450
  735W        W 4254   1.798   9.085   4.568  0.2510  0.0555  0.0567
  736W        W 4255   5.225   6.167  11.701  0.1869  0.0732  0.2441
  737W        W 4256   4.346   5.617   1.335 -0.0092 -0.1093 -0.0273
  738W        W 4257   3.384   6.857  10.852 -0.3925 -0.1489 -0.2222
  739W        W 4258   9.391   0.732   2.505 -0.1944  0.2594  0.2864
  740W        W 4259   4.432   3.537   2.677 -0.4434 -0.1424  0.2795
  741W        W 4260   6.944   8.742   2.661  0.0982 -0.5003 -0.0043
  742W        W 4261   6.980   8.462   9.284  0.2792 -0.1101 -0.3953
  743W        W 4262   2.239   7.502   3.300  0.0592  0.4437  0.1402
  744W        W 4263   3.336   0.270   9.534 -0.0736 -0.0029  0.3124
  745W        W 4264   3.627   1.906   0.191 -0.0433  0.0631 -0.3270
  746W        W 4265   6.935   6.681   1.915 -0.2960 -0.1551  0.4147
  747W        W 4266   7.249   2.069   3.769  0.2141  0.1213 -0.0429
  748W        W 4267   6.532   5.811   3.591  0.1311 -0.0380 -0.0867
  749W        W 4268   4.707   3.795   4.114  0.3115  0.0785  0.1985
  750W        W 4269   2.033   7.267   2.888 -0.0014 -0.0427 -0.1331
  751W        W 4270   7.314   6.558  11.687  0.1543  0.1270  0.0373
  752W        W 4271   4.571   4.804   8.972 -0.0328 -0.2781 -0.0458
  753W        W 4272   0.322   6.129  11.266 -0.0243 -0.0575 -0.3006
  754W        W 4273   8.230   7.643  10.944 -0.0249 -0.2221  0.0692
  755W        W 4274   1.843   6.548  11.248  0.1355  0.1028 -0.0885
  756W        W 4275   6.230   8.540  11.116  0.0748 -0.1918  0.1300
  757W        W 4276   2.554   6.899   0.937  0.1171 -0.0914  0.1856
  758W        W 4277   0.390   2.358  11.670 -0.0840  0.0266  0.0320
  759W        W 4278   8.206   0.506   1.751 -0.4959 -0.1797  0.2334
  760W        W 4279   8.828   6.548   2.951 -0.1632 -0.0434  0.1330
  761W        W 4280   8.067   6.132   0.377  0.1320  0.1388 -0.0698
  762W        W 4281   8.718   1.273   1.951  0.0774  0.0256  0.0199
  763W        W 4282   6.296   1.151   9.816 -0.0280  0.0582  0.1041
  764W        W 4283   6.209   5.120   1.284 -0.2442 -0.0201  0.1205
  765W        W 4284   8.676   5.755  10.844 -0.0756 -0.0725 -0.1018
  766W        W 4285   2.283   9.050  11.261  0.0308 -0.1669 -0.1879
  767W        W 4286   5.542   7.726  11.025 -0.0353 -0.0724  0.0312
  768W        W 4287   7.003   1.598   1.431  0.1400 -0.2600  0.0825
  769W        W 4288   9.156   6.820   9.865  0.4170  0.0840  0.0263
  770W        W 4289   6.624   6.245   2.017  0.6136  0.0802 -0.2499
  771W        W 4290   3.638   1.724  10.621  0.0091 -0.1071  0.0782
  772W        W 4291   4.666   8.475   3.024 -0.5428 -0.0841 -0.0590
  773W        W 4292   7.830   9.118   0.633  0.0772 -0.1569  0.0581
  774W        W 4293   3.985   5.144   2.068 -0.0826 -0.0251  0.1943
  775W        W 4294   1.064   7.610   4.285 -0.0184 -0.0904 -0.2296
  776W        W 4295   2.420   0.623   9.378 -0.0160  0.0809  0.1646
  777W        W 4296   1.450   5.915   4.179  0.2421  0.0506  0.1165
  778W        W 4297   3.912   9.061  10.310 -0.1939 -0.1210 -0.2363
  779W        W 4298   6.626   8.715   3.469  0.3597 -0.0576  0.1643
  780W        W 4299   1.203   8.890   8.699  0.0068 -0.1781  0.1927
  781W        W 4300   0.050   7.532  10.299 -0.2141  0.1149 -0.2950
  782W        W 4301   7.288   5.164   2.199  0.0173  0.0070  0.0833
  783W        W 4302   2.873   7.534   2.201  0.4111 -0.1486  0.1176
  784W        W 4303   3.860   7.503  10.432 -0.3299  0.1750  0.0485
  785W        W 4304   0.292   7.374  11.150  0.1774  0.2639 -0.2087
  786W        W 4305   3.124   2.036   2.017 -0.1302  0.0603  0.0642
  787W        W 4306   6.115   3.939  10.230 -0.0541 -0.0811 -0.0992
  788W        W 4307   8.310   1.642  10.371 -0.0714 -0.4139 -0.1136
  789W        W 4308   5.579   5.990  11.223 -0.0658 -0.1102 -0.3371
  790W        W 4309   5.958   7.262  11.570 -0.1653  0.1153 -0.0659
  791W        W 4310   8.316   0.641   8.441 -0.1107  0.1692  0.0222
  792W        W 4311   9.144   6.394   2.394 -0.0169  0.0743  0.1287
  793W        W 4312   9.585   8.254   3.373  0.1192  0.2413  0.0537
  794W        W 4313   2.895   3.719  12.197 -0.0117  0.1446 -0.0190
  795W        W 4314   7.923   9.466   1.012 -0.2093  0.1472  0.1592
  796W        W 4315   1.976   4.875  11.170  0.1143 -0.0807  0.3378
  797W        W 4316   4.350   4.829   0.827 -0.0533 -0.0315 -0.2803
  798W        W 4317   7.688   0.587  11.033  0.0694  0.1998 -0.1599
  799W        W 4318   1.949   4.108   8.713 -0.2236 -0.0735 -0.0715
  800W        W 4319   1.210   4.084   1.884  0.1630 -0.0280  0.1801
  801W        W 4320   7.206   6.686   2.384  0.0407  0.1765 -0.0743
  802W        W 4321   7.771   7.995  11.857  0.0571 -0.1390  0.3141
  803W        W 4322   7.193   7.995   3.076  0.0104  0.0164  0.0106
  804W        W 4323   6.226   2.095   9.910 -0.0675 -0.0220  0.0075
  805W        W 4324   1.078   3.492  11.340 -0.1960 -0.3792  0.2525
  806W        W 4325   5.234   1.935   0.755 -0.1121  0.2654  0.1780
  807W        W 4326   2.460   4.308   2.864  0.2346  0.0957 -0.0505
  808W        W 4327   8.865   3.630   0.570  0.0596 -0.2343  0.3716
  809W        W 4328   2.510   6.810   9.662  0.1459 -0.1693  0.0676
  810W        W 4329   1.097   9.319   9.446  0.1246  0.2092  0.1619
  811W        W 4330   1.090   7.317  10.246 -0.0331  0.0147  0.3613
  812W        W 4331   0.950   9.443   1.182  0.0406 -0.2978 -0.0552
  813W        W 4332   9.295   9.560   3.037  0.2605  0.0824  0.3836
  814W        W 4333   2.242   8.909   4.445 -0.1942  0.2686  0.0763
  815W        W 4334   6.641   2.088   9.028  0.0281 -0.1225  0.1994
  816W        W 4335   5.167   5.241   9.743  0.0106  0.0824 -0.4162
  817W        W 4336   2.042   6.646   9.684  0.0166  0.1664 -0.2352
  818W        W 4337   9.081   8.015   0.192  0.2240  0.1074  0.0867
  819W        W 4338   0.248   2.352   2.712  0.0492 -0.1114  0.1615
  820W        W 4339   1.310   3.486  12.453  0.1568  0.1671  0.0062
  821W        W 4340   1.275   7.162   1.993  0.1010  0.1360  0.0246
  822W        W 4341   1.625   4.448   3.122  0.1770 -0.0541 -0.1091
  823W        W 4342   3.161   8.765   2.174  0.1378  0.2073  0.1272
  824W        W 4343   8.814   3.169  10.200 -0.3962 -0.0822  0.1166
  825W        W 4344   5.339   4.582   0.987 -0.0549  0.0025 -0.5332
  826W        W 4345   8.586   7.986   8.680 -0.1296 -0.0579  0.1784
  827W        W 4346   7.428   2.364   2.756  0.0367 -0.0742  0.1869
  828W        W 4347   0.886   2.083  11.645  0.2975  0.0420  0.0292
  829W        W 4348   4.748   8.981   3.160 -0.1830 -0.1991 -0.3256
  830W        W 4349   1.293   1.108   4.151 -0.3765  0.2035  0.2470
  831W        W 4350   7.317   3.585  11.440  0.3743 -0.4487  0.1642
  832W        W 4351   3.219   9.016  11.607 -0.0013  0.1496 -0.0296
  833W        W 4352   6.277   0.903  11.759 -0.1061  0.0379 -0.1500
  834W        W 4353   2.013   0.633  12.402  0.1358  0.1587 -0.0561
  835W        W 4354   0.309   7.287  12.502  0.0755 -0.0207  0.2537
  836W        W 4355   5.329   2.137   2.017  0.4634 -0.2773 -0.0921
  837W        W 4356   5.328   2.368   9.647 -0.1299 -0.4140  0.0877
  838W        W 4357   8.834   9.353  12.033  0.0519 -0.0367  0.2459
  839W        W 4358   7.780   3.371  10.258 -0.0977 -0.0125 -0.3172
  840W        W 4359   4.202   1.621  11.697  0.0168 -0.0320 -0.0676
  841W        W 4360   8.350   2.640  11.413 -0.3387  0.2585  0.0791
  842W        W 4361   8.622   8.388  10.332  0.1619  0.2014  0.0725
  843W        W 4362   4.673   6.648  10.006  0.3038 -0.2690  0.2274
  844W        W 4363   2.153   4.280  11.142 -0.0612  0.2114 -0.1922
  845W        W 4364   5.483   7.188   3.803 -0.0718  0.4326 -0.1851
  846W        W 4365   5.617   4.430   2.579 -0.1729 -0.3266 -0.1796
  847W        W 4366   6.432   2.857  10.873 -0.2176  0.0966 -0.0002
  848W        W 4367   5.077   7.679  11.206 -0.0472  0.0096  0.0716
  849W        W 4368   1.665   0.462  11.382  0.0835  0.0975 -0.4185
  850W        W 4369   2.445   4.016  12.135  0.0022  0.0620 -0.3661
  851W        W 4370   7.898   0.987   1.052  0.0108  0.0120 -0.2214
  852W        W 4371   7.311   2.324   8.782 -0.0245  0.3194 -0.2083
  853W        W 4372   9.034   9.709   8.449  0.4254 -0.4711 -0.3284
  854W        W 4373   7.855   6.467  12.105 -0.2313  0.1383  0.3206
  855W        W 4374   0.239   7.888   2.537 -0.1403  0.0259 -0.0269
  856W        W 4375   7.076   4.213   9.988  0.1665  0.3895 -0.2089
  857W        W 4376   0.666   8.684   3.602 -0.0102 -0.1786  0.0894
  858W        W 4377   9.531   4.110   1.733 -0.0763  0.0409  0.5079
  859W        W 4378   0.139   3.147   1.797  0.0183  0.0991  0.1939
  860W        W 4379   0.098   1.465  10.823 -0.1326 -0.2113 -0.1243
  861W        W 4380   8.370   5.314  10.815  0.1898 -0.2790  0.2763
  862W        W 4381   3.787   0.980  10.428 -0.0002  0.0819 -0.4513
  863W        W 4382   2.691   9.515   0.906  0.1655  0.2249 -0.0623
  864W        W 4383   9.347   9.627   2.296  0.3189 -0.2067 -0.3058
  865W        W 4384   7.678   9.032   9.415  0.0381 -0.1072  0.0541
  866W        W 4385   4.414   3.498   3.576  0.5467 -0.3394  0.0123
  867W        W 4386   9.336   7.161   3.016 -0.3041 -0.0696 -0.0243
  868W        W 4387   7.447   1.320   1.288  0.2177 -0.1681  0.0900
  869W        W 4388   0.745   2.495   8.946  0.1695 -0.3509 -0.4145
  870W        W 4389   7.049   2.933  10.391  0.0588 -0.0582  0.1320
  871W        W 4390   7.961   3.990   2.152  0.3871  0.2999  0.1937
  872W        W 4391   1.293   3.402   0.903 -0.1716  0.0709 -0.3876
  873W        W 4392   6.468   8.239   2.564 -0.1223  0.0399 -0.4334
  874W        W 4393   9.251   8.412  10.338  0.0547  0.1713 -0.1306
  875W        W 4394   3.990   8.892   1.562  0.0947  0.2932 -0.0164
  876W        W 4395   2.317   3.419   9.353 -0.0404 -0.2829  0.0455
  877W        W 4396   7.234   5.898   9.816  0.0974  0.5016 -0.3206
  878W        W 4397   0.999   3.375   4.064  0.0432  0.0041 -0.0245
  879W        W 4398   6.743   3.813   1.770 -0.0613 -0.2830  0.1540
  880W        W 4399   7.332   6.513   7.880  0.2659 -0.0116 -0.0011
  881W        W 4400   4.629   7.596  11.968 -0.0561 -0.3756  0.1591
  882W        W 4401   1.846   6.964  10.632  0.0781  0.5514  0.2095
  883W        W 4402   6.117   0.635  10.571 -0.0358  0.1083  0.3448
  884W        W 4403   2.967   5.676   9.380  0.4401 -0.1484  0.0867
  885W        W 4404   9.472   5.331  11.626 -0.1954  0.0821  0.2381
  886W        W 4405   7.114   7.371   9.370 -0.0337  0.3241  0.1106
  887W        W 4406   8.081   7.880   0.116 -0.1516  0.0413 -0.2972
  888W        W 4407   6.442   2.039   3.942 -0.0649  0.0393 -0.0212
  889W        W 4408   8.456   1.349   3.611 -0.2513 -0.0297 -0.2653
  890W        W 4409   6.661   9.681   3.147 -0.0539  0.0109  0.0655
  891W        W 4410   4.791   1.320   8.957  0.1598  0.1136  0.3580
  892W        W 4411   5.662   0.591  11.169 -0.0208 -0.2106  0.1419
  893W        W 4412   0.571   5.834  11.749  0.2754 -0.0173 -0.0938
  894W        W 4413   0.455   2.090   9.152 -0.0514  0.0728  0.1878
  895W        W 4414   0.958   1.464  10.087  0.0317 -0.1128  0.1096
  896W        W 4415   8.857   6.489   0.707 -0.2746  0.0380  0.1331
  897W        W 4416   5.115   9.236   1.438 -0.1615  0.1678 -0.1969
  898W        W 4417   2.223   9.341  10.498  0.0615  0.2265 -0.0908
  899W        W 4418   2.393   0.089   4.726 -0.0404  0.3424  0.0763
  900W        W 4419   2.811   1.736  10.246  0.1396  0.1618 -0.3367
  901W        W 4420   4.109   1.433   2.264  0.2736  0.1840  0.1138
  902W        W 4421   9.181   5.938   9.989  0.0099  0.2221  0.1321
  903W        W 4422   2.979   0.263   0.697  0.0766 -0.1058 -0.1338
  904W        W 4423   6.429   0.906   2.000  0.2582  0.0572  0.1668
  905W        W 4424   0.041   6.365   4.680 -0.2685 -0.0213  0.2880
  906W        W 4425   4.623   0.536  11.027 -0.0465 -0.1459 -0.0847
  907W        W 4426   2.442   5.175   1.532 -0.1768  0.0587  0.0490
  908W        W 4427   2.473   1.365  10.295 -0.1896  0.3990 -0.2010
  909W        W 4428   5.061   3.619   0.686  0.1629 -0.3633  0.0108
  910W        W 4429   1.949   8.247   3.570 -0.1176 -0.0331 -0.4852
  911W        W 4430   4.065   2.884   9.377  0.2656  0.2456 -0.1686
  912W        W 4431   8.305   8.416   8.710 -0.0568  0.1000 -0.2369
  913W        W 4432   5.256   3.299   1.653  0.1205  0.2151 -0.3336
  914W        W 4433   3.228   7.480   8.792  0.0756 -0.2051  0.0466
  915W        W 4434   3.124   8.065  12.008 -0.0222 -0.3158  0.3111
  916W        W 4435   4.426   3.167   3.040 -0.3824 -0.1756  0.0672
  917W        W 4436   1.050   4.147  10.297 -0.3065 -0.1892  0.1533
  918W        W 4437   5.392   6.597  12.138 -0.3906 -0.2203  0.0050
  919W        W 4438   5.512   4.707   3.031  0.2855  0.0367 -0.0453
  920W        W 4439   3.398   7.330  10.887  0.4071 -0.3331 -0.0947
  921W        W 4440   9.224   9.562   0.836  0.1113  0.1602  0.0780
  922W        W 4441   9.246   4.684  10.415  0.2020 -0.2057  0.0137
  923W        W 4442   6.564   5.636   3.095  0.0635 -0.0207 -0.2052
  924W        W 4443   7.633   0.998   2.571 -0.2262 -0.1633  0.0503
  925W        W 4444   4.591   1.878   9.816  0.0307 -0.1420  0.0303
  926W        W 4445   5.671   5.471   1.427  0.3056 -0.0985  0.3090
  927W        W 4446   8.968   2.890  11.732 -0.1544 -0.0068 -0.1209
  928W        W 4447   3.710   1.230   7.763 -0.0592  0.2096 -0.0574
  929W        W 4448   0.553   1.886   9.607  0.0301  0.4778  0.1081
  930W        W 4449   1.689   9.562   1.101  0.1026 -0.2815 -0.1652
  931W        W 4450   6.231   7.833  10.250 -0.1219 -0.1268 -0.0888
  932W        W 4451   0.094   8.781  10.938  0.0968 -0.1603  0.1015
  933W        W 4452   2.084   8.794   8.467  0.0094  0.0941  0.0610
  934W        W 4453   5.406   8.333   3.575  0.0859 -0.2153 -0.3014
  935W        W 4454   3.381   2.331   8.534  0.1193  0.1633  0.0897
  936W        W 4455   5.254   7.067  12.234  0.1106  0.5147  0.2832
  937W        W 4456   1.172   1.015  10.707 -0.1457 -0.0008  0.1533
  938W        W 4457   4.373   6.154   1.318  0.2561 -0.0996  0.2730
  939W        W 4458   0.067   1.363   3.248  0.1147 -0.0340  0.0808
  940W        W 4459   3.410   0.947   3.854 -0.1750 -0.0972  0.0906
  941W        W 4460   7.350   1.991  11.267  0.1215  0.0185 -0.1841
  942W        W 4461   3.813   4.517   0.418  0.2535 -0.1488 -0.0222
  943W        W 4462   0.814   4.916  10.185 -0.0438 -0.0905  0.0716
  944W        W 4463   0.269   8.312   2.746  0.2440  0.1575 -0.0685
  945W        W 4464   9.564   3.899   1.293  0.1373  0.2024  0.1005
  946W        W 4465   3.279   5.280   9.104  0.1003 -0.1515  0.1297
  947W        W 4466   3.362   2.261  10.616 -0.2104  0.0491  0.0455
  948W        W 4467   9.119   7.557   0.070 -0.2023 -0.0142 -0.0724
  949W        W 4468   9.012   1.014  11.528 -0.1348 -0.1289 -0.0102
  950W        W 4469   2.513   8.224  11.339 -0.0137 -0.0772 -0.2255
  951W        W 4470   2.303   4.547   9.968  0.0517  0.2852 -0.0335
  952W        W 4471   0.647   2.467   0.470  0.1201  0.1998  0.0429
  953W        W 4472   5.804   7.938   9.776 -0.3687 -0.1534 -0.0770
  954W        W 4473   1.296   5.957   9.511 -0.1177 -0.0635 -0.0212
  955W        W 4474   2.039   8.254   2.871  0.0738 -0.4674 -0.2078
  956W        W 4475   7.620   0.292   0.892 -0.0913 -0.1006  0.0419
  957W        W 4476   6.643   3.414   4.055  0.2350 -0.0768 -0.0091
  958W        W 4477   8.911   9.707  12.376 -0.1236 -0.0658 -0.1571
  959W        W 4478   4.098   9.435  11.384 -0.2995  0.0734 -0.4592
  960W        W 4479   6.384   0.012  12.321 -0.3387 -0.0394 -0.2622
  961W        W 4480   3.287   5.885   2.751  0.0130  0.2254 -0.2513
  962W        W 4481   2.517   4.767  12.377 -0.1191  0.1390 -0.0829
  963W        W 4482   0.445   0.993   0.831 -0.1655  0.5085 -0.3497
  964W        W 4483   4.067   4.758   9.720 -0.1837 -0.1307  0.2141
  965W        W 4484   2.828   7.092  10.041  0.3617  0.1199 -0.1403
  966W        W 4485   1.819   9.202   9.804  0.1679  0.2066 -0.1128
  967W        W 4486   2.916   1.044   4.221  0.2192  0.2756 -0.0525
  968W        W 4487   9.377   7.714   2.068 -0.0335 -0.0030 -0.2270
  969W        W 4488   0.756   5.050  10.891  0.1331 -0.0266  0.0825
  970W        W 4489   3.812   6.098   2.078 -0.1383 -0.4409  0.0863
  971W        W 4490   0.366   2.878   8.832 -0.2165  0.1101  0.0335
  972W        W 4491   2.055   0.850   9.722 -0.3339  0.0116 -0.2617
  973W        W 4492   0.524   3.567   1.673  0.2661  0.1386  0.0676
  974W        W 4493   1.565   2.645   8.460  0.2265  0.0044  0.2869
  975W        W 4494   7.883   3.378   1.504  0.0877  0.0313 -0.0427
  976W        W 4495   2.599   5.668  12.207 -0.0316 -0.2555  0.0490
  977W        W 4496   1.471   3.810  12.068 -0.1460 -0.0132  0.0431
  978W        W 4497   4.804   2.250   2.037 -0.0617 -0.3957  0.2176
  979W        W 4498   6.637   7.682   8.203  0.1151 -0.0079  0.1208
  980W        W 4499   1.081   5.385  10.712  0.2177 -0.0043  0.0131
  981W        W 4500   2.889   1.608   2.147 -0.2225  0.0502 -0.0947
  982W        W 4501   5.959   2.569   8.809 -0.1384 -0.0789  0.0736
  983W        W 4502   4.775   7.127   9.949  0.0566  0.0538  0.1663
  984W        W 4503   0.312   8.531   0.713  0.0756  0.3009  0.1893
  985W        W 4504   4.540   0.500   9.209  0.1902  0.0040  0.1158
  986W        W 4505   0.632   1.013  11.965  0.0421  0.3641  0.0615
  987W        W 4506   7.483   6.073  11.689  0.1321  0.0475 -0.1270
  988W        W 4507   8.772   4.599   1.921  0.0519 -0.3038 -0.0369
  989W        W 4508   3.300   2.226   2.911 -0.1532  0.1868 -0.1931
  990W        W 4509   8.324   1.491   2.242  0.2303 -0.1907  0.2719
  991W        W 4510   1.897   2.894   2.025  0.1525  0.3480 -0.0538
  992W        W 4511   7.347   5.075   2.715 -0.0363 -0.3505  0.0993
  993W        W 4512   2.758   1.507   9.484  0.1565  0.2643 -0.0232
  994W        W 4513   3.489   5.874   1.240  0.2245  0.0276  0.0654
  995W        W 4514   6.824   1.958  12.372  0.2014  0.3093 -0.3250
  996W        W 4515   0.275   3.601  10.463 -0.2471  0.0174 -0.0637
  997W        W 4516   9.656   7.862   9.946 -0.3644  0.3152 -0.0659
  998W        W 4517   5.028   0.563   1.874 -0.1128  0.1413 -0.2354
  999W        W 4518   1.093   7.119  11.341  0.2983 -0.2325 -0.1995
 1000W        W 4519   4.184   8.989   3.790 -0.1320  0.3371  0.0910
 1001W        W 4520   6.781   4.005   9.559 -0.0925 -0.0301  0.0582
 1002W        W 4521   5.139   0.740   9.853 -0.1928  0.1697  0.2656
 1003W        W 4522   4.182   0.657   1.522  0.0265 -0.0247 -0.1250
 1004W        W 4523   9.383   4.083   3.040 -0.2253  0.1784  0.0626
 1005W        W 4524   8.598   2.145   0.021  0.1391 -0.2778  0.0871
 1006W        W 4525   3.464   6.278   1.588 -0.2566  0.0370 -0.0765
 1007W        W 4526   8.320   8.125   2.893 -0.2163 -0.1746 -0.0651
 1008W        W 4527   0.473   4.580   2.128  0.1523  0.3002  0.0330
 1009W        W 4528   0.778   3.353   2.975 -0.1849 -0.2251  0.1875
 1010W        W 4529   9.550   4.275   0.273  0.2975 -0.2493 -0.0983
 1011W        W 4530   9.405   8.561  11.837  0.1781  0.0792 -0.0062
 1012W        W 4531   6.490   8.992  11.100  0.2572  0.0594  0.3300
 1013W        W 4532   0.030   4.723   8.216 -0.0177 -0.1788 -0.3042
 1014W        W 4533   8.792   5.971   2.183  0.2157 -0.0321 -0.1748
 1015W        W 4534   6.896   2.879   0.744 -0.1224  0.1752 -0.2925
 1016W        W 4535   0.480   3.472   9.976  0.2417 -0.2568 -0.1250
 1017W        W 4536   5.981   0.051  10.416 -0.1918  0.0218 -0.0691
 1018W        W 4537   1.545   0.326  10.846  0.0469  0.1196  0.3644
 1019W        W 4538   0.582   7.755  12.165 -0.0999  0.0745  0.0248
 1020W        W 4539   6.159   6.025   0.354 -0.0846 -0.1821  0.1538
 1021W        W 4540   7.523   5.773   8.372  0.1593  0.0256  0.0289
 1022W        W 4541   3.001   6.205   0.523 -0.0863  0.1293  0.0393
 1023W        W 4542   5.542   2.145   3.065 -0.1261 -0.1967 -0.0925
 1024W        W 4543   8.031   3.344   2.073  0.0070  0.0651  0.0704
 1025W        W 4544   1.112   5.118   9.418  0.1890 -0.0459  0.0603
 1026W        W 4545   5.755   8.429   9.870 -0.0067 -0.3097 -0.0468
 1027W        W 4546   5.780   3.243   3.029  0.0337 -0.0927 -0.1530
 1028W        W 4547   5.173   5.543   1.167 -0.1012 -0.1402 -0.1243
 1029W        W 4548   6.271   6.597   1.461  0.2415 -0.2576 -0.0417
 1030W        W 4549   3.136   2.122  10.182 -0.0901 -0.5749  0.2075
 1031W        W 4550   5.846   2.289   2.715  0.2033  0.0853 -0.0354
 1032W        W 4551   3.126   2.505   2.493  0.2015  0.1057 -0.4387
 1033W        W 4552   8.011   3.927   3.517 -0.1784 -0.1390 -0.1075
 1034W        W 4553   8.930   2.078   2.922 -0.1517 -0.1156 -0.0815
 1035W        W 4554   2.624   7.766   1.007 -0.1174 -0.1529  0.1302
 1036W        W 4555   7.110   4.297   9.436  0.0210  0.0176 -0.1588
 1037W        W 4556   2.286   0.210   9.075  0.0047 -0.2304  0.0724
 1038W        W 4557   5.822   2.062  11.383 -0.0834  0.1926 -0.0501
 1039W        W 4558   7.768   7.047   0.640  0.3684 -0.1794 -0.1540
 1040W        W 4559   7.767   9.234  11.390  0.0889 -0.0516  0.2228
 1041W        W 4560   8.099   6.718   1.997 -0.1781 -0.2246 -0.0498
 1042W        W 4561   2.510   3.053  12.192  0.0127 -0.0191  0.1555
 1043W        W 4562   9.618   2.077   1.004 -0.3369  0.0768 -0.0185
 1044W        W 4563   7.177   8.321   1.954  0.2869 -0.3402  0.1985
 1045W        W 4564   0.244   4.830   3.322  0.0397  0.1767 -0.0155
 1046W        W 4565   4.319   0.006  11.888 -0.0998  0.2520  0.1380
 1047W        W 4566   8.627   4.633   8.874 -0.2228  0.2291 -0.3575
 1048W        W 4567   1.153   0.718  11.062 -0.0417  0.1742  0.0859
 1049W        W 4568   5.268   7.604   9.217  0.0928 -0.0940 -0.0345
 1050W        W 4569   3.722   8.935  11.940 -0.1848 -0.0886  0.1261
 1051W        W 4570   5.211   0.049   8.996 -0.2589 -0.0565 -0.1570
 1052W        W 4571   4.700   2.598  12.250 -0.1201  0.1993 -0.2192
 1053W        W 4572   7.882   9.453  10.865 -0.0255  0.5253  0.2156
 1054W        W 4573   7.350   7.813  11.632 -0.2982  0.1061  0.0656
 1055W        W 4574   8.415   0.168   7.692 -0.0516  0.1163  0.4459
 1056W        W 4575   1.894   2.219   9.712 -0.2032  0.0342 -0.0250
 1057W        W 4576   5.270   4.436   2.232 -0.0232 -0.4986 -0.2008
 1058W        W 4577   0.220   0.424   1.309  0.0201  0.3896 -0.1800
 1059W        W 4578   2.825   5.488   1.478  0.2225 -0.3449  0.0419
 1060W        W 4579   6.195   4.223   4.241  0.0916  0.1083 -0.0165
 1061W        W 4580   0.117   4.733   0.318 -0.1330  0.0083 -0.1974
 1062W        W 4581   6.985   2.526   9.103  0.0073  0.0230 -0.4249
 1063W        W 4582   1.721   5.806  11.852 -0.1945 -0.1084 -0.1125
 1064W        W 4583   0.924   6.551   8.954 -0.2254  0.1153  0.0233
 1065W        W 4584   8.497   7.569  11.345  0.0016 -0.0100 -0.0183
 1066W        W 4585   1.326   8.799   3.880  0.0627  0.1970 -0.0126
 1067W        W 4586   6.611   9.628   1.714  0.1372  0.2081  0.2009
 1068W        W 4587   7.638   5.798  11.064 -0.1139 -0.0492 -0.2236
 1069W        W 4588   8.586   5.676  11.358  0.0119  0.0121 -0.2123
 1070W        W 4589   3.670   2.671  10.800  0.4898 -0.1811 -0.0640
 1071W        W 4590   5.748   8.654  10.883  0.0023  0.0643  0.1112
 1072W        W 4591   6.669   6.335   1.489 -0.0033 -0.2957 -0.2003
 1073W        W 4592   0.732   1.322  12.405 -0.1082  0.0133  0.2931
 1074W        W 4593   2.127   3.042   0.592  0.0739 -0.0684 -0.2397
 1075W        W 4594   4.731   2.204  11.957  0.0488  0.1017  0.1175
 1076W        W 4595   4.175   5.208   1.025  0.2171 -0.2024  0.1406
 1077W        W 4596   0.621   4.287   8.976  0.2736  0.2082 -0.2625
 1078W        W 4597   7.030   7.063   8.717 -0.0862  0.0662  0.0902
 1079W        W 4598   5.642   3.198   1.362  0.1310  0.1750  0.0334
 1080W        W 4599   4.442   0.868   9.877 -0.0881 -0.1487 -0.2889
 1081W        W 4600   5.285   2.330  11.915 -0.1515  0.1039 -0.1884
 1082W        W 4601   8.136   5.611  11.197  0.0019 -0.0045  0.2030
 1083W        W 4602   5.976   9.099  11.035  0.1743 -0.0619  0.1053
 1084W        W 4603   4.355   5.869   2.322 -0.3839 -0.0813  0.0692
 1085W        W 4604   5.176   3.431  11.471  0.0540  0.0901 -0.3665
 1086W        W 4605   5.481   2.226   3.553  0.1643  0.0353 -0.1378
 1087W        W 4606   5.754   3.440  10.090  0.2613  0.1518  0.4508
 1088W        W 4607   5.423   3.441   2.235 -0.1779  0.0031  0.0738
 1089W        W 4608   2.492   5.913   2.511  0.3393  0.0427 -0.0418
 1090W        W 4609   5.079   2.278   3.153 -0.0045 -0.0625  0.0552
 1091W        W 4610   4.717   0.819   1.518 -0.0242 -0.1513 -0.3755
 1092W        W 4611   8.668   2.163   8.632  0.0733 -0.0056 -0.3525
 1093W        W 4612   8.946   8.138   8.115 -0.0576  0.0276 -0.1481
 1094W        W 4613   3.611   7.823   1.657 -0.2512  0.0835 -0.1915
 1095W        W 4614   1.330   1.492   0.933 -0.2188  0.1107  0.0145
 1096W        W 4615   6.009   4.687   1.475 -0.3138 -0.0826 -0.0515
 1097W        W 4616   4.862   2.491   9.460  0.2393  0.2351 -0.0263
 1098W        W 4617   9.281   3.200   9.064  0.0181 -0.1061  0.4503
 1099W        W 4618   3.390   1.208   1.064 -0.1982 -0.2672 -0.0827
 1100W        W 4619   4.856   9.652  11.714  0.1669 -0.1650  0.2865
 1101W        W 4620   4.400   8.360  12.229  0.0958  0.2341 -0.4278
 1102W        W 4621   6.716   6.571   4.001  0.0439  0.2999  0.0835
 1103W        W 4622   4.236   1.386   1.317 -0.1013 -0.1792 -0.1589
 1104W        W 4623   2.389   8.261   9.048 -0.2041  0.0411 -0.0142
 1105W        W 4624   2.297   2.525   9.733 -0.1541 -0.0255 -0.1541
 1106W        W 4625   7.300   3.036   2.531  0.1940 -0.1163 -0.0871
 1107W        W 4626   0.451   4.504  12.092  0.0735 -0.2961  0.6082
 1108W        W 4627   6.793   1.776   3.628 -0.1400  0.0465 -0.1737
 1109W        W 4628   7.759   3.519  12.193  0.1027 -0.3139  0.2361
 1110W        W 4629   5.051   8.605   3.347  0.2495  0.1695  0.0391
 1111W        W 4630   5.617   3.120   8.937  0.0905  0.0198 -0.1736
 1112W        W 4631   8.256   9.063   1.782  0.0297 -0.3098  0.1922
 1113W        W 4632   7.756   3.717   9.927  0.2694 -0.1095 -0.0301
 1114W        W 4633   5.342   3.505   8.779 -0.0158  0.5722 -0.3023
 1115W        W 4634   0.574   3.533  11.360  0.1939  0.1269 -0.1483
 1116W        W 4635   3.651   7.569  11.253  0.1632  0.4115  0.0324
 1117W        W 4636   2.524   5.802  10.249 -0.0280  0.3037 -0.3231
 1118W        W 4637   8.484   6.546   7.490  0.0367  0.0047  0.1434
 1119W        W 4638   8.860   8.332   8.941  0.0860  0.0416  0.0896
 1120W        W 4639   5.640   0.602   3.588  0.1030 -0.0205 -0.0839
 1121W        W 4640   8.200   5.071  10.451 -0.1482 -0.1450  0.0464
 1122W        W 4641   6.720   4.928   1.119  0.1663  0.4856 -0.0298
 1123W        W 4642   3.743   4.420  10.771 -0.2450 -0.0127  0.3513
 1124W        W 4643   2.274   7.754   9.802  0.0365  0.1507  0.2181
 1125W        W 4644   8.380   4.119   2.552 -0.3327 -0.1752 -0.2639
 1126W        W 4645   7.983   0.138   0.131  0.4171  0.0857 -0.0745
 1127W        W 4646   2.338   4.112   1.039 -0.2061  0.0204 -0.2307
 1128W        W 4647   4.307   7.459  10.748  0.2382  0.0688  0.2429
 1129W        W 4648   5.597   2.212  10.607 -0.0786  0.0002  0.1055
 1130W        W 4649   9.219   1.756   1.212 -0.3115  0.1879 -0.4137
 1131W        W 4650   6.497   3.895  10.579 -0.2986  0.1668  0.2546
 1132W        W 4651   1.208   3.965  12.463  0.1765  0.1205 -0.0301
 1133W        W 4652   1.088   8.127   1.899  0.1302  0.2042  0.0974
 1134W        W 4653   9.620   5.833   3.045 -0.1171  0.0055 -0.0485
 1135W        W 4654   0.241   9.469   0.025  0.0893 -0.1085 -0.0855
 1136W        W 4655   5.659   0.264   2.558  0.2607 -0.1363  0.0071
 1137W        W 4656   4.209   0.564   4.341 -0.0176 -0.0390  0.0554
 1138W        W 4657   0.263   4.152  12.358 -0.0958  0.0271 -0.2514
 1139W        W 4658   0.316   3.418   0.372  0.1925 -0.0623  0.0274
 1140W        W 4659   0.673   9.027   2.011 -0.0572 -0.0875  0.3132
 1141W        W 4660   1.820   1.310   0.445 -0.0455 -0.1553  0.2710
 1142W        W 4661   1.897   5.536   3.808 -0.0963 -0.0660 -0.2767
 1143W        W 4662   1.556   0.175  10.310  0.0290  0.0817  0.0833
 1144W        W 4663   7.863   2.815  11.531  0.1294 -0.1426  0.0014
 1145W        W 4664   8.849   5.500   0.988  0.0667  0.2329 -0.0870
 1146W        W 4665   5.728   9.629   9.072  0.1738  0.1570  0.1469
 1147W        W 4666   7.993   1.805  12.000  0.1941 -0.1171 -0.4657
 1148W        W 4667   8.967   1.948   9.847 -0.1641 -0.0782 -0.0522
 1149W        W 4668   7.044   5.631   8.256  0.2245  0.3401 -0.0579
 1150W        W 4669   2.535   1.546   1.789 -0.0452 -0.0888 -0.2103
 1151W        W 4670   5.501   5.769  10.444  0.0173 -0.2969 -0.1162
 1152W        W 4671   1.672   2.915   3.813 -0.1937 -0.1408  0.1090
 1153W        W 4672   2.883   1.859   1.659 -0.3009 -0.0123 -0.1479
 1154W        W 4673   6.259   3.655   1.761 -0.1316  0.1382 -0.4263
 1155W        W 4674   9.542   2.144   2.589 -0.0471 -0.0730  0.3785
 1156W        W 4675   4.611   0.442  10.127 -0.1536 -0.1652  0.1679
 1157W        W 4676   0.634   7.981   2.792  0.1767  0.1460 -0.0807
 1158W        W 4677   8.303   5.365   1.940 -0.2518 -0.1903  0.1299
 1159W        W 4678   7.784   0.676   8.994 -0.1437 -0.0578 -0.3092
 1160W        W 4679   9.086   3.863   3.390  0.2175  0.0279 -0.1021
 1161W        W 4680   2.350   5.915   8.237 -0.1413  0.2385  0.0347
 1162W        W 4681   1.105   4.108  11.757 -0.2973 -0.0302 -0.1391
 1163W        W 4682   8.215   4.120   1.210 -0.0288  0.2028  0.0167
 1164W        W 4683   1.386   4.686   4.104  0.0152  0.0241 -0.1442
 1165W        W 4684   3.609   0.933   2.161  0.2831  0.2817  0.1245
 1166W        W 4685   0.217   3.147  10.267 -0.1567  0.4055  0.0747
 1167W        W 4686   9.626   2.958   0.615  0.0192  0.0448 -0.0763
 1168W        W 4687   8.324   6.980   0.085 -0.0400  0.0237 -0.2444
 1169W        W 4688   2.435   9.444   9.154  0.2042  0.2886 -0.3314
 1170W        W 4689   7.379   0.281   9.709  0.2041  0.3556 -0.1917
 1171W        W 4690   7.152   3.818   9.029  0.0627  0.3399  0.2771
 1172W        W 4691   7.298   7.273   0.800 -0.2495  0.1075  0.0491
 1173W        W 4692   0.076   8.386   0.161 -0.2466  0.1641 -0.2584
 1174W        W 4693   3.383   9.321   2.791 -0.0341  0.0705 -0.4486
 1175W        W 4694   0.672   7.207   1.462 -0.0478  0.0611 -0.0124
 1176W        W 4695   0.707   0.405  10.042  0.0829 -0.4551 -0.0726
 1177W        W 4696   5.465   5.166   2.865 -0.1713  0.0576  0.3863
 1178W        W 4697   7.099   3.277   0.993  0.1956 -0.4232 -0.1340
 1179W        W 4698   8.264   1.449   1.673  0.2438  0.1291  0.1081
 1180W        W 4699   7.283   7.729   2.596  0.2823 -0.3260  0.1277
 1181W        W 4700   1.667   9.420  10.283  0.0216  0.0881  0.2859
 1182W        W 4701   0.465   3.696   1.077 -0.1036  0.0336 -0.0575
 1183W        W 4702   6.082   8.973  11.961 -0.1623  0.4222 -0.3377
 1184W        W 4703   6.368   7.368   2.952 -0.2397  0.4329  0.2795
 1185W        W 4704   2.606   2.471   2.254 -0.1525 -0.1300 -0.0889
 1186W        W 4705   5.805   0.358   0.727  0.0410  0.0143 -0.0807
 1187W        W 4706   1.795   8.876   9.413 -0.2926 -0.1126  0.0896
 1188W        W 4707   3.326   8.870   3.706 -0.1302  0.2625 -0.0256
 1189W        W 4708   6.658   8.174   9.577  0.2599 -0.1523 -0.0469
 1190W        W 4709   8.561   4.673   2.381 -0.2816 -0.0796 -0.2600
 1191W        W 4710   6.753   3.854   8.577  0.1639 -0.0598 -0.0759
 1192W        W 4711   1.460   6.390   3.534 -0.1715 -0.0842 -0.1723
 1193W        W 4712   8.135   1.947   8.595 -0.1901  0.1031  0.0798
 1194W        W 4713   5.617   3.924  10.974  0.1900 -0.0484 -0.0701
 1195W        W 4714   6.229   7.685  11.665 -0.1341 -0.1216  0.0787
 1196W        W 4715   5.850   8.735   1.234 -0.3066  0.0309 -0.1154
 1197W        W 4716   0.588   6.327  11.616  0.1605 -0.1278 -0.2829
 1198W        W 4717   2.246   1.142   3.133 -0.1498 -0.0370  0.0462
 1199W        W 4718   7.062   0.838   0.807 -0.3711 -0.2668  0.0898
 1200W        W 4719   4.420   8.775  11.981 -0.0392 -0.0436  0.0232
 1201W        W 4720   6.693   6.778   8.448 -0.1318 -0.1146  0.3551
 1202W        W 4721   4.658   0.811  11.476  0.0916  0.0832 -0.1310
 1203W        W 4722   2.458   9.259   2.544 -0.0638 -0.1221 -0.1767
 1204W        W 4723   6.460   7.375   9.924  0.1577 -0.3244  0.1452
 1205W        W 4724   3.278   0.971  12.198  0.1800 -0.1033  0.0013
 1206W        W 4725   5.176   6.400   1.400  0.2988  0.0903  0.3922
 1207W        W 4726   0.772   6.273  12.095 -0.1976 -0.1287 -0.1032
 1208W        W 4727   9.635   9.429   3.375 -0.0550  0.1968 -0.0254
 1209W        W 4728   1.870   1.698   1.284 -0.1045 -0.1719 -0.0658
 1210W        W 4729   1.663   2.375   2.480  0.5431 -0.0822 -0.0027
 1211W        W 4730   0.239   8.939   0.960 -0.2339  0.1243 -0.1131
 1212W        W 4731   2.348   6.159   9.637  0.2174 -0.2724 -0.0123
 1213W        W 4732   2.214   3.613   4.168  0.2419  0.0330 -0.2392
 1214W        W 4733   6.923   1.962   0.955 -0.0499 -0.3646 -0.0164
 1215W        W 4734   3.061   7.340  12.422 -0.1349 -0.1173 -0.0647
 1216W        W 4735   6.532   8.131   0.711  0.3040 -0.3349 -0.1315
 1217W        W 4736   4.321   4.704   0.385  0.0505 -0.0474  0.1283
 1218W        W 4737   6.147   4.772  10.740  0.0241 -0.1486  0.2792
 1219W        W 4738   0.371   8.135   9.708 -0.1458  0.1020 -0.2572
 1220W        W 4739   5.785   8.525   8.095  0.1957 -0.3731  0.1822
 1221W        W 4740   8.050   8.857   0.206  0.2444 -0.2142  0.0569
 1222W        W 4741   7.914   7.164   2.945 -0.1814 -0.0419  0.0334
 1223W        W 4742   9.211   9.655   0.268  0.1730  0.2509  0.2378
 1224W        W 4743   2.396   1.549  11.296 -0.2828 -0.0135 -0.1168
 1225W        W 4744   0.324   0.903  10.063  0.0906  0.1920  0.0745
 1226W        W 4745   8.806   3.294  12.114 -0.1365  0.0209  0.3849
 1227W        W 4746   1.867   9.228   8.582  0.4013  0.0744 -0.0390
 1228W        W 4747   7.767   4.329   0.098 -0.1292  0.1783 -0.0807
 1229W        W 4748   5.865   2.741  11.538 -0.3261  0.1918  0.2226
 1230W        W 4749   7.931   5.543  10.215 -0.2483 -0.0612 -0.0491
 1231W        W 4750   7.356   2.074   9.988 -0.1497  0.0421  0.1825
 1232W        W 4751   0.411   3.960  11.050 -0.2343 -0.1724  0.1939
 1233W        W 4752   7.453   8.354  11.611  0.1314  0.1924 -0.2539
 1234W        W 4753   2.560   8.264   2.591 -0.0584 -0.1384  0.1999
 1235W        W 4754   7.493   4.002  12.384  0.2319  0.1558  0.1424
 1236W        W 4755   2.332   8.421  10.199 -0.0283  0.1799 -0.1626
 1237W        W 4756   6.298   6.132  12.406 -0.2275 -0.0548  0.2004
 1238W        W 4757   2.219   7.647  12.089  0.0409  0.2512  0.2134
 1239W        W 4758   5.221   0.949   1.657 -0.0793 -0.3202  0.1675
 1240W        W 4759   7.898   2.584   1.152  0.2890  0.2729 -0.1417
 1241W        W 4760   7.097   3.495   2.568  0.0827  0.1579 -0.3759
 1242W        W 4761   2.489   1.101   1.608 -0.2904 -0.0814  0.0398
 1243W        W 4762   5.102   7.652  11.727 -0.4758  0.2335 -0.2809
 1244W        W 4763   8.789   5.542   2.802 -0.4173  0.2683  0.1352
 1245W        W 4764   2.759   0.304   2.251 -0.0066 -0.0449  0.1602
 1246W        W 4765   9.512   1.087   8.620 -0.1242 -0.0758 -0.2105
 1247W        W 4766   2.067   5.538   1.355  0.3577  0.0030 -0.0376
 1248W        W 4767   7.811   0.753   2.106  0.1177  0.0560  0.0175
 1249W        W 4768   4.780   7.317  12.437  0.1745 -0.1137 -0.0586
 1250W        W 4769   4.623   7.898   2.626 -0.0531 -0.2248  0.2774
 1251W        W 4770   1.269   7.081   0.695  0.3128  0.1823  0.0157
 1252W        W 4771   7.166   7.221  10.140  0.0588 -0.1106 -0.0163
 1253W        W 4772   9.167   5.183   0.778  0.0438 -0.1699  0.0184
 1254W        W 4773   7.518   5.027   3.171  0.2538 -0.2389  0.2291
 1255W        W 4774   2.854   4.332  12.394  0.0090 -0.0916 -0.1091
 1256W        W 4775   9.000   6.731  12.188  0.1700  0.4935  0.3564
 1257W        W 4776   3.392   9.574   4.086 -0.1670  0.1224  0.0760
 1258W        W 4777   6.707   0.352  12.097 -0.2611 -0.1232  0.0154
 1259W        W 4778   3.341   7.051   9.276 -0.3824  0.0318  0.1082
 1260W        W 4779   7.761   8.619  10.642  0.0305  0.0305  0.2188
 1261W        W 4780   7.698   3.689   1.865 -0.2476 -0.2029  0.1202
 1262W        W 4781   0.598   8.490  11.107  0.1494 -0.0398  0.1683
 1263W        W 4782   2.830   1.810  12.067 -0.2306 -0.0949  0.2963
 1264W        W 4783   9.280   8.565   9.749  0.0793  0.3227  0.1840
 1265W        W 4784   2.571   1.000   2.774 -0.2541  0.2503 -0.0700
 1266W        W 4785   3.187   6.057   1.961 -0.0546 -0.0097 -0.1784
 1267W        W 4786   6.104   3.534   3.823  0.0776  0.1221  0.2435
 1268W        W 4787   1.660   0.683   9.306 -0.2363  0.1777 -0.1937
 1269W        W 4788   8.987   6.317   9.731 -0.1654  0.0282 -0.0801
 1270W        W 4789   8.868   5.106   3.306 -0.1320 -0.0516 -0.0415
 1271W        W 4790   8.656   6.383   2.501 -0.2521 -0.1287 -0.2799
 1272W        W 4791   0.877   1.259   2.646  0.0339 -0.0999  0.0361
 1273W        W 4792   0.521   1.490   4.331 -0.6720 -0.0847 -0.1117
 1274W        W 4793   7.040   8.643   1.312 -0.1926  0.3358 -0.2962
 1275W        W 4794   9.209   0.853   1.708 -0.3316  0.4803 -0.3310
 1276W        W 4795   1.174   7.515   0.439  0.1045 -0.0763 -0.0537
 1277W        W 4796   6.797   2.666  11.304  0.0981 -0.3700  0.4519
 1278W        W 4797   2.244   1.885   4.648  0.1685  0.1804  0.1023
 1279W        W 4798   7.803   9.197   1.465 -0.1918 -0.1570  0.0054
 1280W        W 4799   4.382   2.301   2.357  0.0481 -0.4608 -0.1537
 1281W        W 4800   5.092   8.791  10.422  0.4070 -0.1968  0.0824
 1282W        W 4801   7.500   2.083   1.794  0.2639 -0.2106  0.1895
 1283W        W 4802   1.949   8.288   1.930  0.1741  0.0085 -0.0082
 1284W        W 4803   1.643   8.575  10.428 -0.3678  0.1060 -0.0681
 1285W        W 4804   6.754   1.904  10.863  0.1028 -0.0438  0.2274
 1286W        W 4805   0.904   2.890   3.902 -0.4939  0.0579 -0.0599
 1287W        W 4806   7.860   8.413   2.626 -0.3004  0.2223  0.2409
 1288W        W 4807   0.004   6.512  11.277  0.1823 -0.2838 -0.0295
 1289W        W 4808   8.259   9.351   8.456 -0.1289 -0.1680 -0.2028
 1290W        W 4809   7.993   1.581   8.908 -0.4387 -0.1088 -0.0369
 1291W        W 4810   0.765   3.898   9.254 -0.1067  0.0538  0.1223
 1292W        W 4811   6.923   6.578   0.598  0.2139  0.2550  0.3094
 1293W        W 4812   7.230   9.370   0.002 -0.1023 -0.0549  0.0278
 1294W        W 4813   1.966   8.398   8.750 -0.3030 -0.2307  0.0009
 1295W        W 4814   1.598   4.236  11.587  0.0265  0.2499 -0.0597
 1296W        W 4815   5.598   8.296  11.674  0.1104 -0.0196 -0.0923
 1297W        W 4816   2.245   0.388  12.053  0.1521 -0.1819  0.3138
 1298W        W 4817   5.104   5.504   2.204 -0.0881 -0.1030 -0.1921
 1299W        W 4818   0.822   5.808  12.303 -0.0085 -0.2498 -0.0829
 1300W        W 4819   6.140   1.171   8.140 -0.0513 -0.2923 -0.0117
 1301W        W 4820   9.400   4.582   2.726 -0.4987 -0.4442  0.3356
 1302W        W 4821   6.266   4.849  12.294  0.0430  0.2592 -0.0470
 1303W        W 4822   4.979   2.632  11.008 -0.0573 -0.0916  0.1037
 1304W        W 4823   2.507   2.860  10.131 -0.2624 -0.0997  0.1111
 1305W        W 4824   4.535   4.932   1.302  0.1072 -0.0559  0.0194
 1306W        W 4825   8.758   1.003  10.012 -0.0779 -0.1260 -0.0317
 1307W        W 4826   7.595   1.178   3.433  0.2506  0.0873 -0.1955
 1308W        W 4827   6.235   4.120   3.346 -0.2326  0.0395  0.3536
 1309W        W 4828   1.121   6.778   3.813  0.2697  0.2330 -0.0914
 1310W        W 4829   2.418   3.504  12.320 -0.0028 -0.1287 -0.1510
 1311W        W 4830   8.955   7.924   3.377  0.0496 -0.1302  0.1799
 1312W        W 4831   1.023   5.243   2.777 -0.1324 -0.2061 -0.2459
 1313W        W 4832   8.968   1.111  10.516  0.0026  0.1130 -0.1897
 1314W        W 4833   0.916   1.543   3.468  0.3838  0.2551  0.0541
 1315W        W 4834   1.400   5.057   8.561 -0.0013  0.0981  0.2003
 1316W        W 4835   8.132   5.771   3.074 -0.0456 -0.0209 -0.3254
 1317W        W 4836   6.313   6.273  10.515 -0.0744 -0.2821 -0.1423
 1318W        W 4837   4.581   5.787   1.734 -0.1278 -0.1448  0.0328
 1319W        W 4838   2.002   0.371   9.528  0.2048  0.2587 -0.0254
 1320W        W 4839   3.469   4.321   1.855  0.1231  0.4242 -0.0020
 1321W        W 4840   7.543   9.405   3.012  0.3957 -0.0106 -0.2908
 1322W        W 4841   9.573   0.159   4.380 -0.1146  0.2018  0.2977
 1323W        W 4842   9.126   6.548   3.830  0.2871 -0.1451 -0.0149
 1324W        W 4843   4.427   6.542   0.824  0.2131 -0.0202 -0.0613
 1325W        W 4844   2.694   3.382   9.857 -0.2374 -0.2752 -0.1947
 1326W        W 4845   8.299   7.732  11.941 -0.2805  0.2459 -0.1317
 1327W        W 4846   8.595   7.064  12.170  0.0801  0.0905  0.2562
 1328W        W 4847   3.866   5.906  11.879  0.2800  0.1937  0.1613
 1329W        W 4848   2.376   6.988   3.076  0.0338  0.4196 -0.0661
 1330W        W 4849   4.176   8.828   4.380 -0.1591 -0.3326 -0.1285
 1331W        W 4850   0.197   4.527   9.924  0.2478 -0.1065  0.0247
 1332W        W 4851   0.349   4.344   0.475 -0.2018  0.1727 -0.3922
 1333W        W 4852   5.778   1.805  10.011  0.1580 -0.2223  0.0013
 1334W        W 4853   6.831   3.011   9.167 -0.0568 -0.1601  0.1985
 1335W        W 4854   7.229   1.431   4.929  0.3366 -0.0334 -0.1648
 1336W        W 4855   5.144   1.008   9.087 -0.0500  0.0803  0.3153
 1337W        W 4856   7.701   4.692  12.240 -0.0081  0.2769  0.0846
 1338W        W 4857   1.038   5.963   9.921 -0.1580 -0.0186  0.2549
 1339W        W 4858   4.117   3.660   9.756 -0.0265  0.0608 -0.0144
 1340W        W 4859   2.502   2.437   8.575  0.0542 -0.1698 -0.2712
 1341W        W 4860   7.260   8.944   8.582 -0.0232 -0.0930 -0.0430
 1342W        W 4861   5.717   9.200   1.297 -0.2825  0.0440  0.0513
 1343W        W 4862   3.717   9.678   9.377  0.1372  0.2746 -0.0331
 1344W        W 4863   8.564   8.078   2.386  0.0551  0.0539  0.1879
 1345W        W 4864   9.436   6.969   1.619 -0.2076 -0.3396  0.0664
 1346W        W 4865   9.500   3.172   1.028 -0.0978  0.0780  0.3748
 1347W        W 4866   7.128   6.571   1.406  0.4886 -0.0109  0.2225
 1348W        W 4867   0.770   3.356  10.322  0.0365  0.0875 -0.0479
 1349W        W 4868   6.818   5.244   9.550  0.0759 -0.1015  0.2951
 1350W        W 4869   2.471   2.058   2.647  0.4031 -0.1906 -0.2772
 1351W        W 4870   2.263   0.463   0.310  0.4103  0.0950  0.1291
 1352W        W 4871   8.205   3.128   0.569 -0.2936  0.0071  0.0915
 1353W        W 4872   8.467   8.671   9.706  0.0232 -0.0932 -0.4120
 1354W        W 4873   0.326   5.262   8.464 -0.0494 -0.0502  0.1659
 1355W        W 4874   8.899   4.514   0.142 -0.1105 -0.2805  0.2414
 1356W        W 4875   3.518   0.569   2.878 -0.0241  0.1178  0.0920
 1357W        W 4876   6.162   3.248   1.313  0.2645 -0.0618  0.1388
 1358W        W 4877   4.270   0.938   2.378  0.3930  0.3495  0.1034
 1359W        W 4878   1.984   0.937  11.528 -0.0962 -0.1211 -0.0310
 1360W        W 4879   4.175   2.965   4.390 -0.0046  0.1057 -0.3259
 1361W        W 4880   4.811   3.729  10.331 -0.0263 -0.1981 -0.0389
 1362W        W 4881   2.308   6.517   9.231  0.1928  0.0060 -0.1231
 1363W        W 4882   5.239   6.434  11.287 -0.1082  0.2542 -0.1081
 1364W        W 4883   1.672   2.088   3.204 -0.2334 -0.2159 -0.0102
 1365W        W 4884   5.635   6.510  11.665  0.2734  0.1823 -0.0287
 1366W        W 4885   4.143   8.428  11.350 -0.2766 -0.2388  0.1330
 1367W        W 4886   8.872   7.484   3.116  0.0181 -0.0892  0.0389
 1368W        W 4887   4.193   5.275   9.758  0.0853  0.1756 -0.3211
 1369W        W 4888   7.014   9.550   1.446 -0.1092 -0.0435  0.2950
 1370W        W 4889   5.474   8.710   0.387  0.2210  0.0333  0.0196
 1371W        W 4890   3.058   5.946   1.519 -0.0823 -0.0006 -0.0725
 1372W        W 4891   9.624   0.461   9.988  0.1697 -0.4323  0.2895
 1373W        W 4892   7.021   6.976   2.721  0.1201 -0.0579 -0.1035
 1374W        W 4893   2.923   2.811   3.272 -0.0719 -0.1386  0.2299
 1375W        W 4894   8.107   5.379   3.878 -0.2841  0.0067  0.0560
 1376W        W 4895   1.507   3.409   2.560  0.0196  0.3447 -0.0593
 1377W        W 4896   8.680   4.104  11.468 -0.2193  0.1827  0.0933
 1378W        W 4897   3.895   1.356  10.875 -0.3986 -0.2607  0.4456
 1379W        W 4898   2.576   1.001  10.700 -0.2726  0.1263 -0.5056
 1380W        W 4899   5.321   9.640   1.393 -0.1422  0.1004  0.0830
 1381W        W 4900   3.259   0.648  11.855  0.4940  0.0033 -0.1732
 1382W        W 4901   1.834   8.756   2.017 -0.1834  0.0224  0.1667
 1383W        W 4902   6.864   7.026   9.760 -0.4506 -0.2835  0.0275
 1384W        W 4903   9.579   4.805  11.975  0.0963 -0.2357 -0.1623
 1385W        W 4904   0.316   3.045   7.794  0.2128  0.0325 -0.0627
 1386W        W 4905   4.616   1.976  10.335 -0.0737 -0.1127  0.2414
 1387W        W 4906   6.154   6.224   2.218  0.2631  0.2584 -0.1729
 1388W        W 4907   8.981   6.849  11.691 -0.2325  0.0221 -0.1302
 1389W        W 4908   8.293   0.997   1.911 -0.3636 -0.1518  0.1683
 1390W        W 4909   0.506   3.399  11.987  0.0877 -0.1844 -0.2338
 1391W        W 4910   0.883   8.793   9.542 -0.0360 -0.0264 -0.2018
 1392W        W 4911   2.996   3.119  12.302  0.0529 -0.0676  0.3020
 1393W        W 4912   7.775   9.603  11.764  0.0525  0.1656  0.1334
 1394W        W 4913   3.968   5.537   2.365 -0.3928  0.1083 -0.0047
 1395W        W 4914   7.906   4.577  10.222  0.1567  0.2278  0.1797
 1396W        W 4915   9.062   2.699   8.502  0.0579 -0.4421 -0.0285
 1397W        W 4916   5.829   4.952  12.011  0.2158  0.2140 -0.0709
 1398W        W 4917   2.724   6.369   8.831 -0.0435 -0.2023  0.1370
 1399W        W 4918   8.574   3.751   1.321 -0.2263  0.1523 -0.1719
 1400W        W 4919   5.116   4.358  11.841  0.5075 -0.0011  0.0087
 1401W        W 4920   5.361   0.078   4.363  0.1164 -0.1767 -0.3391
 1402W        W 4921   6.378   5.940   9.228 -0.0742 -0.0320  0.0234
 1403W        W 4922   2.861   0.737   1.111 -0.1686 -0.2757 -0.1319
 1404W        W 4923   1.008   5.602   1.466 -0.1703 -0.0012  0.2068
 1405W        W 4924   9.563   5.407   1.084  0.2454  0.2968  0.2191
 1406W        W 4925   0.048   8.428   9.983  0.0242  0.1196 -0.1303
 1407W        W 4926   8.805   1.850   3.343  0.4099  0.3951  0.1664
 1408W        W 4927   7.900   3.787  11.816 -0.2688  0.0279  0.3696
 1409W        W 4928   3.716   0.001  11.086 -0.1451  0.1129  0.0874
 1410W        W 4929   6.841   0.907   3.223  0.1337 -0.0254  0.0768
 1411W        W 4930   2.444   4.356   0.195 -0.3867  0.3483 -0.1267
 1412W        W 4931   3.342   4.904   2.527 -0.2339  0.0918  0.2126
 1413W        W 4932   6.023   2.442   1.128  0.3721 -0.2225 -0.0640
 1414W        W 4933   5.421   6.784   1.762 -0.0846  0.0117  0.1834
 1415W        W 4934   0.490   5.187  10.487  0.0476 -0.2195  0.1330
 1416W        W 4935   1.620   6.518   0.476  0.0484 -0.1349  0.1120
 1417W        W 4936   4.693   4.537  10.797  0.0023 -0.1700  0.0057
 1418W        W 4937   4.843   0.106   2.610  0.1120 -0.0042  0.0029
 1419W        W 4938   6.564   8.688   9.819 -0.1825 -0.0036 -0.0258
 1420W        W 4939   9.112   7.580   0.883  0.0550  0.1539  0.4330
 1421W        W 4940   4.860   0.596   2.424 -0.2997  0.0497 -0.1741
 1422W        W 4941   0.629   8.003   8.870  0.0434  0.1998  0.1455
 1423W        W 4942   1.981   5.819   2.577  0.0498  0.1274 -0.1754
 1424W        W 4943   6.680   6.490   2.453  0.2987  0.0377  0.0127
 1425W        W 4944   1.995   4.279  10.619  0.1247 -0.2488  0.2418
 1426W        W 4945   8.419   2.732   3.932 -0.0271 -0.0127  0.2240
 1427W        W 4946   8.896   7.820   9.761 -0.3039 -0.2049 -0.0807
 1428W        W 4947   9.319   8.946   8.662  0.1343 -0.0054  0.2563
 1429W        W 4948   8.261   1.574   9.436 -0.2544  0.0010  0.1150
 1430W        W 4949   3.652   1.921   8.414  0.0746 -0.0076 -0.1824
 1431W        W 4950   4.987   4.911   2.141 -0.2422 -0.1088  0.1782
 1432W        W 4951   6.426   4.762   2.520 -0.0926 -0.2006 -0.1585
 1433W        W 4952   7.563   7.697   0.228 -0.2666  0.0715  0.0943
 1434W        W 4953   2.652   4.520  11.824 -0.0092  0.0692 -0.3401
 1435W        W 4954   2.576   9.628   8.560 -0.1642  0.1950 -0.0722
 1436W        W 4955   4.028   9.347  12.448 -0.3061 -0.0559 -0.1100
 1437W        W 4956   2.875   6.363  10.208  0.3403 -0.1305  0.2130
 1438W        W 4957   7.607   2.410   3.209  0.1495 -0.0387  0.1095
 1439W        W 4958   0.045   9.641  10.322  0.1339  0.0369 -0.0682
 1440W        W 4959   8.798   1.311   0.580  0.0627 -0.0014 -0.0959
 1441W        W 4960   1.233   3.789  10.969  0.0817  0.1527  0.1340
 1442W        W 4961   4.692   8.723  10.163  0.2931 -0.2003 -0.0628
 1443W        W 4962   8.457   2.720   9.977 -0.2071 -0.3267  0.0664
 1444W        W 4963   3.302   0.397  11.022  0.4696 -0.2007  0.1277
 1445W        W 4964   2.162   0.913   0.603 -0.0835  0.1054  0.1825
 1446W        W 4965   6.619   1.044   8.191  0.1224 -0.2863  0.2940
 1447W        W 4966   9.224   7.450  11.667  0.3659 -0.1074  0.0935
 1448W        W 4967   7.416   0.061   2.244 -0.1155  0.1044 -0.1680
 1449W        W 4968   0.658   2.078   8.668  0.0641  0.3889  0.0219
 1450W        W 4969   7.959   6.021  11.922  0.0239 -0.1589  0.1412
 1451W        W 4970   1.952   5.150   2.979  0.1367 -0.4283  0.1846
 1452W        W 4971   0.786   4.573  11.693  0.1289  0.1568 -0.1488
 1453W        W 4972   9.446   9.160   2.186 -0.0263  0.2024 -0.3008
 1454W        W 4973   8.680   1.018   8.706  0.2754 -0.0110  0.2065
 1455W        W 4974   5.202   5.285   3.384 -0.0754  0.0190 -0.0767
 1456W        W 4975   5.359   8.897   1.184  0.4089  0.0342 -0.0593
 1457W        W 4976   4.751   8.748  10.842 -0.0872 -0.0804  0.3337
 1458W        W 4977   0.195   4.008  10.190  0.0258  0.0120  0.2658
 1459W        W 4978   2.926   7.453  11.312  0.1819 -0.0161 -0.2637
 1460W        W 4979   8.246   6.443   9.007 -0.0097  0.0278  0.0540
 1461W        W 4980   7.410   2.521  12.471  0.2801 -0.4274  0.1044
 1462W        W 4981   7.267   9.186   9.701  0.0003  0.0232  0.2378
 1463W        W 4982   5.965   9.099   0.382  0.2115 -0.1478  0.3086
 1464W        W 4983   5.151   3.181  11.000  0.2153 -0.2549  0.1349
 1465W        W 4984   9.030   5.503   9.844  0.1176  0.1706 -0.0333
 1466W        W 4985   6.110   3.612   2.920 -0.0945 -0.0130  0.2821
 1467W        W 4986   9.594   2.601   3.073 -0.1812  0.0507 -0.0958
 1468W        W 4987   5.167   8.183   1.836  0.0007  0.0450  0.2680
 1469W        W 4988   5.941   2.137   3.869  0.3283 -0.1157  0.1709
 1470W        W 4989   8.436   2.581  12.280 -0.0511 -0.1928  0.0863
 1471W        W 4990   5.401   6.436   9.020 -0.2522 -0.0935 -0.0278
 1472W        W 4991   0.426   2.218   1.840 -0.1189 -0.3146 -0.0580
 1473W        W 4992   9.043   6.423  10.786 -0.0254  0.1243 -0.0898
 1474W        W 4993   1.585   2.873  10.397 -0.1134  0.0811 -0.0275
 1475W        W 4994   8.752   3.655  11.218  0.0208  0.2060  0.0311
 1476W        W 4995   8.814   7.068   8.310 -0.0472  0.4167  0.0375
 1477W        W 4996   1.850   0.505   1.807 -0.0573 -0.3004 -0.1175
 1478W        W 4997   0.237   1.322   2.138  0.3465  0.2869  0.4441
 1479W        W 4998   1.231   1.641  12.371 -0.0149  0.2140 -0.2027
 1480W        W 4999   1.215   2.650  12.268 -0.0299  0.3929  0.1190
 1481W        W 5000   2.293   3.270  10.723  0.1028  0.0669  0.0174
 1482W        W 5001   4.909   6.208   9.158 -0.2398 -0.0273  0.2932
 1483W        W 5002   2.011   6.474  10.801  0.0690  0.4360  0.4334
 1484W        W 5003   5.926   6.703   9.660  0.0056 -0.1008 -0.1703
 1485W        W 5004   3.855   0.239   3.055 -0.1127  0.0758  0.0406
 1486W        W 5005   9.602   6.438   3.817  0.2256  0.0902  0.2042
 1487W        W 5006   3.192   3.191   9.646 -0.2005  0.4247  0.0692
 1488W        W 5007   0.514   4.561   0.109 -0.0836  0.1453  0.2102
 1489W        W 5008   9.329   8.414   7.913  0.0578  0.0385  0.0853
 1490W        W 5009   2.431   1.874   2.202  0.0538 -0.0956  0.3114
 1491W        W 5010   1.961   1.478  11.719  0.1511  0.2170  0.0003
 1492W        W 5011   7.050   6.718  12.174 -0.0987  0.0811 -0.0162
 1493W        W 5012   6.572   7.612   1.834 -0.0570  0.2666 -0.3634
 1494W        W 5013   4.545   7.040  10.560  0.0351 -0.1447  0.0598
 1495W        W 5014   2.369   3.657  11.743  0.0799  0.1075 -0.2870
 1496W        W 5015   0.123   0.753   1.791 -0.2533 -0.4330  0.0629
 1497W        W 5016   9.162   1.864   8.666  0.0415  0.2212  0.0531
 1498W        W 5017   0.860   9.560  10.790 -0.1168  0.1133  0.0815
 1499W        W 5018   2.865   9.691   3.976 -0.1115  0.4061  0.1915
 1500W        W 5019   2.853   7.904   1.766 -0.2570  0.1485 -0.1118
 1501W        W 5020   4.262   0.098   2.799  0.1012 -0.2918  0.0276
 1502W        W 5021   4.351   7.510   1.158 -0.0990  0.3245 -0.0875
 1503W        W 5022   1.527   4.460   1.171 -0.2877  0.0072 -0.0757
 1504W        W 5023   5.946   4.640   0.416  0.0435 -0.1841 -0.1863
 1505W        W 5024   0.142   3.464   0.806 -0.2056  0.0439  0.3443
 1506W        W 5025   3.427   8.837   2.813  0.1466 -0.1834 -0.0721
 1507W        W 5026   3.339   0.945   8.489 -0.4569  0.2112  0.1591
 1508W        W 5027   9.488   4.059  12.285  0.2707  0.0737 -0.1595
 1509W        W 5028   3.023   0.854   0.630 -0.0505 -0.1784  0.1667
 1510W        W 5029   2.156   1.658   2.695  0.2557 -0.1536  0.1344
 1511W        W 5030   1.018   4.680   9.633 -0.1799  0.1395  0.4521
 1512W        W 5031   0.384   0.413   3.153 -0.3515  0.0428  0.2057
 1513W        W 5032   8.647   3.583  10.003 -0.0659  0.0631 -0.2703
 1514W        W 5033   1.034   7.635  11.877  0.2967 -0.0623  0.2689
 1515W        W 5034   9.517   5.022   2.398 -0.1406  0.0670  0.1231
 1516W        W 5035   8.414   4.601  10.423  0.2266  0.4282 -0.2461
 1517W        W 5036   5.433   2.891   3.955  0.2050 -0.0752 -0.2484
 1518W        W 5037   5.164   4.693  10.574 -0.1992 -0.1867  0.1681
 1519W        W 5038   6.694   0.022   0.608 -0.2520  0.0775 -0.3204
 1520W        W 5039   5.580   5.247   3.908 -0.0121  0.1200  0.2173
 1521W        W 5040   2.159   3.566   9.810 -0.6192 -0.3274 -0.1169
 1522W        W 5041   1.698   8.380   1.543  0.0747  0.0075 -0.0308
 1523W        W 5042   3.106   8.469  11.497 -0.0049 -0.1391 -0.1598
 1524W        W 5043   7.940   7.619   3.403  0.1307  0.0933 -0.0863
 1525W        W 5044   8.354   1.550  10.894 -0.0438 -0.1006 -0.0361
 1526W        W 5045   5.706   7.170   0.498  0.0663 -0.0573  0.1057
 1527W        W 5046   0.350   4.003   1.510  0.0202 -0.0125 -0.2339
 1528W        W 5047   7.938   8.630   0.755 -0.1147  0.1708 -0.0998
 1529W        W 5048   1.888   9.361  11.630  0.1212 -0.4725 -0.1110
 1530W        W 5049   5.678   4.709  10.538 -0.2315  0.0140  0.0005
 1531W        W 5050   2.777   6.077   9.851 -0.1240  0.1959 -0.1386
 1532W        W 5051   0.590   7.061   8.758 -0.4856 -0.1374  0.2471
 1533W        W 5052   7.297   1.079   2.961 -0.5188  0.0092  0.1492
 1534W        W 5053   0.555   0.894  11.508 -0.0119 -0.4484  0.0316
 1535W        W 5054   4.013   2.788   2.260 -0.2847  0.0439  0.0453
 1536W        W 5055   2.957   6.121  10.995 -0.0019 -0.2815 -0.0043
 1537W        W 5056   2.628   5.552  11.698  0.3375 -0.0270  0.3573
 1538W        W 5057   7.969   6.016   2.590 -0.0820 -0.0258  0.0831
 1539W        W 5058   7.300   3.707   0.734 -0.4034 -0.1711  0.2343
 1540W        W 5059   1.609   7.120  10.118  0.0708  0.0878 -0.4155
 1541W        W 5060   0.988   2.044  10.989 -0.4047 -0.0643  0.0818
 1542W        W 5061   7.368   9.380  11.595 -0.1038 -0.0930  0.1434
 1543W        W 5062   2.622   6.490  11.696 -0.1958  0.0197 -0.0894
 1544W        W 5063   3.447   3.384  11.429  0.0302 -0.3451  0.2081
 1545W        W 5064   7.854   6.092   0.844 -0.0832  0.1587 -0.3902
 1546W        W 5065   0.563   5.105   1.901  0.0071 -0.1973 -0.1432
 1547W        W 5066   8.781   5.831   9.592 -0.0428 -0.3213  0.2301
 1548W        W 5067   7.182   5.587   2.481  0.1384  0.3915 -0.3219
 1549W        W 5068   4.739   3.502   9.206  0.0208 -0.4583 -0.0879
 1550W        W 5069   4.976   0.806   7.952  0.2460 -0.0383 -0.0083
 1551W        W 5070   1.006   4.413  12.284  0.2044  0.1960 -0.1805
 1552W        W 5071   7.622   8.109  11.261 -0.1418  0.0769 -0.0671
 1553W        W 5072   4.423   5.006  11.600 -0.2226 -0.2579  0.0506
 1554W        W 5073   4.990   3.254   9.682 -0.3105 -0.2160  0.1380
 1555W        W 5074   9.382   7.852   2.771  0.1342 -0.0503  0.0497
 1556W        W 5075   8.128   0.144   4.636  0.1478  0.1158  0.3054
 1557W        W 5076   1.748   2.849   1.458  0.1959 -0.0839  0.0095
 1558W        W 5077   8.032   9.410  10.283  0.0655  0.0579  0.1066
 1559W        W 5078   7.095   7.681  12.460  0.0593 -0.2414  0.1767
 1560W        W 5079   3.311   7.571  11.746  0.0031 -0.2536 -0.3704
 1561W        W 5080   1.256   1.640   3.965 -0.0687  0.1611  0.1223
 1562W        W 5081   1.265   9.450   0.765 -0.0489  0.1637  0.0653
 1563W        W 5082   7.890   4.508  11.256 -0.1759  0.0012 -0.0712
 1564W        W 5083   4.777   3.969   0.911 -0.2132 -0.0301  0.2245
 1565W        W 5084   4.253   2.692   8.785 -0.1303  0.2590 -0.3686
 1566W        W 5085   1.338   5.882   3.727  0.0369 -0.2068  0.2516
 1567W        W 5086   5.608   1.301   1.611 -0.1526 -0.2570  0.0339
 1568W        W 5087   2.584   0.602   1.538  0.0500 -0.0771  0.2319
 1569W        W 5088   7.293   6.514   3.949 -0.1545  0.2628 -0.0887
 1570W        W 5089   8.965   4.333   2.455  0.2287 -0.0534 -0.0958
 1571W        W 5090   8.313   4.981   3.079  0.1812  0.1071  0.3213
 1572W        W 5091   4.393   0.011  12.411  0.0811 -0.4693  0.1242
 1573W        W 5092   4.622   0.890   2.040  0.1120  0.0069 -0.2585
 1574W        W 5093   7.118   1.822   2.025  0.0017  0.2070  0.0259
 1575W        W 5094   2.825   5.684   2.812 -0.2506  0.0526  0.0038
 1576W        W 5095   4.945   8.653  11.740 -0.0773  0.3253  0.0492
 1577W        W 5096   5.281   6.050  10.784  0.0372 -0.0486 -0.1575
 1578W        W 5097   0.438   9.669   9.469 -0.0379  0.0512 -0.3426
 1579W        W 5098   5.893   0.974  11.403 -0.1865 -0.3180  0.0901
 1580W        W 5099   6.565   2.015   2.516 -0.1006  0.0483 -0.1628
 1581W        W 5100   7.403   0.497   9.258 -0.0530 -0.2979 -0.3483
 1582W        W 5101   5.992   1.253   8.697 -0.0311 -0.0031  0.1662
 1583W        W 5102   5.827   6.285   2.571  0.1801 -0.0707  0.0058
 1584W        W 5103   4.918   1.835   2.345 -0.3497  0.0654  0.2910
 1585W        W 5104   3.545   1.977   1.666 -0.0299  0.1675  0.1631
 1586W        W 5105   0.420   0.170   9.045  0.0810 -0.1557 -0.2300
 1587W        W 5106   8.351   9.508   9.723 -0.1030  0.2010 -0.1095
 1588W        W 5107   6.764   2.513   1.140  0.4228 -0.1751 -0.0440
 1589W        W 5108   3.387   0.254  11.531 -0.1612 -0.3145  0.2126
 1590W        W 5109   8.811   0.289   3.550 -0.1577 -0.3032 -0.4350
 1591W        W 5110   3.801   8.707   3.514 -0.2702  0.1658 -0.4093
 1592W        W 5111   3.318   8.543   3.264 -0.2232  0.3065  0.0988
 1593W        W 5112   5.962   2.033  10.914  0.0360 -0.2953  0.2683
 1594W        W 5113   3.077   7.629   0.875  0.0030  0.0397  0.3464
 1595W        W 5114   8.323   4.202   9.001 -0.1868 -0.2744  0.3773
 1596W        W 5115   1.564   1.128   9.174  0.1182 -0.1955 -0.2542
 1597W        W 5116   1.438   4.289   2.598  0.0413 -0.1560 -0.1357
 1598W        W 5117   7.895   2.633   3.609  0.0818  0.0922  0.0944
 1599W        W 5118   9.398   7.761   3.321 -0.0207 -0.0934  0.2612
 1600W        W 5119   1.895   4.148  11.983  0.0922 -0.0895 -0.0655
 1601W        W 5120   4.567   2.613   2.732  0.0941  0.1555 -0.2139
 1602W        W 5121   7.454   1.841   3.322 -0.0741 -0.0065 -0.0109
 1603W        W 5122   8.023   5.517   8.989 -0.1881  0.1784 -0.0637
 1604W        W 5123   2.416   4.970   2.707 -0.1547 -0.1881 -0.0805
 1605W        W 5124   2.895   5.755   2.294 -0.1730  0.1536  0.2077
 1606W        W 5125   6.888   7.451   3.877  0.1294 -0.0668 -0.1840
 1607W        W 5126   3.984   5.862   1.009  0.0675  0.2020 -0.3215
 1608W        W 5127   7.077   9.045   2.227 -0.3570  0.0311  0.1275
 1609W        W 5128   1.640   0.796   8.776 -0.3933  0.0511 -0.2127
 1610W        W 5129   7.068   3.120   3.806  0.1070  0.1684 -0.1010
 1611W        W 5130   2.494   2.927   0.151  0.2130 -0.1388  0.0443
 1612W        W 5131   1.200   6.155  12.441 -0.0940 -0.1695 -0.1690
 1613W        W 5132   6.494   0.576   1.570  0.1803 -0.1364 -0.1808
 1614W        W 5133   3.378   1.528   3.127 -0.1117  0.0197  0.1139
 1615W        W 5134   3.309   2.902   1.064  0.1353  0.0022  0.2988
 1616W        W 5135   3.393   1.127   2.775 -0.1977  0.1620  0.0266
 1617W        W 5136   4.697   0.154   8.810  0.0040 -0.3603 -0.0853
 1618W        W 5137   0.287   5.275  10.013  0.0679  0.1724  0.1275
 1619W        W 5138   6.499   2.840   9.553  0.2669 -0.0415  0.0961
 1620W        W 5139   3.121   2.080  11.612  0.0759 -0.1043  0.2624
 1621W        W 5140   4.886   3.848   1.391 -0.0046 -0.0782  0.1730
 1622W        W 5141   7.600   5.186   3.644 -0.2298 -0.2680  0.1032
 1623W        W 5142   6.261   6.824  10.415 -0.1553 -0.2605  0.0432
 1624W        W 5143   4.385   2.356   3.694 -0.1553 -0.0190 -0.0454
 1625W        W 5144   7.237   3.891   1.487 -0.1307 -0.0718  0.3245
 1626W        W 5145   5.899   5.811   2.396  0.0247 -0.0184 -0.3466
 1627W        W 5146   6.303   3.398  10.415  0.1581 -0.0086 -0.4088
 1628W        W 5147   9.164   5.181   3.797 -0.4439 -0.3728  0.2957
 1629W        W 5148   8.822   7.250   1.179 -0.1090 -0.1647 -0.1966
 1630W        W 5149   2.384   7.712  11.580  0.0559 -0.2638 -0.1683
 1631W        W 5150   7.405   2.942   3.364  0.0581  0.3794  0.0529
 1632W        W 5151   4.294   2.400   7.762 -0.1193 -0.1255  0.0081
 1633W        W 5152   6.021   5.868   9.741  0.1129  0.0183 -0.0017
 1634W        W 5153   1.649   3.142   8.565 -0.0871 -0.1869 -0.1377
 1635W        W 5154   2.682   1.734   1.201 -0.3249  0.2679 -0.2193
 1636W        W 5155   5.660   0.711   0.241 -0.1852 -0.1929 -0.2845
 1637W        W 5156   8.370   1.070  10.362 -0.0213 -0.1013  0.0314
 1638W        W 5157   3.779   8.299  10.698  0.0536  0.0606  0.2615
 1639W        W 5158   9.359   5.272   0.246 -0.0830  0.1834 -0.1956
 1640W        W 5159   1.734   7.372   1.887 -0.1400 -0.2458 -0.0231
 1641W        W 5160   5.577   8.185  10.741 -0.3126 -0.1222 -0.1787
 1642W        W 5161   8.358   0.939   0.291  0.1686 -0.0431 -0.2525
 1643W        W 5162   9.312   7.649  10.542  0.2370 -0.0268 -0.1023
 1644W        W 5163   4.862   0.144   3.556 -0.2482  0.1339  0.0150
 1645W        W 5164   9.679   9.417  11.521 -0.1699 -0.0316 -0.0158
 1646W        W 5165   7.341   0.311   1.387  0.2100  0.0118  0.2047
 1647W        W 5166   3.975   0.580   4.821  0.0498  0.1575  0.1125
 1648W        W 5167   3.362   7.659   9.607 -0.1783  0.2257  0.1609
 1649W        W 5168   6.693   9.467   0.217  0.3330  0.2452  0.0299
 1650W        W 5169   1.273   2.061   3.638 -0.2100 -0.1581  0.1571
 1651W        W 5170   0.829   3.974  11.302  0.0442  0.2630  0.1511
 1652W        W 5171   8.970   6.036  10.495  0.1079 -0.2949  0.0952
 1653W        W 5172   3.676   3.069   2.947  0.0620 -0.1099  0.1125
 1654W        W 5173   8.198   6.737  11.285  0.3212 -0.1130 -0.0260
 1655W        W 5174   3.083   0.729   3.451 -0.0233  0.1014 -0.1523
 1656W        W 5175   9.435   5.661   1.716  0.3291 -0.2760  0.2136
 1657W        W 5176   6.407   7.729  12.387  0.2749 -0.0454  0.3415
 1658W        W 5177   5.937   7.008   2.883  0.1704  0.0468  0.0291
 1659W        W 5178   2.051   0.585   8.908 -0.0324  0.0418  0.2937
 1660W        W 5179   0.654   4.374  10.123  0.1885  0.1379  0.0030
 1661W        W 5180   5.519   9.398   3.497  0.0636 -0.2093 -0.0896
 1662W        W 5181   3.833   5.994   3.067  0.1464  0.0397 -0.0562
 1663W        W 5182   4.934   0.728  10.672  0.0020 -0.0500 -0.0266
 1664W        W 5183   2.521   3.189   8.918 -0.1740  0.2692  0.4763
 1665W        W 5184   6.403   3.483  11.411 -0.0902 -0.1125 -0.0583
 1666W        W 5185   3.739   4.004   2.825  0.1701  0.2792  0.0568
 1667W        W 5186   7.118   2.060   2.454 -0.1011  0.1613 -0.1891
 1668W        W 5187   4.340   2.647   3.293 -0.0547  0.1680  0.0380
 1669W        W 5188   6.693   1.364  11.111 -0.2031 -0.2720  0.2717
 1670W        W 5189   0.421   6.447   0.393  0.0446  0.3916  0.0317
 1671W        W 5190   7.973   5.180  11.674 -0.1885 -0.2081  0.0245
 1672W        W 5191   7.292   1.322   8.931 -0.0326  0.0165 -0.1619
 1673W        W 5192   9.575   1.864   4.502  0.2424 -0.2221 -0.0858
 1674W        W 5193   2.314   1.923  11.777  0.2056 -0.1292  0.0460
 1675W        W 5194   7.507   7.208   8.664  0.0214 -0.2978  0.1693
 1676W        W 5195   4.469   8.680   1.616  0.5363  0.1522 -0.0129
 1677W        W 5196   0.431   3.951   3.539 -0.1369  0.0640  0.1788
 1678W        W 5197   9.433   2.649  10.244  0.0796  0.0744 -0.2259
 1679W        W 5198   0.727   4.024   7.701  0.1979  0.2297 -0.1652
 1680W        W 5199   6.617   0.496   8.584 -0.0681 -0.1457  0.0205
 1681W        W 5200   2.083   6.755   1.584  0.1332  0.1276  0.2039
 1682W        W 5201   7.611   2.764   8.816  0.1305  0.0651 -0.0188
 1683W        W 5202   0.197   8.841   2.673  0.0084  0.1562 -0.1163
 1684W        W 5203   7.071   5.846   4.570 -0.1253  0.1233 -0.0840
 1685W        W 5204   6.811   9.172   1.711  0.0176 -0.0192 -0.0043
 1686W        W 5205   6.485   0.263  10.270  0.1029  0.2355 -0.0074
 1687W        W 5206   8.883   3.780   2.471  0.0501 -0.2916 -0.1216
 1688W        W 5207   5.388   9.246   4.490 -0.0252  0.1482  0.2589
 1689W        W 5208   0.135   9.689   2.356 -0.0570  0.0867  0.3573
 1690W        W 5209   6.648   0.379   0.097  0.1544  0.1794  0.3276
 1691W        W 5210   2.789   3.136   0.606 -0.1461  0.0595 -0.1026
 1692W        W 5211   2.650   6.034   9.253  0.2052 -0.1022  0.0092
 1693W        W 5212   2.216   3.874   0.108  0.1320  0.2129  0.1570
 1694W        W 5213   2.254   8.656  11.845 -0.0555  0.1413  0.1746
 1695W        W 5214   7.882   0.909  12.128  0.1587  0.3969 -0.2289
 1696W        W 5215   1.045   0.849   0.091 -0.1959 -0.0527 -0.1083
 1697W        W 5216   6.613   0.613   4.606  0.0929 -0.0466 -0.1095
 1698W        W 5217   6.422   8.132  11.464 -0.2541  0.0100 -0.1395
 1699W        W 5218   7.961   7.766   9.936  0.2392 -0.1612 -0.1193
 1700W        W 5219   0.426   9.199   0.363  0.1783  0.3118 -0.0461
 1701W        W 5220   7.120   4.647   3.424 -0.3657  0.2296  0.0073
 1702W        W 5221   1.830   8.958   2.725  0.0278  0.1400 -0.0177
 1703W        W 5222   6.993   5.059   0.294  0.4108  0.0583 -0.1919
 1704W        W 5223   2.563   5.917   0.580  0.2722 -0.1105  0.0407
 1705W        W 5224   2.955   1.805   3.054 -0.0370 -0.0651 -0.2683
 1706W        W 5225   0.395   1.502   0.744 -0.1089  0.0189  0.3942
 1707W        W 5226   1.637   6.797   2.242 -0.0156  0.4298  0.2391
 1708W        W 5227   8.360   0.872  12.303  0.0748  0.2205  0.1203
 1709W        W 5228   9.355   1.074   3.311  0.1567 -0.2434  0.0227
 1710W        W 5229   8.838   0.021   1.110 -0.0603  0.1746 -0.5160
 1711W        W 5230   5.401   2.465  10.169 -0.0450  0.1745 -0.1852
 1712W        W 5231   1.882   4.776   9.276 -0.1742  0.1793 -0.1654
 1713W        W 5232   2.801   2.340   9.555 -0.0228  0.0590  0.4744
 1714W        W 5233   2.089   5.750  12.197  0.0453 -0.0500  0.1121
 1715W        W 5234   2.446   0.723   2.369 -0.1812  0.2245  0.0623
 1716W        W 5235   3.262   9.266   0.235 -0.0439  0.2920 -0.2043
 1717W        W 5236   7.147   2.828   1.638  0.0108 -0.1048 -0.0046
 1718W        W 5237   0.786   3.229  11.028  0.1131 -0.0694 -0.0500
 1719W        W 5238   3.479   1.386   8.735 -0.4686 -0.4177 -0.1177
 1720W        W 5239   3.587   4.028  12.045  0.1291 -0.0414  0.1571
 1721W        W 5240   3.351   8.161   0.777  0.1372  0.1390 -0.0968
 1722W        W 5241   7.809   0.205   1.938 -0.0797 -0.0925 -0.2874
 1723W        W 5242   4.187   6.927   3.177 -0.1921 -0.1793 -0.0184
 1724W        W 5243   6.569   0.171   8.941  0.0834  0.1441  0.2104
 1725W        W 5244   8.321   5.163  12.239 -0.0396 -0.1138 -0.1909
 1726W        W 5245   9.112   2.205   0.838  0.2934  0.0341 -0.1764
 1727W        W 5246   9.140   5.056  10.058  0.1946  0.0251 -0.1611
 1728W        W 5247   0.497   2.059  10.752 -0.0830  0.1384  0.0696
 1729W        W 5248   2.013   0.217  11.185  0.0231  0.0461 -0.2737
 1730W        W 5249   3.845   3.437  11.121 -0.0282  0.4024 -0.1254
 1731W        W 5250   2.294   3.739   2.795  0.1121 -0.2403  0.0180
 1732W        W 5251   8.817   3.326   2.712 -0.1364 -0.0550  0.1114
 1733W        W 5252   3.442   9.526   1.594 -0.1823  0.1297  0.1165
 1734W        W 5253   2.011   2.817   2.734  0.0523 -0.1223 -0.2415
 1735W        W 5254   5.314   3.913  12.101  0.4471 -0.1530  0.0913
 1736W        W 5255   3.097   6.044   8.935  0.2593 -0.1534  0.2446
 1737W        W 5256   4.311   2.556   0.218  0.2321 -0.2194  0.1206
 1738W        W 5257   8.838   7.944   2.865 -0.0300 -0.2870  0.0465
 1739W        W 5258   0.598   1.978  12.065  0.1306 -0.0334 -0.4987
 1740W        W 5259   9.191   5.732  10.864 -0.0790  0.1093  0.2987
 1741W        W 5260   1.264   6.384  11.210  0.1016  0.3244  0.3023
 1742W        W 5261   7.779   8.672   9.037 -0.0515 -0.2592 -0.1084
 1743W        W 5262   8.028   4.101   1.647 -0.0027  0.0519 -0.0304
 1744W        W 5263   1.322   4.342  10.689  0.1096  0.0606 -0.0200
 1745W        W 5264   5.799   6.376   0.361 -0.3989 -0.0247  0.2001
 1746W        W 5265   5.273   0.904  11.056 -0.1071  0.1530  0.0121
 1747W        W 5266   6.249   8.236   4.512 -0.0263 -0.3821 -0.2318
 1748W        W 5267   0.619   6.705  12.440 -0.0544  0.0078 -0.3377
 1749W        W 5268   2.533   8.617  10.750  0.0820  0.3143  0.3991
 1750W        W 5269   9.502   6.896  11.972  0.3285 -0.1048  0.2950
 1751W        W 5270   4.514   3.286   2.034  0.1699 -0.1386 -0.1902
 1752W        W 5271   4.557   1.783   1.554  0.1164  0.0202  0.0567
 1753W        W 5272   9.474   7.696   0.457 -0.0756  0.1125 -0.1505
 1754W        W 5273   7.646   3.273   9.658 -0.0421 -0.0401  0.1348
 1755W        W 5274   1.946   2.246   4.006  0.0986 -0.0679  0.0624
 1756W        W 5275   7.794   4.063   0.761  0.2727  0.0158  0.2338
 1757W        W 5276   1.145   3.001   1.272  0.0651  0.2179  0.1020
 1758W        W 5277   4.016   4.460   3.127 -0.0906  0.2955  0.2933
 1759W        W 5278   3.313   7.253   9.906  0.0361 -0.0208 -0.0088
 1760W        W 5279   1.849   5.321  11.846 -0.0314  0.4625  0.1395
 1761W        W 5280   1.775   6.388   2.612  0.1604  0.4038 -0.0837
 1762W        W 5281   8.773   8.734  10.676 -0.1257  0.0430 -0.2906
 1763W        W 5282   4.751   6.749  11.256 -0.0688 -0.2095 -0.1209
 1764W        W 5283   4.032   4.131   1.540  0.1622  0.1782  0.1254
 1765W        W 5284   6.686   2.729   1.770  0.0361  0.0462 -0.0387
 1766W        W 5285   1.557   8.337   0.067 -0.1749  0.1193  0.3045
 1767W        W 5286   9.590   4.528   3.194  0.1740 -0.1816  0.0226
 1768W        W 5287   2.109   9.432   3.211 -0.0244 -0.1447  0.3142
 1769W        W 5288   8.508   8.487   0.939  0.0562 -0.3892  0.1501
 1770W        W 5289   4.656   9.214   2.516  0.0189 -0.0641 -0.1086
 1771W        W 5290   6.293   9.457  10.796 -0.0738 -0.2220 -0.0195
 1772W        W 5291   8.974   8.226  10.762 -0.0383 -0.0220 -0.0190
 1773W        W 5292   8.012   3.612   8.403 -0.1883 -0.0015 -0.1059
 1774W        W 5293   9.385   3.484   8.651 -0.1260 -0.0383  0.1413
 1775W        W 5294   2.874   8.406   1.602  0.0890  0.0788 -0.1716
 1776W        W 5295   9.447   5.738   9.077  0.3498  0.0728  0.0196
 1777W        W 5296   0.858   8.879  11.381 -0.0887 -0.0353 -0.1123
 1778W        W 5297   4.150   8.561   1.150  0.1047 -0.2741 -0.3447
 1779W        W 5298   0.017   7.400   1.827  0.5835 -0.0245 -0.0332
 1780W        W 5299   4.352   1.580   9.058  0.1267  0.0729 -0.1729
 1781W        W 5300   6.044   8.216   9.344  0.0907 -0.3408 -0.1392
 1782W        W 5301   7.434   1.209   0.768  0.0178 -0.0309 -0.0958
 1783W        W 5302   7.848   0.988  11.597 -0.2345  0.1853 -0.1062
 1784W        W 5303   8.354   4.314   2.051  0.0776 -0.2136 -0.0574
 1785W        W 5304   7.547   1.231  12.466  0.4192  0.1678 -0.3118
 1786W        W 5305   8.774   9.251   0.100  0.1921 -0.1058 -0.2457
 1787W        W 5306   4.714   7.330   1.506  0.1538  0.1232  0.0022
 1788W        W 5307   6.055   0.642   2.218  0.1013 -0.1560 -0.1323
 1789W        W 5308   5.396   0.706   0.908 -0.2038  0.1423 -0.2001
 1790W        W 5309   5.364   2.727  11.636 -0.1145 -0.2300  0.0730
 1791W        W 5310   0.263   3.834  11.977 -0.1348  0.0574  0.4257
 1792W        W 5311   9.672   5.054   2.902  0.1634  0.1636 -0.3128
 1793W        W 5312   9.265   6.017   2.065  0.1041  0.0312 -0.0787
 1794W        W 5313   6.942   5.240  11.957 -0.0685 -0.3474  0.1620
 1795W        W 5314   5.252   8.382  12.026 -0.1310  0.3000 -0.3583
 1796W        W 5315   2.276   2.349   9.251 -0.1187 -0.0185  0.1590
 1797W        W 5316   0.061   8.843   0.376  0.0798 -0.0894  0.0735
 1798W        W 5317   2.862   5.949   0.978  0.0747  0.3934  0.2298
 1799W        W 5318   2.332   4.495   9.467 -0.1260  0.3653  0.3185
 1800W        W 5319   2.177   6.877   2.633 -0.1819 -0.2898 -0.0058
 1801W        W 5320   4.386   0.578   2.899  0.2526 -0.1694  0.2115
 1802W        W 5321   2.887   1.330   1.443  0.2624 -0.1418  0.3526
 1803W        W 5322   4.098   4.290   2.035  0.1794  0.1683 -0.2493
 1804W        W 5323   0.454   6.983   0.396  0.1569 -0.0506  0.0939
 1805W        W 5324   0.846   8.334   3.289 -0.1761 -0.1130  0.3385
 1806W        W 5325   2.418   0.538   9.859 -0.0770  0.2664 -0.1850
 1807W        W 5326   8.488   9.596   2.436 -0.1218 -0.0413 -0.3001
 1808W        W 5327   3.611   2.662   2.581  0.0501  0.1010 -0.0217
 1809W        W 5328   2.071   5.838   9.909  0.0948 -0.1579  0.0049
 1810W        W 5329   9.329   7.534   9.030 -0.0897  0.0479 -0.1768
 1811W        W 5330   7.545   7.539   3.115  0.1744  0.0290  0.1880
 1812W        W 5331   3.062   0.182   3.537  0.0885  0.0137  0.1975
 1813W        W 5332   7.504   9.626   3.982  0.1234  0.1437  0.1460
 1814W        W 5333   9.055   7.224  12.106  0.1929  0.1857 -0.2221
 1815W        W 5334   0.396   7.408   3.185  0.3427  0.0092 -0.1751
 1816W        W 5335   5.132   0.467   1.344  0.0522  0.0490  0.1293
 1817W        W 5336   2.605   2.203   1.019 -0.1548  0.1534  0.2428
 1818W        W 5337   1.927   9.012   4.094 -0.0092 -0.0488  0.4112
 1819W        W 5338   2.367   6.402   2.729 -0.2237  0.0641 -0.2764
 1820W        W 5339   6.033   1.968   2.412  0.1441 -0.2152  0.0946
 1821W        W 5340   4.716   2.642   8.934 -0.0635 -0.1723 -0.1138
 1822W        W 5341   6.995   1.376   0.563 -0.1806 -0.3907  0.0647
 1823W        W 5342   4.107   0.260   9.216 -0.2064 -0.0801  0.0274
 1824W        W 5343   6.784   2.966   3.362 -0.0046  0.1512  0.1522
 1825W        W 5344   5.076   5.609   9.459  0.1560  0.1590 -0.1598
 1826W        W 5345   7.993   7.121  11.691 -0.1975  0.0130 -0.1146
 1827W        W 5346   6.874   6.523  11.395  0.0248 -0.1469 -0.3732
 1828W        W 5347   1.154   2.256   8.786  0.1684 -0.1170  0.0823
 1829W        W 5348   6.134   2.498   9.467  0.3910 -0.0686  0.0403
 1830W        W 5349   1.241   8.576   9.237 -0.1106 -0.0715 -0.2375
 1831W        W 5350   8.686   5.606  12.123 -0.1690  0.2803  0.0303
 1832W        W 5351   8.508   2.035  10.894  0.3651 -0.0160  0.0349
 1833W        W 5352   5.988   7.041   3.780  0.3444  0.3405 -0.1164
 1834W        W 5353   8.747   5.747   7.744 -0.2593  0.2075  0.0295
 1835W        W 5354   2.636   2.046  11.388 -0.0739 -0.2414  0.0127
 1836W        W 5355   2.463   2.142   1.482  0.0225  0.2866 -0.1464
 1837W        W 5356   6.226   5.884   2.799  0.3289 -0.0459  0.3162
 1838W        W 5357   3.101   0.006   2.473  0.2237 -0.0659  0.0472
 1839W        W 5358   7.172   3.602   1.970  0.1143 -0.1343 -0.1679
 1840W        W 5359   6.377   7.362  11.283 -0.1226  0.0859  0.0888
 1841W        W 5360   9.433   6.987   8.986 -0.1156  0.2890  0.1022
 1842W        W 5361   6.764   9.389   8.891 -0.3953  0.0615  0.1732
 1843W        W 5362   7.544   6.739  12.446  0.0265  0.0117  0.0860
 1844W        W 5363   5.201   0.569   4.081 -0.0504 -0.0579 -0.0230
 1845W        W 5364   7.901   0.120   1.426 -0.2350 -0.0561  0.1883
 1846W        W 5365   4.957   3.662   1.954  0.0070 -0.0615 -0.2547
 1847W        W 5366   5.864   2.140   8.451 -0.2207 -0.0459 -0.1079
 1848W        W 5367   9.329   3.406   1.495  0.0201 -0.0989 -0.0095
 1849W        W 5368   9.693   0.620  10.815 -0.0817  0.2075 -0.2069
 1850W        W 5369   3.213   8.662   4.190 -0.0274  0.1454  0.0208
 1851W        W 5370   1.314   5.976   3.258 -0.0786 -0.0191  0.1446
 1852W        W 5371   0.944   6.351  10.685 -0.3560  0.1068  0.0763
 1853W        W 5372   8.411   2.144  12.000  0.2712  0.1432  0.0378
 1854W        W 5373   0.031   8.938   9.964 -0.0835 -0.0477 -0.0222
 1855W        W 5374   5.794   8.064   1.327  0.4593 -0.1646  0.1019
 1856W        W 5375   5.379   2.300   0.387  0.1528  0.3376  0.0913
 1857W        W 5376   7.309   8.352   4.321  0.1980 -0.1340  0.0035
 1858W        W 5377   1.062   6.761   8.505  0.0076  0.0922 -0.0331
 1859W        W 5378   5.578   7.971   9.344  0.0026  0.2863  0.0974
 1860W        W 5379   3.508   1.397   3.722 -0.1864  0.2171 -0.0849
 1861W        W 5380   9.574   8.649   1.771  0.3000 -0.0126  0.1960
 1862W        W 5381   5.213   1.304   3.065  0.1110  0.0991 -0.0023
 1863W        W 5382   8.894   0.394   4.086  0.4187 -0.0210  0.0481
 1864W        W 5383   0.129   6.794  12.467 -0.1641  0.0122 -0.0035
 1865W        W 5384   7.553   4.243   9.643  0.1049  0.0250  0.1041
 1866W        W 5385   0.674   6.267   9.869  0.1364  0.0425 -0.0097
 1867W        W 5386   6.353   2.768   1.366 -0.3040  0.0323  0.0823
 1868W        W 5387   6.135   9.071   4.228 -0.2009  0.0155 -0.4151
 1869W        W 5388   8.088   3.047  10.027  0.1020 -0.3893 -0.0598
 1870W        W 5389   5.356   4.848  11.147 -0.2991 -0.2702 -0.0710
 1871W        W 5390   9.256   7.376   1.340  0.1819  0.4846  0.2357
 1872W        W 5391   4.227   0.836  12.373 -0.1955  0.1339  0.1154
 1873W        W 5392   5.625   4.975   3.482 -0.0635 -0.2700 -0.0699
 1874W        W 5393   8.521   6.225  10.580 -0.1522  0.2043  0.1260
 1875W        W 5394   3.035   8.449   3.659 -0.0389 -0.0885 -0.0468
 1876W        W 5395   3.887   7.981  11.579  0.1252  0.0644 -0.3595
 1877W        W 5396   1.567   7.281  11.538  0.0610  0.0620 -0.2383
 1878W        W 5397   6.658   7.286   2.529  0.0050  0.0781 -0.0886
 1879W        W 5398   3.884   4.603   1.757  0.0048 -0.1780  0.0109
 1880W        W 5399   3.515   9.065   1.465  0.1431  0.1077  0.2631
 1881W        W 5400   8.045   6.544   0.070  0.3502 -0.1516  0.0010
 1882W        W 5401   8.463   2.960   8.384 -0.0898  0.3449 -0.0808
 1883W        W 5402   2.603   4.955  10.080  0.1621  0.1111 -0.0755
 1884W        W 5403   8.888   0.136   0.603  0.1449 -0.0702 -0.0999
 1885W        W 5404   4.129   8.164   8.529  0.2428 -0.1495  0.0401
 1886W        W 5405   7.529   2.662  11.869 -0.0649  0.0288 -0.2000
 1887W        W 5406   0.466   0.834   0.317  0.0649  0.0493  0.5884
 1888W        W 5407   5.308   5.370  11.141  0.1357  0.3539  0.0429
 1889W        W 5408   6.693   5.732  12.460  0.3216  0.1008  0.1904
 1890W        W 5409   5.288   9.642   2.567 -0.2353 -0.0479  0.1283
 1891W        W 5410   0.043   1.769   2.844  0.0260 -0.2003  0.3269
 1892W        W 5411   7.341   1.591   2.460 -0.0090 -0.0336 -0.0764
 1893W        W 5412   6.612   6.832  12.462 -0.0680  0.0134  0.2695
 1894W        W 5413   6.704   4.759   3.731 -0.0826 -0.1285  0.1136
 1895W        W 5414   9.447   1.905   9.658  0.0514  0.0810 -0.4510
 1896W        W 5415   1.800   6.137  12.485 -0.1470 -0.3723 -0.0522
 1897W        W 5416   2.714   6.787   2.740  0.0810 -0.0589  0.2822
 1898W        W 5417   4.379   8.977  10.559 -0.1911 -0.0917 -0.1811
 1899W        W 5418   3.595   0.120   2.647 -0.2492  0.2221  0.0979
 1900W        W 5419   7.905   5.402  10.707 -0.4617 -0.0816  0.1971
 1901W        W 5420   0.568   7.628   2.309 -0.1377  0.1689 -0.1111
 1902W        W 5421   1.583   0.506   9.821  0.2636 -0.2322 -0.0555
 1903W        W 5422   3.179   2.255  12.068 -0.1422 -0.0745 -0.0588
 1904W        W 5423   3.069   7.982   9.871 -0.0524 -0.2731 -0.2331
 1905W        W 5424   8.106   4.579   2.792  0.0207 -0.0583  0.0019
 1906W        W 5425   6.565   3.017   2.319  0.3717  0.0268 -0.3266
 1907W        W 5426   3.136   9.190   9.696  0.3023  0.0165 -0.2328
 1908W        W 5427   5.774   5.438  11.353 -0.0904  0.0445 -0.3575
 1909W        W 5428   1.305   2.558   3.891  0.0346  0.0494 -0.1964
 1910W        W 5429   4.321   4.415   3.812 -0.0227 -0.0860  0.1179
 1911W        W 5430   6.024   1.854   2.949  0.0299 -0.5012  0.0652
 1912W        W 5431   1.735   8.644   9.904 -0.1755 -0.1484 -0.2878
 1913W        W 5432   0.647   7.294   4.200 -0.2520  0.0637 -0.2058
 1914W        W 5433   4.517   3.694   3.141  0.1052  0.4591  0.2796
 1915W        W 5434   6.782   9.710   8.194  0.1002 -0.1392  0.3098
 1916W        W 5435   0.864   8.288   9.718 -0.0937 -0.0852  0.0887
 1917W        W 5436   2.848   8.259  10.992 -0.1569 -0.1186  0.1130
 1918W        W 5437   9.541   2.287   8.527  0.0158 -0.0202 -0.0832
 1919W        W 5438   5.967   4.185  11.392  0.0658 -0.0302 -0.3126
 1920W        W 5439   2.019   1.916   9.198  0.3113  0.2038 -0.1903
 1921W        W 5440   3.687   8.500  10.004  0.2732 -0.1702  0.1296
 1922W        W 5441   8.171   4.462   0.846 -0.1898 -0.2591 -0.1143
 1923W        W 5442   3.391   1.821  11.175  0.0307  0.2561  0.1084
 1924W        W 5443   5.727   4.144   3.247 -0.2163  0.0984 -0.0319
 1925W        W 5444   6.041   5.786  12.092 -0.1912  0.0493  0.0885
 1926W        W 5445   5.211   6.075   9.543 -0.4976  0.0934  0.0689
 1927W        W 5446   3.833   3.921  11.011 -0.1727  0.1969 -0.2910
 1928W        W 5447   2.143   9.565   2.147 -0.1073 -0.3918 -0.1405
 1929W        W 5448   0.011   5.312   3.754  0.1135  0.1134 -0.0674
 1930W        W 5449   5.645   7.407   0.958 -0.0185  0.0072 -0.1941
 1931W        W 5450   4.985   9.075   0.097  0.0205  0.1878 -0.0691
 1932W        W 5451   4.650   9.347   1.395  0.2343 -0.0602 -0.0112
 1933W        W 5452   7.540   3.210  11.806  0.0762 -0.0422  0.0974
 1934W        W 5453   1.530   5.805   9.993  0.1875 -0.0150  0.1512
 1935W        W 5454   6.372   6.481  11.296  0.0307 -0.1035  0.0984
 1936W        W 5455   8.676   1.764   2.005 -0.0135  0.1145 -0.0638
 1937W        W 5456   2.829   2.430   1.804 -0.0036 -0.1087 -0.1022
 1938W        W 5457   4.771   3.473  10.789  0.1879 -0.3201 -0.0605
 1939W        W 5458   3.869   0.060   0.828  0.0842 -0.0606 -0.0704
 1940W        W 5459   9.100   5.678  12.449 -0.0653  0.1583 -0.3986
 1941W        W 5460   8.348   9.268  11.864 -0.0036 -0.1956 -0.2513
 1942W        W 5461   4.008   0.396  12.102 -0.0647  0.1029 -0.0002
 1943W        W 5462   9.339   0.517  12.183 -0.2554  0.1836 -0.0674
 1944W        W 5463   8.260   1.222  11.866  0.0308  0.0512 -0.0718
 1945W        W 5464   0.824   3.659   9.682  0.0717 -0.2444  0.3182
 1946W        W 5465   3.461   5.316  10.454  0.1475 -0.3296 -0.0533
 1947W        W 5466   8.844   1.667  10.828 -0.5393  0.1047  0.1494
 1948W        W 5467   5.039   3.028   3.674 -0.4366 -0.1838 -0.1322
 1949W        W 5468   1.482   0.961  11.353 -0.3297  0.1735  0.1196
 1950W        W 5469   1.198   0.873   2.803 -0.2527 -0.2654  0.0955
 1951W        W 5470   3.152   8.981   3.269  0.0646  0.0844  0.0390
 1952W        W 5471   9.134   8.353   3.602  0.2465 -0.1845 -0.0218
 1953W        W 5472   5.042   5.473   2.925  0.1634  0.2661 -0.0339
 1954W        W 5473   8.361   6.951   9.473  0.1383 -0.1368 -0.1663
 1955W        W 5474   5.504   3.953   0.111  0.0626 -0.2008  0.1124
 1956W        W 5475   4.525   4.402  11.655  0.0454  0.0429 -0.1607
 1957W        W 5476   0.788   2.709   0.030 -0.1132  0.2261 -0.1448
 1958W        W 5477   3.143   6.960   0.321 -0.2070 -0.3049 -0.0953
 1959W        W 5478   1.589   6.066  11.089 -0.0975  0.1810  0.0632
 1960W        W 5479   6.252   5.363   9.212 -0.0122 -0.3251 -0.1342
 1961W        W 5480   0.334   3.626   9.323 -0.1037  0.1022  0.2557
 1962W        W 5481   6.836   9.126  11.601  0.2392 -0.1194  0.4257
 1963W        W 5482   2.121   2.762   4.740 -0.1517  0.1273  0.2514
 1964W        W 5483   7.338   9.085   0.386  0.2237 -0.0859  0.1402
 1965W        W 5484   1.303   8.508   3.297 -0.2462  0.3923 -0.1002
 1966W        W 5485   4.786   8.129   0.766  0.0988  0.0962  0.2311
 1967W        W 5486   1.137   0.229  11.217 -0.1018  0.1603  0.1948
 1968W        W 5487   7.591   3.015   9.222 -0.0190  0.0224 -0.2879
 1969W        W 5488   9.018   1.129   9.557 -0.0055  0.1949 -0.0554
 1970W        W 5489   9.514   7.354  11.180  0.3399 -0.0178 -0.3277
 1971W        W 5490   6.191   1.286   3.299 -0.0842  0.1846 -0.0753
 1972W        W 5491   2.793   2.254   0.520 -0.1495 -0.1924  0.1730
 1973W        W 5492   1.037   7.438   0.960  0.0900  0.0710 -0.4777
 1974W        W 5493   5.893   6.293   3.076 -0.0864 -0.0543 -0.0773
 1975W        W 5494   2.076   2.239   3.493 -0.2505  0.0502 -0.0611
 1976W        W 5495   2.532   0.686  12.363  0.3453  0.2450  0.0727
 1977W        W 5496   6.876   2.176  11.306 -0.3951  0.1944  0.0398
 1978W        W 5497   4.999   5.703   9.953 -0.2520  0.0376  0.0508
 1979W        W 5498   4.401   2.244   0.627 -0.0964 -0.0270  0.0942
 1980W        W 5499   2.740   8.397   9.833  0.3836 -0.0632  0.2567
 1981W        W 5500   5.844   6.387  12.328 -0.1430 -0.0530 -0.0976
 1982W        W 5501   1.034   0.258  10.597  0.1728  0.3463  0.4056
 1983W        W 5502   6.937   7.637   9.826 -0.0535  0.0723  0.2149
 1984W        W 5503   7.585   5.918   2.317  0.1893  0.1437  0.2003
 1985W        W 5504   0.829   9.562   9.830  0.1180 -0.2598 -0.0085
 1986W        W 5505   3.572   1.217  11.833 -0.0354 -0.0881  0.1540
 1987W        W 5506   2.240   6.908  10.913  0.0223  0.0992 -0.1000
 1988W        W 5507   9.405   2.373   9.834 -0.2975 -0.1491  0.2811
 1989W        W 5508   0.069   0.391   9.417 -0.1586  0.2480 -0.0694
 1990W        W 5509   6.048   2.511  12.298 -0.0362  0.1364 -0.1946
 1991W        W 5510   0.039   6.712   8.023 -0.2592 -0.0983 -0.5220
 1992W        W 5511   0.460   9.368   8.998 -0.2314 -0.0528 -0.1148
 1993W        W 5512   3.919   4.555  10.158  0.1229  0.1121 -0.2859
 1994W        W 5513   1.307   1.852  10.238  0.1740 -0.2254 -0.0449
 1995W        W 5514   8.366   6.823   2.833  0.1376  0.4452  0.0697
 1996W        W 5515   4.078   1.094  11.702 -0.2629  0.3925 -0.0158
 1997W        W 5516   1.605   4.053   9.074  0.3206  0.1943 -0.1124
 1998W        W 5517   5.260   9.700  10.507  0.0306  0.1220  0.1927
 1999W        W 5518   6.350   5.783   2.113  0.1185  0.1370  0.0920
 2000W        W 5519   3.211   7.622   1.559  0.0946 -0.1017  0.0483
 2001W        W 5520   4.212   6.399   2.443  0.2326  0.3395  0.0497
 2002W        W 5521   6.774   9.056   1.195 -0.1065 -0.0583 -0.0149
 2003W        W 5522   8.697   7.444  11.832  0.0584 -0.1075  0.1344
 2004W        W 5523   3.432   7.082   0.687 -0.1402 -0.0507 -0.0662
 2005W        W 5524   9.312   0.272   2.706 -0.1092  0.2356 -0.1848
 2006W        W 5525   8.521   5.972   1.579 -0.1193 -0.1712 -0.3064
 2007W        W 5526   2.563   2.432  10.910 -0.1934  0.3015  0.0400
 2008W        W 5527   0.958   3.057   3.314  0.1141 -0.0694  0.0648
 2009W        W 5528   6.879   1.132  10.101 -0.2011 -0.2681  0.1877
 2010W        W 5529   0.145   2.362  10.540 -0.2554 -0.0143  0.0980
 2011W        W 5530   6.817   2.306   3.729  0.0956 -0.0004  0.0810
 2012W        W 5531   8.359   4.534   1.524  0.3701  0.0425 -0.1171
 2013W        W 5532   0.627   9.701  10.304 -0.2087  0.0320 -0.0317
 2014W        W 5533   0.755   7.966   1.049 -0.1083 -0.0999 -0.0427
 2015W        W 5534   3.527   0.957   9.014 -0.1352  0.1905 -0.3062
 2016W        W 5535   3.300   1.447   9.631 -0.2475  0.1499  0.0247
 2017W        W 5536   1.177   9.625  12.093 -0.0008  0.0398 -0.3336
 2018W        W 5537   7.350   1.814   0.771 -0.0056  0.0910  0.1029
 2019W        W 5538   9.268   0.022   3.590  0.0245 -0.1698  0.1541
 2020W        W 5539   7.374   6.708   0.463 -0.1150  0.0431  0.0944
 2021W        W 5540   7.965   8.123  10.879 -0.0979 -0.1628  0.3518
 2022W        W 5541   1.220   0.209   9.855  0.2117 -0.1382 -0.3128
 2023W        W 5542   1.486   4.415   9.455  0.1287 -0.4091 -0.1721
 2024W        W 5543   9.230   1.311   0.911  0.0105  0.2123  0.0149
 2025W        W 5544   5.184   4.346  11.018  0.0226  0.1723  0.1412
 2026W        W 5545   2.963   5.765  11.316 -0.0289 -0.2088 -0.2927
 2027W        W 5546   9.294   5.271   8.955  0.0188 -0.0587  0.1318
 2028W        W 5547   7.913   8.819   2.093  0.0700 -0.0002 -0.2935
 2029W        W 5548   0.828   8.536   2.688  0.0012  0.0762  0.1523
 2030W        W 5549   3.887   9.132   4.675 -0.2627  0.3079  0.0905
 2031W        W 5550   2.501   1.009  11.568  0.1613 -0.0941  0.1449
 2032W        W 5551   0.765   8.740  12.110  0.1308  0.1263  0.2375
 2033W        W 5552   4.327   5.755  11.948 -0.1518 -0.0716 -0.1397
 2034W        W 5553   6.535   3.248   0.905 -0.3150  0.0676 -0.2474
 2035W        W 5554   9.586   6.904   9.523 -0.0721  0.2356 -0.0853
 2036W        W 5555   7.350   5.707   0.523 -0.0509  0.0236 -0.1380
 2037W        W 5556   6.151   1.838  11.779  0.2759  0.2792 -0.1103
 2038W        W 5557   9.429   7.943  11.733  0.0083 -0.2030  0.1658
 2039W        W 5558   6.779   5.530   0.391 -0.2574 -0.0615 -0.1811
 2040W        W 5559   5.689   2.610   0.136 -0.0972  0.1613 -0.1018
 2041W        W 5560   2.764   8.795  11.753  0.1232  0.1464  0.1280
 2042W        W 5561   2.689   7.130   0.351  0.0279 -0.2120 -0.2824
 2043W        W 5562   7.077   0.138  11.223  0.0615 -0.2002 -0.1219
 2044W        W 5563   9.397   8.920  11.304  0.2201  0.0407 -0.0508
 2045W        W 5564   9.582   8.064   4.665 -0.0040  0.0892 -0.1620
 2046W        W 5565   1.663   4.560   8.818  0.0447 -0.1975 -0.1421
 2047W        W 5566   2.006   4.306   9.156 -0.1973 -0.0472 -0.0308
 2048W        W 5567   8.904   5.609   4.041  0.1944  0.1491  0.0670
 2049W        W 5568   8.621   5.277   3.727  0.1564  0.0238 -0.0998
 2050W        W 5569   8.867   7.315   9.770  0.1152  0.0539 -0.2205
 2051W        W 5570   2.712   9.057   1.986 -0.0248 -0.0567  0.0534
 2052W        W 5571   5.495   1.448  10.309  0.1913 -0.0051 -0.0961
 2053W        W 5572   4.962   8.696   1.639 -0.2871 -0.1801  0.0468
 2054W        W 5573   0.074   0.854   2.302 -0.0288 -0.1100  0.0382
 2055W        W 5574   1.358   9.029  11.150 -0.1228 -0.2309 -0.0409
 2056W        W 5575   5.717   0.815   2.708  0.1593 -0.2258 -0.0386
 2057W        W 5576   6.943   7.508   2.217 -0.1514 -0.1473  0.2303
 2058W        W 5577   6.245   3.612  10.907 -0.1396  0.1644  0.1510
 2059W        W 5578   7.958   1.889  11.123 -0.1502  0.0421 -0.0020
 2060W        W 5579   9.457   7.201   0.889  0.1491 -0.1789  0.0561
 2061W        W 5580   8.829   7.202   2.721 -0.0099  0.2295 -0.0603
 2062W        W 5581   1.193   0.741   1.644 -0.0894  0.0188 -0.1030
 2063W        W 5582   9.497   6.021  12.116  0.2201 -0.3941 -0.0870
 2064W        W 5583   9.127   9.004   3.892 -0.0453  0.1399  0.4309
 2065W        W 5584   0.687   9.347  11.579  0.1178  0.0865  0.2333
 2066W        W 5585   7.872   9.067  11.922 -0.1383 -0.2784  0.0674
 2067W        W 5586   0.768   5.351   9.740  0.2063 -0.0945 -0.2547
 2068W        W 5587   8.227   1.391   9.943  0.2132  0.1836  0.0159
 2069W        W 5588   7.853   2.340   0.361 -0.0577 -0.0973 -0.1743
 2070W        W 5589   7.961   6.570   0.560  0.0581 -0.0499 -0.0644
 2071W        W 5590   7.573   6.188   0.479  0.1401 -0.2500  0.0734
 2072W        W 5591   0.713   6.099  10.343  0.0096 -0.0728  0.1925
 2073W        W 5592   1.091   1.390   9.131 -0.4248 -0.1895  0.1915
 2074W        W 5593   8.974   1.491   2.387 -0.0405  0.0280 -0.0092
 2075W        W 5594   5.042   7.166  10.389 -0.1011 -0.1349  0.1126
 2076W        W 5595   8.809   2.246   3.908  0.3803 -0.0997  0.1178
 2077W        W 5596   5.054   9.146  12.044  0.1846 -0.4432 -0.2191
 2078W        W 5597   5.324   7.386   2.542 -0.0464 -0.1654  0.0607
 2079W        W 5598   9.000   9.311   2.486  0.0630  0.0491 -0.0707
 2080W        W 5599   4.396   6.165  12.439  0.2709  0.4081 -0.2616
 2081W        W 5600   4.415   6.652   1.620 -0.1424  0.1452 -0.0482
 2082W        W 5601   7.764   4.204   2.565 -0.0670  0.1686  0.1115
 2083W        W 5602   6.576   4.426  10.498 -0.0316  0.1868  0.3983
 2084W        W 5603   1.455   5.147  11.031 -0.1729 -0.2162  0.0532
 2085W        W 5604   9.172   1.321   1.453 -0.3243 -0.1083 -0.0202
 2086W        W 5605   0.783   7.139   8.327  0.1271  0.2876  0.0012
 2087W        W 5606   5.907   2.040   1.417  0.1704  0.2060  0.3710
 2088W        W 5607   3.971   7.037   0.073  0.0900 -0.2955 -0.2181
 2089W        W 5608   0.250   6.431  12.089  0.0346 -0.1661 -0.2040
 2090W        W 5609   4.787   1.649   4.087  0.1365  0.0774  0.0582
 2091W        W 5610   6.441   6.839   9.441  0.1894  0.0133  0.2736
 2092W        W 5611   7.621   8.165  10.000 -0.1999  0.0166  0.2207
 2093W        W 5612   0.744   0.945   9.371 -0.1904  0.2191  0.2021
 2094W        W 5613   9.307   9.241  12.330 -0.0920  0.2851  0.0168
 2095W        W 5614   5.496   3.845   3.658  0.0221 -0.1379 -0.0664
 2096W        W 5615   2.417   4.496   0.687  0.3419  0.1503 -0.0488
 2097W        W 5616   4.615   1.293   1.604  0.0767 -0.0810  0.0838
 2098W        W 5617   0.350   1.922   2.267 -0.0613 -0.1746  0.1434
 2099W        W 5618   8.434   0.892   2.893  0.1259  0.0627  0.1530
 2100W        W 5619   5.099   7.630  12.237  0.2019  0.1007  0.1552
 2101W        W 5620   6.275   9.437   3.830  0.3047 -0.0695  0.4044
 2102W        W 5621   7.066   9.489   3.598 -0.1537 -0.1067 -0.2785
 2103W        W 5622   2.961   9.454  12.275 -0.3052  0.0146 -0.1949
 2104W        W 5623   3.387   9.266   8.364  0.1710 -0.2041  0.3315
 2105W        W 5624   3.032   7.175  11.958 -0.1496 -0.1774 -0.1055
 2106W        W 5625   3.753   1.407   1.899 -0.1229 -0.0567  0.1175
 2107W        W 5626   3.242   9.650  10.842  0.2836  0.4634 -0.0595
 2108W        W 5627   4.809   1.291  12.205 -0.0731 -0.0616 -0.3155
 2109W        W 5628   0.126   4.257   8.444  0.0910 -0.1749 -0.1741
 2110W        W 5629   8.298   1.948   9.102  0.0290 -0.1860 -0.0027
 2111W        W 5630   1.487   1.432   9.868  0.0865  0.3296  0.0050
 2112W        W 5631   5.077   4.186  10.572 -0.0008  0.0380 -0.0543
 2113W        W 5632   0.776   9.358   2.941  0.0365  0.0943  0.0059
 2114W        W 5633   4.520   4.547   2.974 -0.0495 -0.2465  0.1706
 2115W        W 5634   6.965   6.024   0.714 -0.4055 -0.0182 -0.0954
 2116W        W 5635   6.754   7.283   0.746  0.1778 -0.1112  0.1056
 2117W        W 5636   8.342   3.971  11.943  0.0160 -0.1492  0.1241
 2118W        W 5637   2.623   4.593   1.124  0.0702  0.0331 -0.2656
 2119W        W 5638   4.739   2.298   4.021 -0.0053 -0.1542  0.0690
 2120W        W 5639   1.489   7.031   0.179  0.2304 -0.0062  0.3609
 2121W        W 5640   4.699   1.388   2.101  0.1279  0.1910 -0.1413
 2122W        W 5641   2.963   2.162   0.029  0.1819  0.0064 -0.1219
 2123W        W 5642   4.456   3.090   1.114 -0.0350 -0.1902  0.0568
 2124W        W 5643   0.348   4.939  11.851  0.0366 -0.3242 -0.0006
 2125W        W 5644   7.200   0.029   3.193 -0.0494  0.3192  0.0368
 2126W        W 5645   6.387   5.251  11.951 -0.0444 -0.0831  0.1910
 2127W        W 5646   9.344   4.778  11.517  0.1076 -0.3321 -0.0020
 2128W        W 5647   5.351   1.539   2.523  0.1936 -0.0318 -0.0008
 2129W        W 5648   6.353   6.670   1.945 -0.3897 -0.1843  0.0959
 2130W        W 5649   3.294   8.664   9.704  0.1153  0.3079  0.1529
 2131W        W 5650   3.587   0.406   2.242 -0.0929  0.3570 -0.2411
 2132W        W 5651   2.354   2.775  11.819 -0.1153 -0.0533 -0.4462
 2133W        W 5652   0.879   7.266   2.450  0.0989 -0.3197 -0.0259
 2134W        W 5653   0.160   3.490   3.641  0.0951  0.2217  0.1002
 2135W        W 5654   3.654   4.195   2.295 -0.4002  0.2649  0.0048
 2136W        W 5655   9.430   2.209  11.949 -0.0428 -0.0315  0.0062
 2137W        W 5656   0.105   2.012   1.528  0.3452 -0.0915 -0.2153
 2138W        W 5657   4.438   6.355   0.379 -0.1250 -0.1890 -0.0953
 2139W        W 5658   3.929   1.255   9.004 -0.0753 -0.0056  0.0618
 2140W        W 5659   6.195   0.113   1.417 -0.3933 -0.1567  0.1706
 2141W        W 5660   1.639   9.129   3.662 -0.3272  0.0870 -0.1942
 2142W        W 5661   0.494   2.509   9.801  0.2029 -0.0469 -0.0763
 2143W        W 5662   8.016   3.346   9.252 -0.3870 -0.1125  0.0176
 2144W        W 5663   5.405   7.939  12.014 -0.0798  0.3459 -0.1172
 2145W        W 5664   2.102   5.921   3.059  0.3788  0.3246  0.1856
 2146W        W 5665   5.611   9.526   0.602  0.3923 -0.1650  0.1247
 2147W        W 5666   0.914   9.118   4.338 -0.5614 -0.0148 -0.2222
 2148W        W 5667   6.455   1.057  10.802 -0.4225  0.0512 -0.1266
 2149W        W 5668   3.583   7.226  12.163  0.2117 -0.2136  0.2501
 2150W        W 5669   2.054   2.974  11.491 -0.0924  0.0475 -0.4494
 2151W        W 5670   2.322   6.632   8.689  0.1170 -0.4018 -0.2179
 2152W        W 5671   0.399   7.041   2.211  0.4633 -0.5424 -0.0977
 2153W        W 5672   7.145   8.963   3.577  0.0412 -0.2048 -0.0851
 2154W        W 5673   3.123   5.506   1.082 -0.3120  0.1534 -0.2294
 2155W        W 5674   1.805   1.447   3.915  0.1421 -0.0942 -0.1300
 2156W        W 5675   0.027   2.710  11.721 -0.6284  0.1953 -0.3088
 2157W        W 5676   3.101   6.956   2.229  0.0378 -0.0979  0.4902
 2158W        W 5677   4.872   9.574   0.995  0.0966  0.0792  0.3339
 2159W        W 5678   0.516   0.050   0.481 -0.2936 -0.3722 -0.0582
 2160W        W 5679   8.011   3.345  11.585  0.1935 -0.0933  0.1385
 2161W        W 5680   6.713   9.528  10.322 -0.1074  0.0741  0.0018
 2162W        W 5681   6.377   1.702   7.999 -0.1764  0.5293 -0.2198
 2163W        W 5682   9.559   6.495   8.426  0.0541 -0.1947 -0.0502
 2164W        W 5683   1.073   6.778   1.440  0.1714  0.0426 -0.0079
 2165W        W 5684   6.621   5.717   8.597 -0.0545 -0.0436 -0.2149
 2166W        W 5685   3.436   1.104   1.642  0.1394  0.1002  0.4177
 2167W        W 5686   7.742   5.450   2.384 -0.1917  0.0022 -0.0908
 2168W        W 5687   7.050   0.473   0.345  0.0924  0.0984  0.0638
 2169W        W 5688   0.164   5.391   3.296  0.1238 -0.3051  0.0292
 2170W        W 5689   5.239   5.754   0.272  0.1395  0.1453  0.0868
 2171W        W 5690   4.828   1.039   9.552 -0.1049 -0.2490  0.0565
 2172W        W 5691   7.289   4.831   0.658  0.1078 -0.0865  0.0582
 2173W        W 5692   9.175   7.308   8.534  0.0979  0.1659  0.0124
 2174W        W 5693   4.237   9.587   3.812  0.2913 -0.4303  0.0252
 2175W        W 5694   3.794   4.266  12.442 -0.1351  0.0203 -0.1103
 2176W        W 5695   9.121   7.661  11.173  0.0955 -0.2349  0.0033
 2177W        W 5696   1.832   9.299  11.088  0.2976 -0.0744  0.1430
 2178W        W 5697   7.135   5.582   4.153 -0.0205  0.2443  0.0667
 2179W        W 5698   3.406   3.793  11.139 -0.0948 -0.1906  0.1828
 2180W        W 5699   1.537   1.300   0.029  0.0091  0.3833 -0.1006
 2181W        W 5700   1.844   1.672   0.115 -0.3246 -0.0068 -0.0898
 2182W        W 5701   5.601   9.014   0.760 -0.1029 -0.2153 -0.0989
 2183W        W 5702   3.919   1.810   1.216 -0.0178  0.0329  0.0645
 2184W        W 5703   9.171   5.700  11.901 -0.0322 -0.1866 -0.3612
 2185W        W 5704   5.212   0.388  10.892 -0.1517  0.0220  0.4778
 2186W        W 5705   6.369   5.953  10.081  0.0638 -0.3230 -0.1339
 2187W        W 5706   9.686   8.530   1.227  0.2722 -0.5444  0.0878
 2188W        W 5707   1.673   5.009  10.189  0.3714  0.3460 -0.0963
 2189W        W 5708   1.245   6.868  10.390  0.4070 -0.0855  0.1147
 2190W        W 5709   4.816   9.506   3.048  0.2258  0.3746 -0.0067
 2191W        W 5710   2.967   6.986  10.497 -0.1540  0.2517 -0.2455
 2192W        W 5711   4.680   2.717   2.129  0.0138  0.0347  0.1670
 2193W        W 5712   0.142   8.284   9.176 -0.0915 -0.0530  0.0661
 2194W        W 5713   4.673   4.563   3.435 -0.0972  0.3012  0.1535
 2195W        W 5714   5.180   6.056  12.215 -0.3471  0.0486  0.2028
 2196W        W 5715   4.988   1.996   3.657  0.0932 -0.4965 -0.1984
 2197W        W 5716   9.439   0.266   0.665 -0.3450 -0.2207  0.2287
 2198W        W 5717   2.456   5.758   1.636  0.1858 -0.1059 -0.2130
 2199W        W 5718   3.663   6.713  10.470  0.1713  0.0121 -0.1267
 2200W        W 5719   5.349   3.852   1.734  0.0490 -0.0398  0.1096
 2201W        W 5720   8.291   2.229   0.452 -0.0372  0.1173 -0.3286
 2202W        W 5721   6.005   5.598   1.763 -0.4568 -0.0790  0.2402
 2203W        W 5722   1.041   1.910   3.097 -0.2976  0.0861  0.0754
 2204W        W 5723   8.172   2.140  11.481 -0.3112  0.0204 -0.0216
 2205W        W 5724   0.952   3.948   2.290  0.3970 -0.4030  0.2201
 2206W        W 5725   2.891   1.732  11.105  0.1745 -0.2303 -0.0225
 2207W        W 5726   6.607   8.206  10.987  0.0848  0.2622  0.2569
 2208W        W 5727   7.648   9.197   2.379 -0.2555 -0.1735 -0.1107
 2209W        W 5728   7.837   6.585   2.842 -0.0872  0.0836  0.3288
 2210W        W 5729   5.988   3.062  11.142  0.2473  0.0015  0.1490
 2211W        W 5730   2.537   1.808   0.238  0.0296 -0.4455  0.2094
 2212W        W 5731   4.841   4.769   1.633 -0.0776  0.1672 -0.3647
 2213W        W 5732   4.640   0.292  10.592 -0.0327 -0.1238  0.0489
 2214W        W 5733   5.467   6.713   0.525 -0.1692  0.0276 -0.0187
 2215W        W 5734   0.629   7.568   8.624 -0.2153  0.0437 -0.0044
 2216W        W 5735   3.838   1.025   1.346  0.3751 -0.3339  0.0184
 2217W        W 5736   7.607   3.187  11.245  0.3017  0.1905 -0.1386
 2218W        W 5737   7.157   0.375   0.913  0.1125 -0.0858 -0.4608
 2219W        W 5738   0.709   2.192   0.997 -0.0620 -0.2319  0.1640
 2220W        W 5739   4.499   5.490  12.368 -0.3382  0.3322 -0.2426
 2221W        W 5740   3.614   8.589   0.818 -0.0179 -0.1934  0.3729
 2222W        W 5741   2.036   8.773   1.505  0.1224  0.3250 -0.4932
 2223W        W 5742   8.022   2.737   8.465 -0.2927 -0.0642 -0.2152
 2224W        W 5743   4.367   1.820   8.576 -0.3154 -0.2013  0.2055
 2225W        W 5744   8.951   5.095   4.335  0.0658 -0.0125 -0.2111
 2226W        W 5745   1.906   2.067   2.773  0.4176  0.0934 -0.1565
 2227W        W 5746   8.835   7.763   1.429 -0.2656 -0.0956 -0.0253
 2228W        W 5747   9.043   8.296   4.647  0.2671 -0.2816 -0.2310
 2229W        W 5748   9.375   3.772   0.248 -0.0806 -0.0318 -0.1774
 2230W        W 5749   8.280   5.063   9.354 -0.3281 -0.0426  0.1898
 2231W        W 5750   6.568   7.271   0.225  0.2090 -0.1435  0.0916
 2232W        W 5751   4.604   3.923   8.847  0.2901  0.2838 -0.3222
 2233W        W 5752   7.606   6.877  11.323  0.2807  0.0558 -0.0858
 2234W        W 5753   1.393   2.829   2.016 -0.2799  0.3075  0.1020
 2235W        W 5754   0.562   2.840   3.120  0.2047 -0.0754 -0.1903
 2236W        W 5755   9.629   1.608   1.800 -0.1514 -0.0986 -0.0666
 2237W        W 5756   8.501   4.275  12.272  0.1398  0.1397  0.0323
 2238W        W 5757   3.866   2.874   0.336 -0.1237 -0.0053 -0.2042
 2239W        W 5758   4.594   8.362   0.238  0.1548  0.1659  0.2334
 2240W        W 5759   2.768   3.190   2.305  0.1015 -0.1839 -0.2171
 2241W        W 5760   0.256   7.997   8.322  0.0179  0.0044 -0.2133
 2242W        W 5761   9.092   4.153  10.513  0.0398 -0.0380 -0.0014
 2243W        W 5762   2.191   3.259  10.224 -0.2799  0.1176 -0.0483
 2244W        W 5763   5.472   7.443  11.954 -0.0134 -0.0848  0.0670
 2245W        W 5764   9.079   5.348   2.338 -0.0658 -0.0715  0.1154
 2246W        W 5765   0.193   2.418  12.140  0.2906 -0.1452 -0.0292
 2247W        W 5766   1.986   7.814   2.034 -0.2073 -0.0095  0.1066
 2248W        W 5767   3.321   0.486   8.268 -0.1650  0.0847  0.4115
 2249W        W 5768   4.656   3.444   9.930  0.3087 -0.3027 -0.1985
 2250W        W 5769   3.645   6.931   1.980 -0.1788 -0.1843 -0.1735
 2251W        W 5770   0.322   4.728   0.863  0.1639  0.3670  0.0727
 2252W        W 5771   7.570   4.088   9.154 -0.1873 -0.2480  0.0109
 2253W        W 5772   8.142   8.162  12.185  0.0309 -0.3159 -0.0441
 2254W        W 5773   8.894   9.616   2.114  0.1003  0.1682  0.0311
 2255W        W 5774   4.238   5.586  11.024  0.1442 -0.0617  0.3860
 2256W        W 5775   4.335   9.529   8.655  0.2149  0.1270 -0.0625
 2257W        W 5776   1.478   8.994  11.728  0.0391  0.3379  0.0515
 2258W        W 5777   3.100   3.455   0.232  0.1834  0.4434  0.0429
 2259W        W 5778   2.841   5.420  10.471  0.1038 -0.2316  0.0153
 2260W        W 5779   0.966   0.375   1.470  0.1474 -0.1740  0.1604
 2261W        W 5780   3.849   5.480   1.537  0.2551 -0.0383  0.1255
 2262W        W 5781   6.481   1.437   8.557  0.2247  0.3333  0.1127
 2263W        W 5782   5.860   7.369  11.105  0.0194  0.0434 -0.1173
 2264W        W 5783   4.283   1.367   0.589 -0.2450  0.3153  0.0400
 2265W        W 5784   9.404   6.443   8.878  0.4130 -0.0962 -0.1093
 2266W        W 5785   2.452   8.691   0.671  0.1191 -0.0643  0.0944
 2267W        W 5786   8.685   9.092   1.087 -0.2355 -0.0364  0.0947
 2268W        W 5787   1.665   9.322   1.809 -0.2336 -0.0253 -0.2029
 2269W        W 5788   0.033   3.429   2.223 -0.2006 -0.2231 -0.0516
 2270W        W 5789   1.947   7.011  11.308  0.2498 -0.1193 -0.1777
 2271W        W 5790   5.463   0.851   8.707  0.0364  0.1079  0.0483
 2272W        W 5791   8.462   6.233  11.935  0.0503 -0.3681  0.3478
 2273W        W 5792   7.166   4.943  12.333  0.0009 -0.1131  0.2294
 2274W        W 5793   7.559   7.992   1.758 -0.2322  0.3425 -0.3202
 2275W        W 5794   0.584   6.059   0.663  0.0347  0.1206  0.1033
 2276W        W 5795   2.141   8.485  11.065 -0.2031 -0.3463  0.1170
 2277W        W 5796   8.725   6.779  10.566  0.1473 -0.0247 -0.0327
 2278W        W 5797   6.723   4.907   2.138 -0.0794 -0.1760 -0.2260
 2279W        W 5798   7.621   1.757  10.262  0.1140  0.2402  0.0504
 2280W        W 5799   5.449   6.852  10.370 -0.0429 -0.2024  0.0056
 2281W        W 5800   7.812   0.422   2.533  0.1574  0.1744  0.1710
 2282W        W 5801   8.398   7.486   0.310  0.0614  0.1716 -0.0918
 2283W        W 5802   3.268   4.038   8.355  0.0164 -0.3607 -0.1047
 2284W        W 5803   0.437   3.588  12.437 -0.0070 -0.3074 -0.0170
 2285W        W 5804   3.591   9.122   0.688  0.1799  0.0402 -0.1767
 2286W        W 5805   3.222   1.751   8.158 -0.0735  0.0292 -0.2517
 2287W        W 5806   0.153   9.312   8.153 -0.2455 -0.0076 -0.1574
 2288W        W 5807   9.367   1.346  11.170  0.1613  0.0443  0.0787
 2289W        W 5808   7.391   1.843   1.289 -0.0742 -0.0895  0.1853
 2290W        W 5809   5.129   1.168  10.505 -0.0737  0.2374 -0.0623
 2291W        W 5810   1.638   4.921   0.324 -0.0255 -0.1728  0.6238
 2292W        W 5811   8.431   9.231   3.942  0.1669  0.3610 -0.2405
 2293W        W 5812   7.106   4.201   8.751 -0.3424  0.1331  0.3712
 2294W        W 5813   2.201   4.554   8.818 -0.2234  0.0683 -0.1385
 2295W        W 5814   8.161   9.574  11.461  0.1633 -0.4146 -0.0423
 2296W        W 5815   2.170   3.091   4.000 -0.2766  0.0683 -0.2081
 2297W        W 5816   6.402   6.881   9.938 -0.1776 -0.0498  0.0670
 2298W        W 5817   5.262   1.896   8.729  0.0265  0.2572  0.2667
 2299W        W 5818   6.779   6.512   2.965  0.2933 -0.0486  0.1239
 2300W        W 5819   3.783   7.249   3.234  0.0675  0.1947  0.1568
 2301W        W 5820   8.529   3.165   1.875  0.0402 -0.0920 -0.3048
 2302W        W 5821   4.799   3.112  11.304 -0.0794 -0.0450 -0.2035
 2303W        W 5822   5.633   7.859   1.733  0.3643  0.1166  0.0366
 2304W        W 5823   2.652   8.815   3.476 -0.1778 -0.2322  0.0392
 2305W        W 5824   0.433   3.768   2.222  0.1066 -0.1487  0.0878
 2306W        W 5825   2.801   8.707   2.948  0.2416 -0.0517  0.1642
 2307W        W 5826   9.293   2.666  12.021 -0.2050  0.0352  0.0376
 2308W        W 5827   9.279   3.448   2.443 -0.1928 -0.2204 -0.1374
 2309W        W 5828   7.444   0.776   1.131 -0.1814 -0.0206 -0.0436
 2310W        W 5829   9.384   5.768   9.590 -0.2577  0.1777  0.1098
 2311W        W 5830   3.946   5.003   0.517  0.2525 -0.0843 -0.1289
 2312W        W 5831   1.180   2.549  10.472 -0.0344  0.1039  0.0313
 2313W        W 5832   0.528   8.390  10.205 -0.2513  0.1646 -0.1043
 2314W        W 5833   3.597   3.069  10.471 -0.1875  0.1199  0.0463
 2315W        W 5834   0.244   0.061   9.892  0.2569  0.0033  0.2060
 2316W        W 5835   3.639   5.430  12.003 -0.3730 -0.0513 -0.1216
 2317W        W 5836   1.150   9.211  12.412 -0.2190 -0.0917  0.2146
 2318W        W 5837   1.407   5.383   9.048  0.1446  0.1287 -0.0878
 2319W        W 5838   8.030   2.965   9.553 -0.4184 -0.1691  0.4951
 2320W        W 5839   0.904   1.497   1.613  0.2749  0.0926 -0.3225
 2321W        W 5840   0.100   7.767  12.011  0.0023 -0.0253 -0.1332
 2322W        W 5841   7.895   2.772   4.119  0.1518  0.0417 -0.1336
 2323W        W 5842   1.597   4.655   3.592 -0.1364 -0.0182  0.0556
 2324W        W 5843   6.203   2.612   0.238  0.0568  0.0758 -0.1698
 2325W        W 5844   8.314   2.466   1.311 -0.4392  0.0430 -0.1885
 2326W        W 5845   3.370   2.570   1.586 -0.0197  0.2895  0.0801
 2327W        W 5846   3.077   1.841  10.681 -0.2644 -0.2014  0.1059
 2328W        W 5847   2.415   7.435   9.368 -0.2750 -0.0633  0.0084
 2329W        W 5848   0.236   2.549   0.770 -0.1027  0.1585 -0.0690
 2330W        W 5849   8.682   9.094   3.530 -0.1822 -0.1830 -0.1022
 2331W        W 5850   1.476   9.239   0.388  0.0348 -0.0123 -0.0917
 2332W        W 5851   9.599   5.222   1.733 -0.0436  0.1156  0.2438
 2333W        W 5852   3.028   8.768  10.712 -0.2360  0.0633  0.0350
 2334W        W 5853   2.707   6.427   0.974 -0.1727 -0.0234  0.1690
 2335W        W 5854   7.954   9.464   3.302 -0.1272  0.0828 -0.1301
 2336W        W 5855   8.312   3.306   8.704 -0.0638  0.1389  0.0848
 2337W        W 5856   5.607   4.260   0.506  0.1954 -0.1618 -0.1322
 2338W        W 5857   0.120   0.365   0.355  0.2791 -0.3705  0.0628
 2339W        W 5858   1.272   4.230  11.169 -0.0867 -0.0770 -0.1511
 2340W        W 5859   0.814   8.052   8.404 -0.2534  0.0590  0.0788
 2341W        W 5860   0.989   4.175   2.831  0.0414 -0.2676  0.0946
 2342W        W 5861   2.017   7.905   8.866  0.1400 -0.3170  0.4226
 2343W        W 5862   5.489   9.325  12.179  0.2289  0.1304 -0.2122
 2344W        W 5863   4.839   2.835   3.168 -0.3747  0.2726  0.4077
 2345W        W 5864   0.966   1.082   1.901 -0.0304  0.1207  0.0679
 2346W        W 5865   6.487   1.568   4.551  0.0314 -0.2280 -0.3349
 2347W        W 5866   8.870   3.163   8.670 -0.3017  0.2032  0.0845
 2348W        W 5867   3.772   5.084   2.502  0.1794 -0.1151 -0.0028
 2349W        W 5868   1.682   8.155  10.102  0.2421  0.0670  0.0477
 2350W        W 5869   1.981   7.465  10.604 -0.1428 -0.1822 -0.3630
 2351W        W 5870   2.761   1.678   8.792 -0.0072  0.0514  0.1702
 2352W        W 5871   3.994   3.144   8.938  0.0741  0.0594  0.2267
 2353W        W 5872   8.722   2.807   2.527  0.0578  0.0253 -0.1523
 2354W        W 5873   1.210   9.495  10.368  0.0213  0.0452 -0.0887
 2355W        W 5874   9.153   4.388   1.617 -0.2284  0.3612  0.0313
 2356W        W 5875   5.413   5.336  11.690 -0.1904 -0.0314  0.1966
 2357W        W 5876   4.948   5.063  10.927 -0.0441  0.1254 -0.3499
 2358W        W 5877   6.221   8.292   9.887  0.0667 -0.0694 -0.1654
 2359W        W 5878   4.547   9.613  11.310  0.3240  0.0830  0.2492
 2360W        W 5879   0.607   9.145  12.403  0.1538  0.1428 -0.2815
 2361W        W 5880   1.041   4.758   4.482  0.0081  0.0487  0.1625
 2362W        W 5881   4.338   7.204  12.152 -0.0004 -0.4556  0.0141
 2363W        W 5882   5.727   8.206   2.065 -0.1354 -0.0017 -0.1080
 2364W        W 5883   6.395   8.387  10.387  0.2898  0.0831 -0.3565
 2365W        W 5884   1.794   1.825  10.211  0.1260  0.0470  0.0541
 2366W        W 5885   0.461   9.424   0.869  0.2453  0.2165 -0.1418
 2367W        W 5886   2.798   7.245   3.013 -0.0360  0.3695 -0.2892
 2368W        W 5887   7.469   2.474   2.302  0.1087 -0.1145  0.1846
 2369W        W 5888   0.083   4.453   1.257  0.0598  0.1772 -0.3527
 2370W        W 5889   4.192   8.541   3.080  0.4083  0.0002 -0.1672
 2371W        W 5890   6.103   7.164   9.655 -0.1487  0.1523  0.1075
 2372W        W 5891   1.657   0.600   4.856 -0.0919 -0.1798 -0.0949
 2373W        W 5892   6.945   1.363   2.803 -0.2903 -0.0610 -0.0826
 2374W        W 5893   5.564   5.645   9.546 -0.1615 -0.1234  0.3512
 2375W        W 5894   1.690   2.723  11.302  0.1384  0.2686  0.3264
 2376W        W 5895   7.746   2.263   8.548  0.1990 -0.1207  0.1560
 2377W        W 5896   8.698   6.733   1.162 -0.0779 -0.0140 -0.3051
 2378W        W 5897   7.923   6.223   2.036  0.0752 -0.0731 -0.1902
 2379W        W 5898   1.621   7.969   8.367 -0.1322  0.0015 -0.0927
 2380W        W 5899   3.764   2.002  10.197  0.3602  0.0283  0.1995
 2381W        W 5900   7.093   1.505   8.401  0.1319  0.1103 -0.3201
 2382W        W 5901   7.653   6.366   9.081 -0.1613 -0.2115  0.1205
 2383W        W 5902   0.878   8.641   8.362  0.0109  0.0411  0.4633
 2384W        W 5903   9.678   3.564   9.034  0.1617 -0.1757  0.2431
 2385W        W 5904   2.565   0.585   8.918  0.2498  0.1442 -0.3594
 2386W        W 5905   5.790   6.916  12.068  0.0233  0.4120  0.2704
 2387W        W 5906   9.095   8.176   9.472 -0.3408  0.1792  0.1159
 2388W        W 5907   6.317   7.686  10.673  0.3000 -0.1783 -0.0556
 2389W        W 5908   3.990   7.782   1.347 -0.1736  0.1175 -0.0652
 2390W        W 5909   2.859   4.473  10.165  0.1336 -0.1425  0.4841
 2391W        W 5910   7.142   8.763   1.771  0.2861 -0.4185 -0.1915
 2392W        W 5911   0.388   7.075   9.597 -0.0736 -0.1250  0.1790
 2393W        W 5912   8.271   4.882   1.145  0.0256 -0.1024 -0.0807
 2394W        W 5913   8.414   4.476   9.915  0.0280 -0.1309  0.0144
 2395W        W 5914   5.126   1.798   8.014  0.2394 -0.0121 -0.0033
 2396W        W 5915   0.401   1.401   2.594  0.0508 -0.0301  0.1086
 2397W        W 5916   9.068   2.719   0.689  0.1046 -0.0656  0.2062
 2398W        W 5917   5.982   7.528   9.983  0.2180  0.0881 -0.0169
 2399W        W 5918   1.440   6.741   8.842 -0.0169  0.1992  0.5651
 2400W        W 5919   6.666   2.810   0.318  0.3857  0.0748  0.1060
 2401W        W 5920   8.516   1.220  11.372  0.1060  0.1082  0.0221
 2402W        W 5921   8.542   2.154  10.061 -0.0527 -0.3551  0.1085
 2403W        W 5922   4.286   1.226  10.627 -0.0131  0.3060 -0.1191
 2404W        W 5923   1.435   8.976  10.166 -0.0141  0.0895 -0.3211
 2405W        W 5924   4.230   1.751  10.122 -0.4092  0.0870 -0.3564
 2406W        W 5925   5.543   3.345   9.653 -0.1601 -0.0854 -0.2736
 2407W        W 5926   1.890   0.715  11.011 -0.3347 -0.1029 -0.0060
 2408W        W 5927   7.105   4.128  10.482 -0.0109 -0.0757  0.1184
 2409W        W 5928   7.475   6.841   1.011 -0.0560  0.1463 -0.1268
 2410W        W 5929   4.462   2.564  11.195 -0.5053 -0.0347  0.0234
 2411W        W 5930   0.112   1.419   0.360  0.0921 -0.0362 -0.0930
 2412W        W 5931   5.914   6.978  10.126  0.2448 -0.1245  0.2708
 2413W        W 5932   5.134   1.210   9.995 -0.1525  0.4399  0.1229
 2414W        W 5933   2.160   9.080   3.613  0.1683  0.0973 -0.1758
 2415W        W 5934   4.372   6.930   1.142 -0.0174  0.1664 -0.2213
 2416W        W 5935   0.135   0.920   3.018  0.1101 -0.0002 -0.1827
 2417W        W 5936   6.065   3.467  12.146 -0.1261  0.0386 -0.0013
 2418W        W 5937   8.997   7.707   2.417 -0.2822 -0.5003  0.0649
 2419W        W 5938   8.217   0.922   3.349  0.3438  0.0374  0.3781
 2420W        W 5939   2.650   4.800  10.571 -0.2878  0.1704 -0.0451
 2421W        W 5940   8.804   8.638   1.359 -0.1230  0.4520  0.1016
 2422W        W 5941   2.923   1.239   9.945 -0.0597  0.4274 -0.0592
 2423W        W 5942   3.729   3.920   8.529 -0.2884  0.0982  0.1829
 2424W        W 5943   0.151   8.520   3.658  0.1906  0.3476  0.0344
 2425W        W 5944   9.657   9.278   1.114  0.0400  0.2096 -0.2764
 2426W        W 5945   3.949   6.670   0.702  0.2502 -0.0538  0.3301
 2427W        W 5946   0.504   0.641  11.076 -0.1835 -0.2012  0.1116
 2428W        W 5947   7.429   3.774   3.402  0.1728 -0.1179 -0.1919
 2429W        W 5948   3.723   6.966   9.986  0.1684  0.2111 -0.0181
 2430W        W 5949   5.696   1.289   0.173 -0.1863 -0.2184  0.1285
 2431W        W 5950   4.674   1.133  10.917  0.3234 -0.2192 -0.0384
 2432W        W 5951   9.243   7.085   7.967  0.1254  0.0777 -0.1892
 2433W        W 5952   6.171   2.413   4.335  0.0953 -0.2368  0.0667
 2434W        W 5953   8.595   1.427   9.106 -0.0223 -0.0698 -0.1539
 2435W        W 5954   6.424   9.615   8.521  0.1422 -0.0906 -0.1501
 2436W        W 5955   7.715   5.872   9.898 -0.1978  0.0620  0.0533
 2437W        W 5956   9.685   3.015   3.882  0.2705  0.0743  0.0916
 2438W        W 5957   7.096   2.428  10.346  0.0443  0.0668 -0.1366
 2439W        W 5958   5.767   4.677   2.070  0.0644 -0.1096 -0.0374
 2440W        W 5959   9.659   8.186   8.681 -0.1202 -0.0403  0.2090
 2441W        W 5960   4.651   0.508   8.394  0.2971 -0.2211  0.0413
 2442W        W 5961   9.195   3.532   8.182  0.3224 -0.0434  0.2908
 2443W        W 5962   3.372   2.640   3.981  0.2745  0.2944  0.1344
 2444W        W 5963   6.177   5.058   0.764  0.1786 -0.0749  0.2528
 2445W        W 5964   0.043   8.525  10.449 -0.1944 -0.0323  0.3733
 2446W        W 5965   8.916   9.234  10.570  0.1943 -0.1056 -0.1417
 2447W        W 5966   4.420   8.881   2.802 -0.0939 -0.1764 -0.0526
 2448W        W 5967   8.641   1.928   0.529 -0.0716  0.2192  0.0385
 2449W        W 5968   1.519   8.350   8.910  0.1310 -0.1381  0.2979
 2450W        W 5969   8.820   2.446   9.705  0.1172  0.5806 -0.0632
 2451W        W 5970   6.472   0.616   3.173 -0.0558  0.2442  0.0634
 2452W        W 5971   1.406   1.896   9.748  0.1970  0.0374  0.1040
 2453W        W 5972   2.517   3.899  11.270 -0.0314  0.1860 -0.1346
 2454W        W 5973   5.504   2.813  11.118 -0.2090 -0.0372  0.0627
 2455W        W 5974   1.284   5.766   2.031 -0.0290  0.0276  0.0412
 2456W        W 5975   4.815   2.786   1.279  0.4253 -0.1514 -0.1318
 2457W        W 5976   9.338   6.034  11.571 -0.0153 -0.0963  0.0282
 2458W        W 5977   6.738   3.834  10.135 -0.2802 -0.0256  0.1061
 2459W        W 5978   5.714   5.454   3.234  0.2792 -0.0803 -0.1869
 2460W        W 5979   3.349   5.286   9.627 -0.1275  0.1337 -0.3101
 2461W        W 5980   1.339   0.392   8.955  0.2116 -0.1159 -0.0138
 2462W        W 5981   4.252   6.301   3.220 -0.1241  0.3209  0.1919
 2463W        W 5982   8.110   4.395   3.377  0.1017  0.0126  0.0380
 2464W        W 5983   7.451   1.481   1.752 -0.0340 -0.0070 -0.2476
 2465W        W 5984   5.207   1.553   9.210 -0.1093  0.1561  0.0702
 2466W        W 5985   4.634   4.100  12.075 -0.0977 -0.3140  0.0105
 2467W        W 5986   0.161   6.240   2.814  0.3055 -0.0276  0.2929
 2468W        W 5987   7.549   1.124   4.040  0.0898  0.1025  0.2517
 2469W        W 5988   3.917   5.986  10.156 -0.0516 -0.0140  0.3486
 2470W        W 5989   8.383   7.517   9.926  0.1769  0.0035  0.1476
 2471W        W 5990   4.794   6.422  12.030  0.2084 -0.1627 -0.0534
 2472W        W 5991   8.998   7.178  11.333 -0.0975  0.0513  0.3633
 2473W        W 5992   9.685   2.303   7.758  0.1981 -0.1406 -0.2137
 2474W        W 5993   3.683   5.558   9.937  0.0369  0.0719  0.0904
 2475W        W 5994   7.256   6.570   2.881  0.0471 -0.0157 -0.1111
 2476W        W 5995   3.761   0.371   9.686 -0.0812 -0.0925  0.0420
 2477W        W 5996   6.719   7.551  10.384 -0.1344  0.1332  0.1764
 2478W        W 5997   3.317   9.502  11.317 -0.0078 -0.1305 -0.1676
 2479W        W 5998   2.714   2.598   9.047 -0.0962 -0.1160 -0.1454
 2480W        W 5999   7.463   0.979   1.727  0.0130 -0.1654  0.0607
 2481W        W 6000   2.087   3.155   1.151  0.1015 -0.1786  0.2073
 2482W        W 6001   3.021   5.607   3.705 -0.0111 -0.3112  0.1137
 2483W        W 6002   9.518   7.626   3.777 -0.1610 -0.0618 -0.1151
 2484W        W 6003   3.993   5.493   0.464  0.3104 -0.1813 -0.1837
 2485W        W 6004   3.743   1.434  10.225 -0.1024  0.1979  0.0395
 2486W        W 6005   1.720   8.673   3.583 -0.2564 -0.2205 -0.0159
 2487W        W 6006   8.424   8.998  12.339 -0.1085 -0.0658  0.1303
 2488W        W 6007   9.219   7.943   4.996  0.0443  0.0242  0.2312
 2489W        W 6008   4.951   2.011   9.456 -0.0001 -0.0188  0.2350
 2490W        W 6009   3.016   4.756  12.076 -0.0921  0.3410 -0.1140
 2491W        W 6010   5.584   1.393   3.369  0.3592 -0.2164 -0.2942
 2492W        W 6011   8.558   8.512   4.631  0.2314  0.3722  0.5233
 2493W        W 6012   6.272   7.101   1.551 -0.0070  0.0696  0.0816
 2494W        W 6013   8.538   4.989  11.834 -0.2033 -0.0774 -0.1960
 2495W        W 6014   5.802   6.956   1.378  0.0532  0.1337 -0.0685
 2496W        W 6015   4.804   5.444   0.346  0.1211  0.0994 -0.3331
 2497W        W 6016   7.569   8.914   2.799  0.0244 -0.0850  0.0624
 2498W        W 6017   9.050   4.110   8.745  0.0192  0.0758 -0.2045
 2499W        W 6018   2.904   3.024  11.005  0.2212 -0.2091  0.1118
 2500W        W 6019   6.982   0.462  11.676  0.1285  0.0820  0.0289
 2501W        W 6020   2.700   7.468   1.696  0.3657 -0.3453 -0.0383
 2502W        W 6021   6.523   7.748   0.403  0.1205 -0.0095 -0.1478
 2503W        W 6022   7.370   1.358  11.612  0.2378  0.0537 -0.3381
 2504W        W 6023   0.395   9.333  10.027  0.1775 -0.1391  0.3263
 2505W        W 6024   5.956   5.488   2.772 -0.2179  0.0473 -0.1474
 2506W        W 6025   8.815   4.305   7.978 -0.1654 -0.5120  0.1535
 2507W        W 6026   0.922   6.020   0.987 -0.0671 -0.0746 -0.1607
 2508W        W 6027   7.198   0.556  10.884 -0.0650 -0.0393 -0.0655
 2509W        W 6028   3.661   3.137   0.709 -0.1208  0.5883 -0.0238
 2510W        W 6029   2.573   9.046  12.159 -0.0785  0.0454 -0.0541
 2511W        W 6030   9.692   0.266   8.915  0.2583 -0.0505  0.1693
 2512W        W 6031   7.647   7.275   1.150  0.0409 -0.0737  0.0661
 2513W        W 6032   1.049   2.228  12.503 -0.3493 -0.1712  0.2347
 2514W        W 6033   3.900   0.161   1.881  0.1215 -0.3616  0.1219
 2515W        W 6034   5.620   0.562   9.770  0.0156  0.4462 -0.0262
 2516W        W 6035   9.023   3.952  10.046  0.0283  0.0424  0.1437
 2517W        W 6036   6.604   9.260   3.531 -0.1157  0.3829  0.0046
 2518W        W 6037   5.218   8.843   2.032 -0.3904  0.0312 -0.1071
 2519W        W 6038   4.486   4.697   9.518  0.1360  0.1365 -0.1231
 2520W        W 6039   1.579   6.253  12.075 -0.1792  0.0785  0.2317
 2521W        W 6040   1.705   4.122  10.949 -0.0595  0.2075  0.0782
 2522W        W 6041   8.768   2.006   1.189  0.1407 -0.0826  0.2383
 2523W        W 6042   1.065   3.112  12.161  0.0984 -0.3779 -0.1449
 2524W        W 6043   6.788   6.406   1.030 -0.0234 -0.0331  0.1405
 2525W        W 6044   0.425   1.395   3.599  0.0458 -0.0264  0.0058
 2526W        W 6045   8.170   0.650  11.789 -0.1183  0.0576  0.0014
 2527W        W 6046   3.181   4.272  12.009  0.1788 -0.2413 -0.0129
 2528W        W 6047   4.885   3.349   1.292  0.0828  0.0202  0.1558
 2529W        W 6048   3.318   3.941  12.459  0.1582  0.3382 -0.0362
 2530W        W 6049   2.595   3.113  11.497  0.2049  0.2223 -0.1881
 2531W        W 6050   7.657   2.830   2.834 -0.1147 -0.3790  0.2705
 2532W        W 6051   6.128   6.327   9.418 -0.2314 -0.0934  0.4232
 2533W        W 6052   0.586   6.072  10.854 -0.1912 -0.2450  0.0627
 2534W        W 6053   8.742   5.082   9.136 -0.0148  0.0759  0.1195
 2535W        W 6054   8.520   2.856   1.033  0.3559  0.2657 -0.0126
 2536W        W 6055   8.883   1.250  11.031  0.0523  0.2100  0.0450
 2537W        W 6056   2.080   2.131   0.114 -0.0027 -0.2689  0.0644
 2538W        W 6057   5.867   2.758   2.825 -0.2540 -0.0328 -0.0349
 2539W        W 6058   8.991   8.628  11.291 -0.2269 -0.1941  0.3603
 2540W        W 6059   1.530   3.506   9.137 -0.1801  0.1249 -0.4766
 2541W        W 6060   6.148   0.132   2.430  0.0925 -0.0603  0.1029
 2542W        W 6061   3.414   3.037   0.185 -0.0793 -0.0210  0.0104
 2543W        W 6062   9.301   1.593   3.135 -0.0835 -0.0408 -0.2103
 2544W        W 6063   2.476   7.801   9.024 -0.2624 -0.2558 -0.3102
 2545W        W 6064   5.616   6.589   2.150  0.0489 -0.0128 -0.1327
 2546W        W 6065   2.345   4.602   2.422  0.3358 -0.2708 -0.2203
 2547W        W 6066   7.832   6.931   1.528 -0.0827  0.0969  0.0549
 2548W        W 6067   1.720   1.313   2.848 -0.2387 -0.0682  0.0538
 2549W        W 6068   5.126   6.953   0.241  0.0443  0.1657  0.0327
 2550W        W 6069   8.625   4.876  11.046 -0.1563  0.1933 -0.2103
 2551W        W 6070   3.414   5.440  11.414 -0.2562 -0.0732 -0.0422
 2552W        W 6071   7.668   4.660   3.373 -0.4151  0.0489 -0.1959
 2553W        W 6072   4.570   0.838   8.838  0.1174  0.0149 -0.0463
 2554W        W 6073   0.199   7.988   0.576  0.0476  0.1463  0.0453
 2555W        W 6074   6.781   0.665  11.255 -0.1314  0.0767 -0.0688
 2556W        W 6075   7.255   7.992  12.088  0.1438 -0.0579 -0.0284
 2557W        W 6076   8.178   0.573  10.394  0.5109 -0.3059  0.2197
 2558W        W 6077   3.374   8.191   1.421 -0.3766  0.0771  0.2669
 2559W        W 6078   7.427   5.347   0.190 -0.0892  0.1186  0.1001
 2560W        W 6079   7.036   5.291   7.892  0.0870  0.1606  0.0313
 2561W        W 6080   0.050   0.621   0.854  0.2071 -0.0675  0.0425
 2562W        W 6081   1.216   1.566   2.047 -0.1835  0.2489 -0.2693
 2563W        W 6082   2.132   1.512   2.122  0.3643  0.3325 -0.2473
 2564W        W 6083   7.621   5.542  11.861 -0.2981 -0.0098 -0.3081
 2565W        W 6084   4.545   6.333  10.342 -0.1008  0.3619 -0.2161
 2566W        W 6085   6.785   2.441  11.798  0.3764  0.1189  0.2760
 2567W        W 6086   4.022   4.721  12.476  0.0350  0.0799 -0.3122
 2568W        W 6087   8.395   0.944   0.854  0.2035 -0.1477  0.2452
 2569W        W 6088   1.215   8.752   0.154 -0.1184  0.4847 -0.3340
 2570W        W 6089   6.950   0.733   3.765  0.0146 -0.2440 -0.4339
 2571W        W 6090   6.177   5.293   3.257  0.0929  0.0066 -0.3765
 2572W        W 6091   0.092   1.538   3.993 -0.2702 -0.3498  0.0103
 2573W        W 6092   2.156   4.358   1.929 -0.2673 -0.0198 -0.4105
 2574W        W 6093   0.495   6.505  10.507  0.2353  0.1540  0.1337
 2575W        W 6094   0.671   0.711  12.361 -0.0104  0.1838 -0.1069
 2576W        W 6095   7.584   8.034   8.004 -0.1203  0.1525  0.0593
 2577W        W 6096   3.305   8.343  10.817  0.1851 -0.1143  0.1133
 2578W        W 6097   7.442   5.637   3.757  0.2664 -0.4358 -0.1162
 2579W        W 6098   9.293   5.495  10.226  0.0545  0.1653 -0.0606
 2580W        W 6099   0.300   2.429  11.015 -0.0031  0.3221 -0.0865
 2581W        W 6100   0.978   1.652  11.870  0.1720  0.2402  0.2530
 2582W        W 6101   6.335   9.271   1.373  0.1851 -0.0979 -0.1125
 2583W        W 6102   3.835   3.334   9.382 -0.3502  0.3366  0.0583
 2584W        W 6103   4.509   8.816   0.104 -0.1765  0.0218  0.0427
 2585W        W 6104   0.136   5.206   8.952 -0.2626  0.0573 -0.1800
 2586W        W 6105   6.805   5.918   9.560  0.1352 -0.2714  0.0231
 2587W        W 6106   8.057   0.441   1.080 -0.1494 -0.0734 -0.2254
 2588W        W 6107   3.607   6.741   0.308 -0.0050 -0.2895  0.0983
 2589W        W 6108   9.370   0.104   1.205 -0.1115  0.0116 -0.4147
 2590W        W 6109   3.606   1.499   1.447 -0.0834  0.2224 -0.3989
 2591W        W 6110   1.341   6.275   2.314  0.2965  0.1660  0.1383
 2592W        W 6111   6.571   0.508  10.809 -0.0636  0.2213 -0.0143
 2593W        W 6112   2.057   4.813   4.486  0.1136 -0.2128  0.1007
 2594W        W 6113   1.368   9.443   9.868 -0.2842  0.3804 -0.0879
 2595W        W 6114   4.369   7.824   9.401 -0.0677 -0.5731  0.0405
 2596W        W 6115   2.099   6.407   3.510 -0.3384  0.0260 -0.1833
 2597W        W 6116   9.177   3.642   2.924 -0.1804 -0.2701 -0.2774
 2598W        W 6117   2.426   7.626  10.720  0.5210 -0.1905 -0.4174
 2599W        W 6118   3.306   4.335   0.281  0.0037  0.1489 -0.2788
 2600W        W 6119   7.965   2.263   1.612  0.0679 -0.0276 -0.1117
 2601W        W 6120   7.523   9.290   3.505  0.2300 -0.4119 -0.1625
 2602W        W 6121   8.522   8.281  10.962 -0.0546 -0.0353  0.1397
 2603W        W 6122   9.132   6.191   3.443 -0.0047 -0.0889 -0.1048
 2604W        W 6123   6.124   4.203  10.818 -0.1060  0.0175  0.2378
 2605W        W 6124   0.751   2.425  12.094 -0.1909 -0.0794  0.0048
 2606W        W 6125   1.060   9.419   2.110 -0.4043  0.2321  0.0088
 2607W        W 6126   2.895   7.203   9.534  0.0043 -0.0986 -0.1692
 2608W        W 6127   5.581   3.092  11.936  0.2399 -0.1666  0.4423
 2609W        W 6128   6.726   4.734  12.006 -0.1885  0.2981 -0.2339
 2610W        W 6129   6.819   9.210  10.693 -0.0596 -0.0934  0.1822
 2611W        W 6130   5.437   9.528   8.615 -0.0780  0.2480 -0.0008
 2612W        W 6131   3.169   6.639   0.660 -0.0270 -0.0535  0.0028
 2613W        W 6132   3.690   8.840   9.057  0.0584  0.1627  0.0648
 2614W        W 6133   1.917   1.191   8.599  0.0175  0.2806  0.1579
 2615W        W 6134   5.292   9.026   8.684 -0.0243 -0.0464 -0.0916
 2616W        W 6135   3.984   2.076   0.841  0.0235  0.2379  0.1637
 2617W        W 6136   7.434   7.196   3.852  0.0879 -0.0388  0.0498
 2618W        W 6137   8.521   8.190   1.398 -0.0229 -0.1081  0.3698
 2619W        W 6138   0.738   2.577   3.535 -0.1625 -0.1575  0.1844
 2620W        W 6139   5.654   4.154  11.798  0.0023  0.3351 -0.0289
 2621W        W 6140   8.910   5.031   0.252  0.1656 -0.1576 -0.1196
 2622W        W 6141   3.979   2.038   3.724 -0.0535 -0.0326  0.0197
 2623W        W 6142   5.348   0.758  11.535  0.0063  0.2231  0.0554
 2624W        W 6143   0.117   4.592   8.838 -0.3526 -0.2536  0.1217
 2625W        W 6144   1.355   7.683   1.232  0.3466 -0.0773  0.0761
 2626W        W 6145   7.235   9.645  10.069 -0.1814 -0.0160  0.2581
 2627W        W 6146   5.418   3.880  11.501 -0.0950 -0.1073 -0.0593
 2628W        W 6147   7.683   8.681   1.610  0.1639 -0.1310  0.0267
 2629W        W 6148   2.506   4.870   0.349 -0.3807 -0.0310 -0.1227
 2630W        W 6149   8.089   0.878   2.496  0.0059 -0.1545 -0.0496
 2631W        W 6150   2.423   4.013   0.550  0.1022  0.2880  0.0064
 2632W        W 6151   9.135   7.471   4.039 -0.3110 -0.0987 -0.0255
 2633W        W 6152   6.656   3.165   7.835 -0.0134  0.1796 -0.0657
 2634W        W 6153   0.332   5.230   1.082 -0.1756 -0.1252 -0.3327
 2635W        W 6154   1.892   4.354   0.790 -0.1524 -0.3828  0.0208
 2636W        W 6155   9.622   6.169   9.258 -0.2214 -0.1391 -0.1077
 2637W        W 6156   2.561   2.863   1.887 -0.0760  0.0553 -0.2251
 2638W        W 6157   4.703   1.836   0.587 -0.0064 -0.0218  0.0490
 2639W        W 6158   4.820   3.642  12.267 -0.0677  0.0675  0.0794
 2640W        W 6159   6.813   4.338   0.425  0.0554  0.1310  0.2925
 2641W        W 6160   6.892   1.247   4.138 -0.1783  0.2851 -0.1158
 2642W        W 6161   6.671   1.483   3.240 -0.3840  0.3301 -0.2404
 2643W        W 6162   6.702   6.134   0.293 -0.0178  0.0818 -0.0074
 2644W        W 6163   1.597   2.264  10.138 -0.1263 -0.0610  0.1029
 2645W        W 6164   2.223   2.347   4.429 -0.1438 -0.0924 -0.2556
 2646W        W 6165   8.375   7.190   2.516  0.1032  0.2553 -0.3086
 2647W        W 6166   1.561   2.965   9.056 -0.1318  0.3285  0.2046
 2648W        W 6167   3.299   0.207   1.899  0.1322  0.3578  0.0832
 2649W        W 6168   7.738   7.644  10.806  0.1976 -0.5551 -0.0902
 2650W        W 6169   0.242   7.737   1.439  0.2456  0.1410  0.0306
 2651W        W 6170   5.444   6.683   9.469  0.0644  0.0567  0.0569
 2652W        W 6171   2.594   4.101   2.004  0.0961  0.1995 -0.3956
 2653W        W 6172   7.946   3.250   2.784 -0.2220 -0.2224  0.0988
 2654W        W 6173   0.550   4.864   9.711 -0.1974 -0.0886  0.1601
 2655W        W 6174   4.279   3.820  10.277  0.1313  0.1235 -0.0717
 2656W        W 6175   4.519   2.913   9.768  0.0358 -0.0657 -0.2621
 2657W        W 6176   9.337   1.748  10.790  0.3142 -0.2371 -0.0598
 2658W        W 6177   2.888   8.052   0.616  0.1889 -0.0042  0.1321
 2659W        W 6178   1.189   5.855  10.954  0.2018  0.1812 -0.3485
 2660W        W 6179   8.955   2.507   1.179  0.1375  0.1282  0.1684
 2661W        W 6180   6.424   9.634   9.924 -0.1324  0.0240  0.0549
 2662W        W 6181   4.661   0.176   0.661  0.3011  0.2613  0.0672
 2663W        W 6182   1.676   8.688  10.934  0.1776  0.2177  0.4034
 2664W        W 6183   0.985   7.227   9.407 -0.0802  0.3406  0.3059
 2665W        W 6184   5.027   9.360   2.282 -0.0104 -0.4564 -0.0289
 2666W        W 6185   2.747   1.020   3.247 -0.2574  0.2151  0.2131
 2667W        W 6186   7.121   3.388   0.359  0.1812  0.0766  0.1424
 2668W        W 6187   6.840   1.592   2.377  0.0449 -0.0645  0.3305
 2669W        W 6188   5.296   6.240   1.984  0.4199  0.1062  0.1967
 2670W        W 6189   3.900   1.192  12.483 -0.0184  0.5336  0.2947
 2671W        W 6190   5.964   6.059   0.809  0.2141 -0.0714  0.0770
 2672W        W 6191   0.959   0.797   0.570 -0.2737  0.0872  0.2237
 2673W        W 6192   0.667   5.486   8.839  0.1652  0.0174  0.3228
 2674W        W 6193   7.829   8.115   0.560 -0.4049  0.0781 -0.2236
 2675W        W 6194   8.745   2.499  10.779  0.1565 -0.1151  0.1076
 2676W        W 6195   7.281   5.169   8.341 -0.0734 -0.0549  0.0975
 2677W        W 6196   1.290   0.250   2.872 -0.2865  0.0291  0.2794
 2678W        W 6197   8.274   0.518   0.157  0.0063 -0.2336 -0.2076
 2679W        W 6198   7.594   7.418   9.263  0.0825  0.1668  0.0735
 2680W        W 6199   8.037   4.572  10.742  0.1385 -0.3482 -0.1797
 2681W        W 6200   7.002   3.938  11.193  0.2334 -0.1687 -0.1064
 2682W        W 6201   5.792   9.507   0.097 -0.0715  0.1927 -0.4142
 2683W        W 6202   4.389   2.549   1.119 -0.1711  0.1714 -0.3579
 2684W        W 6203   4.667   4.905  10.432  0.1235  0.3654 -0.0567
 2685W        W 6204   2.989   3.600  11.504  0.0660  0.0752 -0.1997
 2686W        W 6205   8.219   8.139   3.374  0.0489  0.0693 -0.1309
 2687W        W 6206   4.314   2.128   1.320  0.0498 -0.0079  0.0733
 2688W        W 6207   4.678   2.148   0.007 -0.2039 -0.0165 -0.2776
 2689W        W 6208   9.538   2.439  11.103  0.0576  0.2137  0.0679
 2690W        W 6209   4.438   0.739  10.525  0.2095 -0.1242  0.0634
 2691W        W 6210   3.847   1.021   2.612  0.3248 -0.1505 -0.1914
 2692W        W 6211   2.819   2.617  11.344 -0.0974  0.0635 -0.0692
 2693W        W 6212   5.783   3.021   8.085 -0.0092 -0.0785  0.1149
 2694W        W 6213   1.171   6.787   9.291  0.1492  0.1155 -0.1305
 2695W        W 6214   1.192   2.622   0.278 -0.2673 -0.4519 -0.1495
 2696W        W 6215   8.041   7.926   2.489  0.1833 -0.1404 -0.0555
 2697W        W 6216   4.346   6.144  11.021 -0.2782 -0.0264 -0.2741
 2698W        W 6217   1.187   0.728   9.479  0.2563 -0.0774  0.3212
 2699W        W 6218   2.525   1.459  11.920 -0.1648  0.0661 -0.1522
 2700W        W 6219   6.208   1.306   0.482 -0.0394  0.0173  0.3780
 2701W        W 6220   9.696   6.992   2.583 -0.1493 -0.0952 -0.3809
 2702W        W 6221   3.051   9.491   1.905 -0.2198 -0.0322 -0.0582
 2703W        W 6222   7.796   5.006   2.058 -0.2837 -0.4626 -0.1034
 2704W        W 6223   6.398   3.146   3.126  0.3689 -0.1655 -0.0726
 2705W        W 6224   8.404   9.707   2.993  0.0585 -0.1451 -0.1474
 2706W        W 6225   7.466   2.767   9.758  0.3826  0.0641  0.0621
 2707W        W 6226   6.769   7.401  10.912 -0.2782  0.0517 -0.3639
 2708W        W 6227   1.433   7.748  10.313 -0.0673  0.2532 -0.0237
 2709W        W 6228   2.312   6.859  11.659 -0.1762 -0.0125 -0.1107
 2710W        W 6229   6.410   1.827   1.393 -0.0745 -0.2575  0.0625
 2711W        W 6230   1.431   5.864   2.573  0.0674 -0.3295 -0.1215
 2712W        W 6231   7.858   4.540   1.837 -0.0950  0.1156 -0.1162
 2713W        W 6232   8.588   7.476   0.817  0.1337  0.0107  0.0277
 2714W        W 6233   1.762   6.151   9.483 -0.1916 -0.0376 -0.5537
 2715W        W 6234   5.817   8.686   2.423 -0.2049  0.2433 -0.1305
 2716W        W 6235   9.357   3.454   3.629 -0.0896 -0.1828  0.4614
 2717W        W 6236   5.096   8.175  11.503  0.0942  0.3152 -0.0598
 2718W        W 6237   5.939   4.572   0.983 -0.1610  0.0902  0.2413
 2719W        W 6238   5.212   3.828   2.732 -0.0868 -0.0616  0.0784
 2720W        W 6239   6.950   8.047   8.963 -0.2314  0.0103  0.4216
 2721W        W 6240   4.350   7.393   9.638  0.2052 -0.0524 -0.0251
 2722W        W 6241   7.010   2.619   2.537 -0.0086 -0.1555 -0.0794
 2723W        W 6242   5.435   7.407  11.436  0.2302  0.2150  0.1879
 2724W        W 6243   8.876   1.497  11.633  0.0592  0.0342 -0.0437
 2725W        W 6244   2.727   3.917   2.550  0.1371 -0.3739  0.0230
 2726W        W 6245   1.752   4.147   2.073  0.1361  0.0955 -0.1695
 2727W        W 6246   8.863   4.328   9.719 -0.0621 -0.1083 -0.1375
 2728W        W 6247   2.854   4.484   0.424 -0.1714 -0.2641 -0.3964
 2729W        W 6248   6.175   5.378  12.468  0.0445  0.4778  0.1280
 2730W        W 6249   9.475   2.499   0.037 -0.0164  0.0890  0.0001
 2731W        W 6250   3.711   9.467   0.346  0.1416  0.2553  0.0019
 2732W        W 6251   2.230   9.081   9.428 -0.3033 -0.1574 -0.0740
 2733W        W 6252   8.590   0.866  11.781  0.0644 -0.0501  0.2011
 2734W        W 6253   6.469   1.131   9.029 -0.0680 -0.1770 -0.0714
 2735W        W 6254   0.326   4.190   3.066  0.1985 -0.1399 -0.1061
 2736W        W 6255   5.063   9.323   3.479  0.1194  0.2891  0.0313
 2737W        W 6256   3.973   0.481   2.634  0.0495  0.0870 -0.0969
 2738W        W 6257   5.898   9.580  11.224  0.0399 -0.1059 -0.3807
 2739W        W 6258   5.852   1.122  10.429 -0.1951  0.0059  0.0851
 2740W        W 6259   4.202   7.369   1.647  0.0502 -0.0343 -0.0616
 2741W        W 6260   5.712   7.437   1.443  0.0195  0.1468  0.2876
 2742W        W 6261   7.537   5.818   8.962  0.0842 -0.4501  0.0072
 2743W        W 6262   3.548   2.772  11.325 -0.1029 -0.0836  0.0072
 2744W        W 6263   8.111   8.062   2.006  0.1546  0.0163  0.1324
 2745W        W 6264   9.610   8.338   0.766 -0.0069  0.1056 -0.0159
 2746W        W 6265   2.298   5.318  12.049 -0.0195 -0.2976  0.2035
 2747W        W 6266   2.052   4.885   0.620 -0.4056 -0.2384 -0.2871
 2748W        W 6267   5.131   1.657  10.567 -0.2546 -0.1298 -0.0405
 2749W        W 6268   8.455   3.103   3.006 -0.0803  0.0538  0.0629
 2750W        W 6269   2.908   6.433   2.253  0.1257 -0.1512 -0.1673
 2751W        W 6270   2.134   1.083   2.540  0.2521  0.0738 -0.2161
 2752W        W 6271   2.756   5.806   8.568  0.0235  0.0453  0.0094
 2753W        W 6272   5.188   3.697  11.058  0.1055 -0.1016 -0.0323
 2754W        W 6273   7.962   7.063  12.250  0.1511  0.1288  0.4232
 2755W        W 6274   2.653   6.851  12.069  0.0611 -0.1372  0.0399
 2756W        W 6275   2.634   4.138   9.870  0.1184 -0.2439  0.2729
 2757W        W 6276   9.067   7.982   3.884  0.0603  0.0564 -0.0435
 2758W        W 6277   4.771   4.787   3.880 -0.0497 -0.1564  0.1563
 2759W        W 6278   4.029   3.160  10.684  0.1940  0.0269  0.3745
 2760W        W 6279   2.373   1.394   8.735  0.0589  0.0813  0.3400
 2761W        W 6280   4.012   9.409   3.343 -0.1785 -0.2442 -0.0307
 2762W        W 6281   2.624   5.030  11.869 -0.2284  0.5083  0.1424
 2763W        W 6282   3.946   5.405   3.658  0.0727  0.0099  0.1558
 2764W        W 6283   9.216   2.946   2.412  0.0869  0.1254  0.3019
 2765W        W 6284   0.189   6.796   3.537  0.0472  0.0524 -0.0836
 2766W        W 6285   0.693   4.450  11.211 -0.1459 -0.0727  0.1014
 2767W        W 6286   3.900   1.381   0.900 -0.3770 -0.0343 -0.1554
 2768W        W 6287   3.608   3.489   9.830  0.0355 -0.0567  0.0598
 2769W        W 6288   5.106   9.596   0.514  0.1815 -0.2259  0.1933
 2770W        W 6289   5.836   1.989   9.536  0.1074 -0.1615  0.0203
 2771W        W 6290   1.161   7.453  12.339  0.1820  0.2120  0.2167
 2772W        W 6291   5.335   6.367   0.130  0.1596  0.0305 -0.3389
 2773W        W 6292   5.972   1.010  10.903 -0.1741 -0.2538 -0.2411
 2774W        W 6293   8.785   4.099   9.190 -0.2020  0.1001 -0.2800
 2775W        W 6294   3.869   2.443   1.688 -0.1959  0.0822  0.0393
 2776W        W 6295   3.229   3.000   2.539 -0.0856 -0.0434  0.0099
 2777W        W 6296   3.235   1.818   8.693  0.1959  0.0489  0.0848
 2778W        W 6297   4.770   1.611  11.308 -0.0872 -0.0161 -0.0919
 2779W        W 6298   1.798   0.615  11.922 -0.1722 -0.0797 -0.0843
 2780W        W 6299   2.865   2.513   9.982  0.1892 -0.4373 -0.1079
 2781W        W 6300   9.444   4.310  11.378 -0.1866 -0.1532  0.2845
 2782W        W 6301   1.809   7.498   1.266  0.2507  0.1164  0.0808
 2783W        W 6302   0.827   5.413  11.821 -0.1080  0.0167  0.0420
 2784W        W 6303   7.006   3.019   2.080 -0.3399 -0.0745  0.0555
 2785W        W 6304   7.133   3.459   8.486 -0.1359 -0.1699 -0.1121
 2786W        W 6305   7.048   4.587  10.349  0.0342  0.1033  0.2278
 2787W        W 6306   4.181   7.993  11.175 -0.1554  0.2423  0.0341
 2788W        W 6307   3.594   0.457   3.495  0.0113 -0.3582 -0.0182
 2789W        W 6308   7.291   5.045  10.234 -0.0928 -0.0482 -0.2837
 2790W        W 6309   6.543   8.372   8.948  0.1328 -0.2682 -0.1516
 2791W        W 6310   0.567   8.842   4.915 -0.0063  0.2966 -0.0916
 2792W        W 6311   0.533   8.596   1.254  0.0834  0.0052 -0.0309
 2793W        W 6312   0.277   5.920   3.350 -0.0927 -0.2120  0.0386
 2794W        W 6313   3.769   2.654   8.959  0.1709  0.0277 -0.0270
 2795W        W 6314   5.911   8.142   3.736 -0.1427  0.2240  0.1071
 2796W        W 6315   9.258   8.818   1.347 -0.0115  0.3606  0.1731
 2797W        W 6316   8.231   8.804   1.332 -0.0274  0.2657 -0.0718
 2798W        W 6317   8.860   2.966   3.320  0.0157  0.4084  0.3460
 2799W        W 6318   4.528   9.182  11.043 -0.1419 -0.2005  0.0490
 2800W        W 6319   4.265   2.888  10.313 -0.1190  0.3922  0.1227
 2801W        W 6320   0.823   9.619   3.607  0.1902 -0.1867  0.0035
 2802W        W 6321   9.700   1.210   9.850  0.1344  0.0338  0.0046
 2803W        W 6322   7.978   4.779   0.166 -0.2990  0.1067  0.0546
 2804W        W 6323   4.843   6.228   1.682 -0.1150 -0.0081 -0.1381
 2805W        W 6324   2.603   0.558   0.720  0.1978  0.3853 -0.2248
 2806W        W 6325   0.115   6.683   9.102  0.0263  0.2668 -0.0597
 2807W        W 6326   1.420   1.482  11.510 -0.2233  0.0486  0.1469
 2808W        W 6327   7.675   0.014  10.404  0.0598 -0.1459 -0.1661
 2809W        W 6328   1.514   1.268  10.435 -0.3404  0.2158 -0.0255
 2810W        W 6329   7.943   4.222  12.137 -0.3651  0.0164  0.2033
 2811W        W 6330   7.301   8.784   9.040 -0.0250  0.1512 -0.0260
 2812W        W 6331   6.409   5.229   2.284 -0.0253 -0.0760 -0.2310
 2813W        W 6332   0.505   8.436   8.123  0.0774 -0.2044 -0.0444
 2814W        W 6333   4.182   2.559  11.611  0.2194  0.2891 -0.1448
 2815W        W 6334   2.875   5.130   2.838  0.3921 -0.0730 -0.2279
 2816W        W 6335   5.435   8.848  11.819 -0.0790  0.1410 -0.1471
 2817W        W 6336   4.671   2.505  10.439  0.1353 -0.2332  0.2065
 2818W        W 6337   4.100   3.892   2.467 -0.1130  0.0322  0.0255
 2819W        W 6338   1.981   0.946   1.463  0.1592  0.0060  0.1713
 2820W        W 6339   3.089   1.823   0.465  0.2484 -0.1881  0.1740
 2821W        W 6340   6.801   8.514   2.237 -0.1829  0.4817 -0.1950
 2822W        W 6341   3.455   3.506   2.826  0.0526 -0.0940 -0.4094
 2823W        W 6342   0.619   9.085  10.995  0.0602 -0.1576  0.0725
 2824W        W 6343   0.924   9.099   2.503 -0.2024 -0.1962 -0.1523
 2825W        W 6344   7.142   8.207   9.712  0.1177 -0.1132 -0.0376
 2826W        W 6345   2.705   6.941   3.428 -0.1481  0.2408  0.2580
 2827W        W 6346   1.958   5.409  11.164  0.1803  0.0466  0.2243
 2828W        W 6347   9.704   7.261   3.421  0.2251 -0.0837  0.1713
 2829W        W 6348   4.336   5.164  10.740 -0.0258  0.1580  0.0461
 2830W        W 6349   1.783   6.071   2.171 -0.0912  0.1573  0.3863
 2831W        W 6350   7.963   7.431   2.404  0.0556  0.0329  0.2443
 2832W        W 6351   8.461   7.994  10.041 -0.1286 -0.0329  0.0318
 2833W        W 6352   1.367   9.040   9.147  0.0946 -0.1170 -0.2948
 2834W        W 6353   1.270   5.964  11.499 -0.2455  0.0381 -0.1894
 2835W        W 6354   6.800   4.256   8.148 -0.0199 -0.1537 -0.1210
 2836W        W 6355   7.061   2.166   3.300 -0.0916  0.0730 -0.3273
 2837W        W 6356   0.062   5.018  11.342 -0.0006  0.1238 -0.0033
 2838W        W 6357   5.602   1.776   0.180 -0.0649 -0.3586  0.1187
 2839W        W 6358   1.203   2.718   4.423 -0.0197 -0.0184 -0.1300
 2840W        W 6359   5.169   2.457  12.408 -0.2140 -0.3092 -0.0196
 2841W        W 6360   7.272   5.156   9.710  0.2138 -0.2786 -0.0466
 2842W        W 6361   6.680   1.659   1.887  0.0801  0.1113  0.0784
 2843W        W 6362   6.158   1.093   0.992 -0.0341 -0.2605  0.0325
 2844W        W 6363   4.615   7.699   0.706  0.0627  0.0571 -0.0330
 2845W        W 6364   5.592   5.959   2.832  0.2863  0.1661 -0.3890
 2846W        W 6365   5.934   8.522   0.101  0.1701 -0.0057 -0.1325
 2847W        W 6366   3.417   4.586  12.378 -0.1932  0.2485 -0.0086
 2848W        W 6367   2.209   9.089   1.877  0.1568 -0.0260  0.0462
 2849W        W 6368   3.876   9.517  11.956 -0.0359 -0.3788 -0.3090
 2850W        W 6369   0.956   9.153  11.953  0.0595  0.0842  0.0462
 2851W        W 6370   5.409   2.352   1.606  0.2711  0.2943 -0.2055
 2852W        W 6371   5.580   6.553   9.983 -0.1170  0.2075  0.2718
 2853W        W 6372   7.416   2.631   7.710  0.0869  0.0484  0.0749
 2854W        W 6373   5.314   4.734   1.758 -0.1844  0.1474 -0.1656
 2855W        W 6374   3.573   7.080   2.442 -0.1155 -0.0480  0.1032
 2856W        W 6375   2.990   2.248   1.360  0.0589  0.1133  0.0280
 2857W        W 6376   7.340   3.503  10.749 -0.0059 -0.3087 -0.2087
 2858W        W 6377   2.784   4.658   3.085  0.0969 -0.0549 -0.1935
 2859W        W 6378   3.787   8.617   4.036 -0.2049 -0.0052  0.1302
 2860W        W 6379   7.345   6.051   4.147 -0.1942 -0.1466  0.1941
 2861W        W 6380   9.301   3.090   1.915 -0.1009  0.0676  0.1532
 2862W        W 6381   8.403   8.505  12.505  0.1240 -0.1159 -0.0740
 2863W        W 6382   6.529   1.848  10.328 -0.2156 -0.0558  0.1421
 2864W        W 6383   3.135   2.865   1.932  0.0811 -0.0081 -0.0111
 2865W        W 6384   5.709   4.498  10.988 -0.1123  0.2587 -0.2543
 2866W        W 6385   7.668   4.030  11.465 -0.0131 -0.2717  0.0663
 2867W        W 6386   6.790   3.926   2.450 -0.0601  0.0474  0.0877
 2868W        W 6387   0.336   6.756  11.536 -0.0688 -0.2769 -0.2874
 2869W        W 6388   1.325   0.029   0.343 -0.0927 -0.1668  0.0394
 2870W        W 6389   9.635   1.637   0.773  0.0816 -0.0866  0.3274
 2871W        W 6390   1.656   3.348  12.140 -0.0114 -0.1031 -0.0632
 2872W        W 6391   5.887   2.118   1.955 -0.1677 -0.0440 -0.1635
 2873W        W 6392   1.803   4.608   2.292  0.0148  0.1076  0.1234
 2874W        W 6393   0.070   7.952   3.045  0.1445  0.0970  0.4883
 2875W        W 6394   3.379   0.749   1.295 -0.1140  0.0423  0.0718
 2876W        W 6395   9.584   3.355   4.218 -0.0193  0.2841  0.2067
 2877W        W 6396   2.233   4.607   3.120 -0.0101 -0.0401  0.0390
 2878W        W 6397   6.434   2.195   1.019 -0.1768 -0.0038  0.0398
 2879W        W 6398   7.131   8.707   9.868 -0.1566 -0.3949  0.5272
 2880W        W 6399   4.064   0.916   0.365  0.0461 -0.0407  0.1473
 2881W        W 6400   0.876   9.662   9.181 -0.0976 -0.1721  0.0278
 2882W        W 6401   6.067   7.025   0.086  0.2828 -0.0670 -0.4867
 2883W        W 6402   3.610   4.976   0.124 -0.1179 -0.1231  0.2658
 2884W        W 6403   7.793   1.848   0.521 -0.1475  0.1145  0.0308
 2885W        W 6404   6.087   4.693  11.287  0.2062 -0.0916  0.1740
 2886W        W 6405   4.686   8.222   1.714  0.0855  0.2742 -0.0151
 2887W        W 6406   1.437   1.388   8.695  0.0690  0.2524 -0.1236
 2888W        W 6407   8.025   4.568   4.396  0.0099 -0.1580 -0.1378
 2889W        W 6408   5.402   2.893   9.481  0.2373 -0.3058 -0.0057
 2890W        W 6409   7.489   8.580   9.474  0.1116  0.2840  0.0668
 2891W        W 6410   4.997   6.707   2.845  0.0656  0.0571  0.0553
 2892W        W 6411   4.483   3.724   2.222  0.0775 -0.0701 -0.0371
 2893W        W 6412   7.674   9.013  12.455 -0.2422 -0.0314  0.0213
 2894W        W 6413   9.019   3.500   1.032  0.1912 -0.0117 -0.0360
 2895W        W 6414   8.452   6.218   1.178  0.1034  0.0750  0.0519
 2896W        W 6415   0.643   1.845  10.091 -0.1385 -0.0639 -0.1707
 2897W        W 6416   8.892   5.300  10.974 -0.1123 -0.0603 -0.0133
 2898W        W 6417   4.396   3.296   9.519 -0.0239  0.0065  0.0574
 2899W        W 6418   7.869   1.320  10.227 -0.1731  0.0536 -0.3248
 2900W        W 6419   1.257   4.944   1.125  0.1168  0.2766 -0.0180
 2901W        W 6420   7.518   7.264   9.789  0.0544  0.0103  0.0336
 2902W        W 6421   0.155   2.854   4.333  0.0728  0.0210 -0.1079
 2903W        W 6422   0.790   3.728  11.735  0.2861  0.0172  0.2311
 2904W        W 6423   4.840   7.340  10.870  0.1136 -0.2627 -0.0102
 2905W        W 6424   8.015   7.261   9.079  0.0482 -0.1719 -0.0321
 2906W        W 6425   4.796   5.843   1.260  0.1844 -0.4127 -0.0444
 2907W        W 6426   8.417   6.012  12.453 -0.0964 -0.1982 -0.2721
 2908W        W 6427   9.549   8.176   2.354  0.1444  0.0197  0.0802
 2909W        W 6428   0.944   4.002   3.780 -0.0829  0.0076  0.0062
 2910W        W 6429   1.952   0.138  11.722 -0.1932  0.0190 -0.2281
 2911W        W 6430   2.406   0.571  10.425  0.2076 -0.1425 -0.0848
 2912W        W 6431   5.080   0.999   2.160 -0.2690 -0.1864  0.1443
 2913W        W 6432   0.581   5.997   2.878  0.1271 -0.3304 -0.1329
 2914W        W 6433   7.875   6.461  11.604  0.0099  0.0992  0.0217
 2915W        W 6434   9.452   1.163   2.075  0.1941  0.1231  0.0892
 2916W        W 6435   4.790   3.412  11.809  0.0685  0.2328  0.1300
 2917W        W 6436   8.572   4.455  11.843 -0.0014 -0.0100 -0.0678
 2918W        W 6437   0.098   1.932  12.015  0.1788  0.1654  0.0007
 2919W        W 6438   9.255   7.556  10.027  0.1878  0.0731 -0.2305
 2920W        W 6439   8.679   6.156   3.948  0.2042 -0.0999  0.2346
 2921W        W 6440   8.238   8.649   7.717 -0.0686  0.3930  0.1110
 2922W        W 6441   7.434   5.439  10.559  0.1765 -0.1192 -0.0543
 2923W        W 6442   1.803   7.064   3.269  0.0084 -0.1255 -0.0577
 2924W        W 6443   8.280   6.792   3.714  0.0120 -0.1442 -0.2019
 2925W        W 6444   9.584   7.603   8.570  0.0064 -0.2168  0.4835
 2926W        W 6445   5.924   3.107   3.549  0.2696 -0.0708 -0.3868
 2927W        W 6446   2.377   9.294   1.194 -0.1421  0.0380 -0.0732
 2928W        W 6447   7.050   3.210  11.944  0.1886  0.0387 -0.3614
 2929W        W 6448   6.092   1.726   1.817  0.0440  0.1363  0.0808
 2930W        W 6449   9.602   0.564   8.484  0.3204 -0.0286 -0.1790
 2931W        W 6450   1.154   6.803   2.363  0.0675  0.0209 -0.1577
 2932W        W 6451   0.113   2.314   9.496 -0.4680  0.0784  0.2637
 2933W        W 6452   7.094   4.875   9.318 -0.0908 -0.0740  0.1802
 2934W        W 6453   4.287   8.914   8.127  0.0782 -0.1197  0.1346
 2935W        W 6454   7.374   4.467   1.096 -0.2016 -0.1002  0.1327
 2936W        W 6455   3.712   3.156   2.425  0.3447  0.0697 -0.0980
 2937W        W 6456   1.373   8.936   9.629 -0.2368 -0.2915 -0.0493
 2938W        W 6457   7.344   0.830   8.779  0.1667  0.2964  0.0313
 2939W        W 6458   9.081   7.340   1.825  0.2714  0.1785  0.1950
 2940W        W 6459   7.087   1.086  11.308 -0.1218  0.0205  0.2363
 2941W        W 6460   6.639   5.682  11.974  0.0176 -0.1742  0.1417
 2942W        W 6461   0.860   9.047   1.533 -0.1485  0.1141  0.1807
 2943W        W 6462   3.079   9.275  10.572  0.2021 -0.1898 -0.2338
 2944W        W 6463   3.605   2.965   2.008 -0.1627  0.0254  0.2160
 2945W        W 6464   9.492   9.057   3.059 -0.2436 -0.1716  0.1970
 2946W        W 6465   0.802   4.870   3.287  0.0630 -0.0036  0.1086
 2947W        W 6466   2.525   3.748  10.175 -0.1741  0.2383  0.1998
 2948W        W 6467   2.044   0.932  10.580  0.0493 -0.2039  0.0955
 2949W        W 6468   5.447   3.931   2.259 -0.1637 -0.2019 -0.1447
 2950W        W 6469   5.599   1.238   8.978 -0.1140  0.0971 -0.1504
 2951W        W 6470   4.983   0.071   8.378 -0.1518  0.1002  0.2168
 2952W        W 6471   5.570   8.952   3.312 -0.1274 -0.0640 -0.1828
 2953W        W 6472   3.852   0.016   8.584  0.1405  0.1363 -0.0906
 2954W        W 6473   2.063   1.000   9.165 -0.0345  0.1566  0.1671
 2955W        W 6474   2.306   9.269   9.941  0.2071  0.0408  0.1239
 2956W        W 6475   3.830   1.897  11.014  0.1196  0.0321 -0.2064
 2957W        W 6476   0.023   9.703   2.818  0.0514  0.2044  0.2509
 2958W        W 6477   7.097   8.699  11.572  0.0751  0.0661 -0.1769
 2959W        W 6478   3.881   1.023   3.659 -0.0927  0.1216 -0.0135
 2960W        W 6479   4.672   6.339   2.562  0.2039  0.4759 -0.3643
 2961W        W 6480   4.361   2.495   9.316  0.0394  0.0296  0.1740
 2962W        W 6481   8.842   6.272   7.674 -0.2174  0.2085 -0.1719
 2963W        W 6482   6.383   8.776   0.198  0.1298 -0.1319  0.2068
 2964W        W 6483   7.304   0.746   3.353  0.3753  0.1659 -0.1707
 2965W        W 6484   1.569   6.937   1.689 -0.1484 -0.3614  0.1394
 2966W        W 6485   0.611   6.560   1.621  0.1147  0.2344 -0.3012
 2967W        W 6486   6.077   8.104  10.774 -0.2320  0.2425 -0.1332
 2968W        W 6487   0.762   1.447   2.183  0.0851 -0.1001  0.1997
 2969W        W 6488   7.912   5.628   0.268  0.4196  0.0024 -0.0137
 2970W        W 6489   1.236   8.736  12.151 -0.3006 -0.1877 -0.1350
 2971W        W 6490   0.078   3.090   9.220  0.1437 -0.1134  0.0801
 2972W        W 6491   8.894   3.526   9.044 -0.0386 -0.0028 -0.0120
 2973W        W 6492   4.692   4.305   0.293  0.0906  0.0531 -0.0525
 2974W        W 6493   6.212   1.555   9.149 -0.0463 -0.2045  0.0817
 2975W        W 6494   3.006   6.447   1.607  0.2728 -0.0768  0.0074
 2976W        W 6495   2.873   9.167   8.509 -0.0954 -0.1201 -0.0169
 2977W        W 6496   1.262   3.017   8.239  0.1450  0.1084  0.2225
 2978W        W 6497   6.330   0.911   8.553  0.0963 -0.2794 -0.1220
 2979W        W 6498   9.128   1.960   2.238  0.0489 -0.2411  0.4131
 2980W        W 6499   7.753   3.235  10.731  0.3940 -0.2748 -0.0567
 2981W        W 6500   0.899   1.806   0.185 -0.0355  0.1284 -0.0592
 2982W        W 6501   1.997   9.511  12.064 -0.1702 -0.1274 -0.3680
 2983W        W 6502   6.415   2.541   9.059 -0.0629  0.4643 -0.2628
 2984W        W 6503   5.136   4.027   0.475 -0.0012  0.1497  0.0260
 2985W        W 6504   4.419   3.050   2.486  0.1130 -0.0200 -0.1043
 2986W        W 6505   6.169   4.968   3.641 -0.0873 -0.4018  0.1032
 2987W        W 6506   4.087   6.161   0.675 -0.1618 -0.2814  0.3052
 2988W        W 6507   1.590   3.094   2.953  0.0069 -0.0670 -0.2431
 2989W        W 6508   2.917   3.873  10.979 -0.5652 -0.2135 -0.3107
 2990W        W 6509   7.023   9.523   2.072  0.0111 -0.0838 -0.2422
 2991W        W 6510   0.260   5.808   9.105 -0.2135 -0.1615 -0.1674
 2992W        W 6511   9.190   2.312  11.465 -0.1503 -0.1373 -0.2076
 2993W        W 6512   5.771   6.004   1.911  0.0825 -0.1029 -0.3014
 2994W        W 6513   8.343   6.884   1.528  0.3003 -0.0602  0.0004
 2995W        W 6514   7.075   6.613  10.977  0.1455 -0.1968 -0.0777
 2996W        W 6515   1.000   4.164   9.778 -0.0111 -0.1283 -0.3786
 2997W        W 6516   0.234   2.594   0.171  0.0254 -0.0726  0.0230
 2998W        W 6517   1.895   3.956   0.508 -0.0924 -0.0411  0.1784
 2999W        W 6518   0.113   9.021  12.375  0.0465  0.0486  0.3448
 3000W        W 6519   6.941   7.217  12.279  0.1691  0.1909 -0.0992
 3001W        W 6520   4.159   0.756  11.301 -0.3612  0.0839 -0.2231
 3002W        W 6521   7.196   2.844   0.237 -0.1125 -0.1051 -0.1233
 3003W        W 6522   4.835   2.543   3.557 -0.1167  0.1553 -0.0502
 3004W        W 6523   8.295   8.566   3.914  0.0939 -0.2835  0.1948
 3005W        W 6524   4.979   6.323   0.880  0.0459  0.0587 -0.0495
 3006W        W 6525   4.314   3.462  12.149  0.1483 -0.1673 -0.1642
 3007W        W 6526   3.374   4.510   8.314  0.2055 -0.1968 -0.1242
 3008W        W 6527   6.478   8.745   2.531  0.1922 -0.2101 -0.3989
 3009W        W 6528   4.020   0.310  10.568  0.1024  0.0506  0.0850
 3010W        W 6529   7.954   9.420   9.413  0.1301 -0.0534 -0.4576
 3011W        W 6530   9.191   3.414   7.667  0.0967  0.3220 -0.1894
 3012W        W 6531   4.682   8.734  11.330 -0.0632 -0.0426 -0.1141
 3013W        W 6532   9.051   6.011   1.608  0.3353 -0.1590  0.0062
 3014W        W 6533   4.170   4.906   2.939  0.0836 -0.0293 -0.0802
 3015W        W 6534   4.182   7.518  11.403 -0.4210 -0.2875 -0.3472
 3016W        W 6535   3.368   5.050   8.619 -0.0653 -0.1159  0.2710
 3017W        W 6536   2.105   2.602   0.303  0.1642 -0.0808  0.1630
 3018W        W 6537   3.345   0.756  11.359 -0.1715 -0.1121 -0.3128
 3019W        W 6538   6.243   5.663  11.587 -0.3019 -0.1386  0.1619
 3020W        W 6539   5.744   5.870   8.656 -0.1804 -0.3072 -0.2858
 3021W        W 6540   0.509   9.401   2.493  0.1424 -0.1244  0.4466
 3022W        W 6541   8.929   4.706   2.938  0.2598 -0.1523  0.0484
 3023W        W 6542   8.899   2.828   1.936  0.1113  0.0406  0.0503
 3024W        W 6543   5.859   6.515  10.420  0.2162 -0.2983  0.0013
 3025W        W 6544   7.059   6.027  11.242  0.0027  0.1974  0.0161
 3026W        W 6545   0.830   2.961   9.133  0.0587 -0.0053 -0.2261
 3027W        W 6546   4.161   2.083   4.211 -0.0041 -0.0062 -0.1567
 3028W        W 6547   4.293   1.669   3.065 -0.0913 -0.2479  0.0196
 3029W        W 6548   4.308   8.517  10.809 -0.0477 -0.4659  0.0038
 3030W        W 6549   8.917   6.977   1.577  0.1747 -0.2694  0.1328
 3031W        W 6550   2.979   6.549   0.100  0.0832 -0.3382  0.1287
 3032W        W 6551   0.333   4.700  10.428  0.3457 -0.0675 -0.1627
 3033W        W 6552   8.617   8.194   3.671 -0.1963 -0.1272  0.0009
 3034W        W 6553   6.264   9.500   8.984  0.1062 -0.3455 -0.0298
 3035W        W 6554   8.451   4.393  11.106 -0.1290 -0.0797  0.1600
 3036W        W 6555   8.897   0.258  10.586  0.0276  0.0279 -0.2021
 3037W        W 6556   4.890   3.155  12.402 -0.2019 -0.2338  0.0967
 3038W        W 6557   6.002   0.324   0.037  0.0413 -0.0808  0.2182
 3039W        W 6558   1.743   0.796   0.301  0.2379  0.1884  0.4123
 3040W        W 6559   4.105   3.618   0.382 -0.2790  0.1806 -0.1420
 3041W        W 6560   2.977   9.499   3.234  0.0628  0.1752 -0.1062
 3042W        W 6561   9.153   9.319   1.291  0.3644 -0.1701  0.2666
 3043W        W 6562   5.518   3.316   8.382  0.2303  0.2035 -0.1986
 3044W        W 6563   7.465   0.109  10.884 -0.0210 -0.1633  0.0136
 3045W        W 6564   7.606   4.879  11.475  0.1856  0.2364  0.2162
 3046W        W 6565   9.189   8.835   2.692 -0.1695 -0.1074 -0.0940
 3047W        W 6566   6.472   6.870   0.983 -0.2436 -0.0075  0.2756
 3048W        W 6567   0.809   7.708   1.461  0.0407  0.1083 -0.0741
 3049W        W 6568   3.534   5.755   9.225 -0.0369  0.3306  0.0834
 3050W        W 6569   9.556   3.663  10.062 -0.0779 -0.2391 -0.2756
 3051W        W 6570   7.944   1.133   9.625 -0.0090  0.0300 -0.2625
 3052W        W 6571   8.363   7.653   9.062 -0.2356 -0.2393 -0.0089
 3053W        W 6572   6.310   4.290   2.509  0.0751 -0.4078  0.1291
 3054W        W 6573   8.720   7.275   2.126  0.1151  0.3113  0.4404
 3055W        W 6574   2.894   0.285   8.443  0.0637  0.0404  0.0271
 3056W        W 6575   0.768   7.261   0.620 -0.1511  0.0119  0.3156
 3057W        W 6576   4.974   2.722   9.876  0.0505  0.0191  0.1528
 3058W        W 6577   0.012   6.602   1.441 -0.3357  0.1949 -0.1627
 3059W        W 6578   7.847   7.541  11.907 -0.1912  0.0787 -0.1232
 3060W        W 6579   7.065   0.123  12.426  0.0264  0.3818  0.0517
 3061W        W 6580   9.289   3.329   0.084 -0.1249  0.1098  0.3610
 3062W        W 6581   8.861   7.562   8.860 -0.0376 -0.1026  0.0746
 3063W        W 6582   0.120   1.805   3.544  0.1093 -0.1898 -0.1731
 3064W        W 6583   6.938   5.403  10.452  0.0588 -0.1374 -0.2152
 3065W        W 6584   1.694   6.708   9.361 -0.2244  0.1209  0.1680
 3066W        W 6585   9.664   7.115   0.422  0.1108  0.0269  0.0328
 3067W        W 6586   8.928   7.082   8.928 -0.0026  0.2625  0.0869
 3068W        W 6587   2.382   8.464   1.682  0.0045  0.1334 -0.0669
 3069W        W 6588   2.109   6.094  11.148  0.3576  0.4678 -0.3758
 3070W        W 6589   8.463   2.069   3.041 -0.3275  0.2172 -0.0023
 3071W        W 6590   6.758   4.465  11.518 -0.0969  0.2958  0.2173
 3072W        W 6591   3.983   1.121   4.167 -0.0437 -0.1657 -0.0683
 3073W        W 6592   1.489   5.497  11.508  0.1807 -0.0953 -0.1813
 3074W        W 6593   3.061   2.225  11.073  0.1128  0.1528  0.0135
 3075W        W 6594   0.398   6.332   9.182  0.2661 -0.1214  0.1586
 3076W        W 6595   4.008   4.688  11.479  0.0613  0.1125 -0.1050
 3077W        W 6596   7.255   1.978   8.381  0.1725 -0.1609  0.1065
 3078W        W 6597   4.478   3.986   8.099 -0.2558  0.0804 -0.6507
 3079W        W 6598   3.793   0.710  11.647  0.0487 -0.1117  0.0505
 3080W        W 6599   0.346   1.079   4.042 -0.1502  0.2361 -0.1810
 3081W        W 6600   0.800   5.910   3.364 -0.1806 -0.2400 -0.1917
 3082W        W 6601   5.647   7.155   9.434  0.1578 -0.1951 -0.1306
 3083W        W 6602   1.448   6.987   1.119  0.0650  0.3449  0.1740
 3084W        W 6603   7.005   0.647   4.288  0.1131  0.3792 -0.0958
 3085W        W 6604   7.575   4.203  10.189 -0.1363 -0.3510 -0.0790
 3086W        W 6605   3.982   3.280  12.449  0.0795 -0.0455 -0.0738
 3087W        W 6606   7.064   5.959   9.067 -0.0323 -0.2707 -0.0886
 3088W        W 6607   8.281   8.377   0.467 -0.1196  0.1290 -0.1123
 3089W        W 6608   5.007   8.094  12.374  0.1251 -0.0779 -0.0436
 3090W        W 6609   9.057   3.885   1.489  0.4065  0.0664 -0.2185
 3091W        W 6610   4.803   9.149   1.874  0.0071 -0.1409  0.0117
 3092W        W 6611   7.757   7.912   9.349  0.1230  0.1981 -0.1641
 3093W        W 6612   6.707   5.126   3.203  0.1596 -0.0860  0.2667
 3094W        W 6613   8.566   0.446  11.584  0.0679 -0.0100  0.2224
 3095W        W 6614   4.264   0.372   9.745 -0.1531 -0.1908 -0.0937
 3096W        W 6615   1.716   0.428   3.128 -0.1561  0.3865  0.3189
 3097W        W 6616   4.506   3.070   8.998 -0.1354 -0.4421  0.1734
 3098W        W 6617   8.999   4.518  11.234 -0.0369 -0.1590 -0.3343
 3099W        W 6618   1.984   4.583  11.613  0.1170  0.0787 -0.1821
 3100W        W 6619   6.779   8.849   8.956  0.0452  0.3812  0.1558
 3101W        W 6620   2.238   5.777   2.087  0.2046  0.0276  0.5450
 3102W        W 6621   4.458   1.877   3.767  0.1364  0.2825  0.2984
 3103W        W 6622   0.665   7.598   8.109 -0.3146  0.2959 -0.2095
 3104W        W 6623   5.213   6.309   3.033 -0.0897  0.0849 -0.1006
 3105W        W 6624   1.964   0.834   3.426  0.0101 -0.0485 -0.1280
 3106W        W 6625   0.872   4.370   0.564 -0.2891  0.0126  0.1696
 3107W        W 6626   6.044   6.826   0.581 -0.0670 -0.0295  0.0474
 3108W        W 6627   3.421   3.111  11.914  0.0473 -0.0972  0.0028
 3109W        W 6628   9.160   8.367  12.317  0.0451 -0.1602 -0.1208
 3110W        W 6629   8.037   1.513   8.295 -0.1624 -0.1659  0.2503
 3111W        W 6630   8.014   4.302   9.359 -0.1801  0.0510 -0.3237
 3112W        W 6631   2.852   4.167   0.874 -0.0510  0.1016  0.1744
 3113W        W 6632   0.600   9.044   7.541  0.1905  0.1561 -0.0426
 3114W        W 6633   1.354   0.264  11.770 -0.1427 -0.1675  0.1347
 3115W        W 6634   8.529   4.085  10.317  0.1478  0.0605 -0.1502
 3116W        W 6635   7.762   0.266   8.153 -0.1002  0.1401  0.1742
 3117W        W 6636   5.213   0.549   9.295 -0.1754  0.4079 -0.3440
 3118W        W 6637   9.145   5.048   9.526  0.0706 -0.0884 -0.3128
 3119W        W 6638   6.087   0.107   2.964 -0.0035 -0.1543  0.0488
 3120W        W 6639   0.655   8.171   7.688  0.0366 -0.0895  0.0440
 3121W        W 6640   9.409   8.288  11.380  0.2826  0.2856 -0.1212
 3122W        W 6641   9.441   4.199  10.033  0.1720 -0.3136  0.1620
 3123W        W 6642   7.788   3.285   8.739 -0.0014  0.1895 -0.1242
 3124W        W 6643   8.408   0.186   1.314 -0.0974  0.1745 -0.1480
 3125W        W 6644   7.358   3.985   7.795 -0.0935 -0.2874 -0.1641
 3126W        W 6645   4.794   7.685   0.216  0.1582  0.0333 -0.0820
 3127W        W 6646   2.756   0.427   0.190  0.0438 -0.0072 -0.0633
 3128W        W 6647   5.910   4.554  11.745 -0.4019 -0.3939 -0.0741
 3129W        W 6648   6.962   9.684   9.651 -0.0946 -0.2687 -0.2426
 3130W        W 6649   3.821   2.399   9.404 -0.1850  0.0093 -0.0240
 3131W        W 6650   1.396   9.562  10.825 -0.1406 -0.1582  0.3773
 3132W        W 6651   8.057   3.133   3.708  0.1421  0.0952 -0.0124
 3133W        W 6652   2.841   3.317  11.889 -0.0742  0.0835 -0.0605
 3134W        W 6653   5.617   4.815  12.498  0.2516 -0.1526 -0.3665
 3135W        W 6654   7.150   5.698  11.924  0.0165 -0.0867  0.0315
 3136W        W 6655   1.083   5.248   1.867 -0.4621 -0.1091 -0.2543
 3137W        W 6656   5.852   7.725   2.333 -0.3065  0.0787  0.3658
 3138W        W 6657   5.801   1.705  10.589 -0.0313  0.3677  0.0777
 3139W        W 6658   1.708   5.652   9.493 -0.0335 -0.5444 -0.2734
 3140W        W 6659   3.675   4.923  10.471  0.0602  0.1203  0.3439
 3141W        W 6660   1.519   7.007  11.001  0.2233 -0.2439  0.2417
 3142W        W 6661   4.214   9.573  10.878 -0.4099 -0.1657  0.0416
 3143W        W 6662   9.663   4.914  10.198  0.1439 -0.1961  0.0521
 3144W        W 6663   3.747   2.856   4.203 -0.0092  0.0308  0.3923
 3145W        W 6664   1.422   6.427   4.045 -0.1338 -0.0294 -0.2217
 3146W        W 6665   5.460   5.229  10.554 -0.1296 -0.1522 -0.1898
 3147W        W 6666   5.284   1.435   0.979 -0.2138  0.0808  0.1440
 3148W        W 6667   8.565   4.775   3.462  0.0962  0.0022  0.0216
 3149W        W 6668   3.174   0.488  12.353 -0.0369  0.3896  0.2605
 3150W        W 6669   3.088   8.190   9.418  0.3964  0.0290  0.3776
 3151W        W 6670   3.853   4.023  10.510  0.3433  0.2000  0.2398
 3152W        W 6671   6.153   6.594  10.839  0.1627 -0.1483  0.2738
 3153W        W 6672   0.978   0.514   2.050  0.3188 -0.2268 -0.3051
 3154W        W 6673   5.089   7.961   4.013  0.1382  0.3857  0.2064
 3155W        W 6674   3.581   9.077   2.415  0.1691 -0.2924  0.0010
 3156W        W 6675   5.575   3.666   0.511  0.0576  0.1442 -0.0413
 3157W        W 6676   7.784   2.042   9.052  0.0392 -0.3242  0.2664
 3158W        W 6677   8.020   0.463  12.293 -0.1501  0.0161  0.0249
 3159W        W 6678   2.625   8.030  10.151 -0.1326  0.2477 -0.0330
 3160W        W 6679   9.310   9.520  10.628 -0.3371  0.0891 -0.1055
 3161W        W 6680   8.962   0.686   2.726  0.1524  0.0135  0.3078
 3162W        W 6681   6.211   4.336  12.073  0.1812 -0.2900 -0.1178
 3163W        W 6682   1.601   5.216   0.687  0.2768 -0.5861 -0.2858
 3164W        W 6683   6.945   0.832   2.634 -0.1655 -0.0803  0.3803
 3165W        W 6684   1.240   5.514   9.666 -0.3039  0.1955 -0.0177
 3166W        W 6685   8.316   2.351  10.453 -0.0771  0.1616  0.0297
 3167W        W 6686   2.082   0.425   1.400 -0.0116  0.3096  0.2095
 3168W        W 6687   6.727   4.418   2.243 -0.1237 -0.2222 -0.0183
 3169W        W 6688   0.299   4.977  12.353 -0.0371 -0.2554 -0.1981
 3170W        W 6689   4.794   6.357  10.803  0.0890 -0.0723  0.0770
 3171W        W 6690   5.651   0.408   3.091 -0.2246  0.1394 -0.0904
 3172W        W 6691   7.135   6.429   0.077  0.1250 -0.0546 -0.0169
 3173W        W 6692   6.271   8.486  12.207  0.1835  0.1160 -0.0605
 3174W        W 6693   3.274   5.752  10.245  0.0114 -0.1759  0.0665
 3175W        W 6694   0.332   1.907   4.289 -0.1831  0.0443  0.0798
 3176W        W 6695   1.607   9.677  11.351  0.2140 -0.1229  0.1078
 3177W        W 6696   6.040   4.417  10.341  0.3805  0.2722  0.0981
 3178W        W 6697   2.479   6.258  10.805  0.2661 -0.1123 -0.1007
 3179W        W 6698   6.730   3.606  10.955 -0.0652  0.2744  0.3738
 3180W        W 6699   6.048   1.226   2.049 -0.1869 -0.2229  0.1851
 3181W        W 6700   8.700   2.470  11.820 -0.3193  0.1313  0.2075
 3182W        W 6701   5.326   7.796   1.319  0.2083  0.0511 -0.5567
 3183W        W 6702   7.948   6.546   8.536 -0.0506  0.0527 -0.0852
 3184W        W 6703   7.527   7.735   0.866 -0.1980 -0.0304 -0.0808
 3185W        W 6704   8.516   8.873   8.507  0.2591  0.3116 -0.1527
 3186W        W 6705   0.754   8.790   0.470 -0.0418  0.5842 -0.3079
 3187W        W 6706   9.127   3.934  11.575 -0.2018  0.1391 -0.0383
 3188W        W 6707   1.509   7.271   2.437  0.2747  0.1745 -0.1241
 3189W        W 6708   1.716   5.719   0.862  0.2864 -0.2237  0.1717
 3190W        W 6709   1.250   2.159   2.717  0.0108  0.0717 -0.1843
 3191W        W 6710   9.316   9.011   0.303 -0.2102 -0.0031  0.0302
 3192W        W 6711   9.092   6.795   8.586 -0.6110  0.1959 -0.0975
 3193W        W 6712   8.857   6.974   0.160 -0.1705 -0.1513 -0.2474
 3194W        W 6713   0.615   4.582   1.545  0.1723 -0.0850  0.1719
 3195W        W 6714   8.625   6.560   8.547  0.2825 -0.0017  0.0626
 3196W        W 6715   2.831   4.824  11.022 -0.1406  0.2200 -0.0075
 3197W        W 6716   4.538   3.386   0.156 -0.0960 -0.1263  0.1441
 3198W        W 6717   8.002   1.954   9.551  0.1151  0.1257  0.1938
 3199W        W 6718   7.189   1.398   9.409  0.3576 -0.0385 -0.0421
 3200W        W 6719   8.727   1.472   1.035 -0.2294  0.2207 -0.1071
 3201W        W 6720   7.108   5.501   2.996 -0.0437 -0.0808  0.0438
 3202W        W 6721   3.979   8.859  10.901  0.2230 -0.0997 -0.0606
 3203W        W 6722   0.971   7.310  10.819  0.0370 -0.0844  0.3286
 3204W        W 6723   8.137   6.488   2.437 -0.3371 -0.2849  0.0884
 3205W        W 6724   5.342   5.224   0.172  0.1443 -0.1793 -0.3797
 3206W        W 6725   4.286   7.953   0.303 -0.1234  0.1783  0.3428
 3207W        W 6726   7.113   3.454   9.334 -0.1761  0.0170  0.0548
 3208W        W 6727   1.268   3.422  11.768 -0.3133 -0.3978  0.0337
 3209W        W 6728   8.006   8.152   3.846 -0.1897  0.0865 -0.2143
 3210W        W 6729   8.091   7.463   0.853  0.1741  0.2632  0.0045
 3211W        W 6730   1.905   9.230   1.331 -0.1768  0.2654 -0.2755
 3212W        W 6731   8.551   0.459   3.126  0.1353  0.2912 -0.0018
 3213W        W 6732   5.850   3.677   2.086 -0.0476 -0.2213  0.0111
 3214W        W 6733   2.481   2.071  12.268 -0.2060  0.1478 -0.1181
 3215W        W 6734   4.423   4.599  10.082 -0.0444 -0.3610  0.1714
 3216W        W 6735   2.590   7.191  10.759 -0.0803 -0.0112 -0.1496
 3217W        W 6736   8.010   3.168   8.293  0.4242  0.1995 -0.1738
 3218W        W 6737   6.698   3.166  10.035 -0.1769  0.2750 -0.1165
 3219W        W 6738   3.294   2.721   2.991 -0.0366 -0.1427  0.0820
 3220W        W 6739   4.963   3.074   2.030 -0.1613 -0.2089  0.3765
 3221W        W 6740   5.934   5.602  10.182 -0.0612  0.2054 -0.2849
 3222W        W 6741   4.437   3.850  11.714  0.1058  0.1555 -0.2384
 3223W        W 6742   7.427   8.904   8.089 -0.1939 -0.5211 -0.0007
 3224W        W 6743   8.306   5.671   0.589  0.2142 -0.0226 -0.1475
 3225W        W 6744   5.543   2.763   8.568  0.0364 -0.0589  0.0669
 3226W        W 6745   6.588   1.205   1.564  0.0311 -0.1051 -0.0945
 3227W        W 6746   8.053   0.609   0.628 -0.0098  0.1277  0.0359
 3228W        W 6747   5.876   0.858   0.673  0.1680  0.1386  0.1916
 3229W        W 6748   4.277   6.502  11.345  0.2216 -0.0304  0.0720
 3230W        W 6749   3.400   0.578   9.993 -0.1328  0.1331 -0.1013
 3231W        W 6750   6.095   1.723   0.329  0.1095 -0.2235 -0.1247
 3232W        W 6751   3.371   1.700  10.076  0.4332 -0.3495 -0.3172
 3233W        W 6752   5.846   7.018  10.736 -0.0541 -0.1749 -0.0247
 3234W        W 6753   7.740   5.320   8.143  0.0153  0.3182  0.2140
 3235W        W 6754   4.313   6.028   2.825  0.0007  0.3322  0.3073
 3236W        W 6755   3.816   7.076  11.160  0.5079 -0.1666 -0.0686
 3237W        W 6756   3.581   5.498   0.102 -0.0692  0.0370  0.1745
 3238W        W 6757   5.040   5.028   1.252  0.2138 -0.0808 -0.1257
 3239W        W 6758   7.752   6.111  12.450 -0.1852 -0.1048  0.0580
 3240W        W 6759   4.776   4.244  11.285 -0.1039 -0.2991 -0.0292
 3241W        W 6760   0.215   7.775   3.468  0.1885 -0.1556 -0.2518
 3242W        W 6761   1.717   0.237   0.157  0.1902 -0.1595 -0.2016
 3243W        W 6762   0.491   6.727  10.029 -0.1491  0.1376  0.0490
 3244W        W 6763   2.173   4.085   3.200  0.1872 -0.0725 -0.0631
 3245W        W 6764   7.133   4.215   4.320  0.1668 -0.1484  0.2755
 3246W        W 6765   2.089   2.820  10.501 -0.1845 -0.1335  0.0387
 3247W        W 6766   6.028   0.551   1.733  0.3045  0.0112 -0.1530
 3248W        W 6767   8.280   6.687  10.799  0.2800  0.1362  0.2900
 3249W        W 6768   4.188   8.972   3.316  0.1017 -0.0264  0.1421
 3250W        W 6769   7.029   4.791  11.264  0.0973 -0.0683  0.1443
 3251W        W 6770   9.084   8.814   1.854  0.1463 -0.1311 -0.0606
 3252W        W 6771   1.698   1.686   1.914  0.0351  0.0176 -0.1877
 3253W        W 6772   0.394   1.170   1.741 -0.0130 -0.3586 -0.0625
 3254W        W 6773   4.660   5.583   9.690  0.2501  0.3036  0.0476
 3255W        W 6774   4.706   6.407   3.126  0.0209  0.2117 -0.0430
 3256W        W 6775   6.103   6.660  11.651 -0.0849 -0.0055 -0.1577
 3257W        W 6776   9.529   0.957  11.600  0.2246  0.1244  0.0403
 3258W        W 6777   8.248   5.700   4.558 -0.0647  0.0247 -0.1440
 3259W        W 6778   7.584   6.362   1.293  0.3578 -0.0133  0.3043
 3260W        W 6779   8.831   9.296   0.652 -0.4796 -0.0309 -0.1326
 3261W        W 6780   3.456   7.747  10.213  0.2728 -0.2168  0.1805
 3262W        W 6781   6.987   0.785  12.394 -0.0678  0.0409 -0.0159
 3263W        W 6782   2.195   8.631   3.236  0.0250 -0.3176 -0.4116
 3264W        W 6783   2.920   6.473  10.674 -0.0614 -0.1358 -0.0826
 3265W        W 6784   3.583   2.194  11.837  0.0567 -0.2689  0.0861
 3266W        W 6785   6.622   2.360   9.556 -0.1985  0.0725  0.1498
 3267W        W 6786   6.982   0.427   2.930  0.1649  0.1920 -0.0626
 3268W        W 6787   6.359   2.727   0.843 -0.1573  0.1990  0.2452
 3269W        W 6788   3.388   8.789  12.471 -0.0096 -0.0593 -0.1827
 3270W        W 6789   6.289   2.296   2.901  0.1033 -0.1795 -0.1349
 3271W        W 6790   6.904   2.399   0.090 -0.0988 -0.3202  0.2541
 3272W        W 6791   7.064   4.731   2.483  0.1851 -0.0176 -0.3456
 3273W        W 6792   5.844   3.955  12.233 -0.3703  0.0612 -0.0817
 3274W        W 6793   5.389   9.656   8.073 -0.2166 -0.1302 -0.2166
 3275W        W 6794   1.141   3.520   1.387 -0.0873  0.4010  0.2486
 3276W        W 6795   4.819   8.064  11.958 -0.0716  0.1820  0.1903
 3277W        W 6796   8.953   3.175   9.421  0.0302 -0.2046 -0.2916
 3278W        W 6797   7.587   1.493   2.972 -0.1155  0.1490  0.0829
 3279W        W 6798   0.364   9.506  11.194  0.0654  0.1034  0.0339
 3280W        W 6799   8.553   8.841  11.077  0.3261 -0.0884  0.0603
 3281W        W 6800   3.313   4.608  10.743 -0.0492  0.0941 -0.7402
 3282W        W 6801   7.087   3.828   4.694  0.0466 -0.1747 -0.2252
 3283W        W 6802   7.722   8.356   2.023  0.2646 -0.0581  0.1208
 3284W        W 6803   3.894   5.966  11.000 -0.2703  0.2728  0.0310
 3285W        W 6804   8.556   0.645   2.126 -0.2213 -0.0334  0.3208
 3286W        W 6805   9.209   8.273   3.071  0.0295  0.1443 -0.1772
 3287W        W 6806   3.282   1.742   2.700  0.3363 -0.1497 -0.1550
 3288W        W 6807   3.618   4.473  11.735 -0.3673 -0.0630 -0.0120
 3289W        W 6808   4.813   5.911   0.026  0.4026  0.0215  0.2090
 3290W        W 6809   1.643   5.946   9.042  0.2336 -0.0717  0.1345
 3291W        W 6810   5.997   1.491   1.362  0.0674  0.0743 -0.1358
 3292W        W 6811   8.108   2.901   8.964 -0.0092 -0.1655  0.3926
 3293W        W 6812   6.893   3.800  12.149  0.2099 -0.0268  0.0577
 3294W        W 6813   1.346   1.657   1.359 -0.3940  0.2861  0.0224
 3295W        W 6814   3.268   2.037   4.645 -0.1251 -0.4100  0.0811
 3296W        W 6815   3.954   8.978   2.853 -0.2368 -0.3327  0.2991
 3297W        W 6816   7.007   0.976   9.239  0.1474  0.0044  0.4292
 3298W        W 6817   9.270   3.883   3.880 -0.1871  0.1007 -0.2335
 3299W        W 6818   2.749   8.458   2.079 -0.0534 -0.0976 -0.2830
 3300W        W 6819   8.579   2.411   3.502 -0.1783  0.2753 -0.2890
 3301W        W 6820   2.684   9.392  10.307  0.4053 -0.0567  0.0023
 3302W        W 6821   2.651   3.442  11.113 -0.0865  0.0296 -0.3266
 3303W        W 6822   5.287   7.717  10.593  0.1447  0.0330  0.1248
 3304W        W 6823   6.019   8.965   1.651 -0.0413 -0.2349  0.0531
 3305W        W 6824   0.922   9.289   0.379  0.0337  0.2504  0.1041
 3306W        W 6825   3.748   8.729   0.347 -0.1210  0.1080  0.1157
 3307W        W 6826   4.955   9.216  11.277  0.3734  0.1254  0.2361
 3308W        W 6827   7.690   9.410   0.216  0.3167 -0.0346 -0.0329
 3309W        W 6828   4.196   1.237   2.837  0.0134  0.1532  0.0645
 3310W        W 6829   0.147   6.234   0.034  0.0093  0.1292  0.1423
 3311W        W 6830   7.989   2.028  10.597 -0.0965 -0.1289 -0.2881
 3312W        W 6831   3.268   5.658   8.556  0.0978  0.1712  0.1197
 3313W        W 6832   1.181   1.205  12.163 -0.0667  0.1592 -0.0406
 3314W        W 6833   0.956   1.156   0.891 -0.2437  0.0769 -0.2350
 3315W        W 6834   7.011   8.701   3.176  0.1407 -0.1955  0.0753
 3316W        W 6835   3.037   2.201   3.399  0.2443 -0.1674  0.3431
 3317W        W 6836   2.199   0.649   3.859 -0.2429 -0.1455 -0.2202
 3318W        W 6837   8.547   0.019   0.233  0.0692  0.2075 -0.1181
 3319W        W 6838   9.631   2.997   0.106  0.0284  0.0111 -0.2119
 3320W        W 6839   7.618   8.436  12.100  0.0908  0.1213  0.3082
 3321W        W 6840   0.374   7.730   3.996  0.0592  0.2209 -0.0432
 3322W        W 6841   2.436   0.273  10.951 -0.3432 -0.2134  0.4737
 3323W        W 6842   8.318   0.774  11.307  0.2922 -0.1640  0.1462
 3324W        W 6843   4.329   7.167   0.729 -0.1287  0.1258  0.0976
 3325W        W 6844   9.550   6.453  11.751 -0.0069 -0.1210  0.2038
 3326W        W 6845   4.647   7.542  10.400  0.0422 -0.0286 -0.0216
 3327W        W 6846   0.062   1.868  10.486 -0.0439 -0.2509 -0.1728
 3328W        W 6847   0.360   3.066  11.536  0.0836  0.1927  0.0482
 3329W        W 6848   6.355   6.121   3.229 -0.2120 -0.1364 -0.2109
 3330W        W 6849   8.051   6.430   1.581 -0.0005 -0.0720 -0.0360
 3331W        W 6850   5.757   2.604   3.744  0.2589  0.0479  0.1197
 3332W        W 6851   1.647   8.032   9.216  0.0145  0.3061 -0.1593
 3333W        W 6852   7.477   3.858   2.316  0.0384 -0.2629  0.1651
 3334W        W 6853   4.235   9.595   9.596 -0.0735 -0.0972  0.1393
 3335W        W 6854   8.161   2.333  11.035 -0.1911 -0.2532  0.1171
 3336W        W 6855   2.825   8.629   9.275 -0.0163  0.2917 -0.0440
 3337W        W 6856   2.289   2.281   0.619  0.0687  0.1654  0.1333
 3338W        W 6857   0.411   9.104  11.921  0.1384  0.0984  0.3314
 3339W        W 6858   2.280   6.559   1.201 -0.0207  0.0605  0.0922
 3340W        W 6859   6.078   8.417  11.711 -0.1191  0.0554  0.0168
 3341W        W 6860   5.900   4.413  12.483  0.0523  0.0947 -0.0818
 3342W        W 6861   3.687   8.560   1.335  0.1032 -0.3376 -0.0030
 3343W        W 6862   4.484   3.598   1.253 -0.1391  0.1159  0.1292
 3344W        W 6863   6.462   8.250   0.187  0.2352  0.0658  0.0922
 3345W        W 6864   1.516   6.001   0.372 -0.0311  0.1334  0.0787
 3346W        W 6865   4.366   2.967  11.506  0.0869  0.1731  0.0011
 3347W        W 6866   9.587   0.347   2.141 -0.3124 -0.3410  0.0197
 3348W        W 6867   6.083   7.713   3.151  0.2027  0.1773 -0.1399
 3349W        W 6868   1.455   7.341  10.602  0.1172  0.2241  0.0628
 3350W        W 6869   9.540   5.342  11.025 -0.2748 -0.4022 -0.0501
 3351W        W 6870   8.095   6.015   9.210 -0.0832 -0.0229 -0.0512
 3352W        W 6871   3.532   9.594   3.201  0.2459  0.1012  0.0869
 3353W        W 6872   4.643   1.712  10.817  0.0385  0.1057 -0.0090
 3354W        W 6873   7.941   4.663  11.764 -0.0584  0.0158 -0.2952
 3355W        W 6874   5.549   5.995   9.973  0.1973  0.1926 -0.0526
 3356W        W 6875   8.458   6.492   9.704  0.2117  0.0166  0.1240
 3357W        W 6876   6.743   1.241   3.671  0.0610  0.1639 -0.0831
 3358W        W 6877   2.713   1.526   3.547 -0.0040  0.0457  0.0163
 3359W        W 6878   3.615   9.039   9.807 -0.2847 -0.2911  0.0687
 3360W        W 6879   1.096   6.229   0.569  0.0834  0.4823  0.0133
 3361W        W 6880   6.379   4.133   9.844 -0.0327 -0.1900  0.1018
 3362W        W 6881   6.760   5.395   1.421 -0.0312  0.2313  0.1486
 3363W        W 6882   4.716   5.363  11.870 -0.0845 -0.0023  0.0508
 3364W        W 6883   2.070   8.190  11.629 -0.0399  0.2202  0.0209
 3365W        W 6884   6.680   9.195   2.493 -0.0792  0.1673 -0.0954
 3366W        W 6885   8.810   9.570   1.583  0.1296  0.3242 -0.1106
 3367W        W 6886   9.414   8.753  12.368  0.1671 -0.0209  0.1092
 3368W        W 6887   6.623   1.935   3.175  0.0079 -0.1393  0.0859
 3369W        W 6888   1.098   7.095  11.841 -0.2264  0.2733  0.3169
 3370W        W 6889   3.282   5.206  10.933 -0.3215  0.0795  0.1718
 3371W        W 6890   2.507   9.244   4.089 -0.0331  0.1500  0.0207
 3372W        W 6891   0.566   5.744   1.118 -0.3254  0.3104 -0.2391
 3373W        W 6892   2.514   2.717   0.566 -0.1058  0.0419 -0.2875
 3374W        W 6893   1.483   4.615   0.668 -0.2390  0.0806 -0.0664
 3375W        W 6894   0.511   4.228   3.928  0.1402 -0.0201 -0.3451
 3376W        W 6895   0.256   5.242   2.309 -0.0635 -0.3190 -0.1838
 3377W        W 6896   6.487   0.647   2.427 -0.1286 -0.2113  0.1189
 3378W        W 6897   2.925   6.878  11.543  0.0579 -0.1083  0.2780
 3379W        W 6898   1.962   4.478   0.317 -0.0056  0.0112 -0.1706
 3380W        W 6899   9.450   9.339  10.089  0.1231 -0.2008  0.2318
 3381W        W 6900   1.444   4.354  12.047 -0.0510  0.0467 -0.1828
 3382W        W 6901   0.359   1.852   1.149  0.0905  0.0463  0.0807
 3383W        W 6902   2.428   0.652   3.347 -0.0165  0.2323 -0.0511
 3384W        W 6903   4.232   1.377   9.589 -0.5085 -0.1197  0.4043
 3385W        W 6904   0.247   5.533   0.683 -0.0144  0.0715 -0.0769
 3386W        W 6905   7.084   5.087   8.825  0.1601  0.0431  0.2963
 3387W        W 6906   2.900   3.274   1.098 -0.1751 -0.2538 -0.1339
 3388W        W 6907   6.556   2.598  12.301 -0.0470  0.2487  0.1817
 3389W        W 6908   2.101   9.563   9.487  0.0014  0.1501 -0.2829
 3390W        W 6909   2.987   7.280   2.582  0.0903  0.1757 -0.1335
 3391W        W 6910   6.812   5.015  10.034 -0.2354  0.1230  0.0303
 3392W        W 6911   5.396   3.349   3.453 -0.0353  0.1051  0.2565
 3393W        W 6912   8.152   4.114   2.994 -0.3137  0.2670  0.1275
 3394W        W 6913   5.898   6.050  10.331  0.1553 -0.0566 -0.3343
 3395W        W 6914   1.241   0.531   8.488  0.0296  0.1112 -0.0816
 3396W        W 6915   3.248   8.043   2.858  0.0543 -0.1596  0.1942
 3397W        W 6916   4.296   8.299   0.641  0.0014  0.2394 -0.3882
 3398W        W 6917   5.986   9.479  12.175 -0.1861 -0.2588  0.1964
 3399W        W 6918   1.856   3.020  10.933  0.1156  0.0805  0.0385
 3400W        W 6919   8.642   5.321   9.649  0.3220 -0.0135  0.0659
 3401W        W 6920   7.744   9.642   8.527 -0.0971 -0.1984  0.0468
 3402W        W 6921   6.625   8.679   1.635 -0.1374  0.3217 -0.0611
 3403W        W 6922   0.717   6.526   2.133 -0.0778 -0.2478  0.1904
 3404W        W 6923   0.176   6.774   8.599  0.0383  0.0034  0.1531
 3405W        W 6924   5.887   6.923   1.865 -0.3632  0.0989  0.3046
 3406W        W 6925   7.902   3.780   9.440 -0.0648 -0.2726  0.0871
 3407W        W 6926   8.066   5.224   8.519  0.3221 -0.0959  0.2296
 3408W        W 6927   7.684   5.475   9.585 -0.0532 -0.0049 -0.1964
 3409W        W 6928   3.417   9.214   9.276 -0.0613 -0.1324 -0.1053
 3410W        W 6929   5.905   4.897   2.546 -0.0688 -0.0325 -0.2398
 3411W        W 6930   4.959   5.739   0.785  0.2332 -0.1139  0.2733
 3412W        W 6931   1.235   3.932   9.426  0.0550 -0.1070  0.1279
 3413W        W 6932   2.565   0.505   2.862 -0.4914 -0.2626  0.2403
 3414W        W 6933   4.279   5.481  11.535  0.1834  0.0599  0.1839
 3415W        W 6934   3.111   5.541   1.887 -0.1597 -0.1690  0.0610
 3416W        W 6935   4.017   6.323  10.484  0.1429 -0.1385  0.3718
 3417W        W 6936   2.237   4.134   2.379  0.0180  0.3586 -0.1433
 3418W        W 6937   7.656   2.668   0.670 -0.1382  0.1560  0.2922
 3419W        W 6938   9.458   2.554   0.985  0.0966 -0.0906  0.0489
 3420W        W 6939   4.240   6.008  11.486 -0.2337  0.0478 -0.0052
 3421W        W 6940   5.156   1.972   4.251  0.0163 -0.4302 -0.0177
 3422W        W 6941   9.139   0.781   4.917  0.0026  0.0455  0.3249
 3423W        W 6942   9.477   5.635   0.591  0.0005  0.1651 -0.0353
 3424W        W 6943   8.593   1.976   9.486  0.1781  0.0298  0.1911
 3425W        W 6944   5.435   7.132   2.906  0.0473 -0.1184 -0.0170
 3426W        W 6945   0.629   3.808   2.763  0.3676 -0.1256  0.3227
 3427W        W 6946   5.116   1.219   8.165  0.1129 -0.2270  0.1867
 3428W        W 6947   2.290   8.732   2.242 -0.0307 -0.1030  0.0002
 3429W        W 6948   1.759   5.904   3.488 -0.1049 -0.2930 -0.0323
 3430W        W 6949   8.263   1.422   0.670  0.0258  0.0186 -0.1879
 3431W        W 6950   6.970   1.644  11.421  0.2442  0.1027 -0.2922
 3432W        W 6951   0.577   4.499   8.484 -0.0637 -0.1743  0.0715
 3433W        W 6952   4.670   5.142   9.445 -0.0392 -0.0073  0.2028
 3434W        W 6953   6.179   1.445  10.262  0.0355 -0.1945 -0.0490
 3435W        W 6954   1.928   3.327   1.651 -0.3178 -0.1592  0.4308
 3436W        W 6955   1.190   8.293   0.441 -0.2901  0.0485 -0.2247
 3437W        W 6956   8.681   9.499  11.517  0.1114  0.1901  0.0005
 3438W        W 6957   0.615   0.692   1.667  0.3290  0.0839 -0.0826
 3439W        W 6958   3.390   5.909  11.676  0.1708 -0.2849  0.0880
 3440W        W 6959   8.265   2.358   9.685  0.1432 -0.1168 -0.2444
 3441W        W 6960   5.696   9.459  10.736  0.0289 -0.2800  0.2636
 3442W        W 6961   2.162   2.388   2.437 -0.0383  0.0579  0.0397
 3443W        W 6962   4.446   4.279   2.413 -0.0945  0.2331 -0.0645
 3444W        W 6963   9.186   2.855   0.223 -0.0676 -0.3060  0.2492
 3445W        W 6964   2.073   4.908   0.021 -0.2767 -0.0423 -0.0813
 3446W        W 6965   2.378   2.918   9.266 -0.0493 -0.3026 -0.2392
 3447W        W 6966   1.642   3.242   3.447 -0.1250  0.2147 -0.0767
 3448W        W 6967   1.717   6.239   3.106 -0.1032 -0.0559  0.0213
 3449W        W 6968   3.810   1.421   0.426 -0.0220 -0.1862 -0.2447
 3450W        W 6969   3.714   3.682   8.992 -0.1554  0.6421  0.3730
 3451W        W 6970   5.640   0.802   9.278 -0.1473  0.0579  0.0278
 3452W        W 6971   7.938   3.004  12.064  0.0001 -0.0551  0.1641
 3453W        W 6972   9.011   5.925   2.677  0.1137 -0.4298  0.0411
 3454W        W 6973   9.263   8.883  10.111 -0.0365  0.0528 -0.0689
 3455W        W 6974   6.417   6.899   2.757  0.2568  0.1218  0.0513
 3456W        W 6975   9.232   1.504  10.366  0.0759 -0.3620  0.1952
 3457W        W 6976   3.861   3.762  12.425  0.1215 -0.1792  0.1784
 3458W        W 6977   2.817   8.463  10.337 -0.3240  0.3127 -0.1772
 3459W        W 6978   3.849   5.171  11.308 -0.0515  0.2354 -0.0291
 3460W        W 6979   4.192   5.886  10.553 -0.3065 -0.1807  0.6310
 3461W        W 6980   3.823   0.586   1.171 -0.1085 -0.1456  0.2589
 3462W        W 6981   8.398   0.304   9.598 -0.2673 -0.1390  0.1152
 3463W        W 6982   0.347   6.897   4.140 -0.0042 -0.0259  0.1800
 3464W        W 6983   1.691   2.092   8.024  0.0017  0.0234 -0.1429
 3465W        W 6984   4.030   2.921  11.142 -0.2325  0.2590 -0.0738
 3466W        W 6985   1.557   7.162   9.180 -0.0830 -0.2612 -0.3471
 3467W        W 6986   4.373   4.554   1.633  0.0642  0.0490  0.3752
 3468W        W 6987   3.870   4.447   2.618  0.3243 -0.0136  0.0618
 3469W        W 6988   8.088   7.631   4.793  0.0200  0.1673 -0.0566
 3470W        W 6989   6.386   6.396   0.689  0.0386  0.1293  0.1942
 3471W        W 6990   8.075   4.133  10.511 -0.1047 -0.2308 -0.1088
 3472W        W 6991   3.657   6.036   9.675 -0.0853 -0.2517  0.1930
 3473W        W 6992   6.167   0.062  11.606 -0.0859  0.0726 -0.0817
 3474W        W 6993   7.443   3.989  10.981 -0.1212  0.0014  0.1340
 3475W        W 6994   2.298   8.177  12.123  0.0205  0.1482  0.0211
 3476W        W 6995   3.485   2.495   2.114  0.1711  0.2381  0.3479
 3477W        W 6996   2.383   1.585   8.261  0.2726 -0.0832  0.0570
 3478W        W 6997   1.881   1.374   3.335  0.0330 -0.3674 -0.0235
 3479W        W 6998   8.600   1.714   8.523 -0.0428  0.2487 -0.2045
 3480W        W 6999   4.227   6.208   7.515 -0.2150  0.2496  0.1494
 3481W        W 7000   2.675   8.295  11.825 -0.2519  0.0480  0.2094
 3482W        W 7001   3.362   6.352  10.862  0.1257  0.0367 -0.0073
 3483W        W 7002   2.250   3.085   9.764  0.0774 -0.0766 -0.2269
 3484W        W 7003   6.791   2.153  10.024 -0.1120  0.1272 -0.1151
 3485W        W 7004   3.356   2.600   3.458 -0.1724  0.0529 -0.3173
 3486W        W 7005   8.731   8.420   8.456  0.3402 -0.0860 -0.0726
 3487W        W 7006   8.442   9.612  12.281 -0.1100  0.0692 -0.4142
 3488W        W 7007   1.615   4.748   2.728 -0.3456 -0.0843 -0.0630
 3489W        W 7008   4.555   0.351  12.112 -0.1739 -0.1517  0.0285
 3490W        W 7009   6.121   1.597   9.675 -0.1460 -0.2009  0.3693
 3491W        W 7010   5.460   0.891   3.192 -0.1544  0.1336 -0.0248
 3492W        W 7011   6.856   7.545   9.021 -0.3088 -0.0586 -0.0684
 3493W        W 7012   8.169   6.594   4.631  0.0709 -0.3306 -0.1269
 3494W        W 7013   5.712   8.032   3.265 -0.0353  0.1132  0.2143
 3495W        W 7014   2.852   8.288   3.195  0.2732 -0.1549 -0.0037
 3496W        W 7015   8.360   3.651   2.851  0.1772  0.1997 -0.2421
 3497W        W 7016   8.050   8.155   9.662 -0.1829 -0.0552  0.1207
 3498W        W 7017   3.760   0.937   4.563 -0.2990 -0.1992 -0.4162
 3499W        W 7018   3.073   4.179   2.233  0.0719 -0.3582 -0.1432
 3500W        W 7019   6.857   0.425   9.420 -0.0350  0.1460 -0.3413
 3501W        W 7020   2.332   0.365   7.680 -0.0696  0.0824 -0.1955
 3502W        W 7021   6.712   0.276   1.282 -0.0579 -0.0617 -0.0510
 3503W        W 7022   1.293   7.994  12.193 -0.1772  0.2095 -0.2511
 3504W        W 7023   2.063   6.488   0.202  0.1496 -0.2750  0.1391
 3505W        W 7024   3.118   6.305  11.488 -0.1816 -0.0095 -0.0429
 3506W        W 7025   3.910   2.307   8.583  0.1695 -0.0864 -0.0140
 3507W        W 7026   2.122   4.878   8.431 -0.0052  0.1741 -0.0545
 3508W        W 7027   4.743   6.877  12.252 -0.0639  0.0843  0.0405
 3509W        W 7028   7.680   1.581   3.769  0.3798  0.0350 -0.0857
 3510W        W 7029   4.803   4.839   0.441  0.1165  0.0384  0.1833
 3511W        W 7030   8.101   2.458   3.175 -0.1947  0.3593  0.1348
 3512W        W 7031   6.972   1.917   9.380  0.1587  0.3226 -0.1692
 3513W        W 7032   4.227   3.427  11.593 -0.0557 -0.0752  0.1426
 3514W        W 7033   1.245   0.326  12.446 -0.0264 -0.0645 -0.1049
 3515W        W 7034   1.184   7.731   3.278  0.4695 -0.1261  0.0304
 3516W        W 7035   7.445   3.806  11.938  0.0623 -0.1563 -0.0224
 3517W        W 7036   0.487   5.779   8.421  0.0497  0.0995 -0.0490
 3518W        W 7037   2.566   6.126  11.378 -0.0355  0.3082 -0.1239
 3519W        W 7038   3.657   0.469   8.640 -0.1555  0.1345 -0.0473
 3520W        W 7039   3.849   7.377   2.690 -0.1678  0.1999 -0.3479
 3521W        W 7040   1.604   2.161   1.370 -0.2506 -0.4697  0.1352
 3522W        W 7041   2.072   8.267   9.830  0.1903  0.2100  0.0394
 3523W        W 7042   5.319   0.029   3.797  0.1387 -0.0090  0.2408
 3524W        W 7043   0.046   7.402   2.335  0.1609  0.1940  0.2549
 3525W        W 7044   6.210   3.903   8.812 -0.2916 -0.0486 -0.1005
 3526W        W 7045   5.076   2.999   8.653  0.0629  0.2883  0.2319
 3527W        W 7046   1.929   2.204   8.754  0.0579  0.2170  0.0333
 3528W        W 7047   7.943   6.305  11.159  0.2142 -0.0359  0.0874
 3529W        W 7048   7.541   5.519   3.242 -0.0215  0.1147  0.2107
 3530W        W 7049   6.847   3.069   8.280 -0.0904  0.2743 -0.1631
 3531W        W 7050   5.139   7.705   0.649  0.0308 -0.3758 -0.0075
 3532W        W 7051   4.499   1.585   2.588 -0.0900 -0.3343  0.0848
 3533W        W 7052   8.970   1.814   0.170  0.0693  0.0403  0.0532
 3534W        W 7053   6.683   2.488   3.259 -0.3709  0.1624  0.1007
 3535W        W 7054   6.732   7.783   2.616  0.0114  0.0521  0.0710
 3536W        W 7055   5.659   6.954  11.274 -0.2169 -0.2267  0.0029
 3537W        W 7056   4.541   1.961   7.849 -0.3439  0.2947 -0.0981
 3538W        W 7057   2.002   3.694  12.195  0.1063 -0.3994 -0.0744
 3539W        W 7058   3.606   1.770   0.715  0.0310  0.1879 -0.4529
 3540W        W 7059   0.785   8.856   9.059 -0.1727  0.1005  0.2180
 3541W        W 7060   7.632   6.521   2.261 -0.0332 -0.1929 -0.4713
 3542W        W 7061   0.969   9.091   9.904  0.0349  0.0504  0.3472
 3543W        W 7062   7.390   0.903  10.408  0.1147  0.2309 -0.1287
 3544W        W 7063   3.796   5.983   2.559 -0.0163 -0.1564 -0.0769
 3545W        W 7064   0.361   0.375   8.570 -0.1066 -0.1423 -0.0491
 3546W        W 7065   7.648   4.900   7.373  0.0117 -0.2164 -0.1041
 3547W        W 7066   6.830   3.141  10.784 -0.0592 -0.1381 -0.0629
 3548W        W 7067   0.463   3.076  12.499  0.2786  0.1202 -0.0827
 3549W        W 7068   2.463   5.401   0.526 -0.0893  0.2080 -0.1112
 3550W        W 7069   7.265   0.522  12.113 -0.2532  0.0655  0.3024
 3551W        W 7070   6.655   4.415  11.019  0.0878  0.1080  0.2365
 3552W        W 7071   8.418   3.987   9.711 -0.0232  0.2694 -0.2807
 3553W        W 7072   8.781   1.653   1.516  0.1610 -0.1218 -0.2395
 3554W        W 7073   9.647   6.655   3.009 -0.2222  0.1092  0.4025
 3555W        W 7074   2.740   0.719   1.976  0.1673 -0.0439  0.0198
 3556W        W 7075   3.248   6.716   2.653 -0.0140  0.0932  0.1917
 3557W        W 7076   0.539   3.977   8.159  0.1738 -0.0159 -0.0043
 3558W        W 7077   0.309   5.386  11.637  0.1010 -0.3718  0.0188
 3559W        W 7078   3.478   3.123  10.973  0.0431  0.0825 -0.0762
 3560W        W 7079   1.766   7.549   0.324  0.0105  0.1724 -0.0826
 3561W        W 7080   9.091   2.195   9.315 -0.3546  0.1102 -0.0363
 3562W        W 7081   3.126   4.713   2.052  0.1836  0.0678 -0.1041
 3563W        W 7082   5.099   0.545   8.796 -0.1351  0.1336  0.2699
 3564W        W 7083   6.472   8.546   1.142  0.0710  0.0651 -0.2484
 3565W        W 7084   5.414   3.845   9.664  0.0735  0.5971 -0.0099
 3566W        W 7085   8.962   6.407   1.902  0.3026  0.1052 -0.1477
 3567W        W 7086   5.198   1.003   2.676 -0.0453 -0.0061 -0.1115
 3568W        W 7087   0.361   3.404   2.602 -0.0219  0.1476 -0.0638
 3569W        W 7088   1.490   8.302   9.600  0.2644  0.1391  0.0545
 3570W        W 7089   8.703   0.681  10.450  0.2413 -0.0455 -0.0445
 3571W        W 7090   6.594   4.113   0.853  0.0209 -0.1977 -0.2222
 3572W        W 7091   8.368   9.522   1.897 -0.0587 -0.1214  0.0819
 3573W        W 7092   6.828   2.354   8.669  0.1182 -0.0115  0.0044
 3574W        W 7093   2.553   1.851   4.230 -0.2248  0.1440 -0.0370
 3575W        W 7094   5.601   2.668  12.124 -0.0509 -0.0225  0.1517
 3576W        W 7095   0.638   3.477   4.517 -0.2094  0.4117 -0.3793
 3577W        W 7096   1.128   5.037  11.440  0.0506  0.1344 -0.1496
 3578W        W 7097   2.744   8.507   0.269  0.1028  0.3273  0.0035
 3579W        W 7098   2.968   7.057  10.998  0.2851 -0.2762 -0.2965
 3580W        W 7099   8.844   2.358   2.111  0.1788  0.1719  0.1185
 3581W        W 7100   4.836   1.355   0.643 -0.1156 -0.2266 -0.0517
 3582W        W 7101   8.515   8.525  11.439  0.0831  0.0081 -0.0195
 3583W        W 7102   3.551   6.222   9.053  0.2306  0.1723 -0.1529
 3584W        W 7103   3.000   9.541   8.233  0.1012  0.0157 -0.2161
 3585W        W 7104   9.584   2.298   3.503  0.3087 -0.0819 -0.1225
 3586W        W 7105   8.998   0.408   1.399  0.4921  0.1499  0.0046
 3587W        W 7106   7.981   7.184   8.521  0.1958 -0.0311  0.0063
 3588W        W 7107   2.177   6.246   1.722 -0.0321  0.0322 -0.1310
 3589W        W 7108   0.230   5.556   1.874  0.1812 -0.0471 -0.0720
 3590W        W 7109   7.782   2.108   3.613  0.0071 -0.1789  0.3011
 3591W        W 7110   8.544   4.914   8.446 -0.2187 -0.0208 -0.0331
 3592W        W 7111   6.125   7.276   2.318  0.1450 -0.1335 -0.1471
 3593W        W 7112   6.931   6.103  11.759 -0.0079  0.2297 -0.1340
 3594W        W 7113   7.709   9.515   9.944  0.0118 -0.3945 -0.0822
 3595W        W 7114   3.072   3.448  10.762  0.1331  0.1833 -0.1635
 3596W        W 7115   0.861   0.324  12.144  0.0449 -0.1299  0.1267
 3597W        W 7116   8.854   9.516   3.825  0.1361 -0.0373  0.0661
 3598W        W 7117   0.420   7.538   9.812 -0.1795 -0.2905  0.0911
 3599W        W 7118   7.709   1.126   8.742 -0.1506 -0.1427  0.2242
 3600W        W 7119   6.742   2.372   0.638 -0.1468  0.0262  0.2183
 3601W        W 7120   0.143   6.889  10.990  0.2664  0.0825 -0.0736
 3602W        W 7121   8.638   0.236   1.868  0.3102  0.0885 -0.0308
 3603W        W 7122   3.171   8.859   8.861 -0.1485 -0.0777 -0.0352
 3604W        W 7123   8.733   8.028   0.945  0.0735 -0.0683 -0.2043
 3605W        W 7124   3.350   5.090   1.016  0.1006 -0.0976 -0.0607
 3606W        W 7125   5.311   4.800  11.742  0.1051 -0.0195  0.1897
 3607W        W 7126   1.113   0.973   2.336  0.1411 -0.1645 -0.1985
 3608W        W 7127   4.328   4.100   2.888 -0.0204 -0.0119  0.1179
 3609W        W 7128   3.297   7.820   2.087  0.2806  0.1962 -0.1063
 3610W        W 7129   6.706   2.417   2.256 -0.1561 -0.0685 -0.0930
 3611W        W 7130   8.547   2.596   2.978 -0.0946 -0.2261 -0.0221
 3612W        W 7131   9.558   3.341  10.550 -0.0602 -0.0693 -0.3159
 3613W        W 7132   8.019   7.268   3.887 -0.0442 -0.1040  0.1087
 3614W        W 7133   7.549   6.194   2.758  0.0341  0.2066 -0.0436
 3615W        W 7134   1.534   4.321   4.492 -0.0462  0.0814  0.1059
 3616W        W 7135   5.092   1.384  11.032  0.1116 -0.0054 -0.0935
 3617W        W 7136   9.183   9.255   3.443  0.1266 -0.2305 -0.0239
 3618W        W 7137   4.439   2.189  10.844 -0.2407  0.3187  0.1933
 3619W        W 7138   3.544   6.199   3.525 -0.0162 -0.1578  0.1139
 3620W        W 7139   9.397   0.465  11.565 -0.0310  0.2511 -0.0797
 3621W        W 7140   3.808   8.157   1.008 -0.0044 -0.0558  0.0983
 3622W        W 7141   5.179   6.987  11.277 -0.1105 -0.1164  0.2657
 3623W        W 7142   4.107   3.373   0.880 -0.0869  0.0394 -0.1425
 3624W        W 7143   2.144   5.757  11.559 -0.0379 -0.1690  0.3389
 3625W        W 7144   8.862   7.902  11.771  0.0992 -0.0720  0.2966
 3626W        W 7145   6.800   1.658   8.891  0.4377  0.0766  0.1155
 3627W        W 7146   9.044   5.867   0.735 -0.0792  0.1851  0.2070
 3628W        W 7147   7.654   2.206  12.082  0.2850  0.1196  0.2809
 3629W        W 7148   3.069   9.197   4.041  0.1699 -0.1266  0.0191
 3630W        W 7149   7.898   6.939   2.439 -0.0819  0.0858  0.2169
 3631W        W 7150   3.008   4.077   1.707 -0.2363 -0.1294  0.0561
 3632W        W 7151   3.103   9.246   2.381  0.1083  0.0032 -0.1010
 3633W        W 7152   4.426   1.013   3.242 -0.1759  0.4419 -0.0142
 3634W        W 7153   3.213   3.234   7.860  0.4717 -0.0484 -0.3591
 3635W        W 7154   9.157   0.599   8.768  0.0870  0.0674  0.3372
 3636W        W 7155   8.061   1.294  12.432  0.2542 -0.0539  0.1772
 3637W        W 7156   5.637   1.168   2.350  0.0361  0.0131 -0.1565
 3638W        W 7157   3.753   8.403   2.807  0.1802 -0.2582 -0.2157
 3639W        W 7158   1.157   0.727  12.063 -0.1400  0.0377 -0.0662
 3640W        W 7159   2.634   5.774  10.813  0.0619 -0.0847 -0.1635
 3641W        W 7160   9.565   4.916   1.118 -0.0313  0.1530  0.1899
 3642W        W 7161   3.733   7.192  11.684  0.2176 -0.1263 -0.0315
 3643W        W 7162   9.520   5.305   9.831 -0.2901  0.1291  0.1446
 3644W        W 7163   6.409   4.287   8.648  0.0087 -0.2150  0.0609
 3645W        W 7164   3.315   5.079  12.229  0.3792 -0.1951  0.2439
 3646W        W 7165   2.868   3.646   0.686 -0.1499  0.0790 -0.2762
 3647W        W 7166   2.532   7.080  11.269  0.2078  0.2553 -0.4314
 3648W        W 7167   1.367   5.193  11.891 -0.0910 -0.2087  0.1540
 3649W        W 7168   6.597   8.951   2.066  0.1234 -0.0689  0.0408
 3650W        W 7169   4.160   3.655  10.746 -0.0506  0.2582  0.0509
 3651W        W 7170   3.836   1.244   3.156 -0.1278  0.1706  0.1073
 3652W        W 7171   2.427   5.592  11.197  0.0557  0.1107 -0.1263
 3653W        W 7172   0.100   9.687   1.415 -0.0066  0.3312  0.1147
 3654W        W 7173   4.022   8.198   9.768 -0.2373 -0.2553 -0.0554
 3655W        W 7174   1.583   7.561   8.869  0.0558  0.3153 -0.1580
 3656W        W 7175   5.912   9.295  11.634  0.4498  0.1519 -0.0807
 3657W        W 7176   6.610   7.287   1.210 -0.4481 -0.4421 -0.1112
 3658W        W 7177   5.715   0.131   3.562  0.1563  0.1409 -0.1736
 3659W        W 7178   2.330   4.177  11.663 -0.0893  0.0290  0.1223
 3660W        W 7179   2.421   4.906   8.069  0.2737  0.0476  0.3609
 3661W        W 7180   7.832   6.849   8.948 -0.0273 -0.1529 -0.2420
 3662W        W 7181   6.972   3.727   2.999  0.0978  0.1707  0.4940
 3663W        W 7182   8.665   0.525   8.695  0.0726  0.0090 -0.2526
 3664W        W 7183   4.906   0.569   0.909  0.0729  0.0710  0.2020
 3665W        W 7184   0.671   6.733  11.923 -0.0896  0.3816  0.0980
 3666W        W 7185   4.091   9.342   1.336 -0.0855  0.0536 -0.0488
 3667W        W 7186   6.156   9.105   2.284  0.3036 -0.0151  0.0313
 3668W        W 7187   6.456   0.871   3.578  0.0966 -0.3780  0.2310
 3669W        W 7188   3.529   2.133   3.341  0.1230  0.1229 -0.0559
 3670W        W 7189   3.126   9.029  12.094 -0.3562 -0.1202  0.3211
 3671W        W 7190   8.276   0.195   9.114 -0.2144  0.3152  0.1165
 3672W        W 7191   3.903   7.757   9.588 -0.0543 -0.0564 -0.0083
 3673W        W 7192   1.615   5.164   9.428 -0.0731 -0.2602  0.0865
 3674W        W 7193   0.841   8.075   4.272 -0.0881 -0.1439  0.3062
 3675W        W 7194   0.014   3.619   1.756  0.1709  0.0215  0.2761
 3676W        W 7195   7.538   3.746   8.652  0.2955  0.4073  0.1213
 3677W        W 7196   4.616   2.842   8.490  0.1982 -0.1537 -0.2086
 3678W        W 7197   0.100   7.221   8.770 -0.0065  0.1680 -0.0695
 3679W        W 7198   1.849   1.757   8.500 -0.0804 -0.0051 -0.2337
 3680W        W 7199   8.094   0.262   3.417 -0.0220  0.0488  0.0881
 3681W        W 7200   8.210   4.685  12.205  0.1086 -0.3442 -0.1301
 3682W        W 7201   2.459   3.240   1.438 -0.0212  0.1722 -0.2309
 3683W        W 7202   3.707   6.680   9.141 -0.1816  0.1615 -0.1626
 3684W        W 7203   3.483   8.264   3.741 -0.0231 -0.0390 -0.3037
 3685W        W 7204   3.104   6.779   9.696  0.0985  0.1689 -0.1568
 3686W        W 7205   7.835   9.407   1.934 -0.0252 -0.1121  0.0482
 3687W        W 7206   9.346   8.506   9.129  0.3526 -0.1820 -0.0342
 3688W        W 7207   6.106   1.801   0.962 -0.1998 -0.3839  0.0913
 3689W        W 7208   3.987   7.517  12.418  0.0367 -0.1077  0.0826
 3690W        W 7209   7.120   1.880  10.443  0.3041 -0.1383 -0.1414
 3691W        W 7210   3.978   6.629  11.779  0.2175  0.0615  0.3617
 3692W        W 7211   6.987   0.258   1.735  0.1601 -0.1346 -0.3317
 3693W        W 7212   2.648   9.376   9.605  0.0997 -0.1325 -0.0930
 3694W        W 7213   4.521   0.295   3.888  0.2152  0.1485  0.2329
 3695W        W 7214   0.799   8.203   1.468 -0.1926  0.0803  0.0276
 3696W        W 7215   2.850   1.199  11.176 -0.0241  0.1878 -0.1197
 3697W        W 7216   6.453   0.468  11.556  0.2853  0.1068 -0.1389
 3698W        W 7217   6.127   6.951  11.227  0.2086  0.3152 -0.0534
 3699W        W 7218   2.092   5.352   0.847 -0.0366 -0.0841 -0.0042
 3700W        W 7219   5.117   2.867  12.074  0.1328  0.1658  0.0931
 3701W        W 7220   1.574   0.319   4.093  0.0762 -0.4463 -0.0056
 3702W        W 7221   0.008   7.879  11.281  0.0094  0.1425  0.0741
 3703W        W 7222   8.284   6.556   8.024  0.3130 -0.1652  0.0011
 3704W        W 7223   2.728   2.265  11.832 -0.0799 -0.2524 -0.1825
 3705W        W 7224   2.255   1.728   3.707 -0.0380  0.0794 -0.1523
 3706W        W 7225   1.283   3.262   0.441  0.0217 -0.4849  0.3106
 3707W        W 7226   9.670   1.498  12.374 -0.2460 -0.0026 -0.0138
 3708W        W 7227   7.355   9.163   0.895  0.0583 -0.2304 -0.0161
 3709W        W 7228   5.670   5.586   0.562  0.2600  0.2813  0.1869
 3710W        W 7229   5.921   2.261  11.895  0.3164  0.2883  0.0225
 3711W        W 7230   1.421   7.180   3.585  0.1451  0.2316  0.0698
 3712W        W 7231   1.118   3.281   8.679 -0.0458  0.0392  0.2577
 3713W        W 7232   4.672   8.223  11.108  0.1486 -0.1492  0.3088
 3714W        W 7233   1.899   4.394   9.689  0.2163  0.2040 -0.0744
 3715W        W 7234   9.289   8.504   0.292 -0.1728  0.0913 -0.0827
 3716W        W 7235   8.258   3.664   1.706 -0.1032  0.1435  0.1060
 3717W        W 7236   0.250   6.576   9.595 -0.2972  0.2588  0.0489
 3718W        W 7237   6.279   7.390   0.689 -0.0412 -0.1526 -0.1138
 3719W        W 7238   7.352   1.099   2.194  0.4372  0.0030  0.0749
 3720W        W 7239   0.197   0.119   3.645  0.2509 -0.0106  0.0598
 3721W        W 7240   3.680   1.824   2.114  0.2298  0.1033  0.1089
 3722W        W 7241   5.259   3.040   2.997 -0.1728 -0.2417 -0.3140
 3723W        W 7242   6.255   0.537   8.193 -0.1096  0.0822  0.1421
 3724W        W 7243   7.373   9.315  11.070 -0.1732 -0.1426 -0.0523
 3725W        W 7244   2.447   4.318  10.406  0.2064  0.0013  0.3749
 3726W        W 7245   1.083   6.277   1.358 -0.2281  0.3114 -0.2234
 3727W        W 7246   5.676   1.682   8.866 -0.1496 -0.3180  0.2457
 3728W        W 7247   3.331   4.827   1.580  0.0351  0.6531 -0.5942
 3729W        W 7248   8.981   0.585  11.848 -0.0631  0.0687 -0.0934
 3730W        W 7249   4.010   2.297   2.673  0.1109  0.2385 -0.0350
 3731W        W 7250   6.356   1.960   9.389 -0.0414 -0.4481 -0.1255
 3732W        W 7251   7.867   4.506   8.957 -0.0551 -0.2046 -0.0095
 3733W        W 7252   2.604   9.709   2.813  0.2656  0.2627  0.0937
 3734W        W 7253   3.078   4.600   1.004 -0.0760  0.1663  0.2057
 3735W        W 7254   1.167   5.869  10.436  0.1888  0.4121  0.0588
 3736W        W 7255   1.826   4.110   1.523  0.3558 -0.1891  0.2147
 3737W        W 7256   0.219   4.705   2.528  0.0768  0.2894 -0.0950
 3738W        W 7257   7.140   6.121   1.543 -0.1362 -0.0878 -0.0237
 3739W        W 7258   1.978   3.929  11.396 -0.0224 -0.0369 -0.0843
 3740W        W 7259   6.109   0.725   9.508 -0.1705  0.1542  0.1344
 3741W        W 7260   7.082   3.030   9.622 -0.2343  0.1544  0.0539
 3742W        W 7261   9.292   8.465   8.542 -0.1020  0.0690 -0.0114
 3743W        W 7262   3.676   0.406   0.494  0.0637  0.0235  0.1573
 3744W        W 7263   5.418   8.861  12.359 -0.1263 -0.3737 -0.1185
 3745W        W 7264   2.116   2.099   1.084 -0.1618 -0.1639  0.1415
 3746W        W 7265   1.303   0.159   9.368  0.0103 -0.0317  0.2404
 3747W        W 7266   1.677   6.218  11.549 -0.2009  0.0506  0.0688
 3748W        W 7267   0.922   2.004  10.507  0.0438 -0.0085  0.1869
 3749W        W 7268   2.633   6.871   9.135  0.0354 -0.1527 -0.0306
 3750W        W 7269   4.777   1.588   1.102  0.0018 -0.0519 -0.0620
 3751W        W 7270   5.418   8.373  12.507  0.0675 -0.0292 -0.2114
 3752W        W 7271   5.758   5.676  10.850 -0.0772 -0.0559  0.1145
 3753W        W 7272   2.209   7.390   8.939  0.1742 -0.0528  0.0881
 3754W        W 7273   5.275   8.633   2.917 -0.0765  0.0097  0.0644
 3755W        W 7274   5.069   7.892   9.642 -0.0788 -0.1924  0.1440
 3756W        W 7275   4.778   0.287   3.068  0.0428 -0.0072  0.3780
 3757W        W 7276   5.215   3.421  12.078  0.0897 -0.1193  0.3253
 3758W        W 7277   2.974   1.480   0.908 -0.0523  0.2496 -0.1915
 3759W        W 7278   8.738   7.798   0.457  0.1677 -0.1262  0.2985
 3760W        W 7279   2.022   3.295   2.516 -0.1429 -0.0093 -0.1463
 3761W        W 7280   3.677   2.209  12.303 -0.0112 -0.0469 -0.1135
 3762W        W 7281   2.236   2.415   1.857 -0.2487 -0.1379  0.0512
 3763W        W 7282   1.161   1.258  11.094  0.0430 -0.5270  0.1996
 3764W        W 7283   7.707   2.892   0.217  0.0092  0.0410  0.0609
 3765W        W 7284   7.458   7.176   0.233 -0.0482  0.1692 -0.1328
 3766W        W 7285   1.433   2.454   9.653  0.0051  0.3520  0.1470
 3767W        W 7286   6.666   6.963  11.280 -0.0980 -0.1442 -0.2044
 3768W        W 7287   1.842   3.956   1.065  0.2079  0.0139  0.1561
 3769W        W 7288   1.264   1.078   4.669 -0.1911 -0.5328 -0.0905
 3770W        W 7289   3.442   9.547   9.824  0.0884  0.3233 -0.0094
 3771W        W 7290   8.859   2.808  12.252 -0.2841 -0.0770  0.2146
 3772W        W 7291   2.452   5.646   8.993  0.0059 -0.1260  0.0861
 3773W        W 7292   6.147   0.598  11.179 -0.0985  0.3192 -0.0844
 3774W        W 7293   7.712   6.173   3.812  0.0841  0.1068 -0.0019
 3775W        W 7294   3.388   0.404   0.899  0.0554  0.2381  0.0350
 3776W        W 7295   0.349   9.400  10.652  0.2415 -0.2039 -0.0435
 3777W        W 7296   4.062   0.714   8.892 -0.0841  0.2158 -0.1623
 3778W        W 7297   3.864   3.774   1.177  0.0575 -0.2605 -0.4266
 3779W        W 7298   0.428   1.490  11.959  0.1245  0.2400 -0.1082
 3780W        W 7299   1.616   0.987   9.701  0.0748  0.1876  0.2930
 3781W        W 7300   3.684   5.877  10.553  0.0144  0.2138 -0.1448
 3782W        W 7301   5.493   8.982   1.669 -0.0327  0.2790 -0.1074
 3783W        W 7302   8.599   2.340   9.180  0.2101 -0.2803  0.1034
 3784W        W 7303   1.658   5.697   2.984 -0.0239  0.1814  0.1709
 3785W        W 7304   4.959   3.869  11.749  0.0427 -0.0115 -0.0848
 3786W        W 7305   5.538   1.647   2.969 -0.2343  0.2207  0.0184
 3787W        W 7306   9.434   5.381  12.280 -0.1040  0.0114 -0.0978
 3788W        W 7307   2.695   6.645   0.504  0.0493  0.2824 -0.3922
 3789W        W 7308   8.408   3.771   2.166 -0.0360 -0.0251  0.2082
 3790W        W 7309   6.137   0.564   2.780  0.0429 -0.0077  0.0109
 3791W        W 7310   8.056   9.050   3.550 -0.0558 -0.2091  0.1422
 3792W        W 7311   9.335   1.847  11.289  0.0884  0.1602 -0.0005
 3793W        W 7312   6.414   0.995  11.281 -0.0422  0.1906  0.2934
 3794W        W 7313   9.319   3.808   0.751 -0.2918 -0.0901 -0.1521
 3795W        W 7314   4.350   9.326   2.935 -0.0659  0.0024  0.1562
 3796W        W 7315   3.181   3.430  10.185 -0.1638  0.3509  0.3612
 3797W        W 7316   8.680   7.346   9.314  0.0425 -0.0140 -0.0955
 3798W        W 7317   7.635   1.756   8.625  0.2804 -0.2671  0.0025
 3799W        W 7318   0.083   8.613  11.465  0.0310 -0.0120 -0.0962
 3800W        W 7319   5.217   3.538  10.056 -0.1746 -0.0446 -0.2473
 3801W        W 7320   1.141   8.609  11.695 -0.1010 -0.2558  0.4318
 3802W        W 7321   3.874   8.978   1.106  0.1672 -0.1416 -0.1096
 3803W        W 7322   2.485   2.585   1.269  0.2209  0.0335  0.1391
 3804W        W 7323   9.635   9.311   0.523  0.1470  0.3913 -0.3204
 3805W        W 7324   1.602   7.575   0.815 -0.0019  0.0148 -0.0084
 3806W        W 7325   0.527   6.472   8.674 -0.3785 -0.1636 -0.2380
 3807W        W 7326   5.392   9.303   9.130 -0.4730  0.1854 -0.2893
 3808W        W 7327   3.205   3.799   0.967  0.0084 -0.1299 -0.4652
 3809W        W 7328   7.992   5.311   3.327  0.1597 -0.4753 -0.1768
 3810W        W 7329   4.947   4.779   3.061 -0.2305  0.0832  0.3637
 3811W        W 7330   6.253   2.557   3.879  0.3467 -0.4019 -0.1140
 3812W        W 7331   1.234   0.341   3.397  0.5207  0.1172 -0.0843
 3813W        W 7332   0.689   5.943   1.585 -0.1067 -0.2311 -0.2789
 3814W        W 7333   1.307   2.037  12.043 -0.3618 -0.2682 -0.1783
 3815W        W 7334   5.754   9.011   9.924 -0.0300 -0.0434 -0.0537
 3816W        W 7335   1.252   1.275   3.129  0.3334 -0.0486  0.2428
 3817W        W 7336   0.128   7.788   9.449  0.3373 -0.1061  0.0939
 3818W        W 7337   4.055   3.330   1.338  0.0012  0.0543 -0.0579
 3819W        W 7338   6.247   8.899  11.512 -0.0968 -0.3703  0.0609
 3820W        W 7339   2.918   4.384  10.698 -0.0232  0.1005  0.0535
 3821W        W 7340   4.475   8.094   2.184 -0.0722  0.0277 -0.3527
 3822W        W 7341   7.030   2.111   1.505  0.1831  0.0320 -0.2470
 3823W        W 7342   3.949   6.431   2.846 -0.2055  0.2005  0.4634
 3824W        W 7343   0.686   1.107  11.052 -0.2185 -0.1549  0.0867
 3825W        W 7344   1.044   4.830   0.695 -0.1491 -0.0177 -0.4489
 3826W        W 7345   8.270   3.752  11.431 -0.0500  0.1039 -0.3441
 3827W        W 7346   2.524   9.349   0.112 -0.0442  0.0224 -0.0199
 3828W        W 7347   3.404   4.304   3.969  0.1020  0.1588 -0.0301
 3829W        W 7348   2.665   4.292   3.874 -0.0165 -0.1330 -0.0367
 3830W        W 7349   7.456   1.707  12.228 -0.0241 -0.2851 -0.0961
 3831W        W 7350   4.185   9.665   0.504 -0.0067  0.0138  0.1107
 3832W        W 7351   9.604   1.285  11.948  0.0664  0.0448  0.1436
 3833W        W 7352   3.285   3.450   9.260  0.2977  0.1936  0.0435
 3834W        W 7353   7.222   9.237   2.625  0.0855 -0.3572 -0.2375
 3835W        W 7354   2.311   5.473   2.896  0.1087  0.1560 -0.0325
 3836W        W 7355   7.398   1.125   9.933  0.1104  0.1733 -0.1464
 3837W        W 7356   0.533   1.354   9.783 -0.1950 -0.2878 -0.1134
 3838W        W 7357   1.261   4.964  10.497  0.2992  0.1627  0.0651
 3839W        W 7358   0.997   1.728   9.523 -0.1625 -0.1800  0.0968
 3840W        W 7359   5.422   4.010   8.858 -0.0479  0.0175  0.1367
 3841W        W 7360   5.289   7.859  10.062 -0.1266 -0.0371 -0.0882
 3842W        W 7361   5.680   4.426   4.341 -0.1140  0.0955 -0.2611
 3843W        W 7362   8.661   2.487   8.244 -0.1922  0.0370 -0.0244
 3844W        W 7363   0.659   1.808   2.670  0.0690 -0.3269 -0.1952
 3845W        W 7364   0.535   0.517   0.667 -0.1117 -0.3368 -0.1797
 3846W        W 7365   2.453   8.081   2.031  0.0687 -0.1389 -0.2374
 3847W        W 7366   5.608   4.908   1.295 -0.0578  0.2400 -0.0684
 3848W        W 7367   9.397   4.347   9.037 -0.2712  0.0065 -0.1367
 3849W        W 7368   9.551   6.107   1.507  0.0790  0.0283  0.0617
 3850W        W 7369   1.468   3.950   3.039  0.3410 -0.1550 -0.1044
 3851W        W 7370   1.693   7.509  11.044  0.0520 -0.2230  0.3257
 3852W        W 7371   7.981   4.919   7.757 -0.1385 -0.0717 -0.1830
 3853W        W 7372   3.544   7.280   0.154  0.2384 -0.0542 -0.5631
 3854W        W 7373   7.270   6.266   2.040  0.0561 -0.0300 -0.0011
 3855W        W 7374   7.980   3.767   8.862 -0.1462 -0.1144 -0.1689
 3856W        W 7375   3.822   3.139  11.570 -0.2549  0.0983  0.3088
 3857W        W 7376   8.521   3.334   0.957  0.1678  0.0451 -0.4207
 3858W        W 7377   4.063   5.241   0.040 -0.1868 -0.0030  0.1698
 3859W        W 7378   8.415   5.258  11.390 -0.1190  0.1440 -0.3431
 3860W        W 7379   6.220   2.683  11.891 -0.1019 -0.0176 -0.0299
 3861W        W 7380   4.804   4.343   9.685  0.1751  0.0237 -0.0907
 3862W        W 7381   4.159   8.520   2.007 -0.1254  0.1617 -0.3823
 3863W        W 7382   9.588   5.332   9.349  0.0266 -0.1256  0.2479
 3864W        W 7383   9.362   7.730   1.577 -0.0552 -0.3008  0.1731
 3865W        W 7384   3.617   0.477   9.144 -0.3567  0.2406 -0.0018
 3866W        W 7385   1.756   3.540   0.176 -0.4075 -0.0730  0.3821
 3867W        W 7386   8.202   9.198   2.253  0.0595 -0.0758  0.3155
 3868W        W 7387   5.812   9.168   3.825 -0.2055  0.2878 -0.0912
 3869W        W 7388   2.119   8.365   1.268  0.5082 -0.4167 -0.3229
 3870W        W 7389   0.641   9.147   3.346  0.1105  0.1167 -0.3025
 3871W        W 7390   4.600   5.482   2.086  0.0558  0.1092 -0.0782
 3872W        W 7391   9.328   3.340   0.571 -0.1277  0.2687  0.0689
 3873W        W 7392   1.677   2.415   4.494 -0.1598 -0.0358 -0.2538
 3874W        W 7393   8.741   8.369   0.498 -0.2472 -0.2878  0.0616
 3875W        W 7394   3.552   2.914   9.419  0.2346  0.1394 -0.2431
 3876W        W 7395   3.152   1.433  11.935 -0.0771 -0.2115 -0.2836
 3877W        W 7396   8.390   6.996   8.961 -0.0941  0.1102  0.0791
 3878W        W 7397   2.127   3.429  11.317  0.0927  0.0536 -0.2468
 3879W        W 7398   6.256   9.657   0.317 -0.1013 -0.2492 -0.2203
 3880W        W 7399   3.981   8.142   2.357  0.0521  0.1122 -0.2253
 3881W        W 7400   4.909   8.753   2.591 -0.2806 -0.0066 -0.1191
 3882W        W 7401   2.406   4.644   1.554  0.3030  0.0492  0.1166
 3883W        W 7402   5.755   1.992   0.653 -0.0352 -0.0628 -0.1275
 3884W        W 7403   0.392   7.200  10.675 -0.2143  0.1431 -0.3277
 3885W        W 7404   7.515   4.365  11.829 -0.1543 -0.0120 -0.2644
 3886W        W 7405   4.916   1.696  11.814  0.0502 -0.2294 -0.2224
 3887W        W 7406   2.516   6.816  10.446  0.0148 -0.1470 -0.3010
 3888W        W 7407   3.075   3.501   2.515 -0.2238 -0.1839  0.0535
 3889W        W 7408   5.966   0.771   8.913 -0.2924 -0.2676  0.1220
 3890W        W 7409   5.359   4.896  10.168 -0.1577 -0.0969  0.1030
 3891W        W 7410   4.985   6.579  10.396 -0.0487  0.3990  0.2508
 3892W        W 7411   3.034   1.587  12.492  0.0056  0.0021 -0.2867
 3893W        W 7412   9.526   9.558   3.975 -0.1201 -0.0158 -0.1543
 3894W        W 7413   5.373   1.019  12.229 -0.1654  0.2008  0.0785
 3895W        W 7414   8.643   9.554   9.293  0.2040  0.3678 -0.2298
 3896W        W 7415   5.302   4.450   9.738 -0.2345  0.0951 -0.0532
 3897W        W 7416   0.702   6.225   0.050 -0.0356 -0.1425  0.1016
 3898W        W 7417   8.533   2.875  10.494  0.0778 -0.0109  0.0027
 3899W        W 7418   0.098   9.327   7.677 -0.1146  0.1718  0.0567
 3900W        W 7419   7.646   8.783  11.532 -0.2123 -0.0549 -0.1680
 3901W        W 7420   7.214   9.521  10.564  0.3896  0.5034 -0.0346
 3902W        W 7421   7.834   5.868   7.947 -0.3598  0.1423 -0.1227
 3903W        W 7422   7.681   2.306   9.713  0.2176  0.1785  0.1732
 3904W        W 7423   6.351   2.264   8.009 -0.0685  0.1308  0.2228
 3905W        W 7424   5.808   7.266   3.317  0.0622 -0.0287  0.1542
 3906W        W 7425   4.259   3.570   9.020  0.0923  0.0421 -0.0961
 3907W        W 7426   1.198   4.615   8.666  0.2950 -0.1092  0.0337
 3908W        W 7427   6.872   6.750   9.253 -0.0895 -0.1272  0.1936
 3909W        W 7428   8.785   8.539   2.770 -0.0702  0.0836 -0.0629
 3910W        W 7429   3.818   5.691  11.407  0.0469 -0.1279  0.0316
 3911W        W 7430   9.264   8.089   9.952  0.1077  0.3078 -0.0118
 3912W        W 7431   0.269   8.591   4.147  0.0549  0.1363 -0.1376
 3913W        W 7432   1.063   8.371   3.793  0.1781 -0.0797  0.3653
 3914W        W 7433   9.599   0.284   3.262  0.2809  0.3086 -0.2437
 3915W        W 7434   0.548   1.815   3.856  0.1779  0.0401 -0.3070
 3916W        W 7435   5.392   4.385  10.232 -0.0046 -0.0705 -0.1864
 3917W        W 7436   8.247   1.319   1.153 -0.0700 -0.3914 -0.0816
 3918W        W 7437   6.872   8.985   9.445  0.0256  0.0876  0.1888
 3919W        W 7438   1.735   8.719   1.120  0.0463 -0.1209  0.0015
 3920W        W 7439   1.606   8.134   3.075 -0.0492  0.0031 -0.2442
 3921W        W 7440   8.349   0.581  10.843 -0.2430 -0.1670 -0.0353
 3922W        W 7441   3.686   3.652   0.774 -0.1206 -0.0461  0.0474
 3923W        W 7442   6.284   9.174   9.767  0.0255  0.1663  0.0289
 3924W        W 7443   5.766   9.022   2.854 -0.0966  0.0728  0.0167
 3925W        W 7444   3.687   2.926   1.468 -0.1663 -0.2408 -0.3101
 3926W        W 7445   4.551   8.124   8.745  0.0577  0.0672 -0.1422
 3927W        W 7446   0.673   2.757   1.013  0.0232  0.4454 -0.2008
 3928W        W 7447   0.634   1.294   0.380  0.0681  0.0048  0.1594
 3929W        W 7448   7.128   9.538   0.447  0.1936 -0.2517  0.0097
 3930W        W 7449   2.156   4.892   2.015  0.2250 -0.0445 -0.1410
 3931W        W 7450   0.486   1.560  10.473  0.0572 -0.1912 -0.1443
 3932W        W 7451   8.526   1.098   2.435 -0.0949 -0.0610 -0.0074
 3933W        W 7452   0.437   5.626  11.218  0.4086  0.0771  0.0241
 3934W        W 7453   7.610   8.002   3.432 -0.0848 -0.3269  0.1902
 3935W        W 7454   1.997   3.021   0.008 -0.0427  0.3514  0.1582
 3936W        W 7455   0.543   0.913   2.211 -0.0392 -0.1874  0.1477
 3937W        W 7456   9.276   1.766   2.655  0.3227 -0.2885  0.2085
 3938W        W 7457   2.085   5.342   1.879 -0.0070  0.0128 -0.1649
 3939W        W 7458   2.212   6.935   3.565 -0.0654  0.1462  0.0247
 3940W        W 7459   7.834   1.504  10.707 -0.0460 -0.1097 -0.2113
 3941W        W 7460   7.791   2.899   2.289  0.3625  0.0676 -0.1021
 3942W        W 7461   8.194   9.344   0.377 -0.0903 -0.3320 -0.3443
 3943W        W 7462   5.695   9.173   2.069  0.1215 -0.0623  0.3933
 3944W        W 7463   2.864   0.529  11.369 -0.1537  0.1568  0.0163
 3945W        W 7464   9.689   0.851   0.361  0.0263 -0.3593 -0.0825
 3946W        W 7465   8.018   7.231  11.211  0.0743 -0.1897  0.1411
 3947W        W 7466   5.957   0.829   3.235 -0.2161 -0.4761 -0.0115
 3948W        W 7467   0.304   5.458  12.310  0.2564 -0.3387 -0.2092
 3949W        W 7468   4.305   3.832  11.192  0.0174  0.0224  0.1203
 3950W        W 7469   7.963   7.335   0.200 -0.0116  0.2262  0.3362
 3951W        W 7470   8.986   5.632   8.880 -0.1475  0.0648  0.2013
 3952W        W 7471   4.669   1.641   0.067 -0.4166 -0.1374 -0.0432
 3953W        W 7472   6.751   9.526   3.992  0.0892 -0.3551  0.1913
 3954W        W 7473   2.589   7.015   2.284  0.0859  0.1089  0.1899
 3955W        W 7474   1.712   0.118   2.049  0.1694 -0.1799 -0.0322
 3956W        W 7475   6.149   0.269   3.464 -0.1831  0.0857 -0.2321
 3957W        W 7476   9.546   5.490   2.188 -0.0042  0.3105 -0.3822
 3958W        W 7477   2.084   7.201   2.319 -0.0980 -0.0110 -0.0587
 3959W        W 7478   1.892   5.065   2.472  0.1148  0.2165  0.0464
 3960W        W 7479   7.106   4.201   3.768 -0.0434 -0.0594  0.0407
 3961W        W 7480   7.565   3.545   9.143 -0.2403 -0.2481 -0.1543
 3962W        W 7481   7.361   3.128  10.048  0.1083 -0.1345 -0.0108
 3963W        W 7482   1.193   8.527   1.591  0.2339 -0.1513  0.0852
 3964W        W 7483   5.668   0.003   2.126 -0.1089 -0.0058  0.0991
 3965W        W 7484   8.464   1.298   3.118  0.0559  0.1253 -0.2776
 3966W        W 7485   6.834   9.507  12.081  0.1685 -0.1236  0.2529
 3967W        W 7486   6.859   1.100   8.707 -0.1064  0.4368  0.1246
 3968W        W 7487   8.982   2.817   9.099  0.1635 -0.1041  0.4445
 3969W        W 7488   8.434   2.388   2.554  0.0756  0.1231 -0.1901
 3970W        W 7489   6.582   3.361   9.479 -0.2356  0.0731 -0.1180
 3971W        W 7490   7.934   8.651   9.687 -0.2125 -0.1889  0.1932
 3972W        W 7491   2.705   7.850  12.095 -0.1506 -0.0468 -0.0389
 3973W        W 7492   9.248   5.777   1.185 -0.0802  0.1110  0.0583
 3974W        W 7493   1.485   4.108   3.521  0.0144  0.0419 -0.3471
 3975W        W 7494   7.662   4.166   3.157 -0.1546 -0.3301  0.1713
 3976W        W 7495   5.857   2.485   3.285 -0.1431  0.2121  0.1008
 3977W        W 7496   2.871   3.698   2.034 -0.3411 -0.0936  0.0651
 3978W        W 7497   3.108   3.033  10.536  0.0252  0.1250 -0.0845
 3979W        W 7498   1.903   8.426   9.291  0.0744  0.0761  0.3415
 3980W        W 7499   8.807   7.550   3.664 -0.4390  0.0628  0.1365
 3981W        W 7500   0.900   0.292   3.992  0.0474  0.5511  0.0678
 3982W        W 7501   5.512   0.564  11.947  0.2439 -0.0295 -0.2613
 3983W        W 7502   9.148   3.652  12.228 -0.1802  0.1092  0.1076
 3984W        W 7503   3.705   5.051   9.921 -0.2411  0.0543  0.0853
 3985W        W 7504   5.638   0.075   9.558  0.1851 -0.2006  0.0953
 3986W        W 7505   8.476   8.857   0.505  0.1072  0.0468 -0.3460
 3987W        W 7506   0.901   3.970   3.268  0.0060  0.0065  0.1346
 3988W        W 7507   7.566   8.270   1.119 -0.5056  0.1587  0.2845
 3989W        W 7508   8.615   2.349   0.867  0.1918 -0.0756 -0.2567
 3990W        W 7509   1.890   9.180   2.291 -0.1807  0.2958 -0.0755
 3991W        W 7510   4.812   7.484   9.473  0.0175  0.1734 -0.1013
 3992W        W 7511   4.034   0.165   1.396  0.1643  0.2932 -0.0135
 3993W        W 7512   4.395   0.534   1.042  0.2376 -0.0671 -0.1156
 3994W        W 7513   0.432   2.833  10.694 -0.0835  0.1195  0.3886
 3995W        W 7514   6.232   6.065   1.700  0.0089 -0.1276 -0.3638
 3996W        W 7515   0.877   0.470   2.633 -0.5480 -0.4801 -0.0670
 3997W        W 7516   7.021   5.535   0.985  0.2797 -0.0726 -0.0989
 3998W        W 7517   5.623   0.405  10.276 -0.2930  0.0446 -0.0354
 3999W        W 7518   4.563   3.010   3.584  0.2145 -0.3848  0.0603
 4000W        W 7519   2.712   0.880  10.214 -0.0559  0.2249 -0.1079
 4001W        W 7520   4.575   5.641  10.658 -0.1546 -0.0763 -0.2658
 4002W        W 7521   2.440   4.964   9.598 -0.1100  0.3683 -0.0263
 4003W        W 7522   8.133   2.816   2.716  0.2318  0.3660  0.1841
 4004W        W 7523   0.942   9.215   3.813 -0.2951 -0.0842 -0.0011
 4005W        W 7524   2.202   2.867   1.578  0.0688  0.0438  0.0960
 4006W        W 7525   9.564   5.019   8.573  0.0728  0.0209  0.3133
 4007W        W 7526   2.124   7.947   9.372 -0.0345 -0.2573 -0.0051
 4008W        W 7527   3.026   0.754   2.952  0.0421  0.3379 -0.2805
 4009W        W 7528   7.721   3.911   1.281 -0.2345  0.3979 -0.3699
 4010W        W 7529   3.115   9.232   0.785  0.1243 -0.1782 -0.1680
 4011W        W 7530   1.259   3.178   3.730 -0.3095 -0.0961 -0.0256
 4012W        W 7531   6.897   9.110   0.621 -0.3717 -0.1446  0.0308
 4013W        W 7532   7.943   5.130  11.158  0.1906  0.1509 -0.1167
 4014W        W 7533   6.672   7.774  11.213  0.1847 -0.0394 -0.1011
 4015W        W 7534   7.952   9.646   2.374  0.2662 -0.0432  0.0234
 4016W        W 7535   8.528   4.491   9.370  0.2308 -0.1277  0.1442
 4017W        W 7536   1.424   8.255  10.770  0.2315 -0.4060 -0.1616
 4018W        W 7537   0.755   7.558  11.216 -0.0623 -0.1884 -0.0102
 4019W        W 7538   8.267   6.064  11.492  0.0162  0.1697  0.2830
 4020W        W 7539   1.442   5.520   0.341  0.0220 -0.2376  0.0073
 4021W        W 7540   8.054   7.664   2.926  0.1016 -0.2450 -0.2004
 4022W        W 7541   2.595   1.092   9.099 -0.0514 -0.2588  0.1340
 4023W        W 7542   4.806   6.458   0.013 -0.2306 -0.1110 -0.1104
 4024W        W 7543   0.993   0.631  11.537 -0.0731 -0.0491  0.0133
 4025W        W 7544   1.403   0.762   3.248 -0.1300 -0.1915 -0.0383
 4026W        W 7545   1.409   2.072   2.156  0.1491  0.0353  0.3114
 4027W        W 7546   5.224   5.734  11.486  0.0701 -0.0826  0.3722
 4028W        W 7547   5.609   4.371   3.769  0.2910  0.1010  0.2086
 4029W        W 7548   5.652   7.278  12.448  0.3203 -0.2648 -0.0831
 4030W        W 7549   9.094   4.639   0.836  0.2785 -0.0018 -0.0136
 4031W        W 7550   4.001   5.473  10.282 -0.0658 -0.2490 -0.0563
 4032W        W 7551   0.094   1.927  11.004  0.0321 -0.1744  0.1163
 4033W        W 7552   6.807   0.920  11.712 -0.0771  0.2554  0.2873
 4034W        W 7553   1.585   9.086  10.716 -0.0279 -0.1535  0.0423
 4035W        W 7554   5.601   8.768   9.347 -0.0519 -0.0019 -0.0223
 4036W        W 7555   2.237   8.776   9.042  0.3164 -0.1869 -0.0127
 4037W        W 7556   7.173   4.542  10.842  0.3075  0.1167  0.3880
 4038W        W 7557   6.196   3.132   2.649  0.0493  0.2826 -0.1439
 4039W        W 7558   0.513   5.786   9.911 -0.1739  0.1440 -0.4434
 4040W        W 7559   9.237   8.053   0.722 -0.2240  0.4245  0.1073
 4041W        W 7560   2.848   0.386  10.693 -0.2687  0.2710  0.4975
 4042W        W 7561   1.533   1.531   4.354  0.1588  0.1769  0.0748
 4043W        W 7562   1.168   4.469   3.348 -0.0457  0.2116 -0.0341
 4044W        W 7563   7.552   3.172   0.637  0.0832  0.2531 -0.1390
 4045W        W 7564   5.240   4.083   0.966 -0.2089 -0.0743 -0.1002
 4046W        W 7565   3.226   4.884   3.140  0.0448 -0.0757  0.0325
 4047W        W 7566   1.129   3.139   2.656  0.3107 -0.0954 -0.0681
 4048W        W 7567   8.715   4.003   2.902  0.1360 -0.2641 -0.3092
 4049W        W 7568   4.825   6.027   2.134 -0.0248 -0.1633 -0.1347
 4050W        W 7569   4.164   6.954   9.801 -0.0263  0.3287  0.0179
 4051W        W 7570   1.017   3.911   8.113  0.0126 -0.3201  0.3521
 4052W        W 7571   3.885   4.864  10.946  0.0235 -0.0105 -0.0597
 4053W        W 7572   4.146   2.123   0.014  0.0930 -0.1436  0.3749
 4054W        W 7573   6.992   1.369   0.007  0.2973  0.3214 -0.2235
 4055W        W 7574   5.992   5.258  10.637  0.3680 -0.0086  0.3264
 4056W        W 7575   3.712   3.438   1.832  0.3558  0.2068 -0.0483
 4057W        W 7576   8.191   8.111  11.371 -0.2371  0.1591 -0.2793
 4058W        W 7577   2.372   3.635   2.294 -0.0859  0.3295 -0.1130
 4059W        W 7578   1.255   0.704   3.757  0.0534 -0.1124  0.1030
 4060W        W 7579   5.313   8.867   3.759 -0.1488  0.0142  0.2223
 4061W        W 7580   0.794   2.462  10.833 -0.1951  0.0216  0.2827
 4062W        W 7581   5.407   8.286  10.224 -0.0849 -0.1250 -0.1203
 4063W        W 7582   5.088   9.493   9.505 -0.1589  0.0945  0.2567
 4064W        W 7583   7.110   2.418   9.621 -0.2888  0.1164 -0.0243
 4065W        W 7584   5.962   7.507  12.108  0.2222 -0.3417 -0.0481
 4066W        W 7585   6.295   2.977   8.071  0.0364 -0.2482 -0.1216
 4067W        W 7586   6.541   0.637   9.904  0.0957  0.0903 -0.2306
 4068W        W 7587   8.641   2.761   1.499 -0.5068  0.1285 -0.0158
 4069W        W 7588   3.461   1.107  10.013  0.1536 -0.2985 -0.0555
 4070W        W 7589   0.744   8.535   1.833  0.1922  0.1485 -0.2272
 4071W        W 7590   1.563   5.575  10.803 -0.0586  0.3932  0.0614
 4072W        W 7591   3.343   1.406   0.480  0.0249  0.2595 -0.4339
 4073W        W 7592   1.582   6.529   1.403  0.2785 -0.0375 -0.2071
 4074W        W 7593   5.765   2.541   0.649  0.0109 -0.1030  0.1229
 4075W        W 7594   6.254   6.615  12.119  0.1403 -0.0045  0.3406
 4076W        W 7595   8.898   2.773   3.749  0.0021 -0.1643  0.0025
 4077W        W 7596   7.243   5.214  11.548  0.1552  0.0221  0.0334
 4078W        W 7597   1.443   4.222   9.959 -0.3251  0.0132 -0.0224
 4079W        W 7598   7.781   1.378   0.396 -0.1506 -0.1779  0.1498
 4080W        W 7599   4.780   2.268   1.499 -0.2712 -0.1339 -0.2355
 4081W        W 7600   0.567   8.810  10.017  0.2491 -0.3007 -0.1561
 4082W        W 7601   0.819   3.416   0.783  0.1824  0.1457 -0.0028
 4083W        W 7602   3.143   4.277   9.253 -0.0841 -0.3019 -0.0145
 4084W        W 7603   6.834   5.377   2.080 -0.0634 -0.0919  0.1775
 4085W        W 7604   5.778   5.080  11.051 -0.1565  0.3586  0.0238
 4086W        W 7605   1.812   8.044  12.096 -0.3001 -0.0231  0.0336
 4087W        W 7606   0.584   5.417   1.568  0.2306 -0.0011 -0.1737
 4088W        W 7607   4.167   9.268   2.485  0.0661  0.0249 -0.0297
 4089W        W 7608   8.768   4.757  12.189  0.2468  0.2135  0.1091
 4090W        W 7609   7.393   7.614   3.589 -0.0196  0.3864 -0.1111
 4091W        W 7610   4.200   0.282  11.188  0.1409 -0.0850 -0.1945
 4092W        W 7611   1.068   1.132  11.716 -0.1171  0.1366  0.0774
 4093W        W 7612   4.602   2.115   3.299 -0.1182  0.1297  0.1565
 4094W        W 7613   8.130   5.613  12.296 -0.3024 -0.0892  0.0888
 4095W        W 7614   0.638   1.376  11.491  0.1518 -0.3558 -0.0507
 4096W        W 7615   6.013   4.908   9.415  0.0749 -0.0241  0.1902
 4097W        W 7616   7.298   6.149   8.642  0.2591  0.0481 -0.0925
 4098W        W 7617   9.640   6.538   2.434 -0.0134  0.1899 -0.1921
 4099W        W 7618   1.548   9.300  12.094  0.0400 -0.1035 -0.0711
 4100W        W 7619   2.928   4.771   8.612  0.1862  0.0231 -0.1753
 4101W        W 7620   8.640   2.222  11.363  0.0276  0.0912 -0.3006
 4102W        W 7621   8.834   8.701   0.094 -0.1786  0.0288  0.0484
 4103W        W 7622   8.170   6.329   3.870  0.0271 -0.0633  0.1598
 4104W        W 7623   5.097   2.490   0.950 -0.0529  0.2828 -0.0059
 4105W        W 7624   6.189   0.489   0.502  0.3725  0.1259 -0.1768
 4106W        W 7625   1.778   5.366   9.870 -0.0474 -0.1592  0.1444
 4107W        W 7626   6.972   7.027   0.264  0.0434  0.3399  0.0742
 4108W        W 7627   2.831   0.134   8.957  0.2178 -0.1530  0.0439
 4109W        W 7628   1.082   4.273   9.112  0.1440  0.2247  0.0008
 4110W        W 7629   3.900   2.305   0.383  0.0479 -0.2113  0.1286
 4111W        W 7630   5.420   5.983   1.419  0.1392 -0.0932 -0.0412
 4112W        W 7631   1.308   7.956   8.830 -0.3852  0.1285 -0.2233
 4113W        W 7632   7.266   5.551   1.450 -0.0431 -0.2433  0.3079
 4114W        W 7633   0.206   4.458   1.753  0.0044  0.2127  0.0030
 4115W        W 7634   5.604   0.710   1.397 -0.0625  0.1644  0.0294
 4116W        W 7635   0.845   2.286   9.395 -0.1021  0.0379  0.1713
 4117W        W 7636   6.129   9.592   9.463  0.2686  0.1501 -0.0000
 4118W        W 7637   8.152   2.664   0.731 -0.1998  0.1418 -0.0363
 4119W        W 7638   7.164   9.241   4.023  0.1130  0.1352 -0.0695
 4120W        W 7639   5.277   0.235   0.867  0.2447 -0.0363  0.4086
 4121W        W 7640   4.906   9.169   9.201  0.0315  0.0683 -0.0835
 4122W        W 7641   5.958   7.574   3.638  0.2188 -0.0061 -0.1332
 4123W        W 7642   3.387   5.928  11.131 -0.4331  0.0036 -0.0585
 4124W        W 7643   0.933   6.405   3.168 -0.1171  0.1467 -0.0830
 4125W        W 7644   6.458   4.972  11.097 -0.1310  0.1668  0.1793
 4126W        W 7645   1.499   0.368   8.069 -0.1414 -0.0119 -0.0523
 4127W        W 7646   5.411   5.874   9.058  0.0876  0.0330 -0.0206
 4128W        W 7647   0.119   2.889   9.749 -0.1691  0.5093 -0.1732
 4129W        W 7648   5.581   4.894   9.740 -0.0916  0.0056 -0.1146
 4130W        W 7649   0.584   0.067   1.254 -0.1694  0.2972 -0.1808
 4131W        W 7650   3.603   3.021   3.779 -0.0143 -0.3437  0.2791
 4132W        W 7651   7.470   7.565   2.170 -0.2635 -0.1659 -0.0199
 4133W        W 7652   7.946   3.013   3.220  0.2032  0.1120 -0.0331
 4134W        W 7653   5.713   5.378  12.412  0.1854  0.0428  0.0813
 4135W        W 7654   0.372   0.040  11.699 -0.0455 -0.3658  0.0657
 4136W        W 7655   7.254   8.649   0.795  0.0477 -0.0779 -0.3076
 4137W        W 7656   7.191   1.598   9.876 -0.3295  0.1666 -0.0417
 4138W        W 7657   7.231   4.418   0.163 -0.2590  0.2675  0.1072
 4139W        W 7658   8.776   8.673   3.771  0.2170 -0.0482  0.3879
 4140W        W 7659   7.105   1.558  10.964  0.0101 -0.1423  0.1359
 4141W        W 7660   6.198   7.902   4.083 -0.0523 -0.3715  0.1490
 4142W        W 7661   0.528   7.835  11.681 -0.1492 -0.1644  0.2049
 4143W        W 7662   4.348   5.213   2.409  0.2294 -0.1788 -0.1654
 4144W        W 7663   8.443   6.287   2.006 -0.3976 -0.0299  0.1299
 4145W        W 7664   7.297   1.380  10.439 -0.0554  0.1079 -0.2785
 4146W        W 7665   6.084   7.216   1.103  0.0690  0.2600 -0.1816
 4147W        W 7666   5.143   3.584   0.131 -0.0357 -0.0299 -0.1083
 4148W        W 7667   2.314   8.711   2.761 -0.0088  0.0858 -0.1876
 4149W        W 7668   5.815   2.389   9.886  0.0610  0.0227 -0.3638
 4150W        W 7669   6.393   7.715   2.280 -0.0309 -0.0679 -0.0255
 4151W        W 7670   7.359   4.597   9.051  0.2412  0.1612 -0.1616
 4152W        W 7671   9.696   7.478   2.845  0.0743  0.2120 -0.1482
 4153W        W 7672   7.910   3.118   1.026  0.0622 -0.1763  0.0738
 4154W        W 7673   7.495   6.625   1.748 -0.1526  0.0022  0.0068
 4155W        W 7674   2.593   5.422   2.051 -0.0363  0.3819 -0.1782
 4156W        W 7675   7.883   7.806   1.369  0.3676 -0.1400 -0.0644
 4157W        W 7676   7.697   6.167   7.219  0.1585 -0.3677  0.2227
 4158W        W 7677   2.295   6.036   1.013  0.2402  0.3620  0.2742
 4159W        W 7678   5.081   8.073  10.863  0.1012 -0.0259  0.2343
 4160W        W 7679   4.700   6.906   3.224 -0.0146 -0.2804 -0.1033
 4161W        W 7680   6.298   8.579   2.056  0.1686  0.2554  0.1701
 4162W        W 7681   5.817   9.096   8.952 -0.1328  0.2211  0.1171
 4163W        W 7682   3.230   9.383   3.611  0.0863  0.0105 -0.2996
 4164W        W 7683   8.117   3.619   1.112 -0.1434 -0.0385 -0.1111
 4165W        W 7684   6.401   2.362  11.028  0.1271 -0.1069 -0.1881
 4166W        W 7685   1.229   2.213   0.559  0.3747  0.2817  0.0769
 4167W        W 7686   7.109   6.239   2.513  0.1830 -0.0326 -0.1088
 4168W        W 7687   1.056   7.614   2.141 -0.0542  0.0511 -0.2558
 4169W        W 7688   2.996   1.177   1.922  0.1407 -0.1419  0.0764
 4170W        W 7689   7.316   6.343   0.849 -0.0471 -0.0786 -0.0387
 4171W        W 7690   6.957   6.503   8.845  0.0477  0.1000 -0.0103
 4172W        W 7691   5.591   3.219  10.504  0.0723  0.1423  0.1944
 4173W        W 7692   8.244   7.449  12.328  0.0644 -0.0430  0.2123
 4174W        W 7693   7.367   8.484   2.861  0.0838  0.1037 -0.4038
 4175W        W 7694   0.241   6.572   2.018  0.1355 -0.1799  0.4041
 4176W        W 7695   7.807   6.105   3.267 -0.0537 -0.3802  0.2075
 4177W        W 7696   2.700   2.822   9.620  0.0052 -0.1418 -0.0696
 4178W        W 7697   7.841   1.765   1.562  0.2854 -0.0006  0.1128
 4179W        W 7698   5.511   2.120  12.384 -0.0431 -0.0507 -0.0023
 4180W        W 7699   8.126   4.052   4.050 -0.1642  0.0578 -0.0750
 4181W        W 7700   3.226   8.018   3.375 -0.2895 -0.0041 -0.2890
 4182W        W 7701   8.298   6.175   3.447  0.1353 -0.2952 -0.0555
 4183W        W 7702   1.339   6.444   9.658 -0.0258  0.2768 -0.1711
 4184W        W 7703   1.199   6.603   0.897 -0.1123 -0.1030  0.1255
 4185W        W 7704   4.953   3.951   8.520 -0.2086 -0.0215  0.1623
 4186W        W 7705   5.875   9.067  10.505  0.0594 -0.1443 -0.3181
 4187W        W 7706   0.516   8.274  12.316  0.1538 -0.0658 -0.2131
 4188W        W 7707   4.687   1.101   2.548  0.1942  0.1309  0.2804
 4189W        W 7708   0.662   0.603   1.148 -0.1646  0.1175 -0.2996
 4190W        W 7709   1.907   5.505   8.984  0.0343 -0.0168 -0.0261
 4191W        W 7710   0.711   2.292   2.380  0.1069  0.1791 -0.1457
 4192W        W 7711   1.858   6.599   0.884  0.2833  0.2643  0.2996
 4193W        W 7712   6.433   2.158  12.110 -0.0267 -0.2666  0.0591
 4194W        W 7713   7.143   0.789   9.647 -0.0257  0.3241  0.1231
 4195W        W 7714   2.418   5.980  11.883 -0.1625  0.2057 -0.0718
 4196W        W 7715   5.103   1.488   1.469 -0.0670  0.0020 -0.3603
 4197W        W 7716   3.613   8.169  11.141 -0.0976  0.0935  0.0904
 4198W        W 7717   2.711   4.332  11.328  0.1183 -0.0424  0.0161
 4199W        W 7718   6.869   2.708   9.935 -0.1586  0.3405  0.2695
 4200W        W 7719   5.438   9.083   2.471  0.2894 -0.0338  0.1319
 4201W        W 7720   4.982   9.236  10.695  0.0182  0.2945  0.5284
 4202W        W 7721   5.179   5.791   1.817  0.2325 -0.2155  0.0295
 4203W        W 7722   1.386   2.883  11.723  0.1045 -0.0050 -0.2160
 4204W        W 7723   4.970   5.007  12.389  0.0487 -0.3806  0.2993
 4205W        W 7724   8.304   3.121   1.428 -0.0264 -0.2534 -0.0683
 4206W        W 7725   5.255   8.751   9.899  0.0937  0.1164 -0.1103
 4207W        W 7726   0.364   4.742  10.961 -0.2744 -0.1462 -0.1526
 4208W        W 7727   0.753   9.206  10.413  0.3575 -0.1086 -0.0391
 4209W        W 7728   1.221   2.365   3.232 -0.0532  0.2428  0.1832
 4210W        W 7729   6.843   5.173   2.549  0.1702 -0.3339  0.1108
 4211W        W 7730   2.305   0.336   8.516 -0.3248  0.0532 -0.0023
 4212W        W 7731   0.645   4.548   2.937  0.0682  0.3221 -0.0889
 4213W        W 7732   1.588   8.952  12.433  0.0299  0.1329 -0.3596
 4214W        W 7733   9.623   6.971  11.477  0.2094  0.1963  0.0083
 4215W        W 7734   9.415   6.255   1.023  0.0836 -0.0223  0.0825
 4216W        W 7735   4.040   0.044   2.329 -0.3616 -0.1680 -0.0242
 4217W        W 7736   2.416   2.866  11.082  0.0560  0.0437 -0.0378
 4218W        W 7737   5.621   1.255   8.260  0.0573 -0.0565  0.0588
 4219W        W 7738   2.888   4.558   1.554  0.0019 -0.3777  0.1658
 4220W        W 7739   1.747   4.561   1.744  0.1045 -0.0679 -0.2669
 4221W        W 7740   5.576   5.221   0.963 -0.1462  0.2233 -0.0678
 4222W        W 7741   3.317   2.732  12.174 -0.0302  0.0100 -0.1254
 4223W        W 7742   4.425   1.174   0.115  0.0949  0.0813  0.0891
 4224W        W 7743   1.554   2.099  12.501  0.0492 -0.5590 -0.0511
 4225W        W 7744   9.505   3.787  11.873  0.1053  0.0060 -0.1563
 4226W        W 7745   8.431   9.485   0.864  0.0302  0.1040 -0.1822
 4227W        W 7746   5.503   9.112  11.367 -0.0744  0.0928 -0.0289
 4228W        W 7747   9.004   2.128  10.999 -0.0586  0.1371 -0.1613
 4229W        W 7748   8.502   5.557   9.199 -0.1515  0.0205 -0.1329
 4230W        W 7749   3.531   8.151   9.683  0.0342 -0.2317  0.1267
 4231W        W 7750   7.855   0.923   0.185  0.2226 -0.2804 -0.0082
 4232W        W 7751   6.309   9.472   2.725  0.1461 -0.1495  0.1603
 4233W        W 7752   2.545   5.532   1.052 -0.0852  0.2997 -0.1820
 4234W        W 7753   4.517   4.971   1.979 -0.0660 -0.1228 -0.1699
 4235W        W 7754   3.770   9.557  10.551 -0.0094  0.1811  0.0739
 4236W        W 7755   5.572   1.331  10.792 -0.0674  0.3382  0.0459
 4237W        W 7756   2.887   5.096   2.278 -0.1888 -0.0155 -0.0471
 4238W        W 7757   5.142   0.156   2.156 -0.2564 -0.1823 -0.0992
 4239W        W 7758   5.593   7.933   2.762  0.1295 -0.0519  0.1316
 4240W        W 7759   1.797   1.602  11.246 -0.1453  0.1629  0.2780
 4241W        W 7760   2.979   4.234   2.943  0.0215  0.1061  0.1470
 4242W        W 7761   1.937   0.597   2.279  0.0630 -0.0002  0.0500
 4243W        W 7762   5.982   6.132  11.559 -0.1638  0.1077 -0.2517
 4244W        W 7763   0.278   6.354   0.878  0.1918 -0.0981  0.0382
 4245W        W 7764   8.211   9.068   9.823  0.0004  0.0811  0.3379
 4246W        W 7765   8.820   0.462   0.153  0.4942  0.0858 -0.1835
 4247W        W 7766   5.654   3.404  10.951 -0.3182  0.2463  0.1601
 4248W        W 7767   8.490   0.035  10.599  0.1319 -0.6584  0.0182
 4249W        W 7768   0.870   6.795   4.309  0.2380 -0.0431 -0.2359
 4250W        W 7769   4.955   8.003   2.265 -0.0353  0.1973  0.1789
 4251W        W 7770   4.079   7.847   1.915  0.0474 -0.2326 -0.0055
 4252W        W 7771   3.049   0.884   8.919 -0.2030  0.2422  0.1368
 4253W        W 7772   2.746   0.666  11.883 -0.1501  0.2042 -0.0571
 4254W        W 7773   7.744   4.520   0.550  0.2934 -0.1708 -0.1279
 4255W        W 7774   6.141   8.831  10.151 -0.0466  0.1881  0.1378
 4256W        W 7775   0.500   3.051   3.619 -0.3783 -0.2929  0.0302
 4257W        W 7776   2.600   8.534   1.144  0.0464  0.1837 -0.3735
 4258W        W 7777   0.647   3.863  10.298 -0.0190  0.0458 -0.1277
 4259W        W 7778   1.471   8.444  11.308  0.3711  0.2218 -0.1742
 4260W        W 7779   6.462   0.840   7.781 -0.1811 -0.0758  0.1853
 4261W        W 7780   4.843   4.478  12.296  0.0119  0.0094 -0.1423
 4262W        W 7781   6.448   4.621   0.722  0.0423  0.0135 -0.0811
 4263W        W 7782   5.202   0.251   9.747  0.0726  0.0704 -0.1668
 4264W        W 7783   0.820   2.456   1.417 -0.0131 -0.2947 -0.1265
 4265W        W 7784   2.255   7.365   1.834 -0.0247 -0.0313 -0.0609
 4266W        W 7785   8.370   9.175   3.181  0.1743  0.1088  0.2245
 4267W        W 7786   6.345   0.707  12.350 -0.1243  0.0849  0.3568
 4268W        W 7787   8.780   2.665  11.217 -0.0370 -0.2106 -0.0688
 4269W        W 7788   8.763   7.062   4.941 -0.2401  0.3925  0.0179
 4270W        W 7789   7.157   1.457   3.323 -0.0500 -0.2140 -0.0269
 4271W        W 7790   3.767   0.490  11.086  0.0419  0.2724 -0.1183
 4272W        W 7791   6.059   7.528   0.168  0.2480 -0.0193 -0.0862
 4273W        W 7792   2.337   5.408   8.305 -0.1549 -0.0472 -0.2912
 4274W        W 7793   1.453   3.775  11.460  0.2213 -0.1035 -0.0306
 4275W        W 7794   2.333   2.455  11.386  0.2569 -0.1306  0.0755
 4276W        W 7795   3.449   0.181  12.058 -0.2209 -0.2365 -0.0394
 4277W        W 7796   5.356   2.987  12.502 -0.3008  0.2545 -0.3036
 4278W        W 7797   3.515   9.525   2.203 -0.1477 -0.4697  0.2266
 4279W        W 7798   5.623   4.259   1.858  0.2137 -0.1762 -0.0618
 4280W        W 7799   7.434   6.242  10.777  0.0569 -0.2505  0.0424
 4281W        W 7800   8.780   6.780  11.114  0.1202 -0.0951 -0.0607
 4282W        W 7801   1.651   6.106  10.582 -0.0768  0.3568  0.0549
 4283W        W 7802   1.593   2.560   2.971 -0.0300 -0.2356 -0.3055
 4284W        W 7803   6.142   0.129   1.920 -0.0723 -0.2228  0.0154
 4285W        W 7804   8.520   7.783   3.216  0.1179 -0.1401  0.1590
 4286W        W 7805   4.984   1.757   2.875 -0.0729  0.0569  0.3598
 4287W        W 7806   9.472   7.177  10.250  0.2639  0.0357 -0.0711
 4288W        W 7807   3.943   1.748   8.768 -0.2904  0.0121  0.1771
 4289W        W 7808   3.600   0.500  10.513  0.1423  0.1790 -0.1537
 4290W        W 7809   1.922   1.316  10.071 -0.0645  0.1050  0.5283
 4291W        W 7810   0.203   8.987   3.376  0.3949  0.0276 -0.1024
 4292W        W 7811   1.633   4.961  11.522 -0.2123 -0.0159 -0.0164
 4293W        W 7812   4.267   5.254   1.690 -0.0744  0.1729  0.3094
 4294W        W 7813   9.362   5.976   8.625 -0.2482 -0.0204  0.3193
 4295W        W 7814   2.119   6.729   2.121 -0.2402  0.1999 -0.1912
 4296W        W 7815   7.108   5.589   8.746 -0.0366  0.1336 -0.0502
 4297W        W 7816   1.951   2.002   2.269 -0.1294  0.2300 -0.0535
 4298W        W 7817   0.509   8.029  11.222 -0.0251 -0.1906 -0.0763
 4299W        W 7818   2.670   2.163  10.464  0.0546 -0.1538 -0.0586
 4300W        W 7819   9.189   5.240   1.355  0.0276 -0.2052  0.3665
 4301W        W 7820   7.948   3.726   2.549 -0.1711 -0.0335 -0.0131
 4302W        W 7821   0.811   0.247   4.514 -0.1151  0.3131  0.1648
 4303W        W 7822   2.995   1.037  11.661 -0.1814  0.0286 -0.1183
 4304W        W 7823   9.413   4.319   4.542 -0.1153 -0.1524  0.1794
 4305W        W 7824   9.476   0.006   7.873 -0.1252 -0.1474  0.1135
 4306W        W 7825   3.615   5.561   2.804 -0.0317 -0.1954  0.1126
 4307W        W 7826   7.491   6.682  10.519  0.1725 -0.0512 -0.3433
 4308W        W 7827   2.832   1.375   0.426 -0.1204 -0.0904 -0.1439
 4309W        W 7828   7.577   0.069  12.297 -0.0547 -0.0897  0.2257
 4310W        W 7829   4.085   2.664   9.842  0.5616 -0.2335 -0.1362
 4311W        W 7830   3.645   9.114   3.258  0.3374 -0.1664 -0.1887
 4312W        W 7831   3.725   2.683  11.824 -0.2678 -0.0596  0.0816
 4313W        W 7832   0.126   5.266   0.230  0.3442 -0.1390  0.2823
 4314W        W 7833   1.058   3.264   9.836  0.0642 -0.0990 -0.0698
 4315W        W 7834   7.333   4.422  11.371 -0.0525 -0.3383  0.0465
 4316W        W 7835   2.365   2.741   4.241 -0.3187  0.3440  0.4166
 4317W        W 7836   4.400   4.719  11.177  0.0864 -0.2042  0.4926
 4318W        W 7837   1.240   7.619  11.443 -0.1993 -0.2608  0.2309
 4319W        W 7838   1.305   2.072   9.266 -0.0812 -0.1674  0.0275
 4320W        W 7839   8.370   7.074  10.344 -0.2689 -0.4069 -0.0465
 4321W        W 7840   0.403   6.850   1.221  0.1144  0.0244  0.0402
 4322W        W 7841   5.572   8.738  10.301  0.0005 -0.4264  0.2039
 4323W        W 7842   9.392   3.927   2.327  0.1770  0.2496 -0.2211
 4324W        W 7843   9.409   5.083   3.306 -0.0453  0.0524 -0.3683
 4325W        W 7844   8.527   9.025   2.631  0.0996 -0.1739  0.0568
 4326W        W 7845   5.889   2.876   9.637 -0.3294 -0.3468  0.2417
 4327W        W 7846   9.546   1.712   2.263  0.1706 -0.1309  0.1486
 4328W        W 7847   1.251   0.098   1.190 -0.1218 -0.0731  0.3971
 4329W        W 7848   3.717   1.207   9.439 -0.0808 -0.1062 -0.1569
 4330W        W 7849   7.419   2.946   8.419 -0.0051  0.0288  0.1216
 4331W        W 7850   2.754   1.086  12.144  0.0911  0.3047  0.2552
 4332W        W 7851   9.539   7.775  12.503 -0.0277 -0.3088  0.2731
 4333W        W 7852   8.704   7.639  12.280  0.0760 -0.0170 -0.1205
 4334W        W 7853   3.304   5.306   1.511  0.2807  0.1884 -0.0240
 4335W        W 7854   5.901   5.131   0.333  0.1774 -0.1038 -0.4355
 4336W        W 7855   6.576   4.208   9.126 -0.1242 -0.1345 -0.2895
 4337W        W 7856   2.373   9.583   3.713 -0.0378 -0.0595 -0.1355
 4338W        W 7857   8.028   4.097  11.013 -0.0420  0.4142  0.0862
 4339W        W 7858   4.816   1.484   8.472 -0.3318  0.1493  0.1362
 4340W        W 7859   7.570   5.689  12.351  0.0097 -0.0558 -0.0970
 4341W        W 7860   6.238   8.427   3.455  0.1631 -0.1085 -0.0953
 4342W        W 7861   3.178   4.269  11.096  0.4821 -0.0503 -0.2662
 4343W        W 7862   9.275   3.832   9.098  0.3524  0.0904  0.1056
 4344W        W 7863   1.650   2.544   0.094  0.0203  0.2048 -0.0353
 4345W        W 7864   2.354   9.222  11.754 -0.0745  0.0097 -0.1163
 4346W        W 7865   8.257   1.713   0.270  0.2312 -0.0615  0.1985
 4347W        W 7866   2.584   0.098   3.286 -0.1727 -0.0250  0.2326
 4348W        W 7867   4.573   4.193  10.412 -0.0498  0.2712 -0.4523
 4349W        W 7868   8.674   7.204   4.063 -0.1435 -0.1605  0.2052
 4350W        W 7869   0.483   7.377   9.195 -0.2943 -0.1920  0.2854
 4351W        W 7870   9.633   6.550   0.330  0.1289  0.1100 -0.0329
 4352W        W 7871   1.723   4.852  12.088  0.0228  0.0185 -0.0753
 4353W        W 7872   5.258   0.458   8.300  0.0620  0.2768  0.0401
 4354W        W 7873   4.376   7.279   2.825 -0.0875  0.0539  0.1417
 4355W        W 7874   8.825   1.886   8.997 -0.0553  0.4943 -0.0956
 4356W        W 7875   1.142   3.678   2.775  0.1698  0.0427  0.3742
 4357W        W 7876   0.077   4.329  10.982 -0.0537  0.1242  0.0727
 4358W        W 7877   1.854   1.487   9.021 -0.0893 -0.2198 -0.0377
 4359W        W 7878   2.810   3.871   8.479 -0.2630 -0.1660 -0.1091
 4360W        W 7879   2.814   3.283   9.355 -0.1031  0.0580  0.0968
 4361W        W 7880   7.850   8.127   8.900  0.0437 -0.2003  0.1194
 4362W        W 7881   7.051   8.207  11.295  0.0784 -0.2514 -0.0045
 4363W        W 7882   8.769   1.570  10.173  0.2098  0.1267  0.1197
 4364W        W 7883   0.262   8.572  11.973 -0.0272  0.2566  0.0225
 4365W        W 7884   0.468   1.915  11.341  0.0560  0.1163 -0.2158
 4366W        W 7885   0.893   5.445  10.221 -0.0112 -0.0996 -0.0763
 4367W        W 7886   1.778   0.167   9.101  0.0354 -0.0207 -0.3594
 4368W        W 7887   1.337   9.171   2.792  0.1153 -0.0200  0.2238
 4369W        W 7888   4.105   4.165  11.460 -0.1739  0.1790 -0.1538
 4370W        W 7889   0.065   7.459  11.567 -0.0117  0.1592 -0.0770
 4371W        W 7890   9.688   3.889   3.358  0.0118  0.0343  0.2014
 4372W        W 7891   1.952   2.481  11.692  0.1582  0.0426 -0.0989
 4373W        W 7892   6.886   3.825   3.530 -0.1100  0.4535  0.2667
 4374W        W 7893   8.306   0.641   3.748  0.2187 -0.0641  0.3129
 4375W        W 7894   9.000   8.728   3.313 -0.1466 -0.2102  0.2145
 4376W        W 7895   8.343   6.909   8.409 -0.2379  0.0846  0.2593
 4377W        W 7896   6.234   4.385   9.438  0.2524  0.3000 -0.3646
 4378W        W 7897   0.124   1.939   8.751 -0.0313 -0.0164 -0.0292
 4379W        W 7898   8.640   6.668   3.987 -0.2263 -0.4718  0.2309
 4380W        W 7899   0.621   6.961  11.185  0.1900 -0.2689  0.2161
 4381W        W 7900   6.054   5.582   0.916  0.0902  0.1728  0.0909
 4382W        W 7901   3.358   9.443  11.886  0.2059  0.0272 -0.3363
 4383W        W 7902   7.620   4.150   3.643 -0.1337 -0.1887  0.0964
 4384W        W 7903   2.197   0.863   1.929  0.1039  0.0167 -0.2983
 4385W        W 7904   5.097   8.352   1.272 -0.0502  0.0464 -0.1564
 4386W        W 7905   0.063   9.182   8.659  0.0207  0.0275 -0.3250
 4387W        W 7906   4.558   2.995  10.753  0.2069 -0.0853  0.1482
 4388W        W 7907   5.784   1.289   9.864  0.1322  0.0626  0.0648
 4389W        W 7908   8.696   3.601  11.738  0.0627 -0.1110 -0.0647
 4390W        W 7909   9.445   9.469   4.599  0.0392 -0.1332  0.0167
 4391W        W 7910   5.697   0.048  11.769  0.0867 -0.2246  0.0727
 4392W        W 7911   5.768   1.486   0.636 -0.1147  0.1543  0.0747
 4393W        W 7912   7.677   1.635   9.780 -0.0163  0.1355 -0.1819
 4394W        W 7913   6.948   3.549   9.816 -0.2141  0.0026  0.0607
 4395W        W 7914   8.130   9.442   8.946 -0.0197  0.1967  0.0321
 4396W        W 7915   8.843   7.743   1.968  0.0105 -0.1068 -0.3036
 4397W        W 7916   4.988   1.181  11.471 -0.1749  0.1823  0.0282
 4398W        W 7917   1.247   3.472   3.199  0.0996 -0.0812  0.5203
 4399W        W 7918   0.064   3.925   3.906  0.0733  0.0903  0.1112
 4400W        W 7919   4.197   7.582   3.299  0.0095  0.1205 -0.0643
 4401W        W 7920   2.908   5.089  11.476  0.0378  0.0701  0.3000
 4402W        W 7921   9.171   6.045   3.936 -0.0550 -0.1428 -0.0483
 4403W        W 7922   8.354   7.327   4.436 -0.1492  0.3038 -0.1413
 4404W        W 7923   6.789   9.208   9.918 -0.0084  0.0064 -0.1156
 4405W        W 7924   5.378   3.687   1.198 -0.2226 -0.2078 -0.1699
 4406W        W 7925   3.221   1.346  10.423 -0.0499  0.0882 -0.0131
 4407W        W 7926   7.476   7.549   7.797  0.2083 -0.0693 -0.1497
 4408W        W 7927   8.295   4.776  11.426 -0.3483  0.0301 -0.1699
 4409W        W 7928   6.428   3.108  12.433  0.0411 -0.1151  0.3848
 4410W        W 7929   8.493   4.764   0.230 -0.0297  0.2178  0.0016
 4411W        W 7930   7.716   8.965   9.940 -0.2965 -0.0835  0.2233
 4412W        W 7931   1.535   7.600  11.953 -0.1157  0.0092  0.2840
 4413W        W 7932   5.850   6.469  11.188  0.0276 -0.0113 -0.0965
 4414W        W 7933   3.753   4.881  12.064  0.1192 -0.2160  0.0274
 4415W        W 7934   6.497   6.388   9.733  0.1407  0.1102  0.1183
 4416W        W 7935   7.688   1.779   2.143  0.1166 -0.0393  0.3761
 4417W        W 7936   2.907   0.004   9.915 -0.1748  0.0442 -0.3139
 4418W        W 7937   3.997   6.432   9.511  0.0203 -0.2167 -0.0875
 4419W        W 7938   1.851   9.121   0.784  0.0800 -0.3113 -0.3663
 4420W        W 7939   2.009   2.452   1.396  0.0001  0.0776 -0.3433
 4421W        W 7940   6.020   1.169   9.289  0.3372  0.0448  0.1173
 4422W        W 7941   2.779   2.606  12.277 -0.2677  0.0159  0.0693
 4423W        W 7942   3.449   6.354   0.033 -0.1877  0.2939  0.0423
 4424W        W 7943   3.946   0.702   3.120 -0.1411 -0.1478 -0.2511
 4425W        W 7944   8.670   4.917   1.529  0.0801  0.0873 -0.1527
 4426W        W 7945   5.338   8.097   0.898 -0.2213 -0.1413  0.2870
 4427W        W 7946   5.894   2.492  11.093 -0.1418  0.4030  0.1267
 4428W        W 7947   6.761   4.091   1.358  0.2973  0.0970 -0.0209
 4429W        W 7948   0.264   7.162  12.028  0.0329 -0.0154 -0.0921
 4430W        W 7949   9.041   3.116  10.634 -0.2231 -0.0912 -0.1903
 4431W        W 7950   6.948   7.775   3.454 -0.0628 -0.2285 -0.1530
 4432W        W 7951   8.924   6.557   9.003 -0.1702  0.0552 -0.0991
 4433W        W 7952   0.375   9.381   3.687  0.2074 -0.1918 -0.4788
 4434W        W 7953   8.693   4.832   9.683 -0.3234 -0.0270 -0.1581
 4435W        W 7954   9.184   2.324   8.873 -0.2672  0.1359 -0.0685
 4436W        W 7955   7.371   0.583   2.411 -0.1694  0.2249 -0.2200
 4437W        W 7956   7.283   3.374   1.519 -0.1859 -0.2168  0.0591
 4438W        W 7957   0.275   6.120   1.819  0.1997  0.0491 -0.2889
 4439W        W 7958   0.005   0.977   8.116  0.1770  0.4695  0.2052
 4440W        W 7959   9.029   0.462   0.935 -0.0266  0.3004 -0.2581
 4441W        W 7960   4.947   7.472   2.331  0.1506 -0.0299 -0.1016
 4442W        W 7961   7.343   0.891  11.794 -0.0023 -0.2965 -0.1793
 4443W        W 7962   4.328   2.248   1.825  0.0788  0.0151 -0.1066
 4444W        W 7963   8.276   3.370  12.041  0.2605 -0.2802 -0.0962
 4445W        W 7964   3.197   1.685   1.271  0.1125 -0.1199  0.1244
 4446W        W 7965   6.028   4.840   4.390 -0.0088  0.0565 -0.4691
 4447W        W 7966   1.937   1.768   9.711 -0.2174  0.0920 -0.0690
 4448W        W 7967   7.636   4.326  10.692 -0.1433  0.1780 -0.2355
 4449W        W 7968   9.274   0.978   9.941 -0.0981  0.2404  0.1372
 4450W        W 7969   0.982   5.048   4.074 -0.0562  0.0118  0.0616
 4451W        W 7970   8.018   2.357   2.124 -0.2554  0.1377  0.1231
 4452W        W 7971   8.416   5.660   9.949 -0.1800 -0.0038 -0.1543
 4453W        W 7972   5.592   3.216  11.415  0.0870  0.2072  0.2727
 4454W        W 7973   0.527   4.294   0.999 -0.0439 -0.3096 -0.5516
 4455W        W 7974   8.638   2.686   0.339 -0.1987  0.1871  0.1500
 4456W        W 7975   1.849   7.706  11.495  0.0900 -0.1505 -0.1856
 4457W        W 7976   0.498   5.211   3.600  0.0192 -0.0559 -0.2354
 4458W        W 7977   4.031   3.132   3.353  0.0372  0.0554 -0.1173
 4459W        W 7978   6.510   0.655   4.045  0.2555 -0.0531  0.1869
 4460W        W 7979   6.581   4.088  11.785  0.2417  0.0022  0.1905
 4461W        W 7980   2.074   3.819  10.479 -0.0772  0.2689 -0.1843
 4462W        W 7981   8.966   2.527  10.309 -0.1877 -0.3910  0.2378
 4463W        W 7982   3.349   5.024  11.699 -0.0184  0.1659 -0.3960
 4464W        W 7983   0.457   7.248   3.714  0.1040 -0.3053 -0.1092
 4465W        W 7984   0.317   7.513   0.478 -0.2496  0.1238  0.1212
 4466W        W 7985   1.511   4.788   9.774 -0.0468 -0.0533  0.0038
 4467W        W 7986   9.543   4.785   3.774  0.1396  0.2285  0.0457
 4468W        W 7987   6.942   8.362  10.189  0.0999  0.0111 -0.1207
 4469W        W 7988   7.514   8.183   3.920  0.0030  0.0411  0.0034
 4470W        W 7989   9.222   0.176   9.243  0.2367 -0.0691 -0.0568
 4471W        W 7990   7.147   8.952  12.017  0.2614 -0.0061 -0.0825
 4472W        W 7991   1.359   1.761   0.441  0.1678  0.0617  0.1874
 4473W        W 7992   4.172   9.181   0.357 -0.2349  0.0455 -0.0384
 4474W        W 7993   2.568   6.203   1.446 -0.3255 -0.0813  0.1784
 4475W        W 7994   9.066   0.944   0.268  0.3057  0.2625  0.3091
 4476W        W 7995   7.162   4.703  11.784 -0.1464 -0.0348  0.2749
 4477W        W 7996   7.473   0.220   3.594 -0.0969  0.1429  0.1051
 4478W        W 7997   5.504   1.786  12.024  0.1471 -0.2632  0.0579
 4479W        W 7998   8.846   1.561   2.932 -0.0567  0.0283  0.1482
 4480W        W 7999   0.368   2.249   3.678  0.0110  0.3267 -0.1624
 4481W        W 8000   3.797   8.052  10.270  0.5125  0.0344 -0.0433
 4482W        W 8001   6.842   3.655  11.613  0.1146  0.1799  0.2973
 4483W        W 8002   7.416   7.783   9.667  0.0607 -0.2098  0.3202
 4484W        W 8003   4.660   3.063   1.635 -0.0998 -0.0924  0.3694
 4485W        W 8004   5.251   5.260   1.688  0.0981  0.3093  0.3076
 4486W        W 8005   6.990   6.995  11.740 -0.2550  0.3999 -0.2597
 4487W        W 8006   2.503   8.024   1.418 -0.3095  0.2228  0.1603
 4488W        W 8007   7.900   0.322   3.909  0.2257  0.2219 -0.0108
 4489W        W 8008   9.381   6.539   4.248  0.1173  0.1167  0.0304
 4490W        W 8009   2.484   7.333   2.633  0.2010  0.0285 -0.0214
 4491W        W 8010   3.889   4.952   1.401  0.1491 -0.3875  0.0374
 4492W        W 8011   1.508   6.154   0.874 -0.2968  0.0510 -0.0055
 4493W        W 8012   3.296   4.809   0.500  0.1467 -0.0106 -0.1612
 4494W        W 8013   6.094   3.306   9.528  0.1945 -0.2266  0.0207
 4495W        W 8014   6.403   2.058   2.003 -0.1003  0.0632 -0.3086
 4496W        W 8015   3.793   7.443   9.913 -0.3036 -0.0280 -0.0190
 4497W        W 8016   8.324   3.331   2.442  0.1394  0.2153 -0.1201
 4498W        W 8017   3.045   8.437   2.564 -0.0223 -0.0535  0.3968
 4499W        W 8018   3.899   9.455  10.014  0.2731  0.0177  0.1983
 4500W        W 8019   3.503   0.780   9.565  0.0845 -0.0387 -0.0869
 4501W        W 8020   5.688   6.241   9.541 -0.1731  0.2372  0.2194
 4502W        W 8021   9.412   9.496   8.817  0.1075 -0.1589 -0.0436
 4503W        W 8022   3.457   1.370  12.441 -0.0143  0.1305 -0.0487
 4504W        W 8023   2.901   2.841  11.890  0.3294 -0.0270 -0.0605
 4505W        W 8024   9.357   3.040   9.609 -0.1707 -0.2658 -0.1362
 4506W        W 8025   8.904   7.172  10.259  0.3668  0.0491  0.0688
 4507W        W 8026   5.927   0.513  11.653  0.1775  0.3798 -0.1388
 4508W        W 8027   6.132   3.835  11.743  0.1667  0.0748  0.0254
 4509W        W 8028   4.502   8.439   2.552  0.0183 -0.0739 -0.0363
 4510W        W 8029   1.135   3.703  10.053  0.3605  0.0788  0.1056
 4511W        W 8030   1.705   9.453   0.004 -0.1894  0.0703 -0.2817
 4512W        W 8031   9.399   1.543   8.887  0.0197 -0.0569  0.2812
 4513W        W 8032   7.476   4.836   1.722  0.0024 -0.1348 -0.2854
 4514W        W 8033   2.101   1.101   0.098 -0.0270 -0.1575 -0.2105
 4515W        W 8034   9.427   6.342  10.267  0.1797 -0.0111 -0.2055
 4516W        W 8035   0.029   0.135  10.760 -0.2538  0.1610  0.0450
 4517W        W 8036   9.374   4.259   3.542 -0.0625 -0.0425  0.0295
 4518W        W 8037   1.199   3.767   8.842 -0.1155  0.0508  0.1518
 4519W        W 8038   6.239   6.572   0.177  0.2870  0.1823 -0.1977
 4520W        W 8039   5.646   0.734  10.672  0.3057 -0.2579  0.1372
 4521W        W 8040   2.721   9.008   0.958 -0.1184  0.0906  0.0380
 4522W        W 8041   0.793   9.617   1.681 -0.1677 -0.0835  0.0374
 4523W        W 8042   7.965   7.233  10.039 -0.3089 -0.0923 -0.0003
 4524W        W 8043   0.569   4.895   8.803  0.0754  0.3385  0.2771
 4525W        W 8044   7.395   6.311  10.144  0.1540 -0.0375  0.2232
 4526W        W 8045   3.283   5.870   0.235 -0.2060 -0.0134 -0.2342
 4527W        W 8046   6.427   0.975  10.286  0.0233 -0.1405 -0.3738
 4528W        W 8047   5.025   5.207  10.300 -0.1568 -0.0246 -0.0043
 4529W        W 8048   1.618   0.070   1.547  0.0024 -0.0973 -0.1481
 4530W        W 8049   5.270   4.795   2.614 -0.2057  0.1445 -0.2766
 4531W        W 8050   0.203   2.998   2.812  0.0730  0.0025  0.0510
 4532W        W 8051   6.231   2.211   3.493 -0.1594 -0.0918 -0.0550
 4533W        W 8052   6.539   3.659   3.219 -0.1119 -0.0169  0.1471
 4534W        W 8053   1.933   8.962  10.275  0.0140 -0.0583 -0.1730
 4535W        W 8054   6.789   3.624   0.690 -0.1102 -0.1851 -0.1779
 4536W        W 8055   7.417   0.635   3.875 -0.1223 -0.0898  0.2397
 4537W        W 8056   8.909   5.206  12.302  0.0607  0.1983 -0.0893
 4538W        W 8057   1.221   0.566  10.255  0.3312  0.0881  0.0385
 4539W        W 8058   2.076   7.339  11.719  0.0081 -0.0276  0.0929
 4540W        W 8059   1.081   3.667  10.531 -0.2375 -0.1062 -0.2340
 4541W        W 8060   5.402   4.404  12.216 -0.1538 -0.0066  0.2407
 4542W        W 8061   9.466   0.448   1.550  0.1319  0.0085 -0.1324
 4543W        W 8062   9.682   6.764   0.924  0.3912  0.0505 -0.0116
 4544W        W 8063   6.864   0.713   2.096  0.0384 -0.0094  0.0018
 4545W        W 8064   9.330   7.719   9.497 -0.1001 -0.1285 -0.2046
 4546W        W 8065   6.425   8.035  11.996 -0.1685 -0.2189 -0.0802
 4547W        W 8066   2.141   0.233   3.479  0.2018 -0.3664 -0.0975
 4548W        W 8067   0.857   5.873  11.333 -0.2383  0.2581 -0.1750
 4549W        W 8068   2.952   0.708   9.774  0.2884  0.1949  0.0251
 4550W        W 8069   4.989   4.023  12.501 -0.0244 -0.0763  0.0740
 4551W        W 8070   7.452   2.701  10.779 -0.0670 -0.1317  0.1862
 4552W        W 8071   0.699   3.078   8.564 -0.0048 -0.0794 -0.0138
 4553W        W 8072   8.366   6.556   0.832  0.0516 -0.3663  0.3175
 4554W        W 8073   6.359   3.842  12.265 -0.2199 -0.0437 -0.2802
 4555W        W 8074   3.627   3.537   3.263 -0.1554 -0.2204  0.6987
 4556W        W 8075   8.100   0.095   0.655 -0.0944  0.3087 -0.0724
 4557W        W 8076   8.943   8.820  12.089 -0.1776  0.1158  0.1170
 4558W        W 8077   8.379   7.287   3.143  0.0706  0.2509  0.0948
 4559W        W 8078   5.842   3.675  11.339  0.0955  0.4433  0.3682
 4560W        W 8079   6.064   8.435   1.570  0.1491 -0.2999  0.1527
 4561W        W 8080   9.275   0.772   4.112  0.0023 -0.0548  0.6627
 4562W        W 8081   8.199   8.444   9.267 -0.1905  0.2475 -0.1542
 4563W        W 8082   0.915   4.576   2.420 -0.1552  0.1552 -0.0818
 4564W        W 8083   6.811   4.691   0.020 -0.0740  0.0918 -0.2208
 4565W        W 8084   1.403   1.633   3.419 -0.1005 -0.2257  0.1578
 4566W        W 8085   3.621   9.181  10.794  0.2124 -0.0470 -0.2216
 4567W        W 8086   0.958   5.431  11.178  0.0508 -0.1725 -0.1314
 4568W        W 8087   6.328   5.599   1.415  0.3436 -0.0742  0.1855
 4569W        W 8088   1.138   4.685   0.220 -0.3721 -0.0309  0.2381
 4570W        W 8089   8.158   0.673   9.400  0.0017 -0.1330  0.1512
 4571W        W 8090   1.872   7.380   3.736 -0.3425 -0.1082 -0.0003
 4572W        W 8091   6.496   7.756   1.001  0.1152  0.1127  0.1445
 4573W        W 8092   8.021   8.887   2.554 -0.0115  0.1345 -0.1440
 4574W        W 8093   0.688   5.529   2.552  0.0779  0.0067 -0.0154
 4575W        W 8094   7.794   0.835  10.174 -0.1617 -0.1167  0.0915
 4576W        W 8095   2.421   5.046   3.194  0.1235  0.0557  0.0756
 4577W        W 8096   6.880   2.257   2.867  0.1071 -0.2668 -0.1583
 4578W        W 8097   7.777   6.703   3.776  0.4704  0.1818  0.0968
 4579W        W 8098   4.714   1.529   9.426 -0.3104 -0.2904  0.0244
 4580W        W 8099   9.066   2.407   3.339 -0.0744 -0.1102  0.3371
 4581W        W 8100   0.663   1.131   8.871 -0.0761  0.1860  0.0285
 4582W        W 8101   4.072   6.402   9.009 -0.3216 -0.0207 -0.1352
 4583W        W 8102   2.090   8.140   2.394 -0.1750  0.2285 -0.0558
 4584W        W 8103   6.287   1.569  10.770  0.2087  0.1216 -0.0231
 4585W        W 8104   5.824   9.361   7.922  0.2401 -0.3000 -0.2114
 4586W        W 8105   5.303   9.422   1.912 -0.0681 -0.0830  0.0426
 4587W        W 8106   7.041   4.731   4.154 -0.3198  0.1935  0.1124
 4588W        W 8107   0.987   2.768   2.903  0.1603  0.2474 -0.0224
 4589W        W 8108   2.637   7.824  11.144 -0.3281 -0.1426 -0.1317
 4590W        W 8109   9.278   1.572   4.203  0.2225 -0.0619 -0.1014
 4591W        W 8110   0.667   5.470   3.098 -0.1625  0.1503 -0.1496
 4592W        W 8111   4.462   8.900   2.142 -0.0352  0.1884 -0.0283
 4593W        W 8112   0.647   2.894   2.553 -0.1760 -0.0982 -0.2527
 4594W        W 8113   6.094   7.097   9.164 -0.1087  0.3426  0.1495
 4595W        W 8114   9.163   4.768   8.831 -0.0115  0.0138 -0.0443
 4596W        W 8115   8.276   1.973   0.952 -0.2158  0.1484  0.0610
 4597W        W 8116   7.128   4.429  12.188  0.0554  0.0148  0.0296
 4598W        W 8117   2.424   2.322   3.958 -0.1703  0.0107 -0.0655
 4599W        W 8118   4.612   7.819  10.840 -0.1284 -0.0406  0.1919
 4600W        W 8119   2.626   2.736   2.692 -0.2500 -0.3271  0.1865
 4601W        W 8120   7.701   7.089   1.974 -0.0343 -0.1205  0.0119
 4602W        W 8121   8.324   6.522  10.195 -0.1713  0.0834 -0.0118
 4603W        W 8122   3.220   0.070  10.345 -0.2996 -0.0646 -0.0110
 4604W        W 8123   2.727   7.646   9.783  0.0088 -0.0727  0.0654
 4605W        W 8124   0.733   4.044   0.113  0.2628 -0.0808  0.2407
 4606W        W 8125   8.262   8.593  10.645 -0.1710 -0.1296 -0.1404
 4607W        W 8126   8.027   0.204  10.787  0.0536 -0.4468 -0.0255
 4608W        W 8127   6.665   8.584  11.333 -0.1329 -0.0723 -0.1588
 4609W        W 8128   1.317   8.346   8.445 -0.0379  0.1013 -0.1034
 4610W        W 8129   3.208   3.471   3.569 -0.1758  0.0083 -0.1504
 4611W        W 8130   9.662   6.919   2.052  0.2926  0.1132  0.0425
 4612W        W 8131   2.644   4.152   3.320  0.4061 -0.0984  0.2547
 4613W        W 8132   4.300   6.236   9.919  0.3695  0.0040 -0.2940
 4614W        W 8133   5.926   8.045  11.986  0.2645  0.2321 -0.3112
 4615W        W 8134   8.439   1.698  12.308 -0.0512 -0.1790 -0.0457
 4616W        W 8135   9.491   9.683   9.734 -0.2888 -0.1177  0.0141
 4617W        W 8136   2.915   8.515   0.756  0.0301 -0.2016 -0.2044
 4618W        W 8137   4.493   9.340   3.462  0.1468 -0.2237 -0.1341
 4619W        W 8138   4.796   4.281   3.898  0.1115  0.0274 -0.0045
 4620W        W 8139   8.806   1.969  11.726  0.0326 -0.1358 -0.1383
 4621W        W 8140   5.587   5.760   1.005 -0.0515 -0.1768  0.2345
 4622W        W 8141   7.608   1.589   9.208 -0.1125  0.0884  0.1325
 4623W        W 8142   8.931   1.748  12.204 -0.0444 -0.2022  0.1480
 4624W        W 8143   6.676   3.302   8.803 -0.3018  0.0086 -0.1061
 4625W        W 8144   7.183   7.999   7.743  0.2192  0.2172 -0.2405
 4626W        W 8145   6.924   2.651  10.797 -0.2040 -0.0585  0.1024
 4627W        W 8146   9.384   3.114   2.878  0.1396  0.2300  0.0929
 4628W        W 8147   3.941   3.419   2.739 -0.2560 -0.1670 -0.1388
 4629W        W 8148   1.849   6.429   8.974  0.0628  0.4019  0.0619
 4630W        W 8149   9.110   1.625   9.359 -0.0735  0.2584 -0.0894
 4631W        W 8150   0.158   8.163  11.693  0.1151 -0.0337 -0.1736
 4632W        W 8151   1.210   1.628   2.581  0.3310  0.0846  0.0807
 4633W        W 8152   0.101   3.235   8.635  0.2078 -0.2837  0.0261
 4634W        W 8153   8.783   3.129   0.577 -0.1405 -0.5105  0.0208
 4635W        W 8154   0.937   6.688  11.474  0.1706  0.1286 -0.0101
 4636W        W 8155   4.425   6.678   2.822  0.1531  0.3905  0.1178
 4637W        W 8156   5.323   8.489   2.421  0.2944 -0.0532 -0.1280
 4638W        W 8157   9.395   4.531   8.456  0.1899 -0.1569  0.1100
 4639W        W 8158   3.068   5.255   0.266  0.3567  0.3129 -0.2592
 4640W        W 8159   7.198   2.421   0.510  0.1325 -0.0649  0.2411
 4641W        W 8160   4.250   2.206   8.940  0.0926  0.1756 -0.2655
 4642W        W 8161   6.690   3.502   2.176 -0.1624 -0.2295  0.0388
 4643W        W 8162   3.928   0.230   4.065  0.1412  0.1130 -0.1108
 4644W        W 8163   4.613   1.005   1.025 -0.1683  0.0527  0.1290
 4645W        W 8164   2.086   6.587  12.190 -0.0863  0.2739  0.1092
 4646W        W 8165   6.293   1.691   3.556 -0.1289 -0.1595 -0.0542
 4647W        W 8166   5.869   3.707   1.460  0.0792  0.0157  0.1933
 4648W        W 8167   8.955   6.069  11.135 -0.1289 -0.2369  0.1362
 4649W        W 8168   7.699   7.813  12.282 -0.0544 -0.0852  0.1929
 4650W        W 8169   2.703   3.268   7.911  0.1788  0.0537  0.2363
 4651W        W 8170   3.338   8.291  10.315 -0.2398 -0.0833  0.1736
 4652W        W 8171   0.307   9.405   1.836 -0.0588  0.2994  0.1294
 4653W        W 8172   5.826   1.838   3.381 -0.0316 -0.2157 -0.1671
 4654W        W 8173   0.641   7.877   9.386 -0.0530 -0.0290  0.0845
 4655W        W 8174   3.177   3.843   3.198  0.1941  0.1845  0.0982
 4656W        W 8175   2.665   9.371   1.596 -0.0588 -0.2375  0.3611
 4657W        W 8176   4.755   1.610   3.359  0.0088  0.1885 -0.0659
 4658W        W 8177   1.520   2.150   8.507 -0.1952  0.1309  0.1856
 4659W        W 8178   3.790   2.816  12.340 -0.2376 -0.0045 -0.0590
 4660W        W 8179   7.024   5.059   1.706  0.0657 -0.1818 -0.1688
 4661W        W 8180   9.380   7.021  12.502 -0.0137  0.0192  0.1766
 4662W        W 8181   9.311   0.287  10.965  0.0947 -0.0921 -0.3134
 4663W        W 8182   2.449   8.188   0.828  0.3059 -0.1911 -0.1066
 4664W        W 8183   7.963   7.091   3.436  0.0799 -0.1224  0.0262
 4665W        W 8184   5.899   1.499   3.797 -0.2354 -0.0570 -0.1445
 4666W        W 8185   9.385   4.480   2.137  0.2362 -0.1702 -0.3418
 4667W        W 8186   6.485   7.443   9.440  0.0344  0.1874  0.2979
 4668W        W 8187   3.594   6.646  11.323 -0.0206  0.0610 -0.0750
 4669W        W 8188   8.541   7.064  11.571  0.1949  0.0488 -0.1415
 4670W        W 8189   0.594   4.447   3.455 -0.1410 -0.0184  0.2779
 4671W        W 8190   5.761   8.694   1.934 -0.4193  0.0620 -0.1207
 4672W        W 8191   3.096   9.250   1.303 -0.4094  0.0102 -0.1487
 4673W        W 8192   3.556   8.691  11.044  0.0674 -0.0152  0.2177
 4674W        W 8193   5.505   5.168   9.307 -0.0479  0.1059 -0.0436
 4675W        W 8194   9.281   6.288   0.533  0.2512 -0.0064 -0.1227
 4676W        W 8195   0.729   6.455   1.126  0.3578 -0.1161 -0.0685
 4677W        W 8196   2.088   2.630   3.754  0.3858 -0.1613  0.2383
 4678W        W 8197   8.547   6.595  12.356 -0.1156 -0.0231 -0.1255
 4679W        W 8198   6.202   1.378  12.459 -0.0244 -0.0766 -0.0514
 4680W        W 8199   7.635   7.953   2.826  0.1483  0.0196  0.0039
 4681W        W 8200   1.039   8.644   2.214 -0.3242  0.0702 -0.0111
 4682W        W 8201   8.371   7.922  10.527 -0.0540 -0.2898  0.1802
 4683W        W 8202   5.123   0.509   3.378 -0.1666  0.0343 -0.3268
 4684W        W 8203   6.288   2.620   9.937 -0.2417 -0.1291 -0.1413
 4685W        W 8204   0.559   3.717   4.005  0.2802  0.0175  0.0569
 4686W        W 8205   0.013   5.607  11.939  0.0252  0.0583  0.0578
 4687W        W 8206   6.990   0.323  10.036 -0.2465  0.1670 -0.1042
 4688W        W 8207   7.394   3.360   3.040 -0.2008  0.1873  0.4327
 4689W        W 8208   8.990   5.512   0.408  0.0374 -0.1226 -0.3082
 4690W        W 8209   3.773   5.315   3.155 -0.0964  0.1880 -0.1968
 4691W        W 8210   8.111   6.155   9.737  0.1858 -0.0005 -0.0868
 4692W        W 8211   8.331   7.875   0.637 -0.0368  0.0966  0.0509
 4693W        W 8212   9.072   0.443   2.010  0.1354  0.2589  0.3611
 4694W        W 8213   5.720   2.918   0.917  0.1678  0.2392 -0.2244
 4695W        W 8214   5.824   4.225   9.750  0.1609  0.0010  0.2577
 4696W        W 8215   6.067   0.671   3.832  0.1823  0.3108  0.2417
 4697W        W 8216   0.064   2.534   1.699  0.4564  0.0897  0.1650
 4698W        W 8217   5.008   1.888   1.701 -0.0902  0.0210  0.0657
 4699W        W 8218   6.673   1.320   7.751 -0.1256  0.0534 -0.0081
 4700W        W 8219   8.770   0.753   0.599  0.1680  0.0820  0.1560
 4701W        W 8220   2.752   9.627  10.742 -0.0810  0.2598 -0.4904
 4702W        W 8221   7.953   6.850  10.348  0.0025  0.3092 -0.1251
 4703W        W 8222   4.441   9.262   4.213 -0.1447  0.0721 -0.1870
 4704W        W 8223   5.287   9.326   0.934 -0.1065  0.0498 -0.1835
 4705W        W 8224   4.091   1.793   1.773 -0.0782 -0.2262 -0.0040
 4706W        W 8225   7.078   7.914  10.907  0.0232 -0.3858 -0.4152
 4707W        W 8226   5.437   7.004  11.723 -0.0980  0.3125 -0.1543
 4708W        W 8227   3.349   1.799  12.170 -0.0710 -0.4577 -0.0536
 4709W        W 8228   1.568   0.869  12.329  0.0827  0.2236  0.0114
 4710W        W 8229   2.370   1.545   9.858  0.1399  0.3117  0.0624
 4711W        W 8230   1.158   7.416   1.618 -0.2985  0.1343  0.1388
 4712W        W 8231   4.633   0.312   1.417 -0.2383 -0.1814 -0.4935
 4713W        W 8232   3.872   6.457  10.930  0.0125  0.1762  0.0460
 4714W        W 8233   2.311   0.538  11.498 -0.0811  0.1316  0.1039
 4715W        W 8234   9.432   8.010   9.065  0.0627  0.2161 -0.3375
 4716W        W 8235   4.096   8.513   9.058 -0.3000  0.0399 -0.2272
 4717W        W 8236   9.604   0.024   8.453  0.2465  0.2369 -0.1093
 4718W        W 8237   6.634   2.961  11.955  0.2314 -0.2346 -0.4154
 4719W        W 8238   1.763   2.447  10.543  0.0012  0.4452  0.0580
 4720W        W 8239   7.494   7.585  10.150 -0.1163 -0.4601 -0.0772
 4721W        W 8240   4.634   5.319  11.190  0.1093 -0.1481 -0.0359
 4722W        W 8241   5.038   2.515   8.574 -0.1206  0.0771  0.1720
 4723W        W 8242   4.914   8.987   1.054 -0.2625 -0.1511 -0.2149
 4724W        W 8243   3.933   2.458   1.222 -0.1745 -0.0002  0.1826
 4725W        W 8244   1.452   4.966   3.156 -0.0624  0.1455  0.0661
 4726W        W 8245   9.678   5.714  11.337  0.1534 -0.0780  0.0068
 4727W        W 8246   0.667   8.166   2.314 -0.1696  0.2768  0.0981
 4728W        W 8247   3.210   2.672  10.985 -0.2524 -0.1606  0.0773
 4729W        W 8248   7.424   6.424  11.220 -0.0477  0.2377  0.3396
 4730W        W 8249   9.117   3.563  10.839  0.0255  0.1660  0.2980
 4731W        W 8250   7.607   4.827  10.984 -0.3734  0.1016 -0.1627
 4732W        W 8251   9.018   5.490   9.349 -0.0068  0.0521 -0.3245
 4733W        W 8252   3.354   2.433   9.211 -0.1741  0.0412  0.0019
 4734W        W 8253   2.776   1.450  10.717 -0.3122  0.0380 -0.2694
 4735W        W 8254   8.395   5.916   8.794 -0.0795  0.2261 -0.2097
 4736W        W 8255   7.948   7.645   7.913 -0.1030 -0.2616 -0.2976
 4737W        W 8256   2.466   8.111  10.708  0.2720  0.0135 -0.0555
 4738W        W 8257   4.491   9.472   9.175 -0.0373 -0.1633  0.0712
 4739W        W 8258   6.274   4.607   9.011  0.0976 -0.2293  0.0058
 4740W        W 8259   3.557   6.349  11.862 -0.4113  0.1434 -0.2828
 4741W        W 8260   0.879   8.185  11.936  0.1041 -0.0150  0.0949
 4742W        W 8261   8.938   2.158   1.638 -0.2590 -0.1753  0.2336
 4743W        W 8262   5.918   5.808   9.251 -0.1755 -0.2911  0.0956
 4744W        W 8263   0.408   8.405   8.614  0.0961  0.0167  0.1041
 4745W        W 8264   9.226   2.122   4.281  0.2962  0.0925  0.1594
 4746W        W 8265   0.596   6.714   3.744 -0.1542  0.0289  0.0403
 4747W        W 8266   3.594   8.690   1.860 -0.2231  0.1173 -0.1812
 4748W        W 8267   8.856   5.369  11.726  0.1606  0.0997 -0.0589
 4749W        W 8268   7.023   1.757  11.965 -0.0616  0.0745  0.3556
 4750W        W 8269   2.397   0.936   8.625 -0.1291  0.1372  0.0219
 4751W        W 8270   0.445   2.699   3.951 -0.1255  0.0170  0.0971
 4752W        W 8271   9.258   4.235   1.103 -0.0508  0.0298  0.0279
 4753W        W 8272   2.184   7.380  11.093 -0.0262 -0.3547  0.2321
 4754W        W 8273   1.192   9.451   3.262 -0.1294 -0.3018  0.1912
 4755W        W 8274   7.166   2.242  10.800  0.1028 -0.0845  0.1184
 4756W        W 8275   8.237   5.628  11.802 -0.1295  0.0864 -0.0991
 4757W        W 8276   7.334   2.025   4.269 -0.1048  0.0300  0.1505
 4758W        W 8277   1.860   3.414   0.726  0.1226 -0.1296 -0.0156
 4759W        W 8278   8.560   5.222   0.578  0.1074  0.0284  0.0714
 4760W        W 8279   3.183   7.877  11.117 -0.0718 -0.0880 -0.0945
 4761W        W 8280   7.453   4.619  10.007  0.1786  0.0331  0.1183
 4762W        W 8281   4.113   2.217   3.208 -0.2163 -0.0104 -0.3334
 4763W        W 8282   5.579   6.683   2.795  0.2431  0.0454 -0.1687
 4764W        W 8283   1.821   9.697   9.904  0.2043  0.0406  0.1595
 4765W        W 8284   5.474   1.230  11.402  0.0358 -0.0188 -0.1413
 4766W        W 8285   2.925   5.969  10.504 -0.1070  0.0857 -0.2473
 4767W        W 8286   3.906   7.627  11.928 -0.2265  0.0381  0.1647
 4768W        W 8287   5.089   9.046   0.541  0.1350  0.2736 -0.5171
 4769W        W 8288   9.536   5.910  10.526  0.1389  0.0411 -0.1283
 4770W        W 8289   3.849   3.883   1.962  0.2730 -0.2920 -0.0739
 4771W        W 8290   7.461   4.705   3.796  0.2713  0.0370  0.1261
 4772W        W 8291   5.780   9.448   2.542 -0.2228  0.0869 -0.3785
 4773W        W 8292   9.526   0.804  10.337 -0.3151  0.0304 -0.1512
 4774W        W 8293   6.390   2.378  11.543 -0.1760 -0.1233  0.0294
 4775W        W 8294   3.285   7.254   1.914 -0.0670 -0.2406  0.0471
 4776W        W 8295   7.009   8.920  11.075 -0.0785 -0.1027  0.1658
 4777W        W 8296   0.076   0.793  11.972  0.1262 -0.5994 -0.3459
 4778W        W 8297   1.065   7.238   3.928  0.1421 -0.0679 -0.1252
 4779W        W 8298   1.961   7.006   0.123  0.1968  0.0365  0.3031
 4780W        W 8299   8.005   2.452   9.288 -0.2789  0.3932  0.0555
 4781W        W 8300   0.365   8.255   3.304 -0.1266  0.0479  0.0307
 4782W        W 8301   2.228   1.227   3.671 -0.1717 -0.3122  0.2882
 4783W        W 8302   3.295   4.084  11.528  0.1953  0.0149  0.4325
 4784W        W 8303   7.966   5.726   3.603 -0.0369 -0.2577 -0.0437
 4785W        W 8304   1.167   5.410   3.277 -0.4923 -0.0174  0.0199
 4786W        W 8305   7.472   9.342  12.101 -0.1038  0.1062 -0.1509
 4787W        W 8306   0.528   1.342   3.094  0.0768  0.0895  0.0561
 4788W        W 8307   8.039   3.856   0.029 -0.0738  0.2146  0.2330
 4789W        W 8308   3.832   3.523  11.932  0.1350  0.1120  0.2830
 4790W        W 8309   4.875   3.183   0.481  0.0352 -0.1181 -0.3118
 4791W        W 8310   0.922   4.587  10.551  0.0466 -0.0780 -0.1337
 4792W        W 8311   0.361   5.752  10.400 -0.1120 -0.0449 -0.0010
 4793W        W 8312   4.120   5.008  10.190  0.0379 -0.0065  0.1490
 4794W        W 8313   3.403   6.481   3.127  0.1157  0.1186 -0.0553
 4795W        W 8314   5.581   6.795   0.027  0.0450  0.1181  0.1954
 4796W        W 8315   8.176   0.521   7.980 -0.1262 -0.0648  0.0113
 4797W        W 8316   8.221   8.456  10.104  0.2807  0.1388 -0.0655
 4798W        W 8317   3.499   3.195   8.840 -0.0417  0.1027  0.1114
 4799W        W 8318   9.527   0.347   3.907 -0.3335 -0.0945 -0.1847
 4800W        W 8319   6.150   7.841  11.153  0.4413  0.0390  0.0100
 4801W        W 8320   1.927   1.957  10.734 -0.0220 -0.0983 -0.0382
 4802W        W 8321   0.185   7.794   2.015 -0.3657 -0.1635 -0.3618
 4803W        W 8322   4.478   9.075   9.522  0.0429 -0.2486 -0.2448
 4804W        W 8323   8.048   6.514   9.438 -0.0114 -0.0723  0.1141
 4805W        W 8324   4.349   1.766   0.928 -0.0012  0.0528  0.0904
 4806W        W 8325   0.191   4.093   9.198 -0.1210 -0.0320  0.1307
 4807W        W 8326   2.012   1.996   1.723 -0.0246  0.1492  0.3414
 4808W        W 8327   8.597   0.606   1.174  0.4795  0.1895  0.0537
 4809W        W 8328   0.887   9.697   0.029  0.1982 -0.0282 -0.1824
 4810W        W 8329   8.483   0.319   0.761 -0.0246  0.1562 -0.0538
 4811W        W 8330   9.461   2.679   9.294 -0.2154  0.2289  0.0064
 4812W        W 8331   4.207   6.738  12.223  0.1276 -0.1867 -0.3641
 4813W        W 8332   9.034   2.726   2.899 -0.0120 -0.0388 -0.0541
 4814W        W 8333   2.741   8.822  11.226  0.2735  0.0370 -0.1792
 4815W        W 8334   2.365   8.509   9.479  0.1771 -0.0668  0.0344
 4816W        W 8335   4.260   4.699  11.960 -0.0067  0.0250 -0.1670
 4817W        W 8336   1.697   0.807  10.164  0.0330 -0.1569  0.1451
 4818W        W 8337   0.426   1.695   0.033  0.0879  0.0414  0.0710
 4819W        W 8338   6.478   3.492  11.924  0.0059 -0.1602  0.1655
 4820W        W 8339   5.456   2.975  10.018 -0.3833  0.3001 -0.0160
 4821W        W 8340   7.583   6.770   3.304 -0.2123  0.4216 -0.1630
 4822W        W 8341   9.475   1.858   0.322 -0.1314 -0.0710 -0.0228
 4823W        W 8342   2.085   0.434   0.805 -0.0594 -0.1556  0.3126
 4824W        W 8343   0.596   9.106   8.059  0.1618  0.2888 -0.2569
 4825W        W 8344   9.057   2.859   9.923  0.1712  0.1097 -0.2240
 4826W        W 8345   8.641   0.904   9.170  0.1664  0.4282 -0.1037
 4827W        W 8346   9.683   1.159   0.791 -0.0667 -0.2537 -0.1909
 4828W        W 8347   3.181   6.938   3.244  0.0644 -0.0584  0.0770
 4829W        W 8348   5.960   5.262   2.195  0.0200 -0.2198 -0.2167
 4830W        W 8349   5.275   9.539  11.087 -0.3053 -0.0940 -0.0915
 4831W        W 8350   7.239   8.863  10.631 -0.0697 -0.3485 -0.1164
 4832W        W 8351   3.796   5.379  10.832  0.0304  0.0001  0.0817
 4833W        W 8352   3.021   1.101   9.430  0.0888  0.3285  0.0077
 4834W        W 8353   0.946   0.824   8.123  0.1123 -0.3004 -0.0846
 4835W        W 8354   0.087   6.019   0.516 -0.1820 -0.2322 -0.1136
 4836W        W 8355   5.545   7.421  10.203  0.0963 -0.2458  0.1560
 4837W        W 8356   2.549   2.453   3.505  0.0250 -0.1260 -0.0619
 4838W        W 8357   0.228   2.122   9.961 -0.0130 -0.4609 -0.2652
 4839W        W 8358   7.404   2.988  12.244  0.1612 -0.3936  0.1375
 4840W        W 8359   1.789   0.231   2.641  0.0069 -0.1327  0.0900
 4841W        W 8360   6.323   7.907   3.556 -0.0147  0.0803 -0.0250
 4842W        W 8361   2.113   2.616   0.912  0.0186 -0.0742 -0.0090
 4843W        W 8362   4.926   4.437   0.705 -0.2312 -0.4686 -0.2615
 4844W        W 8363   5.922   5.934   1.357  0.1090  0.3047 -0.1359
 4845W        W 8364   5.888   2.774   1.530 -0.0745  0.1634  0.1715
 4846W        W 8365   3.369   3.047   3.340  0.2806 -0.2413  0.0778
 4847W        W 8366   2.048   3.740   7.788 -0.0353 -0.0152  0.1493
 4848W        W 8367   6.764   6.259  12.240  0.2011 -0.1740 -0.1482
 4849W        W 8368   5.908   2.990  12.399  0.0545 -0.2607  0.2112
 4850W        W 8369   2.274   2.433   3.003  0.0925  0.4450 -0.2595
 4851W        W 8370   3.557   6.258   0.659  0.1950  0.0001  0.0925
 4852W        W 8371   9.100   3.369   9.842 -0.1979 -0.1630 -0.0023
 4853W        W 8372   1.164   5.494   2.389 -0.0383  0.2873 -0.0871
 4854W        W 8373   9.076   4.760   1.329 -0.0753 -0.0074  0.0554
 4855W        W 8374   2.561   3.634  10.659  0.0905 -0.3613  0.0915
 4856W        W 8375   9.563   5.974   2.486 -0.0640  0.3698  0.1177
 4857W        W 8376   0.038   5.604   8.675  0.1933 -0.2894  0.0460
 4858W        W 8377   3.338   1.315  11.413 -0.2340  0.1026 -0.1071
 4859W        W 8378   7.914   2.035   3.021 -0.4750 -0.0232 -0.1754
 4860W        W 8379   6.501   3.899   3.887  0.1868  0.2178  0.0907
 4861W        W 8380   1.961   7.940   0.074 -0.1013 -0.3200  0.4043
 4862W        W 8381   2.685   7.632   0.512  0.0841 -0.1457  0.3704
 4863W        W 8382   0.085   3.364   9.677  0.0440 -0.1702 -0.1129
 4864W        W 8383   0.298   7.836   0.114 -0.2608  0.0956 -0.1898
 4865W        W 8384   4.056   3.480   2.223  0.2705 -0.0422  0.1440
 4866W        W 8385   0.748   0.752   8.592 -0.1324  0.1343 -0.3366
 4867W        W 8386   2.046   2.502  10.991  0.0530 -0.3191 -0.1163
 4868W        W 8387   1.359   7.599   9.347 -0.1772 -0.1677 -0.0332
 4869W        W 8388   7.507   7.320  11.593 -0.0875 -0.0617 -0.4011
 4870W        W 8389   4.809   6.997   1.011  0.3996  0.1735 -0.0744
 4871W        W 8390   3.778   8.165   0.492 -0.1596  0.0229  0.2062
 4872W        W 8391   3.151   5.575  12.363  0.0608 -0.0307  0.1775
 4873W        W 8392   7.572   2.967   3.801  0.3033  0.0623  0.1775
 4874W        W 8393   5.542   8.475   1.562 -0.1515 -0.2194  0.2002
 4875W        W 8394   0.849   4.084   1.442  0.1458 -0.1221  0.3301
 4876W        W 8395   8.264   0.791   9.961 -0.1547  0.1563  0.2186
 4877W        W 8396   2.386   7.665   2.262 -0.1704  0.1018 -0.2514
 4878W        W 8397   7.066   1.207  12.021 -0.0199  0.1428 -0.1489
 4879W        W 8398   6.670   7.540  11.931  0.1039 -0.2632  0.1369
 4880W        W 8399   5.422   1.892  10.932 -0.2653  0.1665  0.3775
 4881W        W 8400   4.705   6.090   9.659 -0.0365 -0.3115 -0.0688
 4882W        W 8401   4.420   8.987   1.082 -0.0598  0.0027  0.0284
 4883W        W 8402   3.347   4.436   2.637  0.0493  0.2766  0.0887
 4884W        W 8403   1.580   8.901   1.544 -0.0649 -0.2699 -0.1572
 4885W        W 8404   3.936   0.164  11.555 -0.0698 -0.0422  0.0317
 4886W        W 8405   2.606   2.034   9.067 -0.0958 -0.1421  0.1097
 4887W        W 8406   2.400   7.447  10.279 -0.0465 -0.4949  0.0579
 4888W        W 8407   8.639   1.336   0.124  0.3949  0.1863 -0.0249
 4889W        W 8408   6.061   4.165   1.681 -0.3220  0.0375  0.1343
 4890W        W 8409   6.236   7.321  10.346  0.0207  0.0558  0.1786
 4891W        W 8410   9.676   9.594   9.218 -0.1074  0.2265 -0.0431
 4892W        W 8411   0.563   5.087  11.365 -0.1326  0.3878  0.3426
 4893W        W 8412   3.662   0.904   0.688 -0.1354 -0.0826 -0.0544
 4894W        W 8413   0.463   2.738   2.071 -0.1424  0.0168 -0.1941
 4895W        W 8414   9.466   3.139  10.107  0.2778 -0.0344  0.1150
 4896W        W 8415   4.046   1.893   2.457  0.3681  0.3479 -0.0807
 4897W        W 8416   3.277   6.746  10.163  0.0762 -0.3462  0.3386
 4898W        W 8417   7.281   3.463  12.290 -0.1296  0.3825 -0.4306
 4899W        W 8418   6.552   1.871   0.609 -0.0818  0.3575  0.1207
 4900W        W 8419   8.158   6.171   8.313  0.3765  0.2529 -0.0134
 4901W        W 8420   3.736   2.510   3.074  0.0735 -0.1210 -0.0885
 4902W        W 8421   2.618   1.518   2.560 -0.0859 -0.2381 -0.0332
 4903W        W 8422   7.537   9.568   0.691 -0.2260  0.2565 -0.1331
 4904W        W 8423   3.914   6.472   1.745  0.1236  0.1757  0.5590
 4905W        W 8424   7.217   9.255   9.140  0.3460 -0.0121  0.0587
 4906W        W 8425   3.861   9.347   1.811  0.0365 -0.2470  0.3016
 4907W        W 8426   6.763   1.418  10.580 -0.0269  0.0261 -0.0630
 4908W        W 8427   0.649   3.280   1.263 -0.0589 -0.0828  0.1884
 4909W        W 8428   6.816   8.092  12.349  0.4880 -0.0940  0.0090
 4910W        W 8429   8.725   9.107   2.085  0.0832 -0.2878  0.0383
 4911W        W 8430   4.267   7.997  11.913 -0.3714  0.3529 -0.1073
 4912W        W 8431   5.855   0.790  12.282  0.1644  0.1339 -0.0338
 4913W        W 8432   0.104   2.388   2.228  0.4021  0.2243 -0.2640
 4914W        W 8433   8.850   7.025   0.736  0.1887  0.1012  0.2092
 4915W        W 8434   4.079   3.082   1.827  0.1309  0.0511 -0.0340
 4916W        W 8435   0.248   3.910   0.296 -0.0353 -0.1745 -0.1556
 4917W        W 8436   0.491   8.173   3.809  0.2106 -0.0987  0.4481
 4918W        W 8437   2.658   8.871   9.783 -0.0386 -0.2720 -0.2398
 4919W        W 8438   2.103   4.091  10.028  0.1496  0.0003  0.0174
 4920W        W 8439   1.760   8.797   8.880 -0.2318 -0.0466  0.1305
 4921W        W 8440   1.609   0.695   2.666 -0.0482 -0.0824 -0.2349
 4922W        W 8441   6.364   4.395   0.153  0.0109 -0.1973 -0.0661
 4923W        W 8442   8.876   5.756   8.387  0.0924  0.1187  0.0522
 4924W        W 8443   6.077   0.646   1.167 -0.0979 -0.3560 -0.0367
 4925W        W 8444   0.788   7.527   2.917  0.2837 -0.0637  0.0119
 4926W        W 8445   2.316   0.337   1.968 -0.1957 -0.1831  0.0402
 4927W        W 8446   1.748   9.634   0.584  0.1777 -0.0300  0.3129
 4928W        W 8447   2.744   9.077   0.470  0.0145  0.1387  0.0762
 4929W        W 8448   4.286   0.050  10.160 -0.0983 -0.1244  0.0539
 4930W        W 8449   2.830   4.638   9.672  0.1228  0.4561 -0.2152
 4931W        W 8450   6.235   3.383   2.194 -0.2150  0.0037  0.1795
 4932W        W 8451   9.650   7.780   4.262 -0.0794  0.0357 -0.1736
 4933W        W 8452   9.580   7.289  10.736  0.1342  0.1324  0.1547
 4934W        W 8453   6.857   1.906   4.149 -0.0287 -0.1270  0.1902
 4935W        W 8454   1.766   6.799   3.699  0.1335 -0.0756 -0.0517
 4936W        W 8455   2.061   7.912  10.286 -0.1174 -0.0689  0.3201
 4937W        W 8456   2.195   3.183   3.538  0.0797 -0.2017 -0.2179
 4938W        W 8457   6.204   5.478  11.053 -0.3753 -0.0177  0.1870
 4939W        W 8458   8.941   0.901   3.167  0.1209 -0.5439 -0.0609
 4940W        W 8459   8.525   0.423  12.142 -0.0746  0.0618 -0.4024
 4941W        W 8460   5.634   0.820   1.939 -0.2053 -0.1905  0.0891
 4942W        W 8461   6.104   8.920   3.286 -0.3268  0.0430  0.0077
 4943W        W 8462   9.417   2.042   1.851 -0.0585  0.0854 -0.1143
 4944W        W 8463   6.391   4.015   2.033 -0.3402  0.1777  0.1672
 4945W        W 8464   8.144   3.240  11.054  0.0403 -0.0434 -0.3735
 4946W        W 8465   6.872   9.013   0.133 -0.0780  0.0722 -0.1559
 4947W        W 8466   3.466   2.160   2.482  0.1085  0.3926  0.1528
 4948W        W 8467   2.748   3.691   3.001 -0.0943  0.4326 -0.1166
 4949W        W 8468   6.121   0.999   1.594  0.1484  0.0903  0.6076
 4950W        W 8469   0.030   9.263   9.613  0.1686 -0.2127 -0.0530
 4951W        W 8470   9.669   3.580  12.322 -0.0858 -0.0924 -0.1994
 4952W        W 8471   6.248   7.787   2.722 -0.1394  0.0999  0.0470
 4953W        W 8472   8.066   8.897  10.325  0.1494  0.0233 -0.2874
 4954W        W 8473   5.728   7.444   9.012 -0.3055  0.2811 -0.1060
 4955W        W 8474   1.141   1.214   9.609  0.0778  0.0479 -0.1444
 4956W        W 8475   0.481   1.372   1.228 -0.2118  0.0646  0.1506
 4957W        W 8476   8.529   8.660   1.778  0.0554  0.0013  0.1999
 4958W        W 8477   7.291   3.558   3.830  0.0846  0.0242 -0.2478
 4959W        W 8478   4.761   1.801   8.910 -0.2521  0.0098 -0.1208
 4960W        W 8479   9.477   8.598   3.936  0.3721 -0.1413 -0.1807
 4961W        W 8480   2.262   7.382   0.239  0.0737  0.0549 -0.0357
 4962W        W 8481   6.995   1.965   0.400 -0.4413  0.1533 -0.0141
 4963W        W 8482   5.392   0.185  11.438 -0.3848 -0.2398 -0.0966
 4964W        W 8483   5.134   0.436  10.283  0.1471 -0.3028  0.1635
 4965W        W 8484   5.766   5.432   8.925  0.0402 -0.0088 -0.1690
 4966W        W 8485   6.502   5.351   0.975 -0.1560 -0.1886 -0.0766
 4967W        W 8486   7.348   5.084   1.335  0.0824 -0.0670  0.2180
 4968W        W 8487   3.043   9.601   9.377 -0.0232 -0.0202 -0.3940
 4969W        W 8488   5.817   3.563   8.729 -0.4205  0.3786  0.0390
 4970W        W 8489   6.628   1.142   2.379  0.0806 -0.1221 -0.1419
 4971W        W 8490   0.216   0.931   1.272 -0.0969  0.2856 -0.1995
 4972W        W 8491   1.145   8.143   2.365 -0.0293  0.1278 -0.2455
 4973W        W 8492   6.841   4.582   8.914  0.1594 -0.2336  0.2480
 4974W        W 8493   8.411   6.281   4.349  0.0234  0.2239 -0.0658
 4975W        W 8494   4.727   8.195   9.494 -0.0841  0.2682  0.0700
 4976W        W 8495   4.880   5.869  11.037  0.1928  0.0425  0.2450
 4977W        W 8496   5.128   7.071   9.513 -0.7905  0.1263 -0.0851
 4978W        W 8497   0.765   9.504   8.295  0.1116 -0.3622  0.4153
 4979W        W 8498   0.536   4.914   8.101 -0.4140  0.3014  0.3749
 4980W        W 8499   2.037   8.310  10.575 -0.1984 -0.2876 -0.0388
 4981W        W 8500   0.365   5.982  12.164  0.0115  0.1001 -0.1590
 4982W        W 8501   8.876   0.038   9.721 -0.1669 -0.1107  0.0350
 4983W        W 8502   6.013   2.104  10.401  0.3326 -0.0523  0.2173
 4984W        W 8503   8.093   4.675   8.534  0.2393  0.2912  0.0081
 4985W        W 8504   4.853   2.751   0.219  0.0340  0.3356 -0.1138
 4986W        W 8505   8.486   5.894   2.626  0.1333  0.1030  0.3173
 4987W        W 8506   8.521   0.000   8.716  0.2180  0.0104 -0.0685
 4988W        W 8507   2.339   2.951   2.346 -0.3716  0.1237 -0.1861
 4989W        W 8508   8.766   0.399   9.150  0.0568  0.1328  0.1036
 4990W        W 8509   8.352   7.064   1.047 -0.1394  0.0007  0.0218
 4991W        W 8510   2.411   0.019  11.487  0.0582  0.1027  0.2026
 4992W        W 8511   5.332   0.939   3.770 -0.1675 -0.1137 -0.0305
 4993W        W 8512   1.383   3.662   3.684  0.1346  0.0386 -0.1711
 4994W        W 8513   1.180   0.605   1.037  0.2549  0.0873  0.0707
 4995W        W 8514   6.639   5.172  12.385 -0.0832 -0.1028 -0.1772
 4996W        W 8515   4.889   0.350  11.340 -0.0886  0.0267 -0.1527
 4997W        W 8516   6.962   6.292  10.528 -0.1676 -0.0220 -0.0811
 4998W        W 8517   2.865   1.527  11.538 -0.3342 -0.4027  0.0246
 4999W        W 8518   3.563   6.639   9.631 -0.2943 -0.2976  0.0455
 5000W        W 8519   2.228   6.868   0.565 -0.2438 -0.0762 -0.1647
 5001W        W 8520   7.343   7.015   1.472  0.1216  0.0609 -0.1097
 5002W        W 8521   6.434   4.899  10.280  0.1791  0.1753 -0.0071
 5003W        W 8522   9.460   8.805   3.514  0.0053  0.3021  0.0811
 5004W        W 8523   1.579   3.186  11.347  0.0647 -0.1673  0.2431
 5005W        W 8524   5.862   5.388  11.852 -0.1582 -0.3596  0.2460
 5006W        W 8525   1.071   8.686   1.157 -0.0549 -0.0092  0.3282
 5007W        W 8526   1.734   8.059   1.127 -0.3636 -0.1944  0.0792
 5008W        W 8527   3.547   3.908   1.483 -0.0148  0.0166 -0.1741
 5009W        W 8528   3.881   3.501  10.243  0.0237 -0.0684 -0.1604
 5010W        W 8529   0.303   8.824   9.160  0.0410 -0.0894  0.3950
 5011W        W 8530   5.249   8.546  10.814 -0.0297  0.4823  0.1017
 5012W        W 8531   8.929   9.277  10.016  0.1320  0.1228 -0.0737
 5013W        W 8532   6.323   8.099   8.366 -0.1199  0.1350 -0.2302
 5014W        W 8533   5.968   5.871   3.306  0.1163  0.1100  0.0160
 5015W        W 8534   6.702   8.909  10.333  0.0024 -0.1341 -0.0909
 5016W        W 8535   0.841   0.489   9.102 -0.0084 -0.1743  0.0756
 5017W        W 8536   7.591   2.993   1.464 -0.0202  0.1502 -0.0935
 5018W        W 8537   1.849   3.776   3.465  0.0672  0.0262 -0.1582
 5019W        W 8538   5.641   1.779   1.067  0.1109 -0.1133 -0.2497
 5020W        W 8539   4.956   4.680  11.386 -0.2943  0.1499  0.0347
 5021W        W 8540   5.022   4.241   1.714 -0.0008 -0.0084 -0.2240
 5022W        W 8541   0.619   4.420   9.536  0.3533  0.1984  0.0616
 5023W        W 8542   6.313   9.138   8.694 -0.3471 -0.0732 -0.0148
 5024W        W 8543   1.262   4.736  11.846  0.0150  0.0188 -0.0800
 5025W        W 8544   2.970   3.897  10.397  0.2415  0.2395  0.3788
 5026W        W 8545   7.811   3.651  11.194  0.1682  0.2599 -0.1522
 5027W        W 8546   1.930   5.181  10.700 -0.0698  0.2018 -0.1005
 5028W        W 8547   6.436   2.862   8.675  0.2532 -0.0152  0.0974
 5029W        W 8548   2.553   2.020   3.283  0.1631  0.1285 -0.1023
 5030W        W 8549   8.525   7.301   8.657 -0.0433  0.0846 -0.3074
 5031W        W 8550   4.951   2.954   2.598 -0.1407 -0.3400 -0.1428
 5032W        W 8551   1.148   2.604   0.935  0.4161  0.0508  0.4103
 5033W        W 8552   5.682   8.734   8.608 -0.1880  0.2422  0.1506
 5034W        W 8553   7.869   1.419   2.528  0.3595 -0.0074 -0.3091
 5035W        W 8554   0.004   0.712   3.452 -0.0384 -0.0856  0.3379
 5036W        W 8555   4.449   8.567   8.589 -0.0541  0.0373 -0.1524
 5037W        W 8556   4.933   6.097   3.501  0.2311 -0.3878  0.2181
 5038W        W 8557   1.475   0.688   2.108 -0.0018 -0.1315 -0.0479
 5039W        W 8558   6.235   6.017   8.472 -0.0413 -0.0128  0.2586
 5040W        W 8559   8.764   6.836   2.418 -0.2858  0.0678  0.0242
 5041W        W 8560   1.259   2.012   1.684  0.0872 -0.3122  0.0806
 5042W        W 8561   0.749   4.897  12.105 -0.0466 -0.3340 -0.0307
 5043W        W 8562   3.250   8.273   1.898  0.1662  0.0099  0.1632
 5044W        W 8563   3.586   4.145   9.119  0.0888 -0.1401 -0.0381
 5045W        W 8564   8.503   7.758   7.789  0.1492  0.1945 -0.1846
 5046W        W 8565   9.253   6.795  10.431 -0.0918  0.0529  0.2628
 5047W        W 8566   1.356   2.171  10.686 -0.0117  0.1690 -0.2763
 5048W        W 8567   8.366   3.567   0.475  0.3705  0.0550  0.2926
 5049W        W 8568   1.290   2.784   9.995 -0.0680  0.1015  0.1485
 5050W        W 8569   1.729   2.341   1.883 -0.3309  0.1127  0.1350
 5051W        W 8570   4.564   9.495  10.527 -0.2755  0.0526 -0.1274
 5052W        W 8571   0.025   9.050   3.829 -0.0185  0.1589  0.0972
 5053W        W 8572   1.585   4.006  10.413 -0.0189 -0.0837 -0.0597
 5054W        W 8573   5.446   7.621   3.102  0.2271 -0.0204  0.2430
 5055W        W 8574   4.419   1.946   9.375  0.0376  0.4860 -0.1513
 5056W        W 8575   6.717   6.062   2.818  0.3902 -0.3772 -0.0442
 5057W        W 8576   0.555   7.475  10.289 -0.2053 -0.0849 -0.0491
 5058W        W 8577   4.082   8.814  12.328 -0.0697 -0.1392 -0.0507
 5059W        W 8578   3.733   7.816   8.704  0.1206  0.1330 -0.4814
 5060W        W 8579   2.309   5.402   2.414 -0.0792  0.1696 -0.1518
 5061W        W 8580   2.051   1.439   1.630  0.0696  0.1809 -0.4069
 5062W        W 8581   3.266   0.762   7.806 -0.2020  0.0069 -0.0574
 5063W        W 8582   6.761   9.159   7.770  0.1070 -0.1376 -0.1928
 5064W        W 8583   0.035   0.317  11.944  0.2974 -0.0124 -0.2257
 5065W        W 8584   9.343   4.891  12.398  0.4050  0.0638 -0.2071
 5066W        W 8585   1.645   1.591   2.408 -0.2040  0.2339  0.1214
 5067W        W 8586   1.169   5.432  12.331  0.0359  0.3688 -0.0822
 5068W        W 8587   6.063   3.398   0.150 -0.1912  0.3338  0.2387
 5069W        W 8588   3.710   7.539   2.107 -0.2827 -0.2160  0.0246
 5070W        W 8589   5.626   3.587  11.903 -0.1308 -0.1377  0.1275
 5071W        W 8590   6.603   1.142   0.232  0.0016 -0.0944 -0.1434
 5072W        W 8591   8.113   5.672   9.550 -0.0437  0.1476 -0.0425
 5073W        W 8592   5.799   9.210   9.437  0.2568 -0.2593 -0.1663
 5074W        W 8593   0.724   7.512   0.149 -0.1673 -0.2535  0.0541
 5075W        W 8594   7.862   5.087   2.825  0.0762 -0.0609  0.1117
 5076W        W 8595   2.429   5.117  11.064  0.1339  0.0269  0.1093
 5077W        W 8596   8.894   3.270   2.207 -0.0829 -0.1978  0.1921
 5078W        W 8597   0.587   2.249   0.002 -0.0898  0.1853  0.3020
 5079W        W 8598   2.131   7.035   1.195 -0.0449  0.4574 -0.0510
 5080W        W 8599   7.032   4.666   9.754  0.0364  0.0397 -0.0914
 5081W        W 8600   2.943   2.486   3.785 -0.1062 -0.3327  0.1047
 5082W        W 8601   4.167   2.654   0.668 -0.1131  0.2093 -0.0023
 5083W        W 8602   4.730   2.772   0.768  0.2045 -0.0506 -0.0354
 5084W        W 8603   5.083   2.779  10.544  0.2128 -0.1873  0.2596
 5085W        W 8604   8.717   0.735   1.639 -0.1995  0.0948 -0.0383
 5086W        W 8605   2.687   5.566   3.258 -0.0243 -0.1828  0.0678
 5087W        W 8606   7.326   5.686  11.443  0.2690 -0.0428 -0.1654
 5088W        W 8607   7.301   6.142  12.159 -0.2928  0.0890 -0.0509
 5089W        W 8608   8.905   8.617   9.398  0.0523  0.2317 -0.2424
 5090W        W 8609   8.692   1.495   9.658  0.0967  0.2615 -0.0724
 5091W        W 8610   9.207   5.114   2.830 -0.2572  0.2074 -0.3981
 5092W        W 8611   3.528   1.636   9.227  0.0795  0.1035 -0.0675
 5093W        W 8612   0.068   3.451  11.407 -0.0123  0.0500  0.1861
 5094W        W 8613   1.370   4.850   9.087 -0.1900  0.3077 -0.1000
 5095W        W 8614   6.314   1.608   2.271  0.2226 -0.0622  0.0795
 5096W        W 8615   0.992   1.638   8.591 -0.0023  0.2095  0.2783
 5097W        W 8616   0.112   6.210   8.705 -0.1129  0.2427 -0.0784
 5098W        W 8617   6.192   9.453   3.306 -0.1887 -0.0340  0.0313
 5099W        W 8618   2.972   1.871   9.743 -0.2671 -0.4438  0.0669
 5100W        W 8619   7.088   1.475   7.481  0.3378 -0.1555 -0.1706
 5101W        W 8620   8.029   2.922   1.810  0.0198 -0.0998 -0.1273
 5102W        W 8621   9.231   6.851   3.398 -0.2616  0.1237  0.1622
 5103W        W 8622   3.948   8.056  12.415 -0.1310  0.1136  0.1361
 5104W        W 8623   7.512   9.561   1.209 -0.1669  0.1162  0.1163
 5105W        W 8624   0.433   3.993   9.714 -0.2696  0.4928  0.0467
 5106W        W 8625   5.813   3.247   1.823  0.0207  0.1384  0.1590
 5107W        W 8626   3.479   4.372   3.125  0.1560  0.1423  0.2269
 5108W        W 8627   8.670   1.912   2.496  0.0868 -0.0183  0.2964
 5109W        W 8628   3.515   0.913   3.282  0.0312  0.0815  0.0309
 5110W        W 8629   6.940   0.560   8.946 -0.0008 -0.1816  0.1329
 5111W        W 8630   9.338   3.489   9.425  0.0126  0.3735  0.1362
 5112W        W 8631   9.001   7.292  10.804  0.0707  0.1825  0.0139
 5113W        W 8632   9.504   1.285   9.345  0.0354 -0.0154 -0.1069
 5114W        W 8633   5.268   2.715   9.018 -0.1466  0.1452  0.1626
 5115W        W 8634   0.026   9.494  12.052 -0.3322 -0.0790  0.1132
 5116W        W 8635   3.402   6.518   1.972  0.3429 -0.3363  0.0177
 5117W        W 8636   3.591   2.058   9.008 -0.1260  0.0903  0.1858
 5118W        W 8637   4.253   9.223  11.837 -0.1706  0.1206 -0.2077
 5119W        W 8638   5.659   0.358   4.015 -0.1352 -0.0233  0.0842
 5120W        W 8639   6.888   3.467  10.410  0.2526 -0.0980  0.0668
 5121W        W 8640   3.699   8.494  11.515  0.1391  0.0124 -0.0231
 5122W        W 8641   3.644   4.741   2.175  0.0437  0.0631 -0.0028
 5123W        W 8642   8.002   4.121   9.970 -0.3567 -0.3648 -0.1186
 5124W        W 8643   7.465   3.473   7.656 -0.3001  0.3071 -0.2129
 5125W        W 8644   7.495   7.103  10.883 -0.0099 -0.0022  0.0116
 5126W        W 8645   8.962   6.492   0.183  0.1551  0.1764  0.0370
 5127W        W 8646   3.052   4.589  11.604 -0.1252 -0.0169 -0.0847
 5128W        W 8647   3.160   7.639   3.022  0.0250 -0.1526  0.2178
 5129W        W 8648   7.569   2.481   3.920  0.3709  0.2489  0.0154
 5130W        W 8649   1.270   4.908  12.314 -0.0300 -0.0509  0.0261
 5131W        W 8650   4.639   0.735   4.112  0.3265 -0.3113  0.0942
 5132W        W 8651   3.064   4.279   8.709 -0.0761 -0.1701  0.0596
 5133W        W 8652   1.228   8.179   1.225 -0.1635 -0.1526  0.1651
 5134W        W 8653   3.830   2.529  10.273  0.1458 -0.0214  0.1820
 5135W        W 8654   7.588   2.348  10.468  0.0965  0.0878 -0.1350
 5136W        W 8655   8.385   9.633   3.601 -0.5628  0.0807  0.0808
 5137W        W 8656   6.347   4.741  11.708 -0.3346  0.1229 -0.0237
 5138W        W 8657   4.176   7.659   2.467 -0.3911  0.2980 -0.0219
 5139W        W 8658   0.654   3.633  10.775  0.0473 -0.1070  0.2159
 5140W        W 8659   1.321   3.249  10.863  0.1105 -0.1415  0.1377
 5141W        W 8660   8.381   7.662   2.180  0.0740 -0.1273  0.0970
 5142W        W 8661   9.404   1.534   3.604 -0.0791 -0.4232 -0.3030
 5143W        W 8662   5.698   1.523   9.377 -0.0345  0.2095 -0.1435
 5144W        W 8663   2.821   4.996   9.195  0.0491 -0.2518  0.0472
 5145W        W 8664   6.536   0.317   2.067 -0.2221  0.0258  0.1815
 5146W        W 8665   2.435   4.143   8.644  0.4029 -0.0826 -0.1329
 5147W        W 8666   7.738   2.168   0.886 -0.2400  0.1604 -0.3132
 5148W        W 8667   3.392   6.813  11.790 -0.3187 -0.0848  0.0010
 5149W        W 8668   6.050   0.968   0.180 -0.2954 -0.0864  0.0198
 5150W        W 8669   4.204   2.495  12.196 -0.1050  0.0254 -0.0734
 5151W        W 8670   4.716   2.105   1.022  0.1586 -0.0595  0.3074
 5152W        W 8671   9.049   2.288  12.317 -0.2299  0.2441  0.5052
 5153W        W 8672   0.917   7.754   3.789 -0.0334 -0.1717 -0.4715
 5154W        W 8673   8.061   6.597   3.262 -0.1068 -0.2513  0.1357
 5155W        W 8674   2.578   6.940   1.441 -0.0758 -0.0081 -0.1182
 5156W        W 8675   7.897   0.959  10.663 -0.4703 -0.1281 -0.0373
 5157W        W 8676   8.167   5.018   2.420 -0.1417 -0.1744  0.4031
 5158W        W 8677   4.918   6.150   0.434 -0.1693  0.4704  0.1238
 5159W        W 8678   6.502   0.121  11.168  0.2010  0.1209 -0.2226
 5160W        W 8679   6.466   2.901  10.386 -0.2595  0.2937  0.2019
 5161W        W 8680   8.214   3.227  10.502 -0.0655 -0.1384 -0.2947
 5162W        W 8681   7.586   0.744   0.574 -0.3091 -0.2282 -0.3573
 5163W        W 8682   1.801   6.826  11.822 -0.0359  0.1634 -0.1887
 5164W        W 8683   4.904   7.949  10.350  0.4018 -0.1485  0.3228
 5165W        W 8684   5.031   7.227   1.909 -0.0842  0.0593 -0.1203
 5166W        W 8685   5.320   9.096   9.605 -0.0899 -0.0695 -0.1548
 5167W        W 8686   5.276   1.749  11.486 -0.0319 -0.1100 -0.0835
 5168W        W 8687   6.511   0.914   0.667 -0.3546 -0.1669  0.0518
 5169W        W 8688   6.620   7.072   2.039  0.0552  0.1216 -0.1816
 5170W        W 8689   4.758   2.644  11.648  0.0696  0.2160  0.1901
 5171W        W 8690   0.727   8.404   9.250  0.3986  0.0916  0.0335
 5172W        W 8691   9.405   1.948  10.175  0.0266 -0.1300 -0.2507
 5173W        W 8692   3.069   6.494  12.039  0.1313 -0.4008 -0.0871
 5174W        W 8693   7.411   9.653   1.713  0.1075 -0.2871 -0.1772
 5175W        W 8694   1.047   8.103  11.378 -0.2093 -0.1684 -0.2498
 5176W        W 8695   5.483   6.061   0.551 -0.0904 -0.5922  0.0932
 5177W        W 8696   6.782   8.258   3.478  0.1704 -0.1468 -0.2580
 5178W        W 8697   2.574   3.290   2.748 -0.0724  0.0285 -0.0684
 5179W        W 8698   2.175   4.838  11.959 -0.0167 -0.0638 -0.1477
 5180W        W 8699   7.344   4.331   8.162 -0.5477  0.1091  0.1317
 5181W        W 8700   3.537   4.523   1.247 -0.1757 -0.1858  0.1701
 5182W        W 8701   3.927   5.994   1.505  0.1679 -0.2412 -0.1212
 5183W        W 8702   4.501   6.734  11.752 -0.1526 -0.2723 -0.0296
 5184W        W 8703   7.533   4.563   4.289  0.1331  0.0757  0.0417
 5185W        W 8704   8.585   3.148   9.099 -0.1196 -0.0574 -0.0375
 5186W        W 8705   0.635   0.288  11.345 -0.0858 -0.0122  0.0455
 5187W        W 8706   5.691   6.101  11.955  0.1653 -0.2017 -0.0175
 5188W        W 8707   7.374   8.605   2.367  0.1910  0.2187  0.0903
 5189W        W 8708   6.713   5.492   9.151  0.2426 -0.1286 -0.1389
 5190W        W 8709   9.210   2.007   3.656 -0.1371 -0.1211 -0.2758
 5191W        W 8710   9.173   7.874  12.181 -0.1960  0.2721  0.1745
 5192W        W 8711   1.035   2.401   1.936  0.3168 -0.0224  0.0365
 5193W        W 8712   3.216   2.689   9.723 -0.0518  0.1071 -0.0490
 5194W        W 8713   7.940   8.086  10.394  0.0932  0.0351 -0.3569
 5195W        W 8714   7.946   0.621   2.986 -0.0091 -0.1402  0.1640
 5196W        W 8715   8.526   3.151   9.704  0.0708 -0.3601 -0.0102
 5197W        W 8716   9.697   7.648   0.931 -0.3248 -0.0115  0.2324
 5198W        W 8717   3.997   9.474   8.990 -0.0136 -0.1269 -0.2117
 5199W        W 8718   9.339   4.470  10.849  0.0807 -0.2676  0.3681
 5200W        W 8719   2.205   1.645  12.242 -0.0815  0.1106  0.3220
 5201W        W 8720   2.032   4.368   3.630 -0.2538 -0.1957 -0.1713
 5202W        W 8721   9.028   8.997   9.060  0.3315 -0.0517  0.2302
 5203W        W 8722   8.422   9.149  10.583  0.0001  0.1554 -0.0460
 5204W        W 8723   0.906   0.057  11.715 -0.1056 -0.0898 -0.2358
 5205W        W 8724   3.234   5.468   3.116  0.2311  0.1415  0.1999
 5206W        W 8725   8.990   9.080  11.062  0.1481 -0.0613 -0.6379
 5207W        W 8726   8.420   7.282   3.606 -0.2584  0.2288 -0.2955
 5208W        W 8727   6.344   6.174   1.144  0.0490  0.1917 -0.1758
 5209W        W 8728   0.554   5.022   0.436 -0.4328 -0.2862 -0.0467
 5210W        W 8729   7.307   0.665  11.336  0.3068 -0.2076  0.0413
 5211W        W 8730   7.166   9.120  10.187 -0.0447 -0.2817 -0.2279
 5212W        W 8731   2.734   3.397   8.409 -0.1017 -0.2200  0.0978
 5213W        W 8732   0.561   8.251   0.374 -0.0938 -0.0107  0.4207
 5214W        W 8733   0.438   2.752   9.380 -0.0599 -0.1287  0.1186
 5215W        W 8734   4.790   0.516   9.635 -0.3445  0.1759  0.1249
 5216W        W 8735   3.975   6.884   1.516  0.1222  0.0858  0.0335
 5217W        W 8736   4.243   2.766   1.500 -0.1841  0.2661 -0.2786
 5218W        W 8737   0.787   6.689   0.595  0.1658 -0.2324  0.4354
 5219W        W 8738   9.375   1.900  12.358 -0.0732  0.1167 -0.0446
 5220W        W 8739   0.833   0.326   9.561 -0.2755 -0.1783  0.0403
 5221W        W 8740   3.728   8.376   8.757  0.1380 -0.0393 -0.1868
 5222W        W 8741   3.355   4.049  10.683 -0.3037  0.2093  0.2048
 5223W        W 8742   3.648   4.466   8.746  0.3809  0.1779 -0.0009
 5224W        W 8743   1.664   2.440  12.123 -0.0914 -0.0763  0.4323
 5225W        W 8744   4.832   4.793  11.904  0.2472 -0.2123  0.1732
 5226W        W 8745   4.754   4.962   9.919  0.3152  0.0540  0.1460
 5227W        W 8746   4.690   9.137  11.709  0.1894  0.2308  0.0624
 5228W        W 8747   2.504   4.744   4.114  0.2683 -0.0542  0.1161
 5229W        W 8748   4.005   6.469   0.167  0.3568 -0.1194 -0.1056
 5230W        W 8749   2.167   1.970  11.248  0.0202  0.0635  0.3459
 5231W        W 8750   2.715   9.349  11.311  0.0825  0.0509  0.0918
 5232W        W 8751   0.258   7.114  10.160 -0.0087 -0.0565 -0.0866
 5233W        W 8752   1.867   7.505  10.099  0.2312 -0.1907 -0.1521
 5234W        W 8753   3.594   3.662   2.347 -0.0711  0.0726 -0.0052
 5235W        W 8754   6.882   9.574   2.672  0.0872 -0.1999 -0.3096
 5236W        W 8755   4.191   4.203   9.729 -0.3195  0.3320  0.0411
 5237W        W 8756   6.221   5.717  10.590 -0.0138 -0.1254  0.0654
 5238W        W 8757   4.898   4.425   8.745 -0.2207  0.2812 -0.3762
 5239W        W 8758   6.054   8.327   0.981  0.1500 -0.1507 -0.1099
 5240W        W 8759   9.552   4.878   9.188 -0.0022  0.0043 -0.0413
 5241W        W 8760   8.338   8.591   2.283  0.3510 -0.0267 -0.1058
 5242W        W 8761   7.292   3.181   8.834  0.2409 -0.1018 -0.1913
 5243W        W 8762   3.250   5.775   9.732  0.2528 -0.1071  0.1953
 5244W        W 8763   0.830   7.949   0.067 -0.2269 -0.0882  0.1498
 5245W        W 8764   3.240   3.363   0.720 -0.2833 -0.3582  0.0928
 5246W        W 8765   1.040   4.387   1.083  0.1452  0.3515 -0.1420
 5247W        W 8766   4.544   8.650   3.466 -0.1007  0.0303 -0.0713
 5248W        W 8767   3.802   8.642   9.512 -0.4944 -0.1091 -0.3331
 5249W        W 8768   2.838   5.346  10.956 -0.3045  0.1951 -0.0188
 5250W        W 8769   3.488   1.981   9.668 -0.2157  0.0504  0.1650
 5251W        W 8770   1.562   1.069  11.841 -0.0942 -0.1300 -0.2346
 5252W        W 8771   6.300   9.248  12.495 -0.0828  0.2008 -0.0856
 5253W        W 8772   4.435   3.348  10.422 -0.0622  0.1590  0.3384
 5254W        W 8773   6.866   8.533   3.876 -0.0451 -0.0931 -0.0483
 5255W        W 8774   0.247   5.732   2.286 -0.4200  0.2543 -0.0408
 5256W        W 8775   8.271   2.890   2.227  0.1000  0.1422  0.1291
 5257W        W 8776   4.987   2.236   9.007 -0.0205 -0.1365 -0.2562
 5258W        W 8777   4.792   5.934   3.051  0.0712  0.3641  0.3997
 5259W        W 8778   6.586   1.509   9.909 -0.3485  0.1035 -0.0764
 5260W        W 8779   9.066   4.832   2.453 -0.0596 -0.0166  0.0026
 5261W        W 8780   5.689   1.357  12.207  0.0204  0.2222  0.1393
 5262W        W 8781   3.820   8.119   9.246  0.1449  0.1346  0.0931
 5263W        W 8782   9.610   8.189   1.827  0.1154  0.3675  0.0822
 5264W        W 8783   8.672   3.910   3.988 -0.1773  0.1535 -0.1763
 5265W        W 8784   7.054   9.550   0.895  0.2293  0.1127 -0.1702
 5266W        W 8785   1.154   4.753  10.933 -0.2530  0.0056 -0.5434
 5267W        W 8786   4.842   8.623  12.242 -0.0151  0.1175  0.0832
 5268W        W 8787   4.818   0.043  10.952 -0.0146 -0.2174 -0.0487
 5269W        W 8788   3.096   8.944  10.136  0.2654 -0.4576 -0.0940
 5270W        W 8789   6.583   1.530   0.962  0.2735 -0.3308 -0.0461
 5271W        W 8790   2.563   1.196   2.182  0.0518 -0.0103 -0.1602
 5272W        W 8791   7.116   0.905   8.283  0.0591  0.1327 -0.0302
 5273W        W 8792   2.150   9.004  10.814  0.1232 -0.2261  0.1047
 5274W        W 8793   6.138   1.330  11.913  0.2771 -0.1026  0.6639
 5275W        W 8794   1.693   3.206  10.018  0.0373 -0.2397  0.0502
 5276W        W 8795   8.999   0.279   3.103  0.1846  0.0753  0.2030
 5277W        W 8796   3.575   2.396   9.893 -0.2220  0.2721  0.1685
 5278W        W 8797   9.168   3.431  11.704 -0.2265 -0.4297 -0.0282
 5279W        W 8798   1.345   0.526   0.420  0.1572 -0.3192 -0.0630
 5280W        W 8799   2.866   5.074   1.227 -0.0109  0.2444  0.0206
 5281W        W 8800   0.581   6.819   9.174  0.4593 -0.0115 -0.0168
 5282W        W 8801   1.207   5.825  11.972  0.2996 -0.4073  0.0210
 5283W        W 8802   7.049   7.020  10.642 -0.0401  0.0168  0.0086
 5284W        W 8803   2.331   0.265   2.470 -0.2223  0.0363  0.0366
 5285W        W 8804   7.479   0.539   2.910 -0.4030 -0.0048 -0.0473
 5286W        W 8805   1.046   5.263   0.493 -0.1556 -0.2259  0.0647
 5287W        W 8806   6.459   8.105   1.358 -0.0022 -0.2089  0.1676
 5288W        W 8807   8.064   2.479  11.910  0.2031 -0.0347  0.1570
 5289W        W 8808   0.351   8.990   4.490  0.1320 -0.2739 -0.1730
 5290W        W 8809   7.197   7.563  10.605 -0.0372  0.2801  0.0922
 5291W        W 8810   0.952   2.933   2.148  0.0323  0.0591  0.0922
 5292W        W 8811   7.479   0.389   8.556 -0.0325 -0.0661 -0.2081
 5293W        W 8812   3.285   1.606   1.827 -0.0087 -0.0686  0.0521
 5294W        W 8813   2.125   6.964   9.318  0.3373 -0.2026  0.3488
 5295W        W 8814   8.271   4.847   1.973  0.0125  0.1893 -0.3020
 5296W        W 8815   0.879   4.722   9.144  0.1135  0.2355 -0.0810
 5297W        W 8816   4.168   5.201  12.057  0.1482  0.0722  0.2589
 5298W        W 8817   1.249   1.025  10.050  0.1509  0.1970 -0.2211
 5299W        W 8818   8.340   7.790   1.138  0.3093 -0.1495  0.1774
 5300W        W 8819   1.213   4.603  10.149 -0.2569 -0.0305  0.1512
 5301W        W 8820   4.295   1.224  11.249 -0.1125  0.3554 -0.2645
 5302W        W 8821   0.194   4.587  11.483 -0.1913  0.2973  0.2790
 5303W        W 8822   7.348   2.520  11.224 -0.2953  0.0033 -0.0326
 5304W        W 8823   6.101   4.635   9.906 -0.0790  0.2604 -0.2037
 5305W        W 8824   7.657   9.193  10.528  0.2290 -0.1454 -0.3901
 5306W        W 8825   8.108   6.939   4.194 -0.1562  0.1124  0.1747
 5307W        W 8826   4.046   2.164   9.830 -0.0383 -0.0318  0.5685
 5308W        W 8827   7.121   1.846   2.905 -0.1992  0.2226  0.1029
 5309W        W 8828   1.770   3.391  10.549 -0.3979  0.3229 -0.0332
 5310W        W 8829   4.881   8.705   9.521 -0.0711 -0.0030 -0.1330
 5311W        W 8830   5.261   7.437   0.271 -0.1774  0.0404 -0.1716
 5312W        W 8831   8.654   6.460   1.551 -0.0896  0.0466 -0.0879
 5313W        W 8832   6.297   7.808   9.760 -0.1485 -0.1575 -0.1080
 5314W        W 8833   2.666   9.527   2.175  0.2705  0.0756 -0.1145
 5315W        W 8834   6.767   4.175  12.436 -0.0700 -0.2763 -0.2065
 5316W        W 8835   4.688   3.997  10.878 -0.3049  0.0007  0.0245
 5317W        W 8836   5.477   5.407  10.091  0.1141  0.2764  0.0062
 5318W        W 8837   4.375   0.047   3.271 -0.0187 -0.1073  0.1441
 5319W        W 8838   3.849   7.370   1.103  0.1656 -0.2664  0.0194
 5320W        W 8839   2.967   0.765  10.945  0.0032 -0.3698  0.1175
 5321W        W 8840   3.734   1.937   2.860  0.3085 -0.4168  0.0560
 5322W        W 8841   2.349   7.252   9.808  0.1545 -0.1611 -0.0056
 5323W        W 8842   2.377   0.079  10.426 -0.1035  0.0775  0.1728
 5324W        W 8843   0.126   2.406   8.939 -0.3078  0.2105  0.0200
 5325W        W 8844   4.471   8.271  10.043  0.0596 -0.3016  0.3198
 5326W        W 8845   3.361   1.808   4.181 -0.1515  0.1193  0.0202
 5327W        W 8846   2.484   8.895  10.334 -0.3684 -0.0671  0.0847
 5328W        W 8847   1.519   9.460   2.412 -0.2477 -0.0476  0.0644
 5329W        W 8848   3.494   8.136   2.360  0.1245 -0.1028  0.0630
 5330W        W 8849   0.052   2.874  11.228 -0.0458  0.1747 -0.0479
 5331W        W 8850   8.603   7.986   4.566 -0.0288 -0.1497 -0.2136
 5332W        W 8851   0.609   7.956   1.863 -0.1829 -0.0860  0.2441
 5333W        W 8852   0.433   5.798   0.234  0.1634 -0.3252 -0.0962
 5334W        W 8853   8.455   8.174  11.775 -0.0217  0.0302  0.0530
 5335W        W 8854   7.020   4.649   1.453  0.1311  0.2450  0.0365
 5336W        W 8855   7.483   7.318  12.224  0.0206 -0.0538 -0.0856
 5337W        W 8856   2.868   2.652   0.900 -0.0264  0.0279 -0.0467
 5338W        W 8857   3.432   6.836   1.551  0.1661  0.1948  0.3034
 5339W        W 8858   9.709   2.141  11.529  0.2609  0.1070 -0.2106
 5340W        W 8859   7.916   8.351   0.073  0.1763 -0.3741 -0.1051
 5341W        W 8860   7.877   7.713  11.354  0.1891 -0.1518  0.0667
 5342W        W 8861   2.324   1.413   1.218 -0.0136  0.2242 -0.0078
 5343W        W 8862   7.100   7.894  10.210  0.1842  0.0085 -0.1401
 5344W        W 8863   8.267   0.884   1.394 -0.0776  0.0813 -0.1047
 5345W        W 8864   9.162   4.922   1.974 -0.3942  0.0982 -0.0859
 5346W        W 8865   1.664   9.116   3.183  0.1444 -0.0503 -0.1005
 5347W        W 8866   6.993   7.848   9.373  0.1981  0.3390 -0.1147
 5348W        W 8867   2.577   6.376  12.180 -0.2766 -0.0985 -0.3886
 5349W        W 8868   5.447   5.085   2.226 -0.1191  0.0309  0.0088
 5350W        W 8869   0.792   6.874   3.331  0.1744  0.3189  0.1445
 5351W        W 8870   1.362   4.166   4.075  0.1613  0.0537 -0.0879
 5352W        W 8871   1.017   6.785  10.957  0.0018 -0.2362  0.1900
 5353W        W 8872   2.454   0.156   4.238  0.0411 -0.0268  0.0078
 5354W        W 8873   2.321   8.008   3.282  0.1402 -0.2551  0.1703
 5355W        W 8874   4.505   5.211   3.845  0.0546 -0.0833 -0.1433
 5356W        W 8875   2.236   5.190  11.523  0.2812 -0.0947 -0.2072
 5357W        W 8876   8.705   8.244  12.182  0.3745  0.1710  0.0617
 5358W        W 8877   4.754   3.863   3.619  0.0719  0.1491 -0.1385
 5359W        W 8878   1.665   1.691  12.005  0.0837 -0.0735 -0.1656
 5360W        W 8879   4.046   0.526  10.148  0.0513  0.0078  0.4980
 5361W        W 8880   8.521   3.140  11.344 -0.1855 -0.0429  0.0349
 5362W        W 8881   4.585   3.469   0.751  0.0835  0.0706 -0.2922
 5363W        W 8882   5.703   6.365   1.543 -0.2968  0.0005  0.0515
 5364W        W 8883   7.433   8.132   2.368 -0.2027 -0.0104 -0.2146
 5365W        W 8884   2.518   3.684   1.676  0.1947  0.1004  0.2279
 5366W        W 8885   9.302   8.960  10.638  0.1690 -0.2757 -0.2014
 5367W        W 8886   1.476   8.051  11.658  0.0431 -0.3643 -0.0136
 5368W        W 8887   4.414   0.386  11.606  0.0964  0.0080 -0.4606
 5369W        W 8888   5.652   0.181  10.898 -0.3028 -0.3672  0.4700
 5370W        W 8889   9.297   0.022  11.966  0.0961 -0.0772 -0.2639
 5371W        W 8890   3.451   4.326  10.307  0.1262 -0.2054  0.0884
 5372W        W 8891   1.879   7.428  12.328 -0.0386 -0.3301 -0.0978
 5373W        W 8892   4.985   5.494  12.269  0.1589  0.1118  0.3408
 5374W        W 8893   1.908   1.307   9.526  0.0035  0.0605 -0.1769
 5375W        W 8894   0.648   7.228  11.668 -0.2199 -0.2609 -0.0480
 5376W        W 8895   4.645   8.620   9.058  0.0954  0.0523  0.2437
 5377W        W 8896   5.198   1.528  12.405  0.0163  0.0371 -0.2707
 5378W        W 8897   6.492   3.952   0.390 -0.1019 -0.2576 -0.2267
 5379W        W 8898   4.191   7.055  11.534  0.1230  0.0480 -0.0872
 5380W        W 8899   2.973   8.149   1.150 -0.1901 -0.2624 -0.0224
 5381W        W 8900   5.777   6.198  10.787 -0.2282  0.1151 -0.1363
 5382W        W 8901   4.522   2.333   8.555  0.3136 -0.2946 -0.1023
 5383W        W 8902   6.204   7.599   1.465  0.2203 -0.2217  0.1000
 5384W        W 8903   9.649   5.712   0.124 -0.1058  0.0132 -0.0657
 5385W        W 8904   1.637   4.541   0.008  0.1088 -0.1980  0.0573
 5386W        W 8905   7.076   8.468   8.701 -0.2935 -0.0736  0.1004
 5387W        W 8906   8.875   4.043  11.989 -0.0665  0.0285 -0.3838
 5388W        W 8907   9.693   5.082   0.655  0.3535 -0.1582  0.0035
 5389W        W 8908   5.886   2.821  10.217 -0.0602  0.0512  0.1404
 5390W        W 8909   0.544   8.675   2.337  0.2284 -0.0800 -0.0065
 5391W        W 8910   3.052   6.797   1.161 -0.0972 -0.2451  0.1249
 5392W        W 8911   9.024   4.576   9.345  0.0199  0.1602  0.2848
 5393W        W 8912   5.870   3.963   2.734  0.3006  0.3919  0.0119
 5394W        W 8913   2.541   0.105   1.253 -0.1529  0.2938 -0.4437
 5395W        W 8914   7.471   7.956  10.521  0.0975  0.0872 -0.4712
 5396W        W 8915   1.787   5.051   8.857 -0.1883  0.1248  0.1006
 5397W        W 8916   1.533   6.793   2.740 -0.1160  0.2787  0.0835
 5398W        W 8917   8.529   8.050   0.092 -0.2433 -0.0581  0.0078
 5399W        W 8918   1.712   3.580  11.034 -0.1813  0.0683  0.3838
 5400W        W 8919   3.240   8.338   0.252 -0.0717  0.0996 -0.1048
 5401W        W 8920   0.409   7.334   2.687  0.2070 -0.1038  0.1489
 5402W        W 8921   6.723   0.033  11.622  0.1346  0.4039  0.1196
 5403W        W 8922   3.393   4.251   0.800  0.0756  0.0612 -0.2027
 5404W        W 8923   5.151   3.745   3.280  0.2115  0.0079  0.1952
 5405W        W 8924   5.214   8.147   3.135  0.2434  0.1903 -0.0381
 5406W        W 8925   0.892   7.838  10.193  0.0011  0.1662 -0.3511
 5407W        W 8926   0.558   7.460   1.850 -0.0571  0.1084  0.1162
 5408W        W 8927   7.387   5.890   1.087 -0.0388 -0.2849 -0.0620
 5409W        W 8928   2.028   1.849   0.636  0.1708 -0.4327  0.3988
 5410W        W 8929   4.834   6.643   0.492 -0.2694 -0.0585  0.2380
 5411W        W 8930   7.422   5.300   0.879  0.1069 -0.2701 -0.0162
 5412W        W 8931   3.916   0.975   9.830  0.0166  0.1876  0.1795
 5413W        W 8932   2.448   9.523  12.193  0.0620 -0.0383  0.2756
 5414W        W 8933   7.871   2.579  12.355  0.4501  0.0022  0.2084
 5415W        W 8934   8.672   6.080  10.036  0.4153  0.0082  0.0887
 5416W        W 8935   0.004   2.909   2.230 -0.0127 -0.1704 -0.1362
 5417W        W 8936   4.572   0.428   1.881 -0.0448  0.1254  0.0732
 5418W        W 8937   5.694   1.152   1.140 -0.0283 -0.0249 -0.2392
 5419W        W 8938   2.813   3.266   1.761  0.0131 -0.3099 -0.1385
 5420W        W 8939   1.514   1.591   9.367  0.0657  0.2298 -0.1787
 5421W        W 8940   5.232   6.437   2.514  0.0138 -0.5149  0.4421
 5422W        W 8941   3.332   4.636   3.636 -0.0967  0.0994 -0.3506
 5423W        W 8942   1.420   1.739  10.957  0.1212  0.2476  0.1758
 5424W        W 8943   6.722   3.607   0.042 -0.0658 -0.0300 -0.0117
 5425W        W 8944   3.227   3.351   2.056 -0.1578 -0.1992  0.2231
 5426W        W 8945   7.770   8.617   3.686  0.0851 -0.2862  0.1371
 5427W        W 8946   7.834   6.732  10.896  0.0412 -0.1775 -0.0689
 5428W        W 8947   5.758   3.497   9.220 -0.0037 -0.4005  0.1243
 5429W        W 8948   3.362   7.579   2.509 -0.1164 -0.0083 -0.0158
 5430W        W 8949   2.028   8.553  12.328  0.0778 -0.2341  0.1401
 5431W        W 8950   7.190   7.088   2.141  0.0495  0.2263 -0.1878
 5432W        W 8951   9.234   6.811   2.677  0.1058  0.2442  0.2448
 5433W        W 8952   7.400   8.295   9.074 -0.0027  0.1219  0.1450
 5434W        W 8953   3.205   8.787   0.450 -0.0762  0.2437 -0.4826
 5435W        W 8954   7.088   6.752  10.212 -0.0227  0.2042  0.0195
 5436W        W 8955   3.089   3.019   3.747 -0.0055  0.0345  0.0062
 5437W        W 8956   8.291   8.623   2.865 -0.1657  0.0369  0.0173
 5438W        W 8957   7.924   1.146  11.148  0.0330  0.1854 -0.1409
 5439W        W 8958   8.717   1.406   4.247  0.1135  0.3884  0.3936
 5440W        W 8959   4.056   7.167   2.197 -0.0046  0.1228 -0.3727
 5441W        W 8960   0.915   6.813   2.850  0.2937  0.2228  0.0138
 5442W        W 8961   3.905   2.422  11.114 -0.1614  0.1158  0.0910
 5443W        W 8962   4.924   6.825   1.649  0.2052  0.1577 -0.2868
 5444W        W 8963   7.927   4.986   1.542 -0.0533 -0.0340  0.1667
 5445W        W 8964   5.561   5.509   1.965 -0.1341  0.0161 -0.1974
 5446W        W 8965   6.217   1.149   3.994 -0.0025 -0.1263  0.0282
 5447W        W 8966   8.049   8.667  12.180 -0.1423 -0.2385 -0.2527
 5448W        W 8967   0.825   6.961   1.915  0.1819  0.3321  0.0146
 5449W        W 8968   8.823   7.380   7.906 -0.1435 -0.2580  0.0173
 5450W        W 8969   0.696   4.127   1.914  0.2216  0.3937 -0.0058
 5451W        W 8970   7.872   3.557   0.639  0.4746  0.1765 -0.2687
 5452W        W 8971   5.163   5.213   0.726  0.1408 -0.2675  0.0033
 5453W        W 8972   8.037   4.705   9.664  0.1927  0.1678  0.0363
 5454W        W 8973   0.299   1.006  10.574 -0.1284  0.0181 -0.4084
 5455W        W 8974   4.718   5.351   1.027 -0.1301 -0.0608 -0.1488
 5456W        W 8975   2.312   1.498   9.217  0.3347  0.0438 -0.0765
 5457W        W 8976   7.699   3.391   3.439  0.1342 -0.0809  0.2878
 5458W        W 8977   1.704   8.579   3.060  0.0769 -0.0850  0.0596
 5459W        W 8978   6.884   6.151  10.068 -0.1943  0.3314 -0.2703
 5460W        W 8979   7.551   0.164  11.372 -0.0217  0.1245 -0.0012
 5461W        W 8980   3.496   1.742  11.682 -0.0544 -0.0986  0.1561
 5462W        W 8981   3.757   6.592   2.309  0.0247  0.4303  0.3209
 5463W        W 8982   5.689   6.901   0.896  0.0535 -0.3663  0.0128
 5464W        W 8983   0.082   2.118   0.057 -0.0972 -0.0147 -0.0269
 5465W        W 8984   6.570   0.291   2.687  0.1340 -0.0031 -0.2427
 5466W        W 8985   5.260   9.626  12.492  0.2668  0.0929 -0.0935
 5467W        W 8986   2.528   8.916   1.482 -0.0920  0.1807  0.1026
 5468W        W 8987   9.604   1.162   1.580 -0.1845  0.0586 -0.0957
 5469W        W 8988   4.079   3.122   9.908  0.0889 -0.1324  0.1264
 5470W        W 8989   0.746   2.354   2.950  0.0179  0.0838  0.2645
 5471W        W 8990   5.136   7.408   9.896 -0.1317 -0.0585  0.2276
 5472W        W 8991   1.054   9.088  10.788  0.0994 -0.1512  0.0807
 5473W        W 8992   0.231   3.245  10.891 -0.0297  0.3526 -0.1003
 5474W        W 8993   1.737   6.597  10.322  0.0588  0.1290  0.1159
 5475W        W 8994   5.399   3.680  10.569  0.1073 -0.3489 -0.5524
 5476W        W 8995   3.547   3.335   1.162  0.1218  0.0138  0.0529
 5477W        W 8996   3.435   5.731   2.289 -0.0921  0.2467  0.2535
 5478W        W 8997   4.662   7.831  11.520  0.2852 -0.0806  0.1503
 5479W        W 8998   2.918   0.790   8.357 -0.2587  0.0069  0.1774
 5480W        W 8999   5.736   1.016  11.859  0.1953  0.0642  0.2496
 5481W        W 9000   7.104   2.321   1.973  0.3037 -0.0191  0.0640
 5482W        W 9001   6.864   3.143  12.469 -0.1344 -0.1542 -0.1004
 5483W        W 9002   3.744   1.542   2.628  0.0191  0.0237  0.0456
 5484W        W 9003   3.542   5.662   3.435  0.1849  0.0624  0.0960
 5485W        W 9004   9.340   1.702  11.793 -0.0523 -0.3219 -0.0237
 5486W        W 9005   2.476   4.177  10.829 -0.0416  0.0698  0.1260
 5487W        W 9006   4.351   8.567   9.539  0.0742 -0.2876  0.3337
 5488W        W 9007   0.418   2.892   1.475 -0.0054  0.1692 -0.2179
 5489W        W 9008   0.648   5.594  10.801 -0.1283  0.4228  0.0907
 5490W        W 9009   1.477   8.350   2.079 -0.0995 -0.2354  0.2078
 5491W        W 9010   0.773   0.418   0.247 -0.0732 -0.1486 -0.0572
 5492W        W 9011   5.699   7.657   0.526 -0.1311 -0.0898 -0.1662
 5493W        W 9012   4.259   7.315  10.208  0.1430  0.1207  0.0214
 5494W        W 9013   7.641   6.409   9.725  0.3797 -0.2216 -0.2051
 5495W        W 9014   0.242   2.230   3.186  0.1447 -0.2069 -0.2573
 5496W        W 9015   2.118   1.865   3.221  0.1363  0.0368 -0.0857
 5497W        W 9016   8.462   2.738   9.389  0.1569 -0.1375  0.3127
 5498W        W 9017   4.986   6.006  10.391  0.1615 -0.5764  0.1134
 5499W        W 9018   9.535   9.066   9.125  0.1544  0.1677  0.0918
 5500W        W 9019   7.652   2.844  10.275  0.1417  0.1749  0.2746
 5501W        W 9020   4.519   2.377   9.863 -0.0661 -0.0050 -0.1477
 5502W        W 9021   7.525   3.478   1.115 -0.1138  0.4748 -0.1198
 5503W        W 9022   6.055   3.978   0.182 -0.0710  0.1066  0.1048
 5504W        W 9023   7.585   7.180  10.431  0.0246 -0.1094  0.1232
 5505W        W 9024   8.761   4.958   0.988  0.3097  0.0363  0.2908
 5506W        W 9025   1.903   7.184   4.198 -0.0457  0.0634 -0.0379
 5507W        W 9026   9.526   4.325   3.989  0.3648  0.3090 -0.0681
 5508W        W 9027   0.889   4.998   1.524  0.1594 -0.0572  0.1023
 5509W        W 9028   0.301   9.016  11.340 -0.1818  0.2483 -0.3948
 5510W        W 9029   5.565   3.683   3.028 -0.2798  0.3078 -0.0266
 5511W        W 9030   1.531   5.782  12.392  0.0656 -0.1214  0.3341
 5512W        W 9031   3.615   2.972   9.971  0.0883  0.5537 -0.0632
 5513W        W 9032   1.022   0.236   0.681  0.1257 -0.0438  0.0240
 5514W        W 9033   4.073   7.471   8.651 -0.2170 -0.0760 -0.1010
 5515W        W 9034   8.087   8.338   1.625 -0.0321  0.2900  0.1048
 5516W        W 9035   8.719   0.812   4.350 -0.2030  0.1149 -0.1321
 5517W        W 9036   0.362   0.435   2.249  0.0069  0.3878 -0.0136
 5518W        W 9037   8.848   8.357   9.897 -0.2106  0.1204  0.3087
 5519W        W 9038   8.453   1.666  11.811 -0.0334  0.0604 -0.1667
 5520W        W 9039   6.704   0.826   1.162  0.2145  0.1192  0.0016
 5521W        W 9040   7.273   1.865   8.959  0.1699 -0.3263 -0.1032
 5522W        W 9041   9.310   6.848  10.940  0.2797 -0.0354 -0.0565
 5523W        W 9042   9.405   5.524   2.682 -0.0620  0.1011 -0.1223
 5524W        W 9043   1.814   2.000  11.646 -0.1182  0.0430  0.0589
 5525W        W 9044   3.509   3.650   4.455 -0.3748 -0.1020  0.2089
 5526W        W 9045   2.455   0.847   4.254  0.2023  0.1444  0.0838
 5527W        W 9046   9.197   0.453   9.690  0.0424  0.3863  0.4224
 5528W        W 9047   9.152   9.296   1.818 -0.0919 -0.1044  0.1078
 5529W        W 9048   7.501   8.747  11.047 -0.1395  0.2896 -0.2127
 5530W        W 9049   8.917   3.734   9.530 -0.0373 -0.0965  0.0387
 5531W        W 9050   5.499   1.813   3.822  0.0099 -0.1253  0.2932
 5532W        W 9051   1.496   8.353   0.825 -0.1565 -0.1226  0.2512
 5533W        W 9052   2.554   6.013   3.103 -0.1141  0.0331  0.1715
 5534W        W 9053   1.210   8.191  10.296  0.1484 -0.1142 -0.0359
 5535W        W 9054   4.534   5.876  10.162 -0.0892  0.3820 -0.0912
 5536W        W 9055   6.367   6.638   8.957 -0.0796  0.3258 -0.0723
 5537W        W 9056   7.283   7.146   3.336 -0.0919 -0.0269 -0.0138
 5538W        W 9057   0.349   0.221   4.262 -0.1287 -0.1789 -0.0499
 5539W        W 9058   6.732   8.014  10.517 -0.2065 -0.0776  0.0417
 5540W        W 9059   7.000   8.234   2.642  0.1750 -0.2519 -0.2021
 5541W        W 9060   2.251   0.963  11.984  0.1945 -0.0995 -0.2222
 5542W        W 9061   6.879   0.700  10.411  0.0241 -0.2514  0.2547
 5543W        W 9062   2.216   2.552  12.317  0.1488 -0.1107  0.0395
 5544W        W 9063   6.500   7.912   9.231 -0.0675 -0.1451  0.0441
 5545W        W 9064   0.621   8.505  11.601 -0.0616  0.1804  0.2206
 5546W        W 9065   8.243   7.077   0.573 -0.3314 -0.1897 -0.0214
 5547W        W 9066   3.980   5.940   9.313  0.0355 -0.0370  0.1006
 5548W        W 9067   7.354   3.761  10.232 -0.2100 -0.2706 -0.0341
 5549W        W 9068   8.600   4.104   1.670 -0.1192 -0.3545  0.0695
 5550W        W 9069   9.584   0.785   9.007  0.1899 -0.1916 -0.1786
 5551W        W 9070   6.411   2.925  11.426  0.3366 -0.3076 -0.1437
 5552W        W 9071   6.028   8.629   0.602 -0.1851  0.2009 -0.2206
 5553W        W 9072   8.023   3.241   0.124  0.4000 -0.2319  0.0564
 5554W        W 9073   4.935   5.182   2.574 -0.3445  0.0793 -0.2042
 5555W        W 9074   8.581   2.702   8.819  0.2216 -0.0625 -0.0166
 5556W        W 9075   7.756   5.462   1.236  0.0978 -0.2422 -0.2545
 5557W        W 9076   0.126   1.677   9.933  0.3144  0.3099  0.1179
 5558W        W 9077   7.316   0.059   2.720  0.3352  0.1269 -0.2394
 5559W        W 9078   0.110   7.347   4.066  0.1656 -0.0509 -0.0738
 5560W        W 9079   8.204   8.967   9.333 -0.0314  0.0463 -0.2086
 5561W        W 9080   8.181   2.739   0.186  0.2218 -0.4064 -0.0121
 5562W        W 9081   7.346   2.187   7.893 -0.0643  0.3746  0.0571
 5563W        W 9082   6.039   3.067  10.678 -0.0735 -0.2136 -0.1348
 5564W        W 9083   4.509   7.562   2.084 -0.1696  0.0839  0.0015
 5565W        W 9084   8.714   5.113   2.023 -0.0452  0.1092 -0.0210
 5566W        W 9085   1.768   1.880   3.735 -0.1913 -0.0822  0.0711
 5567W        W 9086   1.014   8.906   3.013  0.1237  0.2661  0.1973
 5568W        W 9087   8.020   1.137   3.740  0.0153  0.0526 -0.1715
 5569W        W 9088   0.747   7.213  12.194  0.1896 -0.0103  0.3152
 5570W        W 9089   6.480   5.410  10.176 -0.1285 -0.0819 -0.0051
 5571W        W 9090   9.034   4.059   0.005  0.0300  0.0141  0.1603
 5572W        W 9091   2.500   1.559   3.058 -0.5849 -0.2264  0.0354
 5573W        W 9092   1.213   6.935   9.855 -0.0197  0.1057  0.1232
 5574W        W 9093   1.473   8.132   3.592 -0.1455  0.0478 -0.0204
 5575W        W 9094   9.243   9.227  11.666 -0.1166 -0.3351 -0.2546
 5576W        W 9095   2.317   6.390   0.682 -0.1342  0.3021  0.1531
 5577W        W 9096   8.485   5.355   4.207 -0.1436 -0.3390  0.1882
 5578W        W 9097   7.627   5.380   8.672 -0.0120 -0.0540 -0.0020
 5579W        W 9098   0.648   9.069   8.620  0.0201 -0.0662 -0.0674
 5580W        W 9099   8.211   2.290   3.930  0.0718  0.1153 -0.2346
 5581W        W 9100   2.299   5.331   9.995  0.1493 -0.1994 -0.2562
 5582W        W 9101   0.890   1.653   0.664  0.2383  0.1031  0.0534
 5583W        W 9102   8.125   1.128   9.157 -0.2221  0.2227  0.1688
 5584W        W 9103   1.908   5.059   1.507  0.2737  0.0395  0.0247
 5585W        W 9104   3.757   1.041  11.296  0.0454 -0.0194 -0.1984
 5586W        W 9105   5.279   3.267   0.946 -0.2105 -0.1763  0.3862
 5587W        W 9106   9.179   5.159  10.579 -0.4333  0.4449 -0.2613
 5588W        W 9107   3.332   8.552  11.919 -0.1113 -0.0587  0.0659
 5589W        W 9108   3.237   6.332   9.869  0.2965 -0.1448 -0.2620
 5590W        W 9109   6.542   3.302   0.375  0.2652 -0.3660 -0.2995
 5591W        W 9110   1.404   7.872   0.159 -0.0553  0.0537  0.0865
 5592W        W 9111   3.135   9.394   8.893 -0.0542  0.0787 -0.0092
 5593W        W 9112   2.207   8.848   1.042  0.0807 -0.2938 -0.4511
 5594W        W 9113   5.591   0.372   8.791  0.0277 -0.0033  0.0494
 5595W        W 9114   7.110   7.045  11.199 -0.1825 -0.1282 -0.0219
 5596W        W 9115   0.640   0.400   3.571 -0.0184  0.0495 -0.0734
 5597W        W 9116   8.109   7.312   1.389 -0.1557  0.0654  0.2796
 5598W        W 9117   5.276   1.458   1.966 -0.0528 -0.2728  0.4392
 5599W        W 9118   1.764   7.822   9.697 -0.2162 -0.1419  0.1464
 5600W        W 9119   9.670   3.326   7.969 -0.0015 -0.1547 -0.0820
 5601W        W 9120   9.637   6.179   7.725  0.1883  0.1299 -0.3075
 5602W        W 9121   0.642   5.128   9.273 -0.1479  0.1002  0.1230
 5603W        W 9122   7.617   4.293   8.601  0.0076 -0.1032 -0.1551
 5604W        W 9123   5.335   8.319   9.616  0.3201 -0.0852 -0.2308
 5605W        W 9124   1.262   8.874   0.646  0.1091 -0.2195 -0.1655
 5606W        W 9125   6.062   7.961   1.758 -0.1255 -0.1017  0.0709
 5607W        W 9126   2.922   7.894  11.569  0.1549 -0.2110 -0.0848
 5608W        W 9127   5.349   2.671   3.390 -0.2374  0.0156 -0.0723
 5609W        W 9128   9.141   5.016  11.899  0.3016 -0.2593 -0.0449
 5610W        W 9129   9.442   2.113   3.055  0.3040 -0.0313  0.0739
 5611W        W 9130   6.170   5.690   8.826 -0.1328  0.1447 -0.3413
 5612W        W 9131   4.261   3.883   0.792 -0.2733  0.2051  0.0062
 5613W        W 9132   3.858   3.987   9.997 -0.1499 -0.1386 -0.0847
 5614W        W 9133   0.060   1.600  11.490 -0.1225  0.1297 -0.1557
 5615W        W 9134   5.218   1.301   8.640  0.0168  0.0954 -0.1838
 5616W        W 9135   0.254   8.799   7.806 -0.4056 -0.4083 -0.1019
 5617W        W 9136   6.035   8.666   9.002 -0.2686  0.0329  0.1192
 5618W        W 9137   8.589   0.319  10.052  0.1046  0.0453  0.1392
 5619W        W 9138   1.668   8.641   0.440 -0.0036 -0.3392 -0.1257
 5620W        W 9139   6.235   9.351  10.305 -0.0883 -0.0487 -0.3028
 5621W        W 9140   7.614   8.598   8.594 -0.0140  0.2596 -0.0316
 5622W        W 9141   1.010   2.257   9.919  0.1650 -0.1844 -0.1009
 5623W        W 9142   4.022   8.228   1.526 -0.2130 -0.3325 -0.0478
 5624W        W 9143   2.570   0.908   0.315 -0.2016 -0.0470 -0.4541
 5625W        W 9144   7.561   1.810  11.742 -0.1364 -0.0361 -0.1591
 5626W        W 9145   6.564   9.528   1.040 -0.1687  0.2767  0.0507
 5627W        W 9146   5.504   2.985   4.442  0.0806 -0.0729 -0.1386
 5628W        W 9147   5.257   5.818   3.239 -0.1364  0.0643 -0.1271
 5629W        W 9148   2.028   8.454   0.781  0.1525  0.1450 -0.3569
 5630W        W 9149   0.743   4.795   1.122 -0.0707  0.0496  0.1204
 5631W        W 9150   1.404   2.744  10.909 -0.2322 -0.1589  0.0606
 5632W        W 9151   2.142   5.824   9.316  0.0304  0.0057 -0.0417
 5633W        W 9152   7.567   4.686   2.339 -0.1160 -0.0517 -0.2224
 5634W        W 9153   4.283   6.638  10.829 -0.0028  0.0497 -0.1748
 5635W        W 9154   5.510   4.863   0.586  0.0360 -0.5397 -0.3356
 5636W        W 9155   7.647   6.255   8.260  0.1217 -0.0369 -0.2320
 5637W        W 9156   1.569   7.976  11.193 -0.0384  0.1270  0.2367
 5638W        W 9157   7.819   3.715   3.075  0.1830  0.3554  0.1645
 5639W        W 9158   7.279   3.835   9.608 -0.0144  0.1924 -0.1022
 5640W        W 9159   0.312   4.725   9.235 -0.0682  0.0317 -0.1456
 5641W        W 9160   5.636   2.686  10.643  0.3495 -0.0344 -0.1089
 5642W        W 9161   3.255   2.554  11.651  0.0170 -0.0274 -0.0019
 5643W        W 9162   4.666   0.001   9.718  0.3856 -0.3311 -0.5300
 5644W        W 9163   8.543   6.087   0.726 -0.4009 -0.0189  0.0502
 5645W        W 9164   2.509   6.574   1.812  0.0057 -0.1488  0.1542
 5646W        W 9165   6.782   7.779   1.441  0.0899  0.4092  0.0712
 5647W        W 9166   0.246   9.235   2.966 -0.2128  0.1205 -0.2954
 5648W        W 9167   0.953   3.671   1.855 -0.3107 -0.2374  0.0586
 5649W        W 9168   8.833   4.503  10.741 -0.2311 -0.2605  0.1928
 5650W        W 9169   8.033   5.664   1.701 -0.0358  0.0449 -0.1775
 5651W        W 9170   7.106   0.073   9.109  0.1321 -0.1547  0.1225
 5652W        W 9171   5.024   2.180  11.523  0.0194  0.0979 -0.0237
 5653W        W 9172   1.114   6.594   0.206  0.4416  0.0294  0.0989
 5654W        W 9173   2.749   8.868   2.488  0.1107 -0.0226  0.1635
 5655W        W 9174   0.865   1.805   9.043  0.1130 -0.0521 -0.1092
 5656W        W 9175   1.267   9.437  11.631 -0.1632 -0.2212  0.0705
 5657W        W 9176   3.858   2.614   4.590 -0.3819 -0.1616 -0.1268
 5658W        W 9177   7.798   6.957   9.449 -0.2628 -0.1188 -0.2665
 5659W        W 9178   8.509   5.465   3.291  0.0926 -0.0672 -0.1518
 5660W        W 9179   8.723   9.007  11.531  0.4272  0.0468 -0.0488
 5661W        W 9180   5.543   2.304   1.029  0.1149  0.0812 -0.0377
 5662W        W 9181   4.856   0.784   3.002 -0.0384 -0.2207  0.3323
 5663W        W 9182   1.534   5.491   1.698 -0.1144  0.0086  0.1821
 5664W        W 9183   1.505   2.573   7.935  0.2446  0.1162  0.0330
 5665W        W 9184   5.967   7.992   0.024 -0.2036  0.3355  0.2298
 5666W        W 9185   1.136   8.139   2.952  0.1586  0.1007  0.0171
 5667W        W 9186   1.858   2.888  12.033 -0.0081 -0.1121  0.2475
 5668W        W 9187   0.881   2.282   3.930  0.0181  0.0473  0.0268
 5669W        W 9188   3.935   2.252   2.139  0.0969  0.0886  0.0180
 5670W        W 9189   6.827   1.186   4.716 -0.4103  0.1619 -0.2871
 5671W        W 9190   9.662   8.143   3.880 -0.0737  0.0374 -0.0861
 5672W        W 9191   4.633   1.483  10.357  0.2953 -0.3929 -0.4039
 5673W        W 9192   8.648   4.011  10.834 -0.2432 -0.0345 -0.3091
 5674W        W 9193   7.000   0.341   4.714 -0.0048 -0.2499  0.2439
 5675W        W 9194   7.949   8.870   3.117 -0.3176  0.3730 -0.0818
 5676W        W 9195   1.431   1.062   1.248 -0.3913  0.0441 -0.0298
 5677W        W 9196   1.485   7.069  12.179 -0.1015 -0.0875 -0.2761
 5678W        W 9197   3.377   2.488   0.086  0.0626  0.4034 -0.1843
 5679W        W 9198   1.262   7.945   9.822 -0.1382  0.1074 -0.3203
 5680W        W 9199   6.483   1.667  12.110  0.2340 -0.0452  0.1509
 5681W        W 9200   7.455   1.978   9.464  0.0134  0.2174 -0.4313
 5682W        W 9201   1.818   4.500  10.218 -0.1792 -0.1261 -0.1020
 5683W        W 9202   2.818   9.117   9.191  0.0856 -0.0104 -0.1233
 5684W        W 9203   9.589   8.188   9.561  0.0987  0.0676  0.3551
 5685W        W 9204   7.279   8.375  10.781 -0.0744 -0.0737 -0.1367
 5686W        W 9205   3.209   0.965   4.724 -0.0118 -0.1417  0.0602
 5687W        W 9206   1.192   6.395  11.775  0.0856 -0.0305 -0.1072
 5688W        W 9207   3.817   1.645   9.772  0.0106  0.0397  0.1714
 5689W        W 9208   0.638   9.562  12.118 -0.3631 -0.0520 -0.3155
 5690W        W 9209   3.234   6.323   1.124  0.1021 -0.1506 -0.3360
 5691W        W 9210   8.763   3.635   1.805  0.2933 -0.0516  0.2996
 5692W        W 9211   5.645   8.893   4.207 -0.0428 -0.2312  0.1796
 5693W        W 9212   0.736   2.004   1.525 -0.1830  0.0060 -0.4258
 5694W        W 9213   6.111   2.566  10.624 -0.1755 -0.0787 -0.1896
 5695W        W 9214   4.647   5.652   2.613 -0.1144 -0.2142 -0.2476
 5696W        W 9215   0.221   7.151   0.837 -0.4961 -0.2437 -0.2874
 5697W        W 9216   0.565   8.783  10.520 -0.1115  0.1161 -0.0281
 5698W        W 9217   7.593   2.528   8.201 -0.0836 -0.0019 -0.0104
 5699W        W 9218   3.969   1.784   9.299 -0.1361 -0.0455 -0.0061
 5700W        W 9219   3.633   3.992   3.456  0.0100 -0.1771  0.3472
 5701W        W 9220   0.909   2.699  11.716 -0.2058 -0.1328 -0.0430
 5702W        W 9221   9.454   5.582   3.475 -0.2169  0.0323  0.1152
 5703W        W 9222   2.805   2.338   2.960  0.0178 -0.1689 -0.1686
 5704W        W 9223   0.808   3.498   2.386 -0.1171 -0.3331  0.1042
 5705W        W 9224   7.288   2.811   1.062  0.2205  0.0657  0.1517
 5706W        W 9225   8.591   5.182  10.154 -0.3231 -0.1164 -0.0005
 5707W        W 9226   5.112   1.897   0.186  0.0903  0.0582 -0.1440
 5708W        W 9227   5.271   0.536  12.385  0.0055  0.2331 -0.0126
 5709W        W 9228   1.376   4.461   2.149 -0.0162  0.2467 -0.2639
 5710W        W 9229   1.457   8.944   2.317 -0.1161  0.0471  0.1892
 5711W        W 9230   9.160   4.147   7.631 -0.0479 -0.1772  0.0855
 5712W        W 9231   7.553   4.838   8.696  0.0343 -0.0220  0.1519
 5713W        W 9232   6.529   5.602   2.563  0.1552 -0.1368 -0.4959
 5714W        W 9233   4.115   1.613  12.493 -0.1105  0.4228 -0.1739
 5715W        W 9234   7.307   7.881   1.306 -0.0828 -0.3612 -0.3336
 5716W        W 9235   9.208   1.462   9.809  0.2980 -0.1613 -0.3172
 5717W        W 9236   4.402   3.835  12.491 -0.0715 -0.3581 -0.1011
 5718W        W 9237   9.482   6.217   9.710  0.2098 -0.1618 -0.1527
 5719W        W 9238   7.482   0.239   0.363 -0.1684 -0.1009  0.0410
 5720W        W 9239   9.098   2.428   2.516 -0.0674  0.1333  0.1540
 5721W        W 9240   5.412   0.601   2.305 -0.1263  0.0654 -0.1238
 5722W        W 9241   0.055   4.909   9.643 -0.0801 -0.2269  0.1816
 5723W        W 9242   1.230   7.784  10.917  0.2563 -0.2330 -0.1613
 5724W        W 9243   8.354   7.793   9.510  0.1479 -0.1937  0.0349
 5725W        W 9244   7.800   1.515   0.981 -0.0651  0.1155 -0.0328
 5726W        W 9245   5.763   0.227   8.327 -0.1245 -0.0290 -0.0465
 5727W        W 9246   5.685   3.060   0.320 -0.0955 -0.4749 -0.0960
 5728W        W 9247   8.817   0.617  11.075 -0.0679 -0.4014 -0.3295
 5729W        W 9248   3.454   7.169  10.414  0.1020 -0.4019 -0.1254
 5730W        W 9249   7.401   3.816   2.833  0.1908 -0.0306 -0.0963
 5731W        W 9250   8.708   9.103   9.474 -0.2321  0.1801 -0.0165
 5732W        W 9251   1.572   0.758  10.633 -0.0350  0.1468  0.0143
 5733W        W 9252   4.542   4.321   9.118  0.2439  0.2182  0.2083
 5734W        W 9253   1.589   8.774   8.420  0.1322  0.0244  0.0907
 5735W        W 9254   0.494   8.690   0.076 -0.1306 -0.0492 -0.2821
 5736W        W 9255   9.684   3.699   2.751  0.1085  0.3526 -0.2109
 5737W        W 9256   6.605   7.797   8.705 -0.0552 -0.0296 -0.0973
 5738W        W 9257   1.849   8.531   2.464  0.3158  0.1777  0.4565
 5739W        W 9258   2.347   9.227   0.725 -0.0531  0.0608 -0.1992
 5740W        W 9259   4.112   8.438   0.188  0.0601 -0.1268  0.1309
 5741W        W 9260   1.785   6.288   9.941 -0.2401  0.1888 -0.0508
 5742W        W 9261   6.971   0.152   8.616  0.0828 -0.0133 -0.0610
 5743W        W 9262   2.824   7.335   1.203  0.1084 -0.0410 -0.0262
 5744W        W 9263   8.155   6.010  10.205  0.0067 -0.1940  0.0579
 5745W        W 9264   3.063   1.997   0.916  0.1610 -0.0402 -0.1887
 5746W        W 9265   0.860   0.941  10.357  0.0184  0.0834 -0.1971
 5747W        W 9266   0.685   2.573   8.446 -0.3222 -0.0295 -0.2923
 5748W        W 9267   7.461   4.316   1.589  0.1764 -0.2284 -0.0420
 5749W        W 9268   0.965   2.968  10.668 -0.5057  0.2504  0.1824
 5750W        W 9269   5.951   2.062   9.043 -0.1098 -0.0072  0.0623
 5751W        W 9270   1.745   1.107   2.173  0.2796  0.0473  0.2265
 5752W        W 9271   6.914   8.072   0.345  0.0975  0.0571  0.1085
 5753W        W 9272   5.169   8.771   9.053 -0.1961 -0.1370 -0.2209
 5754W        W 9273   4.521   9.233  12.328 -0.0636 -0.0114 -0.1694
 5755W        W 9274   4.201   4.183   0.339  0.2783 -0.0721 -0.2351
 5756W        W 9275   2.525   4.592   3.541  0.2547  0.2248  0.3040
 5757W        W 9276   2.098   9.656   1.574  0.1656  0.0387 -0.2013
 5758W        W 9277   6.060   3.319  11.693  0.2190  0.0178 -0.1284
 5759W        W 9278   1.087   6.708  12.200 -0.5737  0.1949 -0.1683
 5760W        W 9279   9.144   1.168   2.772 -0.1089 -0.0591  0.2427
 5761W        W 9280   4.051   3.757   3.168 -0.2956  0.0335  0.0581
 5762W        W 9281   5.752   3.912   0.927  0.1962 -0.0852 -0.0554
 5763W        W 9282   5.409   3.864   8.330  0.2599 -0.3405  0.1512
 5764W        W 9283   8.345   2.813  10.947  0.0621  0.0144 -0.0163
 5765W        W 9284   1.995   6.637   3.026 -0.0428 -0.2608 -0.0232
 5766W        W 9285   7.460   5.498  10.043 -0.3096 -0.0812 -0.2319
 5767W        W 9286   2.889   2.688   0.277 -0.3253  0.0522 -0.1688
 5768W        W 9287   2.711   0.904   3.738 -0.1715  0.1957  0.1320
 5769W        W 9288   2.828   5.285   9.675  0.0652  0.1692 -0.0542
 5770W        W 9289   8.183   4.879   0.624 -0.0599  0.1121  0.1136
 5771W        W 9290   9.159   2.762   1.535  0.1532  0.0638 -0.1070
 5772W        W 9291   9.190   7.285   0.477  0.0594  0.1345  0.0008
 5773W        W 9292   3.117   3.034  11.442  0.0679 -0.0974 -0.1214
 5774W        W 9293   9.547   3.955   8.707  0.1381  0.1328 -0.2076
 5775W        W 9294   3.903   6.212  12.277  0.0986 -0.0770  0.3761
 5776W        W 9295   4.809   4.500   1.231  0.0948 -0.3525  0.1152
 5777W        W 9296   7.184   2.665   3.033 -0.2482 -0.1029  0.1375
 5778W        W 9297   3.640   3.883   3.980  0.1566 -0.1997 -0.1451
 5779W        W 9298   0.361   7.918  10.224 -0.1996 -0.3533 -0.0013
 5780W        W 9299   7.851   2.788  11.041  0.2762 -0.1342 -0.2982
 5781W        W 9300   1.528   1.835   8.908 -0.1650 -0.1231 -0.2207
 5782W        W 9301   3.499   5.204   1.979  0.3715 -0.0501  0.1675
 5783W        W 9302   6.593   6.049  11.398  0.2040 -0.0762 -0.0176
 5784W        W 9303   1.419   0.212   4.606 -0.1908  0.1066  0.0973
 5785W        W 9304   6.445   2.185   0.167 -0.2383  0.0975 -0.3609
 5786W        W 9305   1.554   0.546   1.344  0.0240 -0.1366 -0.2108
 5787W        W 9306   3.398   7.694  12.235  0.0100  0.1315  0.1046
 5788W        W 9307   0.414   6.425   3.186  0.0669 -0.1755  0.0983
 5789W        W 9308   5.271   9.434  11.633 -0.0423 -0.3032  0.2785
 5790W        W 9309   6.336   7.236  12.249 -0.1160 -0.1586 -0.1112
 5791W        W 9310   2.149   9.669   0.940  0.2185  0.2093 -0.0522
 5792W        W 9311   0.831   8.637   7.793  0.1944 -0.0112  0.0477
 5793W        W 9312   6.670   6.577  11.875 -0.2133  0.0735  0.0811
 5794W        W 9313   4.962   2.179   9.977  0.1492  0.2006  0.3525
 5795W        W 9314   9.459   8.821   0.859  0.1277 -0.2075 -0.1435
 5796W        W 9315   9.431   0.976  12.415  0.1666  0.0362 -0.0636
 5797W        W 9316   8.266   0.717   8.907  0.0274  0.0379 -0.0219
 5798W        W 9317   9.650   1.276   2.609  0.1642  0.3227 -0.0342
 5799W        W 9318   6.284   8.828   3.808  0.0008  0.1077  0.2522
 5800W        W 9319   4.478   4.924  12.387 -0.2710 -0.0187 -0.2119
 5801W        W 9320   6.103   0.305   8.659  0.0974 -0.0584 -0.2828
 5802W        W 9321   2.541   1.790   0.738  0.0827  0.0375  0.1902
 5803W        W 9322   7.000   2.705  12.186  0.0138 -0.1244 -0.1972
 5804W        W 9323   6.737   0.031  10.750  0.2207 -0.1497 -0.0395
 5805W        W 9324   6.419   3.974  11.241 -0.0398  0.0405  0.0194
 5806W        W 9325   6.719   6.312   9.255 -0.3599  0.1478 -0.0758
 5807W        W 9326   4.119   9.328   0.854 -0.1933  0.1655  0.0927
 5808W        W 9327   7.935   6.352  10.514  0.3354  0.1912  0.1099
 5809W        W 9328   9.686   4.524  12.388 -0.0965 -0.3394 -0.2162
 5810W        W 9329   5.080   2.175  10.592  0.0322  0.0538  0.1526
 5811W        W 9330   9.537   2.637   2.566  0.0539  0.2569 -0.1529
 5812W        W 9331   5.408   9.205  10.350 -0.3453  0.1356 -0.4697
 5813W        W 9332   0.382   6.918   3.068 -0.2357  0.1078 -0.1370
 5814W        W 9333   9.688   0.115  11.253 -0.2488  0.1076  0.3734
 5815W        W 9334   8.827   5.988   0.240  0.0070  0.1688  0.1571
 5816W        W 9335   4.725   7.479   3.151  0.0418  0.1685 -0.0436
 5817W        W 9336   1.642   3.398   1.276  0.0297 -0.1275 -0.0042
 5818W        W 9337   0.345   0.711   9.070  0.1798  0.0727 -0.1720
 5819W        W 9338   3.719   6.726  12.234 -0.0226  0.3375  0.2119
 5820W        W 9339   3.354   6.291  10.393 -0.1554 -0.1930  0.0724
 5821W        W 9340   4.139   3.077   3.902 -0.0546 -0.0794 -0.0567
 5822W        W 9341   1.387   6.741   3.209  0.0107  0.1188  0.0668
 5823W        W 9342   8.547   6.816   3.291  0.0759 -0.1716 -0.1607
 5824W        W 9343   7.237   5.038  10.760  0.0611 -0.2446 -0.1037
 5825W        W 9344   0.143   5.684   1.415  0.2768  0.2362  0.4851
 5826W        W 9345   7.020   7.776   0.834 -0.0832  0.3345 -0.1893
 5827W        W 9346   7.743   3.760  10.622  0.0221  0.1833  0.0888
 5828W        W 9347   4.559   1.352   3.731  0.1370  0.1195  0.4457
 5829W        W 9348   2.410   6.410  10.068  0.1606  0.3631 -0.3176
 5830W        W 9349   4.511   6.936   2.439 -0.0512  0.1136 -0.0162
 5831W        W 9350   2.345   0.794   1.071 -0.1411  0.0387  0.0661
 5832W        W 9351   4.210   4.240  10.787 -0.0518  0.0779  0.1653
 5833W        W 9352   5.434   2.013   9.241 -0.0300  0.1634 -0.1486
 5834W        W 9353   5.314   1.706   9.722  0.0477  0.0522  0.4584
 5835W        W 9354   1.385   7.435   9.823  0.1531  0.1654 -0.2099
 5836W        W 9355   1.844   2.711   9.968  0.2648 -0.0875 -0.0144
 5837W        W 9356   2.069   9.506   2.669 -0.1972 -0.4558  0.2202
 5838W        W 9357   8.696   8.343   3.210 -0.0074 -0.0215  0.0839
 5839W        W 9358   4.259   1.264  12.111 -0.1687 -0.3404  0.0557
 5840W        W 9359   1.659   0.328   8.601 -0.0375  0.1384  0.1848
 5841W        W 9360   3.202   4.283   9.794 -0.2009 -0.2391  0.2902
 5842W        W 9361   6.116   6.010  11.072 -0.0888  0.0288 -0.0042
 5843W        W 9362   5.035   8.605   0.254  0.4087  0.1267  0.0926
 5844W        W 9363   9.304   2.582   2.068 -0.0659 -0.1022  0.0547
 5845W        W 9364   1.236   0.050   8.320  0.2771  0.0729 -0.1019
 5846W        W 9365   9.163   6.932   2.096  0.2998 -0.0885  0.1534
 5847W        W 9366   8.613   6.835   1.943 -0.1038 -0.2046 -0.0050
 5848W        W 9367   3.816   1.538  11.382 -0.0717  0.1543  0.3081
 5849W        W 9368   4.359   4.390  12.382  0.1223 -0.1928  0.1927
 5850W        W 9369   3.314   3.614  11.865  0.0366 -0.1671  0.2592
 5851W        W 9370   7.840   0.133   2.943 -0.0625  0.1493 -0.0417
 5852W        W 9371   8.038   1.493   3.381  0.2010 -0.2572  0.0259
 5853W        W 9372   5.670   7.827  11.584 -0.4516 -0.1168  0.2959
 5854W        W 9373   7.696   0.422  11.799 -0.0399 -0.1713 -0.0528
 5855W        W 9374   2.896   6.202   2.668  0.0665 -0.1234 -0.2377
 5856W        W 9375   6.804   3.003   1.323  0.1889 -0.2335  0.1187
 5857W        W 9376   3.155   9.071  11.048  0.0758 -0.2675  0.0581
 5858W        W 9377   0.344   8.800   1.709 -0.0865  0.4310  0.0241
 5859W        W 9378   8.619   9.202   8.880 -0.0456 -0.0652  0.1674
 5860W        W 9379   7.265   0.998   0.302 -0.1303 -0.0699 -0.1647
 5861W        W 9380   8.463   7.649   2.695 -0.4571 -0.2095  0.1163
 5862W        W 9381   8.805   3.322   0.113 -0.2056  0.0854  0.1511
 5863W        W 9382   2.195   7.834   0.514 -0.0055  0.3170 -0.0207
 5864W        W 9383   6.291   0.250   0.926 -0.1600  0.0194 -0.2011
 5865W        W 9384   8.825   7.917   9.164 -0.0776  0.0134  0.1172
 5866W        W 9385   5.134   2.610   2.194 -0.1888 -0.3339  0.0950
 5867W        W 9386   8.902   1.355   3.439 -0.1060  0.0089  0.0150
 5868W        W 9387   3.708   5.426   1.048 -0.3215  0.0263  0.0903
 5869W        W 9388   3.088   5.254  10.068  0.3080  0.1540 -0.1107
 5870W        W 9389   4.822   4.158   3.157  0.2067  0.1649 -0.1909
 5871W        W 9390   7.014   1.205   1.101 -0.4985 -0.0005 -0.1744
 5872W        W 9391   5.763   3.416   0.956 -0.4541  0.0233  0.6170
 5873W        W 9392   4.836   7.919   1.214  0.0984  0.3124  0.1364
 5874W        W 9393   5.652   4.174  10.585 -0.1973  0.2671  0.2034
 5875W        W 9394   1.554   7.946   1.739  0.3379  0.0488 -0.1155
 5876W        W 9395   9.392   3.081   8.363 -0.0300 -0.3742  0.0367
 5877W        W 9396   8.341   1.902   1.485  0.3724 -0.3781  0.3486
 5878W        W 9397   1.689   5.507   2.250  0.1257  0.0575 -0.0929
 5879W        W 9398   1.212   0.132   1.866 -0.3507 -0.1676  0.1552
 5880W        W 9399   8.326   8.666   3.374 -0.2125  0.2634 -0.1224
 5881W        W 9400   0.007   3.702  10.938  0.0682 -0.0637  0.3421
 5882W        W 9401   4.855   2.039   8.381  0.0014 -0.1218  0.1985
 5883W        W 9402   2.155   0.189   3.006  0.0005 -0.0087  0.1011
 5884W        W 9403   5.458   9.199   0.277  0.1650 -0.1449  0.1844
 5885W        W 9404   0.225   8.996   2.175  0.3014  0.1071 -0.1972
 5886W        W 9405   5.715   2.533   9.226 -0.0087  0.3058  0.1695
 5887W        W 9406   6.929   0.321   2.365 -0.0201 -0.2290 -0.3297
 5888W        W 9407   3.846   1.756   3.333  0.0446 -0.1466  0.3639
 5889W        W 9408   1.236   9.012   1.889 -0.0402 -0.1048  0.2426
 5890W        W 9409   8.888   6.488  10.191 -0.2064  0.0296 -0.2485
 5891W        W 9410   8.948   9.669   8.920  0.0807  0.0342  0.3972
 5892W        W 9411   6.425   9.359  11.838 -0.0354 -0.1309  0.3085
 5893W        W 9412   7.287   8.411   3.458  0.0561 -0.1988  0.1179
 5894W        W 9413   8.474   6.277  11.073  0.0886 -0.2257 -0.0047
 5895W        W 9414   4.459   4.072   1.307  0.1068 -0.1953  0.3036
 5896W        W 9415   5.240   9.191   2.992 -0.1149  0.1703 -0.1017
 5897W        W 9416   4.095   8.733   0.695 -0.3661 -0.2486  0.0938
 5898W        W 9417   5.936   5.030  10.141  0.0464 -0.2889 -0.2002
 5899W        W 9418   9.611   9.252   2.625 -0.1999 -0.0863 -0.0553
 5900W        W 9419   6.577   7.103   9.016  0.2359 -0.0713 -0.1913
 5901W        W 9420   8.190   5.230   0.220  0.1564 -0.2467 -0.1510
 5902W        W 9421   5.709   0.211   1.228  0.1623  0.0283  0.1181
 5903W        W 9422   8.406   4.401   3.863 -0.2414  0.2268  0.2166
 5904W        W 9423   7.389   0.515   1.904  0.0545 -0.1535  0.2132
 5905W        W 9424   5.926   4.134   2.230  0.3101 -0.1507  0.0131
 5906W        W 9425   7.749   5.064  10.005 -0.1299 -0.0439 -0.2878
 5907W        W 9426   2.486   8.379   3.589  0.3345 -0.0921  0.2036
 5908W        W 9427   2.066   5.775  10.740 -0.2249  0.0624 -0.0662
 5909W        W 9428   0.534   3.228   2.114 -0.1811  0.3387  0.1443
 5910W        W 9429   7.275   4.322   0.619  0.1785 -0.0340 -0.2789
 5911W        W 9430   3.670   2.559   0.836 -0.0805  0.1571  0.0815
 5912W        W 9431   1.151   2.481   8.272 -0.1100  0.0331 -0.0820
 5913W        W 9432   0.366   8.192  10.607 -0.0296  0.0124  0.0779
 5914W        W 9433   0.687   0.033   2.182 -0.0731 -0.0275  0.0035
 5915W        W 9434   3.168   7.459   0.430  0.0577  0.1518  0.4451
 5916W        W 9435   9.142   1.124   4.481  0.0515 -0.0294  0.4148
 5917W        W 9436   6.443   4.979   9.710 -0.1306  0.3481  0.3405
 5918W        W 9437   4.725   3.907   2.670 -0.1085  0.4376  0.1007
 5919W        W 9438   6.658   7.873   3.918 -0.0238  0.2553 -0.0123
 5920W        W 9439   6.955   8.561   0.427 -0.0404  0.0748  0.0148
 5921W        W 9440   9.124   9.703  10.178  0.4820 -0.0451 -0.0575
 5922W        W 9441   5.674   4.513   9.386  0.2205 -0.0733  0.1473
 5923W        W 9442   4.410   0.388   2.370  0.3358 -0.1417  0.4908
 5924W        W 9443   8.549   7.478  10.521  0.0871  0.1405 -0.3890
 5925W        W 9444   7.841   1.704  12.491  0.0517  0.0590 -0.2309
 5926W        W 9445   0.576   0.639   4.279  0.0372  0.2130 -0.1071
 5927W        W 9446   2.902   8.066   2.304 -0.3734  0.4151  0.0646
 5928W        W 9447   8.779   0.794   3.737 -0.1580  0.1321 -0.0102
 5929W        W 9448   7.846   0.275   9.439 -0.1840  0.0082 -0.2467
 5930W        W 9449   9.408   2.795   3.519 -0.2037  0.0946  0.0439
 5931W        W 9450   2.496   5.667   9.665 -0.3551  0.0805 -0.3226
 5932W        W 9451   8.583   5.583   0.116 -0.1711  0.2189  0.0828
 5933W        W 9452   7.232   5.938   0.096 -0.0309  0.0243  0.1917
 5934W        W 9453   6.932   0.385   3.427 -0.1814  0.2286  0.0162
 5935W        W 9454   3.011   1.045   0.108  0.0082 -0.1449 -0.2454
 5936W        W 9455   0.950   5.543   9.208 -0.0078  0.2774 -0.1632
 5937W        W 9456   7.023   4.758   2.976 -0.0535 -0.0418 -0.3397
 5938W        W 9457   6.891   3.248  11.321  0.0381 -0.2091 -0.1628
 5939W        W 9458   5.793   7.434   2.734 -0.0092 -0.2613  0.0698
 5940W        W 9459   4.830   5.836  11.937  0.0282  0.1162 -0.1436
 5941W        W 9460   3.550   5.776   1.800  0.0378 -0.1276 -0.1222
 5942W        W 9461   6.129   2.565   1.932  0.0806  0.1016 -0.2755
 5943W        W 9462   2.574   3.374   3.773 -0.1607 -0.0856 -0.3403
 5944W        W 9463   0.777   0.780   3.874 -0.3901  0.0664 -0.0467
 5945W        W 9464   3.057   5.421  11.834 -0.1976 -0.0887 -0.0388
 5946W        W 9465   4.635   4.777   2.481 -0.1364 -0.0052 -0.5103
 5947W        W 9466   3.391   9.698   0.594  0.0371  0.0326 -0.1714
 5948W        W 9467   3.141   4.180   1.256 -0.0212  0.0091  0.1309
 5949W        W 9468   0.108   7.270   1.331 -0.3790 -0.1852 -0.0889
 5950W        W 9469   4.901   9.647  10.124  0.2388 -0.0247  0.0089
 5951W        W 9470   8.346   3.987   0.717  0.3288  0.0765 -0.0874
 5952W        W 9471   0.357   6.235   3.724  0.3599 -0.1179  0.2215
 5953W        W 9472   8.287   5.343   1.406  0.1954 -0.1724  0.1019
 5954W        W 9473   1.946   2.752   3.324 -0.1808 -0.0037  0.0373
 5955W        W 9474   6.320   3.658   1.062  0.0279 -0.2216  0.1758
 5956W        W 9475   8.514   4.472   3.030 -0.1769  0.3467 -0.3619
 5957W        W 9476   9.629   4.899  10.773 -0.3171  0.1000  0.2323
 5958W        W 9477   9.713   5.920   3.823  0.1095 -0.1536  0.0310
 5959W        W 9478   0.111   6.038  11.708  0.0882 -0.5430 -0.1108
 5960W        W 9479   8.852   6.762   9.459  0.0368  0.1486 -0.0073
 5961W        W 9480   2.121   9.619   8.735 -0.1408  0.1084  0.2019
 5962W        W 9481   3.282   3.925   2.669  0.1791  0.2085 -0.0696
 5963W        W 9482   3.030   8.426  12.326 -0.1130 -0.1403 -0.0529
 5964W        W 9483   9.512   4.732   1.643  0.1156  0.0749 -0.0898
 5965W        W 9484   0.415   3.416   8.278 -0.0905  0.1198 -0.1357
 5966W        W 9485   9.661   9.326  10.952  0.3032  0.3840 -0.0748
 5967W        W 9486   3.482   0.970   0.168  0.0036 -0.1543 -0.0348
 5968W        W 9487   5.986   4.012   3.812  0.0307 -0.1466 -0.0475
 5969W        W 9488   2.079   6.917  10.150  0.0443 -0.0450  0.1929
 5970W        W 9489   6.276   5.826   4.066 -0.1898 -0.1030 -0.3094
 5971W        W 9490   5.076   0.960   1.155 -0.1040  0.3688 -0.1987
 5972W        W 9491   0.200   1.245   8.988  0.1358  0.0750 -0.0360
 5973W        W 9492   4.235   2.278  10.306 -0.3798 -0.3847  0.1109
 5974W        W 9493   4.382   5.589   0.779 -0.0264 -0.0327 -0.1593
 5975W        W 9494   0.691   4.046  12.120  0.0238  0.1007 -0.1453
 5976W        W 9495   2.137   9.126  12.381  0.2628  0.2549 -0.2254
 5977W        W 9496   1.197   7.287   3.070  0.1722  0.2978 -0.1284
 5978W        W 9497   9.684   1.501   1.258 -0.1968  0.2269  0.1866
 5979W        W 9498   4.194   0.441   0.619 -0.2171  0.1655  0.1861
 5980W        W 9499   7.484   5.315  11.081 -0.0643  0.1160  0.0609
 5981W        W 9500   9.571   9.133   1.661  0.0052 -0.1541  0.3015
 5982W        W 9501   3.259   1.402  10.904 -0.2555 -0.1723 -0.2261
 5983W        W 9502   6.268   4.621   2.049 -0.0832 -0.2307  0.0638
 5984W        W 9503   6.760   4.865  10.691 -0.0861 -0.0495 -0.3147
 5985W        W 9504   4.984   5.155  11.524 -0.0080  0.1952  0.1826
 5986W        W 9505   1.887   3.765   2.462  0.0468  0.1336  0.0873
 5987W        W 9506   6.858   6.184   3.316  0.0962 -0.3603 -0.0383
 5988W        W 9507   0.290   5.245  10.945  0.1655  0.0394  0.0518
 5989W        W 9508   6.390   5.577   9.705 -0.2085  0.0173 -0.2582
 5990W        W 9509   0.984   8.387   8.811  0.1122  0.1577  0.0275
 5991W        W 9510   1.434   1.153   3.631  0.0911 -0.4229  0.3711
 5992W        W 9511   8.059   8.536  11.185  0.1195  0.1324 -0.1417
 5993W        W 9512   5.199   0.385   2.770  0.1190 -0.2825 -0.0219
 5994W        W 9513   8.231   0.266   2.224  0.2671 -0.1760 -0.0485
 5995W        W 9514   8.650   4.044   0.300 -0.0327  0.1182  0.0628
 5996W        W 9515   7.597   2.614   1.794  0.1684  0.3948 -0.0944
 5997W        W 9516   2.551   7.035   8.571 -0.0809  0.1125 -0.1467
 5998W        W 9517   1.752   7.094   0.655 -0.0053  0.3089 -0.1027
 5999W        W 9518   1.429   4.083   0.812 -0.1141  0.4100 -0.2604
 6000W        W 9519   7.958   9.434  12.281 -0.0821 -0.0395  0.2582
 6001W        W 9520   6.596   2.634   8.274  0.0375 -0.0289 -0.2847
 6002W        W 9521   2.134   6.072  10.350  0.0286  0.0972  0.0544
 6003W        W 9522   3.794   6.247  11.432 -0.2679  0.2195 -0.1421
 6004W        W 9523   8.906   4.302   3.789  0.1119  0.0172  0.3214
 6005W        W 9524   0.931   2.916   0.578 -0.0567 -0.1654 -0.2618
 6006W        W 9525   2.945   2.546  10.559  0.1258  0.1131  0.0068
 6007W        W 9526   1.622   7.512   3.007 -0.6289  0.0037  0.3114
 6008W        W 9527   5.527   7.029   9.878  0.0365 -0.0703  0.0690
 6009W        W 9528   1.126   4.703   2.861 -0.0274  0.2673  0.1297
 6010W        W 9529   4.348   3.096   0.488 -0.0792  0.0712  0.2123
 6011W        W 9530   3.961   9.208   9.380  0.0438  0.2974 -0.1033
 6012W        W 9531   0.674   7.827   3.315 -0.1038 -0.1065 -0.1496
 6013W        W 9532   0.356   4.694   3.846  0.1276 -0.3464 -0.1136
 6014W        W 9533   4.937   4.041   2.245  0.3643 -0.1232 -0.1804
 6015W        W 9534   7.050   9.227   3.122  0.0532 -0.1495 -0.0717
 6016W        W 9535   7.792   3.671   3.870 -0.1985 -0.1557  0.0110
 6017W        W 9536   7.750   7.722   3.942  0.3808 -0.3416  0.0182
 6018W        W 9537   7.439   9.559   9.418  0.1438 -0.1471  0.0677
 6019W        W 9538   5.253   1.816   3.311  0.0203 -0.2861 -0.0516
 6020W        W 9539   2.941   8.019  10.557 -0.0391  0.2802  0.0722
 6021W        W 9540   3.942   3.925   9.397 -0.2729 -0.0568  0.0805
 6022W        W 9541   6.249   8.760  10.653 -0.1565  0.2866 -0.1788
 6023W        W 9542   0.552   4.228   2.476 -0.0681 -0.1605 -0.2672
 6024W        W 9543   0.237   4.934   1.450 -0.2751  0.1991  0.1128
 6025W        W 9544   4.329   3.682   1.732  0.2944  0.0935  0.1772
 6026W        W 9545   2.119   7.764   0.976  0.3444 -0.1476 -0.1961
 6027W        W 9546   4.560   7.027   1.921 -0.0836 -0.2141  0.1230
 6028W        W 9547   3.216   0.530   0.329  0.0004 -0.2392 -0.0857
 6029W        W 9548   8.989   0.893   2.214 -0.1764 -0.0406 -0.0808
 6030W        W 9549   9.616   4.511   0.736  0.5552 -0.3445  0.0552
 6031W        W 9550   8.026   8.458  11.712  0.2069 -0.2452  0.0710
 6032W        W 9551   2.728   6.052   1.950  0.4134 -0.2380 -0.0072
 6033W        W 9552   1.702   0.470   3.648  0.1168  0.0079 -0.0563
 6034W        W 9553   7.074   4.124  11.678  0.2411  0.1436  0.0544
 6035W        W 9554   2.800   7.763   2.724  0.0958 -0.1332  0.0227
 6036W        W 9555   7.134   3.901   8.243  0.3263 -0.0485  0.3022
 6037W        W 9556   3.833   5.992   0.283 -0.0652 -0.1564  0.0643
 6038W        W 9557   7.143   4.191   3.162 -0.1508  0.2451  0.0012
 6039W        W 9558   8.252   1.189   8.637  0.2040 -0.1976  0.2685
 6040W        W 9559   9.169   6.874   1.093 -0.0950 -0.1424 -0.1670
 6041W        W 9560   5.807   1.221   2.949  0.0901  0.0305 -0.0805
 6042W        W 9561   7.019   5.738   3.485 -0.2534  0.0976  0.1675
 6043W        W 9562   2.232   6.247   2.264  0.0506 -0.0033  0.3693
 6044W        W 9563   5.983   0.351   9.182  0.2047  0.1322 -0.1022
 6045W        W 9564   0.554   2.935  12.045 -0.2910 -0.3534  0.0517
 6046W        W 9565   0.996   1.701  11.332 -0.3253  0.2071  0.0408
 6047W        W 9566   8.985   3.237  11.270  0.2609 -0.0727  0.0637
 6048W        W 9567   6.939   3.116   2.926 -0.4253 -0.3138 -0.0817
 6049W        W 9568   9.097   8.017   8.663 -0.2109  0.2857  0.1838
 6050W        W 9569   2.406   4.749  11.411 -0.0044 -0.1454  0.0428
 6051W        W 9570   7.456   2.481   9.282  0.0781  0.0587  0.2547
 6052W        W 9571   4.198   1.249  10.133  0.1397  0.0428  0.3511
 6053W        W 9572   0.822   0.852   9.857 -0.0935 -0.1690  0.0734
 6054W        W 9573   2.524   6.271   0.210 -0.2048  0.0452  0.3000
 6055W        W 9574   8.350   2.832   3.374  0.4217  0.1214  0.0950
 6056W        W 9575   4.475   0.819  11.936 -0.1287  0.0793 -0.1764
 6057W        W 9576   6.300   3.856   9.434  0.2299 -0.0738  0.1573
 6058W        W 9577   9.320   6.541   9.363  0.1682 -0.3118 -0.0673
 6059W        W 9578   3.341   4.767  10.091 -0.3773  0.0028 -0.2665
 6060W        W 9579   7.841   4.988   9.134 -0.2802 -0.2042 -0.0994
 6061W        W 9580   0.879   1.062   1.387  0.0315  0.3052  0.0712
 6062W        W 9581   9.668   8.695   9.499  0.0922 -0.1737  0.3233
 6063W        W 9582   6.529   9.160   3.029 -0.0877  0.1687  0.3202
 6064W        W 9583   5.588   8.557   0.847 -0.4840 -0.3825 -0.0504
 6065W        W 9584   5.853   8.252  11.199 -0.3320 -0.1154 -0.1664
 6066W        W 9585   4.053   0.828  10.854 -0.0761 -0.3089  0.1321
 6067W        W 9586   4.891   2.302   0.464 -0.1621  0.1813 -0.3325
 6068W        W 9587   8.019   2.702  10.584 -0.2030  0.1889  0.1876
 6069W        W 9588   2.124   2.685   8.843 -0.1870 -0.0430 -0.1747
 6070W        W 9589   6.609   0.906   9.538  0.0867  0.0168  0.0751
 6071W        W 9590   2.392   3.430   0.806 -0.0234 -0.0043 -0.2462
 6072W        W 9591   9.135   8.200   2.068  0.0263 -0.2711 -0.1181
 6073W        W 9592   1.095   8.799   4.803 -0.0042  0.1729  0.3631
 6074W        W 9593   1.121   5.891   8.920  0.1822 -0.1525 -0.0200
 6075W        W 9594   6.334   9.092   9.238  0.0268  0.0954  0.0100
 6076W        W 9595   6.973   0.762   1.578 -0.1927  0.1095  0.0643
 6077W        W 9596   3.168   5.404   2.554  0.0508 -0.1944 -0.2226
 6078W        W 9597   8.550   9.502  10.189  0.0878 -0.1701  0.0298
 6079W        W 9598   9.680   7.506   8.048 -0.0158 -0.0660  0.1275
 6080W        W 9599   0.873   8.404   0.823  0.1961  0.3115  0.1646
 6081W        W 9600   5.471   5.542   2.519 -0.0309 -0.0427 -0.4385
 6082W        W 9601   7.441   1.072   7.644  0.0019 -0.3942 -0.1110
 6083W        W 9602   3.335   7.973   9.015 -0.2340 -0.2346  0.0725
 6084W        W 9603   5.890   1.532   2.602 -0.1026  0.1568 -0.0212
 6085W        W 9604   7.103   7.604   8.591 -0.1436 -0.2469 -0.0347
 6086W        W 9605   1.654   2.460   0.980 -0.0855  0.1389 -0.2098
 6087W        W 9606   7.758   0.638   1.473 -0.1517 -0.2316 -0.2906
 6088W        W 9607   0.237   6.066   9.617  0.1516  0.1034  0.0919
 6089W        W 9608   0.831   3.199  11.662 -0.0622  0.1194  0.2094
 6090W        W 9609   5.139   0.503   0.509 -0.0938 -0.1937  0.1461
 6091W        W 9610   4.488   7.792   1.609  0.2556  0.1304 -0.1910
 6092W        W 9611   8.207   3.512   9.774 -0.2875 -0.1208 -0.2939
 6093W        W 9612   3.710   0.609  12.489 -0.3547  0.3011  0.1955
 6094W        W 9613   8.450   3.766   8.687 -0.1129 -0.1125  0.0345
 6095W        W 9614   3.251   4.693   8.988  0.1612  0.1267  0.0129
 6096W        W 9615   3.801   4.814   0.931  0.0199 -0.2214  0.0837
 6097W        W 9616   2.938   3.814   9.379  0.0141 -0.0765 -0.1466
 6098W        W 9617   6.667   2.815   3.816  0.1267 -0.0584  0.3787
 6099W        W 9618   9.700   5.342  10.484 -0.0520 -0.0180  0.0850
 6100W        W 9619   7.211   0.038  11.853  0.2187 -0.3098 -0.1708
 6101W        W 9620   6.322   7.401   3.959 -0.2416 -0.0879  0.1474
 6102W        W 9621   4.184   4.716   2.310  0.1292  0.0315  0.4118
 6103W        W 9622   2.454   9.077   3.052  0.0216 -0.0517 -0.1400
 6104W        W 9623   1.397   5.427  10.298 -0.1627 -0.2826 -0.0849
 6105W        W 9624   0.484   6.683   2.585  0.1834 -0.1708  0.1526
 6106W        W 9625   5.001   9.190  10.025  0.0485  0.0746 -0.0266
 6107W        W 9626   3.687   7.297   1.597  0.0364 -0.0962  0.0810
 6108W        W 9627   1.189   7.890   0.798 -0.1337 -0.0463  0.0869
 6109W        W 9628   7.993   1.118   2.935 -0.1963 -0.2144 -0.0435
 6110W        W 9629   2.834   0.089  11.167  0.3273 -0.0221 -0.0329
 6111W        W 9630   2.835   0.411  10.206  0.1327 -0.0488  0.2977
 6112W        W 9631   9.395   0.802  11.136 -0.0744 -0.1764 -0.1737
 6113W        W 9632   2.144   3.201   3.033  0.0260 -0.2429  0.2919
 6114W        W 9633   3.870   9.508   2.861  0.3371  0.0891  0.1316
 6115W        W 9634   5.442   2.025   2.483  0.1266  0.3451 -0.0956
 6116W        W 9635   0.855   9.093   0.869  0.0165 -0.0777  0.1606
 6117W        W 9636   3.508   0.887  10.880 -0.0564 -0.1758  0.2046
 6118W        W 9637   3.415   2.209   0.521  0.2093  0.1284  0.2793
 6119W        W 9638   4.172   8.995   8.954 -0.2695 -0.0968 -0.0745
 6120W        W 9639   0.489   9.013   4.035  0.1936 -0.1971  0.3609
 6121W        W 9640   5.760   8.523   3.098  0.2175 -0.1692  0.1249
 6122W        W 9641   8.858   6.122   8.798  0.2723 -0.1780  0.1243
 6123W        W 9642   3.427   8.483   9.223  0.3068  0.0359 -0.1102
 6124W        W 9643   8.127   5.758   2.189  0.0702  0.2410 -0.3236
 6125W        W 9644   9.239   8.374   1.090  0.1892 -0.0141 -0.0721
 6126W        W 9645   2.805   6.479   9.450  0.4464 -0.2466  0.2659
 6127W        W 9646   9.294   4.744   0.375 -0.2150  0.3329  0.2145
 6128W        W 9647   7.588   3.414   2.468  0.0321 -0.0372  0.0029
 6129W        W 9648   7.734   2.307  11.534  0.0423  0.1781  0.0170
 6130W        W 9649   1.224   5.716   0.804  0.1912 -0.1846  0.3110
 6131W        W 9650   4.893   7.124  11.823 -0.2078  0.0507  0.0728
 6132W        W 9651   8.218   9.060   0.905 -0.2627 -0.0452  0.0369
 6133W        W 9652   8.709   7.804  10.918 -0.3327 -0.0741 -0.0544
 6134W        W 9653   0.860   6.968   1.034  0.1491  0.0951  0.1534
 6135W        W 9654   6.506   1.586   2.770  0.0728  0.1719 -0.1046
 6136W        W 9655   5.468   0.913  10.228  0.3276  0.2232  0.0322
 6137W        W 9656   1.876   5.861   1.660  0.1220  0.1997 -0.2417
 6138W        W 9657   2.602   8.030   9.476  0.0098 -0.1697  0.0015
 6139W        W 9658   2.296   3.585   8.639  0.3133  0.0770  0.2051
 6140W        W 9659   2.149   3.144   8.472 -0.4453  0.0957 -0.1943
 6141W        W 9660   3.350   7.101  11.344  0.0898  0.0783 -0.1973
 6142W        W 9661   6.080   7.976   0.489  0.1330 -0.0452 -0.1008
 6143W        W 9662   5.976   7.505   1.903 -0.1127 -0.1194  0.1432
 6144W        W 9663   9.291   6.803   0.582  0.0544  0.2072  0.1922
 6145W        W 9664   4.779   2.989  10.230 -0.0807  0.1996 -0.1662
 6146W        W 9665   3.022   3.821   9.884 -0.1259 -0.0916 -0.0328
 6147W        W 9666   7.459   2.085   0.082 -0.1358  0.5289 -0.0083
 6148W        W 9667   8.189   2.414   8.796 -0.2296  0.0910  0.1218
 6149W        W 9668   2.360   5.303   0.066  0.1085 -0.0972  0.1595
 6150W        W 9669   4.941   9.414   8.767 -0.1424 -0.0523  0.0431
 6151W        W 9670   2.076   4.437  12.304 -0.4996  0.1783 -0.0003
 6152W        W 9671   7.782   7.208   8.028  0.2850 -0.1095 -0.4715
 6153W        W 9672   2.311   3.618   3.307  0.0581 -0.0117  0.0790
 6154W        W 9673   2.128   3.259  11.953  0.0495 -0.3009 -0.1057
 6155W        W 9674   4.028   8.733   8.509  0.0779  0.0501 -0.3042
 6156W        W 9675   2.141   7.048  12.132 -0.1868  0.0081 -0.2604
 6157W        W 9676   2.892   9.168   2.871 -0.0118 -0.0487  0.3057
 6158W        W 9677   2.910   8.885   0.034  0.0173  0.1111 -0.0880
 6159W        W 9678   6.045   6.319   9.944 -0.3188 -0.1628  0.0316
 6160W        W 9679   0.083   0.030   0.925  0.1265  0.2159 -0.0424
 6161W        W 9680   1.384   4.041   1.357 -0.0687 -0.2987  0.3406
 6162W        W 9681   8.307   4.993   8.863  0.1504 -0.2501  0.0261
 6163W        W 9682   1.129   2.995  11.265  0.1188 -0.0123 -0.0362
 6164W        W 9683   6.271   7.228  10.829 -0.0785  0.2457  0.0396
 6165W        W 9684   9.049   0.589  10.142 -0.0571 -0.0690  0.1699
 6166W        W 9685   8.930   3.675   8.564  0.0581 -0.2644  0.2958
 6167W        W 9686   8.181   5.231   9.863 -0.2519 -0.1236  0.1402
 6168W        W 9687   3.479   7.820  10.711 -0.0430  0.3364 -0.0135
 6169W        W 9688   0.845   6.392   2.672  0.0260  0.2577  0.0398
 6170W        W 9689   1.653   2.423   3.578 -0.0142  0.3503  0.3095
 6171W        W 9690   7.398   7.816   9.016 -0.1314  0.4298  0.0652
 6172W        W 9691   4.073   1.444   3.796 -0.3068 -0.1621  0.0616
 6173W        W 9692   3.561   8.730  10.539 -0.3194 -0.1840  0.1111
 6174W        W 9693   2.030   6.046   0.501 -0.1747 -0.1348  0.0443
 6175W        W 9694   1.428   6.769  11.539  0.1445  0.3427 -0.1563
 6176W        W 9695   2.936   5.963  11.844  0.1686 -0.1142 -0.1866
 6177W        W 9696   8.949   2.023  10.430  0.2205 -0.0678  0.1852
 6178W        W 9697   6.529   1.184  12.178 -0.0435  0.2089 -0.0498
 6179W        W 9698   3.838   0.864  12.103  0.2828  0.1726  0.0063
 6180W        W 9699   1.873   8.758  11.505  0.0357  0.0492 -0.0721
 6181W        W 9700   6.662   3.733   9.070 -0.1340 -0.1243  0.2356
 6182W        W 9701   6.681   1.459   9.398 -0.0149  0.4163  0.1513
 6183W        W 9702   7.495   0.643   0.024 -0.0584  0.0143 -0.1249
 6184W        W 9703   5.372   2.756   1.273 -0.3487 -0.0673  0.1555
 6185W        W 9704   1.572   8.089   7.865  0.1819  0.0388  0.5395
 6186W        W 9705   0.528   9.125   9.476 -0.0474 -0.0291  0.1365
 6187W        W 9706   3.037   0.331   1.412  0.3858 -0.1363  0.0597
 6188W        W 9707   0.496   1.583   8.753  0.0654  0.1695 -0.0237
 6189W        W 9708   1.588   5.323   1.206  0.0897 -0.0650 -0.4358
 6190W        W 9709   2.905   2.004   2.472  0.0134  0.1196 -0.3194
 6191W        W 9710   1.013   1.484  10.661  0.4936 -0.0536  0.0621
 6192W        W 9711   9.517   0.997   3.773  0.0913 -0.0509 -0.0015
 6193W        W 9712   6.979   6.950   1.074  0.1929  0.0877  0.1115
 6194W        W 9713   4.396   9.703   1.761  0.2017  0.2168 -0.1667
 6195W        W 9714   0.302   2.430   1.269  0.1260  0.1483  0.2390
 6196W        W 9715   4.826   0.868  10.197  0.0794  0.0818 -0.3060
 6197W        W 9716   5.013   6.866  10.809  0.1025 -0.0611 -0.0095
 6198W        W 9717   2.158   3.771  10.974 -0.1246  0.2012 -0.1728
 6199W        W 9718   2.884   9.559   0.427  0.1182 -0.0687  0.0756
 6200W        W 9719   0.995   3.863   0.982  0.0841 -0.0972  0.1488
 6201W        W 9720   9.209   6.545  11.325  0.1472 -0.3108 -0.4091
 6202W        W 9721   3.624   2.270   4.059  0.0705  0.1897  0.2176
 6203W        W 9722   4.518   4.122   1.856  0.1813  0.2378 -0.1082
 6204W        W 9723   8.851   6.125  12.266  0.2054  0.2684  0.1764
 6205W        W 9724   1.401   6.156   1.744  0.0623  0.1142 -0.1859
 6206W        W 9725   7.605   1.547  11.166  0.2513  0.0211  0.4483
 6207W        W 9726   7.430   5.220   9.231 -0.0409  0.0666  0.1616
 6208W        W 9727   0.148   1.608   9.452  0.2078 -0.0493 -0.2545
 6209W        W 9728   7.984   5.981   1.338  0.1680  0.2936  0.1042
 6210W        W 9729   1.182   0.915   9.006 -0.3018 -0.2351  0.2831
 6211W        W 9730   1.889   1.248  12.198 -0.1559 -0.3870  0.0584
 6212W        W 9731   5.562   7.028   2.365  0.5696 -0.2509  0.0069
 6213W        W 9732   8.557   8.926  10.204 -0.0611 -0.1546  0.1287
 6214W        W 9733   4.546   3.013  11.942 -0.1235 -0.0507  0.0799
 6215W        W 9734   2.559   4.127   9.214  0.2823 -0.2724 -0.0431
 6216W        W 9735   3.080   4.988  10.536 -0.2903 -0.2448  0.0544
 6217W        W 9736   2.970   0.891   1.531  0.1026  0.0449  0.0912
 6218W        W 9737   7.496   7.240   2.577 -0.3596 -0.2469 -0.1194
 6219W        W 9738   9.258   0.542   3.555  0.0345 -0.2916  0.1687
 6220W        W 9739   5.704   1.632   2.155 -0.1550  0.2280  0.0125
 6221W        W 9740   7.895   4.509   1.276  0.1620 -0.0001 -0.0710
 6222W        W 9741   8.938   6.193   1.165  0.0140  0.4787 -0.1838
 6223W        W 9742   0.468   4.243  10.598  0.0446  0.0591  0.1394
 6224W        W 9743   1.299   2.533   1.489  0.2972 -0.3499 -0.1750
 6225W        W 9744   3.944   0.183   0.085 -0.4344  0.1687  0.0041
 6226W        W 9745   6.621   2.386  10.533  0.3064  0.0318  0.3355
 6227W        W 9746   6.988   6.519   9.790  0.0466  0.2867 -0.0071
 6228W        W 9747   6.116   0.327  12.046 -0.0620  0.0166  0.0426
 6229W        W 9748   0.320   5.461   9.532  0.0374 -0.2234 -0.1490
 6230W        W 9749   1.807   3.415   3.908 -0.1207 -0.0960  0.1765
 6231W        W 9750   6.505   8.635   9.339 -0.3773  0.1176 -0.4726
 6232W        W 9751   0.316   6.965   1.688  0.1309 -0.0093  0.1878
 6233W        W 9752   4.954   0.785  11.950  0.1662 -0.1377 -0.2551
 6234W        W 9753   4.852   8.472   2.141 -0.2202  0.0431  0.5691
 6235W        W 9754   6.948   7.431  11.476  0.0159  0.1872 -0.2418
 6236W        W 9755   5.428   9.010  10.866 -0.0212 -0.1998  0.1034
 6237W        W 9756   0.592   3.225   9.518 -0.1582  0.2210 -0.0513
 6238W        W 9757   1.483   3.045   0.015 -0.3226  0.0852 -0.2504
 6239W        W 9758   0.148   4.305   3.596  0.3210  0.0535 -0.1311
 6240W        W 9759   4.423   5.158   0.429 -0.1750  0.3109 -0.4262
 6241W        W 9760   6.820   8.588  10.709  0.2295  0.2944  0.2030
 6242W        W 9761   1.010   9.375  11.217 -0.2633 -0.0182 -0.1056
 6243W        W 9762   8.045   0.311  11.360  0.0141  0.0814  0.4405
 6244W        W 9763   7.702   0.506  10.525  0.0113 -0.0360  0.2537
 6245W        W 9764   5.435   2.846   1.822 -0.1237 -0.1131 -0.0920
 6246W        W 9765   2.579   7.313  12.265 -0.0255 -0.1245  0.2758
 6247W        W 9766   4.721   6.272  11.438  0.5126 -0.1159 -0.0047
 6248W        W 9767   0.052   4.000   0.853  0.2086 -0.0288 -0.0793
 6249W        W 9768   2.983   4.775   0.071 -0.3077 -0.0173 -0.2882
 6250W        W 9769   2.657   1.113   0.820 -0.3674  0.0729 -0.1903
 6251W        W 9770   1.843   7.222   9.671  0.0520  0.1463  0.0099
 6252W        W 9771   7.104   7.776   1.793  0.1063  0.3389 -0.0632
 6253W        W 9772   9.642   8.969   4.736 -0.0927 -0.0239  0.4045
 6254W        W 9773   1.142   1.258   0.439 -0.1530 -0.0217  0.1758
 6255W        W 9774   0.916   3.616  12.209  0.1046 -0.0520  0.0555
 6256W        W 9775   8.816   5.948  11.669  0.2477 -0.0020  0.2495
 6257W        W 9776   2.941   7.111   0.762  0.3433 -0.2764  0.1272
 6258W        W 9777   7.712   9.177   8.983 -0.0654 -0.1010  0.0228
 6259W        W 9778   2.526   3.006   0.993  0.0269 -0.0981  0.0611
 6260W        W 9779   2.937   7.556  10.828 -0.0743 -0.0117 -0.3052
 6261W        W 9780   0.926   7.589   9.070  0.3179 -0.0718  0.2041
 6262W        W 9781   9.393   0.297  10.452  0.0508  0.2554  0.2071
 6263W        W 9782   1.970   3.225   8.994  0.2118  0.1799  0.1597
 6264W        W 9783   9.683   4.303  11.911 -0.0932  0.1267 -0.0334
 6265W        W 9784   8.178   4.254  11.553 -0.0493  0.2560 -0.1595
 6266W        W 9785   8.172   1.882   1.966  0.2038 -0.1024 -0.1556
 6267W        W 9786   9.672   4.373  10.453  0.2559 -0.2911  0.3789
 6268W        W 9787   2.410   6.784   0.055  0.1439 -0.1954  0.0663
 6269W        W 9788   0.385   6.237   2.368 -0.1207  0.5968 -0.0909
 6270W        W 9789   6.761   7.055   3.300  0.0072  0.1128  0.0879
 6271W        W 9790   7.326   8.691  12.475  0.1246  0.0207 -0.0826
 6272W        W 9791   3.210   3.824   8.901  0.1246  0.0377  0.0988
 6273W        W 9792   2.274   3.946   9.571  0.1824  0.1080  0.0760
 6274W        W 9793   2.319   5.059   9.081 -0.2512 -0.1589 -0.1066
 6275W        W 9794   8.556   3.901   3.439  0.1286 -0.3282 -0.0857
 6276W        W 9795   0.497   1.805   3.201  0.0280  0.0593  0.2150
 6277W        W 9796   7.082   9.629   4.352 -0.0767 -0.1044  0.2442
 6278W        W 9797   4.352   0.046   1.044  0.0688 -0.0068 -0.0646
 6279W        W 9798   8.873   8.120  11.306 -0.3294  0.4366  0.2632
 6280W        W 9799   8.230   3.432   3.312 -0.1513 -0.3677 -0.0088
 6281W        W 9800   6.730   3.338   1.720 -0.1669 -0.0274  0.1551
 6282W        W 9801   7.549   6.818  10.034  0.2003 -0.1308  0.1268
 6283W        W 9802   0.536   0.231  10.778 -0.0943 -0.3244 -0.0697
 6284W        W 9803   5.810   1.050   3.671  0.3367 -0.2948  0.3934
 6285W        W 9804   7.217   7.572   5.186 -0.0289  0.2188  0.0996
 6286W        W 9805   8.242   4.291   0.342 -0.0286  0.1179 -0.1652
 6287W        W 9806   2.760   1.973   3.771  0.1910  0.1228  0.0078
 6288W        W 9807   2.331   6.560  11.261  0.1705 -0.0602 -0.2599
 6289W        W 9808   6.499   2.330   1.565 -0.0929 -0.1261 -0.1755
 6290W        W 9809   3.487   3.426  12.334 -0.2972 -0.0440 -0.1686
 6291W        W 9810   1.985   0.399  10.170 -0.0973  0.1105  0.4445
 6292W        W 9811   1.635   2.882   0.481 -0.0220 -0.0862  0.0053
 6293W        W 9812   5.932   4.619   3.366 -0.0241 -0.2517  0.0735
 6294W        W 9813   5.457   6.971   9.044 -0.0621 -0.0754 -0.1049
 6295W        W 9814   4.258   1.707  11.187 -0.3343 -0.4521  0.0409
 6296W        W 9815   9.597   8.070   1.299 -0.3983 -0.1230 -0.0436
 6297W        W 9816   0.203   2.094   0.574 -0.1597  0.5126  0.2580
 6298W        W 9817   9.419   0.825   1.188  0.1077  0.0280 -0.1167
 6299W        W 9818   3.756   8.216   1.948 -0.1128 -0.1465  0.1336
 6300W        W 9819   0.151   5.528   4.235  0.2221 -0.1831 -0.1812
 6301W        W 9820   7.907   1.315   2.025  0.0939  0.0203 -0.2950
 6302W        W 9821   4.721   6.503   2.140  0.3321 -0.2084  0.2580
 6303W        W 9822   6.796   8.583  12.404 -0.0193 -0.3595 -0.0416
 6304W        W 9823   6.872   7.431   2.970  0.1446  0.1964 -0.1302
 6305W        W 9824   9.414   3.164  11.054  0.0944 -0.4559 -0.2029
 6306W        W 9825   4.250   0.317   8.675 -0.2553 -0.2070 -0.2652
 6307W        W 9826   4.125   4.542   1.185 -0.0841 -0.3438 -0.3203
 6308W        W 9827   0.933   1.017   3.493 -0.0788 -0.0052 -0.4605
 6309W        W 9828   6.178   7.590   8.437  0.2499  0.1773  0.1299
 6310W        W 9829   6.603   6.762  10.736 -0.0114  0.1292 -0.1097
 6311W        W 9830   1.703   2.209   0.483 -0.0943 -0.2330  0.1490
 6312W        W 9831   9.152   0.687  10.701  0.0488 -0.2401 -0.3035
 6313W        W 9832   4.356   7.431   0.246 -0.1922  0.2637 -0.2152
 6314W        W 9833   0.956   6.558  10.137  0.0770  0.1526 -0.0518
 6315W        W 9834   8.631   4.465   0.604  0.0670 -0.2754 -0.0867
 6316W        W 9835   7.794   0.757   3.508 -0.2540 -0.1487 -0.1792
 6317W        W 9836   6.795   9.455  11.159 -0.1494  0.1448 -0.1244
 6318W        W 9837   7.091   3.900   0.234 -0.3878 -0.1806  0.0863
 6319W        W 9838   7.584   5.908   1.677 -0.1936 -0.0609 -0.1029
 6320W        W 9839   9.290   9.028   9.612  0.0088  0.0421 -0.2407
 6321W        W 9840   6.375   7.398   3.434 -0.4028  0.3187  0.0837
 6322W        W 9841   0.421   0.245  12.374 -0.1962  0.3716  0.0992
 6323W        W 9842   3.353   6.247   2.410 -0.0666  0.1081 -0.0357
 6324W        W 9843   7.988   7.440   9.547  0.1706 -0.0543  0.0044
 6325W        W 9844   8.443   2.924  11.898  0.0173 -0.0891 -0.1683
 6326W        W 9845   3.497   5.958  12.226  0.1452  0.1491 -0.1163
 6327W        W 9846   3.599   3.613  10.665 -0.0941  0.1551 -0.1935
 6328W        W 9847   2.114   3.839   1.913 -0.4624 -0.1961  0.0248
 6329W        W 9848   9.206   4.928  11.007  0.1192  0.2240 -0.0140
 6330W        W 9849   6.655   8.409   2.996  0.0183 -0.1305  0.2032
 6331W        W 9850   0.848   3.311   0.177 -0.2730  0.2489 -0.1279
 6332W        W 9851   9.636   2.885   1.395  0.1932  0.3561  0.1722
 6333W        W 9852   9.272   6.291   2.891 -0.1659  0.0611  0.0440
 6334W        W 9853   3.717   6.422  10.021 -0.1902 -0.0438 -0.0504
 6335W        W 9854   7.123   7.419   1.249 -0.0301 -0.1619  0.0452
 6336W        W 9855   2.160   4.903  10.323  0.2247  0.1944 -0.1154
 6337W        W 9856   4.137   1.712  10.602  0.0481 -0.0391  0.2343
 6338W        W 9857   7.897   0.774   4.062  0.1039 -0.0698  0.0941
 6339W        W 9858   0.986   9.662   2.617  0.0723 -0.3695  0.0264
 6340W        W 9859   5.455   6.245  10.366 -0.1043  0.0798  0.0938
 6341W        W 9860   8.453   0.173   4.026  0.0177  0.1182 -0.1672
 6342W        W 9861   0.112   4.503   4.700 -0.2730  0.3863  0.1359
 6343W        W 9862   5.147   6.803   9.978  0.1972  0.2068  0.0929
 6344W        W 9863   0.477   0.513  11.829  0.1185  0.1490 -0.0139
 6345W        W 9864   3.388   7.999  11.580 -0.2825 -0.2392 -0.1425
 6346W        W 9865   8.533   0.155  11.173  0.0740 -0.2033 -0.0471
 6347W        W 9866   3.518   2.180   1.233 -0.0772  0.0054 -0.1404
 6348W        W 9867   8.881   0.049   2.691 -0.2057 -0.3201  0.2362
 6349W        W 9868   5.394   7.770   2.154  0.2101  0.0098 -0.1149
 6350W        W 9869   2.092   1.209  11.118  0.1023  0.0972 -0.0612
 6351W        W 9870   1.977   2.085  12.108  0.2424 -0.1299  0.0357
 6352W        W 9871   6.148   8.650   2.849  0.3069 -0.0872 -0.0917
 6353W        W 9872   8.617   7.380   1.629  0.1071  0.1740 -0.0150
 6354W        W 9873   8.531   0.476   2.590 -0.0890  0.2459  0.1825
 6355W        W 9874   8.986   8.692   0.783  0.0971 -0.2029  0.0140
 6356W        W 9875   6.605   5.028   9.092  0.0520  0.2868  0.1147
 6357W        W 9876   7.077   4.098   1.995 -0.2372 -0.0262  0.0416
 6358W        W 9877   2.519   3.508   0.340  0.0739 -0.0891  0.4267
 6359W        W 9878   7.771   5.175  12.380 -0.0037 -0.0144  0.2430
 6360W        W 9879   1.394   2.801   3.360  0.1866  0.0820  0.1759
 6361W        W 9880   9.340   8.562  10.917 -0.0135  0.2024 -0.0907
 6362W        W 9881   8.074   1.024   8.143  0.0987 -0.1053  0.2198
 6363W        W 9882   1.161   2.615   9.161 -0.1856 -0.0630  0.2528
 6364W        W 9883   4.604   3.982   9.928 -0.0528 -0.0064 -0.1240
 6365W        W 9884   5.892   3.621  10.573  0.0700  0.0362 -0.0936
 6366W        W 9885   1.126   8.964   3.465 -0.1413 -0.2934  0.0939
 6367W        W 9886   2.664   3.857   4.110  0.1337  0.2678  0.1773
 6368W        W 9887   6.127   3.709   0.616  0.5070  0.0279 -0.1666
 6369W        W 9888   7.445   7.443   1.625 -0.0559 -0.3415  0.1235
 6370W        W 9889   5.986   8.153   2.509 -0.0032 -0.2637 -0.2870
 6371W        W 9890   2.809   5.717   0.199 -0.1151 -0.3463  0.0139
 6372W        W 9891   9.495   6.445   1.893  0.5403  0.0403 -0.2204
 6373W        W 9892   5.993   1.393   4.369 -0.0090 -0.1491  0.0374
 6374W        W 9893   0.241   2.994   1.023 -0.1961  0.0472 -0.1733
 6375W        W 9894   2.329   7.323   0.847  0.0219 -0.1260  0.0224
 6376W        W 9895   7.849   5.791  11.505  0.2599 -0.3249  0.0147
 6377W        W 9896   2.321   9.516  10.958 -0.0275  0.0654 -0.0253
 6378W        W 9897   8.218   3.696  10.254  0.0490  0.0267  0.0747
 6379W        W 9898   5.762   7.493   4.201 -0.1470 -0.1188  0.2392
 6380W        W 9899   2.003   9.241   0.332 -0.1180 -0.0984 -0.1092
 6381W        W 9900   1.771   3.930   9.575  0.3109 -0.1420 -0.2988
 6382W        W 9901   2.920   2.855   1.425  0.1839  0.3508  0.1363
 6383W        W 9902   4.978   1.154   0.152 -0.2277  0.1677  0.2629
 6384W        W 9903   8.094   8.200   1.049  0.4083 -0.0888  0.1090
 6385W        W 9904   1.885   8.927  11.984 -0.3194 -0.2922 -0.1202
 6386W        W 9905   0.827   8.278  10.706 -0.2225  0.3431 -0.0317
 6387W        W 9906   5.357   4.169   9.303  0.0415  0.2390  0.0657
 6388W        W 9907   4.976   1.685  10.039  0.2524  0.2255  0.0436
 6389W        W 9908   3.279   2.672   0.561  0.1486 -0.3539  0.0261
 6390W        W 9909   1.600   4.551  11.152  0.1507  0.0251  0.0149
 6391W        W 9910   3.845   7.201   0.507  0.1158 -0.0259  0.0186
 6392W        W 9911   2.751   8.679   8.804  0.0767  0.2202 -0.0006
 6393W        W 9912   5.146   3.238   4.192 -0.0581 -0.0875 -0.0659
 6394W        W 9913   5.882   9.490   9.947 -0.0121  0.1392  0.0571
 6395W        W 9914   7.819   8.355   3.108 -0.1330  0.1753 -0.0296
 6396W        W 9915   8.358   9.408   1.372  0.1392  0.0069 -0.0568
 6397W        W 9916   5.063   3.461   8.349 -0.1687 -0.2704  0.0824
 6398W        W 9917   0.066   3.123   3.258 -0.0045 -0.1942  0.0354
 6399W        W 9918   6.432   0.633   9.085 -0.1344  0.1856 -0.1428
 6400W        W 9919   8.463   8.679  11.941  0.1558 -0.3168  0.1617
 6401W        W 9920   5.360   1.108   9.521  0.3299  0.1696 -0.2004
 6402W        W 9921   4.136   5.752   9.785 -0.2245 -0.0689  0.0291
 6403W        W 9922   8.862   6.998   3.665  0.5042  0.1284 -0.1931
 6404W        W 9923   2.400   4.122   1.500  0.0962 -0.0523 -0.1066
 6405W        W 9924   3.733   3.987   0.328  0.2010  0.0996 -0.2079
 6406W        W 9925   7.098   4.029   0.983  0.1310  0.0309  0.0529
 6407W        W 9926   9.349   3.639  11.273 -0.0486 -0.0164 -0.1397
 6408W        W 9927   1.232   6.644   1.865 -0.0867  0.3962 -0.2764
 6409W        W 9928   4.862   3.386   3.379 -0.1824 -0.1818 -0.0353
 6410W        W 9929   4.081   8.686   2.484  0.3090 -0.2415 -0.1803
 6411W        W 9930   3.797   1.598  12.075 -0.1609  0.1126 -0.0787
 6412W        W 9931   0.937   4.700   1.930  0.0343  0.1762  0.0408
 6413W        W 9932   9.139   1.567   1.954  0.0186  0.0132 -0.0557
 6414W        W 9933   6.622   1.632   0.189 -0.1862  0.2215  0.2417
 6415W        W 9934   0.284   8.318   2.054  0.0947 -0.1061 -0.2471
 6416W        W 9935   1.226   3.359   2.128  0.0795 -0.1669  0.3930
 6417W        W 9936   6.775   5.910   1.226  0.1377 -0.1216  0.1949
 6418W        W 9937   7.854   3.652   4.334 -0.0744 -0.0610 -0.2522
 6419W        W 9938   6.533   9.596   2.270 -0.2952  0.0964  0.4564
 6420W        W 9939   2.457   5.023   0.947 -0.0359  0.3540  0.2768
 6421W        W 9940   5.159   4.563   0.195 -0.1043  0.0328  0.0580
 6422W        W 9941   1.809   7.811   3.400 -0.0253  0.0296 -0.0125
 6423W        W 9942   3.427   5.162   3.538  0.0999  0.2801 -0.1963
 6424W        W 9943   0.875   0.097   3.075 -0.0245 -0.0297  0.0733
 6425W        W 9944   1.798   4.866   1.025 -0.1136 -0.3122 -0.0897
 6426W        W 9945   0.477   3.357   8.920 -0.2418 -0.1936  0.2081
 6427W        W 9946   2.208   8.788   9.896 -0.0124 -0.0036  0.1463
 6428W        W 9947   3.555   7.603   0.713 -0.1220 -0.1473  0.0769
 6429W        W 9948   7.584   5.409   1.835 -0.2790 -0.0670  0.0102
 6430W        W 9949   1.873   7.534   9.290  0.1641 -0.1882 -0.1471
 6431W        W 9950   4.182   5.765   3.340  0.0457 -0.0047  0.0607
 6432W        W 9951   1.590   8.084   2.601 -0.0476  0.3392  0.0177
 6433W        W 9952   1.293   6.356   2.817  0.1584 -0.1697  0.2804
 6434W        W 9953   0.423   8.585   9.586 -0.1114 -0.1734  0.3125
 6435W        W 9954   5.628   4.213   1.353  0.0638  0.0260 -0.0665
 6436W        W 9955   7.481   1.048  10.960  0.0335 -0.0977 -0.1097
 6437W        W 9956   8.329   1.577   2.746  0.3967 -0.2208  0.2233
 6438W        W 9957   1.205   5.119   9.978  0.2874 -0.2121  0.4067
 6439W        W 9958   9.118   4.073  11.045 -0.1764  0.1181  0.0830
 6440W        W 9959   3.228   0.450   8.822 -0.3014  0.3273  0.0025
 6441W        W 9960   7.703   3.954   8.161 -0.1505 -0.0791 -0.3559
 6442W        W 9961   7.628   8.575   0.385  0.3100 -0.0923 -0.0239
 6443W        W 9962   7.665   5.871  10.510 -0.2874 -0.2369 -0.0906
 6444W        W 9963   8.043   9.381   2.815 -0.1150 -0.0180  0.1323
 6445W        W 9964   4.636   6.945   9.478  0.1073 -0.2525  0.1225
 6446W        W 9965   9.206   2.672  10.810  0.2830  0.0917  0.1954
 6447W        W 9966   0.506   6.526  11.085  0.0211  0.1133  0.0009
 6448W        W 9967   8.076   2.137  12.405  0.2489 -0.0187 -0.0092
 6449W        W 9968   7.508   1.852  10.756  0.1598  0.2360 -0.1182
 6450W        W 9969   0.490   5.043   2.827  0.1231  0.1910  0.0715
 6451W        W 9970   3.878   4.275   0.873 -0.1452 -0.2402 -0.0048
 6452W        W 9971   3.992   2.920   1.087 -0.1048  0.0077  0.0251
 6453W        W 9972   1.914   0.646   7.849  0.2139  0.1272 -0.1800
 6454W        W 9973   3.213   5.640  10.744  0.0164 -0.1695  0.1845
 6455W        W 9974   6.531   4.519   3.096  0.0531 -0.3084  0.1990
 6456W        W 9975   6.150   4.125   1.158 -0.0802 -0.0637 -0.0704
 6457W        W 9976   7.915   2.361   7.800 -0.1449  0.0493 -0.0167
 6458W        W 9977   7.417   6.682   8.696 -0.0374 -0.1752 -0.1038
 6459W        W 9978   7.888   6.062   8.724 -0.1759 -0.3520 -0.2076
 6460W        W 9979   8.281   6.343   2.895  0.0171  0.1977 -0.2788
 6461W        W 9980   1.901   9.638  10.732  0.1177 -0.0021  0.0529
 6462W        W 9981   4.976   2.314   2.637  0.5525 -0.3064  0.1867
 6463W        W 9982   4.567   3.397   8.181  0.0079  0.0012  0.2564
 6464W        W 9983   1.117   2.784   8.708  0.1250  0.1800 -0.1187
 6465W        W 9984   1.380   1.970  11.432  0.0260 -0.4829 -0.3378
 6466W        W 9985   5.024   7.203   8.979 -0.1545 -0.1736 -0.0563
 6467W        W 9986   1.776   7.885  10.685 -0.1246 -0.1408 -0.2125
 6468W        W 9987   3.422   4.722  11.258  0.0600 -0.1128 -0.0338
 6469W        W 9988   5.186   0.212  11.983 -0.2746  0.0197 -0.2424
 6470W        W 9989   8.581   1.299   8.264  0.3043 -0.2043 -0.3679
 6471W        W 9990   8.899   9.114   3.018 -0.1342 -0.3694 -0.3311
 6472W        W 9991   0.370   9.602   3.225  0.0573  0.3530 -0.1334
 6473W        W 9992   7.988   7.577  10.394  0.2113 -0.1705 -0.1459
 6474W        W 9993   4.091   4.041   8.955 -0.0330 -0.1372 -0.0247
 6475W        W 9994   8.106   8.137   7.907  0.0061  0.0658 -0.0147
 6476W        W 9995   9.646   6.312   3.350 -0.0817 -0.3342 -0.2221
 6477W        W 9996   8.219   0.137  11.864  0.0031 -0.0040 -0.0076
 6478W        W 9997   3.232   6.894  12.320  0.1353  0.1402 -0.0249
 6479W        W 9998   2.559   7.886   0.061  0.0286 -0.2100  0.0139
 6480W        W 9999   2.911   5.060   1.782 -0.1311 -0.1912 -0.0613
 6481W        W10000   2.110   5.393   9.485  0.0006  0.0416  0.0355
 6482W        W10001   2.758   1.945   8.343  0.1548 -0.1074 -0.3428
 6483W        W10002   6.921   4.514   0.930 -0.2793 -0.1400  0.3212
 6484W        W10003   0.317   6.151   1.352  0.1109  0.0598  0.0543
 6485W        W10004   1.735   8.103   0.461 -0.0406 -0.0267  0.4382
 6486W        W10005   4.481   7.071  11.065 -0.3403  0.0302  0.0632
 6487W        W10006   0.417   0.111   8.150 -0.0841 -0.2231  0.2021
 6488W        W10007   1.815   3.638   2.926  0.0028 -0.1935 -0.0486
 6489W        W10008   4.093   8.962   9.857 -0.0303  0.3199 -0.0827
 6490W        W10009   4.934   3.798   9.599  0.0652 -0.0995 -0.3374
 6491W        W10010   4.547   7.607   8.737  0.1403 -0.4093  0.1043
 6492W        W10011   0.986   7.113   0.179  0.2448  0.0200 -0.0497
 6493W        W10012   7.359   1.657   0.255  0.2061 -0.0231 -0.1577
 6494W        W10013   6.855   8.135   8.433 -0.1310 -0.2761  0.0872
 6495W        W10014   8.993   2.996   1.118 -0.0038  0.0725  0.2529
 6496W        W10015   5.425   4.397  11.429 -0.1230  0.1946  0.1699
 6497W        W10016   1.752   9.650   8.238  0.1991  0.1252  0.0747
 6498W        W10017   6.856   5.859   2.267 -0.1171 -0.1557  0.0252
 6499W        W10018   0.749   3.529   3.477 -0.0380 -0.1566 -0.1800
 6500W        W10019   7.167   7.342   4.254 -0.4700  0.1152 -0.1714
 6501W        W10020   9.578   8.059  10.400 -0.1431 -0.1978  0.3049
 6502W        W10021   6.834   5.611  11.519  0.0616 -0.2101  0.2327
 6503W        W10022   1.600   9.586   2.923 -0.0806 -0.1309  0.0053
 6504W        W10023   3.866   2.208  10.658 -0.0750  0.3908  0.1372
 6505W        W10024   0.880   4.140  10.811  0.1576 -0.1566 -0.3207
 6506W        W10025   6.671   1.916   8.435  0.0919 -0.1646  0.1187
 6507W        W10026   8.100   4.884   3.655  0.1451 -0.2344 -0.0771
 6508W        W10027   6.614   9.466   9.396  0.2392  0.0297 -0.1341
 6509W        W10028   6.511   8.103   1.916  0.0972 -0.0712 -0.0579
 6510W        W10029   6.157   1.415  11.324  0.3031  0.0282  0.1031
 6511W        W10030   4.323   9.185   1.757  0.1290  0.0302 -0.0713
 6512W        W10031   4.466   7.827  12.368 -0.3569 -0.1083  0.2411
 6513W        W10032   7.538   0.075   8.952 -0.3300  0.0434  0.0822
 6514W        W10033   5.266   6.835   1.196  0.2486  0.0685 -0.1812
 6515W        W10034   6.022   6.696   2.434  0.3815 -0.2116  0.0761
 6516W        W10035   4.102   0.925   0.899 -0.3954  0.2143  0.0462
 6517W        W10036   4.646   8.508   1.091 -0.1169  0.1509  0.0854
 6518W        W10037   8.881   4.968  11.453  0.0421 -0.1932 -0.2098
 6519W        W10038   1.326   8.611   2.671 -0.1563 -0.2669 -0.0682
 6520W        W10039   6.576   5.556   4.331 -0.2134  0.0814  0.0233
 6521W        W10040   5.096   5.943   2.652 -0.2532  0.0045 -0.2180
 6522W        W10041   4.639   1.371   9.897 -0.1711 -0.1170  0.1313
 6523W        W10042   3.285   1.899   3.695 -0.2979 -0.0949 -0.0293
 6524W        W10043   8.090   7.055   4.736  0.2459 -0.0257  0.1560
 6525W        W10044   8.446   2.472   1.827  0.2072  0.0650  0.1554
 6526W        W10045   0.925   7.590   9.729 -0.2060 -0.1079  0.1111
 6527W        W10046   7.854   1.186   1.563 -0.0835  0.2216 -0.0102
 6528W        W10047   0.555   3.529   7.776  0.1651 -0.0969 -0.1829
 6529W        W10048   8.556   5.586   7.294 -0.0152 -0.2859 -0.4822
 6530W        W10049   1.853   6.048   3.930  0.0359 -0.1958 -0.1409
 6531W        W10050   0.416   9.603   8.607 -0.1341 -0.0568  0.1902
 6532W        W10051   6.738   4.311   3.490 -0.3463 -0.1912  0.1690
 6533W        W10052   4.090   5.687   1.929 -0.1731  0.0124  0.2188
 6534W        W10053   9.330   0.810   0.703 -0.1157 -0.0371 -0.0347
 6535W        W10054   4.120   1.793   0.418  0.1789 -0.0664  0.0482
 6536W        W10055   6.373   5.163   2.817  0.0035  0.0960  0.0212
 6537W        W10056   5.920   2.175   0.187  0.0237  0.4001 -0.1801
 6538W        W10057   9.105   4.410  11.720  0.2489 -0.1345 -0.2093
 6539W        W10058   4.751   5.051   3.407 -0.0372 -0.1079  0.1091
 6540W        W10059   0.059   2.897  12.174 -0.3084  0.0981 -0.0743
 6541W        W10060   5.525   0.216   0.254 -0.0441  0.2458 -0.0875
 6542W        W10061   9.425   2.241  10.650 -0.1158 -0.0059 -0.0486
 6543W        W10062   0.253   2.277   8.203 -0.0560 -0.0390 -0.0737
 6544W        W10063   9.180   7.136   9.403  0.1251 -0.0100 -0.2497
 6545W        W10064   1.846   3.528  11.714  0.0963 -0.0688  0.4408
 6546W        W10065   6.918   8.243   1.035  0.2721 -0.0067  0.0306
 6547W        W10066   2.988   3.003  10.034 -0.2545  0.2009 -0.0876
 6548W        W10067   6.426   4.970   0.267 -0.0821 -0.4274 -0.1385
 6549W        W10068   8.271   2.574   4.424 -0.0267 -0.1917 -0.0305
 6550W        W10069   1.429   4.952   1.595  0.2328 -0.0023  0.1971
 6551W        W10070   9.063   1.175   3.852  0.0741 -0.0734 -0.1623
 6552W        W10071   1.002   9.359   8.773  0.1103 -0.1509 -0.2000
 6553W        W10072   6.526   6.878   0.506 -0.0794  0.0277  0.1362
 6554W        W10073   3.690   0.163  10.121  0.0002  0.0410 -0.1280
 6555W        W10074   8.766   3.464   3.244 -0.0683 -0.0193 -0.1321
 6556W        W10075   5.770   1.533  11.729  0.2561 -0.0349  0.2387
 6557W        W10076   9.561   0.126  12.463 -0.4466  0.4145 -0.4834
 6558W        W10077   5.325   4.230   3.008  0.2564 -0.0081  0.2711
 6559W        W10078   3.075   7.870   0.153 -0.1746  0.3267 -0.0007
 6560W        W10079   5.552   1.795   1.672 -0.0681 -0.4803  0.0151
 6561W        W10080   4.923   2.081  11.058 -0.0098 -0.0635  0.1859
 6562W        W10081   4.061   2.029  12.015 -0.1057  0.2759  0.2537
 6563W        W10082   4.960   0.033   1.715  0.1576  0.0478  0.0789
 6564W        W10083   7.890   2.374   2.587 -0.1454  0.0172  0.1092
 6565W        W10084   5.234   7.113   0.809  0.2500  0.1130  0.1017
 6566W        W10085   1.135   8.094   9.306  0.0493  0.0455  0.1622
 6567W        W10086   6.567   6.593   3.397 -0.1716  0.1964  0.1953
 6568W        W10087   3.722   7.875   2.786 -0.1167  0.1188 -0.1514
 6569W        W10088   7.512   5.053  11.969  0.0257  0.1360  0.2846
 6570W        W10089   7.678   5.985   9.450 -0.0721  0.1169  0.1252
 6571W        W10090   6.587   7.896   3.055 -0.2431 -0.2705 -0.0236
 6572W        W10091   8.615   6.142   9.277  0.0333 -0.1194 -0.1203
 6573W        W10092   5.944   0.834  10.061  0.3056  0.1119  0.2220
 6574W        W10093   4.904   1.001   3.490  0.2163  0.2741  0.1207
 6575W        W10094   4.947   4.530  10.161 -0.0937  0.0902 -0.1609
 6576W        W10095   2.018   4.930   9.837 -0.1161  0.1195  0.1366
 6577W        W10096   1.215   9.401   1.600 -0.2364 -0.1060 -0.0305
 6578W        W10097   4.446   6.877   0.207 -0.1896  0.0057 -0.0039
 6579W        W10098   4.435   9.244  10.131  0.1034  0.2002 -0.1468
 6580W        W10099   9.129   5.581  11.341 -0.0167 -0.3764 -0.2842
 6581W        W10100   3.230   9.553   7.744 -0.0598 -0.2613  0.0594
 6582W        W10101   5.404   5.138  12.123  0.1683  0.2484 -0.0729
 6583W        W10102   6.111   1.067   2.519 -0.1919  0.0648  0.4061
 6584W        W10103   1.846   3.294   9.539 -0.0107  0.0453  0.0318
 6585W        W10104   7.096   2.236  12.117  0.1045  0.1114  0.0148
 6586W        W10105   8.937   7.943  10.356 -0.2483 -0.0307  0.0796
 6587W        W10106   1.395   6.340   9.123 -0.0375  0.1057  0.1070
 6588W        W10107   7.821   7.627   8.792  0.1267 -0.0365 -0.0212
 6589W        W10108   5.549   7.589   9.631  0.0968 -0.0815 -0.0577
 6590W        W10109   2.376   0.041   9.909 -0.4206  0.0389 -0.0007
 6591W        W10110   7.976   2.564  10.039  0.0782  0.0802 -0.0250
 6592W        W10111   7.355   6.995   9.097  0.0541 -0.1017  0.0179
 6593W        W10112   6.008   0.312   9.922  0.1277  0.0223 -0.0695
 6594W        W10113   3.010   5.617   0.643  0.2583 -0.0748 -0.1876
 6595W        W10114   6.159   5.159  11.460  0.2313  0.1857  0.0578
 6596W        W10115   8.307   7.800   1.642 -0.2156 -0.0478 -0.0673
 6597W        W10116   0.884   3.189   1.746 -0.0269 -0.2873  0.0920
 6598W        W10117   4.998   8.271   2.706  0.0997  0.2024 -0.0812
 6599W        W10118   8.541   5.430   8.720  0.2067 -0.0289  0.0196
 6600W        W10119   2.303   1.876   8.690  0.3830  0.1167 -0.3965
 6601W        W10120   9.542   1.961   9.213  0.0051  0.0782  0.0545
 6602W        W10121   2.862   4.924   0.688  0.0728  0.1009 -0.0385
 6603W        W10122   9.388   2.290   1.392 -0.1389 -0.0081 -0.1579
 6604W        W10123   4.929   4.359   2.676  0.1375  0.1114 -0.0757
 6605W        W10124   7.572   4.821   9.535 -0.0013  0.0154  0.2949
 6606W        W10125   9.644   2.840  10.689 -0.0636 -0.0112 -0.4275
 6607W        W10126   6.152   0.227  10.853  0.4165 -0.0954 -0.0380
 6608W        W10127   1.498   7.745   2.223  0.1148 -0.1761  0.2824
 6609W        W10128   4.450   1.824   2.105  0.0453  0.2818  0.1265
 6610W        W10129   2.294   1.849  10.233  0.1548 -0.0803 -0.1625
 6611W        W10130   8.602   3.739  12.334 -0.2771  0.3316  0.3164
 6612W        W10131   5.091   1.948  12.208  0.2194 -0.0991  0.0580
 6613W        W10132   1.137   3.726   0.459 -0.0937 -0.1116  0.0131
 6614W        W10133   6.042   6.586   1.043  0.1352  0.1471  0.2367
 6615W        W10134   4.640   3.825   0.409 -0.0702 -0.5109  0.0785
 6616W        W10135   6.540   4.011   2.869 -0.0078  0.2356 -0.0350
 6617W        W10136   7.444   0.544  10.094 -0.1899 -0.2397 -0.1465
 6618W        W10137   2.704   3.275  10.362 -0.0936 -0.3446 -0.0942
 6619W        W10138   4.452   3.888   9.443 -0.3130 -0.4449  0.1572
 6620W        W10139   5.443   6.596  10.820 -0.0523 -0.3342  0.0207
 6621W        W10140   9.243   9.496  11.251  0.0427  0.0972  0.0838
 6622W        W10141   2.722   0.184  12.274 -0.2260  0.0011 -0.0145
 6623W        W10142   4.589   0.574   3.445 -0.0699  0.0856  0.3758
 6624W        W10143   5.657   8.217   0.482 -0.3177 -0.1621  0.1194
 6625W        W10144   7.206   3.019   7.932 -0.1332 -0.0538  0.2029
 6626W        W10145   8.580   8.163   1.902  0.0408  0.0086  0.0901
 6627W        W10146   7.674   2.263  10.971 -0.0025  0.1857  0.0113
 6628W        W10147   8.647   5.106   2.704  0.1375 -0.1551  0.0659
 6629W        W10148   6.726   5.811   1.757 -0.3979 -0.0859  0.1916
 6630W        W10149   5.708   9.530   3.020  0.1583 -0.0942  0.0282
 6631W        W10150   5.298   1.520   0.468  0.0578 -0.1878 -0.0302
 6632W        W10151   9.615   8.219  12.191  0.1400  0.1412  0.2774
 6633W        W10152   8.699   6.094   3.115  0.2606 -0.0315  0.1618
 6634W        W10153   7.516   2.331   1.326  0.2298  0.0593 -0.0037
 6635W        W10154   3.391   9.108   1.928  0.0113  0.0244 -0.3996
 6636W        W10155   4.172   6.735   2.053  0.0578  0.1566  0.1653
 6637W        W10156   6.331   3.083   1.782 -0.0399 -0.1566  0.4647
 6638W        W10157   1.603   5.392   3.472  0.0493  0.0423 -0.2511
 6639W        W10158   9.139   8.292   2.561  0.1549  0.0990 -0.1160
 6640W        W10159   6.102   8.764   9.536  0.1091 -0.1776 -0.1422
 6641W        W10160   4.367   8.023  10.468 -0.0948 -0.1260  0.0291
 6642W        W10161   5.854   3.469   2.532 -0.1116 -0.0319 -0.3047
 6643W        W10162   2.919   6.959   1.784  0.0389  0.1243 -0.1132
 6644W        W10163   3.932   6.411   1.222 -0.2364 -0.4211  0.0913
 6645W        W10164   8.159   5.926  10.777 -0.3034 -0.0755 -0.0981
 6646W        W10165   3.501   2.265  11.344  0.0750  0.2601 -0.0924
 6647W        W10166   6.353   2.359   8.584  0.0292  0.1451  0.0021
 6648W        W10167   8.432   3.714   9.230 -0.2395  0.0568 -0.1152
 6649W        W10168   2.547   8.527  12.321  0.2592  0.0019 -0.0448
 6650W        W10169   0.186   5.545   2.734 -0.1566  0.1090  0.0341
 6651W        W10170   7.118   8.457  12.025  0.0514  0.2467  0.3384
 6652W        W10171   2.662   3.740   1.178  0.0305  0.0326 -0.1449
 6653W        W10172   9.552   3.863  10.506 -0.0101  0.1107 -0.0417
 6654W        W10173   4.197   2.593  10.702  0.5642 -0.1817 -0.3216
 6655W        W10174   5.779   8.544  12.100  0.1690  0.1266  0.2067
 6656W        W10175   7.826   1.959   4.160 -0.0372  0.0210  0.2760
 6657W        W10176   3.729   2.100   4.478  0.0236 -0.0780  0.1204
 6658W        W10177   3.317   7.365   3.471 -0.2734  0.2470 -0.0444
 6659W        W10178   5.770   5.924   0.098 -0.1548  0.1153 -0.0945
 6660W        W10179   9.192   0.973   8.209  0.0107  0.0558  0.0902
 6661W        W10180   7.727   0.692   9.661  0.2120  0.0292 -0.1488
 6662W        W10181   6.077   2.969   9.084  0.1446 -0.0201  0.0547
 6663W        W10182   0.693   7.810   0.562  0.1708  0.2002  0.0996
 6664W        W10183   8.827   3.221   1.496 -0.0061  0.0262  0.2433
 6665W        W10184   1.374   4.187   0.336 -0.1103  0.1655  0.2050
 6666W        W10185   4.332   8.097   1.122 -0.0903  0.4520  0.1531
 6667W        W10186   4.622   9.001   8.750 -0.1581  0.2834  0.0283
 6668W        W10187   6.501   5.282  10.647 -0.0730  0.3867 -0.0028
 6669W        W10188   0.622   3.899   0.588 -0.3796 -0.1062 -0.0324
 6670W        W10189   5.270   2.829   0.499  0.1388  0.0505 -0.1739
 6671W        W10190   2.976   7.628   9.252  0.2953 -0.2814 -0.2464
 6672W        W10191   1.242   5.012   3.628  0.1640 -0.3731  0.1161
 6673W        W10192   4.932   7.719   1.786 -0.2394  0.3364 -0.0295
 6674W        W10193   7.196   2.986  11.072 -0.1310 -0.2731  0.0145
 6675W        W10194   2.400   5.382  10.634  0.2492 -0.1885  0.0728
 6676W        W10195   9.492   2.345   0.527 -0.3899 -0.2095  0.1772
 6677W        W10196   6.878   8.003   2.212 -0.2278  0.1913 -0.0062
 6678W        W10197   4.176   5.496   2.875 -0.1121  0.2576 -0.1735
 6679W        W10198   2.010   4.506   1.256  0.0075  0.1385 -0.0688
 6680W        W10199   0.232   2.670   3.440 -0.0125 -0.0656 -0.1241
 6681W        W10200   7.547   3.203   1.977 -0.1630  0.2520 -0.0030
 6682W        W10201   8.206   5.430   2.682 -0.3337 -0.0747 -0.2217
 6683W        W10202   6.959   8.221   1.519  0.0602  0.3583 -0.2010
 6684W        W10203   1.444   9.117   1.090  0.1689  0.0683  0.1590
 6685W        W10204   5.506   6.312   0.994  0.1820  0.1115  0.0549
 6686W        W10205   6.609   8.981  12.094  0.0137 -0.3338 -0.1171
 6687W        W10206   0.282   8.150   1.059 -0.0316  0.0022 -0.0073
 6688W        W10207   9.689   4.406   9.497 -0.1171 -0.2694  0.4170
 6689W        W10208   8.863   8.653   2.242 -0.1364 -0.0764  0.0465
 6690W        W10209   8.057   8.620   4.636  0.2927 -0.2377  0.2270
 6691W        W10210   4.155   4.227   8.474  0.1416  0.1603  0.1171
 6692W        W10211   6.614   5.322   3.691 -0.0241 -0.0739 -0.1862
 6693W        W10212   1.508   6.520  10.822 -0.1321  0.2093  0.0276
 6694W        W10213   8.289   6.702  11.866  0.3101  0.3793  0.1852
 6695W        W10214   3.579   9.449   1.107  0.0244  0.1983  0.0352
 6696W        W10215   4.264   1.285   8.632 -0.3610  0.2576  0.0679
 6697W        W10216   4.046   3.029  11.968 -0.1625  0.0618  0.1562
 6698W        W10217   1.588   2.463   8.962 -0.1419  0.1904  0.1775
 6699W        W10218   5.964   2.986   2.266  0.0062  0.0284  0.1483
 6700W        W10219   4.891   2.955   9.275 -0.1396  0.0691  0.1386
 6701W        W10220   5.904   8.971  12.412  0.1787 -0.2771  0.2872
 6702W        W10221   9.413   8.025  10.876  0.0943 -0.1148  0.0765
 6703W        W10222   7.628   1.946   2.596  0.2022 -0.0635  0.1529
 6704W        W10223   7.215   6.353   9.347 -0.0012 -0.4415  0.2801
 6705ION    NA+10224   8.864   4.001   0.884  0.1564 -0.0660  0.0848
 6706ION    NA+10225   2.033   7.919   1.577  0.1883 -0.0390  0.0485
 6707ION    NA+10226   1.439   2.395  11.625  0.2127 -0.3959 -0.1662
 6708ION    NA+10227   8.922   8.428  11.743  0.0776  0.3680  0.0595
 6709ION    NA+10228   5.065   3.251  10.490 -0.1530 -0.1449 -0.0599
 6710ION    NA+10229   1.169   4.504   1.553 -0.0483 -0.0662  0.1191
 6711ION    NA+10230   6.143   3.710   4.311 -0.0487 -0.0367 -0.2283
 6712ION    NA+10231   1.310   9.700   3.759 -0.0483 -0.0311  0.4002
 6713ION    NA+10232   7.164   7.867   4.123  0.1042  0.2645  0.4477
 6714ION    NA+10233   6.923   5.522   9.929  0.0592  0.1483  0.0149
 6715ION    NA+10234   2.674   3.681   8.943 -0.0733  0.1825 -0.1969
 6716ION    NA+10235   0.732   2.427   4.405 -0.0301 -0.2457  0.1006
 6717ION    NA+10236   2.759   6.593  11.099 -0.3190  0.0074 -0.1419
 6718ION    NA+10237   6.663   1.931  11.683 -0.1221 -0.1479  0.1360
 6719ION    NA+10238   6.407   6.215   3.767  0.1081  0.0080  0.0548
 6720ION    NA+10239   1.117   2.591   2.479  0.3042  0.1671  0.1317
 6721ION    NA+10240   0.332   1.002   4.604  0.2227  0.1248  0.0264
 6722ION    NA+10241   8.597   2.802   7.817  0.0319  0.0285 -0.0325
 6723ION    NA+10242   0.130   5.724  10.864  0.0098 -0.0412 -0.0855
 6724ION    NA+10243   4.616   9.263   0.726  0.1378 -0.0416  0.1920
 6725ION    NA+10244   0.148   7.769   8.944 -0.0059 -0.3103 -0.0934
 6726ION    NA+10245   7.782   5.170   0.554  0.1264  0.0006  0.3931
 6727ION    NA+10246   1.444   3.221   1.696  0.0829 -0.0433 -0.3116
 6728ION    NA+10247   0.081   6.754  10.515 -0.3222 -0.0753 -0.0812
 6729ION    NA+10248   1.695   4.692  10.681 -0.0074  0.4985 -0.2566
 6730ION    NA+10249   2.925   2.748   4.213  0.1278 -0.1017  0.1927
 6731ION    NA+10250   3.642   3.437   0.318 -0.1180  0.0148 -0.1235
 6732ION    NA+10251   7.963   1.596  11.549  0.2180 -0.0816 -0.2982
 6733ION    NA+10252   1.243   5.252   8.132  0.2144 -0.0085  0.0894
 6734ION    NA+10253   1.918   3.511   8.265 -0.2152 -0.1739 -0.0930
 6735ION    NA+10254   0.689   5.356   0.100  0.2684 -0.1554 -0.1682
 6736ION    NA+10255   9.305   3.176  12.105 -0.1998 -0.0779  0.3418
 6737ION    NA+10256   4.547   5.358  10.145  0.0070 -0.0172 -0.0482
 6738ION    NA+10257   6.647   5.733  10.942  0.1429 -0.0665 -0.0366
 6739ION    NA+10258   5.253   7.280   1.432  0.0406  0.1645  0.0778
 6740ION    NA+10259   3.183   6.154   9.419 -0.2918  0.2277 -0.3500
 6741ION    NA+10260   0.593   6.655   8.233 -0.1526  0.0856  0.0547
 6742ION    NA+10261   0.015   5.849   0.965  0.1133  0.2906  0.2408
 6743ION    NA+10262   6.492   8.818   0.698 -0.4055 -0.0812 -0.2808
 6744ION    NA+10263   0.410   0.633   9.653  0.1201 -0.0762  0.0900
 6745ION    NA+10264   2.724   5.995   3.545 -0.0226  0.4162  0.2449
 6746ION    NA+10265   2.647   3.218   3.270 -0.0257 -0.0215 -0.2006
 6747ION    NA+10266   8.436   5.710   1.086  0.1427  0.0596 -0.1396
 6748ION    NA+10267   3.324   7.288   1.130 -0.2390 -0.0536 -0.0098
 6749ION    NA+10268   5.896   3.566   3.372 -0.2539  0.0259 -0.0554
 6750ION    NA+10269   0.886   0.672   3.166  0.2652  0.0584  0.0362
 6751ION    NA+10270   9.168   0.692   9.265 -0.0619  0.2064  0.1236
 6752ION    NA+10271   0.870   5.952   2.398  0.3596 -0.0347 -0.0472
 6753ION    NA+10272   5.127   8.136   0.410  0.2850  0.1222 -0.0012
 6754ION    NA+10273   6.176   2.266   0.581  0.3353  0.0409 -0.1522
 6755ION    NA+10274   4.559   6.037   0.803 -0.0815 -0.2848 -0.0154
 6756ION    NA+10275   4.034   6.904   2.628 -0.0958  0.1042 -0.0609
 6757ION    NA+10276   4.051   8.440  11.840  0.2871  0.1104 -0.1854
 6758ION    NA+10277   7.805   5.764   7.433 -0.4279  0.4652 -0.1122
 6759ION    NA+10278   6.351   5.265   1.806 -0.0077  0.1735  0.0778
 6760ION    NA+10279   5.899   8.391  10.409 -0.1570  0.2347 -0.1798
 6761ION    NA+10280   9.278   7.315   2.402 -0.3421  0.1097 -0.3526
 6762ION    NA+10281   9.227   4.057   8.230  0.2283  0.1458 -0.0976
 6763ION    NA+10282   0.080   4.871   2.042 -0.4474  0.1719 -0.1814
 6764ION    NA+10283   7.838   1.320   7.813  0.0381 -0.1702  0.3795
 6765ION    NA+10284   1.597   9.439   9.437 -0.0236  0.2345 -0.3027
 6766ION    NA+10285   5.822   7.539  10.582 -0.1771 -0.1810  0.0266
 6767ION    NA+10286   3.710   0.617   1.716 -0.0226  0.0666 -0.0469
 6768ION    NA+10287   9.634   7.332   9.806 -0.3345 -0.0245 -0.1750
 6769ION    NA+10288   9.146   3.552  10.351 -0.1183  0.1228 -0.0182
 6770ION    NA+10289   4.146   1.048   8.041  0.1059 -0.2675  0.1547
 6771ION    NA+10290   8.578   9.498   8.041  0.2522 -0.3259  0.0332
 6772ION    NA+10291   4.162   4.994   9.215  0.1076  0.0969  0.2919
 6773ION    NA+10292   9.132   1.382  12.498  0.2576 -0.1936 -0.2421
 6774ION    NA+10293   4.196   7.869   8.958 -0.0165 -0.4180  0.1421
 6775ION    NA+10294   8.881   9.612  10.922  0.2666 -0.0269  0.0440
 6776ION    CL-10295   5.076   8.541   0.747 -0.0713 -0.2944  0.2352
 6777ION    CL-10296   5.071   4.038  10.071 -0.4758 -0.1946 -0.0549
 6778ION    CL-10297   6.673   5.811  10.473 -0.0269 -0.1218 -0.2827
 6779ION    CL-10298   3.488   7.789   1.150 -0.0693  0.1429 -0.0378
 6780ION    CL-10299   0.091   6.278  10.741  0.0503 -0.1181  0.1978
 6781ION    CL-10300   3.661   4.515   9.731 -0.3588 -0.0162 -0.0935
 6782ION    CL-10301   9.682   7.372   9.289 -0.3974 -0.1437  0.1865
 6783ION    CL-10302   7.594   4.630   2.847 -0.0286 -0.1582 -0.0124
 6784ION    CL-10303   2.623   0.137   9.463  0.0785  0.0153 -0.0737
 6785ION    CL-10304   5.699   5.090   1.762  0.1370 -0.1355  0.0021
 6786ION    CL-10305   8.449   1.774  11.346  0.0819 -0.2268  0.1737
 6787ION    CL-10306   2.117   3.769   9.048 -0.4526 -0.0852 -0.0917
 6788ION    CL-10307   4.526   8.318  11.659  0.1108 -0.2214 -0.0365
 6789ION    CL-10308   1.374   2.992   9.549 -0.0620  0.2843  0.0831
 6790ION    CL-10309   3.324   0.034   0.108 -0.2554 -0.3847  0.3385
 6791ION    CL-10310   8.633   1.202   1.402 -0.0623  0.0907 -0.0315
 6792ION    CL-10311   5.967   1.803  12.251  0.3610  0.3555 -0.1152
 6793ION    CL-10312   0.450   0.895   3.381 -0.0051 -0.0037  0.0702
 6794ION    CL-10313   3.688   4.820   2.911 -0.1838  0.2326 -0.1751
 6795ION    CL-10314   3.961   2.068  11.465  0.1179  0.1446 -0.1589
 6796ION    CL-10315   4.211   8.108   2.878 -0.0119 -0.1608  0.0435
 6797ION    CL-10316   7.110   4.669   8.512 -0.1765  0.0846  0.1663
 6798ION    CL-10317   3.038   3.233   2.951  0.2575 -0.0351  0.1010
 6799ION    CL-10318   6.581   1.419  11.664  0.1909  0.1700  0.1277
 6800ION    CL-10319   1.667   9.628   3.393  0.0292 -0.0855  0.1091
 6801ION    CL-10320   0.295   1.051   9.445  0.1059  0.0070 -0.1451
 6802ION    CL-10321   4.881   7.189   2.747  0.0204 -0.1718 -0.1365
 6803ION    CL-10322   6.375   9.273   0.601  0.2490  0.4423  0.2720
 6804ION    CL-10323   8.656   1.274  12.156  0.1624  0.2810 -0.1165
 6805ION    CL-10324   5.741   1.619  11.171  0.1596 -0.0441 -0.0603
 6806ION    CL-10325   9.626   6.693   9.987 -0.0612  0.1059 -0.1802
 6807ION    CL-10326   1.876   6.106   1.238  0.1189  0.0186 -0.2115
 6808ION    CL-10327   2.349   7.524   1.333 -0.1705  0.1444 -0.1132
 6809ION    CL-10328   1.092   8.650  10.487 -0.1560  0.1550  0.0404
 6810ION    CL-10329   8.303   7.734   3.747 -0.0664 -0.0653 -0.0425
 6811ION    CL-10330   8.966   5.669   3.579  0.2293 -0.0275 -0.0707
 6812ION    CL-10331   7.497   4.839   0.176 -0.0146 -0.0139 -0.2610
 6813ION    CL-10332   7.139   4.609   2.007 -0.2046 -0.1263 -0.2456
 6814ION    CL-10333   9.133   4.248   0.545  0.1820  0.1957  0.2043
 6815ION    CL-10334   8.691   3.593  10.472 -0.0525 -0.0043 -0.2154
 6816ION    CL-10335   1.023   5.851   2.906 -0.2679 -0.1068 -0.0558
 6817ION    CL-10336   5.659   2.559   2.326 -0.3171 -0.0201  0.3806
 6818ION    CL-10337   0.790   3.729   8.541  0.1055 -0.0868  0.2233
 6819ION    CL-10338   1.462   9.538   8.794  0.0835  0.0343 -0.0083
 6820ION    CL-10339   4.947   7.427   1.069  0.0207 -0.2536  0.0027
 6821ION    CL-10340   6.564   0.232   3.726  0.0468 -0.0301  0.3896
 6822ION    CL-10341   3.147   5.968   3.296 -0.0536  0.1128 -0.0741
 6823ION    CL-10342   1.094   2.449  11.243  0.4466  0.0849  0.2557
 6824ION    CL-10343   0.755   5.587   0.641 -0.1872 -0.0301  0.2251
 6825ION    CL-10344   1.552   3.706   1.742  0.1092 -0.2172  0.1190
 6826ION    CL-10345   1.519   2.914   2.520 -0.1280  0.1533 -0.1477
 6827ION    CL-10346   8.087   5.273   0.938 -0.1571  0.0460 -0.1007
 6828ION    CL-10347   3.646   8.123  11.986  0.0837  0.0324  0.1257
 6829ION    CL-10348   0.132   1.037  11.170  0.3995  0.1001  0.0202
 6830ION    CL-10349   8.317   1.946   3.456  0.3804  0.2653 -0.0695
 6831ION    CL-10350   8.732   5.015  10.593 -0.1159  0.5301  0.2411
 6832ION    CL-10351   7.177   5.590   9.379 -0.3265 -0.0027  0.1060
 6833ION    CL-10352   3.953   0.752   9.359  0.0533 -0.0258 -0.1187
 6834ION    CL-10353   2.760   3.783   3.579  0.1442 -0.1701 -0.0687
 6835ION    CL-10354   2.566   2.895   3.740 -0.0687  0.3127  0.2274
 6836ION    CL-10355   7.736   9.098   8.466 -0.0700 -0.4070 -0.1098
 6837ION    CL-10356   9.124   1.109   8.994 -0.1156  0.0884  0.0382
 6838ION    CL-10357   4.423   5.817   0.315 -0.0480  0.0011 -0.1414
 6839ION    CL-10358   9.362   1.292   0.440  0.0294  0.0598  0.1709
 6840ION    CL-10359   3.616   6.828   1.130 -0.2827  0.0874  0.1052
 6841ION    CL-10360   8.244   8.274   4.302 -0.0686  0.1374 -0.2170
 6842ION    CL-10361   5.520   7.310   1.916 -0.0187 -0.0311 -0.0045
 6843ION    CL-10362   4.050   0.638   2.060 -0.3739  0.1265 -0.0121
 6844ION    CL-10363   0.958   6.118   1.955 -0.3048 -0.4243  0.1526
 6845ION    CL-10364   7.100   6.643   3.355  0.1432  0.0472 -0.2685
 6846ION    CL-10365   0.843   6.308   9.374  0.0307 -0.0795  0.0472
   9.71292   9.71292  12.50771
