Protein in INSANE! Membrane UpperLeaflet>POPC=1.0 LowerLeaflet>POPC=1.0
12676
    1AU     AUC    1   5.748   5.862   6.005
    1AU     AUC    2   6.010   5.864   5.847
    1AU     AUC    3   6.001   5.853   6.156
    1AU     AUC    4   5.497   5.868   5.837
    1AU     AUC    5   5.489   5.879   6.153
    1AU     AUC    6   5.598   6.115   6.008
    1AU     AUC    7   5.912   6.111   5.996
    1AU     AUC    8   5.606   5.599   6.007
    1AU     AUC    9   5.889   5.607   6.019
    1AU     AUC   10   5.744   5.710   6.267
    1AU     AUC   11   5.747   6.032   6.261
    1AU     AUC   12   5.745   5.701   5.750
    1AU     AUC   13   5.736   6.009   5.737
    1AU     AUC   14   6.260   5.861   5.682
    1AU     AUC   15   6.265   5.866   5.992
    1AU     AUC   16   6.256   5.851   6.302
    1AU     AUC   17   5.230   5.852   5.706
    1AU     AUC   18   5.223   5.842   6.010
    1AU     AUC   19   5.238   5.889   6.314
    1AU     AUC   20   5.446   6.372   6.010
    1AU     AUC   21   5.766   6.380   6.007
    1AU     AUC   22   6.061   6.374   5.998
    1AU     AUC   23   5.434   5.353   6.013
    1AU     AUC   24   5.740   5.339   6.002
    1AU     AUC   25   6.046   5.341   6.022
    1AU     AUC   26   5.743   5.557   6.526
    1AU     AUC   27   5.743   5.867   6.534
    1AU     AUC   28   5.747   6.173   6.520
    1AU     AUC   29   5.740   5.540   5.509
    1AU     AUC   30   5.737   5.867   5.483
    1AU     AUC   31   5.732   6.168   5.479
    1AU     AUC   32   6.014   5.718   6.434
    1AU     AUC   33   6.005   6.007   6.431
    1AU     AUC   34   6.021   5.702   5.588
    1AU     AUC   35   6.026   6.004   5.580
    1AU     AUC   36   5.482   5.717   6.434
    1AU     AUC   37   5.490   6.036   6.436
    1AU     AUC   38   5.497   5.702   5.574
    1AU     AUC   39   5.484   6.031   5.588
    1AU     AUC   40   6.165   6.128   5.830
    1AU     AUC   41   6.181   6.102   6.147
    1AU     AUC   42   5.320   6.100   5.859
    1AU     AUC   43   5.329   6.134   6.157
    1AU     AUC   44   6.161   5.599   5.851
    1AU     AUC   45   6.164   5.605   6.174
    1AU     AUC   46   5.323   5.609   5.844
    1AU     AUC   47   5.346   5.603   6.182
    1AU     AUC   48   5.593   6.271   6.273
    1AU     AUC   49   5.915   6.283   6.247
    1AU     AUC   50   5.591   5.432   6.257
    1AU     AUC   51   5.895   5.447   6.287
    1AU     AUC   52   5.597   6.279   5.734
    1AU     AUC   53   5.899   6.269   5.724
    1AU     AUC   54   5.572   5.451   5.742
    1AU     AUC   55   5.901   5.442   5.759
    1AU    AUSL   56   6.103   5.843   6.651
    1AU    AUSL   57   6.074   5.411   6.644
    1AU     AUL   58   6.370   5.639   6.881
    1AU       S   59   6.377   5.198   6.720
    1AU     LIG   60   6.237   4.892   6.973
    1AU     LIG   61   6.370   4.517   7.173
    1AU     LIG   62   6.612   4.220   7.435
    1AU     LIG   63   6.669   3.976   7.846
    1AU     LIG   64   6.702   3.841   8.309
    1AU     LIG   65   6.907   3.625   8.679
    1AU       S   66   6.112   5.894   7.153
    1AU     LIG   67   6.463   5.768   7.383
    1AU     LIG   68   6.614   5.554   7.773
    1AU     LIG   69   6.910   5.583   8.145
    1AU     LIG   70   7.302   5.628   8.413
    1AU     LIG   71   7.694   5.622   8.673
    1AU     LIG   72   7.918   5.555   9.076
    1AU    AUSL   73   5.813   5.631   6.864
    1AU    AUSL   74   5.619   5.988   6.826
    1AU     AUL   75   5.671   5.947   7.235
    1AU       S   76   5.927   5.638   7.040
    1AU     LIG   77   6.179   5.332   7.266
    1AU     LIG   78   6.266   5.145   7.723
    1AU     LIG   79   6.254   4.935   8.188
    1AU     LIG   80   6.265   4.737   8.650
    1AU     LIG   81   6.383   4.607   9.103
    1AU     LIG   82   6.528   4.799   9.514
    1AU       S   83   5.277   5.755   7.124
    1AU     LIG   84   5.169   5.680   7.581
    1AU     LIG   85   5.008   5.593   8.017
    1AU     LIG   86   4.988   5.718   8.476
    1AU     LIG   87   5.055   6.018   8.858
    1AU     LIG   88   4.950   6.294   9.238
    1AU     LIG   89   4.697   6.499   9.591
    1AU    AUSL   90   5.954   6.203   6.804
    1AU    AUSL   91   6.405   6.053   6.472
    1AU     AUL   92   6.295   6.139   6.810
    1AU       S   93   5.935   6.272   7.050
    1AU     LIG   94   6.363   6.321   7.284
    1AU     LIG   95   6.552   6.477   7.720
    1AU     LIG   96   6.550   6.640   8.198
    1AU     LIG   97   6.570   6.820   8.678
    1AU     LIG   98   6.664   6.888   9.166
    1AU     LIG   99   6.632   6.816   9.648
    1AU       S  100   6.711   5.972   6.661
    1AU     LIG  101   6.874   6.229   7.039
    1AU     LIG  102   7.179   6.473   7.339
    1AU     LIG  103   7.487   6.726   7.620
    1AU     LIG  104   7.862   6.750   7.937
    1AU     LIG  105   8.283   6.793   8.194
    1AU     LIG  106   8.662   6.993   8.418
    1AU    AUSL  107   6.280   5.912   5.374
    1AU    AUSL  108   6.080   6.279   5.334
    1AU     AUL  109   6.023   6.268   5.071
    1AU       S  110   6.323   5.943   4.958
    1AU     LIG  111   6.650   5.748   4.768
    1AU     LIG  112   6.691   5.515   4.389
    1AU     LIG  113   6.833   5.463   3.944
    1AU     LIG  114   7.241   5.521   3.688
    1AU     LIG  115   7.631   5.646   3.429
    1AU     LIG  116   7.744   5.686   2.967
    1AU       S  117   6.468   6.379   5.162
    1AU     LIG  118   6.590   6.723   4.915
    1AU     LIG  119   6.853   6.823   4.540
    1AU     LIG  120   7.164   6.846   4.192
    1AU     LIG  121   7.315   7.131   3.850
    1AU     LIG  122   7.499   7.529   3.688
    1AU     LIG  123   7.506   7.991   3.551
    1AU    AUSL  124   6.031   5.616   5.211
    1AU    AUSL  125   6.366   5.537   5.508
    1AU     AUL  126   6.515   5.684   5.279
    1AU       S  127   6.369   5.241   5.290
    1AU     LIG  128   6.559   4.957   4.946
    1AU     LIG  129   6.808   4.593   4.774
    1AU     LIG  130   7.059   4.355   4.436
    1AU     LIG  131   7.452   4.396   4.148
    1AU     LIG  132   7.848   4.471   3.882
    1AU     LIG  133   8.196   4.269   3.624
    1AU       S  134   6.184   5.668   4.953
    1AU     LIG  135   6.299   5.340   4.730
    1AU     LIG  136   6.322   5.174   4.291
    1AU     LIG  137   6.412   5.157   3.819
    1AU     LIG  138   6.407   5.147   3.326
    1AU     LIG  139   6.385   5.048   2.836
    1AU     LIG  140   6.585   5.001   2.389
    1AU    AUSL  141   5.879   5.940   5.421
    1AU    AUSL  142   5.626   5.690   5.216
    1AU     AUL  143   5.784   5.475   5.073
    1AU       S  144   5.584   5.825   4.836
    1AU     LIG  145   5.489   5.529   4.518
    1AU     LIG  146   5.263   5.302   4.154
    1AU     LIG  147   5.084   5.026   3.786
    1AU     LIG  148   4.988   4.819   3.349
    1AU     LIG  149   4.833   4.897   2.896
    1AU     LIG  150   4.696   5.129   2.486
    1AU       S  151   6.056   5.830   4.972
    1AU     LIG  152   6.183   5.778   4.475
    1AU     LIG  153   6.331   5.634   4.039
    1AU     LIG  154   6.468   5.613   3.582
    1AU     LIG  155   6.526   5.803   3.154
    1AU     LIG  156   6.724   6.168   2.913
    1AU     LIG  157   6.861   6.381   2.515
    1AU    AUSL  158   5.269   5.883   6.653
    1AU    AUSL  159   5.447   6.304   6.642
    1AU     AUL  160   5.423   6.191   6.926
    1AU       S  161   5.099   5.914   7.113
    1AU     LIG  162   4.838   5.535   7.205
    1AU     LIG  163   4.733   5.343   7.638
    1AU     LIG  164   4.551   5.324   8.111
    1AU     LIG  165   4.248   5.290   8.518
    1AU     LIG  166   4.024   5.432   8.943
    1AU     LIG  167   3.684   5.704   9.196
    1AU       S  168   5.017   6.373   6.848
    1AU     LIG  169   4.995   6.460   7.300
    1AU     LIG  170   4.900   6.761   7.681
    1AU     LIG  171   4.794   6.899   8.136
    1AU     LIG  172   4.759   7.237   8.470
    1AU     LIG  173   4.587   7.605   8.732
    1AU     LIG  174   4.374   8.036   8.804
    1AU    AUSL  175   5.620   5.715   6.518
    1AU    AUSL  176   5.061   5.579   6.465
    1AU     AUL  177   5.089   5.724   6.699
    1AU       S  178   4.843   5.330   6.707
    1AU     LIG  179   4.455   5.123   6.631
    1AU     LIG  180   4.057   4.893   6.687
    1AU     LIG  181   3.843   4.636   7.014
    1AU     LIG  182   3.707   4.365   7.367
    1AU     LIG  183   3.522   4.099   7.698
    1AU     LIG  184   3.206   4.188   8.048
    1AU       S  185   5.373   5.642   7.071
    1AU     LIG  186   5.263   5.258   7.315
    1AU     LIG  187   5.197   5.165   7.767
    1AU     LIG  188   5.014   5.100   8.199
    1AU     LIG  189   4.845   4.883   8.589
    1AU     LIG  190   4.825   4.740   9.043
    1AU     LIG  191   4.759   4.903   9.474
    1AU    AUSL  192   5.283   5.873   5.350
    1AU    AUSL  193   5.428   5.406   5.418
    1AU     AUL  194   5.307   5.565   5.116
    1AU       S  195   5.301   5.959   4.866
    1AU     LIG  196   5.036   5.765   4.523
    1AU     LIG  197   4.832   5.578   4.111
    1AU     LIG  198   4.616   5.277   3.788
    1AU     LIG  199   4.275   5.112   3.471
    1AU     LIG  200   3.980   5.188   3.094
    1AU     LIG  201   3.795   5.526   2.801
    1AU       S  202   5.027   5.204   5.274
    1AU     LIG  203   4.719   4.828   5.213
    1AU     LIG  204   4.408   4.528   5.052
    1AU     LIG  205   4.179   4.280   4.712
    1AU     LIG  206   4.230   4.070   4.269
    1AU     LIG  207   4.305   3.794   3.867
    1AU     LIG  208   4.143   3.448   3.570
    1AU    AUSL  209   5.593   6.117   5.209
    1AU    AUSL  210   5.302   6.115   5.675
    1AU     AUL  211   5.120   6.069   5.282
    1AU       S  212   4.971   6.513   5.266
    1AU     LIG  213   4.628   6.583   4.974
    1AU     LIG  214   4.524   6.668   4.519
    1AU     LIG  215   4.469   6.856   4.086
    1AU     LIG  216   4.139   7.020   3.792
    1AU     LIG  217   3.691   7.152   3.734
    1AU     LIG  218   3.451   7.512   3.546
    1AU       S  219   5.585   6.030   4.992
    1AU     LIG  220   5.504   6.079   4.437
    1AU     LIG  221   5.294   5.835   4.080
    1AU     LIG  222   5.064   5.888   3.660
    1AU     LIG  223   5.082   6.123   3.223
    1AU     LIG  224   5.108   6.252   2.748
    1AU     LIG  225   4.941   6.267   2.290
    1AU    AUSL  226   6.358   6.475   5.941
    1AU    AUSL  227   6.407   6.227   5.602
    1AU     AUL  228   6.495   6.678   5.718
    1AU       S  229   6.651   6.201   5.337
    1AU     LIG  230   6.923   6.315   4.961
    1AU     LIG  231   7.225   6.484   4.641
    1AU     LIG  232   7.546   6.509   4.314
    1AU     LIG  233   7.971   6.563   4.142
    1AU     LIG  234   8.312   6.830   3.978
    1AU     LIG  235   8.474   7.064   3.597
    1AU       S  236   6.804   6.361   5.882
    1AU     LIG  237   7.256   6.439   6.078
    1AU     LIG  238   7.767   6.491   6.052
    1AU     LIG  239   8.271   6.581   6.015
    1AU     LIG  240   8.706   6.869   6.012
    1AU     LIG  241   9.012   7.286   6.002
    1AU     LIG  242   9.218   7.701   6.171
    1AU    AUSL  243   6.586   5.897   5.738
    1AU    AUSL  244   6.594   5.741   6.141
    1AU     AUL  245   6.882   5.694   5.914
    1AU       S  246   6.829   6.139   5.806
    1AU     LIG  247   7.293   6.016   5.801
    1AU     LIG  248   7.793   6.060   5.764
    1AU     LIG  249   8.286   6.131   5.713
    1AU     LIG  250   8.776   6.072   5.669
    1AU     LIG  251   9.217   6.273   5.627
    1AU     LIG  252   9.565   6.607   5.481
    1AU       S  253   6.879   5.265   6.112
    1AU     LIG  254   7.239   5.036   6.264
    1AU     LIG  255   7.656   4.817   6.288
    1AU     LIG  256   8.074   4.608   6.272
    1AU     LIG  257   8.490   4.421   6.236
    1AU     LIG  258   8.862   4.333   6.475
    1AU     LIG  259   9.179   4.396   6.827
    1AU    AUSL  260   6.385   6.083   6.066
    1AU    AUSL  261   6.290   6.426   6.341
    1AU     AUL  262   6.508   6.459   6.231
    1AU       S  263   6.702   6.194   6.542
    1AU     LIG  264   7.014   6.463   6.570
    1AU     LIG  265   7.109   6.766   6.922
    1AU     LIG  266   7.311   7.080   7.239
    1AU     LIG  267   7.531   7.538   7.269
    1AU     LIG  268   7.825   7.937   7.325
    1AU     LIG  269   8.059   8.348   7.445
    1AU       S  270   6.803   6.162   6.053
    1AU     LIG  271   7.110   5.986   6.293
    1AU     LIG  272   7.597   6.040   6.250
    1AU     LIG  273   8.100   6.100   6.193
    1AU     LIG  274   8.597   6.179   6.140
    1AU     LIG  275   9.079   6.311   6.132
    1AU     LIG  276   9.428   6.550   6.389
    1AU    AUSL  277   5.093   6.270   6.020
    1AU    AUSL  278   5.115   6.182   6.429
    1AU     AUL  279   5.007   6.548   6.272
    1AU       S  280   4.925   6.216   6.638
    1AU     LIG  281   4.559   6.353   6.995
    1AU     LIG  282   4.495   6.632   7.392
    1AU     LIG  283   4.373   6.735   7.868
    1AU     LIG  284   4.050   6.843   8.246
    1AU     LIG  285   3.615   7.048   8.399
    1AU     LIG  286   3.216   7.290   8.558
    1AU       S  287   4.674   6.336   6.036
    1AU     LIG  288   4.576   6.816   6.089
    1AU     LIG  289   4.299   7.267   6.120
    1AU     LIG  290   3.973   7.655   6.118
    1AU     LIG  291   3.537   7.887   6.043
    1AU     LIG  292   3.109   8.132   6.136
    1AU     LIG  293   2.692   8.157   6.414
    1AU    AUSL  294   4.937   5.980   5.752
    1AU    AUSL  295   5.260   6.548   5.784
    1AU     AUL  296   4.982   6.331   5.682
    1AU       S  297   4.548   6.238   5.826
    1AU     LIG  298   4.511   6.640   5.530
    1AU     LIG  299   4.126   6.916   5.321
    1AU     LIG  300   3.614   6.970   5.296
    1AU     LIG  301   3.089   6.910   5.250
    1AU     LIG  302   2.589   6.755   5.200
    1AU     LIG  303   2.117   6.910   5.098
    1AU       S  304   5.044   6.755   5.477
    1AU     LIG  305   4.948   6.975   5.054
    1AU     LIG  306   4.798   7.294   4.747
    1AU     LIG  307   4.549   7.682   4.800
    1AU     LIG  308   4.443   8.099   4.594
    1AU     LIG  309   4.292   8.488   4.372
    1AU     LIG  310   3.900   8.760   4.340
    1AU    AUSL  311   4.899   5.941   6.189
    1AU    AUSL  312   4.979   5.615   5.945
    1AU     AUL  313   4.688   5.797   5.821
    1AU       S  314   4.625   5.528   6.229
    1AU     LIG  315   4.151   5.418   6.339
    1AU     LIG  316   3.661   5.367   6.349
    1AU     LIG  317   3.277   5.082   6.313
    1AU     LIG  318   2.911   5.028   5.970
    1AU     LIG  319   2.424   5.046   5.876
    1AU     LIG  320   2.019   4.929   5.636
    1AU       S  321   4.684   6.060   6.226
    1AU     LIG  322   4.501   6.439   6.488
    1AU     LIG  323   4.086   6.596   6.687
    1AU     LIG  324   3.586   6.667   6.711
    1AU     LIG  325   3.091   6.740   6.676
    1AU     LIG  326   2.712   7.024   6.757
    1AU     LIG  327   2.260   6.918   6.791
    1AU    AUSL  328   6.425   5.351   6.083
    1AU    AUSL  329   6.366   5.609   6.440
    1AU     AUL  330   6.696   5.576   6.399
    1AU       S  331   6.554   5.064   6.051
    1AU     LIG  332   6.799   4.751   6.266
    1AU     LIG  333   7.220   4.531   6.158
    1AU     LIG  334   7.664   4.358   6.039
    1AU     LIG  335   8.110   4.163   5.991
    1AU     LIG  336   8.473   3.901   6.187
    1AU     LIG  337   8.858   3.815   6.499
    1AU       S  338   6.380   5.274   6.558
    1AU     LIG  339   6.742   4.890   6.760
    1AU     LIG  340   6.886   4.563   7.103
    1AU     LIG  341   7.127   4.316   7.451
    1AU     LIG  342   7.468   4.239   7.797
    1AU     LIG  343   7.804   4.270   8.163
    1AU     LIG  344   8.242   4.271   8.387
    1AU    AUSL  345   6.283   5.678   5.878
    1AU    AUSL  346   6.217   5.229   5.751
    1AU     AUL  347   6.561   5.420   5.709
    1AU       S  348   6.598   5.227   6.109
    1AU     LIG  349   6.982   4.910   5.813
    1AU     LIG  350   7.484   4.805   5.801
    1AU     LIG  351   7.981   4.672   5.775
    1AU     LIG  352   8.434   4.468   5.714
    1AU     LIG  353   8.850   4.423   5.493
    1AU     LIG  354   9.213   4.704   5.541
    1AU       S  355   6.435   5.032   5.465
    1AU     LIG  356   6.549   4.586   5.292
    1AU     LIG  357   6.677   4.173   5.054
    1AU     LIG  358   6.852   3.764   4.831
    1AU     LIG  359   7.081   3.306   4.826
    1AU     LIG  360   7.507   3.071   4.750
    1AU     LIG  361   7.995   3.101   4.657
    1AU    AUSL  362   5.119   5.233   6.009
    1AU    AUSL  363   5.088   5.593   5.561
    1AU     AUL  364   4.875   5.358   5.790
    1AU       S  365   4.918   5.455   5.346
    1AU     LIG  366   4.516   5.244   5.431
    1AU     LIG  367   4.202   5.005   5.174
    1AU     LIG  368   3.979   4.749   4.866
    1AU     LIG  369   3.706   4.486   4.611
    1AU     LIG  370   3.378   4.441   4.272
    1AU     LIG  371   3.126   4.458   3.863
    1AU       S  372   4.643   5.304   6.179
    1AU     LIG  373   4.358   4.994   6.103
    1AU     LIG  374   3.922   4.960   6.196
    1AU     LIG  375   3.581   4.672   6.287
    1AU     LIG  376   3.120   4.597   6.178
    1AU     LIG  377   2.701   4.357   6.114
    1AU     LIG  378   2.479   3.997   5.915
    1AU    AUSL  379   5.266   5.772   6.182
    1AU    AUSL  380   5.373   5.377   6.294
    1AU     AUL  381   5.076   5.289   6.302
    1AU       S  382   5.029   5.145   6.725
    1AU     LIG  383   4.832   4.870   6.404
    1AU     LIG  384   4.438   4.623   6.462
    1AU     LIG  385   4.140   4.353   6.713
    1AU     LIG  386   3.867   4.054   6.994
    1AU     LIG  387   3.660   3.720   7.300
    1AU     LIG  388   3.578   3.243   7.416
    1AU       S  389   4.698   5.526   6.192
    1AU     LIG  390   4.292   5.444   5.853
    1AU     LIG  391   3.796   5.325   5.843
    1AU     LIG  392   3.301   5.430   5.954
    1AU     LIG  393   2.904   5.418   6.283
    1AU     LIG  394   2.410   5.359   6.314
    1AU     LIG  395   1.972   5.280   6.512
    1AU    AUSL  396   5.768   6.521   6.520
    1AU    AUSL  397   5.426   6.370   6.242
    1AU     AUL  398   5.433   6.639   6.543
    1AU       S  399   5.059   6.508   6.747
    1AU     LIG  400   4.793   6.820   6.987
    1AU     LIG  401   4.735   7.144   7.336
    1AU     LIG  402   4.677   7.629   7.421
    1AU     LIG  403   4.681   8.127   7.448
    1AU     LIG  404   4.347   8.479   7.457
    1AU     LIG  405   3.923   8.590   7.669
    1AU       S  406   5.835   6.882   6.529
    1AU     LIG  407   6.064   7.042   6.863
    1AU     LIG  408   6.089   7.494   7.015
    1AU     LIG  409   6.034   7.875   7.307
    1AU     LIG  410   6.019   8.143   7.723
    1AU     LIG  411   5.970   8.433   8.116
    1AU     LIG  412   5.971   8.853   8.351
    1AU    AUSL  413   5.577   6.717   6.119
    1AU    AUSL  414   5.962   6.693   5.791
    1AU     AUL  415   5.637   6.993   5.932
    1AU       S  416   5.777   6.978   6.366
    1AU     LIG  417   5.767   7.396   6.606
    1AU     LIG  418   5.716   7.834   6.798
    1AU     LIG  419   5.493   8.263   6.830
    1AU     LIG  420   5.387   8.734   6.892
    1AU     LIG  421   5.358   9.210   7.062
    1AU     LIG  422   5.153   9.639   7.119
    1AU       S  423   6.063   6.939   5.726
    1AU     LIG  424   6.395   7.204   5.519
    1AU     LIG  425   6.479   7.663   5.321
    1AU     LIG  426   6.751   8.110   5.282
    1AU     LIG  427   6.842   8.605   5.239
    1AU     LIG  428   6.892   9.088   5.214
    1AU     LIG  429   6.892   9.558   5.117
    1AU    AUSL  430   5.947   6.527   6.155
    1AU    AUSL  431   5.978   6.182   6.411
    1AU     AUL  432   6.134   6.538   6.560
    1AU       S  433   6.609   6.084   6.493
    1AU     LIG  434   6.561   6.555   6.818
    1AU     LIG  435   6.717   6.699   7.255
    1AU     LIG  436   6.977   6.855   7.633
    1AU     LIG  437   7.169   7.047   8.043
    1AU     LIG  438   7.220   7.338   8.446
    1AU     LIG  439   7.339   7.750   8.669
    1AU       S  440   6.033   6.858   6.233
    1AU     LIG  441   6.231   7.258   6.428
    1AU     LIG  442   6.369   7.710   6.617
    1AU     LIG  443   6.671   8.134   6.669
    1AU     LIG  444   6.832   8.620   6.716
    1AU     LIG  445   6.693   9.078   6.664
    1AU     LIG  446   6.831   9.543   6.705
    1AU    AUSL  447   5.744   5.252   6.462
    1AU    AUSL  448   6.059   5.421   6.234
    1AU     AUL  449   5.917   5.162   6.683
    1AU       S  450   5.771   4.746   6.511
    1AU     LIG  451   5.685   4.319   6.656
    1AU     LIG  452   5.431   3.936   6.714
    1AU     LIG  453   5.330   3.512   6.883
    1AU     LIG  454   5.331   3.227   7.271
    1AU     LIG  455   5.400   3.045   7.718
    1AU     LIG  456   5.538   2.743   8.068
    1AU       S  457   6.346   5.066   6.483
    1AU     LIG  458   6.357   4.614   6.555
    1AU     LIG  459   6.605   4.271   6.785
    1AU     LIG  460   6.923   4.020   7.066
    1AU     LIG  461   7.232   3.677   7.261
    1AU     LIG  462   7.528   3.277   7.340
    1AU     LIG  463   7.919   2.995   7.382
    1AU    AUSL  464   5.564   5.049   6.150
    1AU    AUSL  465   5.439   5.408   6.697
    1AU     AUL  466   5.447   5.080   6.513
    1AU       S  467   5.546   4.681   6.311
    1AU     LIG  468   5.377   4.254   6.226
    1AU     LIG  469   5.245   3.791   6.262
    1AU     LIG  470   5.031   3.416   6.456
    1AU     LIG  471   4.745   3.031   6.519
    1AU     LIG  472   4.620   2.664   6.780
    1AU     LIG  473   4.625   2.219   6.873
    1AU       S  474   5.170   5.277   6.824
    1AU     LIG  475   4.787   5.032   7.121
    1AU     LIG  476   4.428   4.720   7.014
    1AU     LIG  477   4.221   4.348   7.231
    1AU     LIG  478   4.042   3.998   7.503
    1AU     LIG  479   3.967   3.707   7.868
    1AU     LIG  480   4.044   3.658   8.339
    1AU    AUSL  481   5.999   5.031   6.177
    1AU    AUSL  482   5.478   5.069   5.749
    1AU     AUL  483   5.799   4.792   5.945
    1AU       S  484   5.332   4.858   5.774
    1AU     LIG  485   5.099   4.478   5.831
    1AU     LIG  486   5.158   4.006   5.797
    1AU     LIG  487   5.136   3.553   5.591
    1AU     LIG  488   4.879   3.118   5.474
    1AU     LIG  489   4.641   2.710   5.281
    1AU     LIG  490   4.551   2.244   5.176
    1AU       S  491   5.916   4.804   6.379
    1AU     LIG  492   5.909   4.351   6.196
    1AU     LIG  493   5.751   3.908   6.303
    1AU     LIG  494   5.687   3.455   6.478
    1AU     LIG  495   5.938   3.006   6.514
    1AU     LIG  496   6.105   2.581   6.707
    1AU     LIG  497   6.249   2.208   6.959
    1AU    AUSL  498   5.779   6.500   5.470
    1AU    AUSL  499   6.048   6.293   5.759
    1AU     AUL  500   6.130   6.564   5.458
    1AU       S  501   5.822   6.879   5.325
    1AU     LIG  502   6.178   7.019   5.094
    1AU     LIG  503   6.221   7.457   4.893
    1AU     LIG  504   6.096   7.774   4.533
    1AU     LIG  505   6.040   8.109   4.177
    1AU     LIG  506   6.002   8.531   3.940
    1AU     LIG  507   6.052   8.872   3.602
    1AU       S  508   6.527   6.302   5.460
    1AU     LIG  509   6.857   6.651   5.365
    1AU     LIG  510   7.096   6.837   5.001
    1AU     LIG  511   7.324   7.128   4.690
    1AU     LIG  512   7.572   7.570   4.655
    1AU     LIG  513   7.777   8.023   4.591
    1AU     LIG  514   7.852   8.452   4.359
    1AU    AUSL  515   5.635   6.424   5.845
    1AU    AUSL  516   5.398   6.400   5.418
    1AU     AUL  517   5.495   6.702   5.605
    1AU       S  518   5.900   6.950   5.565
    1AU     LIG  519   5.951   7.403   5.359
    1AU     LIG  520   5.971   7.859   5.150
    1AU     LIG  521   5.791   8.328   5.046
    1AU     LIG  522   5.481   8.738   4.986
    1AU     LIG  523   5.412   9.223   4.850
    1AU     LIG  524   4.977   9.409   4.751
    1AU       S  525   5.259   6.530   5.233
    1AU     LIG  526   5.121   6.570   4.774
    1AU     LIG  527   4.974   6.881   4.420
    1AU     LIG  528   4.942   7.012   3.946
    1AU     LIG  529   4.948   7.360   3.616
    1AU     LIG  530   4.683   7.719   3.443
    1AU     LIG  531   4.498   8.114   3.225
    1AU    AUSL  532   5.778   5.189   5.461
    1AU    AUSL  533   5.394   5.454   5.818
    1AU     AUL  534   5.485   5.180   5.375
    1AU       S  535   5.050   5.105   5.473
    1AU     LIG  536   4.735   4.880   5.732
    1AU     LIG  537   4.315   4.701   5.566
    1AU     LIG  538   3.966   4.451   5.293
    1AU     LIG  539   3.733   4.129   5.006
    1AU     LIG  540   3.453   3.712   4.929
    1AU     LIG  541   3.258   3.333   4.699
    1AU       S  542   5.610   4.764   5.507
    1AU     LIG  543   5.290   4.473   5.347
    1AU     LIG  544   5.243   4.011   5.291
    1AU     LIG  545   5.380   3.593   5.126
    1AU     LIG  546   5.371   3.318   4.727
    1AU     LIG  547   5.352   3.152   4.268
    1AU     LIG  548   5.455   2.844   3.921
    1AU    AUSL  549   5.830   5.237   5.873
    1AU    AUSL  550   5.957   5.521   5.590
    1AU     AUL  551   5.994   5.034   5.610
    1AU       S  552   5.451   4.834   5.671
    1AU     LIG  553   5.585   4.332   5.756
    1AU     LIG  554   5.611   3.843   5.617
    1AU     LIG  555   5.715   3.377   5.489
    1AU     LIG  556   6.044   2.996   5.452
    1AU     LIG  557   6.280   2.598   5.316
    1AU     LIG  558   6.498   2.217   5.113
    1AU       S  559   6.196   5.190   5.226
    1AU     LIG  560   6.091   4.787   5.133
    1AU     LIG  561   6.305   4.480   4.834
    1AU     LIG  562   6.565   4.188   4.545
    1AU     LIG  563   6.745   3.949   4.179
    1AU     LIG  564   6.940   3.731   3.807
    1AU     LIG  565   7.219   3.567   3.469
    2POPC   NC3  566   1.467   2.503   7.921
    2POPC   PO4  567   1.128   3.063   8.161
    2POPC   GL1  568   1.234   2.968   7.739
    2POPC   GL2  569   0.904   2.823   7.685
    2POPC   C1A  570   1.295   2.721   7.331
    2POPC   D2A  571   1.493   2.696   6.950
    2POPC   C3A  572   1.361   2.751   6.551
    2POPC   C4A  573   1.654   2.970   6.299
    2POPC   C1B  574   0.914   3.049   7.290
    2POPC   C2B  575   1.019   3.035   6.856
    2POPC   C3B  576   0.866   2.867   6.463
    2POPC   C4B  577   1.131   2.761   6.081
    3POPC   NC3  578   2.728   1.953   8.169
    3POPC   PO4  579   3.170   2.354   7.769
    3POPC   GL1  580   2.996   1.922   7.620
    3POPC   GL2  581   2.686   1.773   7.683
    3POPC   C1A  582   2.981   1.871   7.238
    3POPC   D2A  583   2.974   2.053   6.856
    3POPC   C3A  584   3.084   1.878   6.507
    3POPC   C4A  585   3.068   1.964   6.105
    3POPC   C1B  586   2.482   1.959   7.330
    3POPC   C2B  587   2.478   2.133   6.910
    3POPC   C3B  588   2.544   2.022   6.481
    3POPC   C4B  589   2.603   2.147   6.019
    4POPC   NC3  590   8.561   5.243   8.186
    4POPC   PO4  591   9.049   5.501   8.244
    4POPC   GL1  592   8.942   5.298   7.819
    4POPC   GL2  593   8.940   4.933   7.707
    4POPC   C1A  594   8.974   5.293   7.328
    4POPC   D2A  595   9.208   5.169   6.917
    4POPC   C3A  596   9.079   5.239   6.455
    4POPC   C4A  597   8.811   5.272   6.061
    4POPC   C1B  598   8.981   4.787   7.225
    4POPC   C2B  599   8.874   4.810   6.756
    4POPC   C3B  600   8.833   4.814   6.311
    4POPC   C4B  601   8.904   4.555   5.972
    5POPC   NC3  602   1.394   0.495   8.107
    5POPC   PO4  603   0.824   0.805   7.988
    5POPC   GL1  604   0.973   0.408   7.752
    5POPC   GL2  605   1.229   0.130   7.800
    5POPC   C1A  606   0.904   0.292   7.315
    5POPC   D2A  607   0.839   0.496   6.912
    5POPC   C3A  608   0.841   0.180   6.603
    5POPC   C4A  609   0.872  11.476   6.228
    5POPC   C1B  610   1.419   0.344   7.421
    5POPC   C2B  611   1.350   0.521   6.988
    5POPC   C3B  612   1.243   0.489   6.542
    5POPC   C4B  613   1.288   0.275   6.157
    6POPC   NC3  614   7.868   2.563   7.993
    6POPC   PO4  615   7.582   3.122   8.005
    6POPC   GL1  616   7.506   2.809   7.659
    6POPC   GL2  617   7.154   2.696   7.690
    6POPC   C1A  618   7.498   2.750   7.185
    6POPC   D2A  619   7.353   2.857   6.741
    6POPC   C3A  620   7.579   2.782   6.332
    6POPC   C4A  621   7.629   2.890   5.870
    6POPC   C1B  622   7.180   2.396   7.374
    6POPC   C2B  623   7.180   2.392   6.919
    6POPC   C3B  624   7.101   2.487   6.467
    6POPC   C4B  625   7.268   2.471   6.047
    7POPC   NC3  626   2.144   5.668   8.171
    7POPC   PO4  627   1.670   6.082   8.075
    7POPC   GL1  628   1.673   5.898   7.676
    7POPC   GL2  629   2.028   5.893   7.684
    7POPC   C1A  630   1.626   6.075   7.250
    7POPC   D2A  631   1.870   6.070   6.869
    7POPC   C3A  632   1.691   6.056   6.452
    7POPC   C4A  633   1.747   5.677   6.227
    7POPC   C1B  634   1.962   5.699   7.285
    7POPC   C2B  635   2.106   5.623   6.873
    7POPC   C3B  636   2.150   5.813   6.477
    7POPC   C4B  637   2.217   5.748   6.026
    8POPC   NC3  638   0.383   5.467   8.177
    8POPC   PO4  639   0.032   4.875   8.149
    8POPC   GL1  640   0.197   5.015   7.822
    8POPC   GL2  641   0.533   5.067   7.869
    8POPC   C1A  642   0.094   4.814   7.406
    8POPC   D2A  643   0.162   4.601   7.000
    8POPC   C3A  644   0.014   4.774   6.606
    8POPC   C4A  645   0.211   4.840   6.239
    8POPC   C1B  646   0.497   5.152   7.448
    8POPC   C2B  647   0.463   5.011   7.031
    8POPC   C3B  648   0.441   5.137   6.568
    8POPC   C4B  649   0.641   5.112   6.148
    9POPC   NC3  650  11.173   5.300   8.143
    9POPC   PO4  651  11.009   4.756   8.413
    9POPC   GL1  652  11.088   4.871   7.876
    9POPC   GL2  653  11.240   5.155   7.683
    9POPC   C1A  654  11.051   4.834   7.379
    9POPC   D2A  655  11.029   5.099   6.980
    9POPC   C3A  656  10.968   4.936   6.575
    9POPC   C4A  657  11.090   4.833   6.173
    9POPC   C1B  658  11.400   5.272   7.296
    9POPC   C2B  659   0.030   5.209   6.863
    9POPC   C3B  660  11.409   5.250   6.382
    9POPC   C4B  661  11.196   5.289   5.939
   10POPC   NC3  662  11.372   8.068   8.023
   10POPC   PO4  663  10.673   8.306   8.108
   10POPC   GL1  664  10.945   8.276   7.721
   10POPC   GL2  665  11.298   8.393   7.643
   10POPC   C1A  666  10.813   8.419   7.302
   10POPC   D2A  667  10.905   8.518   6.871
   10POPC   C3A  668  11.042   8.186   6.629
   10POPC   C4A  669  10.996   8.035   6.224
   10POPC   C1B  670  11.246   8.125   7.275
   10POPC   C2B  671  11.476   8.091   6.880
   10POPC   C3B  672  11.479   8.002   6.459
   10POPC   C4B  673  11.396   8.326   6.162
   11POPC   NC3  674   3.515   2.428   8.081
   11POPC   PO4  675   4.177   2.555   8.299
   11POPC   GL1  676   3.933   2.521   7.819
   11POPC   GL2  677   3.595   2.743   7.678
   11POPC   C1A  678   3.797   2.400   7.382
   11POPC   D2A  679   3.648   2.648   7.083
   11POPC   C3A  680   3.774   2.540   6.692
   11POPC   C4A  681   3.749   2.803   6.364
   11POPC   C1B  682   3.230   2.834   7.329
   11POPC   C2B  683   3.072   2.930   6.888
   11POPC   C3B  684   3.206   2.838   6.447
   11POPC   C4B  685   3.414   3.168   6.189
   12POPC   NC3  686   4.938   7.918   8.063
   12POPC   PO4  687   5.150   7.447   7.876
   12POPC   GL1  688   5.118   7.840   7.577
   12POPC   GL2  689   5.186   8.192   7.710
   12POPC   C1A  690   5.013   7.892   7.111
   12POPC   D2A  691   5.143   7.907   6.664
   12POPC   C3A  692   4.796   7.977   6.353
   12POPC   C4A  693   4.415   8.109   6.109
   12POPC   C1B  694   5.185   8.334   7.271
   12POPC   C2B  695   4.995   8.393   6.837
   12POPC   C3B  696   5.173   8.339   6.390
   12POPC   C4B  697   5.250   7.977   6.103
   13POPC   NC3  698   8.463   0.948   7.991
   13POPC   PO4  699   7.762   1.055   8.150
   13POPC   GL1  700   8.002   1.096   7.768
   13POPC   GL2  701   7.824   1.341   7.547
   13POPC   C1A  702   8.064   0.907   7.358
   13POPC   D2A  703   7.931   1.035   6.919
   13POPC   C3A  704   8.245   0.961   6.585
   13POPC   C4A  705   8.292   1.092   6.165
   13POPC   C1B  706   8.176   1.402   7.231
   13POPC   C2B  707   8.227   1.445   6.779
   13POPC   C3B  708   7.931   1.351   6.434
   13POPC   C4B  709   7.787   1.664   6.118
   14POPC   NC3  710   1.066   9.571   8.110
   14POPC   PO4  711   0.821  10.189   8.133
   14POPC   GL1  712   1.010   9.946   7.768
   14POPC   GL2  713   1.372   9.883   7.800
   14POPC   C1A  714   0.893   9.950   7.340
   14POPC   D2A  715   1.152   9.935   6.972
   14POPC   C3A  716   1.104   9.672   6.598
   14POPC   C4A  717   1.149   9.888   6.222
   14POPC   C1B  718   1.321   9.661   7.416
   14POPC   C2B  719   1.517   9.574   7.023
   14POPC   C3B  720   1.620   9.652   6.622
   14POPC   C4B  721   1.477   9.511   6.220
   15POPC   NC3  722   1.243  10.552   8.193
   15POPC   PO4  723   0.714  10.691   7.834
   15POPC   GL1  724   0.958  10.433   7.643
   15POPC   GL2  725   1.322  10.395   7.691
   15POPC   C1A  726   1.059  10.421   7.231
   15POPC   D2A  727   1.312  10.521   6.910
   15POPC   C3A  728   1.161  10.300   6.555
   15POPC   C4A  729   0.944  10.345   6.170
   15POPC   C1B  730   1.499  10.162   7.307
   15POPC   C2B  731   1.611  10.109   6.848
   15POPC   C3B  732   1.614  10.115   6.381
   15POPC   C4B  733   1.442  10.316   6.024
   16POPC   NC3  734   3.650   9.143   8.211
   16POPC   PO4  735   3.093   9.308   7.971
   16POPC   GL1  736   3.476   9.472   7.740
   16POPC   GL2  737   3.620   9.824   7.737
   16POPC   C1A  738   3.521   9.565   7.286
   16POPC   D2A  739   3.389   9.738   6.880
   16POPC   C3A  740   3.303   9.556   6.443
   16POPC   C4A  741   3.181   9.528   6.002
   16POPC   C1B  742   3.781  10.006   7.323
   16POPC   C2B  743   3.891   9.932   6.869
   16POPC   C3B  744   3.791   9.720   6.452
   16POPC   C4B  745   3.649   9.739   6.001
   17POPC   NC3  746  10.460   1.276   8.363
   17POPC   PO4  747  10.360   1.796   8.000
   17POPC   GL1  748  10.284   1.502   7.682
   17POPC   GL2  749  10.387   1.160   7.751
   17POPC   C1A  750  10.533   1.395   7.290
   17POPC   D2A  751  10.679   1.247   6.888
   17POPC   C3A  752  10.622   1.575   6.625
   17POPC   C4A  753  10.526   1.581   6.214
   17POPC   C1B  754  10.094   1.138   7.378
   17POPC   C2B  755  10.213   1.056   6.966
   17POPC   C3B  756  10.239   1.218   6.542
   17POPC   C4B  757  10.238   1.052   6.102
   18POPC   NC3  758   3.848  11.351   8.166
   18POPC   PO4  759   3.296   0.086   7.840
   18POPC   GL1  760   3.649  11.411   7.684
   18POPC   GL2  761   3.602  11.069   7.740
   18POPC   C1A  762   3.790  11.355   7.278
   18POPC   D2A  763   3.777  11.067   6.940
   18POPC   C3A  764   3.658  11.191   6.571
   18POPC   C4A  765   3.735   0.004   6.282
   18POPC   C1B  766   3.383  11.024   7.304
   18POPC   C2B  767   3.267  10.922   6.848
   18POPC   C3B  768   3.253  10.989   6.377
   18POPC   C4B  769   3.584  10.992   6.056
   19POPC   NC3  770  11.367   6.281   8.158
   19POPC   PO4  771  11.218   6.939   7.970
   19POPC   GL1  772  11.262   6.717   7.634
   19POPC   GL2  773  11.248   6.383   7.692
   19POPC   C1A  774  11.221   6.798   7.207
   19POPC   D2A  775  11.100   6.978   6.789
   19POPC   C3A  776  11.196   6.811   6.321
   19POPC   C4A  777  10.887   6.968   5.934
   19POPC   C1B  778  11.277   6.296   7.255
   19POPC   C2B  779  11.037   6.464   6.884
   19POPC   C3B  780  11.051   6.326   6.463
   19POPC   C4B  781  11.456   6.234   6.270
   20POPC   NC3  782  10.369   0.283   8.441
   20POPC   PO4  783  10.894   0.150   8.082
   20POPC   GL1  784  10.649   0.283   7.711
   20POPC   GL2  785  10.279   0.347   7.733
   20POPC   C1A  786  10.513   0.221   7.262
   20POPC   D2A  787  10.485  11.487   6.876
   20POPC   C3A  788  10.562   0.266   6.549
   20POPC   C4A  789  10.707   0.206   6.116
   20POPC   C1B  790  10.319   0.668   7.372
   20POPC   C2B  791  10.463   0.621   6.925
   20POPC   C3B  792  10.246   0.691   6.527
   20POPC   C4B  793  10.240   0.425   6.195
   21POPC   NC3  794   6.947   1.111   7.987
   21POPC   PO4  795   6.257   1.161   8.066
   21POPC   GL1  796   6.502   0.968   7.703
   21POPC   GL2  797   6.283   0.738   7.507
   21POPC   C1A  798   6.854   1.049   7.369
   21POPC   D2A  799   6.808   1.209   6.966
   21POPC   C3A  800   6.556   0.957   6.707
   21POPC   C4A  801   6.540   1.171   6.332
   21POPC   C1B  802   6.349   1.070   7.191
   21POPC   C2B  803   6.310   1.437   6.903
   21POPC   C3B  804   6.362   1.654   6.490
   21POPC   C4B  805   6.214   1.484   6.099
   22POPC   NC3  806   8.928  11.014   7.976
   22POPC   PO4  807   9.313  10.497   7.912
   22POPC   GL1  808   9.175  10.815   7.581
   22POPC   GL2  809   9.074  11.219   7.561
   22POPC   C1A  810   8.956  10.873   7.195
   22POPC   D2A  811   8.659  10.780   6.858
   22POPC   C3A  812   8.663  10.994   6.488
   22POPC   C4A  813   8.987  10.982   6.235
   22POPC   C1B  814   8.674  11.256   7.341
   22POPC   C2B  815   8.791  11.298   6.904
   22POPC   C3B  816   8.695   0.014   6.515
   22POPC   C4B  817   8.750  11.437   6.059
   23POPC   NC3  818   0.464   1.062   7.843
   23POPC   PO4  819   0.797   1.631   7.979
   23POPC   GL1  820   0.656   1.480   7.615
   23POPC   GL2  821   0.273   1.501   7.661
   23POPC   C1A  822   0.579   1.560   7.191
   23POPC   D2A  823   0.489   1.325   6.834
   23POPC   C3A  824   0.477   1.603   6.497
   23POPC   C4A  825   0.287   1.541   6.095
   23POPC   C1B  826   0.134   1.278   7.285
   23POPC   C2B  827  11.469   1.103   6.930
   23POPC   C3B  828   0.079   1.246   6.517
   23POPC   C4B  829   0.459   1.081   6.314
   24POPC   NC3  830   4.436   8.588   8.095
   24POPC   PO4  831   4.097   9.152   8.134
   24POPC   GL1  832   4.146   9.047   7.721
   24POPC   GL2  833   4.463   8.939   7.668
   24POPC   C1A  834   4.056   8.915   7.289
   24POPC   D2A  835   4.188   8.608   6.969
   24POPC   C3A  836   4.125   8.712   6.515
   24POPC   C4A  837   4.076   8.517   6.111
   24POPC   C1B  838   4.555   8.901   7.219
   24POPC   C2B  839   4.441   9.019   6.793
   24POPC   C3B  840   4.536   8.968   6.360
   24POPC   C4B  841   4.702   9.166   6.026
   25POPC   NC3  842   3.536   1.365   8.207
   25POPC   PO4  843   3.220   0.695   8.086
   25POPC   GL1  844   3.254   0.871   7.667
   25POPC   GL2  845   3.508   1.128   7.564
   25POPC   C1A  846   3.133   0.983   7.251
   25POPC   D2A  847   3.342   1.111   6.867
   25POPC   C3A  848   3.132   1.157   6.467
   25POPC   C4A  849   3.170   1.476   6.149
   25POPC   C1B  850   3.806   1.376   7.255
   25POPC   C2B  851   3.983   1.523   6.838
   25POPC   C3B  852   3.922   1.441   6.388
   25POPC   C4B  853   3.596   1.166   6.306
   26POPC   NC3  854   5.637   9.701   8.272
   26POPC   PO4  855   6.081  10.153   8.247
   26POPC   GL1  856   6.162   9.891   7.838
   26POPC   GL2  857   5.845   9.710   7.776
   26POPC   C1A  858   6.041   9.914   7.349
   26POPC   D2A  859   6.186   9.789   6.917
   26POPC   C3A  860   5.968   9.869   6.523
   26POPC   C4A  861   6.011   9.895   6.069
   26POPC   C1B  862   5.625   9.604   7.365
   26POPC   C2B  863   5.634   9.669   6.899
   26POPC   C3B  864   5.541   9.532   6.457
   26POPC   C4B  865   5.713   9.484   6.018
   27POPC   NC3  866  11.059  10.453   8.050
   27POPC   PO4  867  10.737   9.925   7.781
   27POPC   GL1  868  11.124  10.121   7.626
   27POPC   GL2  869  11.401  10.384   7.689
   27POPC   C1A  870  11.156  10.080   7.198
   27POPC   D2A  871  10.896  10.131   6.839
   27POPC   C3A  872  11.163  10.336   6.556
   27POPC   C4A  873  11.249  10.177   6.169
   27POPC   C1B  874  11.182  10.572   7.347
   27POPC   C2B  875  11.022  10.638   6.956
   27POPC   C3B  876  11.073  10.863   6.579
   27POPC   C4B  877  11.271  10.711   6.215
   28POPC   NC3  878   5.452   0.127   7.946
   28POPC   PO4  879   5.032   0.600   8.248
   28POPC   GL1  880   5.216   0.539   7.792
   28POPC   GL2  881   5.131   0.261   7.570
   28POPC   C1A  882   5.365   0.604   7.309
   28POPC   D2A  883   5.091   0.356   7.024
   28POPC   C3A  884   5.130   0.378   6.586
   28POPC   C4A  885   5.280   0.647   6.284
   28POPC   C1B  886   4.877   0.643   7.420
   28POPC   C2B  887   4.638   0.688   7.055
   28POPC   C3B  888   4.727   0.719   6.608
   28POPC   C4B  889   4.800   0.975   6.251
   29POPC   NC3  890   8.702   2.613   8.063
   29POPC   PO4  891   8.194   2.903   7.997
   29POPC   GL1  892   8.538   2.899   7.648
   29POPC   GL2  893   8.777   2.595   7.542
   29POPC   C1A  894   8.854   3.058   7.335
   29POPC   D2A  895   8.978   3.335   6.972
   29POPC   C3A  896   8.991   3.168   6.539
   29POPC   C4A  897   8.688   3.026   6.178
   29POPC   C1B  898   9.101   2.625   7.187
   29POPC   C2B  899   9.041   2.642   6.735
   29POPC   C3B  900   9.060   2.703   6.298
   29POPC   C4B  901   9.045   2.574   5.863
   30POPC   NC3  902   7.382  10.612   8.234
   30POPC   PO4  903   7.714  10.786   7.694
   30POPC   GL1  904   7.352  10.573   7.596
   30POPC   GL2  905   7.403  10.270   7.800
   30POPC   C1A  906   7.282  10.413   7.183
   30POPC   D2A  907   7.001  10.427   6.845
   30POPC   C3A  908   7.134  10.621   6.478
   30POPC   C4A  909   7.484  10.655   6.217
   30POPC   C1B  910   7.677  10.171   7.448
   30POPC   C2B  911   7.614  10.066   7.021
   30POPC   C3B  912   7.507  10.249   6.616
   30POPC   C4B  913   7.464  10.138   6.182
   31POPC   NC3  914  10.324   4.507   7.607
   31POPC   PO4  915  10.231   4.029   7.959
   31POPC   GL1  916  10.074   4.063   7.539
   31POPC   GL2  917   9.734   4.085   7.554
   31POPC   C1A  918  10.074   4.224   7.071
   31POPC   D2A  919  10.181   4.612   6.782
   31POPC   C3A  920  10.073   4.574   6.339
   31POPC   C4A  921   9.774   4.256   6.200
   31POPC   C1B  922   9.552   4.074   7.129
   31POPC   C2B  923   9.324   3.894   6.770
   31POPC   C3B  924   9.312   4.124   6.397
   31POPC   C4B  925   9.310   4.588   6.356
   32POPC   NC3  926   0.465   2.049   8.000
   32POPC   PO4  927   1.052   2.345   7.842
   32POPC   GL1  928   0.841   2.018   7.596
   32POPC   GL2  929   0.486   1.942   7.523
   32POPC   C1A  930   0.762   2.147   7.178
   32POPC   D2A  931   0.471   1.993   6.889
   32POPC   C3A  932   0.712   2.077   6.553
   32POPC   C4A  933   0.843   1.926   6.163
   32POPC   C1B  934   0.140   1.824   7.284
   32POPC   C2B  935   0.081   1.630   6.887
   32POPC   C3B  936  11.492   1.784   6.466
   32POPC   C4B  937   0.314   2.038   6.246
   33POPC   NC3  938   9.462   5.663   8.298
   33POPC   PO4  939   9.918   6.068   8.161
   33POPC   GL1  940   9.974   5.844   7.751
   33POPC   GL2  941  10.155   6.074   7.576
   33POPC   C1A  942   9.909   5.716   7.303
   33POPC   D2A  943   9.846   5.829   6.857
   33POPC   C3A  944   9.756   5.609   6.484
   33POPC   C4A  945   9.878   5.679   6.073
   33POPC   C1B  946  10.049   6.206   7.147
   33POPC   C2B  947   9.850   6.325   6.729
   33POPC   C3B  948   9.720   6.109   6.343
   33POPC   C4B  949   9.448   5.939   6.023
   34POPC   NC3  950   5.066   1.078   8.183
   34POPC   PO4  951   5.659   0.718   8.131
   34POPC   GL1  952   5.418   0.987   7.775
   34POPC   GL2  953   5.159   1.265   7.718
   34POPC   C1A  954   5.388   1.095   7.309
   34POPC   D2A  955   5.097   0.914   6.983
   34POPC   C3A  956   5.187   1.050   6.578
   34POPC   C4A  957   5.259   1.176   6.133
   34POPC   C1B  958   4.884   1.232   7.328
   34POPC   C2B  959   4.789   1.346   6.879
   34POPC   C3B  960   4.903   1.445   6.436
   34POPC   C4B  961   5.042   1.667   6.056
   35POPC   NC3  962   7.758   9.251   8.089
   35POPC   PO4  963   8.452   9.260   8.071
   35POPC   GL1  964   8.343   9.180   7.648
   35POPC   GL2  965   8.022   9.166   7.664
   35POPC   C1A  966   8.219   8.855   7.310
   35POPC   D2A  967   8.091   8.718   6.849
   35POPC   C3A  968   8.350   8.659   6.428
   35POPC   C4A  969   8.345   8.761   5.969
   35POPC   C1B  970   7.845   9.203   7.260
   35POPC   C2B  971   8.000   9.217   6.844
   35POPC   C3B  972   8.038   9.068   6.399
   35POPC   C4B  973   7.877   9.005   5.957
   36POPC   NC3  974   8.914  10.397   8.135
   36POPC   PO4  975   8.467  11.007   8.032
   36POPC   GL1  976   8.625  10.681   7.672
   36POPC   GL2  977   8.882  10.381   7.633
   36POPC   C1A  978   8.587  10.475   7.243
   36POPC   D2A  979   8.589  10.264   6.838
   36POPC   C3A  980   8.374  10.541   6.491
   36POPC   C4A  981   8.549  10.692   6.078
   36POPC   C1B  982   9.118  10.382   7.241
   36POPC   C2B  983   9.126  10.582   6.827
   36POPC   C3B  984   8.883  10.495   6.450
   36POPC   C4B  985   8.986  10.136   6.218
   37POPC   NC3  986   7.155   8.839   7.952
   37POPC   PO4  987   7.839   8.652   8.184
   37POPC   GL1  988   7.814   8.697   7.735
   37POPC   GL2  989   7.586   8.920   7.694
   37POPC   C1A  990   7.732   8.701   7.256
   37POPC   D2A  991   7.584   8.928   6.886
   37POPC   C3A  992   7.387   8.700   6.566
   37POPC   C4A  993   7.726   8.658   6.304
   37POPC   C1B  994   7.341   9.033   7.325
   37POPC   C2B  995   7.128   9.144   6.939
   37POPC   C3B  996   7.162   9.158   6.494
   37POPC   C4B  997   7.395   9.051   6.146
   38POPC   NC3  998   0.562  11.031   8.090
   38POPC   PO4  999   1.126  10.982   8.483
   38POPC   GL1 1000   1.158  10.981   7.941
   38POPC   GL2 1001   0.927  11.203   7.755
   38POPC   C1A 1002   1.243  10.860   7.455
   38POPC   D2A 1003   1.243  11.033   7.005
   38POPC   C3A 1004   1.172  10.904   6.560
   38POPC   C4A 1005   0.939  10.924   6.157
   38POPC   C1B 1006   1.194  11.367   7.384
   38POPC   C2B 1007   1.429   0.012   7.009
   38POPC   C3B 1008   1.314  11.458   6.575
   38POPC   C4B 1009   1.325  11.278   6.152
   39POPC   NC3 1010   9.345   8.522   8.096
   39POPC   PO4 1011   9.283   7.846   8.116
   39POPC   GL1 1012   9.545   8.046   7.748
   39POPC   GL2 1013   9.726   8.362   7.760
   39POPC   C1A 1014   9.688   8.028   7.281
   39POPC   D2A 1015   9.857   7.769   6.907
   39POPC   C3A 1016   9.679   7.795   6.448
   39POPC   C4A 1017   9.690   7.815   5.992
   39POPC   C1B 1018   9.674   8.538   7.362
   39POPC   C2B 1019   9.527   8.451   6.940
   39POPC   C3B 1020   9.700   8.470   6.518
   39POPC   C4B 1021   9.560   8.267   6.144
   40POPC   NC3 1022   1.140   1.280   8.005
   40POPC   PO4 1023   1.717   0.833   8.115
   40POPC   GL1 1024   1.523   0.923   7.756
   40POPC   GL2 1025   1.639   1.241   7.663
   40POPC   C1A 1026   1.616   0.817   7.317
   40POPC   D2A 1027   1.755   0.832   6.864
   40POPC   C3A 1028   1.411   0.970   6.577
   40POPC   C4A 1029   1.032   0.954   6.301
   40POPC   C1B 1030   1.463   1.326   7.256
   40POPC   C2B 1031   1.322   1.406   6.827
   40POPC   C3B 1032   0.943   1.369   6.573
   40POPC   C4B 1033   0.812   1.416   6.152
   41POPC   NC3 1034   7.990   3.315   8.033
   41POPC   PO4 1035   8.307   3.809   7.958
   41POPC   GL1 1036   8.337   3.417   7.686
   41POPC   GL2 1037   8.001   3.468   7.534
   41POPC   C1A 1038   8.391   3.257   7.267
   41POPC   D2A 1039   8.474   3.537   6.915
   41POPC   C3A 1040   8.536   3.408   6.503
   41POPC   C4A 1041   8.310   3.365   6.130
   41POPC   C1B 1042   7.954   3.422   7.064
   41POPC   C2B 1043   8.045   3.291   6.620
   41POPC   C3B 1044   7.811   3.245   6.222
   41POPC   C4B 1045   7.476   3.380   5.939
   42POPC   NC3 1046  11.121   9.776   8.016
   42POPC   PO4 1047  10.818   9.211   7.853
   42POPC   GL1 1048  10.978   9.524   7.567
   42POPC   GL2 1049  11.326   9.650   7.551
   42POPC   C1A 1050  10.820   9.638   7.165
   42POPC   D2A 1051  10.636   9.454   6.786
   42POPC   C3A 1052  10.649   9.743   6.447
   42POPC   C4A 1053  10.915   9.785   6.069
   42POPC   C1B 1054  11.351   9.623   7.106
   42POPC   C2B 1055  11.106   9.646   6.736
   42POPC   C3B 1056  11.029   9.397   6.395
   42POPC   C4B 1057  11.335   9.490   6.090
   43POPC   NC3 1058  10.983   7.185   8.286
   43POPC   PO4 1059  11.089   7.711   7.869
   43POPC   GL1 1060  11.163   7.286   7.593
   43POPC   GL2 1061  10.903   7.073   7.518
   43POPC   C1A 1062  11.453   7.235   7.244
   43POPC   D2A 1063   0.102   6.961   6.906
   43POPC   C3A 1064  11.487   7.178   6.518
   43POPC   C4A 1065  11.331   7.551   6.285
   43POPC   C1B 1066  10.888   7.470   7.239
   43POPC   C2B 1067  11.021   7.762   6.924
   43POPC   C3B 1068  10.870   7.659   6.523
   43POPC   C4B 1069  10.929   7.238   6.372
   44POPC   NC3 1070   1.472   8.044   8.198
   44POPC   PO4 1071   0.790   8.103   8.197
   44POPC   GL1 1072   1.120   8.211   7.829
   44POPC   GL2 1073   1.125   8.566   7.677
   44POPC   C1A 1074   1.389   8.171   7.424
   44POPC   D2A 1075   1.490   8.347   6.988
   44POPC   C3A 1076   1.583   8.209   6.582
   44POPC   C4A 1077   1.365   8.100   6.209
   44POPC   C1B 1078   0.932   8.386   7.330
   44POPC   C2B 1079   1.035   8.136   7.032
   44POPC   C3B 1080   1.072   8.208   6.640
   44POPC   C4B 1081   0.884   8.287   6.258
   45POPC   NC3 1082   3.299   3.404   8.082
   45POPC   PO4 1083   2.666   3.217   8.065
   45POPC   GL1 1084   2.616   3.177   7.641
   45POPC   GL2 1085   2.423   3.472   7.610
   45POPC   C1A 1086   2.841   3.270   7.226
   45POPC   D2A 1087   2.743   3.387   6.783
   45POPC   C3A 1088   2.934   3.374   6.362
   45POPC   C4A 1089   2.951   3.826   6.157
   45POPC   C1B 1090   2.313   3.298   7.231
   45POPC   C2B 1091   2.117   3.503   6.927
   45POPC   C3B 1092   2.329   3.629   6.597
   45POPC   C4B 1093   2.402   3.271   6.380
   46POPC   NC3 1094  10.759   8.850   8.124
   46POPC   PO4 1095  11.303   9.367   8.184
   46POPC   GL1 1096  11.319   9.176   7.754
   46POPC   GL2 1097  11.207   8.854   7.841
   46POPC   C1A 1098  11.476   9.176   7.328
   46POPC   D2A 1099  11.250   9.139   6.912
   46POPC   C3A 1100  11.468   9.137   6.498
   46POPC   C4A 1101  11.235   8.965   6.158
   46POPC   C1B 1102  11.127   8.807   7.385
   46POPC   C2B 1103  11.383   8.619   7.037
   46POPC   C3B 1104  11.329   8.625   6.573
   46POPC   C4B 1105  10.943   8.559   6.291
   47POPC   NC3 1106   0.628   3.006   8.108
   47POPC   PO4 1107   0.212   2.432   8.107
   47POPC   GL1 1108   0.384   2.685   7.785
   47POPC   GL2 1109   0.561   2.435   7.660
   47POPC   C1A 1110   0.467   2.823   7.350
   47POPC   D2A 1111   0.516   3.001   6.949
   47POPC   C3A 1112   0.213   2.981   6.635
   47POPC   C4A 1113   0.396   2.950   6.223
   47POPC   C1B 1114   0.301   2.343   7.298
   47POPC   C2B 1115   0.325   2.511   6.901
   47POPC   C3B 1116   0.358   2.496   6.483
   47POPC   C4B 1117   0.685   2.454   6.213
   48POPC   NC3 1118   5.427   0.404   8.378
   48POPC   PO4 1119   5.957   0.215   7.945
   48POPC   GL1 1120   5.694   0.358   7.612
   48POPC   GL2 1121   5.761   0.620   7.626
   48POPC   C1A 1122   5.536   0.144   7.240
   48POPC   D2A 1123   5.604   0.378   6.873
   48POPC   C3A 1124   5.602   0.166   6.513
   48POPC   C4A 1125   5.371  11.434   6.226
   48POPC   C1B 1126   5.997   0.404   7.244
   48POPC   C2B 1127   6.201   0.613   6.972
   48POPC   C3B 1128   6.080   0.717   6.604
   48POPC   C4B 1129   5.883   0.491   6.226
   49POPC   NC3 1130  10.646   4.902   8.195
   49POPC   PO4 1131  10.767   5.543   8.102
   49POPC   GL1 1132  10.726   5.239   7.744
   49POPC   GL2 1133  10.435   5.026   7.746
   49POPC   C1A 1134  10.624   5.071   7.283
   49POPC   D2A 1135  10.496   5.050   6.850
   49POPC   C3A 1136  10.455   4.924   6.438
   49POPC   C4A 1137  10.660   5.091   6.121
   49POPC   C1B 1138  10.268   5.370   7.463
   49POPC   C2B 1139  10.191   5.429   6.987
   49POPC   C3B 1140  10.201   5.361   6.517
   49POPC   C4B 1141   9.885   5.171   6.204
   50POPC   NC3 1142   8.097  10.706   7.938
   50POPC   PO4 1143   8.519  10.253   7.972
   50POPC   GL1 1144   8.356  10.203   7.585
   50POPC   GL2 1145   8.120  10.496   7.480
   50POPC   C1A 1146   8.174  10.103   7.184
   50POPC   D2A 1147   8.035  10.242   6.795
   50POPC   C3A 1148   8.256  10.026   6.548
   50POPC   C4A 1149   8.461  10.117   6.204
   50POPC   C1B 1150   7.802  10.548   7.128
   50POPC   C2B 1151   7.549  10.718   6.832
   50POPC   C3B 1152   7.857  10.683   6.546
   50POPC   C4B 1153   7.945  10.332   6.282
   51POPC   NC3 1154   9.915   1.717   8.061
   51POPC   PO4 1155   9.297   1.562   8.304
   51POPC   GL1 1156   9.438   1.874   7.865
   51POPC   GL2 1157   9.731   2.123   7.756
   51POPC   C1A 1158   9.435   1.944   7.371
   51POPC   D2A 1159   9.696   1.886   6.957
   51POPC   C3A 1160   9.516   1.949   6.535
   51POPC   C4A 1161   9.326   1.794   6.143
   51POPC   C1B 1162   9.834   2.255   7.310
   51POPC   C2B 1163   9.518   2.381   6.973
   51POPC   C3B 1164   9.499   2.467   6.516
   51POPC   C4B 1165   9.827   2.260   6.246
   52POPC   NC3 1166  10.479   2.233   8.184
   52POPC   PO4 1167  10.778   1.659   8.359
   52POPC   GL1 1168  10.810   2.006   7.871
   52POPC   GL2 1169  10.444   2.097   7.638
   52POPC   C1A 1170  10.836   2.133   7.370
   52POPC   D2A 1171  10.602   1.918   7.006
   52POPC   C3A 1172  10.551   2.082   6.546
   52POPC   C4A 1173  10.573   2.090   6.078
   52POPC   C1B 1174  10.158   1.846   7.342
   52POPC   C2B 1175  10.131   1.566   6.983
   52POPC   C3B 1176  10.118   1.734   6.575
   52POPC   C4B 1177  10.128   1.870   6.154
   53POPC   NC3 1178   2.872   5.789   8.312
   53POPC   PO4 1179   3.264   6.178   8.159
   53POPC   GL1 1180   2.917   5.997   7.840
   53POPC   GL2 1181   2.633   5.698   7.749
   53POPC   C1A 1182   2.907   5.928   7.393
   53POPC   D2A 1183   2.931   6.055   6.969
   53POPC   C3A 1184   3.070   5.786   6.611
   53POPC   C4A 1185   3.099   5.881   6.149
   53POPC   C1B 1186   2.490   5.657   7.250
   53POPC   C2B 1187   2.606   5.599   6.758
   53POPC   C3B 1188   2.627   5.824   6.336
   53POPC   C4B 1189   2.453   6.191   6.214
   54POPC   NC3 1190   8.936   9.272   8.128
   54POPC   PO4 1191   8.948   9.952   8.252
   54POPC   GL1 1192   8.815   9.871   7.764
   54POPC   GL2 1193   8.764   9.514   7.714
   54POPC   C1A 1194   8.765   9.981   7.303
   54POPC   D2A 1195   8.975   9.879   6.873
   54POPC   C3A 1196   8.720   9.760   6.481
   54POPC   C4A 1197   8.674   9.658   6.002
   54POPC   C1B 1198   9.062   9.550   7.353
   54POPC   C2B 1199   9.161   9.313   6.973
   54POPC   C3B 1200   9.168   9.343   6.531
   54POPC   C4B 1201   9.132   9.639   6.189
   55POPC   NC3 1202   9.710   0.218   7.965
   55POPC   PO4 1203   9.192  11.382   8.068
   55POPC   GL1 1204   9.255   0.175   7.722
   55POPC   GL2 1205   9.415   0.522   7.647
   55POPC   C1A 1206   9.486   0.110   7.327
   55POPC   D2A 1207   9.475   0.345   6.949
   55POPC   C3A 1208   9.347   0.124   6.587
   55POPC   C4A 1209   9.321   0.314   6.189
   55POPC   C1B 1210   9.801   0.534   7.341
   55POPC   C2B 1211   9.880   0.661   6.880
   55POPC   C3B 1212   9.738   0.475   6.478
   55POPC   C4B 1213   9.781   0.481   6.024
   56POPC   NC3 1214   0.377   8.255   8.307
   56POPC   PO4 1215   0.253   7.782   7.904
   56POPC   GL1 1216   0.275   8.162   7.714
   56POPC   GL2 1217   0.610   8.257   7.705
   56POPC   C1A 1218   0.275   8.141   7.283
   56POPC   D2A 1219   0.543   8.156   6.929
   56POPC   C3A 1220   0.416   8.286   6.533
   56POPC   C4A 1221   0.365   8.103   6.153
   56POPC   C1B 1222   0.725   7.905   7.380
   56POPC   C2B 1223   0.780   7.703   6.920
   56POPC   C3B 1224   0.734   7.854   6.463
   56POPC   C4B 1225   0.751   7.876   5.945
   57POPC   NC3 1226   0.568   4.093   7.968
   57POPC   PO4 1227   0.390   3.414   8.105
   57POPC   GL1 1228   0.477   3.576   7.728
   57POPC   GL2 1229   0.611   3.259   7.635
   57POPC   C1A 1230   0.442   3.783   7.336
   57POPC   D2A 1231   0.674   3.844   6.938
   57POPC   C3A 1232   0.497   3.854   6.550
   57POPC   C4A 1233   0.639   3.711   6.130
   57POPC   C1B 1234   0.267   3.298   7.322
   57POPC   C2B 1235   0.326   3.469   6.906
   57POPC   C3B 1236   0.553   3.353   6.523
   57POPC   C4B 1237   0.199   3.463   6.232
   58POPC   NC3 1238   5.185  10.956   8.171
   58POPC   PO4 1239   4.973   0.051   8.020
   58POPC   GL1 1240   4.852  11.340   7.655
   58POPC   GL2 1241   4.982  11.036   7.707
   58POPC   C1A 1242   5.094  11.345   7.264
   58POPC   D2A 1243   5.274  11.387   6.841
   58POPC   C3A 1244   4.923  11.418   6.537
   58POPC   C4A 1245   4.878  11.491   6.103
   58POPC   C1B 1246   5.145  10.833   7.337
   58POPC   C2B 1247   5.244  10.799   6.897
   58POPC   C3B 1248   5.200  10.997   6.483
   58POPC   C4B 1249   5.192  10.992   6.012
   59POPC   NC3 1250   2.953   0.290   8.086
   59POPC   PO4 1251   2.474   0.796   7.972
   59POPC   GL1 1252   2.781   0.621   7.707
   59POPC   GL2 1253   2.557   0.345   7.673
   59POPC   C1A 1254   2.971   0.504   7.311
   59POPC   D2A 1255   2.876   0.288   6.911
   59POPC   C3A 1256   2.621   0.425   6.552
   59POPC   C4A 1257   2.853   0.275   6.197
   59POPC   C1B 1258   2.448   0.412   7.234
   59POPC   C2B 1259   2.266   0.696   6.915
   59POPC   C3B 1260   2.199   0.789   6.485
   59POPC   C4B 1261   2.498   0.738   6.087
   60POPC   NC3 1262   8.978   1.247   8.161
   60POPC   PO4 1263   8.338   1.373   8.093
   60POPC   GL1 1264   8.657   1.348   7.718
   60POPC   GL2 1265   8.884   1.074   7.664
   60POPC   C1A 1266   8.684   1.321   7.242
   60POPC   D2A 1267   8.893   1.261   6.820
   60POPC   C3A 1268   8.628   1.375   6.464
   60POPC   C4A 1269   8.679   1.335   5.972
   60POPC   C1B 1270   9.142   1.103   7.265
   60POPC   C2B 1271   9.214   0.826   6.931
   60POPC   C3B 1272   9.258   1.004   6.556
   60POPC   C4B 1273   9.091   1.303   6.264
   61POPC   NC3 1274   2.270  10.391   7.953
   61POPC   PO4 1275   1.690  10.685   8.123
   61POPC   GL1 1276   1.820  10.547   7.714
   61POPC   GL2 1277   1.825  10.167   7.731
   61POPC   C1A 1278   1.710  10.642   7.280
   61POPC   D2A 1279   1.704  10.858   6.886
   61POPC   C3A 1280   1.916  10.699   6.519
   61POPC   C4A 1281   1.868  10.648   6.070
   61POPC   C1B 1282   2.045  10.248   7.336
   61POPC   C2B 1283   2.017  10.398   6.928
   61POPC   C3B 1284   2.108  10.174   6.546
   61POPC   C4B 1285   2.075  10.214   6.116
   62POPC   NC3 1286   0.320   4.564   8.338
   62POPC   PO4 1287   0.069   4.107   8.041
   62POPC   GL1 1288   0.104   4.414   7.750
   62POPC   GL2 1289   0.372   4.550   7.792
   62POPC   C1A 1290   0.272   4.266   7.360
   62POPC   D2A 1291   0.228   4.072   6.971
   62POPC   C3A 1292   0.154   4.261   6.589
   62POPC   C4A 1293   0.202   4.038   6.198
   62POPC   C1B 1294   0.583   4.649   7.422
   62POPC   C2B 1295   0.668   4.496   6.999
   62POPC   C3B 1296   0.517   4.622   6.612
   62POPC   C4B 1297   0.530   4.430   6.208
   63POPC   NC3 1298   1.145   8.856   8.084
   63POPC   PO4 1299   1.499   9.455   8.100
   63POPC   GL1 1300   1.362   9.219   7.736
   63POPC   GL2 1301   1.025   9.109   7.666
   63POPC   C1A 1302   1.343   9.167   7.285
   63POPC   D2A 1303   1.109   9.258   6.938
   63POPC   C3A 1304   1.354   9.185   6.609
   63POPC   C4A 1305   1.207   9.096   6.230
   63POPC   C1B 1306   0.923   8.891   7.296
   63POPC   C2B 1307   1.163   8.734   6.955
   63POPC   C3B 1308   1.100   8.700   6.521
   63POPC   C4B 1309   0.784   8.772   6.187
   64POPC   NC3 1310   9.802  10.858   8.108
   64POPC   PO4 1311  10.120   0.041   8.134
   64POPC   GL1 1312   9.943  11.250   7.818
   64POPC   GL2 1313   9.575  11.241   7.719
   64POPC   C1A 1314   9.931  11.028   7.414
   64POPC   D2A 1315   9.877  11.226   6.980
   64POPC   C3A 1316   9.927  11.081   6.540
   64POPC   C4A 1317   9.820  10.781   6.219
   64POPC   C1B 1318   9.454  11.092   7.264
   64POPC   C2B 1319   9.308  11.101   6.824
   64POPC   C3B 1320   9.435  11.160   6.382
   64POPC   C4B 1321   9.257  11.350   5.992
   65POPC   NC3 1322   0.705   7.633   8.009
   65POPC   PO4 1323   1.385   7.646   7.980
   65POPC   GL1 1324   1.105   7.553   7.693
   65POPC   GL2 1325   1.123   7.209   7.824
   65POPC   C1A 1326   1.176   7.684   7.274
   65POPC   D2A 1327   1.428   7.830   6.951
   65POPC   C3A 1328   1.236   7.727   6.592
   65POPC   C4A 1329   1.122   7.635   6.206
   65POPC   C1B 1330   1.206   7.169   7.369
   65POPC   C2B 1331   0.969   7.120   6.957
   65POPC   C3B 1332   1.007   7.201   6.497
   65POPC   C4B 1333   1.449   7.260   6.335
   66POPC   NC3 1334   8.895   0.250   8.143
   66POPC   PO4 1335   9.174   0.825   8.090
   66POPC   GL1 1336   8.897   0.576   7.741
   66POPC   GL2 1337   8.697   0.244   7.678
   66POPC   C1A 1338   8.856   0.684   7.290
   66POPC   D2A 1339   8.666   0.818   6.874
   66POPC   C3A 1340   8.737   0.898   6.382
   66POPC   C4A 1341   8.627   0.805   5.904
   66POPC   C1B 1342   8.952   0.180   7.314
   66POPC   C2B 1343   8.889   0.321   6.915
   66POPC   C3B 1344   9.005   0.511   6.568
   66POPC   C4B 1345   8.794   0.428   6.209
   67POPC   NC3 1346   4.282   3.017   8.279
   67POPC   PO4 1347   3.661   3.145   8.130
   67POPC   GL1 1348   3.998   3.049   7.803
   67POPC   GL2 1349   4.322   2.831   7.757
   67POPC   C1A 1350   3.991   2.912   7.364
   67POPC   D2A 1351   4.153   2.764   6.957
   67POPC   C3A 1352   4.227   2.901   6.514
   67POPC   C4A 1353   4.400   3.073   6.121
   67POPC   C1B 1354   4.293   2.477   7.391
   67POPC   C2B 1355   4.126   2.268   6.976
   67POPC   C3B 1356   4.239   2.383   6.541
   67POPC   C4B 1357   4.569   2.564   6.279
   68POPC   NC3 1358   9.934   9.328   8.154
   68POPC   PO4 1359   9.784   8.711   8.114
   68POPC   GL1 1360   9.730   8.918   7.732
   68POPC   GL2 1361   9.359   8.916   7.680
   68POPC   C1A 1362   9.963   9.007   7.346
   68POPC   D2A 1363   9.915   8.772   6.929
   68POPC   C3A 1364   9.897   8.946   6.466
   68POPC   C4A 1365  10.005   9.168   6.032
   68POPC   C1B 1366   9.371   8.903   7.204
   68POPC   C2B 1367   9.439   8.930   6.740
   68POPC   C3B 1368   9.395   8.870   6.351
   68POPC   C4B 1369   9.178   8.472   6.402
   69POPC   NC3 1370  11.467   3.650   8.135
   69POPC   PO4 1371  10.793   3.482   7.953
   69POPC   GL1 1372  10.869   3.548   7.548
   69POPC   GL2 1373  11.207   3.439   7.604
   69POPC   C1A 1374  10.913   3.755   7.172
   69POPC   D2A 1375  10.925   3.637   6.747
   69POPC   C3A 1376  10.738   3.872   6.429
   69POPC   C4A 1377  10.986   3.725   6.064
   69POPC   C1B 1378  11.246   3.151   7.275
   69POPC   C2B 1379  11.316   3.259   6.842
   69POPC   C3B 1380  11.247   3.240   6.385
   69POPC   C4B 1381  10.985   2.932   6.164
   70POPC   NC3 1382   1.230   5.947   7.948
   70POPC   PO4 1383   0.852   5.447   8.113
   70POPC   GL1 1384   0.973   5.576   7.700
   70POPC   GL2 1385   1.322   5.506   7.707
   70POPC   C1A 1386   0.845   5.453   7.259
   70POPC   D2A 1387   0.646   5.482   6.866
   70POPC   C3A 1388   0.901   5.385   6.480
   70POPC   C4A 1389   1.061   5.440   6.047
   70POPC   C1B 1390   1.258   5.735   7.299
   70POPC   C2B 1391   1.186   5.579   6.872
   70POPC   C3B 1392   1.268   5.733   6.446
   70POPC   C4B 1393   1.339   5.900   6.046
   71POPC   NC3 1394   9.835   6.559   8.071
   71POPC   PO4 1395  10.451   6.392   7.835
   71POPC   GL1 1396  10.554   6.387   7.471
   71POPC   GL2 1397  10.847   6.499   7.428
   71POPC   C1A 1398  10.548   6.293   7.078
   71POPC   D2A 1399  10.581   6.322   6.698
   71POPC   C3A 1400  10.267   6.533   6.512
   71POPC   C4A 1401   9.950   6.567   6.251
   71POPC   C1B 1402  10.715   6.777   7.151
   71POPC   C2B 1403  10.627   6.806   6.764
   71POPC   C3B 1404  10.704   6.726   6.354
   71POPC   C4B 1405  10.394   6.777   6.051
   72POPC   NC3 1406   2.879   1.015   8.040
   72POPC   PO4 1407   3.050   1.606   8.085
   72POPC   GL1 1408   2.998   1.358   7.668
   72POPC   GL2 1409   2.710   1.138   7.597
   72POPC   C1A 1410   2.867   1.395   7.201
   72POPC   D2A 1411   2.654   1.655   6.916
   72POPC   C3A 1412   2.750   1.493   6.546
   72POPC   C4A 1413   2.652   1.647   6.170
   72POPC   C1B 1414   2.604   0.914   7.261
   72POPC   C2B 1415   2.803   0.804   6.887
   72POPC   C3B 1416   2.682   0.951   6.508
   72POPC   C4B 1417   2.402   1.215   6.306
   73POPC   NC3 1418   9.676   7.606   8.068
   73POPC   PO4 1419   9.666   6.982   8.026
   73POPC   GL1 1420   9.604   7.317   7.644
   73POPC   GL2 1421   9.809   7.639   7.575
   73POPC   C1A 1422   9.479   7.477   7.195
   73POPC   D2A 1423   9.533   7.391   6.719
   73POPC   C3A 1424   9.352   7.082   6.387
   73POPC   C4A 1425   9.348   6.859   5.957
   73POPC   C1B 1426   9.967   7.361   7.238
   73POPC   C2B 1427  10.051   7.300   6.792
   73POPC   C3B 1428   9.876   7.189   6.374
   73POPC   C4B 1429   9.871   6.984   5.967
   74POPC   NC3 1430  10.677   3.908   8.088
   74POPC   PO4 1431  10.687   4.572   7.876
   74POPC   GL1 1432  10.784   4.370   7.501
   74POPC   GL2 1433  10.675   4.054   7.601
   74POPC   C1A 1434  10.793   4.276   7.099
   74POPC   D2A 1435  10.683   4.574   6.816
   74POPC   C3A 1436  10.628   4.458   6.427
   74POPC   C4A 1437  10.644   4.607   6.011
   74POPC   C1B 1438  10.455   3.922   7.263
   74POPC   C2B 1439  10.487   3.929   6.866
   74POPC   C3B 1440  10.258   4.131   6.584
   74POPC   C4B 1441  10.321   4.142   6.184
   75POPC   NC3 1442   4.910  10.343   8.194
   75POPC   PO4 1443   5.478  10.006   7.980
   75POPC   GL1 1444   5.323  10.280   7.652
   75POPC   GL2 1445   5.065  10.529   7.740
   75POPC   C1A 1446   5.198  10.265   7.199
   75POPC   D2A 1447   5.009  10.238   6.768
   75POPC   C3A 1448   4.958   9.938   6.393
   75POPC   C4A 1449   4.934   9.914   5.883
   75POPC   C1B 1450   4.756  10.493   7.363
   75POPC   C2B 1451   4.716  10.658   6.904
   75POPC   C3B 1452   4.868  10.595   6.443
   75POPC   C4B 1453   5.071  10.352   6.099
   76POPC   NC3 1454   7.665   8.260   7.998
   76POPC   PO4 1455   7.083   8.397   7.865
   76POPC   GL1 1456   7.284   8.551   7.521
   76POPC   GL2 1457   7.526   8.328   7.515
   76POPC   C1A 1458   7.256   8.566   7.070
   76POPC   D2A 1459   7.187   8.240   6.761
   76POPC   C3A 1460   7.064   8.334   6.363
   76POPC   C4A 1461   7.075   8.643   6.053
   76POPC   C1B 1462   7.340   8.056   7.223
   76POPC   C2B 1463   7.509   7.859   6.842
   76POPC   C3B 1464   7.392   7.909   6.383
   76POPC   C4B 1465   7.496   7.807   5.924
   77POPC   NC3 1466   2.382  11.133   8.396
   77POPC   PO4 1467   3.015  11.385   8.306
   77POPC   GL1 1468   2.792  11.418   7.796
   77POPC   GL2 1469   2.521  11.155   7.761
   77POPC   C1A 1470   2.790   0.008   7.343
   77POPC   D2A 1471   2.909  11.282   6.940
   77POPC   C3A 1472   2.723  11.410   6.537
   77POPC   C4A 1473   2.450  11.454   6.189
   77POPC   C1B 1474   2.666  11.015   7.363
   77POPC   C2B 1475   2.689  10.834   6.974
   77POPC   C3B 1476   2.789  10.912   6.560
   77POPC   C4B 1477   2.664  10.963   6.141
   78POPC   NC3 1478   7.814   0.615   8.028
   78POPC   PO4 1479   8.497   0.504   8.108
   78POPC   GL1 1480   8.272   0.550   7.745
   78POPC   GL2 1481   8.124   0.260   7.784
   78POPC   C1A 1482   8.387   0.496   7.333
   78POPC   D2A 1483   8.209   0.589   6.953
   78POPC   C3A 1484   8.434   0.471   6.585
   78POPC   C4A 1485   8.236   0.569   6.214
   78POPC   C1B 1486   7.878   0.391   7.410
   78POPC   C2B 1487   7.863   0.212   7.012
   78POPC   C3B 1488   7.853   0.427   6.601
   78POPC   C4B 1489   7.726   0.155   6.284
   79POPC   NC3 1490   2.042   0.489   8.004
   79POPC   PO4 1491   2.418  11.498   8.128
   79POPC   GL1 1492   2.156   0.021   7.761
   79POPC   GL2 1493   1.916   0.226   7.571
   79POPC   C1A 1494   2.257  11.401   7.350
   79POPC   D2A 1495   2.434  11.473   6.953
   79POPC   C3A 1496   2.187   0.106   6.602
   79POPC   C4A 1497   2.160   0.368   6.231
   79POPC   C1B 1498   1.887   0.346   7.127
   79POPC   C2B 1499   1.735   0.332   6.700
   79POPC   C3B 1500   1.712   0.611   6.341
   79POPC   C4B 1501   1.704   0.445   5.941
   80POPC   NC3 1502  10.822   3.371   8.388
   80POPC   PO4 1503  10.169   3.337   8.258
   80POPC   GL1 1504  10.327   3.344   7.755
   80POPC   GL2 1505  10.376   3.638   7.660
   80POPC   C1A 1506  10.636   3.086   7.457
   80POPC   D2A 1507  10.792   3.263   7.077
   80POPC   C3A 1508  10.811   3.112   6.657
   80POPC   C4A 1509  10.736   3.372   6.321
   80POPC   C1B 1510  10.321   3.428   7.245
   80POPC   C2B 1511  10.257   3.479   6.806
   80POPC   C3B 1512  10.282   3.637   6.383
   80POPC   C4B 1513  10.493   3.704   5.993
   81POPC   NC3 1514  10.790   6.712   7.882
   81POPC   PO4 1515  10.595   7.341   8.117
   81POPC   GL1 1516  10.444   7.174   7.725
   81POPC   GL2 1517  10.111   7.288   7.779
   81POPC   C1A 1518  10.454   7.193   7.246
   81POPC   D2A 1519  10.646   7.297   6.825
   81POPC   C3A 1520  10.414   7.158   6.460
   81POPC   C4A 1521  10.515   7.292   6.091
   81POPC   C1B 1522  10.317   7.621   7.492
   81POPC   C2B 1523  10.358   7.654   7.028
   81POPC   C3B 1524  10.352   7.669   6.571
   81POPC   C4B 1525  10.111   7.593   6.178
   82POPC   NC3 1526   0.523   9.922   7.903
   82POPC   PO4 1527   0.756   9.224   8.080
   82POPC   GL1 1528   0.665   9.466   7.734
   82POPC   GL2 1529   0.289   9.487   7.723
   82POPC   C1A 1530   0.843   9.444   7.326
   82POPC   D2A 1531   0.720   9.659   6.935
   82POPC   C3A 1532   0.543   9.573   6.521
   82POPC   C4A 1533   0.823   9.475   6.181
   82POPC   C1B 1534   0.342   9.568   7.298
   82POPC   C2B 1535   0.280   9.900   7.012
   82POPC   C3B 1536   0.007   9.972   6.691
   82POPC   C4B 1537   0.152   9.882   6.278
   83POPC   NC3 1538   3.304   1.977   7.995
   83POPC   PO4 1539   3.905   1.656   8.264
   83POPC   GL1 1540   3.629   1.612   7.764
   83POPC   GL2 1541   3.501   1.965   7.534
   83POPC   C1A 1542   3.345   1.541   7.366
   83POPC   D2A 1543   3.373   1.714   6.970
   83POPC   C3A 1544   3.470   1.555   6.603
   83POPC   C4A 1545   3.548   1.818   6.251
   83POPC   C1B 1546   3.379   2.201   7.157
   83POPC   C2B 1547   3.282   2.443   6.794
   83POPC   C3B 1548   3.409   2.322   6.396
   83POPC   C4B 1549   3.820   2.307   6.228
   84POPC   NC3 1550   6.652  10.701   7.988
   84POPC   PO4 1551   7.075  10.256   8.199
   84POPC   GL1 1552   6.878  10.294   7.759
   84POPC   GL2 1553   6.483  10.298   7.710
   84POPC   C1A 1554   6.802  10.513   7.349
   84POPC   D2A 1555   6.521  10.565   6.985
   84POPC   C3A 1556   6.589  10.475   6.542
   84POPC   C4A 1557   6.675  10.820   6.323
   84POPC   C1B 1558   6.496  10.123   7.271
   84POPC   C2B 1559   6.621  10.054   6.826
   84POPC   C3B 1560   6.476   9.972   6.382
   84POPC   C4B 1561   6.497   9.971   5.903
   85POPC   NC3 1562   9.695   2.688   7.979
   85POPC   PO4 1563   9.098   2.455   7.919
   85POPC   GL1 1564   9.265   2.793   7.652
   85POPC   GL2 1565   9.476   2.541   7.530
   85POPC   C1A 1566   9.358   3.073   7.260
   85POPC   D2A 1567   9.465   2.890   6.846
   85POPC   C3A 1568   9.488   3.002   6.417
   85POPC   C4A 1569   9.488   2.774   6.050
   85POPC   C1B 1570   9.732   2.752   7.247
   85POPC   C2B 1571   9.961   2.650   6.883
   85POPC   C3B 1572   9.952   2.707   6.448
   85POPC   C4B 1573   9.953   2.982   6.114
   86POPC   NC3 1574   0.187   9.142   8.084
   86POPC   PO4 1575   0.045   8.523   8.122
   86POPC   GL1 1576   0.255   8.689   7.731
   86POPC   GL2 1577   0.625   8.788   7.781
   86POPC   C1A 1578   0.468   8.604   7.304
   86POPC   D2A 1579   0.668   8.652   6.883
   86POPC   C3A 1580   0.362   8.788   6.574
   86POPC   C4A 1581   0.256   8.666   6.141
   86POPC   C1B 1582   0.478   9.086   7.449
   86POPC   C2B 1583   0.576   9.155   6.995
   86POPC   C3B 1584   0.766   9.116   6.573
   86POPC   C4B 1585   0.445   9.145   6.216
   87POPC   NC3 1586   6.278   2.406   8.135
   87POPC   PO4 1587   6.896   2.394   8.022
   87POPC   GL1 1588   6.765   2.256   7.631
   87POPC   GL2 1589   6.629   2.566   7.559
   87POPC   C1A 1590   6.726   2.252   7.157
   87POPC   D2A 1591   6.659   2.458   6.751
   87POPC   C3A 1592   6.583   2.329   6.334
   87POPC   C4A 1593   6.785   2.612   6.024
   87POPC   C1B 1594   6.447   2.705   7.149
   87POPC   C2B 1595   6.466   2.934   6.739
   87POPC   C3B 1596   6.381   2.796   6.318
   87POPC   C4B 1597   6.135   2.926   5.963
   88POPC   NC3 1598   5.853  10.276   7.868
   88POPC   PO4 1599   5.364  10.537   8.300
   88POPC   GL1 1600   5.550  10.709   7.829
   88POPC   GL2 1601   5.861  10.862   7.641
   88POPC   C1A 1602   5.590  10.593   7.317
   88POPC   D2A 1603   5.590  10.384   6.875
   88POPC   C3A 1604   5.376  10.520   6.469
   88POPC   C4A 1605   5.503  10.594   5.996
   88POPC   C1B 1606   6.124  10.572   7.333
   88POPC   C2B 1607   6.095  10.299   6.983
   88POPC   C3B 1608   6.062  10.397   6.579
   88POPC   C4B 1609   5.768  10.279   6.284
   89POPC   NC3 1610   1.165   1.908   7.970
   89POPC   PO4 1611   1.590   2.307   8.334
   89POPC   GL1 1612   1.629   2.055   7.828
   89POPC   GL2 1613   1.460   1.751   7.591
   89POPC   C1A 1614   1.493   2.179   7.363
   89POPC   D2A 1615   1.262   2.197   6.999
   89POPC   C3A 1616   1.465   2.211   6.614
   89POPC   C4A 1617   1.154   2.316   6.328
   89POPC   C1B 1618   1.122   1.739   7.293
   89POPC   C2B 1619   0.954   1.771   6.897
   89POPC   C3B 1620   1.167   1.825   6.542
   89POPC   C4B 1621   1.290   1.587   6.228
   90POPC   NC3 1622   6.113   0.721   8.006
   90POPC   PO4 1623   6.862   0.639   7.977
   90POPC   GL1 1624   6.761   0.534   7.575
   90POPC   GL2 1625   6.896   0.240   7.461
   90POPC   C1A 1626   6.690   0.636   7.142
   90POPC   D2A 1627   6.626   0.428   6.777
   90POPC   C3A 1628   6.858   0.594   6.462
   90POPC   C4A 1629   6.733   0.790   6.052
   90POPC   C1B 1630   6.482   0.181   7.262
   90POPC   C2B 1631   6.370  11.476   6.883
   90POPC   C3B 1632   6.201   0.210   6.555
   90POPC   C4B 1633   6.400   0.490   6.286
   91POPC   NC3 1634   4.213   2.092   8.320
   91POPC   PO4 1635   3.757   2.053   7.947
   91POPC   GL1 1636   4.007   1.996   7.591
   91POPC   GL2 1637   4.110   1.669   7.543
   91POPC   C1A 1638   3.829   1.901   7.162
   91POPC   D2A 1639   3.726   2.013   6.720
   91POPC   C3A 1640   4.069   1.920   6.419
   91POPC   C4A 1641   4.300   2.163   6.064
   91POPC   C1B 1642   4.345   1.858   7.201
   91POPC   C2B 1643   4.430   1.761   6.771
   91POPC   C3B 1644   4.565   1.812   6.337
   91POPC   C4B 1645   4.556   1.737   5.888
   92POPC   NC3 1646   7.543  11.163   7.891
   92POPC   PO4 1647   6.827  11.162   7.963
   92POPC   GL1 1648   6.959  10.944   7.579
   92POPC   GL2 1649   7.262  11.142   7.478
   92POPC   C1A 1650   7.066  10.873   7.106
   92POPC   D2A 1651   7.243  11.120   6.791
   92POPC   C3A 1652   7.054  11.139   6.415
   92POPC   C4A 1653   7.064  10.868   6.003
   92POPC   C1B 1654   7.600  11.147   7.161
   92POPC   C2B 1655   7.794  11.189   6.769
   92POPC   C3B 1656   7.608  11.134   6.374
   92POPC   C4B 1657   7.348  11.315   6.046
   93POPC   NC3 1658   0.448  10.477   8.140
   93POPC   PO4 1659   0.069   9.931   7.912
   93POPC   GL1 1660   0.206  10.026   7.507
   93POPC   GL2 1661   0.426  10.324   7.593
   93POPC   C1A 1662   0.101  10.340   7.187
   93POPC   D2A 1663   0.171  10.588   6.822
   93POPC   C3A 1664   0.257  10.360   6.470
   93POPC   C4A 1665   0.634  10.081   6.506
   93POPC   C1B 1666   0.551  10.595   7.233
   93POPC   C2B 1667   0.808  10.748   6.912
   93POPC   C3B 1668   0.720  10.616   6.531
   93POPC   C4B 1669   0.533  10.629   6.142
   94POPC   NC3 1670   4.564   0.549   8.128
   94POPC   PO4 1671   4.077   0.141   7.860
   94POPC   GL1 1672   4.302   0.370   7.556
   94POPC   GL2 1673   4.623   0.303   7.687
   94POPC   C1A 1674   4.169   0.439   7.099
   94POPC   D2A 1675   3.855   0.302   6.736
   94POPC   C3A 1676   4.006   0.444   6.296
   94POPC   C4A 1677   4.369   0.714   6.165
   94POPC   C1B 1678   4.663   0.165   7.258
   94POPC   C2B 1679   4.613   0.236   6.812
   94POPC   C3B 1680   4.485   0.199   6.390
   94POPC   C4B 1681   4.392  11.349   6.104
   95POPC   NC3 1682   7.108   1.998   7.941
   95POPC   PO4 1683   7.737   2.133   8.190
   95POPC   GL1 1684   7.568   2.136   7.696
   95POPC   GL2 1685   7.419   1.806   7.549
   95POPC   C1A 1686   7.584   2.143   7.194
   95POPC   D2A 1687   7.428   1.953   6.785
   95POPC   C3A 1688   7.508   2.125   6.375
   95POPC   C4A 1689   7.449   2.005   5.952
   95POPC   C1B 1690   7.110   1.914   7.186
   95POPC   C2B 1691   6.920   1.995   6.723
   95POPC   C3B 1692   6.998   2.033   6.250
   95POPC   C4B 1693   6.739   2.120   5.887
   96POPC   NC3 1694  11.254   4.475   8.139
   96POPC   PO4 1695  11.063   3.776   8.351
   96POPC   GL1 1696  11.128   3.881   7.847
   96POPC   GL2 1697  11.156   4.176   7.749
   96POPC   C1A 1698  11.360   3.886   7.378
   96POPC   D2A 1699  11.230   4.069   6.916
   96POPC   C3A 1700  11.242   3.969   6.442
   96POPC   C4A 1701  10.945   4.209   6.131
   96POPC   C1B 1702  11.274   4.387   7.344
   96POPC   C2B 1703  11.168   4.592   6.950
   96POPC   C3B 1704  11.130   4.450   6.544
   96POPC   C4B 1705  11.400   4.439   6.180
   97POPC   NC3 1706   8.044   1.738   8.140
   97POPC   PO4 1707   8.542   2.187   8.101
   97POPC   GL1 1708   8.528   1.846   7.783
   97POPC   GL2 1709   8.233   1.639   7.683
   97POPC   C1A 1710   8.531   1.812   7.328
   97POPC   D2A 1711   8.270   1.922   6.971
   97POPC   C3A 1712   8.427   1.879   6.532
   97POPC   C4A 1713   8.290   1.630   6.206
   97POPC   C1B 1714   7.940   1.829   7.417
   97POPC   C2B 1715   7.801   1.685   7.015
   97POPC   C3B 1716   7.897   1.830   6.593
   97POPC   C4B 1717   8.056   2.085   6.240
   98POPC   NC3 1718  11.038   5.895   8.210
   98POPC   PO4 1719   0.106   6.025   7.851
   98POPC   GL1 1720  11.302   5.881   7.586
   98POPC   GL2 1721  11.118   5.642   7.743
   98POPC   C1A 1722  11.323   5.763   7.151
   98POPC   D2A 1723  11.183   5.547   6.768
   98POPC   C3A 1724  11.230   5.762   6.382
   98POPC   C4A 1725  11.028   5.993   6.046
   98POPC   C1B 1726  10.928   5.488   7.350
   98POPC   C2B 1727  10.708   5.513   6.961
   98POPC   C3B 1728  10.733   5.392   6.537
   98POPC   C4B 1729  10.811   5.561   6.139
   99POPC   NC3 1730   1.529   6.475   8.284
   99POPC   PO4 1731   0.925   6.300   8.004
   99POPC   GL1 1732   1.172   6.379   7.672
   99POPC   GL2 1733   1.252   6.714   7.749
   99POPC   C1A 1734   1.150   6.247   7.249
   99POPC   D2A 1735   1.307   6.090   6.838
   99POPC   C3A 1736   1.181   6.256   6.427
   99POPC   C4A 1737   1.477   6.386   6.111
   99POPC   C1B 1738   0.991   6.721   7.334
   99POPC   C2B 1739   1.145   6.625   6.892
   99POPC   C3B 1740   1.286   6.764   6.466
   99POPC   C4B 1741   1.071   6.695   6.090
  100POPC   NC3 1742   1.358   4.379   8.061
  100POPC   PO4 1743   0.722   4.607   8.131
  100POPC   GL1 1744   0.918   4.411   7.709
  100POPC   GL2 1745   1.261   4.181   7.607
  100POPC   C1A 1746   0.844   4.144   7.335
  100POPC   D2A 1747   1.113   4.063   6.965
  100POPC   C3A 1748   0.868   4.214   6.597
  100POPC   C4A 1749   0.982   4.133   6.172
  100POPC   C1B 1750   1.295   4.447   7.267
  100POPC   C2B 1751   1.207   4.542   6.837
  100POPC   C3B 1752   1.336   4.362   6.457
  100POPC   C4B 1753   1.402   4.532   6.075
  101POPC   NC3 1754   7.174   9.823   8.124
  101POPC   PO4 1755   7.316   9.276   7.936
  101POPC   GL1 1756   7.552   9.434   7.618
  101POPC   GL2 1757   7.488   9.760   7.694
  101POPC   C1A 1758   7.453   9.519   7.156
  101POPC   D2A 1759   7.540   9.434   6.731
  101POPC   C3A 1760   7.296   9.664   6.423
  101POPC   C4A 1761   7.078   9.474   6.092
  101POPC   C1B 1762   7.217   9.933   7.346
  101POPC   C2B 1763   7.145   9.935   6.861
  101POPC   C3B 1764   6.996  10.098   6.424
  101POPC   C4B 1765   7.018   9.966   5.958
  102POPC   NC3 1766   2.112   8.556   8.015
  102POPC   PO4 1767   1.454   8.509   8.120
  102POPC   GL1 1768   1.649   8.516   7.741
  102POPC   GL2 1769   1.738   8.861   7.796
  102POPC   C1A 1770   1.519   8.696   7.344
  102POPC   D2A 1771   1.651   8.911   6.943
  102POPC   C3A 1772   1.636   8.728   6.514
  102POPC   C4A 1773   1.751   8.455   6.145
  102POPC   C1B 1774   2.010   8.807   7.438
  102POPC   C2B 1775   2.146   8.872   7.056
  102POPC   C3B 1776   2.126   8.892   6.653
  102POPC   C4B 1777   2.121   8.827   6.244
  103POPC   NC3 1778   2.982   6.510   8.085
  103POPC   PO4 1779   2.471   5.995   8.140
  103POPC   GL1 1780   2.458   6.167   7.677
  103POPC   GL2 1781   2.658   6.439   7.672
  103POPC   C1A 1782   2.484   6.162   7.211
  103POPC   D2A 1783   2.465   6.082   6.759
  103POPC   C3A 1784   2.864   6.235   6.506
  103POPC   C4A 1785   2.946   6.403   6.104
  103POPC   C1B 1786   2.611   6.653   7.265
  103POPC   C2B 1787   2.632   6.538   6.845
  103POPC   C3B 1788   2.613   6.655   6.413
  103POPC   C4B 1789   2.811   6.911   6.089
  104POPC   NC3 1790   7.698   1.384   8.465
  104POPC   PO4 1791   7.177   1.532   7.970
  104POPC   GL1 1792   7.296   1.293   7.599
  104POPC   GL2 1793   7.470   0.979   7.728
  104POPC   C1A 1794   7.346   1.447   7.144
  104POPC   D2A 1795   7.482   1.442   6.682
  104POPC   C3A 1796   7.295   1.606   6.260
  104POPC   C4A 1797   7.437   1.490   5.800
  104POPC   C1B 1798   7.554   0.980   7.280
  104POPC   C2B 1799   7.255   0.977   6.938
  104POPC   C3B 1800   7.113   1.076   6.528
  104POPC   C4B 1801   7.488   1.137   6.260
  105POPC   NC3 1802   3.688  10.382   8.268
  105POPC   PO4 1803   3.107  10.143   8.091
  105POPC   GL1 1804   3.318  10.235   7.744
  105POPC   GL2 1805   3.386  10.584   7.821
  105POPC   C1A 1806   3.280  10.060   7.328
  105POPC   D2A 1807   3.397  10.242   6.946
  105POPC   C3A 1808   3.238  10.089   6.550
  105POPC   C4A 1809   3.501  10.162   6.236
  105POPC   C1B 1810   3.565  10.514   7.389
  105POPC   C2B 1811   3.777  10.565   6.999
  105POPC   C3B 1812   3.614  10.634   6.569
  105POPC   C4B 1813   3.843  10.564   6.190
  106POPC   NC3 1814   0.651   6.693   7.984
  106POPC   PO4 1815   0.290   6.296   8.353
  106POPC   GL1 1816   0.212   6.514   7.864
  106POPC   GL2 1817   0.484   6.333   7.657
  106POPC   C1A 1818   0.179   6.618   7.373
  106POPC   D2A 1819   0.154   6.430   6.940
  106POPC   C3A 1820   0.238   6.633   6.534
  106POPC   C4A 1821   0.265   6.620   6.090
  106POPC   C1B 1822   0.613   6.390   7.221
  106POPC   C2B 1823   0.615   6.726   6.911
  106POPC   C3B 1824   0.782   6.677   6.518
  106POPC   C4B 1825   0.689   6.355   6.244
  107POPC   NC3 1826   5.850  10.553   8.327
  107POPC   PO4 1827   5.610  11.219   8.115
  107POPC   GL1 1828   5.455  11.200   7.672
  107POPC   GL2 1829   5.727  11.361   7.603
  107POPC   C1A 1830   5.563  11.108   7.215
  107POPC   D2A 1831   5.909  10.916   7.015
  107POPC   C3A 1832   5.756  10.810   6.633
  107POPC   C4A 1833   5.651  10.995   6.257
  107POPC   C1B 1834   6.020  11.380   7.292
  107POPC   C2B 1835   5.864  11.428   6.907
  107POPC   C3B 1836   5.961  11.266   6.558
  107POPC   C4B 1837   5.927  11.451   6.196
  108POPC   NC3 1838   9.975   3.648   7.980
  108POPC   PO4 1839   9.899   3.053   7.825
  108POPC   GL1 1840   9.874   3.254   7.479
  108POPC   GL2 1841   9.883   3.594   7.467
  108POPC   C1A 1842   9.856   3.229   7.065
  108POPC   D2A 1843   9.892   3.133   6.695
  108POPC   C3A 1844   9.818   3.419   6.370
  108POPC   C4A 1845   9.628   3.384   5.971
  108POPC   C1B 1846   9.501   3.563   7.181
  108POPC   C2B 1847   9.435   3.397   6.747
  108POPC   C3B 1848   9.303   3.584   6.332
  108POPC   C4B 1849   9.465   3.868   5.991
  109POPC   NC3 1850   2.033   4.589   8.074
  109POPC   PO4 1851   2.026   3.980   8.155
  109POPC   GL1 1852   1.780   4.142   7.798
  109POPC   GL2 1853   2.103   4.158   7.651
  109POPC   C1A 1854   1.705   4.129   7.320
  109POPC   D2A 1855   1.609   4.193   6.857
  109POPC   C3A 1856   1.841   4.408   6.493
  109POPC   C4A 1857   1.908   4.738   6.154
  109POPC   C1B 1858   2.174   3.891   7.277
  109POPC   C2B 1859   2.116   4.025   6.843
  109POPC   C3B 1860   2.275   4.121   6.402
  109POPC   C4B 1861   1.990   4.161   6.050
  110POPC   NC3 1862  10.162   8.417   8.079
  110POPC   PO4 1863  10.346   9.105   8.199
  110POPC   GL1 1864  10.253   8.842   7.806
  110POPC   GL2 1865  10.544   8.627   7.732
  110POPC   C1A 1866  10.175   8.551   7.409
  110POPC   D2A 1867  10.408   8.555   6.999
  110POPC   C3A 1868  10.247   8.586   6.576
  110POPC   C4A 1869  10.287   8.762   6.162
  110POPC   C1B 1870  10.569   8.870   7.375
  110POPC   C2B 1871  10.748   8.998   7.017
  110POPC   C3B 1872  10.670   8.896   6.605
  110POPC   C4B 1873  10.723   9.034   6.207
  111POPC   NC3 1874   0.459   0.562   8.148
  111POPC   PO4 1875   0.298  11.409   8.120
  111POPC   GL1 1876   0.505   0.070   7.723
  111POPC   GL2 1877   0.476   0.446   7.608
  111POPC   C1A 1878   0.450   0.022   7.262
  111POPC   D2A 1879   0.383   0.271   6.872
  111POPC   C3A 1880   0.368   0.063   6.431
  111POPC   C4A 1881   0.472   0.140   5.963
  111POPC   C1B 1882   0.319   0.764   7.260
  111POPC   C2B 1883   0.362   0.811   6.802
  111POPC   C3B 1884   0.550   0.589   6.491
  111POPC   C4B 1885   0.834   0.499   6.190
  112POPC   NC3 1886  10.603   9.563   8.045
  112POPC   PO4 1887   9.934   9.784   8.240
  112POPC   GL1 1888  10.172   9.738   7.854
  112POPC   GL2 1889  10.290   9.361   7.719
  112POPC   C1A 1890  10.186   9.772   7.420
  112POPC   D2A 1891  10.007   9.633   7.042
  112POPC   C3A 1892  10.174   9.646   6.638
  112POPC   C4A 1893   9.999   9.677   6.199
  112POPC   C1B 1894  10.381   9.327   7.258
  112POPC   C2B 1895  10.231   9.155   6.858
  112POPC   C3B 1896  10.318   9.229   6.419
  112POPC   C4B 1897  10.451   9.483   6.049
  113POPC   NC3 1898   9.556  10.005   8.408
  113POPC   PO4 1899   9.269   9.582   8.001
  113POPC   GL1 1900   9.642   9.681   7.804
  113POPC   GL2 1901   9.796   9.429   7.676
  113POPC   C1A 1902   9.646   9.831   7.364
  113POPC   D2A 1903   9.496   9.718   6.951
  113POPC   C3A 1904   9.734   9.901   6.603
  113POPC   C4A 1905   9.541   9.914   6.193
  113POPC   C1B 1906   9.547   9.339   7.367
  113POPC   C2B 1907   9.706   9.248   6.989
  113POPC   C3B 1908   9.730   9.394   6.605
  113POPC   C4B 1909   9.574   9.361   6.225
  114POPC   NC3 1910  10.184  10.296   8.142
  114POPC   PO4 1911  10.840  10.115   8.280
  114POPC   GL1 1912  10.607  10.396   7.853
  114POPC   GL2 1913  10.333  10.237   7.658
  114POPC   C1A 1914  10.703  10.422   7.359
  114POPC   D2A 1915  10.496  10.476   6.952
  114POPC   C3A 1916  10.675  10.546   6.547
  114POPC   C4A 1917  10.744  10.216   6.277
  114POPC   C1B 1918  10.224  10.610   7.391
  114POPC   C2B 1919  10.049  10.725   6.971
  114POPC   C3B 1920  10.168  10.602   6.540
  114POPC   C4B 1921  10.349  10.478   6.108
  115POPC   NC3 1922  10.652   7.818   8.028
  115POPC   PO4 1923   9.977   7.972   8.034
  115POPC   GL1 1924  10.122   8.067   7.651
  115POPC   GL2 1925  10.452   8.128   7.669
  115POPC   C1A 1926  10.196   8.082   7.226
  115POPC   D2A 1927   9.999   8.264   6.915
  115POPC   C3A 1928  10.071   8.094   6.535
  115POPC   C4A 1929  10.080   8.294   6.165
  115POPC   C1B 1930  10.687   7.939   7.319
  115POPC   C2B 1931  10.605   8.081   6.888
  115POPC   C3B 1932  10.561   8.187   6.461
  115POPC   C4B 1933  10.520   7.893   6.130
  116POPC   NC3 1934  11.464   7.419   7.948
  116POPC   PO4 1935   0.628   7.148   7.949
  116POPC   GL1 1936   0.382   7.351   7.657
  116POPC   GL2 1937   0.170   7.040   7.660
  116POPC   C1A 1938   0.325   7.590   7.246
  116POPC   D2A 1939   0.066   7.583   6.842
  116POPC   C3A 1940   0.312   7.579   6.445
  116POPC   C4A 1941   0.655   7.440   6.168
  116POPC   C1B 1942   0.462   7.055   7.273
  116POPC   C2B 1943   0.493   7.271   6.866
  116POPC   C3B 1944   0.488   7.082   6.486
  116POPC   C4B 1945   0.660   6.955   6.085
  117POPC   NC3 1946   8.500   9.815   8.149
  117POPC   PO4 1947   7.850   9.635   8.316
  117POPC   GL1 1948   8.095   9.614   7.889
  117POPC   GL2 1949   7.987   9.898   7.753
  117POPC   C1A 1950   8.361   9.669   7.453
  117POPC   D2A 1951   8.466   9.718   6.959
  117POPC   C3A 1952   8.269   9.527   6.553
  117POPC   C4A 1953   8.181   9.690   6.175
  117POPC   C1B 1954   7.878   9.713   7.345
  117POPC   C2B 1955   7.950   9.726   6.899
  117POPC   C3B 1956   7.790   9.818   6.484
  117POPC   C4B 1957   7.734   9.436   6.236
  118POPC   NC3 1958   3.601   0.413   7.931
  118POPC   PO4 1959   3.785   1.054   7.976
  118POPC   GL1 1960   3.825   0.731   7.615
  118POPC   GL2 1961   3.803   0.370   7.473
  118POPC   C1A 1962   3.572   0.736   7.217
  118POPC   D2A 1963   3.323   0.583   6.864
  118POPC   C3A 1964   3.572   0.711   6.514
  118POPC   C4A 1965   3.628   0.736   6.042
  118POPC   C1B 1966   3.445   0.237   7.234
  118POPC   C2B 1967   3.387  11.443   6.926
  118POPC   C3B 1968   3.236   0.008   6.515
  118POPC   C4B 1969   3.353   0.354   6.247
  119POPC   NC3 1970  11.278   2.313   8.193
  119POPC   PO4 1971  10.723   2.648   8.221
  119POPC   GL1 1972  10.914   2.516   7.830
  119POPC   GL2 1973  11.264   2.673   7.846
  119POPC   C1A 1974  10.992   2.687   7.415
  119POPC   D2A 1975  10.834   2.753   7.029
  119POPC   C3A 1976  10.910   2.408   6.780
  119POPC   C4A 1977  10.924   2.400   6.321
  119POPC   C1B 1978  11.489   2.719   7.468
  119POPC   C2B 1979  11.380   2.718   7.030
  119POPC   C3B 1980  11.214   2.789   6.642
  119POPC   C4B 1981  11.429   2.724   6.294
  120POPC   NC3 1982   8.068  11.402   8.163
  120POPC   PO4 1983   7.756  10.888   8.209
  120POPC   GL1 1984   8.031  11.156   7.737
  120POPC   GL2 1985   7.833  11.390   7.544
  120POPC   C1A 1986   8.116  11.024   7.256
  120POPC   D2A 1987   8.301  11.122   6.846
  120POPC   C3A 1988   8.157  11.067   6.392
  120POPC   C4A 1989   8.000  10.806   6.054
  120POPC   C1B 1990   8.231   0.007   7.370
  120POPC   C2B 1991   8.395   0.111   6.981
  120POPC   C3B 1992   8.167   0.040   6.607
  120POPC   C4B 1993   8.250   0.048   6.201
  121POPC   NC3 1994   6.009   1.545   8.106
  121POPC   PO4 1995   5.346   1.573   8.098
  121POPC   GL1 1996   5.682   1.410   7.745
  121POPC   GL2 1997   5.910   1.096   7.704
  121POPC   C1A 1998   5.935   1.426   7.342
  121POPC   D2A 1999   5.789   1.343   6.934
  121POPC   C3A 2000   5.967   1.326   6.518
  121POPC   C4A 2001   5.745   1.308   6.093
  121POPC   C1B 2002   5.859   0.920   7.248
  121POPC   C2B 2003   5.601   0.880   6.866
  121POPC   C3B 2004   5.669   0.935   6.424
  121POPC   C4B 2005   6.095   0.964   6.165
  122POPC   NC3 2006  10.727   1.515   7.928
  122POPC   PO4 2007  11.332   1.865   8.099
  122POPC   GL1 2008  11.311   2.138   7.718
  122POPC   GL2 2009  11.207   1.826   7.564
  122POPC   C1A 2010  11.304   2.271   7.284
  122POPC   D2A 2011  11.476   2.133   6.913
  122POPC   C3A 2012  11.384   2.301   6.570
  122POPC   C4A 2013  11.374   2.237   6.157
  122POPC   C1B 2014  11.131   1.800   7.113
  122POPC   C2B 2015  11.034   1.929   6.688
  122POPC   C3B 2016  10.996   1.829   6.259
  122POPC   C4B 2017  10.906   1.640   5.840
  123POPC   NC3 2018   1.287   3.479   8.044
  123POPC   PO4 2019   1.035   4.052   8.037
  123POPC   GL1 2020   0.974   3.744   7.697
  123POPC   GL2 2021   1.323   3.633   7.556
  123POPC   C1A 2022   0.898   3.557   7.292
  123POPC   D2A 2023   1.135   3.539   6.912
  123POPC   C3A 2024   0.996   3.706   6.530
  123POPC   C4A 2025   1.137   3.650   6.119
  123POPC   C1B 2026   1.379   3.251   7.268
  123POPC   C2B 2027   1.504   3.192   6.801
  123POPC   C3B 2028   1.250   3.244   6.414
  123POPC   C4B 2029   1.330   3.200   5.926
  124POPC   NC3 2030   9.276  10.034   7.895
  124POPC   PO4 2031   9.751  10.413   8.279
  124POPC   GL1 2032   9.831  10.476   7.782
  124POPC   GL2 2033   9.834  10.143   7.729
  124POPC   C1A 2034   9.639  10.574   7.330
  124POPC   D2A 2035   9.556  10.231   6.982
  124POPC   C3A 2036   9.400  10.273   6.540
  124POPC   C4A 2037   9.349  10.659   6.359
  124POPC   C1B 2038   9.974  10.201   7.281
  124POPC   C2B 2039  10.154  10.102   6.888
  124POPC   C3B 2040  10.252  10.106   6.455
  124POPC   C4B 2041   9.914  10.257   6.234
  125POPC   NC3 2042  11.020   0.610   7.978
  125POPC   PO4 2043   0.123   0.881   8.078
  125POPC   GL1 2044  11.498   0.555   7.740
  125POPC   GL2 2045  11.303   0.227   7.750
  125POPC   C1A 2046   0.041   0.348   7.309
  125POPC   D2A 2047  11.421   0.564   6.928
  125POPC   C3A 2048   0.050   0.473   6.517
  125POPC   C4A 2049  11.482   0.243   6.146
  125POPC   C1B 2050  11.037   0.301   7.371
  125POPC   C2B 2051  10.930   0.303   6.940
  125POPC   C3B 2052  11.071   0.277   6.521
  125POPC   C4B 2053  11.078   0.549   6.198
  126POPC   NC3 2054   0.518   6.031   8.065
  126POPC   PO4 2055  11.448   5.652   8.230
  126POPC   GL1 2056   0.124   5.516   7.749
  126POPC   GL2 2057   0.473   5.641   7.725
  126POPC   C1A 2058   0.295   5.588   7.279
  126POPC   D2A 2059   0.312   5.892   6.975
  126POPC   C3A 2060   0.196   5.655   6.622
  126POPC   C4A 2061   0.406   5.574   6.257
  126POPC   C1B 2062   0.700   5.917   7.423
  126POPC   C2B 2063   0.832   5.944   6.997
  126POPC   C3B 2064   0.767   5.893   6.560
  126POPC   C4B 2065   0.823   5.872   6.128
  127POPC   NC3 2066  10.370   5.990   8.036
  127POPC   PO4 2067  10.906   6.355   8.180
  127POPC   GL1 2068  10.838   6.073   7.772
  127POPC   GL2 2069  10.612   5.766   7.667
  127POPC   C1A 2070  10.882   5.998   7.322
  127POPC   D2A 2071  10.947   5.976   6.883
  127POPC   C3A 2072  10.749   5.900   6.512
  127POPC   C4A 2073  10.586   6.214   6.213
  127POPC   C1B 2074  10.426   5.808   7.264
  127POPC   C2B 2075  10.355   5.888   6.855
  127POPC   C3B 2076  10.195   6.012   6.503
  127POPC   C4B 2077  10.344   5.764   6.246
  128POPC   NC3 2078   2.083   6.311   7.986
  128POPC   PO4 2079   1.759   6.841   8.117
  128POPC   GL1 2080   1.767   6.713   7.660
  128POPC   GL2 2081   1.684   6.397   7.668
  128POPC   C1A 2082   1.596   6.594   7.201
  128POPC   D2A 2083   1.632   6.493   6.730
  128POPC   C3A 2084   1.807   6.790   6.415
  128POPC   C4A 2085   2.226   6.940   6.285
  128POPC   C1B 2086   2.032   6.337   7.364
  128POPC   C2B 2087   2.142   6.472   6.983
  128POPC   C3B 2088   2.153   6.435   6.550
  128POPC   C4B 2089   1.990   6.389   6.136
  129POPC   NC3 2090  10.349   2.964   8.052
  129POPC   PO4 2091  10.027   2.360   8.098
  129POPC   GL1 2092  10.291   2.542   7.806
  129POPC   GL2 2093  10.048   2.617   7.601
  129POPC   C1A 2094  10.514   2.543   7.401
  129POPC   D2A 2095  10.426   2.415   6.967
  129POPC   C3A 2096  10.486   2.616   6.541
  129POPC   C4A 2097  10.292   2.528   6.122
  129POPC   C1B 2098  10.204   2.912   7.272
  129POPC   C2B 2099  10.370   2.985   6.894
  129POPC   C3B 2100  10.326   3.102   6.455
  129POPC   C4B 2101  10.489   3.008   6.066
  130POPC   NC3 2102   4.353  10.511   7.964
  130POPC   PO4 2103   3.823  10.809   8.180
  130POPC   GL1 2104   3.898  10.655   7.774
  130POPC   GL2 2105   3.852  10.302   7.763
  130POPC   C1A 2106   3.960  10.875   7.386
  130POPC   D2A 2107   4.248  10.899   7.033
  130POPC   C3A 2108   4.130  10.720   6.650
  130POPC   C4A 2109   4.360  10.665   6.283
  130POPC   C1B 2110   4.110  10.385   7.373
  130POPC   C2B 2111   4.248  10.317   6.956
  130POPC   C3B 2112   4.497  10.296   6.595
  130POPC   C4B 2113   4.581  10.197   6.165
  131POPC   NC3 2114   0.982   4.992   8.112
  131POPC   PO4 2115   1.613   4.767   8.034
  131POPC   GL1 2116   1.246   4.806   7.659
  131POPC   GL2 2117   0.994   5.084   7.626
  131POPC   C1A 2118   0.988   4.838   7.205
  131POPC   D2A 2119   0.893   4.964   6.783
  131POPC   C3A 2120   0.969   4.728   6.416
  131POPC   C4A 2121   1.130   4.956   6.119
  131POPC   C1B 2122   1.300   5.215   7.297
  131POPC   C2B 2123   1.398   5.012   6.909
  131POPC   C3B 2124   1.483   4.873   6.492
  131POPC   C4B 2125   1.493   5.257   6.284
  132POPC   NC3 2126   5.358   2.024   8.050
  132POPC   PO4 2127   6.003   2.034   8.116
  132POPC   GL1 2128   5.939   1.863   7.680
  132POPC   GL2 2129   5.593   1.896   7.618
  132POPC   C1A 2130   5.879   1.902   7.192
  132POPC   D2A 2131   5.932   1.799   6.745
  132POPC   C3A 2132   6.117   2.118   6.474
  132POPC   C4A 2133   6.007   2.465   6.207
  132POPC   C1B 2134   5.432   1.594   7.322
  132POPC   C2B 2135   5.293   1.428   6.909
  132POPC   C3B 2136   5.478   1.504   6.485
  132POPC   C4B 2137   5.805   1.784   6.229
  133POPC   NC3 2138  11.492  11.244   7.812
  133POPC   PO4 2139   0.185  10.843   8.304
  133POPC   GL1 2140   0.219  10.790   7.773
  133POPC   GL2 2141   0.427  11.057   7.604
  133POPC   C1A 2142   0.098  10.862   7.278
  133POPC   D2A 2143  11.476  11.051   6.842
  133POPC   C3A 2144   0.180  10.917   6.404
  133POPC   C4A 2145   0.148  10.800   5.888
  133POPC   C1B 2146   0.758  11.089   7.297
  133POPC   C2B 2147   0.805  11.284   6.913
  133POPC   C3B 2148   0.645  11.128   6.525
  133POPC   C4B 2149   0.499  11.147   6.076
  134POPC   NC3 2150   2.278   3.599   8.094
  134POPC   PO4 2151   1.670   3.241   7.986
  134POPC   GL1 2152   1.895   3.297   7.600
  134POPC   GL2 2153   1.929   3.654   7.661
  134POPC   C1A 2154   1.850   3.086   7.174
  134POPC   D2A 2155   2.004   3.002   6.761
  134POPC   C3A 2156   1.908   3.353   6.487
  134POPC   C4A 2157   1.632   3.510   6.173
  134POPC   C1B 2158   1.728   3.618   7.237
  134POPC   C2B 2159   1.636   3.688   6.801
  134POPC   C3B 2160   1.832   3.872   6.449
  134POPC   C4B 2161   2.142   3.683   6.141
  135POPC   NC3 2162   1.609   2.872   8.247
  135POPC   PO4 2163   2.191   2.430   8.050
  135POPC   GL1 2164   1.941   2.468   7.742
  135POPC   GL2 2165   1.871   2.811   7.795
  135POPC   C1A 2166   1.805   2.571   7.334
  135POPC   D2A 2167   1.824   2.317   6.966
  135POPC   C3A 2168   1.827   2.547   6.571
  135POPC   C4A 2169   1.617   2.476   6.174
  135POPC   C1B 2170   2.187   2.864   7.476
  135POPC   C2B 2171   2.263   2.563   7.093
  135POPC   C3B 2172   2.324   2.534   6.627
  135POPC   C4B 2173   2.164   2.818   6.300
  136POPC   NC3 2174   2.714   9.041   8.033
  136POPC   PO4 2175   2.507   8.475   7.809
  136POPC   GL1 2176   2.463   8.903   7.626
  136POPC   GL2 2177   2.798   9.038   7.525
  136POPC   C1A 2178   2.366   9.235   7.309
  136POPC   D2A 2179   2.456   9.275   6.837
  136POPC   C3A 2180   2.551   9.072   6.412
  136POPC   C4A 2181   2.570   8.864   5.959
  136POPC   C1B 2182   2.634   8.806   7.148
  136POPC   C2B 2183   2.550   8.617   6.721
  136POPC   C3B 2184   2.833   8.655   6.357
  136POPC   C4B 2185   3.045   9.060   6.220
  137POPC   NC3 2186   1.997   2.035   8.224
  137POPC   PO4 2187   1.517   1.565   8.045
  137POPC   GL1 2188   1.922   1.659   7.799
  137POPC   GL2 2189   2.183   1.953   7.765
  137POPC   C1A 2190   1.888   1.593   7.367
  137POPC   D2A 2191   1.585   1.789   7.033
  137POPC   C3A 2192   1.682   1.707   6.580
  137POPC   C4A 2193   1.734   1.968   6.200
  137POPC   C1B 2194   1.998   2.083   7.391
  137POPC   C2B 2195   2.075   1.863   6.983
  137POPC   C3B 2196   2.049   2.072   6.583
  137POPC   C4B 2197   2.132   2.299   6.200
  138POPC   NC3 2198   1.774  11.093   8.358
  138POPC   PO4 2199   1.695   0.172   8.032
  138POPC   GL1 2200   1.690  11.267   7.794
  138POPC   GL2 2201   1.998  11.045   7.885
  138POPC   C1A 2202   1.702  11.170   7.336
  138POPC   D2A 2203   1.924  11.326   6.963
  138POPC   C3A 2204   1.789  11.240   6.548
  138POPC   C4A 2205   1.747   0.047   6.253
  138POPC   C1B 2206   2.146  10.904   7.484
  138POPC   C2B 2207   2.193  10.881   7.038
  138POPC   C3B 2208   2.296  11.080   6.639
  138POPC   C4B 2209   2.158  11.049   6.216
  139POPC   NC3 2210   4.485  11.464   8.062
  139POPC   PO4 2211   4.729  10.764   8.079
  139POPC   GL1 2212   4.475  10.961   7.732
  139POPC   GL2 2213   4.142  11.125   7.797
  139POPC   C1A 2214   4.662  10.990   7.317
  139POPC   D2A 2215   4.679  11.234   6.965
  139POPC   C3A 2216   4.535  11.051   6.604
  139POPC   C4A 2217   4.737  11.024   6.246
  139POPC   C1B 2218   4.289  11.306   7.379
  139POPC   C2B 2219   4.201  11.440   6.974
  139POPC   C3B 2220   4.138  11.366   6.565
  139POPC   C4B 2221   4.034  11.045   6.268
  140POPC   NC3 2222   9.469   1.182   8.073
  140POPC   PO4 2223  10.060   1.286   8.142
  140POPC   GL1 2224   9.782   1.353   7.716
  140POPC   GL2 2225   9.536   1.067   7.596
  140POPC   C1A 2226   9.673   1.482   7.274
  140POPC   D2A 2227   9.366   1.462   6.896
  140POPC   C3A 2228   9.528   1.449   6.466
  140POPC   C4A 2229   9.898   1.433   6.222
  140POPC   C1B 2230   9.637   0.991   7.177
  140POPC   C2B 2231   9.759   1.148   6.786
  140POPC   C3B 2232   9.775   0.968   6.372
  140POPC   C4B 2233   9.424   0.817   6.127
  141POPC   NC3 2234   2.730  10.106   8.338
  141POPC   PO4 2235   2.546  10.753   8.123
  141POPC   GL1 2236   2.682  10.645   7.721
  141POPC   GL2 2237   2.807  10.307   7.689
  141POPC   C1A 2238   2.472  10.528   7.334
  141POPC   D2A 2239   2.516  10.339   6.949
  141POPC   C3A 2240   2.419  10.571   6.612
  141POPC   C4A 2241   2.534  10.424   6.238
  141POPC   C1B 2242   2.974  10.467   7.253
  141POPC   C2B 2243   2.989  10.490   6.773
  141POPC   C3B 2244   3.042  10.521   6.334
  141POPC   C4B 2245   2.948  10.168   6.115
  142POPC   NC3 2246   6.938   0.158   7.961
  142POPC   PO4 2247   7.682   0.126   8.001
  142POPC   GL1 2248   7.390   0.144   7.653
  142POPC   GL2 2249   7.297   0.481   7.731
  142POPC   C1A 2250   7.319   0.089   7.188
  142POPC   D2A 2251   7.451   0.082   6.731
  142POPC   C3A 2252   7.211   0.190   6.362
  142POPC   C4A 2253   7.397   0.297   5.912
  142POPC   C1B 2254   7.195   0.618   7.320
  142POPC   C2B 2255   7.145   0.482   6.894
  142POPC   C3B 2256   7.384   0.631   6.544
  142POPC   C4B 2257   7.227   0.713   6.153
  143POPC   NC3 2258   3.029   9.756   7.850
  143POPC   PO4 2259   2.367   9.950   8.094
  143POPC   GL1 2260   2.537   9.842   7.707
  143POPC   GL2 2261   2.596   9.475   7.707
  143POPC   C1A 2262   2.647  10.007   7.311
  143POPC   D2A 2263   2.921  10.016   6.957
  143POPC   C3A 2264   2.698  10.041   6.553
  143POPC   C4A 2265   2.447   9.885   6.185
  143POPC   C1B 2266   2.802   9.512   7.261
  143POPC   C2B 2267   2.900   9.538   6.792
  143POPC   C3B 2268   2.785   9.543   6.352
  143POPC   C4B 2269   2.690   9.347   5.958
  144POPC   NC3 2270   1.662   7.287   8.023
  144POPC   PO4 2271   1.954   7.840   8.347
  144POPC   GL1 2272   1.860   7.891   7.873
  144POPC   GL2 2273   2.052   8.153   7.709
  144POPC   C1A 2274   1.771   7.832   7.382
  144POPC   D2A 2275   1.913   7.951   6.919
  144POPC   C3A 2276   1.752   7.744   6.500
  144POPC   C4A 2277   1.779   7.857   6.041
  144POPC   C1B 2278   1.899   8.330   7.303
  144POPC   C2B 2279   1.961   8.455   6.852
  144POPC   C3B 2280   2.157   8.362   6.456
  144POPC   C4B 2281   2.245   8.081   6.101
  145POPC   NC3 2282   2.575   2.738   8.012
  145POPC   PO4 2283   3.074   2.294   8.267
  145POPC   GL1 2284   2.692   2.288   7.794
  145POPC   GL2 2285   2.445   2.451   7.588
  145POPC   C1A 2286   2.809   2.337   7.265
  145POPC   D2A 2287   2.777   2.531   6.857
  145POPC   C3A 2288   2.892   2.379   6.459
  145POPC   C4A 2289   3.036   2.465   6.076
  145POPC   C1B 2290   2.651   2.808   7.290
  145POPC   C2B 2291   2.518   2.956   6.854
  145POPC   C3B 2292   2.680   2.857   6.395
  145POPC   C4B 2293   2.508   3.004   5.945
  146POPC   NC3 2294  11.206   1.491   8.335
  146POPC   PO4 2295  10.785   1.028   8.102
  146POPC   GL1 2296  10.998   1.135   7.679
  146POPC   GL2 2297  11.375   1.109   7.692
  146POPC   C1A 2298  11.083   1.296   7.221
  146POPC   D2A 2299  11.141   1.440   6.746
  146POPC   C3A 2300  10.959   1.290   6.391
  146POPC   C4A 2301  10.675   0.955   6.434
  146POPC   C1B 2302  11.268   0.819   7.352
  146POPC   C2B 2303  10.993   0.832   6.977
  146POPC   C3B 2304  11.181   0.869   6.572
  146POPC   C4B 2305  11.465   0.867   6.210
  147POPC   NC3 2306   1.911   1.258   8.111
  147POPC   PO4 2307   2.329   1.705   8.210
  147POPC   GL1 2308   2.352   1.417   7.810
  147POPC   GL2 2309   2.161   1.116   7.689
  147POPC   C1A 2310   2.382   1.445   7.328
  147POPC   D2A 2311   2.378   1.240   6.876
  147POPC   C3A 2312   2.223   1.585   6.578
  147POPC   C4A 2313   2.000   1.543   6.163
  147POPC   C1B 2314   2.033   1.092   7.255
  147POPC   C2B 2315   1.872   1.342   6.914
  147POPC   C3B 2316   1.878   1.195   6.505
  147POPC   C4B 2317   1.612   1.194   6.156
  148POPC   NC3 2318  11.474  11.235   8.420
  148POPC   PO4 2319  11.234  10.873   7.914
  148POPC   GL1 2320  11.135  11.058   7.516
  148POPC   GL2 2321  10.942  11.342   7.661
  148POPC   C1A 2322  11.325  11.380   7.215
  148POPC   D2A 2323  11.426   0.066   6.819
  148POPC   C3A 2324  11.339  11.332   6.430
  148POPC   C4A 2325   0.015  11.258   6.023
  148POPC   C1B 2326  10.820  11.328   7.240
  148POPC   C2B 2327  10.983  11.311   6.834
  148POPC   C3B 2328  10.812  11.328   6.461
  148POPC   C4B 2329  10.946  11.115   6.155
  149POPC   NC3 2330   5.372   8.765   8.041
  149POPC   PO4 2331   4.839   8.376   8.073
  149POPC   GL1 2332   4.882   8.621   7.681
  149POPC   GL2 2333   4.968   8.976   7.765
  149POPC   C1A 2334   5.053   8.815   7.284
  149POPC   D2A 2335   4.942   8.992   6.883
  149POPC   C3A 2336   4.982   8.797   6.513
  149POPC   C4A 2337   4.679   8.479   6.373
  149POPC   C1B 2338   4.848   9.273   7.411
  149POPC   C2B 2339   4.703   9.411   7.001
  149POPC   C3B 2340   4.787   9.387   6.538
  149POPC   C4B 2341   5.083   9.492   6.165
  150POPC   NC3 2342   4.355   9.526   8.135
  150POPC   PO4 2343   4.489  10.095   8.101
  150POPC   GL1 2344   4.211   9.920   7.728
  150POPC   GL2 2345   4.073   9.561   7.703
  150POPC   C1A 2346   4.278   9.879   7.260
  150POPC   D2A 2347   4.549   9.877   6.879
  150POPC   C3A 2348   4.298   9.845   6.509
  150POPC   C4A 2349   4.064  10.098   6.231
  150POPC   C1B 2350   4.304   9.370   7.338
  150POPC   C2B 2351   4.206   9.474   6.889
  150POPC   C3B 2352   4.213   9.352   6.443
  150POPC   C4B 2353   4.108   9.544   6.052
  151POPC   NC3 2354   8.961   2.011   8.031
  151POPC   PO4 2355   9.193   1.442   7.804
  151POPC   GL1 2356   8.993   1.727   7.579
  151POPC   GL2 2357   8.965   2.100   7.545
  151POPC   C1A 2358   9.020   1.711   7.172
  151POPC   D2A 2359   8.762   1.739   6.875
  151POPC   C3A 2360   9.007   1.711   6.545
  151POPC   C4A 2361   8.807   1.774   6.175
  151POPC   C1B 2362   8.847   2.189   7.136
  151POPC   C2B 2363   9.114   2.136   6.791
  151POPC   C3B 2364   9.078   2.197   6.342
  151POPC   C4B 2365   8.686   2.324   6.143
  152POPC   NC3 2366  10.556  11.317   8.032
  152POPC   PO4 2367  10.249  10.757   8.046
  152POPC   GL1 2368  10.397  11.001   7.658
  152POPC   GL2 2369  10.383  11.358   7.580
  152POPC   C1A 2370  10.382  11.063   7.193
  152POPC   D2A 2371  10.633  10.960   6.907
  152POPC   C3A 2372  10.427  11.038   6.607
  152POPC   C4A 2373  10.475  10.942   6.223
  152POPC   C1B 2374  10.034   0.037   7.387
  152POPC   C2B 2375  10.035   0.210   6.998
  152POPC   C3B 2376  10.055   0.090   6.577
  152POPC   C4B 2377  10.299  11.416   6.268
  153POPC   NC3 2378   1.939   9.527   8.181
  153POPC   PO4 2379   2.271   8.979   8.116
  153POPC   GL1 2380   2.088   9.239   7.753
  153POPC   GL2 2381   2.077   9.605   7.705
  153POPC   C1A 2382   1.839   9.266   7.344
  153POPC   D2A 2383   1.948   9.331   6.898
  153POPC   C3A 2384   1.869   9.253   6.437
  153POPC   C4A 2385   2.213   9.335   6.134
  153POPC   C1B 2386   1.845   9.777   7.369
  153POPC   C2B 2387   2.034   9.847   6.966
  153POPC   C3B 2388   2.184   9.662   6.580
  153POPC   C4B 2389   1.935   9.739   6.232
  154POPC   NC3 2390   6.062  11.262   7.947
  154POPC   PO4 2391   6.184  10.647   7.967
  154POPC   GL1 2392   6.385  10.926   7.617
  154POPC   GL2 2393   6.507  11.290   7.596
  154POPC   C1A 2394   6.414  11.031   7.179
  154POPC   D2A 2395   6.653  11.043   6.800
  154POPC   C3A 2396   6.282  10.880   6.631
  154POPC   C4A 2397   6.125  10.842   6.225
  154POPC   C1B 2398   6.836  11.309   7.229
  154POPC   C2B 2399   6.923   0.015   6.830
  154POPC   C3B 2400   6.704   0.052   6.438
  154POPC   C4B 2401   6.406  11.264   6.284
  155POPC   NC3 2402   8.290   8.838   8.172
  155POPC   PO4 2403   8.961   8.792   8.156
  155POPC   GL1 2404   8.801   8.957   7.767
  155POPC   GL2 2405   8.567   8.714   7.676
  155POPC   C1A 2406   8.767   9.104   7.344
  155POPC   D2A 2407   8.607   8.860   6.996
  155POPC   C3A 2408   8.481   9.090   6.668
  155POPC   C4A 2409   8.694   9.257   6.311
  155POPC   C1B 2410   8.957   8.629   7.394
  155POPC   C2B 2411   9.050   8.630   6.929
  155POPC   C3B 2412   8.934   8.880   6.576
  155POPC   C4B 2413   8.820   8.767   6.148
  156POPC   NC3 2414   4.103   1.377   7.954
  156POPC   PO4 2415   4.631   0.990   7.996
  156POPC   GL1 2416   4.463   1.191   7.635
  156POPC   GL2 2417   4.418   0.876   7.480
  156POPC   C1A 2418   4.362   1.335   7.214
  156POPC   D2A 2419   4.359   1.074   6.857
  156POPC   C3A 2420   4.400   1.311   6.533
  156POPC   C4A 2421   4.436   1.321   6.142
  156POPC   C1B 2422   4.052   0.931   7.235
  156POPC   C2B 2423   3.847   1.015   6.849
  156POPC   C3B 2424   4.032   0.945   6.458
  156POPC   C4B 2425   4.018   1.063   6.021
  157POPC   NC3 2426   0.888   8.116   3.971
  157POPC   PO4 2427   1.443   7.751   3.940
  157POPC   GL1 2428   1.363   8.002   4.292
  157POPC   GL2 2429   1.263   8.344   4.262
  157POPC   C1A 2430   1.270   7.853   4.698
  157POPC   D2A 2431   1.194   7.581   5.036
  157POPC   C3A 2432   1.274   7.857   5.373
  157POPC   C4A 2433   1.343   7.762   5.784
  157POPC   C1B 2434   0.967   8.262   4.617
  157POPC   C2B 2435   0.914   8.061   5.016
  157POPC   C3B 2436   0.856   8.146   5.443
  157POPC   C4B 2437   1.091   8.201   5.794
  158POPC   NC3 2438   3.601   1.782   4.091
  158POPC   PO4 2439   4.136   2.254   3.900
  158POPC   GL1 2440   3.827   2.192   4.355
  158POPC   GL2 2441   3.508   2.014   4.528
  158POPC   C1A 2442   3.838   2.251   4.793
  158POPC   D2A 2443   3.534   2.041   5.069
  158POPC   C3A 2444   3.553   2.191   5.477
  158POPC   C4A 2445   3.469   2.213   5.895
  158POPC   C1B 2446   3.460   1.609   4.754
  158POPC   C2B 2447   3.576   1.421   5.138
  158POPC   C3B 2448   3.723   1.674   5.456
  158POPC   C4B 2449   3.356   1.762   5.723
  159POPC   NC3 2450   0.738   5.648   3.935
  159POPC   PO4 2451   0.899   6.260   3.919
  159POPC   GL1 2452   0.595   6.125   4.231
  159POPC   GL2 2453   0.397   5.833   4.240
  159POPC   C1A 2454   0.634   5.971   4.671
  159POPC   D2A 2455   0.783   5.850   5.098
  159POPC   C3A 2456   0.518   5.784   5.456
  159POPC   C4A 2457   0.621   5.534   5.804
  159POPC   C1B 2458   0.345   5.560   4.636
  159POPC   C2B 2459   0.184   5.705   5.056
  159POPC   C3B 2460   0.040   5.564   5.489
  159POPC   C4B 2461  11.488   5.730   5.928
  160POPC   NC3 2462   1.996   4.574   4.114
  160POPC   PO4 2463   1.661   4.184   3.774
  160POPC   GL1 2464   1.595   4.046   4.219
  160POPC   GL2 2465   1.905   4.007   4.430
  160POPC   C1A 2466   1.478   4.259   4.607
  160POPC   D2A 2467   1.709   4.467   4.906
  160POPC   C3A 2468   1.644   4.342   5.328
  160POPC   C4A 2469   1.755   4.472   5.728
  160POPC   C1B 2470   2.165   3.728   4.751
  160POPC   C2B 2471   2.252   3.775   5.219
  160POPC   C3B 2472   2.123   4.107   5.554
  160POPC   C4B 2473   2.276   4.503   5.812
  161POPC   NC3 2474   0.513   1.489   4.184
  161POPC   PO4 2475   0.451   1.008   3.698
  161POPC   GL1 2476   0.410   0.980   4.233
  161POPC   GL2 2477   0.568   1.132   4.545
  161POPC   C1A 2478   0.131   0.910   4.663
  161POPC   D2A 2479   0.244   1.174   5.026
  161POPC   C3A 2480   0.401   1.063   5.421
  161POPC   C4A 2481   0.229   1.079   5.839
  161POPC   C1B 2482   0.591   1.511   4.848
  161POPC   C2B 2483   0.560   1.546   5.299
  161POPC   C3B 2484   0.585   1.426   5.708
  161POPC   C4B 2485   0.732   0.987   5.864
  162POPC   NC3 2486   2.299   1.546   4.068
  162POPC   PO4 2487   2.592   0.926   3.892
  162POPC   GL1 2488   2.435   1.068   4.297
  162POPC   GL2 2489   2.082   1.114   4.301
  162POPC   C1A 2490   2.392   0.899   4.731
  162POPC   D2A 2491   2.132   0.863   5.110
  162POPC   C3A 2492   2.212   1.013   5.532
  162POPC   C4A 2493   2.073   1.018   6.001
  162POPC   C1B 2494   1.973   1.247   4.739
  162POPC   C2B 2495   1.839   1.266   5.201
  162POPC   C3B 2496   1.848   1.356   5.648
  162POPC   C4B 2497   1.584   1.627   5.831
  163POPC   NC3 2498   1.228   3.257   4.013
  163POPC   PO4 2499   0.796   3.687   3.721
  163POPC   GL1 2500   0.851   3.513   4.281
  163POPC   GL2 2501   1.168   3.445   4.461
  163POPC   C1A 2502   0.840   3.431   4.806
  163POPC   D2A 2503   0.987   3.569   5.235
  163POPC   C3A 2504   0.918   3.418   5.679
  163POPC   C4A 2505   0.847   3.221   6.101
  163POPC   C1B 2506   1.449   3.258   4.700
  163POPC   C2B 2507   1.488   3.446   5.063
  163POPC   C3B 2508   1.488   3.363   5.458
  163POPC   C4B 2509   1.351   3.698   5.679
  164POPC   NC3 2510   9.641   7.572   3.775
  164POPC   PO4 2511   9.828   7.032   3.999
  164POPC   GL1 2512   9.785   7.306   4.357
  164POPC   GL2 2513  10.012   7.568   4.332
  164POPC   C1A 2514   9.632   7.272   4.804
  164POPC   D2A 2515   9.350   7.506   5.124
  164POPC   C3A 2516   9.389   7.354   5.570
  164POPC   C4A 2517   9.532   7.345   5.992
  164POPC   C1B 2518  10.169   7.414   4.750
  164POPC   C2B 2519  10.113   7.078   5.076
  164POPC   C3B 2520   9.846   7.116   5.438
  164POPC   C4B 2521   9.932   7.488   5.689
  165POPC   NC3 2522  11.214   3.075   3.984
  165POPC   PO4 2523  10.897   2.413   3.955
  165POPC   GL1 2524  10.999   2.543   4.348
  165POPC   GL2 2525  11.324   2.713   4.358
  165POPC   C1A 2526  11.129   2.445   4.763
  165POPC   D2A 2527  10.894   2.572   5.101
  165POPC   C3A 2528  11.102   2.455   5.443
  165POPC   C4A 2529  11.230   2.621   5.837
  165POPC   C1B 2530  11.492   2.838   4.783
  165POPC   C2B 2531  11.293   2.915   5.176
  165POPC   C3B 2532  11.262   3.075   5.565
  165POPC   C4B 2533  11.489   3.062   5.938
  166POPC   NC3 2534  11.176   8.801   3.707
  166POPC   PO4 2535  10.927   9.099   4.302
  166POPC   GL1 2536  11.027   8.707   4.477
  166POPC   GL2 2537  11.212   8.626   4.206
  166POPC   C1A 2538  11.168   8.669   4.898
  166POPC   D2A 2539  11.245   9.027   5.157
  166POPC   C3A 2540  10.928   9.028   5.445
  166POPC   C4A 2541  10.891   8.779   5.817
  166POPC   C1B 2542  11.387   8.353   4.544
  166POPC   C2B 2543  11.475   8.274   5.002
  166POPC   C3B 2544   0.010   8.578   5.335
  166POPC   C4B 2545  11.381   8.689   5.749
  167POPC   NC3 2546   8.843   5.450   3.899
  167POPC   PO4 2547   8.546   5.999   3.952
  167POPC   GL1 2548   8.727   5.737   4.315
  167POPC   GL2 2549   9.075   5.660   4.308
  167POPC   C1A 2550   8.778   5.599   4.756
  167POPC   D2A 2551   8.719   5.379   5.173
  167POPC   C3A 2552   8.742   5.534   5.602
  167POPC   C4A 2553   8.478   5.705   5.950
  167POPC   C1B 2554   9.268   5.778   4.711
  167POPC   C2B 2555   9.119   5.729   5.155
  167POPC   C3B 2556   9.204   5.751   5.612
  167POPC   C4B 2557   8.983   5.757   6.028
  168POPC   NC3 2558   8.362   3.530   4.027
  168POPC   PO4 2559   7.967   3.881   4.174
  168POPC   GL1 2560   8.168   3.577   4.512
  168POPC   GL2 2561   8.456   3.326   4.488
  168POPC   C1A 2562   8.306   3.450   4.953
  168POPC   D2A 2563   8.570   3.565   5.307
  168POPC   C3A 2564   8.363   3.658   5.717
  168POPC   C4A 2565   7.947   3.669   5.941
  168POPC   C1B 2566   8.521   2.994   4.819
  168POPC   C2B 2567   8.503   3.032   5.291
  168POPC   C3B 2568   8.234   3.118   5.682
  168POPC   C4B 2569   8.134   2.874   6.073
  169POPC   NC3 2570   9.018   9.087   4.021
  169POPC   PO4 2571   8.436   9.147   3.682
  169POPC   GL1 2572   8.578   8.907   4.169
  169POPC   GL2 2573   8.825   8.679   4.277
  169POPC   C1A 2574   8.631   8.984   4.637
  169POPC   D2A 2575   8.645   8.701   4.956
  169POPC   C3A 2576   8.645   8.731   5.423
  169POPC   C4A 2577   8.699   9.058   5.724
  169POPC   C1B 2578   9.070   8.694   4.680
  169POPC   C2B 2579   9.084   8.554   5.143
  169POPC   C3B 2580   9.136   8.798   5.534
  169POPC   C4B 2581   9.269   8.662   5.920
  170POPC   NC3 2582  10.491   1.318   3.903
  170POPC   PO4 2583  10.008   0.799   4.000
  170POPC   GL1 2584   9.979   1.216   4.130
  170POPC   GL2 2585  10.279   1.130   4.336
  170POPC   C1A 2586   9.988   1.502   4.509
  170POPC   D2A 2587  10.182   1.384   4.882
  170POPC   C3A 2588  10.156   1.493   5.307
  170POPC   C4A 2589  10.004   1.407   5.728
  170POPC   C1B 2590  10.577   1.146   4.692
  170POPC   C2B 2591  10.511   1.111   5.164
  170POPC   C3B 2592  10.467   1.211   5.608
  170POPC   C4B 2593  10.706   1.196   5.956
  171POPC   NC3 2594   8.213   8.793   3.866
  171POPC   PO4 2595   8.562   9.399   4.123
  171POPC   GL1 2596   8.239   9.210   4.393
  171POPC   GL2 2597   8.081   8.928   4.321
  171POPC   C1A 2598   8.176   9.132   4.826
  171POPC   D2A 2599   8.403   9.100   5.180
  171POPC   C3A 2600   8.207   9.057   5.565
  171POPC   C4A 2601   8.313   9.259   5.981
  171POPC   C1B 2602   8.195   8.649   4.688
  171POPC   C2B 2603   8.206   8.614   5.157
  171POPC   C3B 2604   8.232   8.450   5.564
  171POPC   C4B 2605   7.957   8.443   5.915
  172POPC   NC3 2606   6.595   0.412   3.679
  172POPC   PO4 2607   7.118   0.634   3.910
  172POPC   GL1 2608   6.940   0.331   4.191
  172POPC   GL2 2609   6.585   0.358   4.187
  172POPC   C1A 2610   6.853   0.254   4.643
  172POPC   D2A 2611   6.856   0.419   5.096
  172POPC   C3A 2612   6.745   0.329   5.549
  172POPC   C4A 2613   6.873   0.313   6.003
  172POPC   C1B 2614   6.342   0.414   4.554
  172POPC   C2B 2615   6.340   0.487   5.000
  172POPC   C3B 2616   6.255   0.409   5.450
  172POPC   C4B 2617   6.243   0.631   5.824
  173POPC   NC3 2618   3.524   8.321   3.583
  173POPC   PO4 2619   3.005   8.126   3.916
  173POPC   GL1 2620   3.004   8.348   4.351
  173POPC   GL2 2621   3.328   8.222   4.394
  173POPC   C1A 2622   3.160   8.413   4.831
  173POPC   D2A 2623   3.372   8.167   5.217
  173POPC   C3A 2624   3.435   8.259   5.680
  173POPC   C4A 2625   3.566   8.405   6.099
  173POPC   C1B 2626   3.402   7.935   4.749
  173POPC   C2B 2627   3.666   7.744   5.100
  173POPC   C3B 2628   3.748   7.813   5.555
  173POPC   C4B 2629   3.972   8.094   5.831
  174POPC   NC3 2630   9.494   9.955   3.876
  174POPC   PO4 2631  10.012   9.532   3.934
  174POPC   GL1 2632   9.711   9.632   4.251
  174POPC   GL2 2633   9.606   9.334   4.426
  174POPC   C1A 2634   9.844   9.770   4.659
  174POPC   D2A 2635   9.861  10.005   5.044
  174POPC   C3A 2636   9.648   9.926   5.418
  174POPC   C4A 2637   9.820  10.026   5.790
  174POPC   C1B 2638   9.641   9.358   4.885
  174POPC   C2B 2639   9.942   9.484   5.209
  174POPC   C3B 2640   9.899   9.516   5.658
  174POPC   C4B 2641   9.474   9.592   5.789
  175POPC   NC3 2642   9.099   0.181   3.950
  175POPC   PO4 2643   8.618   0.592   3.718
  175POPC   GL1 2644   8.785   0.447   4.209
  175POPC   GL2 2645   8.715   0.114   4.340
  175POPC   C1A 2646   8.759   0.512   4.693
  175POPC   D2A 2647   8.629   0.703   5.105
  175POPC   C3A 2648   8.936   0.655   5.447
  175POPC   C4A 2649   9.385   0.691   5.625
  175POPC   C1B 2650   8.777  11.485   4.750
  175POPC   C2B 2651   8.862   0.211   5.115
  175POPC   C3B 2652   8.635   0.228   5.476
  175POPC   C4B 2653   8.470   0.316   5.839
  176POPC   NC3 2654   8.155   9.482   3.836
  176POPC   PO4 2655   7.751   8.938   3.868
  176POPC   GL1 2656   7.786   9.344   4.167
  176POPC   GL2 2657   8.066   9.664   4.282
  176POPC   C1A 2658   7.803   9.414   4.613
  176POPC   D2A 2659   7.771   9.356   5.029
  176POPC   C3A 2660   7.777   9.646   5.359
  176POPC   C4A 2661   7.938   9.511   5.750
  176POPC   C1B 2662   8.274   9.644   4.686
  176POPC   C2B 2663   8.233   9.571   5.120
  176POPC   C3B 2664   8.418   9.524   5.519
  176POPC   C4B 2665   8.334   9.885   5.728
  177POPC   NC3 2666   2.990   0.332   4.037
  177POPC   PO4 2667   2.447   0.138   3.786
  177POPC   GL1 2668   2.523   0.260   4.224
  177POPC   GL2 2669   2.665   0.609   4.314
  177POPC   C1A 2670   2.423   0.334   4.673
  177POPC   D2A 2671   2.254   0.386   5.061
  177POPC   C3A 2672   2.495   0.508   5.399
  177POPC   C4A 2673   2.550   0.306   5.802
  177POPC   C1B 2674   2.862   0.643   4.758
  177POPC   C2B 2675   2.973   0.630   5.229
  177POPC   C3B 2676   2.882   0.754   5.684
  177POPC   C4B 2677   3.023   0.746   6.149
  178POPC   NC3 2678   2.142  11.317   3.914
  178POPC   PO4 2679   1.595  10.952   3.685
  178POPC   GL1 2680   1.593  11.173   4.129
  178POPC   GL2 2681   1.916  11.101   4.314
  178POPC   C1A 2682   1.589  11.363   4.576
  178POPC   D2A 2683   1.879  11.208   4.940
  178POPC   C3A 2684   1.786  11.209   5.417
  178POPC   C4A 2685   1.785  11.119   5.889
  178POPC   C1B 2686   2.257  11.324   4.555
  178POPC   C2B 2687   2.393  11.380   4.961
  178POPC   C3B 2688   2.357  11.115   5.302
  178POPC   C4B 2689   2.379  11.176   5.746
  179POPC   NC3 2690  10.727   8.749   4.073
  179POPC   PO4 2691  10.082   8.555   3.950
  179POPC   GL1 2692  10.154   8.903   4.224
  179POPC   GL2 2693  10.398   8.805   4.447
  179POPC   C1A 2694  10.003   9.049   4.637
  179POPC   D2A 2695  10.188   8.852   5.004
  179POPC   C3A 2696  10.057   8.911   5.443
  179POPC   C4A 2697  10.121   8.505   5.695
  179POPC   C1B 2698  10.655   8.831   4.790
  179POPC   C2B 2699  10.700   8.688   5.130
  179POPC   C3B 2700  10.525   8.717   5.492
  179POPC   C4B 2701  10.446   9.049   5.771
  180POPC   NC3 2702   2.415  10.260   3.954
  180POPC   PO4 2703   3.039   9.944   3.835
  180POPC   GL1 2704   2.877  10.069   4.224
  180POPC   GL2 2705   2.763  10.374   4.308
  180POPC   C1A 2706   2.865   9.993   4.656
  180POPC   D2A 2707   3.047  10.184   5.040
  180POPC   C3A 2708   2.834  10.165   5.448
  180POPC   C4A 2709   2.466  10.198   5.751
  180POPC   C1B 2710   2.824  10.501   4.688
  180POPC   C2B 2711   2.560  10.402   5.031
  180POPC   C3B 2712   2.515  10.591   5.424
  180POPC   C4B 2713   2.818  10.566   5.804
  181POPC   NC3 2714  11.289   4.265   3.999
  181POPC   PO4 2715  11.231   4.932   3.799
  181POPC   GL1 2716  11.255   4.728   4.262
  181POPC   GL2 2717  11.033   4.448   4.388
  181POPC   C1A 2718  11.432   4.604   4.668
  181POPC   D2A 2719  11.181   4.440   5.024
  181POPC   C3A 2720  11.365   4.492   5.433
  181POPC   C4A 2721  11.087   4.500   5.762
  181POPC   C1B 2722  11.222   4.127   4.632
  181POPC   C2B 2723  11.366   3.931   5.025
  181POPC   C3B 2724  11.232   4.001   5.434
  181POPC   C4B 2725  11.328   4.038   5.848
  182POPC   NC3 2726   2.722  11.080   3.485
  182POPC   PO4 2727   2.944  10.501   3.862
  182POPC   GL1 2728   2.819  10.874   4.225
  182POPC   GL2 2729   2.641  11.225   4.193
  182POPC   C1A 2730   2.755  11.008   4.678
  182POPC   D2A 2731   2.852  10.817   5.098
  182POPC   C3A 2732   2.831  11.005   5.514
  182POPC   C4A 2733   3.105  10.973   5.888
  182POPC   C1B 2734   2.783  11.498   4.567
  182POPC   C2B 2735   2.832   0.161   4.996
  182POPC   C3B 2736   2.701   0.005   5.415
  182POPC   C4B 2737   2.827  11.392   5.860
  183POPC   NC3 2738   9.056   8.266   3.968
  183POPC   PO4 2739   8.471   8.413   3.983
  183POPC   GL1 2740   8.714   8.194   4.354
  183POPC   GL2 2741   9.020   7.965   4.374
  183POPC   C1A 2742   8.840   8.247   4.798
  183POPC   D2A 2743   8.601   8.256   5.197
  183POPC   C3A 2744   8.730   8.250   5.623
  183POPC   C4A 2745   8.571   8.309   6.052
  183POPC   C1B 2746   9.215   7.902   4.794
  183POPC   C2B 2747   9.047   7.940   5.227
  183POPC   C3B 2748   9.090   7.788   5.658
  183POPC   C4B 2749   8.748   7.790   5.973
  184POPC   NC3 2750   1.005  10.354   4.000
  184POPC   PO4 2751   1.660  10.279   3.853
  184POPC   GL1 2752   1.569  10.309   4.268
  184POPC   GL2 2753   1.427  10.637   4.206
  184POPC   C1A 2754   1.595  10.174   4.714
  184POPC   D2A 2755   1.607  10.385   5.144
  184POPC   C3A 2756   1.505  10.107   5.505
  184POPC   C4A 2757   1.588   9.870   5.871
  184POPC   C1B 2758   1.197  10.470   4.593
  184POPC   C2B 2759   1.093  10.587   4.999
  184POPC   C3B 2760   1.157  10.469   5.400
  184POPC   C4B 2761   1.079  10.616   5.770
  185POPC   NC3 2762   4.604   8.983   3.823
  185POPC   PO4 2763   4.068   9.198   3.784
  185POPC   GL1 2764   4.124   9.212   4.246
  185POPC   GL2 2765   4.353   9.010   4.357
  185POPC   C1A 2766   4.081   9.249   4.739
  185POPC   D2A 2767   4.194   9.398   5.199
  185POPC   C3A 2768   4.048   9.252   5.621
  185POPC   C4A 2769   4.155   9.033   6.023
  185POPC   C1B 2770   4.565   9.091   4.759
  185POPC   C2B 2771   4.551   8.960   5.174
  185POPC   C3B 2772   4.486   8.985   5.603
  185POPC   C4B 2773   4.522   8.665   5.923
  186POPC   NC3 2774  11.142   9.410   4.052
  186POPC   PO4 2775  10.700  10.005   3.944
  186POPC   GL1 2776  10.884   9.985   4.375
  186POPC   GL2 2777  11.141   9.752   4.427
  186POPC   C1A 2778  10.784   9.708   4.783
  186POPC   D2A 2779  10.886   9.544   5.211
  186POPC   C3A 2780  11.088   9.850   5.463
  186POPC   C4A 2781  11.413   9.902   5.766
  186POPC   C1B 2782  11.257   9.487   4.800
  186POPC   C2B 2783  11.446   9.532   5.215
  186POPC   C3B 2784  11.261   9.395   5.584
  186POPC   C4B 2785  10.902   9.331   5.844
  187POPC   NC3 2786   2.343   5.998   3.709
  187POPC   PO4 2787   3.002   6.179   3.782
  187POPC   GL1 2788   2.722   6.093   4.135
  187POPC   GL2 2789   2.508   5.788   4.165
  187POPC   C1A 2790   2.909   5.969   4.551
  187POPC   D2A 2791   3.135   5.984   4.973
  187POPC   C3A 2792   2.905   5.914   5.387
  187POPC   C4A 2793   2.736   6.039   5.812
  187POPC   C1B 2794   2.435   5.791   4.631
  187POPC   C2B 2795   2.291   5.866   5.081
  187POPC   C3B 2796   2.412   5.748   5.513
  187POPC   C4B 2797   2.652   5.530   5.858
  188POPC   NC3 2798  11.393   8.009   3.982
  188POPC   PO4 2799  10.718   8.255   3.872
  188POPC   GL1 2800  10.930   8.209   4.249
  188POPC   GL2 2801  11.053   7.904   4.350
  188POPC   C1A 2802  10.913   8.242   4.698
  188POPC   D2A 2803  10.796   8.184   5.103
  188POPC   C3A 2804  11.023   8.426   5.403
  188POPC   C4A 2805  11.047   8.296   5.799
  188POPC   C1B 2806  11.347   7.880   4.687
  188POPC   C2B 2807  11.186   7.849   5.077
  188POPC   C3B 2808  11.321   8.003   5.451
  188POPC   C4B 2809  11.332   7.879   5.879
  189POPC   NC3 2810   1.787   9.867   4.090
  189POPC   PO4 2811   1.188   9.958   3.811
  189POPC   GL1 2812   1.198   9.944   4.237
  189POPC   GL2 2813   1.333   9.652   4.310
  189POPC   C1A 2814   1.080   9.960   4.656
  189POPC   D2A 2815   1.207  10.065   5.057
  189POPC   C3A 2816   0.905  10.003   5.375
  189POPC   C4A 2817   1.075  10.074   5.761
  189POPC   C1B 2818   1.579   9.636   4.685
  189POPC   C2B 2819   1.528   9.441   5.070
  189POPC   C3B 2820   1.407   9.586   5.467
  189POPC   C4B 2821   1.147   9.576   5.811
  190POPC   NC3 2822   1.259   7.309   3.888
  190POPC   PO4 2823   1.533   6.787   3.691
  190POPC   GL1 2824   1.472   6.917   4.137
  190POPC   GL2 2825   1.151   6.829   4.280
  190POPC   C1A 2826   1.502   7.007   4.613
  190POPC   D2A 2827   1.642   7.165   5.042
  190POPC   C3A 2828   1.444   7.340   5.443
  190POPC   C4A 2829   1.645   7.358   5.863
  190POPC   C1B 2830   0.972   6.970   4.694
  190POPC   C2B 2831   0.834   7.046   5.139
  190POPC   C3B 2832   0.898   6.982   5.596
  190POPC   C4B 2833   1.116   7.196   5.939
  191POPC   NC3 2834   9.842   5.511   3.902
  191POPC   PO4 2835   9.268   5.277   3.965
  191POPC   GL1 2836   9.525   5.421   4.377
  191POPC   GL2 2837   9.809   5.673   4.392
  191POPC   C1A 2838   9.667   5.475   4.851
  191POPC   D2A 2839   9.617   5.690   5.275
  191POPC   C3A 2840   9.635   5.470   5.681
  191POPC   C4A 2841   9.417   5.431   6.099
  191POPC   C1B 2842   9.889   5.944   4.782
  191POPC   C2B 2843   9.902   6.112   5.211
  191POPC   C3B 2844   9.715   6.110   5.618
  191POPC   C4B 2845   9.599   6.406   5.939
  192POPC   NC3 2846   2.814   2.265   3.878
  192POPC   PO4 2847   3.436   2.211   4.052
  192POPC   GL1 2848   3.104   1.934   4.235
  192POPC   GL2 2849   2.823   2.114   4.354
  192POPC   C1A 2850   3.009   1.765   4.647
  192POPC   D2A 2851   2.912   2.057   4.945
  192POPC   C3A 2852   3.075   1.951   5.318
  192POPC   C4A 2853   3.019   2.180   5.654
  192POPC   C1B 2854   2.534   1.921   4.640
  192POPC   C2B 2855   2.491   1.811   5.068
  192POPC   C3B 2856   2.572   1.949   5.496
  192POPC   C4B 2857   2.850   1.667   5.717
  193POPC   NC3 2858   1.942   2.371   3.748
  193POPC   PO4 2859   1.857   1.659   4.022
  193POPC   GL1 2860   1.913   2.101   4.198
  193POPC   GL2 2861   2.274   2.106   4.254
  193POPC   C1A 2862   1.993   2.324   4.639
  193POPC   D2A 2863   2.244   2.244   5.012
  193POPC   C3A 2864   2.154   2.291   5.443
  193POPC   C4A 2865   1.814   2.268   5.757
  193POPC   C1B 2866   2.052   1.820   4.622
  193POPC   C2B 2867   1.976   1.763   5.061
  193POPC   C3B 2868   1.899   1.847   5.485
  193POPC   C4B 2869   2.175   1.906   5.848
  194POPC   NC3 2870   8.194   1.899   3.885
  194POPC   PO4 2871   7.689   2.358   3.841
  194POPC   GL1 2872   7.957   2.237   4.227
  194POPC   GL2 2873   8.069   1.898   4.363
  194POPC   C1A 2874   8.119   2.289   4.676
  194POPC   D2A 2875   7.988   2.174   5.110
  194POPC   C3A 2876   8.123   2.420   5.465
  194POPC   C4A 2877   8.256   2.412   5.884
  194POPC   C1B 2878   8.145   1.776   4.812
  194POPC   C2B 2879   8.114   1.518   5.184
  194POPC   C3B 2880   7.843   1.629   5.519
  194POPC   C4B 2881   7.920   2.011   5.739
  195POPC   NC3 2882   0.895   1.123   3.620
  195POPC   PO4 2883   0.899   1.681   4.018
  195POPC   GL1 2884   0.998   1.322   4.280
  195POPC   GL2 2885   1.361   1.247   4.316
  195POPC   C1A 2886   1.021   1.259   4.725
  195POPC   D2A 2887   1.047   1.507   5.106
  195POPC   C3A 2888   0.993   1.249   5.464
  195POPC   C4A 2889   1.201   1.215   5.863
  195POPC   C1B 2890   1.436   0.965   4.663
  195POPC   C2B 2891   1.292   0.998   5.084
  195POPC   C3B 2892   1.447   0.992   5.453
  195POPC   C4B 2893   1.666   0.896   5.755
  196POPC   NC3 2894  10.994  10.359   3.958
  196POPC   PO4 2895  10.941  10.937   3.753
  196POPC   GL1 2896  10.884  10.812   4.195
  196POPC   GL2 2897  11.242  10.703   4.225
  196POPC   C1A 2898  10.838  10.674   4.643
  196POPC   D2A 2899  10.789  10.832   5.067
  196POPC   C3A 2900  10.864  10.661   5.491
  196POPC   C4A 2901  10.832  10.647   5.987
  196POPC   C1B 2902  11.288  10.454   4.593
  196POPC   C2B 2903  11.064  10.346   4.979
  196POPC   C3B 2904  11.224  10.321   5.374
  196POPC   C4B 2905  11.272  10.474   5.768
  197POPC   NC3 2906   7.297   1.015   4.078
  197POPC   PO4 2907   7.813   1.507   3.918
  197POPC   GL1 2908   7.715   1.239   4.264
  197POPC   GL2 2909   7.438   1.401   4.397
  197POPC   C1A 2910   7.598   0.976   4.656
  197POPC   D2A 2911   7.223   1.031   4.920
  197POPC   C3A 2912   7.306   0.975   5.353
  197POPC   C4A 2913   7.416   0.996   5.782
  197POPC   C1B 2914   7.320   1.513   4.816
  197POPC   C2B 2915   7.230   1.493   5.279
  197POPC   C3B 2916   6.970   1.270   5.606
  197POPC   C4B 2917   7.009   1.217   6.041
  198POPC   NC3 2918   9.756   9.127   3.966
  198POPC   PO4 2919   9.254   8.684   4.023
  198POPC   GL1 2920   9.435   8.867   4.308
  198POPC   GL2 2921   9.721   8.666   4.298
  198POPC   C1A 2922   9.539   8.878   4.726
  198POPC   D2A 2923   9.387   8.948   5.098
  198POPC   C3A 2924   9.582   9.167   5.393
  198POPC   C4A 2925   9.558   9.092   5.800
  198POPC   C1B 2926   9.928   8.531   4.682
  198POPC   C2B 2927   9.778   8.594   5.123
  198POPC   C3B 2928   9.626   8.661   5.545
  198POPC   C4B 2929   9.779   8.698   6.017
  199POPC   NC3 2930   8.796  10.732   4.036
  199POPC   PO4 2931   9.065  10.141   3.926
  199POPC   GL1 2932   9.232  10.422   4.251
  199POPC   GL2 2933   8.902  10.358   4.370
  199POPC   C1A 2934   9.188  10.554   4.713
  199POPC   D2A 2935   8.961  10.225   4.989
  199POPC   C3A 2936   9.029  10.350   5.438
  199POPC   C4A 2937   9.043  10.567   5.887
  199POPC   C1B 2938   8.579  10.170   4.596
  199POPC   C2B 2939   8.491  10.008   4.998
  199POPC   C3B 2940   8.506  10.229   5.387
  199POPC   C4B 2941   8.703  10.225   5.792
  200POPC   NC3 2942   1.487   8.889   4.038
  200POPC   PO4 2943   0.892   8.584   3.987
  200POPC   GL1 2944   1.084   8.810   4.358
  200POPC   GL2 2945   1.143   9.160   4.310
  200POPC   C1A 2946   1.294   8.632   4.771
  200POPC   D2A 2947   1.295   8.418   5.212
  200POPC   C3A 2948   1.096   8.649   5.576
  200POPC   C4A 2949   1.262   8.630   6.017
  200POPC   C1B 2950   1.148   9.125   4.792
  200POPC   C2B 2951   1.331   8.977   5.226
  200POPC   C3B 2952   1.320   9.105   5.668
  200POPC   C4B 2953   0.931   9.114   5.832
  201POPC   NC3 2954   9.716   4.100   3.855
  201POPC   PO4 2955   9.805   3.450   3.923
  201POPC   GL1 2956   9.784   3.674   4.308
  201POPC   GL2 2957   9.443   3.787   4.370
  201POPC   C1A 2958   9.749   3.776   4.773
  201POPC   D2A 2959   9.555   3.855   5.180
  201POPC   C3A 2960   9.776   3.974   5.580
  201POPC   C4A 2961   9.971   3.825   5.990
  201POPC   C1B 2962   9.398   3.390   4.656
  201POPC   C2B 2963   9.445   3.257   5.076
  201POPC   C3B 2964   9.462   3.441   5.479
  201POPC   C4B 2965   9.163   3.568   5.737
  202POPC   NC3 2966   5.878   1.067   3.919
  202POPC   PO4 2967   5.384   1.552   3.865
  202POPC   GL1 2968   5.457   1.539   4.278
  202POPC   GL2 2969   5.531   1.195   4.280
  202POPC   C1A 2970   5.641   1.425   4.695
  202POPC   D2A 2971   5.464   1.352   5.071
  202POPC   C3A 2972   5.761   1.477   5.355
  202POPC   C4A 2973   5.966   1.660   5.709
  202POPC   C1B 2974   5.439   0.952   4.685
  202POPC   C2B 2975   5.490   0.831   5.110
  202POPC   C3B 2976   5.489   1.056   5.504
  202POPC   C4B 2977   5.953   1.120   5.679
  203POPC   NC3 2978   9.561   2.645   3.863
  203POPC   PO4 2979  10.181   2.537   3.768
  203POPC   GL1 2980   9.969   2.489   4.205
  203POPC   GL2 2981   9.659   2.670   4.356
  203POPC   C1A 2982  10.025   2.515   4.669
  203POPC   D2A 2983   9.888   2.278   5.031
  203POPC   C3A 2984   9.921   2.521   5.394
  203POPC   C4A 2985   9.871   2.554   5.833
  203POPC   C1B 2986   9.537   2.798   4.778
  203POPC   C2B 2987   9.422   2.553   5.138
  203POPC   C3B 2988   9.452   2.645   5.548
  203POPC   C4B 2989   9.716   3.007   5.646
  204POPC   NC3 2990  11.367   5.203   4.144
  204POPC   PO4 2991  10.767   4.833   4.194
  204POPC   GL1 2992  10.819   4.895   4.539
  204POPC   GL2 2993  10.955   5.244   4.468
  204POPC   C1A 2994  10.740   4.721   4.952
  204POPC   D2A 2995  10.985   4.799   5.315
  204POPC   C3A 2996  10.881   4.965   5.674
  204POPC   C4A 2997  10.720   5.349   5.695
  204POPC   C1B 2998  11.184   5.035   4.829
  204POPC   C2B 2999  11.472   4.900   5.113
  204POPC   C3B 3000  11.421   5.042   5.501
  204POPC   C4B 3001  11.454   4.821   5.823
  205POPC   NC3 3002  10.271   3.652   3.853
  205POPC   PO4 3003  10.899   3.995   3.910
  205POPC   GL1 3004  10.637   3.676   4.252
  205POPC   GL2 3005  10.296   3.504   4.324
  205POPC   C1A 3006  10.611   3.410   4.700
  205POPC   D2A 3007  10.549   3.596   5.132
  205POPC   C3A 3008  10.539   3.326   5.513
  205POPC   C4A 3009  10.851   3.294   5.826
  205POPC   C1B 3010  10.265   3.797   4.687
  205POPC   C2B 3011  10.113   3.885   5.122
  205POPC   C3B 3012  10.241   3.751   5.551
  205POPC   C4B 3013  10.149   3.366   5.852
  206POPC   NC3 3014   3.687   1.011   3.778
  206POPC   PO4 3015   3.593   1.591   3.678
  206POPC   GL1 3016   3.424   1.385   4.303
  206POPC   GL2 3017   3.477   1.024   4.263
  206POPC   C1A 3018   3.698   1.169   4.704
  206POPC   D2A 3019   3.818   0.915   5.114
  206POPC   C3A 3020   3.706   1.099   5.551
  206POPC   C4A 3021   3.672   1.421   5.896
  206POPC   C1B 3022   3.342   0.815   4.624
  206POPC   C2B 3023   3.309   0.983   5.035
  206POPC   C3B 3024   3.201   1.130   5.436
  206POPC   C4B 3025   3.289   1.070   5.866
  207POPC   NC3 3026   5.795   9.756   3.879
  207POPC   PO4 3027   5.676   9.180   4.071
  207POPC   GL1 3028   5.633   9.476   4.435
  207POPC   GL2 3029   5.629   9.831   4.378
  207POPC   C1A 3030   5.777   9.589   4.886
  207POPC   D2A 3031   5.729   9.491   5.359
  207POPC   C3A 3032   6.107   9.565   5.682
  207POPC   C4A 3033   6.333   9.507   6.117
  207POPC   C1B 3034   5.326   9.776   4.746
  207POPC   C2B 3035   5.225   9.586   5.204
  207POPC   C3B 3036   5.342   9.662   5.680
  207POPC   C4B 3037   5.423   9.899   6.116
  208POPC   NC3 3038   0.512  11.416   4.027
  208POPC   PO4 3039   0.793  10.776   3.893
  208POPC   GL1 3040   0.547  10.957   4.237
  208POPC   GL2 3041   0.182  11.032   4.198
  208POPC   C1A 3042   0.652  11.090   4.664
  208POPC   D2A 3043   0.789  11.249   5.073
  208POPC   C3A 3044   0.908  10.936   5.359
  208POPC   C4A 3045   0.619  10.837   5.679
  208POPC   C1B 3046   0.214  10.818   4.651
  208POPC   C2B 3047   0.364  10.890   5.134
  208POPC   C3B 3048   0.272  11.183   5.525
  208POPC   C4B 3049   0.092   0.108   5.627
  209POPC   NC3 3050   3.312  10.286   3.630
  209POPC   PO4 3051   3.755   9.940   4.024
  209POPC   GL1 3052   3.682   9.842   4.403
  209POPC   GL2 3053   3.729   9.506   4.389
  209POPC   C1A 3054   3.343   9.821   4.697
  209POPC   D2A 3055   3.265   9.697   5.102
  209POPC   C3A 3056   3.469   9.794   5.494
  209POPC   C4A 3057   3.274  10.015   5.783
  209POPC   C1B 3058   3.575   9.385   4.808
  209POPC   C2B 3059   3.672   9.393   5.254
  209POPC   C3B 3060   3.542   9.328   5.697
  209POPC   C4B 3061   3.666   9.254   6.150
  210POPC   NC3 3062   0.175   7.993   3.393
  210POPC   PO4 3063   0.293   7.791   4.061
  210POPC   GL1 3064   0.243   8.013   4.373
  210POPC   GL2 3065   0.543   8.187   4.335
  210POPC   C1A 3066   0.399   7.878   4.763
  210POPC   D2A 3067   0.205   7.781   5.119
  210POPC   C3A 3068   0.352   7.981   5.493
  210POPC   C4A 3069   0.156   8.275   5.731
  210POPC   C1B 3070   0.385   8.376   4.697
  210POPC   C2B 3071   0.478   8.317   5.092
  210POPC   C3B 3072   0.515   8.517   5.438
  210POPC   C4B 3073   0.635   8.414   5.843
  211POPC   NC3 3074   7.820  10.424   3.848
  211POPC   PO4 3075   8.427  10.813   3.742
  211POPC   GL1 3076   8.224  10.663   4.169
  211POPC   GL2 3077   8.044  10.341   4.277
  211POPC   C1A 3078   8.129  10.685   4.662
  211POPC   D2A 3079   7.897  10.758   5.079
  211POPC   C3A 3080   8.135  10.620   5.460
  211POPC   C4A 3081   8.227  10.386   5.834
  211POPC   C1B 3082   8.074  10.128   4.649
  211POPC   C2B 3083   8.077  10.276   5.065
  211POPC   C3B 3084   7.957  10.128   5.471
  211POPC   C4B 3085   7.885   9.993   5.915
  212POPC   NC3 3086   1.661   5.394   4.044
  212POPC   PO4 3087   1.855   6.000   3.783
  212POPC   GL1 3088   1.768   5.916   4.198
  212POPC   GL2 3089   2.007   5.729   4.336
  212POPC   C1A 3090   1.614   5.973   4.605
  212POPC   D2A 3091   1.653   5.998   5.036
  212POPC   C3A 3092   1.910   6.048   5.377
  212POPC   C4A 3093   1.786   5.952   5.809
  212POPC   C1B 3094   1.942   5.622   4.760
  212POPC   C2B 3095   1.926   5.534   5.189
  212POPC   C3B 3096   1.990   5.494   5.634
  212POPC   C4B 3097   1.966   5.267   6.014
  213POPC   NC3 3098   5.616  11.281   3.541
  213POPC   PO4 3099   6.169   0.208   3.788
  213POPC   GL1 3100   6.101   0.078   4.221
  213POPC   GL2 3101   5.841  11.329   4.215
  213POPC   C1A 3102   5.995   0.049   4.684
  213POPC   D2A 3103   6.084  11.230   5.021
  213POPC   C3A 3104   6.069  11.408   5.410
  213POPC   C4A 3105   6.130  11.230   5.810
  213POPC   C1B 3106   5.793  11.083   4.594
  213POPC   C2B 3107   5.651  10.946   5.013
  213POPC   C3B 3108   5.683  11.083   5.422
  213POPC   C4B 3109   5.631  11.237   5.823
  214POPC   NC3 3110   0.243   4.918   3.804
  214POPC   PO4 3111   0.864   4.551   3.891
  214POPC   GL1 3112   0.735   4.804   4.266
  214POPC   GL2 3113   0.398   4.895   4.305
  214POPC   C1A 3114   0.756   4.974   4.692
  214POPC   D2A 3115   0.755   4.817   5.109
  214POPC   C3A 3116   0.387   4.693   5.368
  214POPC   C4A 3117   0.463   4.785   5.802
  214POPC   C1B 3118   0.238   5.036   4.688
  214POPC   C2B 3119   0.417   5.225   5.051
  214POPC   C3B 3120   0.415   5.198   5.490
  214POPC   C4B 3121   0.206   5.252   5.905
  215POPC   NC3 3122   5.644   0.188   3.894
  215POPC   PO4 3123   5.448   0.851   3.916
  215POPC   GL1 3124   5.652   0.676   4.292
  215POPC   GL2 3125   5.681   0.321   4.363
  215POPC   C1A 3126   5.821   0.600   4.745
  215POPC   D2A 3127   5.847   0.389   5.137
  215POPC   C3A 3128   5.790   0.640   5.528
  215POPC   C4A 3129   5.619   0.816   5.929
  215POPC   C1B 3130   5.485   0.021   4.624
  215POPC   C2B 3131   5.613  11.440   5.049
  215POPC   C3B 3132   5.596   0.102   5.467
  215POPC   C4B 3133   5.898   0.220   5.782
  216POPC   NC3 3134   2.935   7.634   3.996
  216POPC   PO4 3135   2.338   7.996   3.982
  216POPC   GL1 3136   2.659   7.954   4.296
  216POPC   GL2 3137   2.520   8.210   4.442
  216POPC   C1A 3138   2.875   7.997   4.739
  216POPC   D2A 3139   2.865   8.219   5.188
  216POPC   C3A 3140   2.961   8.073   5.625
  216POPC   C4A 3141   2.703   7.859   5.959
  216POPC   C1B 3142   2.602   8.442   4.782
  216POPC   C2B 3143   2.393   8.381   5.178
  216POPC   C3B 3144   2.475   8.212   5.584
  216POPC   C4B 3145   2.658   8.366   5.960
  217POPC   NC3 3146   1.805   6.472   3.897
  217POPC   PO4 3147   2.410   6.414   3.861
  217POPC   GL1 3148   2.189   6.204   4.202
  217POPC   GL2 3149   2.016   6.484   4.354
  217POPC   C1A 3150   2.075   6.132   4.691
  217POPC   D2A 3151   2.216   6.413   5.019
  217POPC   C3A 3152   2.125   6.548   5.453
  217POPC   C4A 3153   1.759   6.441   5.690
  217POPC   C1B 3154   1.785   6.552   4.756
  217POPC   C2B 3155   1.697   6.562   5.190
  217POPC   C3B 3156   1.743   6.909   5.494
  217POPC   C4B 3157   2.008   6.876   5.845
  218POPC   NC3 3158   0.506   3.351   3.953
  218POPC   PO4 3159   0.092   3.917   3.929
  218POPC   GL1 3160   0.388   3.766   4.275
  218POPC   GL2 3161   0.389   3.445   4.430
  218POPC   C1A 3162   0.626   3.856   4.646
  218POPC   D2A 3163   0.396   3.785   5.043
  218POPC   C3A 3164   0.516   3.668   5.465
  218POPC   C4A 3165   0.276   3.774   5.790
  218POPC   C1B 3166   0.393   3.203   4.761
  218POPC   C2B 3167   0.500   3.278   5.146
  218POPC   C3B 3168   0.274   3.181   5.478
  218POPC   C4B 3169   0.436   3.284   5.829
  219POPC   NC3 3170  10.284   7.039   4.054
  219POPC   PO4 3171  10.908   7.335   3.968
  219POPC   GL1 3172  10.788   7.117   4.288
  219POPC   GL2 3173  10.533   7.364   4.366
  219POPC   C1A 3174  10.795   7.057   4.715
  219POPC   D2A 3175  10.668   6.908   5.111
  219POPC   C3A 3176  10.650   7.133   5.490
  219POPC   C4A 3177  10.277   7.120   5.696
  219POPC   C1B 3178  10.639   7.723   4.632
  219POPC   C2B 3179  10.455   7.795   5.036
  219POPC   C3B 3180  10.324   7.494   5.316
  219POPC   C4B 3181  10.474   7.599   5.698
  220POPC   NC3 3182  10.562   4.514   3.947
  220POPC   PO4 3183  10.115   4.030   4.065
  220POPC   GL1 3184  10.228   4.372   4.329
  220POPC   GL2 3185  10.531   4.472   4.453
  220POPC   C1A 3186  10.188   4.296   4.762
  220POPC   D2A 3187  10.433   4.293   5.081
  220POPC   C3A 3188  10.184   4.272   5.439
  220POPC   C4A 3189  10.087   4.399   5.828
  220POPC   C1B 3190  10.686   4.104   4.633
  220POPC   C2B 3191  10.863   4.014   5.039
  220POPC   C3B 3192  10.815   4.287   5.401
  220POPC   C4B 3193  10.570   4.190   5.756
  221POPC   NC3 3194   5.006   8.181   3.860
  221POPC   PO4 3195   4.752   7.681   4.134
  221POPC   GL1 3196   4.935   7.938   4.464
  221POPC   GL2 3197   4.911   8.263   4.356
  221POPC   C1A 3198   4.850   8.098   4.896
  221POPC   D2A 3199   4.542   8.259   5.193
  221POPC   C3A 3200   4.524   8.074   5.611
  221POPC   C4A 3201   4.759   7.773   5.872
  221POPC   C1B 3202   5.200   8.403   4.670
  221POPC   C2B 3203   5.295   8.240   5.102
  221POPC   C3B 3204   5.014   8.185   5.476
  221POPC   C4B 3205   4.878   8.284   5.922
  222POPC   NC3 3206   1.231   4.262   3.923
  222POPC   PO4 3207   1.231   3.713   4.057
  222POPC   GL1 3208   1.066   3.994   4.386
  222POPC   GL2 3209   1.047   4.378   4.368
  222POPC   C1A 3210   1.076   4.004   4.854
  222POPC   D2A 3211   1.311   3.962   5.234
  222POPC   C3A 3212   1.262   4.202   5.662
  222POPC   C4A 3213   1.493   4.032   6.058
  222POPC   C1B 3214   1.040   4.522   4.774
  222POPC   C2B 3215   1.120   4.430   5.190
  222POPC   C3B 3216   0.854   4.531   5.520
  222POPC   C4B 3217   0.917   4.562   5.914
  223POPC   NC3 3218   2.607   8.370   3.967
  223POPC   PO4 3219   2.607   9.042   3.872
  223POPC   GL1 3220   2.760   8.814   4.242
  223POPC   GL2 3221   2.457   8.715   4.350
  223POPC   C1A 3222   2.908   8.844   4.698
  223POPC   D2A 3223   2.746   8.781   5.132
  223POPC   C3A 3224   2.831   8.612   5.543
  223POPC   C4A 3225   3.108   8.607   5.919
  223POPC   C1B 3226   2.497   9.115   4.588
  223POPC   C2B 3227   2.531   9.254   5.049
  223POPC   C3B 3228   2.674   9.134   5.489
  223POPC   C4B 3229   3.067   9.078   5.707
  224POPC   NC3 3230  10.000   0.326   4.030
  224POPC   PO4 3231  10.678   0.150   4.160
  224POPC   GL1 3232  10.315   0.246   4.432
  224POPC   GL2 3233  10.172   0.602   4.446
  224POPC   C1A 3234  10.206   0.287   4.866
  224POPC   D2A 3235  10.352   0.510   5.230
  224POPC   C3A 3236  10.469   0.249   5.591
  224POPC   C4A 3237  10.110   0.117   5.814
  224POPC   C1B 3238  10.542   0.650   4.724
  224POPC   C2B 3239  10.820   0.706   5.086
  224POPC   C3B 3240  10.678   0.765   5.527
  224POPC   C4B 3241  10.635   0.701   5.998
  225POPC   NC3 3242   2.205   3.045   4.017
  225POPC   PO4 3243   1.777   2.797   3.664
  225POPC   GL1 3244   1.773   2.649   4.148
  225POPC   GL2 3245   2.081   2.601   4.237
  225POPC   C1A 3246   1.688   2.759   4.627
  225POPC   D2A 3247   1.607   2.930   5.063
  225POPC   C3A 3248   1.772   2.694   5.420
  225POPC   C4A 3249   1.706   2.845   5.824
  225POPC   C1B 3250   2.193   2.818   4.621
  225POPC   C2B 3251   2.108   2.847   5.056
  225POPC   C3B 3252   2.326   2.785   5.433
  225POPC   C4B 3253   2.173   2.640   5.822
  226POPC   NC3 3254   6.886   7.945   3.865
  226POPC   PO4 3255   7.011   8.484   3.812
  226POPC   GL1 3256   7.067   8.446   4.285
  226POPC   GL2 3257   7.367   8.285   4.398
  226POPC   C1A 3258   7.059   8.464   4.777
  226POPC   D2A 3259   7.265   8.316   5.181
  226POPC   C3A 3260   7.119   8.370   5.611
  226POPC   C4A 3261   7.032   8.056   5.939
  226POPC   C1B 3262   7.572   8.458   4.790
  226POPC   C2B 3263   7.775   8.338   5.183
  226POPC   C3B 3264   7.612   8.234   5.604
  226POPC   C4B 3265   7.472   8.296   6.055
  227POPC   NC3 3266   1.341   0.319   4.012
  227POPC   PO4 3267   1.155   0.951   3.943
  227POPC   GL1 3268   1.093   0.698   4.342
  227POPC   GL2 3269   0.953   0.342   4.422
  227POPC   C1A 3270   0.987   0.722   4.779
  227POPC   D2A 3271   0.786   0.901   5.123
  227POPC   C3A 3272   0.984   0.726   5.497
  227POPC   C4A 3273   1.216   0.705   5.895
  227POPC   C1B 3274   1.324   0.336   4.722
  227POPC   C2B 3275   1.234   0.415   5.150
  227POPC   C3B 3276   1.399   0.384   5.532
  227POPC   C4B 3277   1.522   0.022   5.749
  228POPC   NC3 3278  10.840   7.793   3.907
  228POPC   PO4 3279  11.441   7.675   3.658
  228POPC   GL1 3280  11.345   7.531   4.166
  228POPC   GL2 3281  11.323   7.194   4.249
  228POPC   C1A 3282  11.083   7.465   4.617
  228POPC   D2A 3283  10.847   7.428   5.065
  228POPC   C3A 3284  10.990   7.578   5.501
  228POPC   C4A 3285  10.906   7.599   5.974
  228POPC   C1B 3286  11.310   7.015   4.661
  228POPC   C2B 3287  11.174   6.880   5.055
  228POPC   C3B 3288  11.160   7.081   5.464
  228POPC   C4B 3289  11.268   7.282   5.861
  229POPC   NC3 3290   4.432   2.610   3.959
  229POPC   PO4 3291   3.996   2.948   4.015
  229POPC   GL1 3292   4.038   2.670   4.401
  229POPC   GL2 3293   4.288   2.375   4.380
  229POPC   C1A 3294   3.859   2.755   4.826
  229POPC   D2A 3295   3.635   2.642   5.225
  229POPC   C3A 3296   3.837   2.624   5.646
  229POPC   C4A 3297   4.125   2.652   6.030
  229POPC   C1B 3298   4.299   2.479   4.803
  229POPC   C2B 3299   4.132   2.532   5.213
  229POPC   C3B 3300   4.318   2.439   5.603
  229POPC   C4B 3301   4.613   2.722   5.800
  230POPC   NC3 3302   4.839   9.924   4.044
  230POPC   PO4 3303   5.476  10.086   3.938
  230POPC   GL1 3304   5.380  10.299   4.307
  230POPC   GL2 3305   5.276  10.663   4.273
  230POPC   C1A 3306   5.227  10.296   4.715
  230POPC   D2A 3307   5.023  10.455   5.086
  230POPC   C3A 3308   5.104  10.145   5.392
  230POPC   C4A 3309   5.373  10.183   5.713
  230POPC   C1B 3310   4.924  10.715   4.590
  230POPC   C2B 3311   4.801  10.924   4.995
  230POPC   C3B 3312   4.748  10.772   5.403
  230POPC   C4B 3313   5.114  10.628   5.633
  231POPC   NC3 3314  10.541   2.700   4.002
  231POPC   PO4 3315  10.795   3.312   3.914
  231POPC   GL1 3316  10.818   3.060   4.300
  231POPC   GL2 3317  10.498   2.994   4.424
  231POPC   C1A 3318  10.968   2.962   4.724
  231POPC   D2A 3319  10.806   3.098   5.136
  231POPC   C3A 3320  10.797   2.864   5.537
  231POPC   C4A 3321  10.723   2.574   5.872
  231POPC   C1B 3322  10.571   2.605   4.671
  231POPC   C2B 3323  10.408   2.383   5.042
  231POPC   C3B 3324  10.420   2.512   5.464
  231POPC   C4B 3325  10.237   2.875   5.661
  232POPC   NC3 3326   7.256  10.854   4.015
  232POPC   PO4 3327   6.926  11.477   3.797
  232POPC   GL1 3328   7.013  11.289   4.251
  232POPC   GL2 3329   7.347  11.137   4.415
  232POPC   C1A 3330   6.935  11.244   4.730
  232POPC   D2A 3331   7.007  11.432   5.163
  232POPC   C3A 3332   7.028  11.199   5.578
  232POPC   C4A 3333   6.829  11.310   5.991
  232POPC   C1B 3334   7.378  10.958   4.836
  232POPC   C2B 3335   7.495  11.268   5.150
  232POPC   C3B 3336   7.531  11.366   5.569
  232POPC   C4B 3337   7.533  10.931   5.785
  233POPC   NC3 3338   1.578   3.733   3.770
  233POPC   PO4 3339   1.681   3.145   4.066
  233POPC   GL1 3340   1.652   3.518   4.278
  233POPC   GL2 3341   1.995   3.524   4.281
  233POPC   C1A 3342   1.530   3.755   4.653
  233POPC   D2A 3343   1.758   3.958   4.967
  233POPC   C3A 3344   1.763   3.788   5.362
  233POPC   C4A 3345   1.857   3.637   5.737
  233POPC   C1B 3346   1.946   3.272   4.686
  233POPC   C2B 3347   1.976   3.347   5.127
  233POPC   C3B 3348   1.978   3.164   5.530
  233POPC   C4B 3349   2.033   3.206   5.990
  234POPC   NC3 3350   8.988   1.850   3.846
  234POPC   PO4 3351   8.445   2.307   3.985
  234POPC   GL1 3352   8.827   2.163   4.219
  234POPC   GL2 3353   8.755   1.818   4.286
  234POPC   C1A 3354   9.047   2.082   4.650
  234POPC   D2A 3355   8.989   2.293   5.057
  234POPC   C3A 3356   9.026   2.023   5.400
  234POPC   C4A 3357   8.986   2.069   5.818
  234POPC   C1B 3358   8.553   1.989   4.627
  234POPC   C2B 3359   8.586   1.861   5.057
  234POPC   C3B 3360   8.331   1.935   5.419
  234POPC   C4B 3361   8.464   1.955   5.843
  235POPC   NC3 3362   9.487  11.446   3.610
  235POPC   PO4 3363   9.260   0.587   3.793
  235POPC   GL1 3364   9.317   0.564   4.208
  235POPC   GL2 3365   9.647   0.589   4.289
  235POPC   C1A 3366   9.252   0.403   4.605
  235POPC   D2A 3367   9.228   0.576   5.011
  235POPC   C3A 3368   9.315   0.285   5.328
  235POPC   C4A 3369   9.515   0.198   5.707
  235POPC   C1B 3370   9.746   0.519   4.720
  235POPC   C2B 3371   9.780   0.406   5.140
  235POPC   C3B 3372   9.886   0.505   5.524
  235POPC   C4B 3373  10.215   0.660   5.747
  236POPC   NC3 3374   8.878   0.917   3.918
  236POPC   PO4 3375   8.534   1.583   3.823
  236POPC   GL1 3376   8.629   1.335   4.190
  236POPC   GL2 3377   8.972   1.323   4.266
  236POPC   C1A 3378   8.616   1.443   4.656
  236POPC   D2A 3379   8.603   1.332   5.112
  236POPC   C3A 3380   8.713   1.604   5.494
  236POPC   C4A 3381   9.086   1.571   5.753
  236POPC   C1B 3382   8.994   1.037   4.628
  236POPC   C2B 3383   9.089   1.074   5.070
  236POPC   C3B 3384   8.941   1.155   5.473
  236POPC   C4B 3385   9.072   1.030   5.846
  237POPC   NC3 3386   0.236   7.349   3.886
  237POPC   PO4 3387   0.875   7.012   3.899
  237POPC   GL1 3388   0.646   7.104   4.326
  237POPC   GL2 3389   0.321   7.260   4.361
  237POPC   C1A 3390   0.600   7.325   4.778
  237POPC   D2A 3391   0.353   7.250   5.186
  237POPC   C3A 3392   0.462   7.258   5.663
  237POPC   C4A 3393   0.209   7.163   6.058
  237POPC   C1B 3394   0.099   7.435   4.699
  237POPC   C2B 3395  11.369   7.377   5.089
  237POPC   C3B 3396   0.025   7.526   5.516
  237POPC   C4B 3397   0.269   7.657   5.912
  238POPC   NC3 3398   5.515   1.979   3.959
  238POPC   PO4 3399   5.918   2.371   4.072
  238POPC   GL1 3400   5.841   2.025   4.349
  238POPC   GL2 3401   5.947   1.700   4.247
  238POPC   C1A 3402   5.531   1.912   4.680
  238POPC   D2A 3403   5.352   1.847   5.115
  238POPC   C3A 3404   5.591   1.944   5.492
  238POPC   C4A 3405   5.837   2.149   5.831
  238POPC   C1B 3406   6.039   1.749   4.733
  238POPC   C2B 3407   6.041   1.896   5.190
  238POPC   C3B 3408   6.280   2.053   5.558
  238POPC   C4B 3409   6.281   1.978   6.019
  239POPC   NC3 3410   0.697   6.632   4.110
  239POPC   PO4 3411   0.101   6.896   3.950
  239POPC   GL1 3412   0.233   6.749   4.314
  239POPC   GL2 3413   0.164   6.392   4.256
  239POPC   C1A 3414   0.298   6.903   4.731
  239POPC   D2A 3415   0.438   6.739   5.086
  239POPC   C3A 3416   0.367   6.784   5.514
  239POPC   C4A 3417   0.653   6.566   5.774
  239POPC   C1B 3418   0.370   6.394   4.665
  239POPC   C2B 3419   0.442   6.219   5.085
  239POPC   C3B 3420   0.322   6.273   5.499
  239POPC   C4B 3421   0.388   6.084   5.914
  240POPC   NC3 3422  10.438   9.635   3.803
  240POPC   PO4 3423  10.875   9.138   3.775
  240POPC   GL1 3424  10.502   9.261   4.136
  240POPC   GL2 3425  10.659   9.550   4.261
  240POPC   C1A 3426  10.435   9.307   4.658
  240POPC   D2A 3427  10.526   9.193   5.123
  240POPC   C3A 3428  10.403   9.441   5.449
  240POPC   C4A 3429  10.634   9.748   5.639
  240POPC   C1B 3430  10.353   9.797   4.510
  240POPC   C2B 3431  10.302   9.765   4.981
  240POPC   C3B 3432  10.189   9.906   5.442
  240POPC   C4B 3433  10.311   9.997   5.930
  241POPC   NC3 3434   4.841  11.128   3.831
  241POPC   PO4 3435   5.511  10.957   3.842
  241POPC   GL1 3436   5.347  11.179   4.218
  241POPC   GL2 3437   4.997  11.237   4.303
  241POPC   C1A 3438   5.279  11.061   4.671
  241POPC   D2A 3439   5.120  11.331   4.986
  241POPC   C3A 3440   5.155  11.137   5.386
  241POPC   C4A 3441   5.181  11.426   5.711
  241POPC   C1B 3442   4.707  11.299   4.664
  241POPC   C2B 3443   4.616  11.444   5.094
  241POPC   C3B 3444   4.538  11.295   5.494
  241POPC   C4B 3445   4.774  11.123   5.763
  242POPC   NC3 3446  11.281   5.984   3.550
  242POPC   PO4 3447  10.981   5.616   4.033
  242POPC   GL1 3448  11.130   5.730   4.423
  242POPC   GL2 3449  11.442   5.657   4.334
  242POPC   C1A 3450  11.216   5.548   4.845
  242POPC   D2A 3451  11.067   5.364   5.275
  242POPC   C3A 3452  11.055   5.711   5.601
  242POPC   C4A 3453  10.907   6.135   5.548
  242POPC   C1B 3454   0.043   5.990   4.610
  242POPC   C2B 3455  11.275   6.064   4.937
  242POPC   C3B 3456  11.379   6.046   5.359
  242POPC   C4B 3457  11.389   6.220   5.773
  243POPC   NC3 3458   8.055  11.133   3.828
  243POPC   PO4 3459   7.695  10.779   4.162
  243POPC   GL1 3460   7.964  11.098   4.339
  243POPC   GL2 3461   8.351  11.183   4.243
  243POPC   C1A 3462   7.839  11.157   4.750
  243POPC   D2A 3463   8.005  11.263   5.137
  243POPC   C3A 3464   7.961  11.085   5.546
  243POPC   C4A 3465   7.868  11.291   5.955
  243POPC   C1B 3466   8.350  11.170   4.699
  243POPC   C2B 3467   8.421  10.972   5.097
  243POPC   C3B 3468   8.480  11.210   5.458
  243POPC   C4B 3469   8.353  11.152   5.894
  244POPC   NC3 3470   2.148   9.016   3.886
  244POPC   PO4 3471   1.572   9.336   3.998
  244POPC   GL1 3472   1.640   9.212   4.410
  244POPC   GL2 3473   1.886   8.988   4.332
  244POPC   C1A 3474   1.650   9.014   4.824
  244POPC   D2A 3475   1.804   8.748   5.174
  244POPC   C3A 3476   1.662   8.733   5.633
  244POPC   C4A 3477   1.662   8.962   6.047
  244POPC   C1B 3478   2.043   8.772   4.628
  244POPC   C2B 3479   2.270   8.819   4.958
  244POPC   C3B 3480   2.273   8.828   5.409
  244POPC   C4B 3481   2.097   8.992   5.772
  245POPC   NC3 3482   4.334   0.489   3.808
  245POPC   PO4 3483   4.149  11.353   3.904
  245POPC   GL1 3484   4.291   0.171   4.244
  245POPC   GL2 3485   4.249   0.519   4.344
  245POPC   C1A 3486   4.350   0.197   4.713
  245POPC   D2A 3487   4.140   0.287   5.098
  245POPC   C3A 3488   4.379   0.281   5.454
  245POPC   C4A 3489   4.367   0.288   5.890
  245POPC   C1B 3490   4.297   0.721   4.783
  245POPC   C2B 3491   4.515   0.724   5.199
  245POPC   C3B 3492   4.507   0.737   5.660
  245POPC   C4B 3493   4.045   0.650   5.735
  246POPC   NC3 3494   8.786   9.758   3.956
  246POPC   PO4 3495   9.369   9.404   3.936
  246POPC   GL1 3496   9.137   9.505   4.308
  246POPC   GL2 3497   9.194   9.875   4.356
  246POPC   C1A 3498   9.092   9.241   4.720
  246POPC   D2A 3499   8.914   9.104   5.153
  246POPC   C3A 3500   9.095   9.316   5.549
  246POPC   C4A 3501   9.113   9.170   6.011
  246POPC   C1B 3502   8.852   9.736   4.677
  246POPC   C2B 3503   8.765   9.597   5.120
  246POPC   C3B 3504   8.855   9.814   5.524
  246POPC   C4B 3505   9.202  10.015   5.777
  247POPC   NC3 3506   2.297   0.568   3.858
  247POPC   PO4 3507   1.778   0.169   3.985
  247POPC   GL1 3508   2.024   0.231   4.323
  247POPC   GL2 3509   2.142   0.590   4.341
  247POPC   C1A 3510   1.908   0.214   4.744
  247POPC   D2A 3511   1.770   0.157   5.159
  247POPC   C3A 3512   2.129   0.091   5.449
  247POPC   C4A 3513   2.061   0.052   5.857
  247POPC   C1B 3514   1.891   0.726   4.664
  247POPC   C2B 3515   1.673   0.653   5.043
  247POPC   C3B 3516   1.868   0.565   5.435
  247POPC   C4B 3517   2.139   0.572   5.758
  248POPC   NC3 3518  10.472   6.121   3.715
  248POPC   PO4 3519  10.617   6.721   3.966
  248POPC   GL1 3520  10.533   6.663   4.334
  248POPC   GL2 3521  10.403   6.338   4.239
  248POPC   C1A 3522  10.368   6.777   4.712
  248POPC   D2A 3523  10.242   6.532   5.048
  248POPC   C3A 3524  10.310   6.700   5.419
  248POPC   C4A 3525  10.035   6.573   5.727
  248POPC   C1B 3526  10.475   6.258   4.676
  248POPC   C2B 3527  10.371   6.012   5.014
  248POPC   C3B 3528  10.352   6.173   5.436
  248POPC   C4B 3529  10.512   6.383   5.759
  249POPC   NC3 3530   0.473   1.996   3.779
  249POPC   PO4 3531   0.115   2.282   4.174
  249POPC   GL1 3532   0.251   1.933   4.319
  249POPC   GL2 3533   0.584   1.987   4.281
  249POPC   C1A 3534   0.188   1.803   4.726
  249POPC   D2A 3535   0.346   1.948   5.093
  249POPC   C3A 3536   0.164   1.866   5.443
  249POPC   C4A 3537   0.001   2.216   5.647
  249POPC   C1B 3538   0.655   2.065   4.698
  249POPC   C2B 3539   0.674   2.324   5.054
  249POPC   C3B 3540   0.487   2.304   5.479
  249POPC   C4B 3541   0.506   1.954   5.789
  250POPC   NC3 3542   0.505   8.811   3.868
  250POPC   PO4 3543  11.427   8.421   3.780
  250POPC   GL1 3544   0.205   8.546   4.195
  250POPC   GL2 3545   0.536   8.702   4.345
  250POPC   C1A 3546   0.120   8.805   4.616
  250POPC   D2A 3547   0.347   8.824   5.034
  250POPC   C3A 3548   0.205   9.101   5.392
  250POPC   C4A 3549   0.087   9.131   5.844
  250POPC   C1B 3550   0.759   8.714   4.717
  250POPC   C2B 3551   0.881   8.715   5.100
  250POPC   C3B 3552   0.729   8.990   5.380
  250POPC   C4B 3553   0.502   8.895   5.759
  251POPC   NC3 3554  11.262  11.261   3.666
  251POPC   PO4 3555  10.816   0.159   3.647
  251POPC   GL1 3556  11.156   0.043   4.076
  251POPC   GL2 3557  11.198  11.218   4.167
  251POPC   C1A 3558  11.183   0.026   4.580
  251POPC   D2A 3559  11.034  11.284   4.982
  251POPC   C3A 3560  11.194  11.365   5.406
  251POPC   C4A 3561  11.104  11.479   5.849
  251POPC   C1B 3562  11.213  11.021   4.588
  251POPC   C2B 3563  11.302  10.810   4.975
  251POPC   C3B 3564  11.391  10.828   5.398
  251POPC   C4B 3565  11.179  10.977   5.744
  252POPC   NC3 3566   4.160   1.000   4.185
  252POPC   PO4 3567   4.615   1.390   3.802
  252POPC   GL1 3568   4.640   1.218   4.206
  252POPC   GL2 3569   4.398   1.423   4.346
  252POPC   C1A 3570   4.672   1.153   4.674
  252POPC   D2A 3571   4.548   1.205   5.091
  252POPC   C3A 3572   4.623   1.387   5.468
  252POPC   C4A 3573   4.832   1.262   5.832
  252POPC   C1B 3574   4.191   1.341   4.751
  252POPC   C2B 3575   4.078   1.348   5.182
  252POPC   C3B 3576   4.202   1.115   5.508
  252POPC   C4B 3577   4.155   1.461   5.747
  253POPC   NC3 3578   5.631  10.519   3.904
  253POPC   PO4 3579   6.100  10.084   3.905
  253POPC   GL1 3580   5.900  10.264   4.293
  253POPC   GL2 3581   5.968  10.631   4.301
  253POPC   C1A 3582   5.766  10.126   4.753
  253POPC   D2A 3583   5.556   9.969   5.163
  253POPC   C3A 3584   5.796   9.966   5.536
  253POPC   C4A 3585   5.879  10.287   5.792
  253POPC   C1B 3586   5.639  10.601   4.632
  253POPC   C2B 3587   5.551  10.464   5.076
  253POPC   C3B 3588   5.603  10.588   5.486
  253POPC   C4B 3589   5.932  10.779   5.756
  254POPC   NC3 3590   1.875  10.554   3.562
  254POPC   PO4 3591   2.423  10.924   3.818
  254POPC   GL1 3592   2.324  10.776   4.316
  254POPC   GL2 3593   1.985  10.602   4.460
  254POPC   C1A 3594   2.282  10.839   4.815
  254POPC   D2A 3595   1.973  10.749   5.167
  254POPC   C3A 3596   2.061  10.811   5.584
  254POPC   C4A 3597   2.321  10.682   5.880
  254POPC   C1B 3598   2.069  10.332   4.870
  254POPC   C2B 3599   2.164  10.169   5.290
  254POPC   C3B 3600   1.950  10.318   5.633
  254POPC   C4B 3601   1.600  10.603   5.629
  255POPC   NC3 3602   9.709  10.935   3.682
  255POPC   PO4 3603   9.561   0.121   4.028
  255POPC   GL1 3604   9.724   0.101   4.426
  255POPC   GL2 3605   9.687  11.279   4.453
  255POPC   C1A 3606   9.548   0.050   4.861
  255POPC   D2A 3607   9.455  11.299   5.247
  255POPC   C3A 3608   9.691  11.245   5.653
  255POPC   C4A 3609   9.752  11.453   6.122
  255POPC   C1B 3610   9.704  11.020   4.829
  255POPC   C2B 3611   9.409  10.806   5.108
  255POPC   C3B 3612   9.225  10.886   5.498
  255POPC   C4B 3613   9.431  10.887   5.905
  256POPC   NC3 3614   9.123   4.820   3.985
  256POPC   PO4 3615   8.570   5.092   3.815
  256POPC   GL1 3616   8.687   5.183   4.295
  256POPC   GL2 3617   9.036   5.159   4.397
  256POPC   C1A 3618   8.703   5.069   4.771
  256POPC   D2A 3619   8.830   4.862   5.199
  256POPC   C3A 3620   8.742   4.942   5.655
  256POPC   C4A 3621   8.432   4.896   6.003
  256POPC   C1B 3622   9.178   5.285   4.815
  256POPC   C2B 3623   9.201   5.234   5.265
  256POPC   C3B 3624   9.166   5.236   5.689
  256POPC   C4B 3625   9.232   4.952   6.013
  257POPC   NC3 3626   2.874   3.789   4.003
  257POPC   PO4 3627   2.667   3.174   3.942
  257POPC   GL1 3628   2.675   3.377   4.302
  257POPC   GL2 3629   2.399   3.266   4.453
  257POPC   C1A 3630   2.770   3.540   4.709
  257POPC   D2A 3631   2.926   3.374   5.094
  257POPC   C3A 3632   2.853   3.537   5.509
  257POPC   C4A 3633   3.109   3.432   5.861
  257POPC   C1B 3634   2.437   3.195   4.888
  257POPC   C2B 3635   2.454   3.262   5.308
  257POPC   C3B 3636   2.349   3.498   5.662
  257POPC   C4B 3637   2.607   3.503   5.987
  258POPC   NC3 3638   4.152  10.642   4.039
  258POPC   PO4 3639   4.407  10.018   4.129
  258POPC   GL1 3640   4.099  10.165   4.448
  258POPC   GL2 3641   3.815  10.347   4.331
  258POPC   C1A 3642   4.193  10.184   4.910
  258POPC   D2A 3643   4.587  10.154   5.190
  258POPC   C3A 3644   4.669  10.302   5.625
  258POPC   C4A 3645   4.701  10.642   5.916
  258POPC   C1B 3646   3.924  10.620   4.709
  258POPC   C2B 3647   3.887  10.525   5.149
  258POPC   C3B 3648   4.130  10.308   5.444
  258POPC   C4B 3649   4.231  10.436   5.857
  259POPC   NC3 3650   5.056   0.623   3.947
  259POPC   PO4 3651   5.239  11.492   3.743
  259POPC   GL1 3652   5.201   0.200   4.188
  259POPC   GL2 3653   4.833   0.241   4.301
  259POPC   C1A 3654   5.264   0.481   4.570
  259POPC   D2A 3655   5.329   0.356   5.014
  259POPC   C3A 3656   5.297   0.518   5.463
  259POPC   C4A 3657   5.399   0.349   5.893
  259POPC   C1B 3658   4.854   0.277   4.775
  259POPC   C2B 3659   4.866   0.370   5.235
  259POPC   C3B 3660   4.855   0.334   5.693
  259POPC   C4B 3661   4.821   0.483   6.128
  260POPC   NC3 3662   1.876   7.969   3.991
  260POPC   PO4 3663   1.884   8.649   3.951
  260POPC   GL1 3664   2.066   8.387   4.268
  260POPC   GL2 3665   1.752   8.335   4.409
  260POPC   C1A 3666   2.116   8.289   4.745
  260POPC   D2A 3667   1.812   8.234   5.092
  260POPC   C3A 3668   1.990   8.369   5.480
  260POPC   C4A 3669   2.172   8.514   5.852
  260POPC   C1B 3670   1.769   7.926   4.653
  260POPC   C2B 3671   1.698   7.716   5.074
  260POPC   C3B 3672   1.770   7.874   5.503
  260POPC   C4B 3673   1.576   8.229   5.721
  261POPC   NC3 3674   8.772   2.692   4.078
  261POPC   PO4 3675   9.338   2.966   4.092
  261POPC   GL1 3676   9.137   2.830   4.461
  261POPC   GL2 3677   9.135   2.517   4.421
  261POPC   C1A 3678   9.024   2.839   4.915
  261POPC   D2A 3679   8.967   2.740   5.364
  261POPC   C3A 3680   9.178   3.033   5.677
  261POPC   C4A 3681   9.165   3.171   6.063
  261POPC   C1B 3682   8.709   2.485   4.677
  261POPC   C2B 3683   8.485   2.358   5.075
  261POPC   C3B 3684   8.637   2.364   5.519
  261POPC   C4B 3685   8.600   2.768   5.747
  262POPC   NC3 3686   3.218  10.856   3.927
  262POPC   PO4 3687   3.308   0.012   3.988
  262POPC   GL1 3688   3.165  11.268   4.314
  262POPC   GL2 3689   3.459  11.121   4.331
  262POPC   C1A 3690   3.218  11.316   4.774
  262POPC   D2A 3691   3.250  11.124   5.178
  262POPC   C3A 3692   3.225  11.358   5.552
  262POPC   C4A 3693   3.321  11.417   5.999
  262POPC   C1B 3694   3.694  11.085   4.696
  262POPC   C2B 3695   3.741  11.014   5.119
  262POPC   C3B 3696   3.641  11.034   5.529
  262POPC   C4B 3697   3.821  10.696   5.703
  263POPC   NC3 3698  11.258   2.107   3.965
  263POPC   PO4 3699   0.169   1.615   3.913
  263POPC   GL1 3700  11.288   1.693   4.270
  263POPC   GL2 3701  10.933   1.930   4.294
  263POPC   C1A 3702  11.182   1.860   4.720
  263POPC   D2A 3703  11.319   2.064   5.093
  263POPC   C3A 3704  11.164   1.860   5.464
  263POPC   C4A 3705  11.391   1.802   5.898
  263POPC   C1B 3706  10.734   2.121   4.673
  263POPC   C2B 3707  10.804   2.061   5.108
  263POPC   C3B 3708  10.706   2.100   5.535
  263POPC   C4B 3709  11.006   2.152   5.847
  264POPC   NC3 3710   4.317   1.751   3.747
  264POPC   PO4 3711   3.852   1.339   4.087
  264POPC   GL1 3712   3.924   1.641   4.441
  264POPC   GL2 3713   4.166   1.855   4.244
  264POPC   C1A 3714   3.915   1.741   4.901
  264POPC   D2A 3715   4.049   2.039   5.197
  264POPC   C3A 3716   4.197   1.938   5.571
  264POPC   C4A 3717   3.904   1.886   5.909
  264POPC   C1B 3718   4.310   1.945   4.684
  264POPC   C2B 3719   4.448   1.731   5.096
  264POPC   C3B 3720   4.753   1.872   5.443
  264POPC   C4B 3721   4.744   2.204   5.788
  265POPC   NC3 3722   1.115   6.629   3.738
  265POPC   PO4 3723   1.469   6.421   4.199
  265POPC   GL1 3724   1.306   6.403   4.555
  265POPC   GL2 3725   0.984   6.371   4.448
  265POPC   C1A 3726   1.297   6.649   4.904
  265POPC   D2A 3727   1.282   6.864   5.262
  265POPC   C3A 3728   1.302   6.654   5.638
  265POPC   C4A 3729   1.527   6.871   5.984
  265POPC   C1B 3730   0.827   6.493   4.837
  265POPC   C2B 3731   0.858   6.538   5.272
  265POPC   C3B 3732   0.837   6.193   5.498
  265POPC   C4B 3733   1.034   6.247   5.874
  266POPC   NC3 3734   1.371   6.071   3.932
  266POPC   PO4 3735   1.193   5.440   3.938
  266POPC   GL1 3736   1.303   5.668   4.296
  266POPC   GL2 3737   1.039   5.877   4.296
  266POPC   C1A 3738   1.406   5.524   4.719
  266POPC   D2A 3739   1.260   5.678   5.130
  266POPC   C3A 3740   1.529   5.664   5.455
  266POPC   C4A 3741   1.513   5.474   5.822
  266POPC   C1B 3742   1.128   5.960   4.722
  266POPC   C2B 3743   1.191   6.198   5.087
  266POPC   C3B 3744   1.349   6.128   5.491
  266POPC   C4B 3745   1.066   5.759   5.640
  267POPC   NC3 3746   7.244   2.208   3.915
  267POPC   PO4 3747   7.100   1.586   3.604
  267POPC   GL1 3748   7.247   1.710   4.044
  267POPC   GL2 3749   7.567   1.885   4.170
  267POPC   C1A 3750   7.154   1.899   4.502
  267POPC   D2A 3751   7.184   1.967   4.989
  267POPC   C3A 3752   6.890   1.924   5.342
  267POPC   C4A 3753   7.037   1.761   5.739
  267POPC   C1B 3754   7.650   1.907   4.636
  267POPC   C2B 3755   7.660   1.790   5.075
  267POPC   C3B 3756   7.442   1.932   5.451
  267POPC   C4B 3757   7.163   2.252   5.608
  268POPC   NC3 3758  10.311   8.303   3.645
  268POPC   PO4 3759  10.052   7.775   3.853
  268POPC   GL1 3760  10.376   7.909   4.199
  268POPC   GL2 3761  10.406   8.285   4.289
  268POPC   C1A 3762  10.182   7.950   4.644
  268POPC   D2A 3763   9.931   8.100   5.003
  268POPC   C3A 3764  10.098   7.952   5.395
  268POPC   C4A 3765  10.145   7.960   5.806
  268POPC   C1B 3766  10.418   8.385   4.753
  268POPC   C2B 3767  10.314   8.363   5.191
  268POPC   C3B 3768  10.543   8.201   5.564
  268POPC   C4B 3769  10.570   8.383   5.973
  269POPC   NC3 3770   2.751   9.478   3.810
  269POPC   PO4 3771   2.182   9.854   3.819
  269POPC   GL1 3772   2.479   9.760   4.204
  269POPC   GL2 3773   2.786   9.556   4.305
  269POPC   C1A 3774   2.495   9.637   4.691
  269POPC   D2A 3775   2.747   9.730   5.077
  269POPC   C3A 3776   2.475   9.753   5.411
  269POPC   C4A 3777   2.283   9.418   5.614
  269POPC   C1B 3778   2.964   9.394   4.714
  269POPC   C2B 3779   3.037   9.254   5.151
  269POPC   C3B 3780   2.995   9.549   5.516
  269POPC   C4B 3781   2.788   9.807   5.812
  270POPC   NC3 3782   3.853  11.021   3.720
  270POPC   PO4 3783   4.525  10.794   3.799
  270POPC   GL1 3784   4.590  10.882   4.229
  270POPC   GL2 3785   4.490  11.194   4.230
  270POPC   C1A 3786   4.418  10.831   4.657
  270POPC   D2A 3787   4.379  10.634   5.061
  270POPC   C3A 3788   4.209  10.867   5.396
  270POPC   C4A 3789   4.285  10.941   5.825
  270POPC   C1B 3790   4.167  11.252   4.551
  270POPC   C2B 3791   4.178  11.227   4.989
  270POPC   C3B 3792   4.041  11.362   5.398
  270POPC   C4B 3793   3.941  11.331   5.839
  271POPC   NC3 3794   2.822   6.602   3.852
  271POPC   PO4 3795   2.909   7.175   3.947
  271POPC   GL1 3796   2.844   6.835   4.327
  271POPC   GL2 3797   2.534   6.641   4.295
  271POPC   C1A 3798   2.891   6.615   4.791
  271POPC   D2A 3799   3.001   6.415   5.238
  271POPC   C3A 3800   2.813   6.580   5.636
  271POPC   C4A 3801   2.441   6.601   5.911
  271POPC   C1B 3802   2.531   6.312   4.571
  271POPC   C2B 3803   2.660   6.175   4.963
  271POPC   C3B 3804   2.519   6.241   5.390
  271POPC   C4B 3805   2.243   6.166   5.747
  272POPC   NC3 3806   6.937   3.079   4.109
  272POPC   PO4 3807   6.799   2.402   3.968
  272POPC   GL1 3808   7.077   2.551   4.327
  272POPC   GL2 3809   7.453   2.473   4.298
  272POPC   C1A 3810   7.080   2.765   4.764
  272POPC   D2A 3811   7.297   2.826   5.189
  272POPC   C3A 3812   7.124   2.773   5.637
  272POPC   C4A 3813   7.155   2.969   6.080
  272POPC   C1B 3814   7.394   2.352   4.722
  272POPC   C2B 3815   7.495   2.345   5.162
  272POPC   C3B 3816   7.621   2.449   5.588
  272POPC   C4B 3817   7.768   2.424   6.012
  273POPC   NC3 3818   1.783   9.917   3.588
  273POPC   PO4 3819   2.103  10.140   4.265
  273POPC   GL1 3820   2.056   9.767   4.485
  273POPC   GL2 3821   2.065   9.462   4.238
  273POPC   C1A 3822   2.043   9.783   4.898
  273POPC   D2A 3823   1.742   9.892   5.122
  273POPC   C3A 3824   1.894   9.727   5.449
  273POPC   C4A 3825   2.108   9.848   5.779
  273POPC   C1B 3826   2.050   9.312   4.692
  273POPC   C2B 3827   2.024   9.257   5.123
  273POPC   C3B 3828   1.777   9.208   5.453
  273POPC   C4B 3829   1.791   9.408   5.840
  274POPC   NC3 3830   7.284   8.862   3.860
  274POPC   PO4 3831   7.087   9.442   4.086
  274POPC   GL1 3832   7.338   9.150   4.406
  274POPC   GL2 3833   7.456   8.804   4.337
  274POPC   C1A 3834   7.279   8.948   4.866
  274POPC   D2A 3835   7.319   8.815   5.319
  274POPC   C3A 3836   7.111   9.059   5.696
  274POPC   C4A 3837   6.792   9.069   6.072
  274POPC   C1B 3838   7.734   8.916   4.656
  274POPC   C2B 3839   7.779   8.855   5.070
  274POPC   C3B 3840   7.807   8.744   5.495
  274POPC   C4B 3841   7.499   8.709   5.785
  275POPC   NC3 3842   2.823   1.278   3.715
  275POPC   PO4 3843   2.660   1.816   3.958
  275POPC   GL1 3844   2.748   1.536   4.296
  275POPC   GL2 3845   2.920   1.250   4.225
  275POPC   C1A 3846   2.541   1.411   4.692
  275POPC   D2A 3847   2.343   1.314   5.081
  275POPC   C3A 3848   2.288   1.527   5.438
  275POPC   C4A 3849   2.358   1.418   5.833
  275POPC   C1B 3850   3.026   1.227   4.663
  275POPC   C2B 3851   2.805   1.097   5.058
  275POPC   C3B 3852   2.696   1.202   5.503
  275POPC   C4B 3853   2.789   1.177   5.975
  276POPC   NC3 3854   3.766   2.549   3.993
  276POPC   PO4 3855   3.189   2.473   3.662
  276POPC   GL1 3856   3.107   2.562   4.190
  276POPC   GL2 3857   3.445   2.558   4.430
  276POPC   C1A 3858   3.003   2.490   4.676
  276POPC   D2A 3859   3.190   2.428   5.134
  276POPC   C3A 3860   3.225   2.642   5.562
  276POPC   C4A 3861   3.461   2.703   5.974
  276POPC   C1B 3862   3.350   2.831   4.819
  276POPC   C2B 3863   3.378   3.102   5.203
  276POPC   C3B 3864   3.473   3.095   5.654
  276POPC   C4B 3865   3.856   3.076   5.935
  277POPC   NC3 3866   8.835  10.839   3.480
  277POPC   PO4 3867   9.146  11.033   4.052
  277POPC   GL1 3868   8.928  11.151   4.368
  277POPC   GL2 3869   9.194  11.433   4.409
  277POPC   C1A 3870   8.777  10.900   4.722
  277POPC   D2A 3871   8.879  10.702   5.112
  277POPC   C3A 3872   8.667  10.719   5.513
  277POPC   C4A 3873   8.825  11.018   5.776
  277POPC   C1B 3874   9.200  11.176   4.795
  277POPC   C2B 3875   8.939  11.198   5.172
  277POPC   C3B 3876   9.030  11.413   5.542
  277POPC   C4B 3877   9.025   0.294   5.784
  278POPC   NC3 3878   6.332   2.554   4.015
  278POPC   PO4 3879   6.506   3.179   4.108
  278POPC   GL1 3880   6.613   2.786   4.411
  278POPC   GL2 3881   6.570   2.404   4.433
  278POPC   C1A 3882   6.585   2.689   4.877
  278POPC   D2A 3883   6.776   2.881   5.242
  278POPC   C3A 3884   6.563   2.921   5.650
  278POPC   C4A 3885   6.650   3.124   6.047
  278POPC   C1B 3886   6.878   2.289   4.733
  278POPC   C2B 3887   6.977   2.415   5.153
  278POPC   C3B 3888   6.713   2.452   5.523
  278POPC   C4B 3889   6.346   2.473   5.829
  279POPC   NC3 3890   0.392   2.801   3.707
  279POPC   PO4 3891   0.141   3.087   4.181
  279POPC   GL1 3892   0.523   2.886   4.359
  279POPC   GL2 3893   0.523   2.493   4.397
  279POPC   C1A 3894   0.627   2.761   4.799
  279POPC   D2A 3895   0.493   2.779   5.193
  279POPC   C3A 3896   0.748   2.975   5.479
  279POPC   C4A 3897   0.688   2.791   5.835
  279POPC   C1B 3898   0.239   2.375   4.788
  279POPC   C2B 3899   0.077   2.485   5.191
  279POPC   C3B 3900   0.157   2.701   5.575
  279POPC   C4B 3901   0.258   2.520   5.962
  280POPC   NC3 3902  11.139   3.632   3.786
  280POPC   PO4 3903   0.026   3.128   3.648
  280POPC   GL1 3904  11.450   3.507   4.132
  280POPC   GL2 3905  11.131   3.492   4.269
  280POPC   C1A 3906  11.490   3.636   4.621
  280POPC   D2A 3907   0.012   3.386   5.025
  280POPC   C3A 3908   0.018   3.597   5.389
  280POPC   C4A 3909  11.347   3.521   5.796
  280POPC   C1B 3910  10.997   3.694   4.603
  280POPC   C2B 3911  11.040   3.525   4.974
  280POPC   C3B 3912  11.019   3.507   5.381
  280POPC   C4B 3913  10.789   3.780   5.586
  281POPC   NC3 3914   3.358  10.151   4.116
  281POPC   PO4 3915   3.685  10.748   4.066
  281POPC   GL1 3916   3.325  10.618   4.351
  281POPC   GL2 3917   3.319  10.334   4.575
  281POPC   C1A 3918   3.239  10.811   4.728
  281POPC   D2A 3919   3.384  10.619   5.082
  281POPC   C3A 3920   3.241  10.688   5.490
  281POPC   C4A 3921   3.359  10.529   5.914
  281POPC   C1B 3922   3.674  10.189   4.784
  281POPC   C2B 3923   3.539  10.134   5.126
  281POPC   C3B 3924   3.574  10.302   5.485
  281POPC   C4B 3925   3.787  10.190   5.817
  282POPC   NC3 3926   3.769   0.064   4.090
  282POPC   PO4 3927   3.937   0.673   3.943
  282POPC   GL1 3928   3.744   0.586   4.309
  282POPC   GL2 3929   3.433   0.463   4.244
  282POPC   C1A 3930   3.835   0.360   4.690
  282POPC   D2A 3931   3.696   0.019   4.988
  282POPC   C3A 3932   3.621   0.148   5.426
  282POPC   C4A 3933   3.690   0.278   5.849
  282POPC   C1B 3934   3.313   0.312   4.672
  282POPC   C2B 3935   3.479   0.504   5.067
  282POPC   C3B 3936   3.416   0.638   5.516
  282POPC   C4B 3937   3.159   0.343   5.770
  283POPC   NC3 3938   4.126   9.645   3.966
  283POPC   PO4 3939   4.806   9.388   3.979
  283POPC   GL1 3940   4.549   9.502   4.379
  283POPC   GL2 3941   4.217   9.666   4.454
  283POPC   C1A 3942   4.506   9.603   4.851
  283POPC   D2A 3943   4.709   9.458   5.244
  283POPC   C3A 3944   4.522   9.499   5.679
  283POPC   C4A 3945   4.588   9.650   6.140
  283POPC   C1B 3946   3.958   9.740   4.809
  283POPC   C2B 3947   3.927   9.849   5.214
  283POPC   C3B 3948   3.993   9.765   5.602
  283POPC   C4B 3949   4.326   9.947   5.807
  284POPC   NC3 3950  10.271  10.238   3.926
  284POPC   PO4 3951  10.002  10.822   4.042
  284POPC   GL1 3952  10.257  10.592   4.316
  284POPC   GL2 3953  10.569  10.396   4.309
  284POPC   C1A 3954  10.337  10.713   4.715
  284POPC   D2A 3955  10.396  10.493   5.070
  284POPC   C3A 3956  10.347  10.770   5.349
  284POPC   C4A 3957  10.439  10.814   5.731
  284POPC   C1B 3958  10.613  10.197   4.732
  284POPC   C2B 3959  10.654  10.069   5.182
  284POPC   C3B 3960  10.516  10.288   5.549
  284POPC   C4B 3961  10.855  10.193   5.783
  285POPC   NC3 3962   1.091   4.968   3.926
  285POPC   PO4 3963   0.433   5.312   3.990
  285POPC   GL1 3964   0.746   5.351   4.337
  285POPC   GL2 3965   1.093   5.199   4.383
  285POPC   C1A 3966   0.875   5.492   4.738
  285POPC   D2A 3967   1.103   5.209   5.003
  285POPC   C3A 3968   1.185   5.250   5.446
  285POPC   C4A 3969   0.882   5.058   5.694
  285POPC   C1B 3970   1.340   4.913   4.653
  285POPC   C2B 3971   1.413   4.823   5.115
  285POPC   C3B 3972   1.327   4.742   5.564
  285POPC   C4B 3973   1.558   4.970   5.860
  286POPC   NC3 3974   7.237   9.855   3.969
  286POPC   PO4 3975   7.935   9.921   3.856
  286POPC   GL1 3976   7.672   9.961   4.305
  286POPC   GL2 3977   7.445   9.676   4.394
  286POPC   C1A 3978   7.658   9.879   4.808
  286POPC   D2A 3979   7.338   9.861   5.157
  286POPC   C3A 3980   7.473   9.997   5.584
  286POPC   C4A 3981   7.479   9.708   5.910
  286POPC   C1B 3982   7.322   9.469   4.809
  286POPC   C2B 3983   7.336   9.350   5.272
  286POPC   C3B 3984   7.115   9.583   5.581
  286POPC   C4B 3985   6.699   9.513   5.750
  287POPC   NC3 3986   7.421   0.292   3.840
  287POPC   PO4 3987   7.724   0.920   3.880
  287POPC   GL1 3988   7.791   0.685   4.272
  287POPC   GL2 3989   7.464   0.552   4.280
  287POPC   C1A 3990   7.729   0.462   4.717
  287POPC   D2A 3991   7.732   0.243   5.196
  287POPC   C3A 3992   7.680   0.596   5.558
  287POPC   C4A 3993   7.724   0.688   6.064
  287POPC   C1B 3994   7.225   0.602   4.639
  287POPC   C2B 3995   7.352   0.550   5.058
  287POPC   C3B 3996   7.254   0.335   5.421
  287POPC   C4B 3997   7.083   0.653   5.681
  288POPC   NC3 3998   5.225   9.141   4.035
  288POPC   PO4 3999   4.885   8.621   3.821
  288POPC   GL1 4000   4.770   8.733   4.260
  288POPC   GL2 4001   4.856   9.048   4.353
  288POPC   C1A 4002   4.674   8.574   4.709
  288POPC   D2A 4003   4.929   8.579   5.096
  288POPC   C3A 4004   4.887   8.685   5.542
  288POPC   C4A 4005   5.018   8.767   5.996
  288POPC   C1B 4006   5.051   8.903   4.717
  288POPC   C2B 4007   5.045   9.069   5.161
  288POPC   C3B 4008   4.998   9.204   5.595
  288POPC   C4B 4009   5.338   9.158   5.886
  289POPC   NC3 4010   5.053   1.235   3.885
  289POPC   PO4 4011   4.629   0.714   4.069
  289POPC   GL1 4012   4.840   0.741   4.423
  289POPC   GL2 4013   5.079   0.977   4.341
  289POPC   C1A 4014   4.961   0.771   4.851
  289POPC   D2A 4015   5.044   1.069   5.094
  289POPC   C3A 4016   4.942   0.936   5.453
  289POPC   C4A 4017   5.090   0.799   5.834
  289POPC   C1B 4018   5.126   1.360   4.634
  289POPC   C2B 4019   4.942   1.552   5.030
  289POPC   C3B 4020   5.124   1.476   5.449
  289POPC   C4B 4021   5.442   1.517   5.759
  290POPC   NC3 4022   4.335   7.523   4.203
  290POPC   PO4 4023   3.766   7.580   4.266
  290POPC   GL1 4024   4.021   7.368   4.584
  290POPC   GL2 4025   4.204   7.083   4.453
  290POPC   C1A 4026   4.113   7.454   5.005
  290POPC   D2A 4027   4.316   7.757   5.265
  290POPC   C3A 4028   4.236   7.637   5.678
  290POPC   C4A 4029   3.925   7.306   5.734
  290POPC   C1B 4030   4.384   7.035   4.866
  290POPC   C2B 4031   4.538   7.257   5.227
  290POPC   C3B 4032   4.443   7.152   5.649
  290POPC   C4B 4033   4.135   6.846   5.841
  291POPC   NC3 4034   0.451   0.553   3.837
  291POPC   PO4 4035   0.112  11.498   3.835
  291POPC   GL1 4036   0.139   0.075   4.312
  291POPC   GL2 4037   0.365   0.369   4.298
  291POPC   C1A 4038   0.493   0.072   4.676
  291POPC   D2A 4039   0.760   0.271   4.997
  291POPC   C3A 4040   0.669   0.135   5.435
  291POPC   C4A 4041   0.945   0.269   5.763
  291POPC   C1B 4042   0.513   0.592   4.664
  291POPC   C2B 4043   0.335   0.646   5.106
  291POPC   C3B 4044   0.440   0.579   5.573
  291POPC   C4B 4045   0.378   0.632   6.024
  292POPC   NC3 4046  10.386   2.222   3.489
  292POPC   PO4 4047  10.146   1.634   3.862
  292POPC   GL1 4048  10.115   1.983   4.159
  292POPC   GL2 4049  10.429   2.194   4.246
  292POPC   C1A 4050  10.085   2.018   4.616
  292POPC   D2A 4051  10.311   1.887   4.986
  292POPC   C3A 4052  10.133   2.003   5.375
  292POPC   C4A 4053  10.170   2.171   5.759
  292POPC   C1B 4054  10.477   1.738   4.459
  292POPC   C2B 4055  10.709   1.618   4.847
  292POPC   C3B 4056  10.682   1.602   5.327
  292POPC   C4B 4057  10.416   1.715   5.717
  293POPC   NC3 4058   1.388   1.682   4.032
  293POPC   PO4 4059   1.491   2.244   3.768
  293POPC   GL1 4060   1.406   2.282   4.233
  293POPC   GL2 4061   1.079   2.137   4.219
  293POPC   C1A 4062   1.494   2.269   4.716
  293POPC   D2A 4063   1.675   2.235   5.166
  293POPC   C3A 4064   1.398   2.029   5.496
  293POPC   C4A 4065   1.319   2.045   5.945
  293POPC   C1B 4066   1.132   1.910   4.618
  293POPC   C2B 4067   1.105   2.056   5.042
  293POPC   C3B 4068   0.874   1.950   5.405
  293POPC   C4B 4069   1.021   1.689   5.746
  294POPC   NC3 4070   0.449  10.521   3.710
  294POPC   PO4 4071   0.658  10.061   4.053
  294POPC   GL1 4072   0.563  10.450   4.226
  294POPC   GL2 4073   0.229  10.518   4.206
  294POPC   C1A 4074   0.696  10.584   4.610
  294POPC   D2A 4075   0.719  10.271   4.925
  294POPC   C3A 4076   0.659  10.462   5.301
  294POPC   C4A 4077   0.662  10.347   5.727
  294POPC   C1B 4078   0.274  10.295   4.634
  294POPC   C2B 4079   0.147  10.426   5.059
  294POPC   C3B 4080   0.207  10.428   5.516
  294POPC   C4B 4081   0.213  10.277   5.957
  295POPC   NC3 4082   2.924   2.852   3.735
  295POPC   PO4 4083   2.399   2.482   3.854
  295POPC   GL1 4084   2.582   2.546   4.217
  295POPC   GL2 4085   2.647   2.837   4.320
  295POPC   C1A 4086   2.504   2.423   4.602
  295POPC   D2A 4087   2.555   2.640   4.949
  295POPC   C3A 4088   2.697   2.422   5.306
  295POPC   C4A 4089   2.688   2.568   5.731
  295POPC   C1B 4090   2.858   2.990   4.694
  295POPC   C2B 4091   2.935   2.875   5.147
  295POPC   C3B 4092   2.870   3.026   5.555
  295POPC   C4B 4093   3.006   2.953   5.976
  296POPC   NC3 4094   1.185  11.036   3.846
  296POPC   PO4 4095   0.897   0.151   3.954
  296POPC   GL1 4096   0.968  11.320   4.260
  296POPC   GL2 4097   1.058  10.963   4.349
  296POPC   C1A 4098   1.078  11.384   4.679
  296POPC   D2A 4099   1.351  11.383   5.040
  296POPC   C3A 4100   1.142  11.434   5.413
  296POPC   C4A 4101   0.898  11.263   5.765
  296POPC   C1B 4102   1.360  10.937   4.733
  296POPC   C2B 4103   1.440  10.897   5.208
  296POPC   C3B 4104   1.343  11.029   5.657
  296POPC   C4B 4105   1.412  10.807   6.091
  297POPC   NC3 4106   9.926   8.150   4.100
  297POPC   PO4 4107   9.332   7.896   3.893
  297POPC   GL1 4108   9.537   7.871   4.286
  297POPC   GL2 4109   9.458   8.231   4.329
  297POPC   C1A 4110   9.706   7.761   4.705
  297POPC   D2A 4111   9.847   7.592   5.137
  297POPC   C3A 4112   9.604   7.811   5.469
  297POPC   C4A 4113   9.720   8.192   5.663
  297POPC   C1B 4114   9.453   8.354   4.765
  297POPC   C2B 4115   9.464   8.214   5.192
  297POPC   C3B 4116   9.237   8.284   5.573
  297POPC   C4B 4117   9.079   8.185   5.993
  298POPC   NC3 4118   6.503  11.409   3.944
  298POPC   PO4 4119   6.497  10.777   3.948
  298POPC   GL1 4120   6.577  11.011   4.331
  298POPC   GL2 4121   6.532  11.375   4.431
  298POPC   C1A 4122   6.457  10.981   4.754
  298POPC   D2A 4123   6.625  11.074   5.136
  298POPC   C3A 4124   6.363  10.928   5.449
  298POPC   C4A 4125   6.507  10.909   5.871
  298POPC   C1B 4126   6.476  11.490   4.825
  298POPC   C2B 4127   6.508   0.049   5.199
  298POPC   C3B 4128   6.548  11.381   5.580
  298POPC   C4B 4129   6.399   0.135   5.928
  299POPC   NC3 4130  11.076   6.895   3.907
  299POPC   PO4 4131  10.931   6.213   3.737
  299POPC   GL1 4132  10.991   6.471   4.203
  299POPC   GL2 4133  11.228   6.674   4.313
  299POPC   C1A 4134  10.886   6.555   4.691
  299POPC   D2A 4135  10.746   6.398   5.123
  299POPC   C3A 4136  10.870   6.645   5.516
  299POPC   C4A 4137  10.974   6.481   5.961
  299POPC   C1B 4138  11.386   6.505   4.671
  299POPC   C2B 4139   0.012   6.485   5.072
  299POPC   C3B 4140  11.378   6.596   5.444
  299POPC   C4B 4141  11.371   6.783   5.833
  300POPC   NC3 4142   0.015   1.148   3.841
  300POPC   PO4 4143  10.878   1.080   3.851
  300POPC   GL1 4144  11.117   0.919   4.193
  300POPC   GL2 4145  11.374   1.149   4.311
  300POPC   C1A 4146  11.062   0.931   4.658
  300POPC   D2A 4147  10.988   1.238   5.013
  300POPC   C3A 4148  10.989   1.166   5.461
  300POPC   C4A 4149  11.093   0.916   5.833
  300POPC   C1B 4150  11.384   1.376   4.697
  300POPC   C2B 4151  11.402   1.545   5.123
  300POPC   C3B 4152  11.443   1.400   5.566
  300POPC   C4B 4153  11.313   1.329   6.029
  301POPC   NC3 4154  10.791   5.197   3.925
  301POPC   PO4 4155  10.236   4.829   3.790
  301POPC   GL1 4156  10.255   4.889   4.250
  301POPC   GL2 4157  10.429   5.186   4.391
  301POPC   C1A 4158  10.283   4.819   4.722
  301POPC   D2A 4159  10.157   4.715   5.153
  301POPC   C3A 4160  10.425   4.718   5.542
  301POPC   C4A 4161  10.228   4.878   5.943
  301POPC   C1B 4162  10.603   5.226   4.837
  301POPC   C2B 4163  10.564   5.131   5.251
  301POPC   C3B 4164  10.244   5.226   5.544
  301POPC   C4B 4165  10.275   5.387   5.945
  302POPC   NC3 4166   9.591   0.906   3.871
  302POPC   PO4 4167   9.288   1.486   3.901
  302POPC   GL1 4168   9.502   1.385   4.289
  302POPC   GL2 4169   9.438   1.052   4.344
  302POPC   C1A 4170   9.476   1.358   4.752
  302POPC   D2A 4171   9.716   1.230   5.106
  302POPC   C3A 4172   9.476   1.198   5.506
  302POPC   C4A 4173   9.493   1.331   5.945
  302POPC   C1B 4174   9.833   1.014   4.599
  302POPC   C2B 4175  10.087   0.865   4.951
  302POPC   C3B 4176  10.050   0.983   5.401
  302POPC   C4B 4177   9.810   0.950   5.817
  303POPC   NC3 4178   9.569  10.889   4.174
  303POPC   PO4 4179   9.816  10.294   3.833
  303POPC   GL1 4180   9.888  10.134   4.249
  303POPC   GL2 4181   9.756  10.446   4.351
  303POPC   C1A 4182  10.099  10.239   4.656
  303POPC   D2A 4183   9.895  10.520   4.959
  303POPC   C3A 4184   9.991  10.380   5.385
  303POPC   C4A 4185   9.967  10.565   5.785
  303POPC   C1B 4186   9.556  10.206   4.670
  303POPC   C2B 4187   9.447  10.298   5.116
  303POPC   C3B 4188   9.512  10.453   5.542
  303POPC   C4B 4189   9.503  10.379   5.976
  304POPC   NC3 4190   6.645   1.663   3.685
  304POPC   PO4 4191   6.299   1.199   3.828
  304POPC   GL1 4192   6.522   1.086   4.313
  304POPC   GL2 4193   6.864   0.844   4.338
  304POPC   C1A 4194   6.550   1.235   4.792
  304POPC   D2A 4195   6.715   1.460   5.196
  304POPC   C3A 4196   6.549   1.622   5.636
  304POPC   C4A 4197   6.697   1.631   6.090
  304POPC   C1B 4198   6.729   0.756   4.738
  304POPC   C2B 4199   6.791   0.918   5.163
  304POPC   C3B 4200   6.628   0.853   5.549
  304POPC   C4B 4201   6.467   1.152   5.824
  305POPC   NC3 4202  10.961   0.474   3.949
  305POPC   PO4 4203   0.064   0.699   4.033
  305POPC   GL1 4204  11.325   0.482   4.376
  305POPC   GL2 4205  10.948   0.466   4.457
  305POPC   C1A 4206  11.281   0.495   4.844
  305POPC   D2A 4207  11.325   0.871   5.090
  305POPC   C3A 4208  11.445   0.851   5.469
  305POPC   C4A 4209  11.452   0.572   5.777
  305POPC   C1B 4210  10.732   0.185   4.793
  305POPC   C2B 4211  10.806   0.187   5.201
  305POPC   C3B 4212  11.143   0.397   5.371
  305POPC   C4B 4213  10.969   0.429   5.730
  306POPC   NC3 4214   0.859   9.661   3.948
  306POPC   PO4 4215   0.344   9.231   3.928
  306POPC   GL1 4216   0.634   9.214   4.318
  306POPC   GL2 4217   0.823   9.539   4.447
  306POPC   C1A 4218   0.628   9.203   4.803
  306POPC   D2A 4219   0.572   9.486   5.174
  306POPC   C3A 4220   0.586   9.428   5.625
  306POPC   C4A 4221   0.326   9.555   5.947
  306POPC   C1B 4222   0.568   9.810   4.743
  306POPC   C2B 4223   0.372   9.968   5.153
  306POPC   C3B 4224   0.411   9.929   5.601
  306POPC   C4B 4225   0.646   9.934   6.018
  307POPC   NC3 4226  10.798   6.025   4.143
  307POPC   PO4 4227  10.183   5.820   3.910
  307POPC   GL1 4228  10.466   5.667   4.243
  307POPC   GL2 4229  10.290   5.867   4.432
  307POPC   C1A 4230  10.698   5.699   4.685
  307POPC   D2A 4231  10.850   5.828   5.095
  307POPC   C3A 4232  10.572   5.713   5.393
  307POPC   C4A 4233  10.560   5.859   5.808
  307POPC   C1B 4234  10.204   5.547   4.734
  307POPC   C2B 4235  10.113   5.586   5.179
  307POPC   C3B 4236  10.090   5.762   5.613
  307POPC   C4B 4237  10.108   6.121   5.960
  308POPC   NC3 4238  10.624  11.284   3.869
  308POPC   PO4 4239   9.927  11.351   3.681
  308POPC   GL1 4240  10.117  11.332   4.153
  308POPC   GL2 4241  10.394  11.088   4.268
  308POPC   C1A 4242  10.142  11.309   4.656
  308POPC   D2A 4243   9.978  11.387   5.105
  308POPC   C3A 4244  10.193  11.238   5.487
  308POPC   C4A 4245  10.085  11.101   5.929
  308POPC   C1B 4246  10.650  11.162   4.633
  308POPC   C2B 4247  10.511  11.267   5.051
  308POPC   C3B 4248  10.711  11.188   5.450
  308POPC   C4B 4249  10.577  11.298   5.851
  309POPC   NC3 4250   0.562   4.048   3.903
  309POPC   PO4 4251   0.160   4.540   4.037
  309POPC   GL1 4252   0.221   4.256   4.304
  309POPC   GL2 4253   0.553   4.305   4.333
  309POPC   C1A 4254   0.212   4.122   4.694
  309POPC   D2A 4255   0.169   4.345   5.049
  309POPC   C3A 4256   0.260   4.138   5.414
  309POPC   C4A 4257   0.219   4.352   5.791
  309POPC   C1B 4258   0.514   4.529   4.702
  309POPC   C2B 4259   0.659   4.279   5.044
  309POPC   C3B 4260   0.820   4.049   5.371
  309POPC   C4B 4261   0.669   4.105   5.783
  310POPC   NC3 4262   9.927   4.558   3.611
  310POPC   PO4 4263   9.350   4.387   3.931
  310POPC   GL1 4264   9.726   4.472   4.221
  310POPC   GL2 4265   9.779   4.172   4.426
  310POPC   C1A 4266   9.793   4.598   4.693
  310POPC   D2A 4267   9.796   4.315   5.097
  310POPC   C3A 4268   9.688   4.488   5.517
  310POPC   C4A 4269   9.709   4.738   5.937
  310POPC   C1B 4270   9.449   4.201   4.727
  310POPC   C2B 4271   9.247   4.260   5.144
  310POPC   C3B 4272   9.278   4.126   5.566
  310POPC   C4B 4273   9.366   4.358   5.911
  311POPC   NC3 4274   6.388  10.366   4.101
  311POPC   PO4 4275   6.992  10.251   3.897
  311POPC   GL1 4276   6.851  10.560   4.276
  311POPC   GL2 4277   6.519  10.525   4.541
  311POPC   C1A 4278   6.916  10.730   4.734
  311POPC   D2A 4279   6.652  10.577   5.121
  311POPC   C3A 4280   6.819  10.650   5.567
  311POPC   C4A 4281   6.765  10.430   6.008
  311POPC   C1B 4282   6.134  10.567   4.826
  311POPC   C2B 4283   6.076  10.524   5.291
  311POPC   C3B 4284   6.345  10.453   5.676
  311POPC   C4B 4285   6.271  10.373   6.121
  312POPC   NC3 4286   8.201   0.618   3.917
  312POPC   PO4 4287   7.829   0.039   3.846
  312POPC   GL1 4288   7.958   0.171   4.282
  312POPC   GL2 4289   8.270   0.359   4.333
  312POPC   C1A 4290   8.085   0.104   4.734
  312POPC   D2A 4291   8.357   0.111   5.082
  312POPC   C3A 4292   8.129   0.071   5.515
  312POPC   C4A 4293   7.953   0.289   5.849
  312POPC   C1B 4294   8.240   0.597   4.709
  312POPC   C2B 4295   8.097   0.553   5.074
  312POPC   C3B 4296   8.233   0.557   5.461
  312POPC   C4B 4297   8.126   0.797   5.774
  313POPC   NC3 4298   8.188   1.254   3.922
  313POPC   PO4 4299   8.506   0.838   4.189
  313POPC   GL1 4300   8.177   1.032   4.399
  313POPC   GL2 4301   8.169   1.406   4.411
  313POPC   C1A 4302   8.209   1.120   4.835
  313POPC   D2A 4303   8.219   1.004   5.239
  313POPC   C3A 4304   8.422   1.157   5.562
  313POPC   C4A 4305   8.262   1.499   5.732
  313POPC   C1B 4306   7.821   1.423   4.722
  313POPC   C2B 4307   7.676   1.255   5.106
  313POPC   C3B 4308   7.809   1.118   5.499
  313POPC   C4B 4309   7.867   1.210   5.922
  314POPC   NC3 4310   9.355   3.413   4.026
  314POPC   PO4 4311   8.630   3.146   4.026
  314POPC   GL1 4312   8.945   3.283   4.355
  314POPC   GL2 4313   8.956   3.629   4.411
  314POPC   C1A 4314   8.890   3.349   4.837
  314POPC   D2A 4315   8.976   3.252   5.279
  314POPC   C3A 4316   8.734   3.283   5.700
  314POPC   C4A 4317   8.799   3.529   6.078
  314POPC   C1B 4318   9.146   3.797   4.825
  314POPC   C2B 4319   9.051   3.765   5.267
  314POPC   C3B 4320   8.806   3.912   5.639
  314POPC   C4B 4321   8.960   4.038   6.035
  315POPC   NC3 4322   6.779  10.574   3.656
  315POPC   PO4 4323   7.446  10.633   3.668
  315POPC   GL1 4324   7.403  10.368   4.149
  315POPC   GL2 4325   7.332  10.599   4.451
  315POPC   C1A 4326   7.255  10.128   4.579
  315POPC   D2A 4327   7.082  10.305   4.980
  315POPC   C3A 4328   7.040  10.200   5.437
  315POPC   C4A 4329   7.229  10.414   5.811
  315POPC   C1B 4330   7.654  10.423   4.712
  315POPC   C2B 4331   7.581  10.302   5.114
  315POPC   C3B 4332   7.588  10.526   5.451
  315POPC   C4B 4333   7.729  10.453   5.825
  316POPC   NC3 4334   1.377   2.676   3.828
  316POPC   PO4 4335   0.830   2.982   3.926
  316POPC   GL1 4336   0.989   2.658   4.207
  316POPC   GL2 4337   1.295   2.801   4.313
  316POPC   C1A 4338   1.017   2.449   4.634
  316POPC   D2A 4339   1.212   2.572   5.045
  316POPC   C3A 4340   0.959   2.508   5.415
  316POPC   C4A 4341   0.904   2.293   5.797
  316POPC   C1B 4342   1.056   2.965   4.654
  316POPC   C2B 4343   1.101   3.079   5.106
  316POPC   C3B 4344   1.277   2.899   5.500
  316POPC   C4B 4345   1.367   2.499   5.708
  317POPC   NC3 4346   9.696   1.708   3.930
  317POPC   PO4 4347   9.268   2.258   3.898
  317POPC   GL1 4348   9.499   2.181   4.235
  317POPC   GL2 4349   9.298   1.869   4.267
  317POPC   C1A 4350   9.516   2.297   4.683
  317POPC   D2A 4351   9.426   2.034   5.058
  317POPC   C3A 4352   9.565   2.160   5.481
  317POPC   C4A 4353   9.444   2.263   5.926
  317POPC   C1B 4354   9.607   1.820   4.590
  317POPC   C2B 4355   9.820   1.732   4.980
  317POPC   C3B 4356   9.684   1.670   5.411
  317POPC   C4B 4357   9.733   1.829   5.842
  318POPC   NC3 4358   3.332   5.858   3.749
  318POPC   PO4 4359   3.569   5.355   3.798
  318POPC   GL1 4360   3.472   5.111   4.220
  318POPC   GL2 4361   3.151   4.907   4.270
  318POPC   C1A 4362   3.647   5.107   4.680
  318POPC   D2A 4363   3.741   5.262   5.127
  318POPC   C3A 4364   3.424   5.201   5.480
  318POPC   C4A 4365   3.440   4.928   5.858
  318POPC   C1B 4366   3.280   4.757   4.703
  318POPC   C2B 4367   3.538   4.790   5.114
  318POPC   C3B 4368   3.817   4.887   5.495
  318POPC   C4B 4369   3.885   4.607   5.843
  319W        W 4370  11.212  10.750   8.521
  320W        W 4371   8.600   4.348   3.137
  321W        W 4372   5.758   3.535   8.150
  322W        W 4373   6.763   6.831  11.802
  323W        W 4374   7.651   8.412   9.818
  324W        W 4375   2.112   9.561   8.699
  325W        W 4376   5.961   3.858   8.609
  326W        W 4377   0.932   5.084   2.217
  327W        W 4378   3.639   0.787   3.129
  328W        W 4379   9.292   0.767  11.227
  329W        W 4380   7.620   6.056   8.398
  330W        W 4381   8.710   5.490   8.650
  331W        W 4382  10.951   9.113   9.101
  332W        W 4383   9.766   9.395   9.106
  333W        W 4384  10.455   6.527   2.954
  334W        W 4385   7.748  10.852   2.312
  335W        W 4386  10.242   6.671  10.851
  336W        W 4387   7.487   1.364   0.136
  337W        W 4388   5.119   6.452   0.871
  338W        W 4389   0.740   4.358  11.631
  339W        W 4390   0.128   8.130  10.793
  340W        W 4391   7.989   2.303   2.913
  341W        W 4392   4.069  10.756  11.513
  342W        W 4393   3.162   7.624  10.012
  343W        W 4394   1.446   0.886   1.909
  344W        W 4395   9.694   6.575   9.998
  345W        W 4396   7.226   8.049   0.755
  346W        W 4397  11.000   5.448  10.567
  347W        W 4398   6.661   0.755   1.751
  348W        W 4399   3.249   7.060   1.788
  349W        W 4400   5.527   3.597   9.486
  350W        W 4401   1.851   9.469  11.782
  351W        W 4402   4.752   2.835   0.539
  352W        W 4403   9.987   0.036   3.205
  353W        W 4404   8.617   3.391   2.168
  354W        W 4405   1.523   7.589  10.010
  355W        W 4406   0.399   8.516  11.544
  356W        W 4407   1.016   6.944   8.274
  357W        W 4408   2.466   9.912   0.349
  358W        W 4409   6.407   3.611   8.756
  359W        W 4410   7.505   9.548   9.024
  360W        W 4411  10.641   5.096  11.977
  361W        W 4412   6.145   8.460  10.416
  362W        W 4413   1.096   1.389   9.792
  363W        W 4414   6.513   2.925  11.639
  364W        W 4415   2.294  10.858   1.414
  365W        W 4416   1.833   5.525   2.476
  366W        W 4417   9.421   8.828   2.978
  367W        W 4418   4.648  10.779   2.764
  368W        W 4419   5.202   5.460   1.813
  369W        W 4420   8.476   6.939   3.045
  370W        W 4421   7.625   6.563   9.491
  371W        W 4422   5.601   2.617   1.494
  372W        W 4423  11.150  10.502   2.867
  373W        W 4424   7.692   9.417   3.622
  374W        W 4425   5.570   6.646  10.535
  375W        W 4426   1.348   9.921   0.435
  376W        W 4427   9.850   4.707   0.744
  377W        W 4428   7.594   5.189  10.112
  378W        W 4429   2.235   3.684   2.327
  379W        W 4430   1.438   8.134   2.730
  380W        W 4431   3.753   3.735   1.268
  381W        W 4432   9.285   2.504   2.480
  382W        W 4433   5.160   3.229   1.335
  383W        W 4434   5.650   0.350  11.106
  384W        W 4435   5.404   6.067   9.839
  385W        W 4436   4.837   1.166   3.112
  386W        W 4437   9.413   4.624  11.946
  387W        W 4438   4.973  10.552  10.437
  388W        W 4439   8.635   9.900   2.572
  389W        W 4440  11.192   2.659   8.806
  390W        W 4441   2.671   5.909   1.843
  391W        W 4442   2.962   8.022   9.254
  392W        W 4443   2.724   1.968  11.772
  393W        W 4444   0.844   9.354   2.636
  394W        W 4445   5.380   4.434   3.916
  395W        W 4446   2.711   8.667   3.252
  396W        W 4447   1.688   7.911   3.526
  397W        W 4448   5.153   3.662   1.850
  398W        W 4449   6.930   7.560   1.323
  399W        W 4450   3.221   7.464   2.572
  400W        W 4451   3.786   0.461  10.684
  401W        W 4452  11.408   2.585  10.886
  402W        W 4453   5.379  10.849  10.590
  403W        W 4454   1.492   9.190   0.633
  404W        W 4455   8.680  10.523  11.730
  405W        W 4456   5.002   2.398   8.159
  406W        W 4457   3.103   6.636   1.511
  407W        W 4458   0.219   6.569  11.492
  408W        W 4459   3.313   4.763  11.049
  409W        W 4460  10.357   4.105   1.235
  410W        W 4461   3.578   5.544  11.288
  411W        W 4462   5.937  10.439  10.958
  412W        W 4463   7.607   5.079  11.924
  413W        W 4464   2.883   9.125   3.439
  414W        W 4465   6.469  10.185   3.551
  415W        W 4466   3.302   3.397   0.459
  416W        W 4467   8.206   9.064  11.261
  417W        W 4468   2.325   2.269   9.135
  418W        W 4469   9.006   5.394  11.559
  419W        W 4470   5.269   2.647  10.764
  420W        W 4471   9.997   6.644   2.756
  421W        W 4472   6.951   4.629  10.751
  422W        W 4473   4.280   6.990   0.724
  423W        W 4474  11.312   6.072  10.393
  424W        W 4475   1.284   6.464   0.172
  425W        W 4476   9.064   8.868   0.519
  426W        W 4477   6.440   4.039   9.150
  427W        W 4478   2.295   9.646  11.951
  428W        W 4479  10.993   7.452   1.423
  429W        W 4480  10.029  10.744  10.400
  430W        W 4481   3.941   0.156  11.118
  431W        W 4482   7.073   7.512   0.302
  432W        W 4483   7.840   0.904   2.617
  433W        W 4484   7.048   0.264  11.526
  434W        W 4485   8.619   2.232  11.879
  435W        W 4486   4.221   5.710   0.344
  436W        W 4487   4.256   3.738   1.389
  437W        W 4488   5.531   1.955   9.480
  438W        W 4489   8.445   7.147   1.663
  439W        W 4490   7.611   1.677   3.393
  440W        W 4491  10.020  10.817   1.360
  441W        W 4492   8.026   4.086   1.178
  442W        W 4493   5.591   9.700   9.419
  443W        W 4494   1.291   6.519   1.135
  444W        W 4495   9.450   7.926   2.894
  445W        W 4496   7.016  11.275   2.786
  446W        W 4497   5.434   4.153   2.235
  447W        W 4498   2.237   2.794   8.934
  448W        W 4499   0.927  10.864   9.835
  449W        W 4500   2.843   7.508   1.827
  450W        W 4501   4.252  11.128   3.446
  451W        W 4502   4.722   0.774  11.940
  452W        W 4503   7.658   3.638  10.458
  453W        W 4504  10.882   8.836   1.468
  454W        W 4505  10.442   0.562   1.395
  455W        W 4506   3.183   8.097   9.764
  456W        W 4507   3.140   1.649   2.478
  457W        W 4508   9.306   7.543  10.790
  458W        W 4509   2.979  11.226   2.227
  459W        W 4510   7.791   9.278  11.723
  460W        W 4511   9.548   2.597   0.464
  461W        W 4512   7.052   1.700   0.205
  462W        W 4513   4.148   8.673   9.004
  463W        W 4514   0.905   1.405   0.037
  464W        W 4515   7.175   8.887   3.156
  465W        W 4516   3.127   5.666   9.438
  466W        W 4517  10.017   7.103   0.481
  467W        W 4518   5.526   8.404   9.963
  468W        W 4519   0.642   0.941   0.247
  469W        W 4520   1.121   9.461   0.384
  470W        W 4521   7.085   4.310   0.877
  471W        W 4522   2.801  10.804   2.034
  472W        W 4523   4.333  10.773   0.034
  473W        W 4524   9.224  10.066  11.068
  474W        W 4525   3.188   6.455   8.898
  475W        W 4526   5.981   5.738  11.381
  476W        W 4527   5.926   6.038   9.808
  477W        W 4528   2.163   4.843   3.284
  478W        W 4529   9.578   1.065   9.604
  479W        W 4530  10.713   0.887  11.386
  480W        W 4531   4.712   0.634  11.048
  481W        W 4532   2.296   7.593   8.049
  482W        W 4533   2.453   4.841   8.329
  483W        W 4534   7.985   9.588   9.315
  484W        W 4535   3.736   2.577   8.716
  485W        W 4536   4.559   7.149  11.800
  486W        W 4537   3.934   8.942   8.589
  487W        W 4538   0.909   8.403   1.770
  488W        W 4539   9.450   6.506  10.432
  489W        W 4540   3.052   7.120   9.523
  490W        W 4541   5.071  10.718   9.949
  491W        W 4542   7.038   1.837  10.843
  492W        W 4543   5.097   2.321   3.200
  493W        W 4544   2.285   7.169   9.876
  494W        W 4545   3.112   1.741   3.775
  495W        W 4546   7.966   6.078   3.226
  496W        W 4547  11.494   3.439   2.729
  497W        W 4548   5.942   6.469   0.413
  498W        W 4549   4.113  11.261   2.148
  499W        W 4550   0.915   2.728   1.208
  500W        W 4551   5.507   2.717   3.267
  501W        W 4552   4.859   4.344   0.863
  502W        W 4553   9.744   3.353  10.688
  503W        W 4554   5.146   9.835   2.217
  504W        W 4555   6.106  10.809  10.022
  505W        W 4556   1.441   3.336   1.491
  506W        W 4557   7.253   0.878   9.302
  507W        W 4558   0.853   6.514   1.389
  508W        W 4559   9.875   8.472   0.660
  509W        W 4560   1.656   4.031   9.667
  510W        W 4561   4.484   5.312  11.226
  511W        W 4562  10.538  10.058   2.220
  512W        W 4563  11.402   4.709  11.880
  513W        W 4564   8.210   5.490   8.484
  514W        W 4565  10.865   9.353   1.546
  515W        W 4566   1.218   2.793   2.957
  516W        W 4567   7.432   6.531   8.533
  517W        W 4568   0.053   4.817   0.350
  518W        W 4569   2.746   8.549   0.350
  519W        W 4570   2.629   4.661   1.935
  520W        W 4571   4.657  10.228   0.923
  521W        W 4572   3.881   1.738   2.164
  522W        W 4573   7.543   2.378   2.672
  523W        W 4574   2.324   6.954  10.806
  524W        W 4575   6.357   9.525   9.679
  525W        W 4576   6.176   5.076  10.853
  526W        W 4577   3.162   8.651   9.882
  527W        W 4578   8.247   4.769   3.604
  528W        W 4579   8.859   8.535  11.245
  529W        W 4580   3.299   8.088   0.378
  530W        W 4581   7.429   2.669   1.845
  531W        W 4582   6.762   0.816   9.235
  532W        W 4583   9.742   7.548   1.316
  533W        W 4584   8.464   6.107   3.431
  534W        W 4585   0.901   5.595   9.585
  535W        W 4586   1.822  10.997  10.281
  536W        W 4587   4.952   0.084  10.323
  537W        W 4588   8.553   6.641   2.158
  538W        W 4589   1.299   7.467  10.883
  539W        W 4590   0.347   1.667   0.782
  540W        W 4591   5.679   2.810  11.019
  541W        W 4592   5.551   2.308   3.577
  542W        W 4593   6.667   8.772  11.221
  543W        W 4594   3.555   1.002   1.283
  544W        W 4595   7.398   1.313   0.893
  545W        W 4596   7.324   6.157   0.337
  546W        W 4597   0.996   8.503   8.466
  547W        W 4598  11.438   5.187   3.390
  548W        W 4599   9.084   6.041   8.265
  549W        W 4600   3.897  10.791  11.016
  550W        W 4601   0.840   7.865   1.957
  551W        W 4602  10.536   9.918   1.249
  552W        W 4603   5.568   7.163   1.699
  553W        W 4604   7.617  10.077   0.110
  554W        W 4605   2.634   7.545   0.272
  555W        W 4606   9.885   6.486   2.284
  556W        W 4607  10.967   6.484   9.617
  557W        W 4608  10.045   3.308   1.366
  558W        W 4609   1.512  11.351  11.989
  559W        W 4610   7.760   1.920   2.551
  560W        W 4611   9.444   7.032  10.739
  561W        W 4612   0.402   1.165   0.691
  562W        W 4613   5.633   7.939   2.791
  563W        W 4614   6.110  11.308   2.668
  564W        W 4615   1.190   6.563   0.652
  565W        W 4616  10.805  11.295   1.167
  566W        W 4617   4.603   7.111   9.862
  567W        W 4618  11.464   2.581   3.153
  568W        W 4619   5.545   4.168   8.692
  569W        W 4620   2.439   8.894   2.855
  570W        W 4621   2.482   8.161  11.822
  571W        W 4622   9.048  10.508  10.823
  572W        W 4623   1.018   1.897   0.016
  573W        W 4624   1.344   8.658   1.923
  574W        W 4625   6.496   7.191   3.070
  575W        W 4626   4.882   2.003   1.403
  576W        W 4627   9.876   9.773  10.389
  577W        W 4628   9.616   6.782   9.218
  578W        W 4629   1.132   5.672   0.495
  579W        W 4630   5.833  10.458   9.440
  580W        W 4631   8.001   0.584  11.432
  581W        W 4632   9.170   2.137   3.430
  582W        W 4633   6.416   5.750   2.228
  583W        W 4634   1.817   2.213   9.270
  584W        W 4635   9.509   3.119   3.612
  585W        W 4636   4.341   2.597  11.115
  586W        W 4637   5.682   8.694   9.570
  587W        W 4638  10.872   6.756  11.956
  588W        W 4639   8.214  10.951   0.762
  589W        W 4640   1.319   8.987  11.506
  590W        W 4641   2.169   1.840   2.677
  591W        W 4642   2.686   0.360   2.879
  592W        W 4643   3.244   3.728   0.052
  593W        W 4644   4.631   6.181   3.491
  594W        W 4645   9.409   4.366   9.867
  595W        W 4646   4.283   7.964  10.338
  596W        W 4647   0.827   8.958   1.351
  597W        W 4648   7.384   3.134   9.475
  598W        W 4649   5.116   9.507   9.437
  599W        W 4650   3.028   6.051  11.944
  600W        W 4651   0.505   8.582   2.003
  601W        W 4652   4.298   7.185   8.889
  602W        W 4653   9.923   1.975   1.662
  603W        W 4654   0.828   3.529   3.125
  604W        W 4655   2.760   9.372   9.946
  605W        W 4656   7.382   4.847  10.501
  606W        W 4657   4.792   6.628   1.237
  607W        W 4658   7.386   1.697  11.775
  608W        W 4659   9.414   3.162  11.523
  609W        W 4660   8.696   9.896   0.296
  610W        W 4661  10.348   9.449  10.021
  611W        W 4662   2.434   2.322  10.111
  612W        W 4663  10.753   9.536   8.830
  613W        W 4664   7.070   9.944   3.219
  614W        W 4665   3.507   5.116   3.334
  615W        W 4666   5.586   9.719   1.897
  616W        W 4667   5.559   2.464   9.246
  617W        W 4668   8.527  11.316   2.222
  618W        W 4669   6.293   7.053  10.470
  619W        W 4670   2.319   7.672  11.835
  620W        W 4671   1.398   2.851   1.919
  621W        W 4672   0.197   2.217   1.451
  622W        W 4673   4.119   6.352   8.613
  623W        W 4674   6.683   7.201  11.424
  624W        W 4675   0.231   5.349   1.484
  625W        W 4676   0.286   4.291   3.079
  626W        W 4677   3.795  10.219   0.181
  627W        W 4678   8.825   4.342   0.113
  628W        W 4679   1.387   1.007   2.797
  629W        W 4680   2.379   9.585  10.163
  630W        W 4681   7.847   9.314   0.723
  631W        W 4682  11.419   5.647  11.711
  632W        W 4683   5.699   8.527   1.379
  633W        W 4684   7.190  10.172   1.399
  634W        W 4685   2.777   9.575  11.558
  635W        W 4686   6.007   6.892   1.798
  636W        W 4687  10.974   7.438  11.358
  637W        W 4688   1.395   6.665   2.175
  638W        W 4689   3.592  10.404  10.483
  639W        W 4690   3.647   9.449   3.276
  640W        W 4691   0.717   6.736   9.033
  641W        W 4692   9.003   6.837   9.545
  642W        W 4693   8.694   6.688   1.647
  643W        W 4694  11.440   5.777   1.102
  644W        W 4695   3.620   1.826   2.646
  645W        W 4696  10.476   0.713   0.916
  646W        W 4697   1.831  10.174  11.285
  647W        W 4698   4.145   5.685  11.841
  648W        W 4699  11.264   7.449  11.781
  649W        W 4700   8.574   0.545  10.220
  650W        W 4701   6.244   9.754   0.364
  651W        W 4702   1.768   7.299   0.251
  652W        W 4703   4.084   0.450   1.429
  653W        W 4704   5.200   1.669  11.736
  654W        W 4705   8.115   7.117   9.954
  655W        W 4706   8.418   1.182  10.865
  656W        W 4707   5.098   4.462  11.211
  657W        W 4708   7.149   7.152   1.120
  658W        W 4709   0.783   1.897   2.313
  659W        W 4710   7.978   0.312   0.256
  660W        W 4711   5.154  10.084   3.137
  661W        W 4712   0.705   8.893  11.092
  662W        W 4713   5.187   1.847   3.093
  663W        W 4714   2.603   5.216   3.653
  664W        W 4715   5.737   3.157   2.134
  665W        W 4716   3.610   4.842   0.624
  666W        W 4717   8.931   3.764   0.734
  667W        W 4718   7.618   9.190   3.114
  668W        W 4719   7.452   8.179   2.061
  669W        W 4720   1.312  11.390  11.036
  670W        W 4721   1.001   3.059   9.674
  671W        W 4722   9.055   0.267  11.467
  672W        W 4723   5.802   5.782  11.873
  673W        W 4724   4.956  10.222  10.039
  674W        W 4725   3.565   7.013   9.605
  675W        W 4726   6.573  11.070  10.966
  676W        W 4727   9.615   5.517   9.471
  677W        W 4728   2.102   4.195  10.574
  678W        W 4729   7.469   4.232   1.924
  679W        W 4730   0.889   7.622   9.366
  680W        W 4731   2.480  10.347  10.083
  681W        W 4732   7.065  10.553   8.665
  682W        W 4733   7.174  11.120   0.395
  683W        W 4734   0.805   3.371  10.054
  684W        W 4735   4.698   6.165   0.806
  685W        W 4736   3.651   2.361  11.809
  686W        W 4737   2.201   6.258   2.972
  687W        W 4738   8.332   5.250   2.829
  688W        W 4739   8.818   3.773   9.117
  689W        W 4740  10.694   4.848   3.581
  690W        W 4741   5.847  10.548   0.176
  691W        W 4742   2.337  11.323   9.104
  692W        W 4743   5.700   1.789   1.018
  693W        W 4744   8.152   8.265   2.245
  694W        W 4745   2.296   1.726  11.917
  695W        W 4746   1.426   5.189   2.649
  696W        W 4747   5.489   2.660   0.968
  697W        W 4748   3.148   9.363   9.213
  698W        W 4749   2.996   4.139   0.229
  699W        W 4750   4.724   7.239   0.538
  700W        W 4751   9.962   0.831   3.505
  701W        W 4752  10.602   5.184   2.274
  702W        W 4753   8.082   4.601   9.470
  703W        W 4754   1.668   2.331   2.300
  704W        W 4755   9.281   3.241  10.875
  705W        W 4756   7.124   0.938  11.308
  706W        W 4757   9.597   8.988   0.883
  707W        W 4758   4.331   9.945  10.657
  708W        W 4759  10.650   3.240   0.698
  709W        W 4760   4.911   1.275   1.213
  710W        W 4761   1.251   9.791   9.830
  711W        W 4762   6.550   9.979   9.619
  712W        W 4763   2.171   8.659   1.627
  713W        W 4764   1.887   8.567  10.020
  714W        W 4765   9.327   9.407   2.206
  715W        W 4766   2.767   2.184   0.265
  716W        W 4767   3.130   3.181   1.794
  717W        W 4768  10.008   9.619   3.083
  718W        W 4769   0.230   0.586   0.115
  719W        W 4770   4.142   9.524  10.962
  720W        W 4771   5.095   9.393  11.083
  721W        W 4772   9.195   6.580  10.873
  722W        W 4773   8.166  10.051   9.071
  723W        W 4774   7.921   0.353  10.978
  724W        W 4775   8.062   1.467   1.851
  725W        W 4776   1.125   7.975  11.602
  726W        W 4777   7.172   3.675   1.229
  727W        W 4778   0.516   7.698   1.473
  728W        W 4779  10.334   0.218   1.014
  729W        W 4780   6.332   1.712   2.340
  730W        W 4781   2.571   5.574   3.304
  731W        W 4782   3.515   8.368  11.305
  732W        W 4783   0.672  10.438   1.354
  733W        W 4784   3.658   7.906  11.532
  734W        W 4785   5.196   3.056  11.586
  735W        W 4786   6.476   2.794   3.461
  736W        W 4787   0.716   0.593   3.222
  737W        W 4788   7.021   8.414   1.886
  738W        W 4789   5.651   7.799   9.877
  739W        W 4790   5.881  10.531   2.113
  740W        W 4791   0.494  11.029   0.670
  741W        W 4792   8.283   6.362  11.004
  742W        W 4793  11.478   7.633   9.619
  743W        W 4794   1.538   7.931  10.904
  744W        W 4795   2.200   1.236   1.004
  745W        W 4796   5.681   5.537   2.712
  746W        W 4797  10.013   8.162   1.079
  747W        W 4798   3.249  10.805   0.859
  748W        W 4799  10.846   8.692   8.804
  749W        W 4800   6.679   3.203   8.929
  750W        W 4801   2.740   4.209  11.200
  751W        W 4802  10.311   5.615   1.897
  752W        W 4803  11.435   4.540   1.683
  753W        W 4804   4.994   2.026   9.548
  754W        W 4805   8.556   7.199  11.177
  755W        W 4806  10.902   4.681   1.672
  756W        W 4807   4.811   2.683  10.963
  757W        W 4808   0.934   9.027   9.209
  758W        W 4809   7.136   4.261   9.998
  759W        W 4810   9.024   0.002   9.539
  760W        W 4811  11.446   5.689  10.742
  761W        W 4812   5.701   1.114   1.829
  762W        W 4813   0.697   0.308  10.952
  763W        W 4814  10.857   7.010   1.666
  764W        W 4815  10.146   4.484   9.897
  765W        W 4816   6.674   9.103  11.660
  766W        W 4817   2.050   6.839   3.634
  767W        W 4818   7.608   0.719   2.049
  768W        W 4819  10.021   5.691  10.644
  769W        W 4820   2.612   1.774   1.751
  770W        W 4821   4.175   1.780   3.089
  771W        W 4822   6.788   5.152   0.446
  772W        W 4823   1.949   0.688   0.188
  773W        W 4824   8.553   8.935   2.736
  774W        W 4825   5.070   6.705  10.338
  775W        W 4826   7.024   1.049   3.611
  776W        W 4827   9.738   4.985   3.899
  777W        W 4828   6.268   5.677   1.304
  778W        W 4829   0.840   5.071   1.702
  779W        W 4830   7.788   4.630  10.743
  780W        W 4831   0.039   8.594   9.458
  781W        W 4832   5.939  10.098  10.488
  782W        W 4833   4.800   5.682   2.078
  783W        W 4834  10.834   0.897   1.312
  784W        W 4835   6.678   2.609   9.356
  785W        W 4836   6.041   2.154   2.255
  786W        W 4837  10.313   0.205  10.697
  787W        W 4838  10.515   5.645  10.483
  788W        W 4839   9.309   7.749   3.382
  789W        W 4840   2.825   8.487   2.790
  790W        W 4841   1.197   9.626   1.791
  791W        W 4842   5.809  10.058   0.356
  792W        W 4843   6.600   3.175  11.168
  793W        W 4844   7.448   7.634   1.252
  794W        W 4845   5.565   1.789   3.437
  795W        W 4846   6.368  10.600  11.185
  796W        W 4847   7.424   7.714   2.292
  797W        W 4848   7.556   6.731  11.428
  798W        W 4849  10.547   6.585  10.374
  799W        W 4850   8.610   9.880   8.709
  800W        W 4851   9.142   8.938  11.153
  801W        W 4852  11.483   5.590   1.872
  802W        W 4853   0.869  10.078   0.376
  803W        W 4854   2.716   6.601  10.934
  804W        W 4855  10.360   5.090   3.142
  805W        W 4856   9.982   1.705  10.269
  806W        W 4857   6.428   3.779   9.599
  807W        W 4858   1.336   5.459   3.193
  808W        W 4859   0.066  11.349  10.668
  809W        W 4860   9.592   0.206   0.538
  810W        W 4861   5.081   0.464   0.781
  811W        W 4862   3.646   2.345   1.208
  812W        W 4863  10.034   0.253   0.278
  813W        W 4864   4.576   2.195   0.983
  814W        W 4865   2.546   8.313   0.802
  815W        W 4866   0.587   9.212   0.788
  816W        W 4867   5.920   7.825  11.975
  817W        W 4868   6.473   5.064   1.868
  818W        W 4869   4.756   8.315   1.567
  819W        W 4870   3.192   1.393   2.032
  820W        W 4871  10.417   0.604   9.401
  821W        W 4872   3.859   0.386   9.679
  822W        W 4873   6.354   7.209   9.492
  823W        W 4874   2.225   5.251   9.489
  824W        W 4875   5.461   0.798   9.866
  825W        W 4876   0.895   8.355   3.512
  826W        W 4877   5.637   9.934  11.828
  827W        W 4878   2.163   3.384   2.798
  828W        W 4879  11.378   7.027  10.519
  829W        W 4880   2.707   4.491   0.947
  830W        W 4881   1.470   9.917   9.375
  831W        W 4882   7.057   4.827   0.751
  832W        W 4883   1.827   8.151   1.375
  833W        W 4884   7.861   4.187   8.700
  834W        W 4885  10.964   2.077   2.274
  835W        W 4886  11.304   9.917   0.773
  836W        W 4887   1.174   0.545   2.935
  837W        W 4888   7.785  10.671   0.795
  838W        W 4889   0.725   8.884   2.808
  839W        W 4890  10.025   5.655   0.962
  840W        W 4891   8.066  10.749   1.230
  841W        W 4892   6.305   9.173   3.169
  842W        W 4893   1.518   6.254   9.886
  843W        W 4894   6.437   0.293  11.662
  844W        W 4895   0.952   8.412   9.863
  845W        W 4896   6.622   9.397   1.085
  846W        W 4897  10.828   2.167   1.770
  847W        W 4898   4.210  10.791   2.455
  848W        W 4899   2.658   3.680   2.043
  849W        W 4900   7.863   0.403   2.697
  850W        W 4901   6.527   8.122  11.352
  851W        W 4902   0.673   2.158   1.733
  852W        W 4903   0.802   0.824   0.726
  853W        W 4904   1.300   3.139  11.572
  854W        W 4905  11.324   4.056   3.499
  855W        W 4906   2.369   2.455   0.456
  856W        W 4907   8.375   7.494   2.300
  857W        W 4908   1.194   9.420   9.470
  858W        W 4909   4.267  11.267  11.376
  859W        W 4910   1.752   5.085   1.672
  860W        W 4911   3.823   9.264   0.438
  861W        W 4912   3.492  11.378  11.974
  862W        W 4913   7.505   5.010   0.932
  863W        W 4914   2.534   4.646  11.766
  864W        W 4915   7.740   1.426   0.552
  865W        W 4916   7.904   1.933   0.700
  866W        W 4917   0.912   2.721   8.481
  867W        W 4918   3.166   7.502   1.098
  868W        W 4919   2.709   4.090   1.259
  869W        W 4920   6.982   0.308   2.755
  870W        W 4921   2.361   8.101   8.145
  871W        W 4922   4.918   2.856   4.014
  872W        W 4923   4.288   3.365  11.476
  873W        W 4924   2.251   3.788   1.332
  874W        W 4925  11.137   7.733   0.728
  875W        W 4926   1.004   8.920   0.418
  876W        W 4927   8.474   1.702   3.162
  877W        W 4928   1.347  10.033  11.746
  878W        W 4929   9.926   8.979   9.378
  879W        W 4930   0.346   2.727   0.047
  880W        W 4931   9.841   7.434   8.537
  881W        W 4932   3.911   2.174   2.889
  882W        W 4933   6.958   5.846  10.361
  883W        W 4934   4.226   2.196   3.386
  884W        W 4935   4.259   0.860   2.198
  885W        W 4936   7.742  10.177   0.599
  886W        W 4937   0.489   6.272   1.653
  887W        W 4938   0.270   1.910  10.300
  888W        W 4939  11.427   4.672  10.562
  889W        W 4940   3.614   0.477   2.709
  890W        W 4941   5.711   1.320   0.779
  891W        W 4942   1.137  10.476   9.525
  892W        W 4943  10.917  10.411   9.293
  893W        W 4944   6.276  10.232   0.203
  894W        W 4945   4.523  11.149   9.207
  895W        W 4946   4.188   4.721   2.817
  896W        W 4947   6.637   9.491  10.477
  897W        W 4948  11.319   7.660   9.107
  898W        W 4949  10.311   9.566  10.541
  899W        W 4950   3.912   6.171  10.657
  900W        W 4951   4.097   4.130   9.302
  901W        W 4952   1.608   9.513   8.599
  902W        W 4953   1.330   8.672   1.064
  903W        W 4954   0.845   6.357   2.933
  904W        W 4955   3.599  11.452   9.537
  905W        W 4956   4.789   8.400   2.871
  906W        W 4957   8.327  10.217   2.811
  907W        W 4958   5.588  10.583   2.949
  908W        W 4959   7.584   8.448  10.355
  909W        W 4960   0.130   1.533  11.915
  910W        W 4961   5.997   3.159   0.086
  911W        W 4962   0.653   7.064   9.496
  912W        W 4963   3.423   8.894   1.937
  913W        W 4964  11.265   8.030   3.061
  914W        W 4965   1.706   7.344   2.914
  915W        W 4966   3.074   5.302   8.258
  916W        W 4967   8.139   2.800  11.304
  917W        W 4968   9.249   0.410   2.722
  918W        W 4969   8.639   1.050   2.600
  919W        W 4970   9.371   2.157   0.315
  920W        W 4971  10.963  10.588   0.769
  921W        W 4972   2.272   9.092   9.996
  922W        W 4973   6.618   1.963   1.470
  923W        W 4974   5.607   1.967   2.026
  924W        W 4975   4.295   0.717  11.382
  925W        W 4976   6.136   3.827   0.383
  926W        W 4977   4.754   6.282  10.323
  927W        W 4978   0.300   2.252  10.868
  928W        W 4979   8.004   7.994   1.363
  929W        W 4980   6.591  10.450  10.747
  930W        W 4981   2.133   4.328   0.527
  931W        W 4982   3.169   5.528  10.501
  932W        W 4983   4.485   8.857   9.357
  933W        W 4984  10.380   2.403  10.933
  934W        W 4985   9.675   4.138   1.828
  935W        W 4986   1.488   6.327   3.503
  936W        W 4987   5.128   2.000   3.606
  937W        W 4988   3.315  10.175   2.676
  938W        W 4989   8.567   3.327   3.118
  939W        W 4990   6.126   1.376   2.689
  940W        W 4991  11.016   3.633   1.418
  941W        W 4992   8.565   6.127   9.198
  942W        W 4993  11.100   8.064   3.543
  943W        W 4994   8.047  11.449   8.939
  944W        W 4995   5.951  10.407   2.624
  945W        W 4996   3.581   6.411   2.717
  946W        W 4997   3.662   3.717   3.049
  947W        W 4998   9.410  10.521  10.284
  948W        W 4999   0.428   7.024   2.547
  949W        W 5000   2.113   9.866   2.847
  950W        W 5001   9.773   3.277  11.881
  951W        W 5002   7.603   2.236  10.908
  952W        W 5003   9.011  11.071   0.382
  953W        W 5004   9.299   5.102   1.453
  954W        W 5005   6.770   8.901   9.200
  955W        W 5006   8.303   9.137  11.760
  956W        W 5007   5.742   3.761   1.606
  957W        W 5008   1.327   3.771   2.871
  958W        W 5009   5.252   8.026   9.688
  959W        W 5010   0.990   1.706   1.457
  960W        W 5011   0.296   9.516   1.482
  961W        W 5012  10.407   3.193   2.201
  962W        W 5013   2.601  10.910   8.970
  963W        W 5014   5.791   7.215  11.254
  964W        W 5015   1.396   0.416   3.418
  965W        W 5016   8.603   5.904  10.975
  966W        W 5017   5.165   4.633  11.751
  967W        W 5018   1.029   0.632   1.720
  968W        W 5019   5.563   7.543  10.930
  969W        W 5020   2.084   5.964  10.962
  970W        W 5021   9.501   5.214   3.433
  971W        W 5022   3.765   8.014   8.937
  972W        W 5023   4.146   7.654   9.056
  973W        W 5024   7.143   2.301   3.011
  974W        W 5025   8.734   4.958  10.782
  975W        W 5026   0.810   0.194   1.850
  976W        W 5027   4.384   1.320   1.367
  977W        W 5028   6.998   2.757   8.988
  978W        W 5029   7.646   3.861   3.279
  979W        W 5030   0.015   4.253   0.127
  980W        W 5031   2.648   8.537   1.709
  981W        W 5032  10.893  10.380   0.311
  982W        W 5033   3.136   2.906   9.162
  983W        W 5034   1.424   2.761  10.979
  984W        W 5035   3.244   9.782   8.934
  985W        W 5036   5.047   5.868  11.369
  986W        W 5037   5.157   9.587   8.080
  987W        W 5038  10.938   8.131   2.679
  988W        W 5039   6.478   9.115   1.852
  989W        W 5040   5.640  10.136   8.555
  990W        W 5041   7.045   8.419   9.067
  991W        W 5042   6.003   5.519   9.668
  992W        W 5043   8.877   5.516  10.582
  993W        W 5044   7.443   3.616   0.763
  994W        W 5045   6.279   2.671   2.889
  995W        W 5046   8.100   5.523   0.693
  996W        W 5047   1.430   6.275   9.006
  997W        W 5048   6.678   0.058  10.845
  998W        W 5049   8.082   6.450   0.292
  999W        W 5050  10.573   4.497   9.625
 1000W        W 5051   9.587   3.565   2.669
 1001W        W 5052   4.165   2.829  10.031
 1002W        W 5053   0.348   4.542   9.801
 1003W        W 5054   9.997   9.076  11.524
 1004W        W 5055   2.635   6.586   2.928
 1005W        W 5056   3.323  10.434   3.151
 1006W        W 5057   9.920   1.799   3.438
 1007W        W 5058   9.434   5.556  11.751
 1008W        W 5059   7.987  10.000   3.263
 1009W        W 5060   1.240   4.543   9.860
 1010W        W 5061   9.008   9.355  11.460
 1011W        W 5062   3.604   0.401   0.026
 1012W        W 5063   3.048   3.074   8.405
 1013W        W 5064   0.244   9.132   0.065
 1014W        W 5065   8.176   8.962   0.569
 1015W        W 5066   9.716   6.699   0.516
 1016W        W 5067   9.324   9.386   9.933
 1017W        W 5068   5.234   1.951   0.724
 1018W        W 5069   3.156   2.388   2.145
 1019W        W 5070   9.314   5.916   1.936
 1020W        W 5071   0.938   1.535  11.091
 1021W        W 5072   2.876   1.630  10.506
 1022W        W 5073   3.781   0.287   9.176
 1023W        W 5074   0.395   6.449   3.283
 1024W        W 5075   1.864   3.632   9.399
 1025W        W 5076   9.937  10.019   3.408
 1026W        W 5077   5.956   0.508   9.278
 1027W        W 5078  11.369   7.029   1.691
 1028W        W 5079   7.670   2.617  11.948
 1029W        W 5080   8.442   0.260   0.474
 1030W        W 5081   5.769  10.917   9.204
 1031W        W 5082   8.433   8.102   9.100
 1032W        W 5083   0.292   5.171   3.008
 1033W        W 5084   4.814   8.885   0.892
 1034W        W 5085   0.505   4.009  11.895
 1035W        W 5086   0.393   6.275   9.745
 1036W        W 5087   8.748   1.452  11.785
 1037W        W 5088  11.235  11.165  10.297
 1038W        W 5089   2.618   8.133   2.091
 1039W        W 5090   3.621   8.415   9.742
 1040W        W 5091   7.867   6.959   2.566
 1041W        W 5092   9.554   2.401  11.122
 1042W        W 5093   6.914   0.808   1.291
 1043W        W 5094   6.290   6.411   8.577
 1044W        W 5095   2.185   8.321  10.700
 1045W        W 5096   0.937   1.358   9.120
 1046W        W 5097   2.072   6.832   9.537
 1047W        W 5098   9.750  10.276   9.013
 1048W        W 5099  11.072   7.738  10.490
 1049W        W 5100   1.181   1.999   0.713
 1050W        W 5101   8.581   9.954   1.146
 1051W        W 5102   6.031   8.185   3.030
 1052W        W 5103  11.044   9.840   0.347
 1053W        W 5104   4.808   9.780   2.629
 1054W        W 5105   6.119   1.381   1.143
 1055W        W 5106   1.767  11.221  11.092
 1056W        W 5107   9.430   6.656   0.099
 1057W        W 5108   8.277   0.262   3.022
 1058W        W 5109   2.443   0.699   0.297
 1059W        W 5110   2.579   6.110  11.033
 1060W        W 5111   3.778   0.069   0.376
 1061W        W 5112   8.007   8.964   1.577
 1062W        W 5113   6.642   8.901   0.348
 1063W        W 5114   0.904   3.434  11.434
 1064W        W 5115   0.864   6.784  10.902
 1065W        W 5116   8.197   6.689   1.758
 1066W        W 5117   2.444   4.846   1.185
 1067W        W 5118   9.403   2.426  10.649
 1068W        W 5119   5.121   2.648   1.336
 1069W        W 5120   0.898   3.645  10.895
 1070W        W 5121   7.570   7.226   0.297
 1071W        W 5122  10.145   7.923   0.667
 1072W        W 5123   6.713   9.314   9.989
 1073W        W 5124   9.882  10.099   1.808
 1074W        W 5125   2.192   4.680   0.158
 1075W        W 5126   2.202   7.959   2.370
 1076W        W 5127  11.169   6.478  11.254
 1077W        W 5128  10.917   9.993  10.074
 1078W        W 5129   1.598   2.375   1.453
 1079W        W 5130   6.496   1.710   1.011
 1080W        W 5131   1.926   1.341   9.405
 1081W        W 5132  11.380   7.270   0.806
 1082W        W 5133   9.897  10.909   9.932
 1083W        W 5134   1.175   9.580   0.875
 1084W        W 5135   0.748   2.354  11.315
 1085W        W 5136   9.514  10.368   0.027
 1086W        W 5137   9.335   7.628   1.010
 1087W        W 5138  10.881   7.204   3.064
 1088W        W 5139   6.597   1.459   1.465
 1089W        W 5140   5.525   6.689   1.823
 1090W        W 5141   9.431   1.914  11.073
 1091W        W 5142   9.283   1.439  11.842
 1092W        W 5143   4.689   7.741   2.939
 1093W        W 5144   6.569   3.736  10.908
 1094W        W 5145   5.133   8.033   3.020
 1095W        W 5146   9.528   8.870  10.788
 1096W        W 5147   9.460   1.592   1.593
 1097W        W 5148   2.913   9.496   2.169
 1098W        W 5149  11.308   5.107   2.865
 1099W        W 5150   7.617   9.322  10.495
 1100W        W 5151   2.872   0.944  11.419
 1101W        W 5152   2.164   4.389   9.824
 1102W        W 5153   3.771   7.966  11.031
 1103W        W 5154   5.153   6.655  10.856
 1104W        W 5155   9.741   7.016   0.937
 1105W        W 5156   0.187   2.810   9.001
 1106W        W 5157   3.752  10.358   2.882
 1107W        W 5158   3.207  11.362  10.633
 1108W        W 5159  10.966  10.829   2.510
 1109W        W 5160  10.858   6.356   2.730
 1110W        W 5161  11.138  11.114  11.522
 1111W        W 5162   0.385   6.017  10.756
 1112W        W 5163   8.195   2.825   1.272
 1113W        W 5164   7.509   2.654   9.029
 1114W        W 5165   7.043   7.054   2.062
 1115W        W 5166   0.334   9.051   3.084
 1116W        W 5167   9.853   1.776   1.192
 1117W        W 5168   2.910   5.490   0.727
 1118W        W 5169   7.954   8.357  11.339
 1119W        W 5170   7.909   0.693   3.112
 1120W        W 5171   8.991   8.675   2.750
 1121W        W 5172   2.077   0.912   0.627
 1122W        W 5173   8.010   3.841  10.102
 1123W        W 5174   9.370   7.411   9.840
 1124W        W 5175   0.842   0.491   8.853
 1125W        W 5176   4.769   4.354   2.942
 1126W        W 5177   7.030   5.030  11.333
 1127W        W 5178  11.012   4.081   0.613
 1128W        W 5179   4.404   1.301   2.758
 1129W        W 5180   2.467   4.212  10.200
 1130W        W 5181   6.418   2.741   1.673
 1131W        W 5182   3.335   0.450   9.436
 1132W        W 5183   7.029   2.971   9.839
 1133W        W 5184   5.167   4.031   8.384
 1134W        W 5185   0.062   2.885  11.264
 1135W        W 5186   6.825  10.743   0.580
 1136W        W 5187   2.714  10.805   9.919
 1137W        W 5188   4.560   2.207  11.958
 1138W        W 5189   7.096   6.510  11.426
 1139W        W 5190  10.273   4.052  10.431
 1140W        W 5191   7.886   5.015   1.462
 1141W        W 5192   6.349   3.286   3.247
 1142W        W 5193   4.293   4.227   2.651
 1143W        W 5194  11.339   7.507   3.175
 1144W        W 5195   1.230   6.678   9.768
 1145W        W 5196   9.459   4.054   2.822
 1146W        W 5197   4.721   4.094   8.643
 1147W        W 5198  10.028   8.605   1.946
 1148W        W 5199   0.901   7.715  10.663
 1149W        W 5200   8.975   5.644   0.959
 1150W        W 5201   0.929   0.223  10.205
 1151W        W 5202   1.259  10.182   2.735
 1152W        W 5203  10.120   3.055  10.536
 1153W        W 5204  11.015   1.166   0.547
 1154W        W 5205   4.609   2.263   2.375
 1155W        W 5206   7.343   1.480   9.084
 1156W        W 5207   3.819   0.384  10.192
 1157W        W 5208   2.464   1.787   8.800
 1158W        W 5209   6.656  10.910   8.719
 1159W        W 5210   3.823   4.615  11.364
 1160W        W 5211   6.212   2.986  10.319
 1161W        W 5212   3.033   5.536   8.820
 1162W        W 5213   0.283   3.155  10.837
 1163W        W 5214   2.451   4.631  11.258
 1164W        W 5215   0.112   1.806   8.910
 1165W        W 5216   4.242   5.027   9.533
 1166W        W 5217  10.075   1.798   2.601
 1167W        W 5218   9.085   4.295   2.568
 1168W        W 5219  11.273   3.122  10.878
 1169W        W 5220   8.360   1.769   0.861
 1170W        W 5221   1.274   8.454  11.545
 1171W        W 5222   6.933   6.194   9.176
 1172W        W 5223  11.395   3.190   1.353
 1173W        W 5224  10.609   1.853   3.904
 1174W        W 5225   1.188  10.262  10.443
 1175W        W 5226   9.089   9.008   1.969
 1176W        W 5227   8.989   1.883  11.949
 1177W        W 5228   4.274   9.937   2.773
 1178W        W 5229   8.938   6.919   1.199
 1179W        W 5230   6.872   3.101   9.384
 1180W        W 5231   6.225   8.539  11.279
 1181W        W 5232   9.424   3.568   3.151
 1182W        W 5233   8.558   2.067   1.295
 1183W        W 5234   8.509   8.013   2.746
 1184W        W 5235   9.860   9.295  10.646
 1185W        W 5236   7.486   2.773   2.342
 1186W        W 5237   8.965   7.126  10.866
 1187W        W 5238  10.821   9.789   1.880
 1188W        W 5239   4.786   9.521   8.455
 1189W        W 5240   8.182   1.798   2.259
 1190W        W 5241   8.012   6.435  11.445
 1191W        W 5242   7.579   5.309  10.617
 1192W        W 5243   7.042   9.059   0.002
 1193W        W 5244   7.106  10.983   9.021
 1194W        W 5245   8.841   4.546   8.654
 1195W        W 5246   4.157   2.595   3.024
 1196W        W 5247   5.674   3.858   0.707
 1197W        W 5248   1.250   6.535  11.263
 1198W        W 5249   8.531   8.971   3.229
 1199W        W 5250   4.129   0.463   8.823
 1200W        W 5251   8.718  10.911   0.969
 1201W        W 5252   6.559   8.447   9.715
 1202W        W 5253   2.349   8.665  10.349
 1203W        W 5254   0.483   1.168  11.806
 1204W        W 5255   0.433   4.395   1.713
 1205W        W 5256   0.419   0.467   2.074
 1206W        W 5257  11.281  10.789   0.398
 1207W        W 5258  10.530   4.814  10.022
 1208W        W 5259   1.840   1.750  10.110
 1209W        W 5260   6.465   4.755   0.386
 1210W        W 5261   1.214   4.975   3.226
 1211W        W 5262  10.323   6.288  11.235
 1212W        W 5263   6.137   9.634  10.564
 1213W        W 5264  10.976   7.844   1.757
 1214W        W 5265   3.294   8.319   8.944
 1215W        W 5266   2.275   6.175   9.319
 1216W        W 5267   9.827   5.506   8.687
 1217W        W 5268  10.408   2.136   9.595
 1218W        W 5269   1.848   0.217   2.707
 1219W        W 5270   3.374   1.285   8.782
 1220W        W 5271   7.190   7.292  10.084
 1221W        W 5272   8.604  10.779   0.482
 1222W        W 5273   6.419   7.995   9.039
 1223W        W 5274   6.601   5.426   0.070
 1224W        W 5275   7.468   1.550   2.370
 1225W        W 5276   6.757   9.522   3.209
 1226W        W 5277   3.460   8.635  11.766
 1227W        W 5278   5.885   2.955   0.842
 1228W        W 5279  10.883   5.561  10.066
 1229W        W 5280   2.411   1.783  11.401
 1230W        W 5281   7.208  10.627   0.224
 1231W        W 5282   0.014  10.886   0.871
 1232W        W 5283   3.312   7.480   2.061
 1233W        W 5284   8.903   7.572  11.103
 1234W        W 5285   6.239  10.048  10.925
 1235W        W 5286   3.743  10.919  10.023
 1236W        W 5287  10.099   9.087   1.803
 1237W        W 5288   3.791   7.026   0.520
 1238W        W 5289   9.420   7.161   1.856
 1239W        W 5290   3.668   9.389   9.204
 1240W        W 5291   3.844   9.872   1.201
 1241W        W 5292   1.332   5.322   9.474
 1242W        W 5293  11.339   8.575   8.976
 1243W        W 5294   8.283   6.345   8.817
 1244W        W 5295   6.929  11.445   3.256
 1245W        W 5296   2.382   1.334   9.138
 1246W        W 5297   6.360   9.185  11.276
 1247W        W 5298   3.115   1.842   9.524
 1248W        W 5299   6.564   2.467  11.909
 1249W        W 5300   3.739   9.820   2.032
 1250W        W 5301   6.178  11.063  11.295
 1251W        W 5302   7.175   7.047   0.564
 1252W        W 5303   2.320   9.939   1.768
 1253W        W 5304   8.502   9.416  11.059
 1254W        W 5305   5.522   5.644   9.568
 1255W        W 5306   7.650   7.993  10.134
 1256W        W 5307   1.147   0.341  11.206
 1257W        W 5308   1.308   8.123   1.923
 1258W        W 5309   7.542  10.859  11.440
 1259W        W 5310   1.687   4.547   9.570
 1260W        W 5311   8.852   1.623   2.813
 1261W        W 5312   5.140   8.624   0.328
 1262W        W 5313   5.626  10.012   1.461
 1263W        W 5314   9.844  10.266  10.334
 1264W        W 5315   9.024   3.666   8.669
 1265W        W 5316   5.648   8.648   0.464
 1266W        W 5317   2.027  11.316  11.920
 1267W        W 5318   7.446   4.000  11.934
 1268W        W 5319   4.563   6.754   2.920
 1269W        W 5320   5.329   5.058   2.581
 1270W        W 5321   9.508   3.020   2.511
 1271W        W 5322   9.158   1.242  10.041
 1272W        W 5323   0.648   0.541  10.500
 1273W        W 5324   4.516  10.381   8.531
 1274W        W 5325   1.228   3.547   9.852
 1275W        W 5326   0.752   0.064  11.407
 1276W        W 5327   0.650   7.159   1.287
 1277W        W 5328  10.448  10.818  11.023
 1278W        W 5329   1.921   5.046   2.635
 1279W        W 5330   1.473   9.762   1.285
 1280W        W 5331   3.660   2.330   0.699
 1281W        W 5332   6.704   6.849   2.373
 1282W        W 5333   8.445   7.096   0.324
 1283W        W 5334   5.263   3.303   2.232
 1284W        W 5335   0.216   2.287   9.148
 1285W        W 5336   1.752   6.871   2.728
 1286W        W 5337   5.278   0.153   0.402
 1287W        W 5338   0.074  10.304   2.350
 1288W        W 5339   6.741  10.012  11.007
 1289W        W 5340   6.008   8.508  11.776
 1290W        W 5341   8.038   7.246  11.127
 1291W        W 5342   9.825   9.413   0.683
 1292W        W 5343   2.409  11.326   0.275
 1293W        W 5344   2.358   9.424   0.415
 1294W        W 5345   8.530   5.637   3.577
 1295W        W 5346   4.246   3.556   0.919
 1296W        W 5347   6.971   2.354  10.992
 1297W        W 5348   8.429   3.267   9.512
 1298W        W 5349   9.183  10.100   0.406
 1299W        W 5350  10.186   8.602  11.584
 1300W        W 5351  11.399   8.620   9.938
 1301W        W 5352   6.519   0.637   0.056
 1302W        W 5353   6.150  11.014   3.405
 1303W        W 5354   0.151   7.194   9.818
 1304W        W 5355   2.880   7.634   2.948
 1305W        W 5356   0.419   9.021   1.735
 1306W        W 5357  10.523   8.493  11.963
 1307W        W 5358   7.214   5.672   1.083
 1308W        W 5359   3.370   5.280   9.167
 1309W        W 5360   9.896   8.129   2.811
 1310W        W 5361   2.915   5.475   1.741
 1311W        W 5362   2.416   3.286   1.179
 1312W        W 5363   3.886   1.279   8.624
 1313W        W 5364   8.697   6.674  10.844
 1314W        W 5365  10.419   1.495  10.441
 1315W        W 5366   7.132   6.508   3.130
 1316W        W 5367  11.471   6.134   0.008
 1317W        W 5368   0.154   1.085   0.243
 1318W        W 5369  11.457   3.389  10.456
 1319W        W 5370   8.838   3.183   8.577
 1320W        W 5371   0.077   6.099   1.921
 1321W        W 5372   5.976   4.079   9.467
 1322W        W 5373   9.874   3.687   0.610
 1323W        W 5374   4.637   8.555   0.452
 1324W        W 5375  10.811   3.468   2.389
 1325W        W 5376   0.483  10.016   2.213
 1326W        W 5377   5.046  11.455   0.840
 1327W        W 5378   7.274   6.199  10.623
 1328W        W 5379   3.769  11.138  11.425
 1329W        W 5380   2.660   9.283  11.958
 1330W        W 5381  10.627   7.859   0.528
 1331W        W 5382   1.709   4.869  11.054
 1332W        W 5383   6.901  11.374   9.481
 1333W        W 5384   1.872   8.839   0.293
 1334W        W 5385   8.548   2.302   2.343
 1335W        W 5386   3.683   2.850   0.726
 1336W        W 5387  10.673  11.425   0.690
 1337W        W 5388   2.882   4.201   2.637
 1338W        W 5389   3.137   0.345   1.510
 1339W        W 5390   0.270   5.529   9.811
 1340W        W 5391   6.299  10.448  10.319
 1341W        W 5392   4.914   0.642   1.663
 1342W        W 5393   0.262   3.125   0.390
 1343W        W 5394   2.964   0.133  10.178
 1344W        W 5395   0.496   3.097  11.434
 1345W        W 5396   1.977   8.105  11.890
 1346W        W 5397   4.592   7.588  11.536
 1347W        W 5398   7.329   0.544   8.930
 1348W        W 5399   6.581   7.887   2.323
 1349W        W 5400   7.554   2.298   0.773
 1350W        W 5401   3.732   5.176   0.245
 1351W        W 5402   3.716   4.488   1.901
 1352W        W 5403   8.156   4.651   8.684
 1353W        W 5404   7.852   8.452  11.926
 1354W        W 5405   5.517   8.991   8.623
 1355W        W 5406   0.898   9.243   3.141
 1356W        W 5407   2.807   2.117  10.373
 1357W        W 5408   0.520   1.298   2.634
 1358W        W 5409   5.358  11.374   1.742
 1359W        W 5410  10.282   9.459  11.320
 1360W        W 5411  10.741  10.407   1.284
 1361W        W 5412   2.780   2.400   0.782
 1362W        W 5413   8.035   6.019   4.124
 1363W        W 5414   2.309  10.897  11.804
 1364W        W 5415   6.955   1.518   0.712
 1365W        W 5416   0.023   9.962   8.848
 1366W        W 5417   0.502   3.060   9.777
 1367W        W 5418  10.641   3.926   0.280
 1368W        W 5419   2.805   3.776   9.456
 1369W        W 5420   4.579   9.498  10.696
 1370W        W 5421   5.674   1.704   2.909
 1371W        W 5422   3.392   1.426   2.870
 1372W        W 5423   5.294   9.466   8.585
 1373W        W 5424   0.223   0.333  10.754
 1374W        W 5425  10.867  10.112  11.319
 1375W        W 5426   4.631  10.056   2.217
 1376W        W 5427   4.955   0.775   9.778
 1377W        W 5428   4.034   4.632   3.533
 1378W        W 5429  10.554   7.227  11.575
 1379W        W 5430   6.781   3.645   9.201
 1380W        W 5431   4.523   4.471   9.551
 1381W        W 5432   3.854   0.451  11.577
 1382W        W 5433  10.877   4.199   1.130
 1383W        W 5434   5.147   9.852   3.612
 1384W        W 5435   4.354   1.415   9.952
 1385W        W 5436   7.472   0.811   3.415
 1386W        W 5437   9.063   0.809   2.388
 1387W        W 5438   8.545   7.591   9.267
 1388W        W 5439   3.684   2.643   9.272
 1389W        W 5440   8.551   7.512   2.792
 1390W        W 5441   9.027   4.603   1.294
 1391W        W 5442   8.598   2.576   0.544
 1392W        W 5443   6.074   3.322   1.145
 1393W        W 5444   2.680   7.999   2.615
 1394W        W 5445   3.202  10.302   0.106
 1395W        W 5446  10.606   9.833  10.912
 1396W        W 5447   7.595   4.377   1.452
 1397W        W 5448   2.393   7.854  10.687
 1398W        W 5449   8.654   6.348  11.737
 1399W        W 5450   8.973   9.625  11.014
 1400W        W 5451   5.761   0.376   0.513
 1401W        W 5452   6.077   8.129   8.624
 1402W        W 5453   6.026   7.262   3.953
 1403W        W 5454   4.071  10.956   9.061
 1404W        W 5455   0.852   3.943  11.305
 1405W        W 5456   4.327   8.832   0.757
 1406W        W 5457   2.800   2.478  11.846
 1407W        W 5458   7.778   6.649   9.989
 1408W        W 5459   9.600   2.874   9.471
 1409W        W 5460  10.099   8.995   9.861
 1410W        W 5461   3.672   0.792   8.952
 1411W        W 5462   4.739   9.073  11.457
 1412W        W 5463   8.769  10.886   2.405
 1413W        W 5464   3.896   5.279  10.580
 1414W        W 5465   6.683   3.754   0.266
 1415W        W 5466   8.041   9.618   9.871
 1416W        W 5467   9.103   5.729   2.784
 1417W        W 5468   7.654   4.151  11.044
 1418W        W 5469  10.711   9.798  11.761
 1419W        W 5470   3.143   9.082  10.189
 1420W        W 5471   5.814   5.196  11.612
 1421W        W 5472   3.397   6.075  10.687
 1422W        W 5473   6.496   6.676   1.657
 1423W        W 5474   9.543   6.144  10.811
 1424W        W 5475   6.939  10.874  10.660
 1425W        W 5476   8.146   8.993   1.077
 1426W        W 5477   3.331   8.069  10.235
 1427W        W 5478   4.254   2.314  10.435
 1428W        W 5479  10.816   2.773   9.178
 1429W        W 5480   0.510  10.956   1.180
 1430W        W 5481   0.978  11.357   1.416
 1431W        W 5482   8.909   7.337   9.544
 1432W        W 5483   2.173   3.412   1.876
 1433W        W 5484   9.190   7.088  11.943
 1434W        W 5485   2.902   7.865  11.928
 1435W        W 5486   2.451   0.569   1.977
 1436W        W 5487   1.179   9.671   2.886
 1437W        W 5488   8.845   0.751  11.482
 1438W        W 5489   2.935   3.036   3.096
 1439W        W 5490   4.271   2.806   0.356
 1440W        W 5491   4.638   4.262   9.109
 1441W        W 5492   4.724   2.968   1.426
 1442W        W 5493   5.214   5.611  10.958
 1443W        W 5494   5.726  11.079   3.041
 1444W        W 5495  11.061   6.067   9.914
 1445W        W 5496   1.271   4.811   9.418
 1446W        W 5497   2.326   4.349   8.448
 1447W        W 5498   2.392   2.690  11.576
 1448W        W 5499   5.792   7.122  10.421
 1449W        W 5500   1.262   1.104  11.124
 1450W        W 5501   8.715   4.259   9.194
 1451W        W 5502   7.388   5.204   1.843
 1452W        W 5503   5.138   1.699  11.252
 1453W        W 5504   6.614   6.123  10.033
 1454W        W 5505   6.604   4.500   2.510
 1455W        W 5506   1.184   5.662   1.317
 1456W        W 5507  10.319   0.651   0.105
 1457W        W 5508   3.092   8.844   2.362
 1458W        W 5509   3.415  10.766  10.878
 1459W        W 5510   8.103   4.090   3.152
 1460W        W 5511   3.158   3.528   2.740
 1461W        W 5512   4.711  10.949   9.684
 1462W        W 5513   9.840   0.294  10.425
 1463W        W 5514   5.688   3.405   8.952
 1464W        W 5515   9.081   4.585  10.956
 1465W        W 5516  10.646   1.774   0.884
 1466W        W 5517   5.199   3.740   1.366
 1467W        W 5518   9.096   4.156   8.883
 1468W        W 5519   9.739   5.295   1.228
 1469W        W 5520   9.936   8.151   0.276
 1470W        W 5521  10.467  10.946   3.272
 1471W        W 5522  10.133   2.393   2.886
 1472W        W 5523   1.274   2.405   1.057
 1473W        W 5524   7.082   0.297   1.316
 1474W        W 5525   2.164   2.059  10.990
 1475W        W 5526   7.379   7.209   2.427
 1476W        W 5527   0.022   9.556   2.768
 1477W        W 5528   9.141   6.606   9.115
 1478W        W 5529   3.159   8.865   9.100
 1479W        W 5530   4.092   9.546  10.427
 1480W        W 5531   1.910   2.221   0.441
 1481W        W 5532   4.821  10.570   1.287
 1482W        W 5533   6.218   6.221   3.012
 1483W        W 5534   3.710   5.397  11.776
 1484W        W 5535   0.139   8.896   2.138
 1485W        W 5536   6.077   6.217  11.969
 1486W        W 5537   0.902   6.441   1.914
 1487W        W 5538   5.204   3.622  10.996
 1488W        W 5539   9.275   6.305  11.295
 1489W        W 5540   8.936   3.288  10.489
 1490W        W 5541   4.579   0.253  11.977
 1491W        W 5542   1.762   9.193  11.351
 1492W        W 5543   9.676   0.591   9.457
 1493W        W 5544   9.759   0.780  11.444
 1494W        W 5545  10.342  11.384   1.924
 1495W        W 5546  10.809   1.315  11.089
 1496W        W 5547   3.742   3.358  10.919
 1497W        W 5548   0.458   3.829   2.312
 1498W        W 5549   4.589   0.749   0.769
 1499W        W 5550   9.041   8.099  10.173
 1500W        W 5551  10.815   0.312   1.028
 1501W        W 5552  10.154  10.422   9.971
 1502W        W 5553   8.551  11.243   0.181
 1503W        W 5554   1.024  10.552   2.464
 1504W        W 5555   5.120   0.009   2.710
 1505W        W 5556   5.446   4.036   3.575
 1506W        W 5557   1.994   9.872   9.391
 1507W        W 5558   4.902   1.206   2.608
 1508W        W 5559   6.644   2.671  10.389
 1509W        W 5560   5.168   3.958   3.993
 1510W        W 5561   9.136   6.340   8.684
 1511W        W 5562   8.907   7.417   1.223
 1512W        W 5563  10.601   4.305  10.109
 1513W        W 5564   2.183   9.126  11.996
 1514W        W 5565   8.109   5.012   4.061
 1515W        W 5566   7.638   7.149   1.252
 1516W        W 5567   1.648   6.925   3.228
 1517W        W 5568   0.061   5.964   9.947
 1518W        W 5569   4.434  10.409  11.375
 1519W        W 5570   9.484   9.855   1.204
 1520W        W 5571   5.534   9.643  11.343
 1521W        W 5572   2.653   1.059   1.251
 1522W        W 5573   3.359   2.231   9.262
 1523W        W 5574  11.049   9.427  11.732
 1524W        W 5575   2.295   2.231   0.906
 1525W        W 5576   9.057   6.792   1.980
 1526W        W 5577   7.803   5.717   9.863
 1527W        W 5578  11.093   4.477  10.884
 1528W        W 5579   8.025   4.684   2.172
 1529W        W 5580   7.354   4.712  11.035
 1530W        W 5581   4.255  11.386   2.616
 1531W        W 5582   3.676   6.579   0.288
 1532W        W 5583   5.905   0.961   8.514
 1533W        W 5584  10.854   8.201   0.224
 1534W        W 5585  10.781   1.841  10.462
 1535W        W 5586   9.425   2.600   2.009
 1536W        W 5587   1.628   1.351   9.831
 1537W        W 5588   0.511  10.555   2.316
 1538W        W 5589   9.341  11.372  11.214
 1539W        W 5590   9.970  11.434   9.520
 1540W        W 5591   2.907   5.362   0.217
 1541W        W 5592   3.394   2.540  10.666
 1542W        W 5593   4.425   3.861  11.244
 1543W        W 5594   6.573   2.227   0.947
 1544W        W 5595   2.131   1.777   9.198
 1545W        W 5596   2.189  11.422  11.419
 1546W        W 5597   4.359   0.811   0.309
 1547W        W 5598   9.573   8.041  10.084
 1548W        W 5599   4.908   8.601  10.890
 1549W        W 5600   0.583   5.914   0.704
 1550W        W 5601   3.224   4.300  11.302
 1551W        W 5602   2.205   8.517   3.104
 1552W        W 5603   1.829   0.268   9.506
 1553W        W 5604   6.385   4.023  10.463
 1554W        W 5605   4.117  11.248  10.841
 1555W        W 5606   5.987   6.196   0.879
 1556W        W 5607   0.269   1.622   9.888
 1557W        W 5608   1.461  10.266   1.335
 1558W        W 5609   3.733   6.590   9.385
 1559W        W 5610   1.130   1.831   8.978
 1560W        W 5611   7.948   0.426   1.778
 1561W        W 5612   6.279   8.810   9.996
 1562W        W 5613   8.006   4.165  11.424
 1563W        W 5614   8.612   8.407   1.988
 1564W        W 5615   8.211   6.530   3.231
 1565W        W 5616   9.636   6.953   2.292
 1566W        W 5617   0.700  11.390   0.998
 1567W        W 5618   8.789   8.727   3.739
 1568W        W 5619  11.459   9.141  10.761
 1569W        W 5620   1.294   5.975   0.051
 1570W        W 5621   8.893   6.114   0.532
 1571W        W 5622   8.510   3.419   8.896
 1572W        W 5623   4.725   8.072  11.666
 1573W        W 5624  11.286   9.667   1.729
 1574W        W 5625   6.778   8.076   9.420
 1575W        W 5626   7.137  10.469   9.187
 1576W        W 5627  10.968  10.626  11.442
 1577W        W 5628   5.471   6.244   2.289
 1578W        W 5629   6.379   6.191   2.522
 1579W        W 5630   3.281   8.573  10.398
 1580W        W 5631   2.695   5.539   2.809
 1581W        W 5632   0.277   9.463  11.328
 1582W        W 5633   3.233   6.184   3.347
 1583W        W 5634   0.579   1.511   3.645
 1584W        W 5635   0.311   7.070  11.781
 1585W        W 5636   3.689   3.854  11.815
 1586W        W 5637   9.847   0.066   1.866
 1587W        W 5638  10.394   1.283  11.358
 1588W        W 5639   6.256   7.896   0.365
 1589W        W 5640  11.003  10.015   1.465
 1590W        W 5641  10.822   1.353   9.626
 1591W        W 5642  10.446   6.491  11.995
 1592W        W 5643   0.840   1.085   3.124
 1593W        W 5644   0.909   3.790   2.555
 1594W        W 5645   9.540   2.051   2.529
 1595W        W 5646   3.155   2.074  10.752
 1596W        W 5647   4.536   0.955  10.112
 1597W        W 5648   1.349   2.350   1.924
 1598W        W 5649   8.860   4.595   2.214
 1599W        W 5650   5.803   9.024   9.947
 1600W        W 5651  11.011   9.860   2.338
 1601W        W 5652   8.837   1.718   1.033
 1602W        W 5653   8.020   7.483   1.320
 1603W        W 5654   9.009   7.696   2.892
 1604W        W 5655  10.017   7.013   8.997
 1605W        W 5656   3.384   3.390   1.392
 1606W        W 5657   9.178   7.591  11.942
 1607W        W 5658  10.648   3.618   9.661
 1608W        W 5659   8.082  10.317  11.876
 1609W        W 5660  10.123   8.778   8.932
 1610W        W 5661   6.965   4.619  11.739
 1611W        W 5662   6.556   1.130   9.582
 1612W        W 5663   6.255   8.975   2.693
 1613W        W 5664  10.014   8.951  11.010
 1614W        W 5665   8.329   6.822   0.763
 1615W        W 5666   2.806  11.390   8.824
 1616W        W 5667   2.506   0.064  10.383
 1617W        W 5668   6.627  10.913   1.362
 1618W        W 5669   4.573   9.045  11.929
 1619W        W 5670   9.409   2.891   0.893
 1620W        W 5671   5.009   2.825   3.162
 1621W        W 5672   0.162  10.336   1.422
 1622W        W 5673   9.835   4.805   2.300
 1623W        W 5674  10.080   0.382   9.726
 1624W        W 5675   3.305   9.974   1.298
 1625W        W 5676  10.920   6.488   1.290
 1626W        W 5677   6.097   3.646   1.989
 1627W        W 5678   4.118   4.263  11.183
 1628W        W 5679   0.756  10.796   3.390
 1629W        W 5680   9.389   8.045   1.805
 1630W        W 5681   0.430   6.195  11.768
 1631W        W 5682   4.240  10.113   3.268
 1632W        W 5683   9.441   3.928   2.307
 1633W        W 5684   2.906   2.594  10.509
 1634W        W 5685   0.775   4.207   0.709
 1635W        W 5686   1.834   0.934   8.655
 1636W        W 5687   3.832   3.615  11.370
 1637W        W 5688   2.177   5.703   9.111
 1638W        W 5689   8.107   5.852  10.992
 1639W        W 5690   4.952   9.531   8.959
 1640W        W 5691   3.896   7.571   3.205
 1641W        W 5692   5.604   3.674   2.080
 1642W        W 5693   5.052   3.551   2.776
 1643W        W 5694   0.058   6.713   2.405
 1644W        W 5695  10.476   3.216   2.704
 1645W        W 5696   5.659   7.658   1.921
 1646W        W 5697   7.366   0.943   8.473
 1647W        W 5698   7.964   4.994  10.424
 1648W        W 5699   4.432   1.071  11.052
 1649W        W 5700   2.662   3.301   0.215
 1650W        W 5701   0.459   0.180   3.456
 1651W        W 5702   3.164   3.653  10.589
 1652W        W 5703   3.170   6.049   9.799
 1653W        W 5704   9.878   2.842   1.143
 1654W        W 5705   0.401   8.616  10.057
 1655W        W 5706   7.090   2.824   0.470
 1656W        W 5707   8.124  10.019   2.367
 1657W        W 5708   0.840   8.363  11.279
 1658W        W 5709   6.182   5.315   2.416
 1659W        W 5710   1.897   2.286   1.855
 1660W        W 5711   3.225   5.312   2.471
 1661W        W 5712   5.822   5.046   0.397
 1662W        W 5713   5.155   9.753  11.705
 1663W        W 5714   1.372   5.746   1.779
 1664W        W 5715   2.161   9.054   8.916
 1665W        W 5716  10.520   6.975   9.102
 1666W        W 5717   5.546   7.972   8.702
 1667W        W 5718   4.710   0.925   3.604
 1668W        W 5719   6.411   2.126   9.302
 1669W        W 5720   1.248   7.697   9.005
 1670W        W 5721  11.229   2.786   1.710
 1671W        W 5722   3.407   2.248   3.028
 1672W        W 5723  10.819   3.698   0.948
 1673W        W 5724  11.016   6.158   0.533
 1674W        W 5725   0.862   8.646  10.291
 1675W        W 5726   2.658   0.530  11.244
 1676W        W 5727  11.459   8.075   2.574
 1677W        W 5728   7.293  10.762   2.121
 1678W        W 5729  10.405   0.471   8.919
 1679W        W 5730   5.487   6.687   0.358
 1680W        W 5731   2.700   0.238   0.247
 1681W        W 5732   3.513   4.009   2.012
 1682W        W 5733   9.640   2.930  11.086
 1683W        W 5734   4.613   9.389   9.381
 1684W        W 5735   8.716   5.120   0.348
 1685W        W 5736   5.052   4.012   0.076
 1686W        W 5737   1.685   9.492   9.605
 1687W        W 5738   4.779   1.469  11.529
 1688W        W 5739   5.662   9.381  11.759
 1689W        W 5740   1.803   0.473   1.206
 1690W        W 5741   2.741   3.615   3.057
 1691W        W 5742   9.958   4.839   1.269
 1692W        W 5743   9.024   4.818   2.665
 1693W        W 5744   0.075   9.441   3.290
 1694W        W 5745   4.547   4.820   0.461
 1695W        W 5746  10.795   5.737   3.565
 1696W        W 5747   7.063   9.846   2.254
 1697W        W 5748   6.128   4.878  10.405
 1698W        W 5749  10.977   0.760   0.843
 1699W        W 5750   8.471  10.033  10.344
 1700W        W 5751   2.708   3.658   1.538
 1701W        W 5752   3.836  10.255   0.693
 1702W        W 5753  11.145   0.038  11.803
 1703W        W 5754   4.447   9.305   1.282
 1704W        W 5755   4.658  10.786   1.741
 1705W        W 5756   9.071  11.377  10.549
 1706W        W 5757   4.243   7.765  10.964
 1707W        W 5758   5.481  10.757   1.168
 1708W        W 5759   7.913   3.187  11.632
 1709W        W 5760   5.528   6.807  10.056
 1710W        W 5761  10.135   5.190  10.521
 1711W        W 5762   6.238   3.161   2.149
 1712W        W 5763   8.499   5.203   3.335
 1713W        W 5764  10.812   0.749   0.338
 1714W        W 5765  10.104   6.303  11.686
 1715W        W 5766   8.938   3.564   9.994
 1716W        W 5767   4.798   6.997   2.402
 1717W        W 5768   3.350   8.146  11.847
 1718W        W 5769   1.082   7.923  11.098
 1719W        W 5770   2.257   0.946   3.164
 1720W        W 5771   4.201   8.422   9.474
 1721W        W 5772   8.118   7.828   3.037
 1722W        W 5773   7.871  11.477  10.382
 1723W        W 5774   1.455   3.770   1.206
 1724W        W 5775   7.299   4.453   8.240
 1725W        W 5776   6.191  11.210   9.096
 1726W        W 5777   7.869   5.463   1.737
 1727W        W 5778   5.561   1.691   8.976
 1728W        W 5779   2.768   2.679   1.987
 1729W        W 5780   0.427   4.078   0.380
 1730W        W 5781   2.426   8.611   8.824
 1731W        W 5782   3.808  11.086   8.624
 1732W        W 5783   8.402  10.942  11.785
 1733W        W 5784   9.509   0.103   9.365
 1734W        W 5785   5.531   7.974   3.663
 1735W        W 5786   8.990  10.000   2.991
 1736W        W 5787   0.407   0.328   1.034
 1737W        W 5788   6.325   8.028   0.872
 1738W        W 5789   6.201   4.047   8.162
 1739W        W 5790   5.163   2.566  11.769
 1740W        W 5791   3.155   8.328   3.163
 1741W        W 5792   3.072   5.582   1.232
 1742W        W 5793   0.738  10.449  10.617
 1743W        W 5794   5.327   6.959   3.552
 1744W        W 5795   5.999   4.158   3.619
 1745W        W 5796   8.878   5.063   1.130
 1746W        W 5797   6.194   4.330   0.995
 1747W        W 5798   4.706   3.764  10.776
 1748W        W 5799   6.600   7.994   8.559
 1749W        W 5800   0.925   2.948   0.747
 1750W        W 5801   1.691   3.262   1.915
 1751W        W 5802  10.958   5.539   2.169
 1752W        W 5803   9.437   4.234  10.885
 1753W        W 5804   3.655   6.172   9.672
 1754W        W 5805   3.618   3.522   9.886
 1755W        W 5806   6.316   5.372  10.447
 1756W        W 5807   9.903   4.666   8.927
 1757W        W 5808  10.788   7.697   9.062
 1758W        W 5809   4.248   5.595  10.868
 1759W        W 5810   5.670  10.513   8.903
 1760W        W 5811   5.924   3.800   2.854
 1761W        W 5812   7.203  10.139   0.436
 1762W        W 5813   3.229   9.526   3.615
 1763W        W 5814  11.452   8.051   1.881
 1764W        W 5815   5.701   4.120   0.261
 1765W        W 5816   4.178   6.657   0.313
 1766W        W 5817   6.906   0.762  10.299
 1767W        W 5818  10.474  10.525   0.576
 1768W        W 5819   2.922   2.966  11.914
 1769W        W 5820  10.029   2.557  11.299
 1770W        W 5821   4.455   6.670   3.585
 1771W        W 5822   1.319   8.919   2.391
 1772W        W 5823   2.185   3.308  10.487
 1773W        W 5824   7.936   9.169   9.673
 1774W        W 5825   3.276   4.006   2.878
 1775W        W 5826  11.145   9.489   9.528
 1776W        W 5827   2.757   3.740   8.949
 1777W        W 5828   9.098   8.074   2.221
 1778W        W 5829   7.784   2.814   2.788
 1779W        W 5830   7.493   3.149  10.909
 1780W        W 5831   8.525   0.611   1.177
 1781W        W 5832   6.549   0.789  11.551
 1782W        W 5833   6.529   2.202   2.392
 1783W        W 5834   9.656   8.702  11.307
 1784W        W 5835   3.311   9.775   2.331
 1785W        W 5836   4.586   0.327   1.434
 1786W        W 5837   6.707   1.099  11.957
 1787W        W 5838   5.209   1.003   3.461
 1788W        W 5839   4.482   5.390  10.440
 1789W        W 5840   0.999   8.538   9.376
 1790W        W 5841  10.774   8.461  10.910
 1791W        W 5842   7.065   9.708   1.198
 1792W        W 5843   1.955   2.239   9.993
 1793W        W 5844   6.521   8.353   0.250
 1794W        W 5845   3.374   9.103  11.524
 1795W        W 5846   5.973   7.864  11.027
 1796W        W 5847   6.236   6.476   9.838
 1797W        W 5848   1.240   0.997   0.920
 1798W        W 5849   1.444   3.095   9.907
 1799W        W 5850   1.707   4.533   3.325
 1800W        W 5851   4.030   6.765   2.875
 1801W        W 5852   6.025   1.841   9.501
 1802W        W 5853  10.780   9.125   2.948
 1803W        W 5854   9.765   8.420   8.959
 1804W        W 5855   1.483   8.018   0.026
 1805W        W 5856   9.373   6.676   1.024
 1806W        W 5857   9.427   4.732   3.579
 1807W        W 5858   0.666   6.708  11.803
 1808W        W 5859   2.618  10.549  11.445
 1809W        W 5860   3.802   2.159   9.022
 1810W        W 5861  10.902  10.898   9.955
 1811W        W 5862  10.927   6.673   3.152
 1812W        W 5863   8.030  10.071  10.089
 1813W        W 5864   4.686  10.904   3.293
 1814W        W 5865   1.476   9.640   0.049
 1815W        W 5866   9.528   2.644   1.495
 1816W        W 5867   4.285  10.807  10.614
 1817W        W 5868   9.237   5.162  10.712
 1818W        W 5869   3.217   3.844  11.542
 1819W        W 5870   5.711   4.214   9.936
 1820W        W 5871   4.129  10.004  10.173
 1821W        W 5872   1.279   9.150   2.836
 1822W        W 5873   2.522  10.104   3.034
 1823W        W 5874   6.633   9.424   9.242
 1824W        W 5875   1.631   5.534   0.459
 1825W        W 5876   8.866   4.185   9.679
 1826W        W 5877   9.952   7.154   2.652
 1827W        W 5878   2.499   5.342   1.014
 1828W        W 5879   4.186   3.064  11.062
 1829W        W 5880   1.387   5.801   9.650
 1830W        W 5881   1.097   2.937   3.478
 1831W        W 5882   1.716   6.608  10.992
 1832W        W 5883   1.150  10.997   9.378
 1833W        W 5884   4.132   5.220  11.563
 1834W        W 5885   0.595  10.285   8.906
 1835W        W 5886   5.021   5.824   9.593
 1836W        W 5887   1.364   3.826   1.842
 1837W        W 5888   0.244   3.510   9.871
 1838W        W 5889   9.948   0.505   8.691
 1839W        W 5890   9.523   1.944   9.010
 1840W        W 5891   4.625   3.224   0.247
 1841W        W 5892   9.183   0.483   9.529
 1842W        W 5893   3.591   4.205   3.264
 1843W        W 5894   8.519   5.386  10.952
 1844W        W 5895   5.677   8.722   1.864
 1845W        W 5896  10.096   2.745   9.424
 1846W        W 5897  10.243   3.413  10.879
 1847W        W 5898   7.945   9.419   8.818
 1848W        W 5899   0.796   8.247   2.285
 1849W        W 5900   0.730   8.110   9.234
 1850W        W 5901   9.100   6.674   2.906
 1851W        W 5902   8.523  10.367   0.182
 1852W        W 5903   6.578   2.648  11.190
 1853W        W 5904   0.253   5.865   1.469
 1854W        W 5905   1.824   2.801   1.185
 1855W        W 5906   3.483   8.404   1.630
 1856W        W 5907   3.842   4.811  10.887
 1857W        W 5908   8.094   2.611   8.464
 1858W        W 5909   1.537  11.038   0.855
 1859W        W 5910   6.720   9.905   0.357
 1860W        W 5911   5.838   6.243  11.494
 1861W        W 5912   4.662  11.281   2.924
 1862W        W 5913   7.163   9.391   1.958
 1863W        W 5914  10.663  11.399  11.786
 1864W        W 5915   1.991   6.274  11.869
 1865W        W 5916   7.465   3.328   1.569
 1866W        W 5917   5.746   4.118   3.183
 1867W        W 5918   8.146  10.840   1.728
 1868W        W 5919   2.460  10.877  10.904
 1869W        W 5920  11.261   4.268   2.989
 1870W        W 5921   7.171   2.644   9.473
 1871W        W 5922   9.239   0.786   1.882
 1872W        W 5923   7.195   3.254   3.028
 1873W        W 5924   2.216   3.691   3.246
 1874W        W 5925  10.327   3.398   9.977
 1875W        W 5926   1.351   9.179   1.959
 1876W        W 5927   3.732   2.105   8.478
 1877W        W 5928  10.292   3.935   9.911
 1878W        W 5929   6.896   5.337   2.029
 1879W        W 5930   4.528   2.734   1.001
 1880W        W 5931   6.239   3.670   1.491
 1881W        W 5932   8.360  10.830   9.536
 1882W        W 5933   4.750   5.237   0.755
 1883W        W 5934   7.115   4.523   1.710
 1884W        W 5935  11.024  11.358   0.276
 1885W        W 5936   9.737   5.953  11.709
 1886W        W 5937   6.717  10.450   9.480
 1887W        W 5938   5.311  10.946   8.967
 1888W        W 5939   6.299   2.342   1.370
 1889W        W 5940   4.563   0.549   2.421
 1890W        W 5941   0.507   2.768  10.560
 1891W        W 5942  10.956   1.970   2.770
 1892W        W 5943   6.448   6.017   0.971
 1893W        W 5944   1.893  10.120   2.007
 1894W        W 5945   1.155   0.852   9.121
 1895W        W 5946   3.489   9.596   9.637
 1896W        W 5947  10.370   2.748   2.461
 1897W        W 5948   1.209   8.051   9.396
 1898W        W 5949   0.361   0.835   2.433
 1899W        W 5950   1.710   5.559   1.427
 1900W        W 5951   3.266   8.832   3.205
 1901W        W 5952  10.057   4.994  10.054
 1902W        W 5953   2.087   1.808   1.749
 1903W        W 5954   8.428   3.267  10.437
 1904W        W 5955   3.789   3.099  11.376
 1905W        W 5956   9.062   6.087   9.106
 1906W        W 5957  11.176   5.736  11.212
 1907W        W 5958   1.752   4.593   1.496
 1908W        W 5959   8.744   2.500   2.780
 1909W        W 5960  11.356  10.568  11.107
 1910W        W 5961  10.059   2.602  10.336
 1911W        W 5962   8.244   0.904  10.393
 1912W        W 5963   5.485   2.084   2.554
 1913W        W 5964   5.630   0.387   9.636
 1914W        W 5965  10.951   5.208  11.509
 1915W        W 5966  10.141   3.625   9.517
 1916W        W 5967   0.245   7.274   2.957
 1917W        W 5968   3.338  11.378   1.387
 1918W        W 5969   6.723   6.138   8.706
 1919W        W 5970   1.487   7.073   8.479
 1920W        W 5971  11.313   5.727   9.198
 1921W        W 5972  10.128   6.043   2.200
 1922W        W 5973   5.057  10.326   2.308
 1923W        W 5974   0.435   9.836   3.450
 1924W        W 5975   9.141   9.561   0.326
 1925W        W 5976   9.013  10.478   2.187
 1926W        W 5977   1.785   8.935   1.823
 1927W        W 5978   2.245   2.795  10.053
 1928W        W 5979   4.108   4.241   1.532
 1929W        W 5980   2.223   1.955   3.767
 1930W        W 5981   4.108   3.344  10.044
 1931W        W 5982   0.197   1.451   1.697
 1932W        W 5983   8.433  10.702   2.740
 1933W        W 5984   4.631   3.866   2.813
 1934W        W 5985   6.636   8.446  10.255
 1935W        W 5986   3.008  10.437  10.115
 1936W        W 5987   3.191   1.781   9.008
 1937W        W 5988   9.567  10.765   1.018
 1938W        W 5989   3.493   8.001   0.928
 1939W        W 5990   5.412   7.837   9.213
 1940W        W 5991   4.041   2.567   2.528
 1941W        W 5992   7.704  11.047   0.466
 1942W        W 5993   3.614   2.082   0.255
 1943W        W 5994   6.608   1.277   9.059
 1944W        W 5995   8.088   8.314   2.752
 1945W        W 5996   0.888   0.362   2.355
 1946W        W 5997   6.889   3.316   0.573
 1947W        W 5998   4.148   9.074   1.691
 1948W        W 5999   3.486   0.494   3.717
 1949W        W 6000   3.663   3.564   1.782
 1950W        W 6001   9.909   4.767  10.765
 1951W        W 6002   7.246   1.887   2.671
 1952W        W 6003   8.676   3.682  11.309
 1953W        W 6004  11.403   9.916   9.341
 1954W        W 6005   9.806   0.053   0.997
 1955W        W 6006   1.459   5.116   2.115
 1956W        W 6007   2.431   6.140   8.830
 1957W        W 6008   3.372   9.489   0.391
 1958W        W 6009   8.615   5.261  11.856
 1959W        W 6010   5.981   6.066  10.997
 1960W        W 6011  10.549   3.430   0.250
 1961W        W 6012   3.121  11.345  11.134
 1962W        W 6013   8.621   8.813   1.211
 1963W        W 6014   1.788   5.979   2.210
 1964W        W 6015   1.635  10.827   9.300
 1965W        W 6016  11.286   9.755  11.368
 1966W        W 6017   5.293   8.952   0.692
 1967W        W 6018  10.600  11.328  10.956
 1968W        W 6019  11.446   7.570   1.682
 1969W        W 6020   9.910   5.606   0.021
 1970W        W 6021   1.373   1.402   3.131
 1971W        W 6022   4.776   1.701  11.987
 1972W        W 6023   6.535   7.577   0.988
 1973W        W 6024   4.974   6.567   3.557
 1974W        W 6025   3.837   3.172   1.480
 1975W        W 6026   7.136   8.851  11.059
 1976W        W 6027   3.272   2.692   1.742
 1977W        W 6028   2.256   7.942   1.174
 1978W        W 6029   3.682   0.287   3.192
 1979W        W 6030   4.156  11.194  10.296
 1980W        W 6031  10.414   5.176  11.480
 1981W        W 6032   2.843   8.791   0.777
 1982W        W 6033  10.853   3.299   9.298
 1983W        W 6034   3.936   7.125   9.269
 1984W        W 6035   3.852   3.378  11.819
 1985W        W 6036  11.396   3.128  10.010
 1986W        W 6037   2.213   8.910  11.321
 1987W        W 6038   6.207  10.809  10.727
 1988W        W 6039   2.194   2.227  11.475
 1989W        W 6040   3.272   9.060  10.664
 1990W        W 6041   1.291   5.280   1.631
 1991W        W 6042   9.755   4.596  10.208
 1992W        W 6043   3.836   8.119   8.404
 1993W        W 6044   8.141  10.429   2.016
 1994W        W 6045   6.955   8.438   0.559
 1995W        W 6046   5.540   2.370   9.757
 1996W        W 6047   0.694   5.980   1.216
 1997W        W 6048   1.673   6.701  11.976
 1998W        W 6049   6.084   8.918   1.618
 1999W        W 6050   0.627   1.842   9.073
 2000W        W 6051   2.758   1.124  10.442
 2001W        W 6052   6.061   0.400   2.269
 2002W        W 6053   8.588   9.705   1.610
 2003W        W 6054  11.423   0.903  11.844
 2004W        W 6055   7.212   7.820   9.961
 2005W        W 6056   8.636  10.001  11.088
 2006W        W 6057   3.348   2.236   9.778
 2007W        W 6058   1.804   6.448   1.940
 2008W        W 6059   3.672   8.912   9.025
 2009W        W 6060   2.258   3.687  11.277
 2010W        W 6061  10.046   0.227   1.428
 2011W        W 6062   8.265   1.550  11.277
 2012W        W 6063   2.894   1.855  11.217
 2013W        W 6064   8.365   9.586   0.011
 2014W        W 6065   0.332   7.969   9.539
 2015W        W 6066   2.691   3.457   8.523
 2016W        W 6067   1.365   9.450   3.332
 2017W        W 6068  10.887   6.999  10.837
 2018W        W 6069   3.834   7.479   0.250
 2019W        W 6070   1.979   7.698   3.159
 2020W        W 6071   1.819   1.361   2.028
 2021W        W 6072   9.393   9.372  11.869
 2022W        W 6073   1.628  10.512   1.758
 2023W        W 6074   7.969  11.364   0.943
 2024W        W 6075   8.589   0.597   2.325
 2025W        W 6076   4.268   4.591  11.683
 2026W        W 6077   2.441   7.488   4.054
 2027W        W 6078   9.505   9.826   8.984
 2028W        W 6079   8.118   5.330   3.669
 2029W        W 6080   9.653  10.968  11.280
 2030W        W 6081   8.905   3.640  10.850
 2031W        W 6082   6.104   9.488   0.764
 2032W        W 6083   2.622  10.868   0.208
 2033W        W 6084  10.483   0.356   3.154
 2034W        W 6085   1.558   2.426   0.100
 2035W        W 6086  10.894   1.179   8.631
 2036W        W 6087   9.043  11.252   2.134
 2037W        W 6088   8.166   7.545   1.829
 2038W        W 6089   3.112   1.486   3.332
 2039W        W 6090   2.194   4.944   3.800
 2040W        W 6091   0.141   6.783  10.142
 2041W        W 6092  10.357   7.000  11.987
 2042W        W 6093  10.806   6.109  11.194
 2043W        W 6094   1.654   2.781   3.191
 2044W        W 6095  10.106   2.780   8.901
 2045W        W 6096   4.814  10.066   1.368
 2046W        W 6097   5.699  11.348   8.935
 2047W        W 6098   2.784   4.563   1.456
 2048W        W 6099   4.478  11.257  11.941
 2049W        W 6100   8.965   9.495  10.296
 2050W        W 6101   3.031   7.803   0.728
 2051W        W 6102   5.688   8.195   1.848
 2052W        W 6103   6.414   3.333   9.361
 2053W        W 6104   1.116   2.214   1.497
 2054W        W 6105   5.543   5.713   0.448
 2055W        W 6106   8.911   5.927  11.419
 2056W        W 6107  11.493   6.762   0.874
 2057W        W 6108   6.744  10.405   1.494
 2058W        W 6109   4.374   6.534   0.977
 2059W        W 6110  10.770   5.168   1.375
 2060W        W 6111   0.408  10.327   9.937
 2061W        W 6112   6.968   3.747   2.273
 2062W        W 6113   4.021   7.928   0.970
 2063W        W 6114   5.497   3.314   1.713
 2064W        W 6115  11.264   0.404  11.088
 2065W        W 6116   1.802  10.393   2.814
 2066W        W 6117   1.012   9.986   1.349
 2067W        W 6118  10.460   8.961  11.284
 2068W        W 6119   9.669   8.154   9.574
 2069W        W 6120   1.903   2.525  11.750
 2070W        W 6121   5.975   6.188   8.923
 2071W        W 6122   0.661   1.647   1.876
 2072W        W 6123   2.219  11.326  10.914
 2073W        W 6124   4.206  10.283   2.391
 2074W        W 6125   5.264   9.641   4.090
 2075W        W 6126   3.075   8.708   8.199
 2076W        W 6127   2.862   2.937  10.906
 2077W        W 6128   7.387   3.001  11.765
 2078W        W 6129   5.454   4.660   0.364
 2079W        W 6130   1.900   0.253   3.236
 2080W        W 6131  10.902   5.979   2.406
 2081W        W 6132   6.954   9.927  11.478
 2082W        W 6133   5.747   4.763  10.063
 2083W        W 6134  11.469   5.065   1.842
 2084W        W 6135   8.118   2.861   8.948
 2085W        W 6136   4.117   3.033   2.731
 2086W        W 6137   3.595  11.049   0.387
 2087W        W 6138   2.163   9.026   3.321
 2088W        W 6139   1.673   1.868   0.771
 2089W        W 6140   0.299  10.043  10.650
 2090W        W 6141  10.466   5.475   9.379
 2091W        W 6142  10.804   9.665  10.458
 2092W        W 6143   1.382   1.778  11.285
 2093W        W 6144   9.240   3.891   1.807
 2094W        W 6145   2.623   3.190   1.783
 2095W        W 6146   8.602   1.817   9.556
 2096W        W 6147   8.198  11.088  10.459
 2097W        W 6148   8.235   5.061   0.476
 2098W        W 6149   2.408   5.334   0.026
 2099W        W 6150   3.178   7.979   1.329
 2100W        W 6151   3.667   7.569   9.240
 2101W        W 6152   1.297   9.428   2.399
 2102W        W 6153   7.634  10.379   8.988
 2103W        W 6154   0.072   0.537   9.822
 2104W        W 6155  10.384   2.428   0.305
 2105W        W 6156  11.039   5.989  11.637
 2106W        W 6157   1.956   3.181   9.146
 2107W        W 6158  10.025   6.157   9.896
 2108W        W 6159   6.148  10.814   2.887
 2109W        W 6160  11.436   2.747   2.188
 2110W        W 6161   7.149   7.020  11.533
 2111W        W 6162   0.057   3.370  11.393
 2112W        W 6163   5.703   0.756   2.197
 2113W        W 6164   0.199   3.177  11.864
 2114W        W 6165   3.890   1.037  11.390
 2115W        W 6166   1.892   0.234  10.877
 2116W        W 6167   6.019   4.387  10.306
 2117W        W 6168   9.349   7.596   8.798
 2118W        W 6169   3.323   5.117   9.663
 2119W        W 6170   3.394   3.269   3.141
 2120W        W 6171   3.596   9.314  10.268
 2121W        W 6172  10.152   0.259   2.784
 2122W        W 6173   3.989   8.922   9.450
 2123W        W 6174   5.405   8.098   4.177
 2124W        W 6175   2.181   8.423   2.108
 2125W        W 6176  10.412   6.505   2.416
 2126W        W 6177   8.118   9.976   0.255
 2127W        W 6178  11.310   3.905   1.019
 2128W        W 6179   0.848   7.407   1.737
 2129W        W 6180  10.489   6.771   1.332
 2130W        W 6181   1.938   9.683  11.326
 2131W        W 6182   3.299   2.224  10.278
 2132W        W 6183   8.565   2.610   3.600
 2133W        W 6184   4.600   2.387   9.571
 2134W        W 6185   3.161   9.410  11.919
 2135W        W 6186   2.116   5.611   0.339
 2136W        W 6187  10.056   1.215   2.587
 2137W        W 6188   1.035   3.655   1.495
 2138W        W 6189   9.579   9.790  10.817
 2139W        W 6190   0.807   6.148  10.402
 2140W        W 6191  10.036   0.818   9.115
 2141W        W 6192   9.218   1.259   3.192
 2142W        W 6193   9.258   8.376  11.473
 2143W        W 6194   1.891   1.924   1.280
 2144W        W 6195   4.371   4.398   0.169
 2145W        W 6196   8.664   1.763   0.434
 2146W        W 6197   9.761   6.726   1.844
 2147W        W 6198   1.654   9.395   1.601
 2148W        W 6199   4.494   8.379  10.058
 2149W        W 6200   3.757   9.756   8.843
 2150W        W 6201   3.612   0.274   2.238
 2151W        W 6202   0.457   8.864   9.297
 2152W        W 6203   2.456   3.220   3.188
 2153W        W 6204   5.050   2.959   9.997
 2154W        W 6205   5.226   8.629   3.043
 2155W        W 6206   1.441   1.749  11.787
 2156W        W 6207   9.994  10.503  11.806
 2157W        W 6208   4.547   4.172   3.382
 2158W        W 6209   4.115   2.549   0.767
 2159W        W 6210   8.288   3.699   1.874
 2160W        W 6211   0.537  10.353   1.829
 2161W        W 6212   7.869   4.094   9.334
 2162W        W 6213   0.776   3.690   9.076
 2163W        W 6214   7.052   3.381  11.064
 2164W        W 6215   1.620  10.550  10.405
 2165W        W 6216   6.618   4.554   0.844
 2166W        W 6217   5.256   1.154   9.567
 2167W        W 6218   0.133   7.102   1.248
 2168W        W 6219   2.132  11.320   2.335
 2169W        W 6220   7.090   0.402   9.430
 2170W        W 6221   2.755   5.646  11.772
 2171W        W 6222   5.549   9.434   2.303
 2172W        W 6223   0.833   4.838  10.935
 2173W        W 6224   1.751   8.069  10.060
 2174W        W 6225   2.506   9.036   1.524
 2175W        W 6226   9.639   8.450   1.639
 2176W        W 6227   8.419   2.320   3.178
 2177W        W 6228   7.025   9.739   0.711
 2178W        W 6229   9.589   7.465  11.641
 2179W        W 6230  11.268   6.082   1.477
 2180W        W 6231  10.593   6.108   2.033
 2181W        W 6232   7.716   0.673   9.287
 2182W        W 6233   1.524   9.497  11.009
 2183W        W 6234  10.046   1.739   2.090
 2184W        W 6235   3.220   6.084   1.266
 2185W        W 6236   3.793   9.262  11.265
 2186W        W 6237   5.093   5.564   0.259
 2187W        W 6238   8.655   3.747  10.401
 2188W        W 6239   0.938   9.766  11.420
 2189W        W 6240   9.897   8.883   2.380
 2190W        W 6241  11.060   3.177   0.974
 2191W        W 6242   9.797   7.498   9.042
 2192W        W 6243  10.819   7.513  10.878
 2193W        W 6244   5.450   4.081   9.535
 2194W        W 6245   7.111   7.460  11.278
 2195W        W 6246   1.760   0.510   1.724
 2196W        W 6247   9.234   0.761  10.730
 2197W        W 6248   3.729   3.281   0.997
 2198W        W 6249   8.383   6.310   0.741
 2199W        W 6250   1.785   9.030   9.804
 2200W        W 6251   3.132   0.241   0.003
 2201W        W 6252   1.348   7.088   0.075
 2202W        W 6253   2.838   7.915  10.945
 2203W        W 6254  10.463  11.373   2.955
 2204W        W 6255   0.777   9.897  10.055
 2205W        W 6256   6.469   9.978   1.829
 2206W        W 6257   6.554   0.878   3.381
 2207W        W 6258   7.667   6.358   1.191
 2208W        W 6259   7.913   5.585   0.206
 2209W        W 6260   9.418   3.725  10.821
 2210W        W 6261  10.442   6.971   2.670
 2211W        W 6262   2.266   8.447   0.194
 2212W        W 6263   5.088   7.015   1.884
 2213W        W 6264   8.468  11.324  11.207
 2214W        W 6265   5.572  10.239   3.439
 2215W        W 6266  10.463   2.758  11.886
 2216W        W 6267   6.653   0.921  11.046
 2217W        W 6268  11.022   1.380   2.899
 2218W        W 6269   7.616   3.035   3.237
 2219W        W 6270   8.901   4.223  11.644
 2220W        W 6271   1.600  10.253   0.157
 2221W        W 6272  10.663   3.523   1.858
 2222W        W 6273  11.116   9.952  10.904
 2223W        W 6274   7.531   6.254  11.546
 2224W        W 6275   4.589   9.310   0.738
 2225W        W 6276  10.276  11.127   9.250
 2226W        W 6277   5.435   3.737   3.050
 2227W        W 6278   5.627   4.850   0.822
 2228W        W 6279   0.524   0.729  10.025
 2229W        W 6280   1.461   8.675   0.559
 2230W        W 6281   7.394   5.768  11.527
 2231W        W 6282   0.461   3.560  11.654
 2232W        W 6283  10.231   3.694   3.341
 2233W        W 6284   1.412   3.548   8.973
 2234W        W 6285  10.654   7.492  10.338
 2235W        W 6286  10.807   9.083   9.599
 2236W        W 6287   3.524   4.655   0.142
 2237W        W 6288  10.575  10.557   2.306
 2238W        W 6289   6.613   6.325   9.541
 2239W        W 6290   6.210   0.632   0.465
 2240W        W 6291   6.492   7.514  10.535
 2241W        W 6292   5.143   3.546   9.163
 2242W        W 6293   4.649   2.462   1.418
 2243W        W 6294   4.036   4.761   0.295
 2244W        W 6295  10.936   6.907  11.466
 2245W        W 6296   8.105   5.904   1.564
 2246W        W 6297  10.455   4.104  11.409
 2247W        W 6298   6.737   9.808  10.083
 2248W        W 6299   8.412   3.504   9.990
 2249W        W 6300   3.302   9.317   1.308
 2250W        W 6301   8.247   1.181   9.970
 2251W        W 6302   9.749   6.055  10.341
 2252W        W 6303   2.667   1.225   3.249
 2253W        W 6304   4.249   7.185   0.232
 2254W        W 6305   3.728   1.815  10.986
 2255W        W 6306   1.775   3.709   2.612
 2256W        W 6307   7.935   9.789   0.879
 2257W        W 6308  11.299   7.287  10.971
 2258W        W 6309  10.526   7.822   2.656
 2259W        W 6310   9.407   8.499  10.433
 2260W        W 6311   6.681  10.300   9.997
 2261W        W 6312   7.100   5.147  11.812
 2262W        W 6313   2.420   9.537   2.098
 2263W        W 6314   4.261   8.541   2.892
 2264W        W 6315  10.407   7.988   0.073
 2265W        W 6316   5.527   7.121   2.196
 2266W        W 6317   2.901   7.251  10.297
 2267W        W 6318   3.810   4.573   9.071
 2268W        W 6319   0.380   0.986  10.510
 2269W        W 6320  11.215   3.665   9.997
 2270W        W 6321   6.236   3.156   2.735
 2271W        W 6322   1.175   8.753  11.942
 2272W        W 6323   3.532   8.485   2.232
 2273W        W 6324   0.076  10.098  11.110
 2274W        W 6325   0.362   6.387   9.254
 2275W        W 6326   3.752  10.524   2.414
 2276W        W 6327   1.946   4.317  11.920
 2277W        W 6328   7.922   1.424   2.604
 2278W        W 6329   2.245  10.783  10.095
 2279W        W 6330   1.235  10.931  11.867
 2280W        W 6331   7.551   4.512   0.967
 2281W        W 6332   4.579   0.664   8.983
 2282W        W 6333   7.723   8.476  10.857
 2283W        W 6334   3.395   1.744  10.425
 2284W        W 6335   8.545   8.177  10.430
 2285W        W 6336   3.392   0.239   8.357
 2286W        W 6337   6.223   7.003  11.399
 2287W        W 6338   0.449   8.144   1.719
 2288W        W 6339   4.464   0.422   3.318
 2289W        W 6340   6.297   6.975   2.653
 2290W        W 6341   2.467   6.625   0.178
 2291W        W 6342   2.943   5.106  10.018
 2292W        W 6343   5.929  10.920   0.955
 2293W        W 6344   9.009   9.095   0.052
 2294W        W 6345   0.558  11.477   2.296
 2295W        W 6346   8.769   0.381   3.264
 2296W        W 6347   4.575  10.400  10.856
 2297W        W 6348   4.221   7.629   2.735
 2298W        W 6349   1.678   9.014   8.754
 2299W        W 6350   5.497   0.182   0.912
 2300W        W 6351   5.314   6.876  11.296
 2301W        W 6352  10.283   9.896   2.635
 2302W        W 6353   2.581   8.535  11.492
 2303W        W 6354  10.898   4.347  11.343
 2304W        W 6355   1.424   2.869   0.861
 2305W        W 6356   3.132  11.365   9.708
 2306W        W 6357   7.535   7.531   9.380
 2307W        W 6358   6.628   1.968   0.045
 2308W        W 6359   8.393   5.516   1.678
 2309W        W 6360   2.172   9.999  10.375
 2310W        W 6361   2.808   7.028   0.149
 2311W        W 6362   2.360   7.605   2.758
 2312W        W 6363  11.379   7.690   2.218
 2313W        W 6364   2.722   6.034   9.551
 2314W        W 6365   6.117   0.905   2.477
 2315W        W 6366   0.047   2.701   1.302
 2316W        W 6367   7.316   0.347  11.967
 2317W        W 6368   4.535  10.443   9.828
 2318W        W 6369   9.479   5.571   1.589
 2319W        W 6370   5.615   9.910   9.994
 2320W        W 6371  10.881   0.265   8.902
 2321W        W 6372   6.203   8.456   2.624
 2322W        W 6373   6.957   5.983   1.739
 2323W        W 6374   8.432   9.491   9.015
 2324W        W 6375   6.775   8.952   8.298
 2325W        W 6376   8.381  11.194   1.206
 2326W        W 6377   6.472   3.646   0.726
 2327W        W 6378   5.577   6.932   3.100
 2328W        W 6379   8.044   6.585   2.241
 2329W        W 6380   9.413   0.022   2.357
 2330W        W 6381   1.985   4.598  11.457
 2331W        W 6382   6.520   2.743   1.154
 2332W        W 6383   1.944   7.619   1.437
 2333W        W 6384   4.498   8.201  11.209
 2334W        W 6385  10.618   9.218   1.006
 2335W        W 6386   6.420   4.335  11.421
 2336W        W 6387   3.196   1.835   0.418
 2337W        W 6388   9.038   6.725   3.795
 2338W        W 6389   1.740   8.661   1.367
 2339W        W 6390   7.482   4.674   0.492
 2340W        W 6391   2.993   0.454   1.997
 2341W        W 6392   0.720   6.755   3.486
 2342W        W 6393   8.009   5.090   0.952
 2343W        W 6394   3.697   3.055  10.115
 2344W        W 6395   9.711   6.215   0.682
 2345W        W 6396   7.779   3.752   8.968
 2346W        W 6397   2.994   9.705   9.573
 2347W        W 6398   8.154  10.889   0.238
 2348W        W 6399  10.425   5.763   1.292
 2349W        W 6400   6.105   0.413   0.920
 2350W        W 6401   0.032   2.304   0.965
 2351W        W 6402   5.700   0.892   0.014
 2352W        W 6403   9.796   4.269  11.998
 2353W        W 6404   0.256   6.775   2.943
 2354W        W 6405   0.196  10.974   9.438
 2355W        W 6406   5.467   3.214  10.768
 2356W        W 6407   2.142   6.825  11.267
 2357W        W 6408   4.087   0.505   2.970
 2358W        W 6409   2.770   5.568   2.280
 2359W        W 6410  10.885   6.489   2.235
 2360W        W 6411   8.384   2.418  10.601
 2361W        W 6412   6.295   5.235   0.547
 2362W        W 6413   8.962   7.939   1.256
 2363W        W 6414  10.855   7.243   0.003
 2364W        W 6415   5.080   2.273   8.643
 2365W        W 6416   5.870   6.759  11.991
 2366W        W 6417   3.631   5.598   1.178
 2367W        W 6418   2.841   9.983   2.477
 2368W        W 6419   7.666   9.954   1.327
 2369W        W 6420   8.141   5.783   2.073
 2370W        W 6421   7.630   2.907  10.430
 2371W        W 6422   9.115   4.091   1.327
 2372W        W 6423   6.187   4.082  10.986
 2373W        W 6424   7.763   3.454   2.943
 2374W        W 6425   6.060   9.634  11.337
 2375W        W 6426  10.392   1.158  10.827
 2376W        W 6427   7.763   4.418   3.379
 2377W        W 6428   6.242   6.466   1.246
 2378W        W 6429  11.003   2.817   3.039
 2379W        W 6430   7.250   6.586  11.895
 2380W        W 6431   7.958   2.110   3.418
 2381W        W 6432   0.381   3.183  10.271
 2382W        W 6433   0.054  11.323   2.375
 2383W        W 6434   1.618   1.781   8.533
 2384W        W 6435   4.096   3.955   0.130
 2385W        W 6436   8.501   4.673   1.871
 2386W        W 6437   9.781   1.993   2.981
 2387W        W 6438   0.892   5.543   0.927
 2388W        W 6439   7.942   3.255  10.659
 2389W        W 6440   3.207   7.985   2.751
 2390W        W 6441   1.794   5.527   1.953
 2391W        W 6442   2.982  10.443   2.356
 2392W        W 6443   5.436   3.748   9.986
 2393W        W 6444   0.077   6.984   0.411
 2394W        W 6445   1.577   7.579   8.622
 2395W        W 6446   6.651   2.416   3.169
 2396W        W 6447   8.504   1.275   0.215
 2397W        W 6448   1.847   2.782   1.696
 2398W        W 6449   3.610   1.799   0.847
 2399W        W 6450   4.568  11.311   1.838
 2400W        W 6451   0.944   5.510   1.943
 2401W        W 6452   5.270   7.089   2.667
 2402W        W 6453   7.099  10.846  11.697
 2403W        W 6454  10.717   8.518  11.426
 2404W        W 6455   9.852   7.075  11.057
 2405W        W 6456   4.667   1.702  11.078
 2406W        W 6457  10.015   6.563   0.913
 2407W        W 6458   2.916   5.085   9.081
 2408W        W 6459  10.782   4.640  10.467
 2409W        W 6460   0.324   6.275  10.262
 2410W        W 6461   3.288   6.923   0.313
 2411W        W 6462   6.183   1.452   0.642
 2412W        W 6463   1.842   7.142  11.784
 2413W        W 6464   0.759   9.381   1.690
 2414W        W 6465   4.006   1.755   9.757
 2415W        W 6466   7.402  10.804  10.912
 2416W        W 6467   0.664   0.418   0.343
 2417W        W 6468  11.159   6.905   2.163
 2418W        W 6469   5.249   2.631  11.273
 2419W        W 6470   6.538  10.488  11.760
 2420W        W 6471   9.902   6.918   8.482
 2421W        W 6472   3.348   3.630   0.939
 2422W        W 6473   7.905   1.827   9.596
 2423W        W 6474   1.297   9.911   2.286
 2424W        W 6475   9.887   7.095   9.968
 2425W        W 6476   5.379   1.197   0.310
 2426W        W 6477   6.990  10.852  11.183
 2427W        W 6478   5.478   4.334  10.391
 2428W        W 6479   1.816   7.057  10.780
 2429W        W 6480   2.215   8.073   3.437
 2430W        W 6481   5.372   2.279   0.321
 2431W        W 6482   9.008   0.079   0.468
 2432W        W 6483   8.989   5.551  11.079
 2433W        W 6484   1.843   1.201   2.990
 2434W        W 6485   2.806   5.949   0.955
 2435W        W 6486   4.317   3.912   1.862
 2436W        W 6487  10.552   9.315  10.914
 2437W        W 6488  10.087   1.507   3.039
 2438W        W 6489   8.870  10.793   9.974
 2439W        W 6490  10.904   9.950   9.548
 2440W        W 6491  10.099   4.789   1.843
 2441W        W 6492   0.569   0.428   2.754
 2442W        W 6493   8.197   9.726   2.795
 2443W        W 6494   2.224   6.674  10.047
 2444W        W 6495   0.936  10.863   1.457
 2445W        W 6496   2.702   1.445  10.003
 2446W        W 6497   9.976   9.180   8.652
 2447W        W 6498   6.501   7.840   1.431
 2448W        W 6499   0.276   4.763   3.326
 2449W        W 6500   8.368   9.185  10.610
 2450W        W 6501   3.214   3.147   0.894
 2451W        W 6502  10.931  11.483  10.026
 2452W        W 6503   8.591   5.519   9.566
 2453W        W 6504  10.583   8.979  10.025
 2454W        W 6505   1.269   1.511   0.911
 2455W        W 6506   8.520  10.373   2.344
 2456W        W 6507  11.167   5.612   3.186
 2457W        W 6508   6.006   6.705  10.224
 2458W        W 6509   7.324   3.235   1.072
 2459W        W 6510   9.539   4.642   9.285
 2460W        W 6511   3.593   5.059  11.393
 2461W        W 6512   2.931  10.546   0.513
 2462W        W 6513   6.203   1.050  11.278
 2463W        W 6514   5.671   8.765   3.288
 2464W        W 6515   2.727   0.470   0.696
 2465W        W 6516   8.497   7.651   1.423
 2466W        W 6517   3.167   4.269   1.703
 2467W        W 6518   0.117   0.361   3.019
 2468W        W 6519   8.331   5.533   4.068
 2469W        W 6520   1.661   9.500   2.747
 2470W        W 6521  10.698   1.256   0.132
 2471W        W 6522   6.605   5.050   0.914
 2472W        W 6523   2.206   9.481   9.682
 2473W        W 6524   1.302   6.155   2.993
 2474W        W 6525   1.952   4.606   2.887
 2475W        W 6526   8.926   5.890   9.826
 2476W        W 6527   2.220   6.662   2.634
 2477W        W 6528  11.023   8.712   3.185
 2478W        W 6529   8.504   4.164  11.317
 2479W        W 6530   3.151   4.985   3.003
 2480W        W 6531   3.639   9.842  10.261
 2481W        W 6532   7.771   0.273  11.781
 2482W        W 6533   6.192  10.821   9.480
 2483W        W 6534  10.552   8.189   2.311
 2484W        W 6535   5.218  11.476   2.217
 2485W        W 6536   0.529   5.018   0.257
 2486W        W 6537   3.336   4.225  11.856
 2487W        W 6538   3.876   1.692  10.274
 2488W        W 6539   3.663   0.248   0.843
 2489W        W 6540   3.220   9.757   0.837
 2490W        W 6541   7.467   8.923   9.683
 2491W        W 6542   5.250   8.779   1.166
 2492W        W 6543   2.324   0.024   2.767
 2493W        W 6544   9.036   3.081   2.291
 2494W        W 6545   1.404   0.770   1.386
 2495W        W 6546  10.880   0.030  11.334
 2496W        W 6547   8.008   1.759   2.991
 2497W        W 6548  11.271  11.238   9.273
 2498W        W 6549   9.912   5.252   0.376
 2499W        W 6550   5.523   5.366   0.033
 2500W        W 6551   3.148   9.193   9.692
 2501W        W 6552   3.640   4.947   2.248
 2502W        W 6553   1.779   7.669   9.128
 2503W        W 6554   9.340   8.473   9.894
 2504W        W 6555   8.993   6.382   0.118
 2505W        W 6556  10.619   8.945   1.911
 2506W        W 6557   3.270  11.441   0.453
 2507W        W 6558   1.127   9.387   1.346
 2508W        W 6559   5.269   0.464   3.511
 2509W        W 6560   7.132  10.788   2.613
 2510W        W 6561   2.067   7.228   3.300
 2511W        W 6562   1.714   5.040   3.097
 2512W        W 6563   5.696   5.671  10.069
 2513W        W 6564   0.097   3.579   2.047
 2514W        W 6565   0.886   7.176  11.853
 2515W        W 6566   9.690   7.989  10.935
 2516W        W 6567   1.339   3.631  11.209
 2517W        W 6568   8.257  10.884   2.277
 2518W        W 6569   1.761   4.730  10.564
 2519W        W 6570   9.806   5.675   1.986
 2520W        W 6571   3.462   8.031   9.355
 2521W        W 6572   2.636   4.109   3.077
 2522W        W 6573   6.254   1.151   9.985
 2523W        W 6574   5.512   3.759   2.554
 2524W        W 6575   3.082   8.625  11.421
 2525W        W 6576   9.505   5.746   1.113
 2526W        W 6577   8.345   4.168   9.530
 2527W        W 6578   2.257   0.277  11.985
 2528W        W 6579   6.530   4.016   3.661
 2529W        W 6580   4.726   9.724   0.988
 2530W        W 6581   2.758   6.224   1.412
 2531W        W 6582  11.015   6.480  10.726
 2532W        W 6583   1.728   4.070   0.371
 2533W        W 6584   2.922   0.305  10.713
 2534W        W 6585  10.461   9.434   1.874
 2535W        W 6586   2.737   7.561  11.321
 2536W        W 6587   0.412   3.106   1.389
 2537W        W 6588   4.695  10.401   3.166
 2538W        W 6589   0.043   9.635  10.887
 2539W        W 6590   5.641   6.201   1.805
 2540W        W 6591   6.232   8.098   9.502
 2541W        W 6592   2.642   5.117  11.269
 2542W        W 6593   6.059   2.018  11.373
 2543W        W 6594   1.417   4.222  -0.000
 2544W        W 6595   6.590   7.602   1.893
 2545W        W 6596   3.654   9.470   3.869
 2546W        W 6597   0.872   7.217   9.062
 2547W        W 6598   7.534   2.284   2.181
 2548W        W 6599  11.335   6.981   3.121
 2549W        W 6600   7.119  10.515   9.872
 2550W        W 6601   8.916   9.200  10.719
 2551W        W 6602  10.327   2.782   0.860
 2552W        W 6603   8.752   6.843  11.942
 2553W        W 6604  11.087   9.004   1.019
 2554W        W 6605  10.454   0.764   9.876
 2555W        W 6606  10.383   3.684   0.676
 2556W        W 6607   1.861   5.867   9.859
 2557W        W 6608   9.786  10.660   2.800
 2558W        W 6609   9.769   0.934  11.935
 2559W        W 6610  10.870   3.501  10.814
 2560W        W 6611   8.820   5.651   9.123
 2561W        W 6612   5.743   3.648   3.433
 2562W        W 6613   3.427   9.984   8.489
 2563W        W 6614   7.488   9.197   0.236
 2564W        W 6615  10.306   5.316   3.903
 2565W        W 6616   0.181   5.648   3.256
 2566W        W 6617   1.685   5.120  11.502
 2567W        W 6618  10.393   8.101  11.458
 2568W        W 6619   6.848   7.209   3.589
 2569W        W 6620   9.654   5.052  10.393
 2570W        W 6621   0.241   1.929   0.354
 2571W        W 6622   7.067   9.484   0.279
 2572W        W 6623   3.016   4.690   9.657
 2573W        W 6624   6.414   4.735  10.020
 2574W        W 6625   4.762   0.481   9.424
 2575W        W 6626   4.906   4.380  10.357
 2576W        W 6627   7.081   1.793   3.142
 2577W        W 6628   8.939   6.323   9.547
 2578W        W 6629   9.853   9.607   2.589
 2579W        W 6630   4.613   8.360  10.555
 2580W        W 6631   4.859   5.724   1.548
 2581W        W 6632   2.210   2.070   9.598
 2582W        W 6633  11.226   5.292   8.922
 2583W        W 6634   6.476   2.677   2.180
 2584W        W 6635   9.363   8.519   0.759
 2585W        W 6636  10.338   3.128   3.718
 2586W        W 6637   2.916   2.458   9.982
 2587W        W 6638  10.581   3.673   2.953
 2588W        W 6639   3.597   7.570  10.264
 2589W        W 6640   1.740   8.427  10.480
 2590W        W 6641   5.019   3.509   0.928
 2591W        W 6642   0.972   2.643   1.729
 2592W        W 6643   3.815  10.941   9.500
 2593W        W 6644  11.400   2.134   3.440
 2594W        W 6645   8.927   5.105   9.812
 2595W        W 6646   0.021   5.552   3.764
 2596W        W 6647   7.360   6.430   0.763
 2597W        W 6648   1.279   0.910   3.315
 2598W        W 6649   3.134   0.199   2.419
 2599W        W 6650   2.730   6.889   9.919
 2600W        W 6651   8.042   3.815  11.044
 2601W        W 6652   9.707   5.225   2.545
 2602W        W 6653   7.255  10.012   8.972
 2603W        W 6654   2.281   5.751   9.604
 2604W        W 6655   3.592   1.771   9.363
 2605W        W 6656  10.973   4.808   9.378
 2606W        W 6657   8.455  11.274   3.511
 2607W        W 6658   3.886   9.321   1.325
 2608W        W 6659   8.042   9.199  10.185
 2609W        W 6660   0.951   5.353   9.107
 2610W        W 6661   0.352   7.686   1.987
 2611W        W 6662   1.630  11.335   2.437
 2612W        W 6663   9.345  10.340   1.369
 2613W        W 6664   0.854   4.849   9.107
 2614W        W 6665   3.258  10.286   0.854
 2615W        W 6666   7.223   2.251   9.157
 2616W        W 6667   9.510   1.498  10.331
 2617W        W 6668   3.786   5.076   1.229
 2618W        W 6669  10.355   7.915  10.315
 2619W        W 6670  10.989   9.326   2.059
 2620W        W 6671   1.833   0.455   0.688
 2621W        W 6672   2.852   9.918  11.965
 2622W        W 6673   0.483   3.201   2.725
 2623W        W 6674   3.900   5.630   1.602
 2624W        W 6675   9.213  10.606  11.701
 2625W        W 6676   2.183   1.733   0.871
 2626W        W 6677   2.228   6.176   2.460
 2627W        W 6678  10.946   7.520   3.492
 2628W        W 6679   7.257   5.670  10.745
 2629W        W 6680   2.936   8.987   2.856
 2630W        W 6681   1.369   5.451  11.155
 2631W        W 6682   5.625   0.729   8.927
 2632W        W 6683   0.377  11.015   2.129
 2633W        W 6684   9.453  10.587   9.381
 2634W        W 6685  10.342   2.299   1.667
 2635W        W 6686   3.126   1.666   0.908
 2636W        W 6687   4.541   3.646   9.901
 2637W        W 6688   7.928   7.120   1.666
 2638W        W 6689   2.041   4.221   8.851
 2639W        W 6690   0.430   4.762  10.261
 2640W        W 6691  10.747   8.647   0.912
 2641W        W 6692   5.391   2.830   1.906
 2642W        W 6693   3.130   7.472  11.017
 2643W        W 6694   5.582   4.111   1.229
 2644W        W 6695   4.571  11.319  10.587
 2645W        W 6696   0.976   9.752  11.964
 2646W        W 6697   3.942  10.610   1.513
 2647W        W 6698   5.068  10.319  10.995
 2648W        W 6699   4.181  10.625   3.404
 2649W        W 6700   4.733   4.294  10.825
 2650W        W 6701  10.812   1.171   2.108
 2651W        W 6702   2.468   7.596   3.276
 2652W        W 6703  10.427  10.390   9.142
 2653W        W 6704   4.724   8.842   1.398
 2654W        W 6705   4.720   3.922   1.522
 2655W        W 6706   7.725   3.968   2.785
 2656W        W 6707   6.976   3.807   0.746
 2657W        W 6708   4.242   3.284   2.296
 2658W        W 6709   5.775   7.130   0.695
 2659W        W 6710   9.498  10.573   0.494
 2660W        W 6711   9.517   0.991   0.812
 2661W        W 6712  10.328   8.358  10.596
 2662W        W 6713   0.440   6.931  11.229
 2663W        W 6714   7.965   1.704  10.083
 2664W        W 6715   8.432   5.060   8.649
 2665W        W 6716   9.841   7.628   9.911
 2666W        W 6717   1.524  10.393   3.237
 2667W        W 6718   0.865   0.991  10.320
 2668W        W 6719  10.397  11.427   3.454
 2669W        W 6720   6.198   9.896  10.064
 2670W        W 6721   9.108   8.901   1.051
 2671W        W 6722   9.830  10.355   1.223
 2672W        W 6723   6.135   2.954  11.218
 2673W        W 6724   8.899   1.036  11.010
 2674W        W 6725  11.211   0.220   2.225
 2675W        W 6726   2.804   5.079   2.666
 2676W        W 6727   8.391  11.210   2.710
 2677W        W 6728   3.222  11.007   1.769
 2678W        W 6729   1.463   3.317   9.460
 2679W        W 6730   9.518   3.668  11.646
 2680W        W 6731   9.810   2.153  10.505
 2681W        W 6732   7.341   8.970   2.170
 2682W        W 6733   7.592  11.212   8.985
 2683W        W 6734   5.776   7.783   3.244
 2684W        W 6735   8.000   0.465  10.478
 2685W        W 6736   6.972   0.479   2.270
 2686W        W 6737   1.002   9.238  11.861
 2687W        W 6738   4.746   0.976  11.469
 2688W        W 6739   7.446   0.094   2.618
 2689W        W 6740   6.981   6.714   0.898
 2690W        W 6741   6.073   7.444   2.680
 2691W        W 6742   6.616   2.670   0.653
 2692W        W 6743   6.710   3.033   2.971
 2693W        W 6744   7.170   8.956   2.646
 2694W        W 6745   6.550   8.348   1.395
 2695W        W 6746   4.786   2.904   8.708
 2696W        W 6747   8.483   6.069   0.216
 2697W        W 6748   3.810   9.870  10.747
 2698W        W 6749  10.418   1.528   1.335
 2699W        W 6750   2.364   6.064  10.505
 2700W        W 6751   0.298   4.509   8.908
 2701W        W 6752   8.436   7.136  11.666
 2702W        W 6753   1.430  10.055   1.803
 2703W        W 6754   5.625   1.463   9.413
 2704W        W 6755   3.727   0.847   9.468
 2705W        W 6756   9.806  11.274   1.421
 2706W        W 6757  10.578   2.647   9.616
 2707W        W 6758   8.119   0.544   0.856
 2708W        W 6759   8.742   3.097   3.539
 2709W        W 6760   9.934   2.357   1.322
 2710W        W 6761   7.622   9.826  10.284
 2711W        W 6762   3.302   0.692   2.318
 2712W        W 6763   6.099   1.794   1.874
 2713W        W 6764   3.506   7.941   3.186
 2714W        W 6765   5.039   9.150  10.266
 2715W        W 6766   2.419   5.181   9.031
 2716W        W 6767   7.772   5.567   3.969
 2717W        W 6768   4.089   5.745  10.418
 2718W        W 6769   2.222   4.667  10.804
 2719W        W 6770   0.608  10.253   9.461
 2720W        W 6771   8.190   6.796   9.062
 2721W        W 6772   6.084   9.599   9.245
 2722W        W 6773   5.868   3.887  10.274
 2723W        W 6774   8.980   8.174   2.691
 2724W        W 6775   0.198   6.042   2.658
 2725W        W 6776  11.141   8.827  10.520
 2726W        W 6777   5.426   0.360   1.906
 2727W        W 6778   0.428   7.845  10.497
 2728W        W 6779  10.941   9.637   3.612
 2729W        W 6780   0.429   3.907   1.810
 2730W        W 6781  11.339   9.856   9.844
 2731W        W 6782   0.716   5.514   1.464
 2732W        W 6783   0.522   8.441   9.586
 2733W        W 6784   0.625   1.908  10.648
 2734W        W 6785   7.194  10.062  10.096
 2735W        W 6786   4.550   5.820  10.156
 2736W        W 6787   7.850  10.889  10.158
 2737W        W 6788  10.076   6.557   3.290
 2738W        W 6789   7.389   0.839   1.123
 2739W        W 6790   5.589   5.146   9.730
 2740W        W 6791   9.912   3.976   2.573
 2741W        W 6792   5.610   8.478  10.472
 2742W        W 6793   8.539  10.151   1.876
 2743W        W 6794   5.210   4.949  11.136
 2744W        W 6795  10.946   8.205   9.037
 2745W        W 6796   7.489   3.479  11.915
 2746W        W 6797   7.136   5.152  10.853
 2747W        W 6798  11.331  10.264  11.529
 2748W        W 6799   0.990   1.137   1.830
 2749W        W 6800   2.218   6.453  10.920
 2750W        W 6801   5.212   4.118  10.780
 2751W        W 6802   8.897   2.354  10.492
 2752W        W 6803   2.921   7.169   2.225
 2753W        W 6804   7.806   3.093   0.110
 2754W        W 6805   8.113  11.361   0.452
 2755W        W 6806   7.532   1.236   9.515
 2756W        W 6807   4.325   8.287   2.007
 2757W        W 6808   2.621   6.721   1.398
 2758W        W 6809   6.474   3.195   1.432
 2759W        W 6810   2.408   4.710   8.839
 2760W        W 6811   7.091   9.914   0.001
 2761W        W 6812  11.133   5.709   0.720
 2762W        W 6813   5.946  10.078   1.870
 2763W        W 6814   9.586   7.963   2.388
 2764W        W 6815   5.243   4.758  10.207
 2765W        W 6816  10.044   1.347   9.021
 2766W        W 6817   5.591   0.386   0.005
 2767W        W 6818   4.833  10.370   0.342
 2768W        W 6819   7.596   8.160   1.097
 2769W        W 6820   2.228   6.126   0.341
 2770W        W 6821   2.816   9.040   1.949
 2771W        W 6822   2.243   0.438   1.510
 2772W        W 6823   2.182   4.682   2.368
 2773W        W 6824   4.030   2.039  11.904
 2774W        W 6825  10.593   1.171   2.664
 2775W        W 6826  10.219   5.055   9.092
 2776W        W 6827   7.745   4.481   2.857
 2777W        W 6828   2.138   5.065  11.227
 2778W        W 6829   3.950  10.680   0.353
 2779W        W 6830   8.638   7.860   3.213
 2780W        W 6831   2.900   9.643   1.233
 2781W        W 6832   5.648   1.204   2.498
 2782W        W 6833   7.688   4.673   8.507
 2783W        W 6834   2.541   4.228   9.467
 2784W        W 6835   7.025   7.584   0.810
 2785W        W 6836  10.283   4.548   0.987
 2786W        W 6837  10.385   8.675   2.299
 2787W        W 6838   4.623   2.757  11.869
 2788W        W 6839   6.492   2.200  10.220
 2789W        W 6840   8.320   3.152  11.966
 2790W        W 6841   8.181  10.529   8.884
 2791W        W 6842   5.788   9.820  10.917
 2792W        W 6843   8.538   9.169   0.257
 2793W        W 6844   5.301   2.295   1.752
 2794W        W 6845   8.506   4.619   1.370
 2795W        W 6846   5.538   8.924   2.365
 2796W        W 6847   5.891   1.190  10.791
 2797W        W 6848   9.758   4.499  11.202
 2798W        W 6849   6.526   0.591   2.734
 2799W        W 6850   2.913   3.252   1.309
 2800W        W 6851   7.196   9.352   3.435
 2801W        W 6852   3.227   6.258  10.258
 2802W        W 6853   5.076   6.483   1.810
 2803W        W 6854   4.467   7.972   9.351
 2804W        W 6855   5.694   7.484   9.464
 2805W        W 6856   9.428   3.384   9.782
 2806W        W 6857   9.534   1.207  11.315
 2807W        W 6858   3.725   4.607   2.607
 2808W        W 6859   5.474   3.683  10.525
 2809W        W 6860  10.113   7.639  11.773
 2810W        W 6861   0.789   6.909   1.744
 2811W        W 6862   0.418   7.943   0.745
 2812W        W 6863   5.667   0.759  11.492
 2813W        W 6864  11.066   8.268  10.185
 2814W        W 6865   9.889   0.219   2.343
 2815W        W 6866   9.830  11.311   9.041
 2816W        W 6867   8.629   9.288   1.919
 2817W        W 6868   7.186   1.882   8.796
 2818W        W 6869   4.689   9.093   8.963
 2819W        W 6870  10.106   4.666   9.410
 2820W        W 6871   1.363   4.206   1.476
 2821W        W 6872   7.136   0.400   3.437
 2822W        W 6873   2.441   0.990   2.254
 2823W        W 6874   1.348  11.412   3.532
 2824W        W 6875   2.971   7.059   8.121
 2825W        W 6876   8.502   0.202   9.026
 2826W        W 6877   0.642   5.778   9.065
 2827W        W 6878   9.979   9.803   8.775
 2828W        W 6879   6.622   1.261   2.432
 2829W        W 6880   4.551   1.815   9.064
 2830W        W 6881   0.288  11.282  11.620
 2831W        W 6882   9.028   6.851   0.387
 2832W        W 6883   6.268   9.006   0.771
 2833W        W 6884  10.663   7.021   2.187
 2834W        W 6885   9.030  10.010   1.960
 2835W        W 6886   3.698   0.628  11.141
 2836W        W 6887   7.874   1.663  11.958
 2837W        W 6888   3.102   1.126   2.515
 2838W        W 6889  11.395   1.278   8.804
 2839W        W 6890  10.216   6.135   2.701
 2840W        W 6891   0.459   3.551  11.138
 2841W        W 6892   8.501  10.191   4.089
 2842W        W 6893   5.226  10.626   1.898
 2843W        W 6894   6.618  10.927  11.516
 2844W        W 6895  10.947   6.851   2.649
 2845W        W 6896   7.498  10.501  11.821
 2846W        W 6897   5.619   6.122   9.367
 2847W        W 6898   1.794   6.013   2.740
 2848W        W 6899   2.396   7.061   2.318
 2849W        W 6900   0.255   9.923  11.573
 2850W        W 6901   2.230   3.892   2.787
 2851W        W 6902  11.451   8.459   3.279
 2852W        W 6903   7.123   6.444   9.641
 2853W        W 6904  10.461  10.573  11.539
 2854W        W 6905   1.069   7.439   2.216
 2855W        W 6906   3.964   3.700   2.177
 2856W        W 6907   8.958   6.349  10.486
 2857W        W 6908   6.571   8.535  11.663
 2858W        W 6909  10.471   1.964   2.270
 2859W        W 6910   1.291   3.342  10.338
 2860W        W 6911   6.042   7.152   2.229
 2861W        W 6912   4.530   3.943   9.497
 2862W        W 6913   0.875  10.715   1.991
 2863W        W 6914   0.413   8.861   0.462
 2864W        W 6915   3.780   2.160  10.082
 2865W        W 6916   7.112   0.423   9.963
 2866W        W 6917  11.075   3.809   1.924
 2867W        W 6918   7.121   0.344  11.005
 2868W        W 6919   7.575   6.670   3.823
 2869W        W 6920   9.628   7.818   0.033
 2870W        W 6921   5.015   8.195  11.178
 2871W        W 6922   4.891   8.009   2.548
 2872W        W 6923   1.574   6.020   8.577
 2873W        W 6924   6.135   9.639   2.046
 2874W        W 6925   1.756   4.169   1.820
 2875W        W 6926   1.066   7.380   8.583
 2876W        W 6927   5.353  10.289   0.409
 2877W        W 6928   0.503   9.945   0.028
 2878W        W 6929   8.348   8.650  11.950
 2879W        W 6930   8.688   5.619   3.090
 2880W        W 6931   5.578   4.717  11.443
 2881W        W 6932   0.758   1.872   0.454
 2882W        W 6933  10.128   4.256   0.401
 2883W        W 6934   6.633   1.907   0.553
 2884W        W 6935   5.343   7.396  11.402
 2885W        W 6936   5.483   9.155   9.476
 2886W        W 6937   5.626   0.768   3.262
 2887W        W 6938  10.352   4.233   2.506
 2888W        W 6939   2.070   8.786  10.845
 2889W        W 6940   6.067   7.081   1.316
 2890W        W 6941   4.797   3.815   3.667
 2891W        W 6942   5.888   2.373   2.701
 2892W        W 6943   9.338   3.768   9.076
 2893W        W 6944   1.723   4.671   1.991
 2894W        W 6945   4.781   2.267   9.101
 2895W        W 6946   2.176   6.635   1.142
 2896W        W 6947   0.033   7.536  10.577
 2897W        W 6948   3.919   9.289   2.851
 2898W        W 6949   2.002   4.155   2.383
 2899W        W 6950   5.108   2.300   4.032
 2900W        W 6951  10.077   2.202  10.051
 2901W        W 6952   3.428  10.241   2.157
 2902W        W 6953   3.746  10.804   3.119
 2903W        W 6954   7.048   9.135  10.570
 2904W        W 6955   7.996   2.806   2.259
 2905W        W 6956   7.086   3.812  10.801
 2906W        W 6957  10.856   2.629   0.235
 2907W        W 6958   7.174   9.578  10.349
 2908W        W 6959   2.299   9.995   2.315
 2909W        W 6960   4.074   6.499   2.022
 2910W        W 6961   7.593   4.729   1.869
 2911W        W 6962   0.392   1.384   9.040
 2912W        W 6963   0.888   3.749   2.016
 2913W        W 6964  11.326   6.269   2.357
 2914W        W 6965   6.796   8.923   2.236
 2915W        W 6966   2.096   0.722  10.846
 2916W        W 6967   2.905   4.681   8.702
 2917W        W 6968  11.043  10.409   9.804
 2918W        W 6969   7.579   3.601   9.945
 2919W        W 6970   0.719   3.120  11.895
 2920W        W 6971   7.528  10.252   3.127
 2921W        W 6972   4.178   3.386   1.785
 2922W        W 6973  10.874   9.478   9.970
 2923W        W 6974   9.570   8.362   3.153
 2924W        W 6975  11.047   4.546   8.892
 2925W        W 6976   8.339   9.501   1.015
 2926W        W 6977   0.970   0.141   9.695
 2927W        W 6978   9.052   4.762   0.272
 2928W        W 6979   6.721   3.806   1.433
 2929W        W 6980   5.178   5.986   1.904
 2930W        W 6981   0.808   3.049   3.070
 2931W        W 6982  10.393   5.719   8.450
 2932W        W 6983   0.994   7.945   0.099
 2933W        W 6984   7.558   3.648  10.967
 2934W        W 6985  11.248   0.258  10.547
 2935W        W 6986   1.892   8.355   2.660
 2936W        W 6987   1.805   3.698   1.589
 2937W        W 6988   8.435   4.784   0.031
 2938W        W 6989   4.757  11.199  11.148
 2939W        W 6990   0.914   3.131   1.533
 2940W        W 6991   7.324   9.925   2.762
 2941W        W 6992   6.906   4.143  11.514
 2942W        W 6993   3.305   2.718   9.619
 2943W        W 6994   1.121   1.929  10.844
 2944W        W 6995   0.645   9.317   9.500
 2945W        W 6996   1.795   8.318   0.354
 2946W        W 6997   7.392   4.852   1.409
 2947W        W 6998   5.418   7.040  11.771
 2948W        W 6999   4.698   3.465   1.320
 2949W        W 7000   0.801   5.104  10.443
 2950W        W 7001   9.947   3.270   3.377
 2951W        W 7002   1.707   8.136   9.403
 2952W        W 7003   3.004   4.788   3.441
 2953W        W 7004   9.647   1.994   0.728
 2954W        W 7005   0.766  10.111   0.897
 2955W        W 7006   2.755   8.353   9.633
 2956W        W 7007   3.752   7.964   9.950
 2957W        W 7008   8.716   3.019   2.717
 2958W        W 7009  10.599   8.195   9.956
 2959W        W 7010   0.312   1.831   3.341
 2960W        W 7011   1.723   9.967   9.818
 2961W        W 7012   2.708   4.773   3.877
 2962W        W 7013   9.927   9.934   9.857
 2963W        W 7014   0.017   0.193   1.352
 2964W        W 7015   6.641   4.536   1.943
 2965W        W 7016   1.706   0.002  11.537
 2966W        W 7017   5.006   4.321   9.475
 2967W        W 7018   5.226   8.938   3.553
 2968W        W 7019   8.242   3.047   3.587
 2969W        W 7020   7.713   6.580   8.974
 2970W        W 7021   7.171   7.592   2.753
 2971W        W 7022  10.263  10.420   2.704
 2972W        W 7023   7.166   4.232  11.054
 2973W        W 7024   9.729   3.718   3.518
 2974W        W 7025   2.784   0.737   1.632
 2975W        W 7026   8.642   9.070   0.781
 2976W        W 7027   5.009   3.159   1.818
 2977W        W 7028   3.112   0.754   1.241
 2978W        W 7029   4.833  10.688  11.222
 2979W        W 7030   2.192   5.228   4.239
 2980W        W 7031   7.129   0.496   0.798
 2981W        W 7032   2.803   6.111  11.497
 2982W        W 7033   2.118   0.746   9.971
 2983W        W 7034   1.813   9.986   8.893
 2984W        W 7035  10.723   8.602  10.366
 2985W        W 7036   0.513   5.026   8.373
 2986W        W 7037   4.150   2.658   9.518
 2987W        W 7038   7.191   6.351   3.954
 2988W        W 7039   7.503   9.090   1.636
 2989W        W 7040   3.217   6.572  10.742
 2990W        W 7041   1.006   4.436  11.206
 2991W        W 7042   2.254   3.746  10.240
 2992W        W 7043  11.293  10.922   3.302
 2993W        W 7044   9.959  10.922   3.240
 2994W        W 7045   5.953   0.925  10.322
 2995W        W 7046   1.266   7.661   0.867
 2996W        W 7047   6.893   7.017   1.561
 2997W        W 7048  10.777   6.078  10.326
 2998W        W 7049   8.670   0.447   9.460
 2999W        W 7050   4.733   4.787  10.996
 3000W        W 7051   9.636   3.564   1.703
 3001W        W 7052   9.403   6.443   2.085
 3002W        W 7053   5.752   9.925   2.363
 3003W        W 7054   8.475   7.817  10.978
 3004W        W 7055   4.684   3.633   0.542
 3005W        W 7056   3.602   3.485  10.402
 3006W        W 7057   9.148   2.797  10.354
 3007W        W 7058   4.253   7.778   0.390
 3008W        W 7059   0.673   1.558   9.512
 3009W        W 7060  10.474   0.379   0.528
 3010W        W 7061   0.266   5.861   9.422
 3011W        W 7062   1.127   8.261   8.930
 3012W        W 7063   9.085   1.730  11.452
 3013W        W 7064   8.925   9.108   1.497
 3014W        W 7065   4.606   0.245   0.904
 3015W        W 7066   1.352   3.726   0.205
 3016W        W 7067   9.279   5.641   3.257
 3017W        W 7068   8.411   9.013   9.868
 3018W        W 7069   4.011   7.446   0.731
 3019W        W 7070   9.044   2.228   1.162
 3020W        W 7071   8.406   4.339   2.238
 3021W        W 7072   6.024  10.488   0.662
 3022W        W 7073  11.275   1.780   1.622
 3023W        W 7074   7.105   4.828   2.115
 3024W        W 7075   2.146   4.235   3.171
 3025W        W 7076   3.281  10.828  10.382
 3026W        W 7077   0.864   5.344  11.372
 3027W        W 7078   5.536   2.797  10.010
 3028W        W 7079   1.788   1.704   3.071
 3029W        W 7080   4.471   7.573   0.906
 3030W        W 7081   1.745   6.049   9.388
 3031W        W 7082   4.192   7.573  11.864
 3032W        W 7083  11.137   9.183   3.357
 3033W        W 7084   4.014   6.675  10.370
 3034W        W 7085   6.183   7.926   2.635
 3035W        W 7086   5.425   1.900   8.539
 3036W        W 7087   0.548   3.416   1.796
 3037W        W 7088   3.546   1.233   3.323
 3038W        W 7089  11.069   1.038   2.532
 3039W        W 7090   4.659   8.087   0.220
 3040W        W 7091   7.450   4.009   9.684
 3041W        W 7092   7.096   6.739   3.599
 3042W        W 7093   8.707   6.464   3.147
 3043W        W 7094   5.972   5.969   0.408
 3044W        W 7095  10.415  10.774   1.866
 3045W        W 7096   4.791   1.985  11.519
 3046W        W 7097   1.470  10.360   9.103
 3047W        W 7098   8.047   3.266   1.583
 3048W        W 7099   6.318  10.718   2.333
 3049W        W 7100   5.509   8.384   9.104
 3050W        W 7101   3.272   9.638   4.166
 3051W        W 7102   2.129   5.569   3.871
 3052W        W 7103   3.987  11.032   1.202
 3053W        W 7104   7.012   3.237   0.072
 3054W        W 7105   7.870   0.751  10.070
 3055W        W 7106  10.135  10.300   8.669
 3056W        W 7107  11.486   4.110   2.006
 3057W        W 7108  10.063   3.462   2.896
 3058W        W 7109   6.757   7.336  11.915
 3059W        W 7110   2.630   0.884   9.041
 3060W        W 7111   2.522   9.619   2.616
 3061W        W 7112   0.853   6.811   2.739
 3062W        W 7113   1.404   1.236  11.930
 3063W        W 7114  11.358   1.321  11.542
 3064W        W 7115   2.037   4.872   9.839
 3065W        W 7116   3.243   5.077   8.689
 3066W        W 7117   5.039   3.899  10.334
 3067W        W 7118   1.197   1.247   1.368
 3068W        W 7119   9.953   2.270   9.068
 3069W        W 7120   7.501   4.970   9.655
 3070W        W 7121   8.996   9.128   2.988
 3071W        W 7122   2.225   9.977   9.855
 3072W        W 7123   4.597  11.091   2.327
 3073W        W 7124   6.681   7.803   0.086
 3074W        W 7125   1.719   8.679  11.390
 3075W        W 7126   8.599  10.699   1.945
 3076W        W 7127   9.971   1.476   1.630
 3077W        W 7128   7.870   3.674   2.384
 3078W        W 7129  10.849   3.096   0.016
 3079W        W 7130   1.565   7.406   3.425
 3080W        W 7131   7.558   6.567   2.418
 3081W        W 7132   9.601   6.585   3.083
 3082W        W 7133   8.413   0.637   1.671
 3083W        W 7134   8.350   0.118  10.362
 3084W        W 7135  11.418   8.100   8.769
 3085W        W 7136   3.046   6.981   2.958
 3086W        W 7137   9.932   0.991   3.027
 3087W        W 7138   2.119   1.283  10.003
 3088W        W 7139   1.690   4.560   2.471
 3089W        W 7140   3.735  10.041   9.790
 3090W        W 7141   0.738  10.556   0.597
 3091W        W 7142   5.167  11.052   3.460
 3092W        W 7143   0.056   8.534   1.761
 3093W        W 7144   7.990   1.947   1.227
 3094W        W 7145   1.196   3.234   0.075
 3095W        W 7146   7.561  11.492   0.666
 3096W        W 7147  11.187   2.233   1.358
 3097W        W 7148   6.785   8.652  10.723
 3098W        W 7149   3.806   3.725   0.732
 3099W        W 7150   8.712   1.389   9.268
 3100W        W 7151  10.952   5.092   3.229
 3101W        W 7152   9.378   8.406  10.968
 3102W        W 7153   4.750   1.665   2.855
 3103W        W 7154   6.315   7.243   3.540
 3104W        W 7155   5.987   6.232   2.208
 3105W        W 7156   0.307   8.832   8.787
 3106W        W 7157   2.952  10.917  10.786
 3107W        W 7158   6.854   2.338   0.339
 3108W        W 7159  11.243   0.777   3.653
 3109W        W 7160   4.071   7.059  11.687
 3110W        W 7161   9.759   1.446  11.992
 3111W        W 7162   1.467   7.787   3.090
 3112W        W 7163   3.866   2.732  10.858
 3113W        W 7164   3.310   4.729   9.068
 3114W        W 7165   2.248  10.556   2.999
 3115W        W 7166   5.534   3.565   3.896
 3116W        W 7167   9.471   3.330   9.280
 3117W        W 7168   6.193  10.703   8.975
 3118W        W 7169   1.327   3.621   2.330
 3119W        W 7170   1.015   3.221   9.175
 3120W        W 7171   6.271   8.784  10.833
 3121W        W 7172   5.485   5.559  11.414
 3122W        W 7173   1.808   2.806   2.233
 3123W        W 7174   0.998   8.476   0.724
 3124W        W 7175   3.798   9.482   2.409
 3125W        W 7176   5.196   2.550  10.280
 3126W        W 7177  10.625   4.424   0.256
 3127W        W 7178   3.997   4.911   8.202
 3128W        W 7179   2.789   4.608   9.201
 3129W        W 7180   1.645   5.176  10.321
 3130W        W 7181   8.886   9.612  11.900
 3131W        W 7182   9.987   0.771  10.569
 3132W        W 7183   2.893  10.881   2.587
 3133W        W 7184   8.905  11.006  10.881
 3134W        W 7185   7.107   8.453   2.846
 3135W        W 7186   4.356   8.035   1.375
 3136W        W 7187   4.201   9.778   2.281
 3137W        W 7188   0.953   9.358   9.932
 3138W        W 7189   1.221   8.787   8.843
 3139W        W 7190   9.857   3.620   9.938
 3140W        W 7191   4.203   3.592   9.240
 3141W        W 7192   9.373   9.997  10.368
 3142W        W 7193   8.841   9.398   8.673
 3143W        W 7194   7.664   8.129   2.512
 3144W        W 7195   1.353   8.361   1.483
 3145W        W 7196   8.639   2.618  11.046
 3146W        W 7197  11.342   9.358   1.288
 3147W        W 7198  10.717   6.088   0.949
 3148W        W 7199   1.901   7.904  10.529
 3149W        W 7200   1.968   0.831   2.094
 3150W        W 7201  10.359   9.401   2.760
 3151W        W 7202   2.776  11.274   9.345
 3152W        W 7203   4.176   0.924  11.833
 3153W        W 7204  10.251   8.594   0.991
 3154W        W 7205   6.641   7.671   2.771
 3155W        W 7206   3.585   0.489   1.309
 3156W        W 7207  10.737   4.831  11.232
 3157W        W 7208   3.173   6.415   0.293
 3158W        W 7209   6.715  11.411  11.338
 3159W        W 7210   1.138   1.616   8.416
 3160W        W 7211   3.816   8.792  11.446
 3161W        W 7212  10.446   4.745   1.432
 3162W        W 7213   5.406   6.525  11.800
 3163W        W 7214   5.165   0.757  11.270
 3164W        W 7215   1.300  11.051   0.378
 3165W        W 7216   3.198   3.876   1.358
 3166W        W 7217  11.272   5.786   8.693
 3167W        W 7218  10.442   3.143   9.040
 3168W        W 7219   1.450   0.087   3.026
 3169W        W 7220   6.270   7.674   3.128
 3170W        W 7221   7.853   4.159   0.706
 3171W        W 7222   6.742   3.653   3.261
 3172W        W 7223   3.864   6.570  11.803
 3173W        W 7224  10.677   5.662  11.436
 3174W        W 7225   4.728   9.923   9.686
 3175W        W 7226   4.065   0.927   1.214
 3176W        W 7227   9.577   4.327   3.277
 3177W        W 7228   8.511   8.693  10.558
 3178W        W 7229   0.070   8.987  10.256
 3179W        W 7230   0.748   6.369   0.868
 3180W        W 7231   4.280   9.025   3.110
 3181W        W 7232   6.273   0.127   0.513
 3182W        W 7233   5.859   3.340   3.045
 3183W        W 7234   2.256   5.299   2.973
 3184W        W 7235   6.456   5.869  10.541
 3185W        W 7236  10.383   7.173  10.033
 3186W        W 7237   9.822   5.764   0.503
 3187W        W 7238   3.527   8.466   0.643
 3188W        W 7239   8.361  10.017   0.701
 3189W        W 7240   9.190   6.494   3.363
 3190W        W 7241   9.259   8.096   8.584
 3191W        W 7242   1.985   2.717   0.200
 3192W        W 7243   1.661  10.014  10.331
 3193W        W 7244   4.480  10.930   1.260
 3194W        W 7245   6.226   5.725  10.091
 3195W        W 7246  10.549   3.693  11.796
 3196W        W 7247  10.006   1.822   8.763
 3197W        W 7248   9.967   6.137   3.570
 3198W        W 7249   6.964   1.318  10.967
 3199W        W 7250   0.339   2.916   3.227
 3200W        W 7251   8.503   5.822   0.683
 3201W        W 7252   8.868   5.457   1.444
 3202W        W 7253   3.317   2.718  10.183
 3203W        W 7254   4.631   6.733   9.117
 3204W        W 7255   8.479   7.459   9.790
 3205W        W 7256   3.610  10.234   8.946
 3206W        W 7257  10.678   9.506   9.334
 3207W        W 7258  11.328   8.365   0.263
 3208W        W 7259  10.896   7.016  10.318
 3209W        W 7260   3.578   1.368  11.178
 3210W        W 7261   2.107   4.451   3.632
 3211W        W 7262   3.138  10.366  11.148
 3212W        W 7263  11.241   9.379   0.208
 3213W        W 7264   8.053   7.962   0.315
 3214W        W 7265   5.798   0.554  10.657
 3215W        W 7266   0.452   8.167   1.197
 3216W        W 7267   1.291   4.345   1.957
 3217W        W 7268   2.060   5.117   8.101
 3218W        W 7269   4.006   7.925   2.361
 3219W        W 7270   6.978  10.815   1.718
 3220W        W 7271   9.457   9.842   1.714
 3221W        W 7272   3.383   4.277   2.443
 3222W        W 7273   1.641   0.546   9.101
 3223W        W 7274   0.319   3.471   8.878
 3224W        W 7275   8.068   7.666   9.998
 3225W        W 7276   9.199   1.460  11.025
 3226W        W 7277   0.785   1.266   1.025
 3227W        W 7278   3.781  11.024   2.563
 3228W        W 7279   7.364   2.438  11.324
 3229W        W 7280   4.111   4.695   2.302
 3230W        W 7281   2.872  10.266   3.381
 3231W        W 7282  10.952   9.638   1.113
 3232W        W 7283   3.096  10.435  10.646
 3233W        W 7284   5.822   1.710   2.423
 3234W        W 7285   2.804  10.094   0.987
 3235W        W 7286   9.765   4.812   3.203
 3236W        W 7287  10.865  11.310   2.646
 3237W        W 7288   6.711   1.260  11.443
 3238W        W 7289  11.075  10.375   2.328
 3239W        W 7290   1.007  11.262  10.440
 3240W        W 7291   9.315  11.249   1.336
 3241W        W 7292   0.928   6.989  11.375
 3242W        W 7293   9.337   1.931  10.553
 3243W        W 7294   5.450   1.411  10.968
 3244W        W 7295   1.727   2.055   2.706
 3245W        W 7296   7.821  10.082   2.764
 3246W        W 7297   3.246   7.291   9.083
 3247W        W 7298   4.853   8.233   2.089
 3248W        W 7299   2.795  10.601   1.029
 3249W        W 7300   8.692   2.105   1.866
 3250W        W 7301   5.698   5.120  11.085
 3251W        W 7302   0.645   3.304   0.985
 3252W        W 7303   6.569   1.243   1.930
 3253W        W 7304   0.796   4.027   9.487
 3254W        W 7305   6.987   9.996  10.563
 3255W        W 7306  10.879   8.577   2.218
 3256W        W 7307   3.601   7.544  10.779
 3257W        W 7308   0.263   2.627   0.542
 3258W        W 7309   8.996   1.854   1.495
 3259W        W 7310   0.458   9.484   9.938
 3260W        W 7311   0.702   5.795  11.587
 3261W        W 7312   1.459   1.967   0.278
 3262W        W 7313   9.499   2.866   0.009
 3263W        W 7314   4.885   9.555   1.445
 3264W        W 7315   2.498   7.566  10.227
 3265W        W 7316   6.539   6.706  10.773
 3266W        W 7317   0.394   4.800   9.342
 3267W        W 7318   8.940  10.007  10.643
 3268W        W 7319   2.881   7.189   1.413
 3269W        W 7320   7.072   3.589   1.762
 3270W        W 7321   0.978   0.970  11.790
 3271W        W 7322   9.955   1.260  11.582
 3272W        W 7323   1.679   5.693  10.826
 3273W        W 7324   5.415  11.316  10.345
 3274W        W 7325  10.545   4.605   9.118
 3275W        W 7326   0.312   7.154  10.798
 3276W        W 7327   5.437  10.399   9.773
 3277W        W 7328   1.396   0.813  11.528
 3278W        W 7329   9.833   9.343  10.118
 3279W        W 7330   2.678   2.645   9.153
 3280W        W 7331   4.968   5.361  11.321
 3281W        W 7332   1.686   4.764  11.884
 3282W        W 7333   8.894   2.914   0.801
 3283W        W 7334   4.514   7.875   2.216
 3284W        W 7335  11.497   0.771   1.403
 3285W        W 7336   6.699   7.975  10.484
 3286W        W 7337  11.267   1.578   9.792
 3287W        W 7338   4.847   9.381   9.851
 3288W        W 7339   1.910   8.840   2.790
 3289W        W 7340   8.223   8.510   1.397
 3290W        W 7341   4.141   4.709   1.296
 3291W        W 7342   0.817   9.790   9.558
 3292W        W 7343   0.941   6.421   2.410
 3293W        W 7344  10.363   8.353   2.765
 3294W        W 7345  10.933   5.694   1.201
 3295W        W 7346  10.092   5.237   2.183
 3296W        W 7347   5.775   1.187   3.001
 3297W        W 7348   9.578   8.876  11.822
 3298W        W 7349   1.203   6.724   9.220
 3299W        W 7350   5.206   5.089   0.986
 3300W        W 7351   1.269   2.463   3.365
 3301W        W 7352   5.310   2.541   2.795
 3302W        W 7353   2.302   4.805   0.667
 3303W        W 7354   1.966  10.863  10.770
 3304W        W 7355   2.200  11.264   0.741
 3305W        W 7356   0.286   9.014   9.757
 3306W        W 7357   1.200  11.257   9.966
 3307W        W 7358  11.269   6.299   8.949
 3308W        W 7359   3.633   1.773   3.178
 3309W        W 7360   3.218   8.470   9.420
 3310W        W 7361   0.066   2.938   9.541
 3311W        W 7362   6.410   3.331   0.329
 3312W        W 7363   5.050  10.844   2.431
 3313W        W 7364   2.802   0.235   9.575
 3314W        W 7365   0.818   5.811   0.083
 3315W        W 7366   2.022   7.983  11.029
 3316W        W 7367   8.820   0.786   9.820
 3317W        W 7368   2.334   1.407   2.903
 3318W        W 7369   9.505   7.143   0.352
 3319W        W 7370   7.443   8.936   8.384
 3320W        W 7371   0.072  10.548   1.896
 3321W        W 7372   1.802  10.299  10.790
 3322W        W 7373   0.783   7.315  10.988
 3323W        W 7374   8.160   4.238   2.667
 3324W        W 7375   0.440   2.705   2.334
 3325W        W 7376   8.277   6.682  11.878
 3326W        W 7377   6.921   2.714   1.741
 3327W        W 7378   5.720   5.618  10.950
 3328W        W 7379  11.256   0.731   8.850
 3329W        W 7380   4.763   7.977   9.782
 3330W        W 7381   4.380  10.852  11.101
 3331W        W 7382   3.225   0.943   9.595
 3332W        W 7383   2.449   2.817   0.050
 3333W        W 7384  10.430   3.142   9.551
 3334W        W 7385   3.399   4.663  11.631
 3335W        W 7386   3.938   8.823  10.952
 3336W        W 7387   2.708   7.236   2.675
 3337W        W 7388   3.544   5.517   8.747
 3338W        W 7389   9.467   8.017   9.081
 3339W        W 7390   8.035   0.834  10.864
 3340W        W 7391   8.235  10.486  10.342
 3341W        W 7392   5.165  11.460   8.961
 3342W        W 7393   9.105  10.899  10.411
 3343W        W 7394  10.806   7.943  11.203
 3344W        W 7395   0.722   2.574   9.818
 3345W        W 7396   1.897  10.544   1.299
 3346W        W 7397  10.979   4.426   3.635
 3347W        W 7398  11.381   3.141   3.154
 3348W        W 7399   2.416   7.156   8.982
 3349W        W 7400   6.491   4.301   9.584
 3350W        W 7401   1.893   3.815   0.874
 3351W        W 7402   9.532   4.571   1.386
 3352W        W 7403   7.931   9.817  11.775
 3353W        W 7404   7.530   7.725   0.462
 3354W        W 7405   5.022   6.492   0.265
 3355W        W 7406   6.404   4.132   8.645
 3356W        W 7407  10.233   9.073  10.373
 3357W        W 7408  11.290   6.542   0.309
 3358W        W 7409   6.516  10.935  10.336
 3359W        W 7410   5.065  11.339  10.757
 3360W        W 7411   4.739   4.130   9.926
 3361W        W 7412   4.642   9.204   1.791
 3362W        W 7413   8.861   6.582   0.802
 3363W        W 7414   2.502   3.214  11.719
 3364W        W 7415   8.771   8.004   9.481
 3365W        W 7416   6.480   2.721   8.879
 3366W        W 7417   3.734   5.696  10.821
 3367W        W 7418   3.181   1.411   9.795
 3368W        W 7419  10.114   7.900   2.380
 3369W        W 7420   9.882   7.013   3.130
 3370W        W 7421   7.430   5.735   1.776
 3371W        W 7422   2.681  10.433  10.937
 3372W        W 7423   2.191  10.484  11.076
 3373W        W 7424   5.183  10.206  11.937
 3374W        W 7425   8.994   6.577   2.425
 3375W        W 7426   1.696   9.015   3.600
 3376W        W 7427   9.553   2.660  11.543
 3377W        W 7428  11.435  10.258  10.130
 3378W        W 7429   3.123   1.834   2.961
 3379W        W 7430   4.914   5.703  10.528
 3380W        W 7431   4.674   3.422   9.466
 3381W        W 7432   8.050   1.078  11.324
 3382W        W 7433   0.782   9.294  11.377
 3383W        W 7434   7.377   3.591   2.652
 3384W        W 7435   1.678   6.729   8.930
 3385W        W 7436   3.771   9.784  11.259
 3386W        W 7437   5.272   0.673   9.381
 3387W        W 7438   5.735   5.140   9.236
 3388W        W 7439   7.520   9.437   9.513
 3389W        W 7440   3.035  10.375   1.855
 3390W        W 7441   9.803   0.445  10.911
 3391W        W 7442   3.697   3.335   2.713
 3392W        W 7443   8.187   5.841   9.442
 3393W        W 7444   6.929   6.415  10.970
 3394W        W 7445   2.554   8.783  11.934
 3395W        W 7446   3.724   5.047   8.857
 3396W        W 7447   2.269   1.383   0.496
 3397W        W 7448  11.104   0.844   1.774
 3398W        W 7449   7.920   0.784   0.453
 3399W        W 7450   9.446   5.522   0.257
 3400W        W 7451   5.762   7.677  11.480
 3401W        W 7452   6.832   9.432   8.030
 3402W        W 7453   4.470   8.119   0.738
 3403W        W 7454   8.857   6.181   2.741
 3404W        W 7455   0.440   4.526   0.135
 3405W        W 7456   6.283  10.242   9.245
 3406W        W 7457   8.426   7.052   2.556
 3407W        W 7458   2.648   9.206  10.415
 3408W        W 7459   1.920   7.073  10.252
 3409W        W 7460   3.586   3.797   2.511
 3410W        W 7461   3.372   5.452   0.462
 3411W        W 7462   6.073   5.411   1.926
 3412W        W 7463   3.882   0.876   1.680
 3413W        W 7464   7.405   2.139   3.456
 3414W        W 7465   5.750  10.928  10.974
 3415W        W 7466  11.408   8.112   9.821
 3416W        W 7467   0.717   5.993   2.607
 3417W        W 7468   5.791   8.490   2.310
 3418W        W 7469   0.723   3.352   2.282
 3419W        W 7470   7.456   3.342  11.391
 3420W        W 7471   6.050  11.458   3.145
 3421W        W 7472   5.189   1.210  10.585
 3422W        W 7473   7.415   8.515   0.273
 3423W        W 7474   1.831  10.092   1.015
 3424W        W 7475   3.770   7.048   3.247
 3425W        W 7476  11.132   8.474   1.201
 3426W        W 7477   4.642   6.216  11.753
 3427W        W 7478   1.660   4.306   0.830
 3428W        W 7479   8.022   4.609   1.169
 3429W        W 7480   6.811   4.013   2.699
 3430W        W 7481   9.059   3.244   1.427
 3431W        W 7482  10.673   7.984  10.708
 3432W        W 7483   0.122   1.050   9.964
 3433W        W 7484   9.214  10.255   9.055
 3434W        W 7485   7.953   8.231   9.294
 3435W        W 7486   8.038   0.934   1.816
 3436W        W 7487   6.173   6.761   3.108
 3437W        W 7488   4.529   1.264   0.871
 3438W        W 7489  11.434  10.749   9.992
 3439W        W 7490  11.329   6.516   2.831
 3440W        W 7491   4.550   1.595   8.570
 3441W        W 7492   2.299   3.867   9.164
 3442W        W 7493   8.954   9.897  11.482
 3443W        W 7494   1.907   5.914   0.691
 3444W        W 7495   2.930   9.039   0.325
 3445W        W 7496   2.319   1.046   9.567
 3446W        W 7497   5.058   0.784   1.178
 3447W        W 7498   9.306   1.244   1.238
 3448W        W 7499   8.350  10.885  10.924
 3449W        W 7500   0.309   5.740   0.069
 3450W        W 7501   6.670   4.225  10.944
 3451W        W 7502   2.345  11.396   1.437
 3452W        W 7503   3.708   1.402  10.667
 3453W        W 7504   3.998   1.440   3.423
 3454W        W 7505   8.915   9.951  10.096
 3455W        W 7506   7.157   2.385   8.647
 3456W        W 7507   0.987   2.653   9.373
 3457W        W 7508   9.367   4.422   8.551
 3458W        W 7509   3.781   1.278   9.138
 3459W        W 7510   4.639   3.329   3.653
 3460W        W 7511   8.441  10.336   9.457
 3461W        W 7512   0.705   7.104   3.130
 3462W        W 7513   4.485   0.122  11.029
 3463W        W 7514   4.348   6.623   2.457
 3464W        W 7515   5.592   8.034   1.314
 3465W        W 7516   4.967   3.913   3.195
 3466W        W 7517   6.243  10.198   2.264
 3467W        W 7518   5.635   3.080   1.281
 3468W        W 7519   0.418   2.189   2.506
 3469W        W 7520  10.860   2.142   0.387
 3470W        W 7521   6.964   6.485   1.620
 3471W        W 7522   4.647   0.946  10.614
 3472W        W 7523   5.206   2.077  10.039
 3473W        W 7524   8.092   7.858  11.317
 3474W        W 7525   6.349   7.671   4.065
 3475W        W 7526   8.128   6.180  11.861
 3476W        W 7527   8.818   4.759   3.499
 3477W        W 7528   1.886   1.690   0.345
 3478W        W 7529  11.195   3.345   1.818
 3479W        W 7530  11.019  10.857   9.005
 3480W        W 7531   3.705   7.920   1.440
 3481W        W 7532   9.199   1.669   2.437
 3482W        W 7533   0.262   1.863   9.438
 3483W        W 7534   0.386  10.876  11.268
 3484W        W 7535   5.545  10.672   0.663
 3485W        W 7536   8.829   4.047   2.171
 3486W        W 7537   2.069   6.120   8.445
 3487W        W 7538   9.591   1.481   8.758
 3488W        W 7539   0.524   5.579   2.840
 3489W        W 7540   2.351  10.828   2.285
 3490W        W 7541   8.775   5.817   1.837
 3491W        W 7542  10.502   4.653   2.776
 3492W        W 7543   1.356   6.118   2.472
 3493W        W 7544  10.372   1.340   9.902
 3494W        W 7545   7.597   8.066   0.110
 3495W        W 7546   6.568   8.976  10.380
 3496W        W 7547   8.025   7.727   9.151
 3497W        W 7548  10.389   9.846   9.607
 3498W        W 7549   6.467   1.935   9.780
 3499W        W 7550   8.924   0.774   2.916
 3500W        W 7551   7.169   2.084  10.014
 3501W        W 7552   8.294   0.215   8.531
 3502W        W 7553   3.243   7.045   9.994
 3503W        W 7554   0.971   3.750  10.392
 3504W        W 7555   5.778   6.551   8.618
 3505W        W 7556   8.953   6.029   3.222
 3506W        W 7557   6.525   6.698   0.686
 3507W        W 7558   9.379   4.380   0.943
 3508W        W 7559   6.698   0.395   0.496
 3509W        W 7560   2.398   3.696   0.833
 3510W        W 7561  11.456   0.419  11.641
 3511W        W 7562   7.633   7.536   1.757
 3512W        W 7563   1.656   1.343  10.354
 3513W        W 7564  11.049   9.446  10.865
 3514W        W 7565   6.408   9.834   8.895
 3515W        W 7566   4.189  10.501   1.038
 3516W        W 7567   2.743  10.451  11.962
 3517W        W 7568   5.592   2.191   3.080
 3518W        W 7569   5.636   0.676   0.996
 3519W        W 7570   5.320   1.371   3.105
 3520W        W 7571   3.306   8.046  10.726
 3521W        W 7572   4.335   5.081  10.808
 3522W        W 7573   2.204   2.513   3.314
 3523W        W 7574   7.286   4.560   3.529
 3524W        W 7575   1.935   9.867   0.274
 3525W        W 7576   6.079   3.685   9.138
 3526W        W 7577   7.235   7.506  11.789
 3527W        W 7578   3.727   2.597   0.273
 3528W        W 7579   5.977   8.237   3.529
 3529W        W 7580   9.541   0.496   0.971
 3530W        W 7581   5.650   3.155   3.551
 3531W        W 7582   9.451   7.023  10.218
 3532W        W 7583   3.759   4.100   9.698
 3533W        W 7584   1.693   3.089   0.420
 3534W        W 7585   3.328   5.988   8.728
 3535W        W 7586  10.728   9.048   2.425
 3536W        W 7587   1.950   1.657  10.623
 3537W        W 7588  11.309  10.428   8.968
 3538W        W 7589   4.385   4.416  10.328
 3539W        W 7590   3.348   2.865  11.564
 3540W        W 7591   4.094   7.438  11.342
 3541W        W 7592   3.825   4.477  10.053
 3542W        W 7593   1.635   0.424  11.273
 3543W        W 7594   4.820  11.338   1.346
 3544W        W 7595   9.290   9.101   8.471
 3545W        W 7596   1.978   2.053   8.785
 3546W        W 7597   3.020   4.092   0.819
 3547W        W 7598   2.855   3.663   1.032
 3548W        W 7599   6.144   9.915   2.689
 3549W        W 7600   2.138  10.837   9.188
 3550W        W 7601  10.889   6.992   9.481
 3551W        W 7602   5.213   8.516   9.523
 3552W        W 7603  11.146   3.794  10.491
 3553W        W 7604  11.181   8.291  11.203
 3554W        W 7605   0.233   7.542  11.985
 3555W        W 7606   0.401   8.111  10.036
 3556W        W 7607   4.314   5.123   2.089
 3557W        W 7608   6.076   3.652  11.912
 3558W        W 7609   6.566   2.080  11.534
 3559W        W 7610   7.171   3.169   2.470
 3560W        W 7611  10.032   4.383   1.537
 3561W        W 7612  10.216   6.570   0.441
 3562W        W 7613   8.501   3.828  11.941
 3563W        W 7614   4.923   8.402   0.861
 3564W        W 7615   9.969   1.332  11.068
 3565W        W 7616   3.527   6.195  11.996
 3566W        W 7617   2.553   7.079   3.134
 3567W        W 7618   1.470   1.191   8.392
 3568W        W 7619   0.402   5.565   1.044
 3569W        W 7620   5.992   8.412   0.765
 3570W        W 7621  10.325   4.750   2.307
 3571W        W 7622   7.710   6.667   1.603
 3572W        W 7623   6.456   8.570   3.593
 3573W        W 7624   1.705   8.354   0.906
 3574W        W 7625   0.609   7.060   8.640
 3575W        W 7626   1.384   1.404   8.843
 3576W        W 7627   9.556   6.103   8.550
 3577W        W 7628  11.375   1.538   9.272
 3578W        W 7629   5.845   5.041   2.673
 3579W        W 7630   7.595  11.461   0.160
 3580W        W 7631   1.424  10.768   1.321
 3581W        W 7632   7.957   1.494   0.992
 3582W        W 7633   2.408  10.492   3.489
 3583W        W 7634   0.394   8.425   3.551
 3584W        W 7635  11.174  11.345   8.799
 3585W        W 7636   6.141   7.649   2.180
 3586W        W 7637  11.027   2.292   0.864
 3587W        W 7638   9.465  11.236   1.833
 3588W        W 7639   9.672   6.666   3.595
 3589W        W 7640   3.352   0.435   0.482
 3590W        W 7641   6.594   5.296   1.364
 3591W        W 7642  10.156   6.916   2.248
 3592W        W 7643   6.752   1.197  10.060
 3593W        W 7644   4.446   9.549   8.850
 3594W        W 7645   3.310   0.042   3.466
 3595W        W 7646   2.866   6.722   0.555
 3596W        W 7647   1.368   1.700   2.273
 3597W        W 7648   0.823   7.100   9.993
 3598W        W 7649   2.965   7.026  10.791
 3599W        W 7650   3.797   2.589  11.359
 3600W        W 7651   8.934  10.470   9.438
 3601W        W 7652   0.321   3.410   3.152
 3602W        W 7653   2.125   8.576   0.657
 3603W        W 7654   5.232   9.867   1.151
 3604W        W 7655   3.757   8.413  10.242
 3605W        W 7656   5.330  11.311   1.247
 3606W        W 7657   3.368   9.908   3.282
 3607W        W 7658   3.842   4.361  11.820
 3608W        W 7659   2.432   7.975  11.327
 3609W        W 7660   5.475   6.990   9.559
 3610W        W 7661   6.265   5.894   8.612
 3611W        W 7662  10.262   9.426   9.013
 3612W        W 7663   4.672   6.447  10.819
 3613W        W 7664   2.924   5.268  10.874
 3614W        W 7665   3.030   2.080   3.381
 3615W        W 7666  10.074   5.660   9.669
 3616W        W 7667   3.609   4.336  10.958
 3617W        W 7668   6.561   1.211   0.897
 3618W        W 7669  10.316   1.045   1.285
 3619W        W 7670   2.087   8.107   9.075
 3620W        W 7671   2.174   7.147   2.786
 3621W        W 7672   0.725   4.663   2.440
 3622W        W 7673   3.194   5.786  11.502
 3623W        W 7674   7.528   1.526   2.892
 3624W        W 7675   3.679   7.733   2.755
 3625W        W 7676   6.234   0.062  11.263
 3626W        W 7677   1.943   6.312  11.354
 3627W        W 7678   5.241   4.231   0.496
 3628W        W 7679   5.453   3.257   0.840
 3629W        W 7680   4.002   0.665   3.447
 3630W        W 7681   7.685   6.956   2.085
 3631W        W 7682   2.664   9.334   9.457
 3632W        W 7683   2.705   3.777  11.485
 3633W        W 7684   8.442   5.314   9.087
 3634W        W 7685   5.749   6.523   9.680
 3635W        W 7686   8.393   4.186   1.764
 3636W        W 7687   8.087   8.139  10.890
 3637W        W 7688   2.351   8.620   9.809
 3638W        W 7689   4.832   1.726   0.965
 3639W        W 7690   5.359   9.863   8.924
 3640W        W 7691   3.700  10.142   1.637
 3641W        W 7692   5.472  10.204   2.025
 3642W        W 7693   9.726   6.093   2.559
 3643W        W 7694   6.892   9.354   1.525
 3644W        W 7695   0.294   4.106   0.879
 3645W        W 7696  10.685   6.624  11.112
 3646W        W 7697   6.553   1.967   8.027
 3647W        W 7698   1.926   1.415   8.866
 3648W        W 7699   7.444   3.986   2.353
 3649W        W 7700   3.185  10.027  10.376
 3650W        W 7701   4.826   2.002   0.411
 3651W        W 7702  10.157   5.697   2.971
 3652W        W 7703   4.128   0.484   0.909
 3653W        W 7704   7.874   6.257   1.870
 3654W        W 7705  10.983   6.601   8.613
 3655W        W 7706   0.660   9.312   0.274
 3656W        W 7707   6.150   3.204   9.852
 3657W        W 7708   0.964   0.137   3.240
 3658W        W 7709   2.103   2.403   1.389
 3659W        W 7710  10.828   0.313  10.826
 3660W        W 7711   8.569   4.118   1.297
 3661W        W 7712  10.552   4.979   0.918
 3662W        W 7713   5.890   8.000   9.084
 3663W        W 7714   1.761   7.368   1.879
 3664W        W 7715   1.163   3.329   1.932
 3665W        W 7716   3.564   1.385   2.387
 3666W        W 7717   8.194   2.182  10.140
 3667W        W 7718   4.593   4.838   1.506
 3668W        W 7719   0.274  10.570  10.379
 3669W        W 7720   1.046   3.292   2.673
 3670W        W 7721   9.908   7.683  11.289
 3671W        W 7722   8.609  10.450   3.171
 3672W        W 7723   6.494   4.828  11.494
 3673W        W 7724   8.128   3.572   3.310
 3674W        W 7725  10.604   2.720   3.473
 3675W        W 7726   5.554   6.171   0.151
 3676W        W 7727   1.928   6.219  10.225
 3677W        W 7728   7.353  11.036   0.868
 3678W        W 7729   1.903   9.811  10.829
 3679W        W 7730   5.177   8.870  11.240
 3680W        W 7731   3.890   9.930  11.742
 3681W        W 7732   6.999   4.305   3.904
 3682W        W 7733   2.529   1.685  10.885
 3683W        W 7734   6.872  11.337  10.439
 3684W        W 7735  11.240  10.324   1.128
 3685W        W 7736   5.471   4.026  11.213
 3686W        W 7737   7.098   9.651   9.338
 3687W        W 7738   4.397   4.314   2.152
 3688W        W 7739  10.275   5.297   2.670
 3689W        W 7740   2.257   0.718  11.719
 3690W        W 7741   8.084   9.638  10.442
 3691W        W 7742   1.761   2.269   3.194
 3692W        W 7743   6.006   3.234   1.664
 3693W        W 7744  10.885   1.731   9.277
 3694W        W 7745   2.245   6.153   1.452
 3695W        W 7746   0.193  11.343   1.005
 3696W        W 7747   9.584   5.387   0.754
 3697W        W 7748   4.225   1.880  11.212
 3698W        W 7749  10.070   3.849   1.608
 3699W        W 7750   3.176  10.468   1.353
 3700W        W 7751   4.905   8.636   9.126
 3701W        W 7752   8.730   8.274   3.527
 3702W        W 7753   3.059   3.122  10.450
 3703W        W 7754   5.363  11.149   0.295
 3704W        W 7755   8.435   6.721  11.349
 3705W        W 7756   6.755   7.156   0.804
 3706W        W 7757   6.089   1.612   9.940
 3707W        W 7758  10.128   8.475   1.472
 3708W        W 7759   7.963   0.986   9.599
 3709W        W 7760   1.158   1.478  10.312
 3710W        W 7761   5.911   9.432   1.625
 3711W        W 7762  11.415   0.002  11.352
 3712W        W 7763   1.150   4.274   2.683
 3713W        W 7764   3.129   1.312   0.528
 3714W        W 7765   9.463   3.885   0.892
 3715W        W 7766   3.090   8.510   1.930
 3716W        W 7767   3.761   4.704   3.106
 3717W        W 7768   6.207   0.800  10.826
 3718W        W 7769   4.421   1.846   2.117
 3719W        W 7770   1.330   6.583   2.694
 3720W        W 7771  10.971  10.755   1.996
 3721W        W 7772   3.017   4.642  11.983
 3722W        W 7773   6.458   9.591  10.981
 3723W        W 7774   4.080   8.661   9.908
 3724W        W 7775  10.292   3.241  11.871
 3725W        W 7776  10.139  11.500  11.829
 3726W        W 7777   4.183   8.316   0.375
 3727W        W 7778   9.923   2.196   0.325
 3728W        W 7779   1.169   4.049   9.838
 3729W        W 7780   9.460   6.764  11.257
 3730W        W 7781   1.281   7.100   1.868
 3731W        W 7782   2.926   2.356   9.484
 3732W        W 7783   3.009   0.565   9.914
 3733W        W 7784   4.261   7.237  10.864
 3734W        W 7785   0.865  10.868   2.888
 3735W        W 7786   5.496   6.596   2.691
 3736W        W 7787   6.057   4.646  11.724
 3737W        W 7788   7.179   3.688   0.290
 3738W        W 7789  10.203   6.671   9.991
 3739W        W 7790   9.002   9.571   2.722
 3740W        W 7791   0.293   2.445   1.937
 3741W        W 7792   3.779   9.993   2.519
 3742W        W 7793   0.001   5.272   9.396
 3743W        W 7794  11.464   5.293   1.013
 3744W        W 7795   4.972   5.218  10.318
 3745W        W 7796   7.134   2.881  10.326
 3746W        W 7797   9.811   0.621   2.651
 3747W        W 7798   3.519   1.330  11.697
 3748W        W 7799  11.041   8.591  11.880
 3749W        W 7800   4.163   2.346   1.274
 3750W        W 7801   9.954   6.559   9.554
 3751W        W 7802   0.421   1.368   3.169
 3752W        W 7803   4.138   3.078   0.756
 3753W        W 7804   9.943   6.686   0.009
 3754W        W 7805   1.669   1.453   1.264
 3755W        W 7806  10.707   4.027   1.622
 3756W        W 7807   0.365   7.510   1.017
 3757W        W 7808  11.456   0.454   1.814
 3758W        W 7809   0.194   3.049   0.918
 3759W        W 7810   3.717  11.155   1.652
 3760W        W 7811   2.030   6.869   0.298
 3761W        W 7812  11.390   3.897   9.540
 3762W        W 7813  10.267   6.087  10.353
 3763W        W 7814   1.451   7.818   1.377
 3764W        W 7815  11.103   1.692  11.272
 3765W        W 7816   2.256   8.140   1.670
 3766W        W 7817   3.723   7.437   2.357
 3767W        W 7818   8.015  10.253   1.056
 3768W        W 7819   1.367   5.611   2.258
 3769W        W 7820   7.355   8.585   0.889
 3770W        W 7821   5.246   9.064   2.784
 3771W        W 7822   6.029   3.084   8.133
 3772W        W 7823   6.762   3.660  10.430
 3773W        W 7824   5.984   4.227   8.969
 3774W        W 7825   9.502   1.895  11.915
 3775W        W 7826   6.399   8.110   3.808
 3776W        W 7827   9.143   3.343   0.931
 3777W        W 7828   4.212   9.284   2.166
 3778W        W 7829   4.781  10.881  10.756
 3779W        W 7830   0.844   4.618   1.458
 3780W        W 7831   4.286   2.289  11.519
 3781W        W 7832  10.032   6.401   8.544
 3782W        W 7833   1.015   7.505  11.404
 3783W        W 7834  10.141   9.722   2.172
 3784W        W 7835   6.734   6.382   1.178
 3785W        W 7836   6.141   6.531  11.191
 3786W        W 7837   2.411   9.396   1.166
 3787W        W 7838   5.535   9.392  10.772
 3788W        W 7839   1.833   0.821   9.536
 3789W        W 7840   5.722   8.853  10.831
 3790W        W 7841   6.202   0.958   9.129
 3791W        W 7842   6.983   9.576  10.849
 3792W        W 7843   5.649   1.818  10.571
 3793W        W 7844   1.807   3.576   9.926
 3794W        W 7845   4.749   1.131   1.683
 3795W        W 7846   7.436  10.209   8.543
 3796W        W 7847   4.706   7.090   1.041
 3797W        W 7848   6.532   2.877   9.909
 3798W        W 7849   9.953   6.665  11.338
 3799W        W 7850  10.816   4.645   2.310
 3800W        W 7851   5.472   4.614   1.406
 3801W        W 7852   0.204   6.029   8.907
 3802W        W 7853   7.529  10.804   9.289
 3803W        W 7854   7.990   9.495   2.355
 3804W        W 7855   2.227  10.955   3.322
 3805W        W 7856   3.657   4.160   0.239
 3806W        W 7857   0.374   8.835  10.645
 3807W        W 7858   8.614   2.701   0.045
 3808W        W 7859   9.790   6.603   1.357
 3809W        W 7860   5.149   0.177   9.512
 3810W        W 7861  11.482   8.154   1.401
 3811W        W 7862   9.992   7.081   1.393
 3812W        W 7863   7.730   5.886  10.646
 3813W        W 7864   6.290   3.550   8.223
 3814W        W 7865   5.093   6.756   3.024
 3815W        W 7866   0.655   1.306   1.500
 3816W        W 7867   4.242  10.477   2.891
 3817W        W 7868  10.924   7.724   0.119
 3818W        W 7869   1.855   1.486  11.885
 3819W        W 7870   7.225   1.246  10.463
 3820W        W 7871  10.077   8.381   3.214
 3821W        W 7872   7.946  11.436   9.503
 3822W        W 7873  10.303   8.494  11.102
 3823W        W 7874   2.412   8.924   0.417
 3824W        W 7875   1.248   4.596   3.546
 3825W        W 7876   5.468   0.834  10.387
 3826W        W 7877   1.956  10.294   0.562
 3827W        W 7878   9.250   7.149   0.809
 3828W        W 7879   2.389   1.963   1.338
 3829W        W 7880   2.732  10.647   1.553
 3830W        W 7881   2.304   7.650   9.054
 3831W        W 7882   4.846   9.029   0.378
 3832W        W 7883   1.677   3.151  10.639
 3833W        W 7884   6.025   9.270  10.903
 3834W        W 7885   8.368   2.929   1.790
 3835W        W 7886   3.442   3.391   2.242
 3836W        W 7887   0.898   0.498  11.910
 3837W        W 7888  10.769   4.535   3.190
 3838W        W 7889   1.755   7.885   1.822
 3839W        W 7890   4.619   9.819   1.776
 3840W        W 7891  11.141   5.115   0.031
 3841W        W 7892   1.634   1.778   9.085
 3842W        W 7893   5.016   2.479   9.822
 3843W        W 7894  10.403   0.996   8.803
 3844W        W 7895   2.713   1.432   2.287
 3845W        W 7896   4.746   3.273  11.749
 3846W        W 7897   5.110   8.180  10.656
 3847W        W 7898   7.739   4.295   0.243
 3848W        W 7899   8.977   8.373   0.370
 3849W        W 7900   9.558   0.292   9.861
 3850W        W 7901   4.246   7.315   1.719
 3851W        W 7902   8.735   8.538   9.053
 3852W        W 7903   3.844   7.081  10.634
 3853W        W 7904   5.098   6.028   0.503
 3854W        W 7905   6.771   8.052   9.948
 3855W        W 7906   9.709   7.652   1.816
 3856W        W 7907   6.528   1.904   3.246
 3857W        W 7908  11.060   9.400   2.594
 3858W        W 7909   2.379   1.468  10.411
 3859W        W 7910   0.893   1.389   0.559
 3860W        W 7911   4.179   0.018   3.126
 3861W        W 7912   0.138   8.907   3.522
 3862W        W 7913   0.470   6.476   2.608
 3863W        W 7914   5.650   1.351  10.361
 3864W        W 7915   3.174   3.737   3.300
 3865W        W 7916   7.127   3.577   9.586
 3866W        W 7917   8.695   1.799   2.316
 3867W        W 7918   1.773   2.584   2.729
 3868W        W 7919   3.228   1.004   1.687
 3869W        W 7920   2.570   2.721   2.909
 3870W        W 7921  10.354   6.994   1.769
 3871W        W 7922  10.020   4.340   2.131
 3872W        W 7923   0.963   5.955   2.172
 3873W        W 7924   0.837   1.038   9.525
 3874W        W 7925   5.631   5.105   1.262
 3875W        W 7926   6.848   2.400   1.353
 3876W        W 7927   7.049   6.685  10.543
 3877W        W 7928   0.083   7.199   2.136
 3878W        W 7929   2.658   9.648   0.783
 3879W        W 7930   4.209   5.208   0.055
 3880W        W 7931  11.058   2.838  11.262
 3881W        W 7932   1.203   5.666  11.604
 3882W        W 7933   5.118   7.726  11.082
 3883W        W 7934   4.415   2.092   1.652
 3884W        W 7935   5.724   8.568   2.815
 3885W        W 7936   9.415   5.650  10.834
 3886W        W 7937   4.093   7.093   9.764
 3887W        W 7938  11.303   3.424   8.652
 3888W        W 7939   8.680   2.833  10.543
 3889W        W 7940   8.459   8.574   8.593
 3890W        W 7941   4.917   2.494   0.216
 3891W        W 7942   3.946   7.980   9.432
 3892W        W 7943   3.231   2.888   2.207
 3893W        W 7944  10.806  10.161  10.540
 3894W        W 7945   2.879  10.072   9.185
 3895W        W 7946   1.196   6.619   3.201
 3896W        W 7947   7.706   0.309   3.402
 3897W        W 7948   3.385   6.640  11.218
 3898W        W 7949  10.881   1.744   3.219
 3899W        W 7950   4.061   1.305   2.350
 3900W        W 7951   6.651   2.224   8.471
 3901W        W 7952   3.794   7.249   1.490
 3902W        W 7953   1.137   6.973   1.369
 3903W        W 7954   3.720  11.459  10.506
 3904W        W 7955   2.190   4.628  10.284
 3905W        W 7956   3.870   1.367   1.426
 3906W        W 7957   7.876   8.570   0.910
 3907W        W 7958   5.431   1.144   1.166
 3908W        W 7959   0.024   3.652   1.559
 3909W        W 7960   0.494   5.357   9.356
 3910W        W 7961   5.227  10.959  11.062
 3911W        W 7962   7.026   9.484  11.728
 3912W        W 7963   1.797   0.295   2.201
 3913W        W 7964  11.277   2.558   9.300
 3914W        W 7965   0.809   1.777   0.975
 3915W        W 7966   7.093   2.132  11.880
 3916W        W 7967   5.329   5.151   0.479
 3917W        W 7968   1.823   3.874  10.972
 3918W        W 7969   0.264   1.273   9.519
 3919W        W 7970   5.824   9.662   1.156
 3920W        W 7971   5.045   3.053   2.710
 3921W        W 7972   1.231   2.303  11.180
 3922W        W 7973   7.971   4.659   0.668
 3923W        W 7974   9.642   2.380  11.946
 3924W        W 7975  11.385   6.584   3.484
 3925W        W 7976   2.758   0.743   9.505
 3926W        W 7977  10.850   3.604   8.847
 3927W        W 7978   8.568   3.834   3.155
 3928W        W 7979   5.265   2.757   0.499
 3929W        W 7980   2.181   1.310  11.542
 3930W        W 7981   2.378   8.422   2.587
 3931W        W 7982   0.305   0.770  11.537
 3932W        W 7983  11.077   1.600  10.767
 3933W        W 7984   1.483   1.847  10.461
 3934W        W 7985   2.887   6.924   9.052
 3935W        W 7986   3.062   8.304   2.383
 3936W        W 7987  10.576   7.883   3.492
 3937W        W 7988   3.494  10.587   1.763
 3938W        W 7989   2.386   9.891   1.232
 3939W        W 7990   0.775   1.157  10.804
 3940W        W 7991  11.222  10.592  11.934
 3941W        W 7992  11.226   7.873  11.489
 3942W        W 7993   5.310  10.029   2.653
 3943W        W 7994   6.128   4.778   0.751
 3944W        W 7995  11.458   4.900   1.323
 3945W        W 7996   6.559   0.848   8.759
 3946W        W 7997   3.545   6.129   0.491
 3947W        W 7998   8.477   4.007   9.986
 3948W        W 7999   2.841   9.125   1.172
 3949W        W 8000   9.978   2.852   8.392
 3950W        W 8001   8.403   4.317  11.802
 3951W        W 8002   8.908   2.581   2.130
 3952W        W 8003   7.599   0.741  11.130
 3953W        W 8004   8.232   6.443  10.095
 3954W        W 8005   9.146   1.288   9.008
 3955W        W 8006   8.303   6.977  10.783
 3956W        W 8007   9.124   6.928   8.091
 3957W        W 8008   2.845   0.395   3.567
 3958W        W 8009   9.533   6.264   9.079
 3959W        W 8010  10.324   9.434   1.390
 3960W        W 8011   8.960   8.090   9.006
 3961W        W 8012   4.987   4.705   1.217
 3962W        W 8013   2.811   5.902  10.194
 3963W        W 8014   6.268   4.297   0.495
 3964W        W 8015   5.608   3.885   9.087
 3965W        W 8016   3.655   2.524   2.071
 3966W        W 8017   2.642   9.384   3.052
 3967W        W 8018   0.534   9.840  11.077
 3968W        W 8019   7.870   2.424  10.491
 3969W        W 8020   4.219  10.022   8.796
 3970W        W 8021   2.686   0.576  10.337
 3971W        W 8022   3.460  10.141  11.491
 3972W        W 8023   9.450   1.625   0.359
 3973W        W 8024   7.732   1.238  10.021
 3974W        W 8025   3.608  10.298  10.978
 3975W        W 8026   7.725  11.085  10.656
 3976W        W 8027   4.189   3.466   0.404
 3977W        W 8028   7.520  10.378   9.571
 3978W        W 8029   1.617  10.491  11.694
 3979W        W 8030   7.637   6.115   3.759
 3980W        W 8031   9.892   2.809   2.241
 3981W        W 8032   6.649   9.914   1.351
 3982W        W 8033   6.670   3.362   9.798
 3983W        W 8034  11.301   9.010   9.597
 3984W        W 8035   2.803  10.088   1.500
 3985W        W 8036   7.198   8.513   2.356
 3986W        W 8037   9.179   5.495  10.088
 3987W        W 8038  10.688   2.345   1.268
 3988W        W 8039   5.622   4.868  11.942
 3989W        W 8040   6.111   2.278   3.191
 3990W        W 8041   0.621   5.881   9.957
 3991W        W 8042   4.642   6.843   0.199
 3992W        W 8043   2.216   3.916   1.846
 3993W        W 8044   4.489  10.780   8.842
 3994W        W 8045   0.994   6.654  10.362
 3995W        W 8046   9.256   9.008  10.334
 3996W        W 8047   0.428   0.047   0.591
 3997W        W 8048   8.582   7.963   2.239
 3998W        W 8049   1.445   9.348  10.064
 3999W        W 8050   4.334  10.388   0.532
 4000W        W 8051   4.568   0.844   1.267
 4001W        W 8052   0.295   0.683   8.715
 4002W        W 8053   7.617   9.022   1.095
 4003W        W 8054   5.375   0.408   2.998
 4004W        W 8055   0.055   5.270   2.322
 4005W        W 8056   0.818   6.264  10.904
 4006W        W 8057   9.697   9.603   0.231
 4007W        W 8058   5.250  11.407  11.288
 4008W        W 8059   0.829   4.626   1.957
 4009W        W 8060   7.644   7.562  10.412
 4010W        W 8061   8.221   0.278   3.526
 4011W        W 8062   4.446   7.141   9.368
 4012W        W 8063   4.175  10.080   1.869
 4013W        W 8064   3.106   3.594  10.084
 4014W        W 8065   9.702   0.413   3.629
 4015W        W 8066   3.359  10.977  11.693
 4016W        W 8067   1.038   5.124   0.300
 4017W        W 8068   7.846   2.407  11.494
 4018W        W 8069  10.870   4.984   0.460
 4019W        W 8070   5.008   0.459   2.180
 4020W        W 8071   6.308  11.258   1.140
 4021W        W 8072   1.923  10.867   9.725
 4022W        W 8073   3.747   4.987   1.743
 4023W        W 8074   8.704  10.382   3.667
 4024W        W 8075   6.046  10.006   0.834
 4025W        W 8076   3.549  10.646  11.356
 4026W        W 8077   5.027   3.420  10.577
 4027W        W 8078  10.839   7.730   3.044
 4028W        W 8079   3.105   7.397   0.365
 4029W        W 8080   9.491   4.911   4.344
 4030W        W 8081   4.800   7.969  10.292
 4031W        W 8082   3.331   2.744   3.250
 4032W        W 8083   0.564   0.858   1.702
 4033W        W 8084   7.534   9.727   3.233
 4034W        W 8085   2.894   4.506  10.322
 4035W        W 8086   5.131   8.970   2.058
 4036W        W 8087   5.223   3.203   8.781
 4037W        W 8088  10.287   6.965   9.573
 4038W        W 8089   9.121   3.714   9.528
 4039W        W 8090   8.790   1.261   1.232
 4040W        W 8091   2.787   1.270   9.492
 4041W        W 8092   2.104   2.898   2.984
 4042W        W 8093   5.812  10.590  10.485
 4043W        W 8094   3.740   2.613   9.842
 4044W        W 8095  10.864   3.275   9.953
 4045W        W 8096  11.092   5.079   2.397
 4046W        W 8097   8.024   1.046   3.471
 4047W        W 8098  11.030   3.116  10.418
 4048W        W 8099  11.357   2.336   0.416
 4049W        W 8100   3.332   9.356  11.074
 4050W        W 8101   5.127   1.590   9.268
 4051W        W 8102   9.534   7.534  10.324
 4052W        W 8103   4.208   2.831  11.538
 4053W        W 8104   6.573   0.431   1.371
 4054W        W 8105   0.129   8.559   1.087
 4055W        W 8106   0.059   2.366  10.407
 4056W        W 8107   0.490   3.880   3.345
 4057W        W 8108   2.658   6.186   3.332
 4058W        W 8109   2.863   2.029   1.189
 4059W        W 8110   2.856   3.347   3.498
 4060W        W 8111   8.849   0.419   1.820
 4061W        W 8112   0.534   9.299   3.477
 4062W        W 8113   8.948   5.125   2.255
 4063W        W 8114   6.148   3.105   3.719
 4064W        W 8115  11.272   5.642   9.697
 4065W        W 8116   9.158   8.090  11.933
 4066W        W 8117   7.651  11.250  11.131
 4067W        W 8118   1.832   2.457  10.879
 4068W        W 8119   2.346  11.449   3.283
 4069W        W 8120   3.289   9.655  11.482
 4070W        W 8121   6.685   7.018   0.308
 4071W        W 8122   1.303   7.621   1.808
 4072W        W 8123   9.504   8.636   8.559
 4073W        W 8124  10.043   4.863   2.768
 4074W        W 8125  10.147  11.407   0.655
 4075W        W 8126   9.657   4.062   1.329
 4076W        W 8127   4.606   2.105   8.641
 4077W        W 8128   6.705   0.419   3.182
 4078W        W 8129   9.670   1.483   0.801
 4079W        W 8130   4.656  11.486   9.569
 4080W        W 8131   6.050   1.322   2.165
 4081W        W 8132   9.812   7.490  10.782
 4082W        W 8133   7.927   5.001  11.534
 4083W        W 8134   7.899   9.484   0.192
 4084W        W 8135   5.632   5.694   1.903
 4085W        W 8136   8.221   2.285   0.909
 4086W        W 8137   2.830   9.753   3.391
 4087W        W 8138   6.769   8.966   0.842
 4088W        W 8139   6.419   9.900   3.127
 4089W        W 8140   5.429   5.896   1.471
 4090W        W 8141   8.488   8.228   0.211
 4091W        W 8142   6.387   2.243   1.872
 4092W        W 8143   0.765   3.302   0.396
 4093W        W 8144   9.585   8.931   8.967
 4094W        W 8145   8.302   3.011   9.941
 4095W        W 8146  11.055   2.917   9.615
 4096W        W 8147   4.654   2.981  11.346
 4097W        W 8148   6.593  11.328  11.832
 4098W        W 8149  10.073   2.363   8.593
 4099W        W 8150  10.448   0.380  11.686
 4100W        W 8151   0.757   4.343  10.013
 4101W        W 8152  11.298   4.839   0.802
 4102W        W 8153   8.418   2.019   2.745
 4103W        W 8154   5.531   9.742   3.281
 4104W        W 8155  10.542  10.871   1.380
 4105W        W 8156   9.000   8.672  10.735
 4106W        W 8157  11.349   8.734  11.386
 4107W        W 8158   7.085  10.089   9.591
 4108W        W 8159   0.195   0.667   3.414
 4109W        W 8160   4.941   1.865   8.308
 4110W        W 8161   7.825   1.172   2.190
 4111W        W 8162   8.056  11.323  11.935
 4112W        W 8163   6.464   6.447   9.053
 4113W        W 8164  10.595   9.531   3.238
 4114W        W 8165  11.036   4.685   2.778
 4115W        W 8166   0.009   9.825   2.248
 4116W        W 8167   8.995   2.190   9.566
 4117W        W 8168   4.591  11.005   0.401
 4118W        W 8169   7.082   2.303   2.469
 4119W        W 8170   5.744   1.248  11.345
 4120W        W 8171  10.447   0.817   3.751
 4121W        W 8172   0.018   6.155   3.147
 4122W        W 8173   5.243   5.492   1.271
 4123W        W 8174   2.681   6.949   1.847
 4124W        W 8175   5.086   7.583  10.083
 4125W        W 8176  10.875   5.456   8.583
 4126W        W 8177   0.799   5.636  10.467
 4127W        W 8178   5.571   9.589   2.776
 4128W        W 8179   3.106   8.473  10.920
 4129W        W 8180   5.563  10.188   0.892
 4130W        W 8181   1.389   1.917   1.197
 4131W        W 8182   4.138   7.572   1.303
 4132W        W 8183   3.824   0.018   1.270
 4133W        W 8184   6.144   0.836   2.987
 4134W        W 8185  11.161  10.517   1.590
 4135W        W 8186   0.959   0.571   3.664
 4136W        W 8187  10.028   3.281   0.329
 4137W        W 8188   4.274   9.091  11.233
 4138W        W 8189  11.123   3.925   0.116
 4139W        W 8190   3.814   3.112   0.299
 4140W        W 8191   0.121   3.095   1.806
 4141W        W 8192   6.490   7.355   2.384
 4142W        W 8193   4.768   6.994   3.343
 4143W        W 8194   4.521  10.316  10.342
 4144W        W 8195   9.557   2.477  10.190
 4145W        W 8196   0.701   8.804   3.349
 4146W        W 8197   9.449   6.232   1.482
 4147W        W 8198   6.963   1.799   9.258
 4148W        W 8199  11.244   3.063  11.672
 4149W        W 8200   8.120   8.119   0.804
 4150W        W 8201   6.550   1.590   2.848
 4151W        W 8202   9.031   2.241   9.056
 4152W        W 8203   8.764   4.610  11.335
 4153W        W 8204   2.326   1.817  10.043
 4154W        W 8205   1.917   5.356   9.917
 4155W        W 8206   1.076   2.343   0.242
 4156W        W 8207  11.211   6.915   9.873
 4157W        W 8208   2.113  10.926  11.315
 4158W        W 8209   7.924   4.048   1.674
 4159W        W 8210   0.941   8.418   2.778
 4160W        W 8211   8.593   1.874  11.500
 4161W        W 8212   6.940   4.680  10.245
 4162W        W 8213   7.005   1.304   9.433
 4163W        W 8214  11.242   1.327   1.896
 4164W        W 8215   4.333   5.612   1.883
 4165W        W 8216   9.127   8.503   1.778
 4166W        W 8217   5.116   9.579   2.994
 4167W        W 8218   6.009   2.906   3.255
 4168W        W 8219   2.180   7.459   0.491
 4169W        W 8220   8.274   2.692   2.705
 4170W        W 8221   8.882  11.358   2.600
 4171W        W 8222   2.546   9.038   8.552
 4172W        W 8223   4.918   2.930  10.504
 4173W        W 8224   8.858   9.512   9.767
 4174W        W 8225   5.219   7.503   9.610
 4175W        W 8226   9.234   6.080  11.771
 4176W        W 8227   8.012   8.714  10.009
 4177W        W 8228   5.514   8.075   0.224
 4178W        W 8229   9.549   1.529   9.808
 4179W        W 8230   6.089   3.828   1.012
 4180W        W 8231   1.107   7.445   3.139
 4181W        W 8232   3.773   8.954   3.220
 4182W        W 8233   4.869   1.001   0.391
 4183W        W 8234   2.482   7.994   9.391
 4184W        W 8235   2.165   8.455   1.147
 4185W        W 8236   2.041   4.260   9.356
 4186W        W 8237   4.673   5.280   0.250
 4187W        W 8238   1.430   8.645   2.818
 4188W        W 8239   4.391   9.442   2.645
 4189W        W 8240  11.276   7.801  10.980
 4190W        W 8241   6.105   5.901   1.829
 4191W        W 8242   0.353   8.049  11.780
 4192W        W 8243  10.874   8.139  11.723
 4193W        W 8244  10.835   1.493  10.111
 4194W        W 8245   8.406   9.408   9.546
 4195W        W 8246  11.438   4.371   0.626
 4196W        W 8247   5.892   4.637   9.267
 4197W        W 8248  10.461   5.137   1.782
 4198W        W 8249   5.204   3.968   0.918
 4199W        W 8250   4.698   6.967  10.863
 4200W        W 8251   1.238  10.564   3.615
 4201W        W 8252   5.408  10.321  10.273
 4202W        W 8253   7.678   2.718   9.523
 4203W        W 8254   6.642   0.922   0.465
 4204W        W 8255   8.157   8.690   1.980
 4205W        W 8256   0.770   1.081  11.320
 4206W        W 8257   1.556   0.849   0.556
 4207W        W 8258   8.557   5.578  11.417
 4208W        W 8259   4.541   7.558  10.553
 4209W        W 8260   1.487   3.048   9.047
 4210W        W 8261   2.552   8.621  10.996
 4211W        W 8262   6.343   2.325   0.374
 4212W        W 8263   9.277   4.196   9.381
 4213W        W 8264  11.225   5.371   1.473
 4214W        W 8265   4.347   6.680   9.970
 4215W        W 8266   9.618   1.085   1.678
 4216W        W 8267   9.138   8.066   0.789
 4217W        W 8268  10.436  10.308  11.043
 4218W        W 8269   9.827   9.562  11.642
 4219W        W 8270  10.516   8.493   9.147
 4220W        W 8271   3.021  10.982   1.298
 4221W        W 8272   0.727   3.841   9.959
 4222W        W 8273  10.203   7.667   1.119
 4223W        W 8274   9.104   1.744   8.764
 4224W        W 8275   9.497   8.427   2.147
 4225W        W 8276   7.411   7.576  10.872
 4226W        W 8277   0.855   9.596   2.173
 4227W        W 8278   1.947   9.612   1.202
 4228W        W 8279   4.158   6.261   9.744
 4229W        W 8280   0.514   2.611   1.506
 4230W        W 8281   5.914   5.745   2.308
 4231W        W 8282   5.062   0.477   8.956
 4232W        W 8283   7.733  10.573   0.262
 4233W        W 8284   7.688   9.060   2.585
 4234W        W 8285   7.421   2.776   0.892
 4235W        W 8286   8.229   1.344  11.743
 4236W        W 8287   2.343   8.489   9.316
 4237W        W 8288   7.971  11.288   2.432
 4238W        W 8289   4.253   7.059   1.248
 4239W        W 8290   8.532   0.170   1.476
 4240W        W 8291   9.290   4.480  11.421
 4241W        W 8292  11.314   1.240  11.022
 4242W        W 8293   3.672   1.334   9.640
 4243W        W 8294   9.137   5.773   8.699
 4244W        W 8295  10.005  10.568  11.293
 4245W        W 8296   2.282   7.254  11.532
 4246W        W 8297   4.836   2.135   1.919
 4247W        W 8298   5.228   1.186  10.079
 4248W        W 8299  11.457  10.437   3.293
 4249W        W 8300   1.763   8.396   1.818
 4250W        W 8301   6.050   3.684   3.834
 4251W        W 8302   4.103   4.754   8.676
 4252W        W 8303   8.122   9.428   1.799
 4253W        W 8304   5.860   8.969   0.024
 4254W        W 8305  11.162   4.300  10.287
 4255W        W 8306   4.050   1.487   0.941
 4256W        W 8307  11.405   7.663   1.174
 4257W        W 8308   5.268   8.454  11.528
 4258W        W 8309   4.728   4.330  11.796
 4259W        W 8310   9.957   1.682   0.383
 4260W        W 8311   8.389  10.342   1.429
 4261W        W 8312  10.508  10.833   8.903
 4262W        W 8313   0.497   9.551   2.995
 4263W        W 8314   7.382   4.040   9.178
 4264W        W 8315   1.682   5.956   3.244
 4265W        W 8316   4.310   0.282   0.453
 4266W        W 8317   6.227   7.503  11.293
 4267W        W 8318   7.172   9.141  10.073
 4268W        W 8319   2.913   0.946   2.089
 4269W        W 8320   9.411   8.966   3.609
 4270W        W 8321   2.252   2.783   2.510
 4271W        W 8322  11.237   0.048   0.905
 4272W        W 8323   6.592   3.636   1.900
 4273W        W 8324   6.140   2.507   0.842
 4274W        W 8325   2.001  10.764   0.831
 4275W        W 8326   7.988   4.031  11.904
 4276W        W 8327   7.431  10.908   9.868
 4277W        W 8328  10.976   1.232   9.143
 4278W        W 8329  10.709   6.538   1.759
 4279W        W 8330  10.363   6.045   9.492
 4280W        W 8331   8.345   2.346  11.461
 4281W        W 8332   8.406   1.506   2.640
 4282W        W 8333   3.105   2.146   2.582
 4283W        W 8334   7.571   2.528   3.168
 4284W        W 8335   7.874  10.461   8.477
 4285W        W 8336   4.964   8.998   9.508
 4286W        W 8337   5.047   8.835  11.847
 4287W        W 8338   2.726   2.216   2.969
 4288W        W 8339   6.491   5.899  11.897
 4289W        W 8340   7.584   6.870   0.839
 4290W        W 8341   5.338   0.351  11.524
 4291W        W 8342   9.174   2.798   2.861
 4292W        W 8343   1.891  11.287   2.961
 4293W        W 8344   4.226   9.528  11.985
 4294W        W 8345   9.027   4.067  11.181
 4295W        W 8346   1.763   9.159   2.320
 4296W        W 8347   6.876   9.402   2.473
 4297W        W 8348   8.363   1.582   1.351
 4298W        W 8349   6.980   6.945  11.024
 4299W        W 8350   9.146   3.103   3.253
 4300W        W 8351   3.553   9.331   0.880
 4301W        W 8352   8.350   1.184   2.186
 4302W        W 8353   6.950   4.658   1.231
 4303W        W 8354   1.799   8.863   0.904
 4304W        W 8355   3.621   1.754   1.726
 4305W        W 8356   5.618   1.736  11.456
 4306W        W 8357   4.237   3.169   9.565
 4307W        W 8358   8.556   2.758   8.656
 4308W        W 8359  10.681   2.310  10.545
 4309W        W 8360   6.433  10.511   8.428
 4310W        W 8361   9.367  10.823   9.841
 4311W        W 8362   1.747  10.892  11.997
 4312W        W 8363   2.767   5.646  11.257
 4313W        W 8364   0.122   2.431   9.648
 4314W        W 8365   4.411   8.650  10.966
 4315W        W 8366   9.098   2.383   1.667
 4316W        W 8367   0.576   2.922   1.897
 4317W        W 8368   2.452   2.524   9.632
 4318W        W 8369   2.857   0.010   3.213
 4319W        W 8370   3.608   0.761   0.841
 4320W        W 8371   1.878  10.004  11.771
 4321W        W 8372   1.878  10.618   8.784
 4322W        W 8373   1.019   0.657   9.883
 4323W        W 8374   8.569   5.331   0.806
 4324W        W 8375   6.742   7.501   8.681
 4325W        W 8376  10.398   5.539  11.871
 4326W        W 8377   5.117   7.395   2.279
 4327W        W 8378   1.229   2.639   9.875
 4328W        W 8379  10.020   6.690   4.338
 4329W        W 8380  10.745   5.091   9.002
 4330W        W 8381   4.154   6.463   4.204
 4331W        W 8382   0.625  11.235   8.546
 4332W        W 8383   5.585   8.011  10.709
 4333W        W 8384   8.702   7.126   2.127
 4334W        W 8385  10.953   0.822  10.937
 4335W        W 8386   6.800   6.135   0.232
 4336W        W 8387  10.368  11.489  11.370
 4337W        W 8388   8.473   1.650  10.046
 4338W        W 8389   3.266   3.036   2.688
 4339W        W 8390   3.533   9.058   0.049
 4340W        W 8391   8.595   9.638  10.625
 4341W        W 8392   9.977  11.312  10.496
 4342W        W 8393  10.898   5.108   9.818
 4343W        W 8394   7.151  11.415   9.923
 4344W        W 8395  10.523   6.579   0.855
 4345W        W 8396   5.482  11.002   2.123
 4346W        W 8397   9.918   9.202   0.023
 4347W        W 8398  10.205   8.003  10.959
 4348W        W 8399   0.970  10.633   9.021
 4349W        W 8400  11.448   2.233   2.345
 4350W        W 8401   5.174   1.768   1.773
 4351W        W 8402   0.384   8.495  11.037
 4352W        W 8403   0.496   8.131   2.693
 4353W        W 8404   8.457   7.218   8.903
 4354W        W 8405   8.399   5.140   1.333
 4355W        W 8406   0.319   7.470   0.497
 4356W        W 8407  10.116   7.004   3.580
 4357W        W 8408   3.069   2.588   2.830
 4358W        W 8409   5.631   7.170   0.214
 4359W        W 8410   2.281  11.010   2.761
 4360W        W 8411  11.339   9.075   2.908
 4361W        W 8412   9.325   9.350   1.254
 4362W        W 8413  11.476   4.141  10.702
 4363W        W 8414   0.983   7.978   1.493
 4364W        W 8415   1.862   9.584   3.213
 4365W        W 8416   6.547   3.421  11.836
 4366W        W 8417   4.271   0.366   9.344
 4367W        W 8418   4.121   0.025   1.710
 4368W        W 8419   8.370   4.203  10.441
 4369W        W 8420   7.604   8.587   2.786
 4370W        W 8421  10.364   1.009  10.307
 4371W        W 8422   7.568   6.693   2.921
 4372W        W 8423   6.035   4.536  10.789
 4373W        W 8424  11.446   2.139   2.877
 4374W        W 8425   9.281   6.438   0.546
 4375W        W 8426   9.881   7.891  10.480
 4376W        W 8427  10.628   1.748  11.410
 4377W        W 8428   6.261   6.590  11.683
 4378W        W 8429   6.182   1.398  10.436
 4379W        W 8430   4.556  10.889  11.590
 4380W        W 8431   9.873   8.114   1.982
 4381W        W 8432   6.106   9.210   1.203
 4382W        W 8433   5.551   7.020  10.862
 4383W        W 8434   0.529   7.379  11.435
 4384W        W 8435   0.610   4.234   2.677
 4385W        W 8436   1.977   5.677   8.654
 4386W        W 8437   3.525   1.769   9.888
 4387W        W 8438   5.441   5.657  10.510
 4388W        W 8439   6.399   9.515   1.543
 4389W        W 8440   0.851   4.633   0.965
 4390W        W 8441  10.451   7.421   3.718
 4391W        W 8442   6.294   4.129   2.716
 4392W        W 8443   2.463   2.642  11.061
 4393W        W 8444   1.702   7.394   0.740
 4394W        W 8445   1.650   3.328   0.987
 4395W        W 8446   0.018  10.945   8.910
 4396W        W 8447   7.379  10.039   0.917
 4397W        W 8448   9.582   1.025   2.430
 4398W        W 8449   1.251   4.254   0.492
 4399W        W 8450   5.605   4.365  11.822
 4400W        W 8451   8.475   2.331   9.574
 4401W        W 8452   1.812   1.045   1.575
 4402W        W 8453   8.698   2.141   0.789
 4403W        W 8454   4.515   2.172  10.903
 4404W        W 8455   1.509  11.277   9.040
 4405W        W 8456   9.897   9.154   2.829
 4406W        W 8457   8.453   4.839   0.912
 4407W        W 8458   0.452   0.284  11.755
 4408W        W 8459   5.148   7.748   1.361
 4409W        W 8460  10.534   1.681   2.783
 4410W        W 8461   7.903   6.478   0.767
 4411W        W 8462   5.978   5.235  10.082
 4412W        W 8463   4.635   5.303  11.732
 4413W        W 8464   8.689   2.113   9.980
 4414W        W 8465   1.702  11.305   9.891
 4415W        W 8466   0.015  10.341   9.611
 4416W        W 8467   2.858  11.143  10.317
 4417W        W 8468   4.495   0.307   1.975
 4418W        W 8469   5.743   9.432  10.297
 4419W        W 8470   5.587   0.245   1.414
 4420W        W 8471   7.832   0.995   0.932
 4421W        W 8472   7.774   9.916   8.790
 4422W        W 8473   1.816  10.965   1.614
 4423W        W 8474   1.269   7.998   9.894
 4424W        W 8475   4.476   9.441   3.577
 4425W        W 8476   6.044   6.706   0.861
 4426W        W 8477   8.186   7.063   2.108
 4427W        W 8478   0.332   4.832   2.147
 4428W        W 8479   4.639   9.806  10.267
 4429W        W 8480   0.415   0.239  10.126
 4430W        W 8481  11.256   0.842  11.364
 4431W        W 8482   7.609   9.905   2.324
 4432W        W 8483   5.176   9.965   8.432
 4433W        W 8484   4.127   9.189   9.010
 4434W        W 8485   5.054   2.974   0.072
 4435W        W 8486   3.473   5.961   2.957
 4436W        W 8487  10.346  10.083   0.780
 4437W        W 8488   3.129   5.273  11.366
 4438W        W 8489   0.425  10.842   9.870
 4439W        W 8490   2.327   5.535  11.065
 4440W        W 8491   6.656   0.542  10.687
 4441W        W 8492   1.171   0.508   0.419
 4442W        W 8493   3.301   7.966   1.836
 4443W        W 8494   0.978   2.917   2.184
 4444W        W 8495   2.720   5.565   9.788
 4445W        W 8496   3.479   0.603   1.845
 4446W        W 8497  10.427   1.722   3.433
 4447W        W 8498   7.634   0.420   0.945
 4448W        W 8499  10.763   2.996  10.878
 4449W        W 8500   8.303   1.452   8.964
 4450W        W 8501   7.961   8.704   9.496
 4451W        W 8502   3.364  10.024   9.369
 4452W        W 8503  10.877  10.914  10.572
 4453W        W 8504   0.234   1.936   1.875
 4454W        W 8505   0.508   9.343  10.874
 4455W        W 8506  10.554   2.521   8.688
 4456W        W 8507   6.982  10.357   2.871
 4457W        W 8508   4.568   4.809   0.978
 4458W        W 8509   8.507   3.957  10.861
 4459W        W 8510   8.338   2.148   0.402
 4460W        W 8511   0.843   7.310   2.661
 4461W        W 8512   8.170   3.747   8.642
 4462W        W 8513   3.500   7.614   0.602
 4463W        W 8514   1.626   1.054   9.121
 4464W        W 8515   6.122  10.254   8.746
 4465W        W 8516  11.280   3.771   2.382
 4466W        W 8517  10.422  11.473  10.226
 4467W        W 8518   8.473   8.097   1.165
 4468W        W 8519   0.042   9.504  11.785
 4469W        W 8520   5.254  10.359   1.422
 4470W        W 8521   5.590  10.449  11.724
 4471W        W 8522   2.868   9.557   0.332
 4472W        W 8523   8.154   2.764   0.328
 4473W        W 8524   1.417   4.659   2.888
 4474W        W 8525   2.828   6.391   9.976
 4475W        W 8526  10.830  10.906  11.874
 4476W        W 8527   8.337   9.484   8.508
 4477W        W 8528   9.457   5.342  11.257
 4478W        W 8529   8.993   5.218   3.299
 4479W        W 8530   3.414   2.220   1.707
 4480W        W 8531  10.469  10.908   2.721
 4481W        W 8532  10.395  11.262   9.747
 4482W        W 8533   1.293   4.773  10.320
 4483W        W 8534   2.675   0.049  11.292
 4484W        W 8535   8.147   2.719  11.798
 4485W        W 8536   1.364   6.994  11.075
 4486W        W 8537   1.478   6.295  11.678
 4487W        W 8538   2.180   5.785  11.884
 4488W        W 8539  11.347   9.011  11.801
 4489W        W 8540  10.039   2.956   2.785
 4490W        W 8541   4.505   2.968   3.086
 4491W        W 8542   9.971   3.210   9.258
 4492W        W 8543  10.902   3.133   1.483
 4493W        W 8544   9.205   3.584  11.256
 4494W        W 8545   3.498   2.272  11.083
 4495W        W 8546   7.994   0.273   9.937
 4496W        W 8547   2.113   0.865   9.112
 4497W        W 8548   1.924   3.136   9.653
 4498W        W 8549  10.263  11.251   1.174
 4499W        W 8550   6.670  11.320   1.971
 4500W        W 8551   4.057   2.971   9.111
 4501W        W 8552   3.964   0.973  10.833
 4502W        W 8553   1.699   2.236  11.361
 4503W        W 8554   3.180   0.703  11.801
 4504W        W 8555   3.330   6.552   9.843
 4505W        W 8556   8.727   9.048  10.264
 4506W        W 8557   5.667   4.033   8.211
 4507W        W 8558   5.878  10.991   0.453
 4508W        W 8559   0.134   0.341   2.489
 4509W        W 8560   5.588   9.714   0.680
 4510W        W 8561   1.220   3.747   3.393
 4511W        W 8562   9.021  10.572   0.239
 4512W        W 8563   2.876   1.359   8.982
 4513W        W 8564   9.518   0.980  10.342
 4514W        W 8565   6.983   1.838   1.123
 4515W        W 8566   1.195   0.208   9.123
 4516W        W 8567   8.956   7.170   1.658
 4517W        W 8568  11.217   9.366  10.385
 4518W        W 8569   9.126   9.563   3.240
 4519W        W 8570   3.905   6.928   2.413
 4520W        W 8571   3.748   7.104  10.126
 4521W        W 8572   4.638   6.385   3.976
 4522W        W 8573   4.713   7.533   9.543
 4523W        W 8574   7.044   8.743  11.582
 4524W        W 8575   1.313  10.487  10.876
 4525W        W 8576   5.680   8.482   8.613
 4526W        W 8577   9.381   1.089   0.237
 4527W        W 8578   2.015   6.995   0.808
 4528W        W 8579   1.152   7.130   9.527
 4529W        W 8580   5.823   5.297  10.573
 4530W        W 8581   6.875   8.530   1.063
 4531W        W 8582   4.039   7.551  10.535
 4532W        W 8583   6.047   2.796   1.318
 4533W        W 8584  11.455   5.144  11.594
 4534W        W 8585   6.687   9.541   1.982
 4535W        W 8586   6.865   8.149  11.766
 4536W        W 8587   4.300   6.982   2.090
 4537W        W 8588   6.068   7.392   1.738
 4538W        W 8589   6.217   0.475  10.339
 4539W        W 8590   9.644   8.004   0.788
 4540W        W 8591   9.930   3.820  10.796
 4541W        W 8592  11.195   1.319   0.070
 4542W        W 8593   6.009   2.627   9.064
 4543W        W 8594  11.382   2.483  11.552
 4544W        W 8595   3.099   6.650   2.044
 4545W        W 8596   6.280   9.009   9.089
 4546W        W 8597   6.823   0.247   0.010
 4547W        W 8598   2.287   0.951  10.401
 4548W        W 8599   7.123   0.299  10.491
 4549W        W 8600   8.086   8.423  10.451
 4550W        W 8601   7.954   3.311  10.160
 4551W        W 8602   9.634  10.483   3.370
 4552W        W 8603   2.570   8.109   8.893
 4553W        W 8604   7.906   3.197   9.651
 4554W        W 8605   9.856   6.122   1.164
 4555W        W 8606   2.484   6.532   9.625
 4556W        W 8607   4.600   9.513  11.217
 4557W        W 8608   5.960   4.377   8.469
 4558W        W 8609   7.763   7.919   9.642
 4559W        W 8610   1.207  11.459   0.962
 4560W        W 8611   6.594  10.826   9.810
 4561W        W 8612   4.626   6.328   8.792
 4562W        W 8613   8.580   9.430   2.978
 4563W        W 8614   5.035  11.051  11.571
 4564W        W 8615   4.592  11.232   0.861
 4565W        W 8616   0.034   9.943   3.146
 4566W        W 8617   4.531   3.367   2.760
 4567W        W 8618   3.343   7.164   0.773
 4568W        W 8619   2.990   9.873   2.938
 4569W        W 8620  10.725  10.321   1.816
 4570W        W 8621   7.499   7.202   2.918
 4571W        W 8622  10.493   6.533   9.401
 4572W        W 8623  11.452   6.801  10.984
 4573W        W 8624   1.284   8.764  10.567
 4574W        W 8625   3.533   9.298   8.708
 4575W        W 8626   8.808   3.055  10.053
 4576W        W 8627   9.637   5.779   9.912
 4577W        W 8628   9.475   6.085   3.424
 4578W        W 8629   2.688   2.297  11.376
 4579W        W 8630   1.474   2.672  11.485
 4580W        W 8631   9.885   8.361  10.325
 4581W        W 8632   9.718   4.770   9.737
 4582W        W 8633   8.117   2.239  11.942
 4583W        W 8634   9.831   4.118  10.054
 4584W        W 8635   2.366  10.139  11.890
 4585W        W 8636   1.308   5.544  10.508
 4586W        W 8637   7.465   1.191  10.931
 4587W        W 8638  10.101   2.782   3.284
 4588W        W 8639   2.150   6.748  11.782
 4589W        W 8640   1.735   3.963   3.315
 4590W        W 8641   5.963   9.137   2.086
 4591W        W 8642  10.509   2.745   2.955
 4592W        W 8643  10.869   8.664   0.392
 4593W        W 8644   6.498  10.643   3.239
 4594W        W 8645   9.379   0.745   1.376
 4595W        W 8646   9.287   3.988   3.539
 4596W        W 8647   4.548  10.814  10.179
 4597W        W 8648   6.414  10.738   0.931
 4598W        W 8649   9.575  11.160   8.481
 4599W        W 8650  10.864   4.030   3.265
 4600W        W 8651   0.750   8.614   8.939
 4601W        W 8652   0.400   5.659   2.354
 4602W        W 8653   4.644   3.187  10.860
 4603W        W 8654  10.287  10.090  10.576
 4604W        W 8655  11.370   4.416   1.137
 4605W        W 8656   7.988   9.940   1.880
 4606W        W 8657   9.916   4.384   2.890
 4607W        W 8658   2.211   4.854   1.677
 4608W        W 8659   6.511   0.705   9.979
 4609W        W 8660   8.618   6.640   9.286
 4610W        W 8661   5.873   3.374  10.282
 4611W        W 8662   7.189   6.169   1.189
 4612W        W 8663   4.225   6.694   9.464
 4613W        W 8664   8.610   2.045   3.560
 4614W        W 8665   7.442   4.271  11.502
 4615W        W 8666   4.241   0.551  10.891
 4616W        W 8667   9.281   3.377   0.011
 4617W        W 8668   0.314   2.696  10.082
 4618W        W 8669   3.820   2.199   9.548
 4619W        W 8670   7.427  11.281   9.478
 4620W        W 8671   0.149   2.253  11.958
 4621W        W 8672   8.056  11.326   1.943
 4622W        W 8673   1.448   8.456   9.720
 4623W        W 8674   2.334   7.647   9.722
 4624W        W 8675   4.962   2.846   2.254
 4625W        W 8676   5.569   7.094   1.182
 4626W        W 8677   5.661   4.231   2.696
 4627W        W 8678   8.837   9.500   1.180
 4628W        W 8679   8.290   0.197   2.499
 4629W        W 8680   2.803   4.742  10.874
 4630W        W 8681   5.197   9.274  11.554
 4631W        W 8682   6.063   0.361   2.791
 4632W        W 8683   4.185   7.545   9.549
 4633W        W 8684   2.357   3.483   9.484
 4634W        W 8685  11.290  11.245   1.326
 4635W        W 8686   8.339  10.890   3.204
 4636W        W 8687   1.219   2.657   8.906
 4637W        W 8688   2.649   8.639   2.222
 4638W        W 8689  10.111   9.791   0.443
 4639W        W 8690   1.865   2.034  11.938
 4640W        W 8691   5.796   1.220   8.971
 4641W        W 8692   1.833   3.675  10.499
 4642W        W 8693   4.577   3.156   9.966
 4643W        W 8694   5.709   3.626  10.982
 4644W        W 8695   6.451   8.286  10.862
 4645W        W 8696   9.352  10.798   3.078
 4646W        W 8697   1.180   3.148   8.665
 4647W        W 8698   7.719   8.586   2.276
 4648W        W 8699  10.981   8.645   9.341
 4649W        W 8700   3.103   0.818   0.731
 4650W        W 8701   4.713   9.073  10.950
 4651W        W 8702   3.163   0.875   9.094
 4652W        W 8703   6.340   8.868  11.940
 4653W        W 8704   5.191  10.573   3.305
 4654W        W 8705  11.323   2.620  10.034
 4655W        W 8706   8.090   0.980   9.085
 4656W        W 8707   6.743   7.701  11.544
 4657W        W 8708   2.170   9.813   0.756
 4658W        W 8709   0.385  10.954   2.658
 4659W        W 8710  11.074   2.615  10.501
 4660W        W 8711   7.576   5.991   0.841
 4661W        W 8712   3.175   4.359   1.205
 4662W        W 8713   2.337   4.147  11.600
 4663W        W 8714  10.034  10.211   2.301
 4664W        W 8715   7.249  10.305   2.421
 4665W        W 8716   8.302   8.555   3.435
 4666W        W 8717   1.300   9.288   8.972
 4667W        W 8718  10.918   0.878  11.860
 4668W        W 8719   6.503   0.092   2.862
 4669W        W 8720  10.376   8.981   0.088
 4670W        W 8721   2.695   1.159   0.313
 4671W        W 8722   7.826   7.727   0.894
 4672W        W 8723   7.519   4.626  10.045
 4673W        W 8724   5.689   3.594   0.256
 4674W        W 8725  10.481   3.611   1.366
 4675W        W 8726   8.258   2.443   1.943
 4676W        W 8727  11.488   9.050   9.134
 4677W        W 8728   3.240   3.356   9.464
 4678W        W 8729   1.665  10.697   0.442
 4679W        W 8730   2.289   4.376   1.455
 4680W        W 8731   0.550   7.057   0.244
 4681W        W 8732  10.988   7.218   9.032
 4682W        W 8733  10.122   9.091   0.949
 4683W        W 8734   1.510   3.247   3.578
 4684W        W 8735   4.811   0.473  11.528
 4685W        W 8736   0.830  10.905   0.226
 4686W        W 8737   9.515   2.406   1.024
 4687W        W 8738   2.853  10.936   8.519
 4688W        W 8739   4.982   9.380   3.476
 4689W        W 8740   8.071   8.488   0.402
 4690W        W 8741   0.565   2.312   0.280
 4691W        W 8742   0.808   7.404   3.561
 4692W        W 8743   8.098   2.071   8.577
 4693W        W 8744   8.558   8.458   2.501
 4694W        W 8745   6.179   6.209  10.273
 4695W        W 8746   0.293   5.250  10.263
 4696W        W 8747   9.824   9.435  11.131
 4697W        W 8748  10.307   0.749   2.741
 4698W        W 8749   2.891   5.055   2.173
 4699W        W 8750   4.978  11.061  10.321
 4700W        W 8751   4.043  10.536  10.258
 4701W        W 8752   9.594  10.998  10.332
 4702W        W 8753   2.964   4.974   1.685
 4703W        W 8754  10.125   3.758  11.249
 4704W        W 8755   5.105  10.933   1.510
 4705W        W 8756   7.536   0.586  10.656
 4706W        W 8757   6.733   6.284  10.520
 4707W        W 8758   6.267   7.150   0.855
 4708W        W 8759   0.117   4.090   2.619
 4709W        W 8760   7.024   1.437   2.107
 4710W        W 8761   2.992   6.860   1.026
 4711W        W 8762  10.598   0.824   1.799
 4712W        W 8763   9.611   1.666  11.487
 4713W        W 8764   2.459   7.034   0.534
 4714W        W 8765   3.204   9.588  10.073
 4715W        W 8766  10.455   9.003   9.245
 4716W        W 8767   5.119  10.556  11.594
 4717W        W 8768   4.775   5.243   1.266
 4718W        W 8769   8.093   0.655   2.247
 4719W        W 8770   0.589   8.713   0.933
 4720W        W 8771   3.484   4.635   3.535
 4721W        W 8772   6.121   5.206   1.053
 4722W        W 8773   2.014   9.089   1.329
 4723W        W 8774   4.845   0.980   9.311
 4724W        W 8775   0.889   2.439   0.712
 4725W        W 8776   8.614   4.624   9.529
 4726W        W 8777   7.258   9.968  11.073
 4727W        W 8778   4.263   7.147  10.286
 4728W        W 8779   7.388   0.822  10.225
 4729W        W 8780   2.589   4.289  10.707
 4730W        W 8781   0.459  10.832   1.669
 4731W        W 8782   9.735   6.609  10.860
 4732W        W 8783   5.880   6.904   3.525
 4733W        W 8784   5.646   4.524   3.478
 4734W        W 8785  10.800   9.555  11.307
 4735W        W 8786   1.565   6.896   0.532
 4736W        W 8787  10.332   3.674   2.473
 4737W        W 8788   8.852  10.923   2.950
 4738W        W 8789   6.374   0.657   9.507
 4739W        W 8790   9.888   0.453  11.831
 4740W        W 8791   6.031   2.669   9.955
 4741W        W 8792   3.139   1.034   3.036
 4742W        W 8793   1.609   0.662   9.961
 4743W        W 8794   4.722   5.254   1.781
 4744W        W 8795   1.820   0.459  11.747
 4745W        W 8796   1.696   3.370  11.954
 4746W        W 8797  11.417   6.164  10.939
 4747W        W 8798   0.712   9.581   1.114
 4748W        W 8799   6.095   7.903   1.737
 4749W        W 8800   1.243   8.273  10.708
 4750W        W 8801   2.700   0.385  11.742
 4751W        W 8802   5.553   6.694   0.872
 4752W        W 8803   0.257   6.193   1.025
 4753W        W 8804   1.740   9.524   9.095
 4754W        W 8805   7.769   6.602  11.889
 4755W        W 8806   9.965   7.988   9.177
 4756W        W 8807   1.891   7.212   8.911
 4757W        W 8808   7.371  11.295  10.365
 4758W        W 8809   4.862  10.834   0.008
 4759W        W 8810   1.364  10.676   2.827
 4760W        W 8811   8.510   9.917   3.161
 4761W        W 8812   7.952  11.333   3.374
 4762W        W 8813   8.020   0.221   1.309
 4763W        W 8814   4.691   2.200  10.073
 4764W        W 8815   2.256   5.701   2.215
 4765W        W 8816   4.320   1.878  10.155
 4766W        W 8817   9.528  10.080   9.440
 4767W        W 8818   1.388   1.475   0.400
 4768W        W 8819  10.411   5.460   8.868
 4769W        W 8820   5.723  11.426   2.306
 4770W        W 8821  10.274   5.270   1.297
 4771W        W 8822   3.666   8.233   2.660
 4772W        W 8823   2.637   9.140   2.432
 4773W        W 8824   5.020   6.202   1.403
 4774W        W 8825  11.462   4.744  10.079
 4775W        W 8826   2.464   7.175   3.636
 4776W        W 8827   0.710   7.580  10.196
 4777W        W 8828   8.057   0.472   8.933
 4778W        W 8829   1.872  11.313   3.477
 4779W        W 8830   1.067  10.507   1.050
 4780W        W 8831   0.186   9.355   0.497
 4781W        W 8832   9.045   3.436   1.897
 4782W        W 8833   9.682   3.728   0.110
 4783W        W 8834   5.967   1.682  11.813
 4784W        W 8835   9.944   5.254   1.692
 4785W        W 8836   6.089   6.404   1.740
 4786W        W 8837  10.418   5.818  10.990
 4787W        W 8838   6.604   4.325   1.442
 4788W        W 8839   8.190   3.713   2.810
 4789W        W 8840   0.814  11.282   3.610
 4790W        W 8841   3.885   9.810   3.539
 4791W        W 8842  11.244   1.217  10.266
 4792W        W 8843   5.341  10.687   0.087
 4793W        W 8844   6.251   1.540  11.409
 4794W        W 8845   3.240   7.203  11.886
 4795W        W 8846   5.886  11.084  10.414
 4796W        W 8847  11.097  11.218   2.181
 4797W        W 8848   6.077   7.584   0.727
 4798W        W 8849   6.529   9.839   0.844
 4799W        W 8850   1.927   3.280   2.361
 4800W        W 8851   2.895   2.259   1.699
 4801W        W 8852  10.037   9.908   1.342
 4802W        W 8853   2.039  10.482   0.078
 4803W        W 8854   6.169   8.662   9.480
 4804W        W 8855   0.823   2.809   2.640
 4805W        W 8856  10.835   2.240   9.281
 4806W        W 8857   4.219   1.063   3.689
 4807W        W 8858   2.292   3.113  11.262
 4808W        W 8859  10.719   0.076   2.227
 4809W        W 8860   2.547  11.376  11.782
 4810W        W 8861   1.024   1.366   2.749
 4811W        W 8862   1.319   1.044  10.098
 4812W        W 8863   3.114   1.169   0.005
 4813W        W 8864   8.549   3.579   0.394
 4814W        W 8865  11.479   3.863   0.491
 4815W        W 8866  10.432   5.317   9.892
 4816W        W 8867   2.231   5.247   8.562
 4817W        W 8868   2.658   5.058   3.174
 4818W        W 8869   6.545   3.951  11.824
 4819W        W 8870   8.486   9.371   2.471
 4820W        W 8871   8.182   2.363   1.440
 4821W        W 8872   0.207   9.528   0.971
 4822W        W 8873   3.227   1.598  10.905
 4823W        W 8874   1.995  11.462  10.453
 4824W        W 8875   7.096   9.307   8.461
 4825W        W 8876   7.275   4.257   2.754
 4826W        W 8877   9.985  11.452  11.016
 4827W        W 8878   8.380   0.835  11.694
 4828W        W 8879   4.666   3.743   9.057
 4829W        W 8880   5.993   9.572   3.048
 4830W        W 8881   9.052   1.730   9.803
 4831W        W 8882   5.757   6.443   3.105
 4832W        W 8883   6.930   2.198  10.479
 4833W        W 8884   5.452   4.503   8.320
 4834W        W 8885   2.724   7.082   8.579
 4835W        W 8886   4.677   4.829  10.487
 4836W        W 8887   7.927   6.205   9.762
 4837W        W 8888   3.537  11.276   2.134
 4838W        W 8889  11.281   2.032   9.457
 4839W        W 8890  10.269   0.470  10.236
 4840W        W 8891  10.415   8.342   0.496
 4841W        W 8892   4.526   2.385   0.518
 4842W        W 8893   7.015   8.913   1.757
 4843W        W 8894   5.142   2.637   9.008
 4844W        W 8895   6.984   2.744   2.246
 4845W        W 8896   2.577   0.942   0.757
 4846W        W 8897  10.566   3.509  11.265
 4847W        W 8898   9.637   4.092   0.451
 4848W        W 8899   6.078   8.163   1.286
 4849W        W 8900   3.142  11.313   0.926
 4850W        W 8901   0.263  10.036   0.906
 4851W        W 8902   5.705  10.483   1.641
 4852W        W 8903   6.932   2.947   0.959
 4853W        W 8904  10.439   4.894  10.818
 4854W        W 8905   3.516  10.856   1.298
 4855W        W 8906   8.030   2.315   2.396
 4856W        W 8907   8.379   0.242   1.990
 4857W        W 8908   2.431   5.133  10.791
 4858W        W 8909   1.675   9.630   2.065
 4859W        W 8910   2.254  10.491   9.640
 4860W        W 8911   3.016   9.446   2.649
 4861W        W 8912   6.741   2.603   2.685
 4862W        W 8913  10.663   5.496   3.115
 4863W        W 8914   6.818   8.017   1.069
 4864W        W 8915   3.910   8.762   0.450
 4865W        W 8916   8.556  10.833   9.071
 4866W        W 8917   9.963  10.952  10.871
 4867W        W 8918   0.238  11.423   8.821
 4868W        W 8919   9.387   7.508   2.595
 4869W        W 8920  11.443   6.552   1.340
 4870W        W 8921  10.463   3.216   3.219
 4871W        W 8922   4.917   1.769   2.277
 4872W        W 8923  10.339   4.649  11.893
 4873W        W 8924   7.581   2.020   3.019
 4874W        W 8925   6.124   8.428   1.725
 4875W        W 8926  10.825   0.643   2.291
 4876W        W 8927   3.899   1.383   2.865
 4877W        W 8928   1.452   6.095   0.559
 4878W        W 8929   6.169   5.048   0.024
 4879W        W 8930   7.053   5.167   1.158
 4880W        W 8931   2.340  10.340   1.451
 4881W        W 8932   8.872   1.317   2.239
 4882W        W 8933   8.574  10.376   9.946
 4883W        W 8934   0.757   0.581  11.414
 4884W        W 8935   1.493   4.096   2.345
 4885W        W 8936   4.075   6.355   8.093
 4886W        W 8937   8.835   2.058   3.075
 4887W        W 8938   2.169   2.312   2.296
 4888W        W 8939  10.572   0.271   9.815
 4889W        W 8940   0.764   9.485  10.405
 4890W        W 8941   3.581   7.470  11.271
 4891W        W 8942   7.728   5.069  11.051
 4892W        W 8943   3.151   6.785   8.523
 4893W        W 8944   0.920   7.973   0.589
 4894W        W 8945   6.001   2.563   3.612
 4895W        W 8946   3.169   7.601  10.535
 4896W        W 8947   8.378  10.858  10.035
 4897W        W 8948   9.571  10.874   8.945
 4898W        W 8949   3.491   8.884   9.503
 4899W        W 8950   7.796   3.604   1.866
 4900W        W 8951   2.956   1.153  10.927
 4901W        W 8952   2.307   7.458  11.062
 4902W        W 8953   7.953   5.504  10.316
 4903W        W 8954   5.199   8.615   1.660
 4904W        W 8955  11.446   2.061   9.938
 4905W        W 8956   6.603   1.433   0.354
 4906W        W 8957   2.602   5.775   0.244
 4907W        W 8958   0.868   3.625  11.959
 4908W        W 8959   3.681   6.293   8.981
 4909W        W 8960   0.879   9.568   9.101
 4910W        W 8961  10.147   6.557   3.833
 4911W        W 8962   4.670   7.471  11.045
 4912W        W 8963   7.107   8.069   0.227
 4913W        W 8964  10.011   5.167   9.556
 4914W        W 8965   0.315   1.669   2.313
 4915W        W 8966   2.857   1.420   2.834
 4916W        W 8967   1.490  10.407   2.261
 4917W        W 8968  11.430   7.017  11.447
 4918W        W 8969   9.489   3.428   2.180
 4919W        W 8970   8.955   0.897   9.334
 4920W        W 8971   3.657  10.358   1.171
 4921W        W 8972  10.923   2.196  11.447
 4922W        W 8973  10.436   0.103   9.340
 4923W        W 8974   9.241   6.096   2.422
 4924W        W 8975   6.884   7.495   3.174
 4925W        W 8976   6.261  11.314   1.650
 4926W        W 8977   6.387   5.868   9.624
 4927W        W 8978   7.263   2.737   1.362
 4928W        W 8979  10.230   6.508   1.918
 4929W        W 8980   0.750   5.758  11.050
 4930W        W 8981   5.447   2.840   2.415
 4931W        W 8982   7.526   0.455   0.430
 4932W        W 8983   1.132   6.028   0.947
 4933W        W 8984   3.664   8.452   3.117
 4934W        W 8985  10.205   1.159   0.045
 4935W        W 8986   2.733   1.907   0.697
 4936W        W 8987   3.198  10.474   9.589
 4937W        W 8988   3.927   6.966  11.163
 4938W        W 8989   7.429   1.958  10.506
 4939W        W 8990   4.217   2.399   8.797
 4940W        W 8991   3.398   9.868  11.939
 4941W        W 8992   8.753   3.831   1.697
 4942W        W 8993   8.019   6.490   2.759
 4943W        W 8994   1.151  10.438  11.989
 4944W        W 8995  10.439   7.480   0.163
 4945W        W 8996  10.893   1.564   2.433
 4946W        W 8997   9.934   8.951   0.472
 4947W        W 8998   9.622   4.209   9.004
 4948W        W 8999   2.616   1.354  11.252
 4949W        W 9000   4.198  11.013   1.684
 4950W        W 9001   7.009   0.826   3.138
 4951W        W 9002   8.557   8.826   1.709
 4952W        W 9003   1.669   3.101   2.786
 4953W        W 9004   0.007   2.881  10.466
 4954W        W 9005   8.878   7.822  10.622
 4955W        W 9006   5.913  10.435   1.177
 4956W        W 9007   2.825  11.396   2.695
 4957W        W 9008   2.598   2.440   1.289
 4958W        W 9009  10.325   7.412   2.373
 4959W        W 9010   9.335   4.800   2.275
 4960W        W 9011   2.918   5.085   1.202
 4961W        W 9012  10.368   1.656  10.955
 4962W        W 9013  10.894   6.144   3.221
 4963W        W 9014   1.243   4.293   9.398
 4964W        W 9015   1.324   0.367   2.029
 4965W        W 9016   7.220   7.923  11.476
 4966W        W 9017   3.814   8.141   1.931
 4967W        W 9018   1.695   8.121   2.267
 4968W        W 9019   5.889   7.256  11.758
 4969W        W 9020   0.651   3.227   3.502
 4970W        W 9021   2.156   5.832   3.261
 4971W        W 9022  10.295  11.400   2.452
 4972W        W 9023   6.451   0.947  10.421
 4973W        W 9024   6.507   6.230   2.017
 4974W        W 9025  10.133   5.111  11.928
 4975W        W 9026  11.000   4.973  10.798
 4976W        W 9027   8.841   6.513   8.300
 4977W        W 9028   1.757   4.955   0.760
 4978W        W 9029   6.456   5.748   0.424
 4979W        W 9030   6.664   4.943  11.968
 4980W        W 9031   6.235  10.422   1.623
 4981W        W 9032  11.059   0.494   9.899
 4982W        W 9033  10.170   3.762   0.212
 4983W        W 9034   5.220   6.708   2.271
 4984W        W 9035   9.345   5.953   9.507
 4985W        W 9036   0.390   9.028  11.606
 4986W        W 9037   2.301   3.725   0.328
 4987W        W 9038   4.948   9.973   9.221
 4988W        W 9039   9.103   5.506   9.557
 4989W        W 9040   1.730   6.741   9.898
 4990W        W 9041   4.757  11.476  11.564
 4991W        W 9042   7.038   5.543  11.212
 4992W        W 9043   2.501   4.137   2.268
 4993W        W 9044   6.687  11.062   3.548
 4994W        W 9045   7.897   5.916  11.453
 4995W        W 9046   6.735   7.965   0.570
 4996W        W 9047   3.494   7.912   2.302
 4997W        W 9048   8.384   6.059  11.416
 4998W        W 9049  11.422   6.443   9.858
 4999W        W 9050   1.999   2.667   9.413
 5000W        W 9051   7.379   9.703   8.563
 5001W        W 9052   5.793   6.659   1.382
 5002W        W 9053  11.225   2.146   8.958
 5003W        W 9054   8.257  10.580  11.435
 5004W        W 9055   0.166   8.067  11.291
 5005W        W 9056  10.004   5.181   3.504
 5006W        W 9057   0.953   9.082   3.726
 5007W        W 9058   2.878   6.531  11.897
 5008W        W 9059   7.292  10.436  11.342
 5009W        W 9060   3.943   0.190   3.605
 5010W        W 9061   8.037   6.832   1.219
 5011W        W 9062   8.647   4.040   2.693
 5012W        W 9063   3.636  11.230   0.872
 5013W        W 9064   0.694   7.744   2.429
 5014W        W 9065   5.456   9.422   3.672
 5015W        W 9066   0.995   9.608  10.896
 5016W        W 9067   7.391   2.597   9.933
 5017W        W 9068   4.160   6.082   1.671
 5018W        W 9069   7.514  11.103   2.710
 5019W        W 9070   8.574   7.404  10.700
 5020W        W 9071   6.548   6.110   8.216
 5021W        W 9072   2.666   6.465   0.955
 5022W        W 9073   3.276   2.625  11.990
 5023W        W 9074   6.533   8.462   9.188
 5024W        W 9075   2.582  11.108   1.076
 5025W        W 9076   6.738  10.277   2.432
 5026W        W 9077   3.119   1.203   1.050
 5027W        W 9078   8.682  10.302   9.009
 5028W        W 9079   5.448   3.137   9.274
 5029W        W 9080   5.943   5.806  10.515
 5030W        W 9081  10.035   3.691  11.730
 5031W        W 9082  10.014   5.586   9.166
 5032W        W 9083   8.513   2.584  10.114
 5033W        W 9084   5.289   2.141  11.489
 5034W        W 9085   0.566   2.314  10.335
 5035W        W 9086   1.370   9.499  11.554
 5036W        W 9087   6.676   8.387   2.280
 5037W        W 9088   8.157   9.511   3.298
 5038W        W 9089   9.880   8.643   2.829
 5039W        W 9090   2.496   6.671   3.440
 5040W        W 9091   1.369   1.461   1.805
 5041W        W 9092   9.809   9.334   2.151
 5042W        W 9093   5.305   5.116  11.610
 5043W        W 9094   6.703  11.438   1.434
 5044W        W 9095   8.921   8.239   8.163
 5045W        W 9096   2.727   7.908   9.878
 5046W        W 9097   1.710   1.518   2.602
 5047W        W 9098   5.787   9.137   0.534
 5048W        W 9099  10.918   5.560  11.883
 5049W        W 9100   1.474   4.537   9.017
 5050W        W 9101   5.590   6.147  10.675
 5051W        W 9102  11.233  10.765   9.482
 5052W        W 9103   9.344   1.759   1.102
 5053W        W 9104   5.260   1.395   8.603
 5054W        W 9105   9.633   3.790   9.503
 5055W        W 9106   2.513   2.926  10.522
 5056W        W 9107   3.729   8.457   9.250
 5057W        W 9108  11.107   1.498   0.954
 5058W        W 9109   8.619  10.809  10.490
 5059W        W 9110   5.402   7.744   8.241
 5060W        W 9111   1.393   5.696   2.752
 5061W        W 9112   7.567  10.927   1.315
 5062W        W 9113   0.468   1.478   0.288
 5063W        W 9114   4.512   1.270  11.989
 5064W        W 9115   0.256   7.512   2.505
 5065W        W 9116   2.473   5.302   0.516
 5066W        W 9117   7.804   5.501  11.716
 5067W        W 9118   7.597   8.917  10.181
 5068W        W 9119   3.055   1.831  10.050
 5069W        W 9120   3.998   0.465   1.956
 5070W        W 9121   7.485   0.671  11.609
 5071W        W 9122   4.078   4.825   0.806
 5072W        W 9123   9.613   1.366   2.869
 5073W        W 9124   6.644   7.544   9.178
 5074W        W 9125   3.287   7.782   8.936
 5075W        W 9126  11.480   0.792  10.818
 5076W        W 9127   1.425   5.092   9.006
 5077W        W 9128   7.124  10.433   3.343
 5078W        W 9129   1.336   2.303   2.893
 5079W        W 9130   8.786   3.139  10.990
 5080W        W 9131   1.762   7.634  11.860
 5081W        W 9132   4.074   2.207   2.193
 5082W        W 9133  10.109   1.722  11.400
 5083W        W 9134   3.320   8.598   2.743
 5084W        W 9135   7.833   7.424   3.249
 5085W        W 9136   4.590   4.396  11.312
 5086W        W 9137  11.300   9.248  11.286
 5087W        W 9138   8.555   7.185  10.230
 5088W        W 9139   3.453   7.071  10.978
 5089W        W 9140   1.944   0.250  10.002
 5090W        W 9141   2.932  10.041   0.489
 5091W        W 9142   0.523  10.977   8.990
 5092W        W 9143   1.781   6.444   2.453
 5093W        W 9144   3.605   8.872  10.003
 5094W        W 9145   8.521   2.822   3.145
 5095W        W 9146   6.995   0.710  11.785
 5096W        W 9147   9.348  11.167  11.690
 5097W        W 9148   9.321  11.115   9.348
 5098W        W 9149   2.656   5.563   9.263
 5099W        W 9150   1.383   7.895  10.403
 5100W        W 9151   4.424   9.129   8.529
 5101W        W 9152  11.125   9.603   3.085
 5102W        W 9153   0.791   6.605   0.293
 5103W        W 9154   3.801   8.015   0.515
 5104W        W 9155   2.465   9.612  11.144
 5105W        W 9156   8.997   6.297   1.797
 5106W        W 9157   4.341   7.125   2.606
 5107W        W 9158  10.763   8.237   3.153
 5108W        W 9159   6.629   9.403   0.562
 5109W        W 9160   1.358   0.475   0.929
 5110W        W 9161   4.538   3.022   1.926
 5111W        W 9162   8.593   3.621   8.389
 5112W        W 9163   4.484   5.996  10.651
 5113W        W 9164   4.494   1.461   3.312
 5114W        W 9165   3.434   9.117   2.785
 5115W        W 9166   0.816   5.285   3.134
 5116W        W 9167   0.350  11.056   3.662
 5117W        W 9168   0.239   9.442  10.430
 5118W        W 9169   1.796  10.881   2.631
 5119W        W 9170   1.988   3.179   3.395
 5120W        W 9171  11.445  10.805   2.326
 5121W        W 9172   0.380   5.415  11.652
 5122W        W 9173   1.763  11.351   1.942
 5123W        W 9174   3.763   7.621   1.876
 5124W        W 9175   7.998   6.933  11.524
 5125W        W 9176   4.590   4.375   1.697
 5126W        W 9177  10.850   0.984  10.067
 5127W        W 9178  10.624   2.252  11.870
 5128W        W 9179   5.477   5.216  10.215
 5129W        W 9180   7.451   8.856  10.668
 5130W        W 9181   4.035   3.105  10.522
 5131W        W 9182   0.768   4.336   9.073
 5132W        W 9183   3.227   6.676   9.362
 5133W        W 9184   4.490   3.760   2.325
 5134W        W 9185  10.891   2.103   3.567
 5135W        W 9186   6.527   9.798   2.370
 5136W        W 9187   0.909   1.582   3.256
 5137W        W 9188   0.945   1.908  11.500
 5138W        W 9189   1.399   9.923  11.260
 5139W        W 9190   2.646   3.792   9.939
 5140W        W 9191   3.390   3.203  11.972
 5141W        W 9192   0.990   7.917   2.861
 5142W        W 9193   8.177   4.606   3.123
 5143W        W 9194   6.006   2.814   8.576
 5144W        W 9195  10.413   6.975   3.180
 5145W        W 9196   6.196   1.793   0.268
 5146W        W 9197  11.466   9.218   1.776
 5147W        W 9198   0.425   9.575   2.471
 5148W        W 9199   5.004   4.294   3.583
 5149W        W 9200   1.568   1.917   1.700
 5150W        W 9201   2.236   0.736   1.095
 5151W        W 9202   5.246   1.272   1.628
 5152W        W 9203   3.036   5.359   3.371
 5153W        W 9204   6.045   7.424  10.784
 5154W        W 9205  10.844   2.778  10.061
 5155W        W 9206   6.171   2.141  11.870
 5156W        W 9207   4.602   4.842  11.960
 5157W        W 9208  10.564   1.327   3.146
 5158W        W 9209   0.898   8.441   1.248
 5159W        W 9210   5.708   0.947   9.403
 5160W        W 9211   6.891   4.073   1.841
 5161W        W 9212   3.599   5.202   8.346
 5162W        W 9213   8.844  11.392   1.146
 5163W        W 9214   3.710   7.451  11.753
 5164W        W 9215   9.055   2.265  10.987
 5165W        W 9216   9.968   9.824   9.300
 5166W        W 9217   4.201   5.178   1.590
 5167W        W 9218   2.492  10.400   2.566
 5168W        W 9219   1.295   4.729   0.694
 5169W        W 9220   1.245   8.138   1.037
 5170W        W 9221   1.893   4.071  10.124
 5171W        W 9222   2.697   4.641   2.436
 5172W        W 9223   7.906   8.807  11.574
 5173W        W 9224   8.558   5.743   2.606
 5174W        W 9225  10.255   7.024   0.941
 5175W        W 9226   0.908   4.177   3.514
 5176W        W 9227   0.930   5.513   2.522
 5177W        W 9228   8.763   6.108   1.013
 5178W        W 9229   1.692   4.171   2.833
 5179W        W 9230   2.147   9.320   2.873
 5180W        W 9231   5.118   7.024   0.215
 5181W        W 9232  10.737   2.669   1.659
 5182W        W 9233   9.518   5.757   9.032
 5183W        W 9234  10.821  10.425   8.765
 5184W        W 9235   3.608   4.206   1.458
 5185W        W 9236   0.415   5.471  10.771
 5186W        W 9237   6.082   7.626   1.241
 5187W        W 9238   9.706   1.292   3.397
 5188W        W 9239   3.349   4.296   9.897
 5189W        W 9240  10.967   1.094   3.335
 5190W        W 9241   8.110   1.913   9.108
 5191W        W 9242   6.057   0.887   3.487
 5192W        W 9243   0.699  10.862  10.312
 5193W        W 9244   6.954   9.609   8.862
 5194W        W 9245  11.108   2.476   2.642
 5195W        W 9246   9.233   5.338   9.100
 5196W        W 9247   0.936   4.152  10.773
 5197W        W 9248   9.551  10.377   2.390
 5198W        W 9249   3.846   6.458  11.299
 5199W        W 9250   1.825   7.538  10.934
 5200W        W 9251   3.697   6.119   2.000
 5201W        W 9252   2.670   1.765   9.279
 5202W        W 9253   8.919   4.158  10.179
 5203W        W 9254   4.944   3.071   9.185
 5204W        W 9255   6.389   6.240   0.527
 5205W        W 9256   8.634   1.882   9.042
 5206W        W 9257   9.444  10.840   2.155
 5207W        W 9258   9.118   5.208   0.025
 5208W        W 9259   4.651   9.485   0.261
 5209W        W 9260   3.399   7.041   2.310
 5210W        W 9261   2.004   6.344   9.719
 5211W        W 9262   6.779  11.122   0.919
 5212W        W 9263   3.994   1.003   9.931
 5213W        W 9264   6.119   0.559   8.795
 5214W        W 9265   9.130   6.611  11.680
 5215W        W 9266   9.369   1.302   2.067
 5216W        W 9267   8.975   8.525   8.586
 5217W        W 9268   6.603   6.800   3.401
 5218W        W 9269  10.412   5.204   0.434
 5219W        W 9270   0.809   7.130  10.515
 5220W        W 9271   2.230   5.583  10.588
 5221W        W 9272   1.525   4.973   9.855
 5222W        W 9273   0.290   2.124  11.481
 5223W        W 9274   9.175  11.465   2.994
 5224W        W 9275   7.980   1.193   0.155
 5225W        W 9276   3.367   7.074   1.290
 5226W        W 9277   3.556   8.459   1.136
 5227W        W 9278   8.942   7.309  11.544
 5228W        W 9279   2.474   4.250   0.100
 5229W        W 9280   0.861   0.331   1.309
 5230W        W 9281   5.302   1.124   9.065
 5231W        W 9282   7.957   9.348  10.881
 5232W        W 9283   1.250   8.654  11.081
 5233W        W 9284   2.625   0.110   2.227
 5234W        W 9285   3.169  10.827   0.146
 5235W        W 9286   0.639   5.480   0.436
 5236W        W 9287   1.100   1.828   9.502
 5237W        W 9288   2.088   2.908  10.820
 5238W        W 9289   8.484   4.928   2.320
 5239W        W 9290   6.633   0.421  11.199
 5240W        W 9291   9.364   9.862  11.977
 5241W        W 9292   9.692   8.545   1.144
 5242W        W 9293  11.146   8.220  10.682
 5243W        W 9294  11.046   3.972  10.976
 5244W        W 9295   9.319   2.179  11.523
 5245W        W 9296   3.202   4.775   2.513
 5246W        W 9297  11.220   0.475   0.083
 5247W        W 9298   1.489   2.733   9.441
 5248W        W 9299   9.815   2.142  11.500
 5249W        W 9300   7.598   4.126  10.171
 5250W        W 9301   0.644   7.599   3.033
 5251W        W 9302   0.971   2.808  11.345
 5252W        W 9303   6.091   2.041  10.839
 5253W        W 9304   7.236   1.499  11.338
 5254W        W 9305   1.794   8.174   3.112
 5255W        W 9306   3.938   2.801   1.155
 5256W        W 9307   8.525  10.021  11.812
 5257W        W 9308  10.398   1.293   1.818
 5258W        W 9309   1.721   0.027   0.934
 5259W        W 9310   9.253   7.612   1.555
 5260W        W 9311   9.563   8.953   9.858
 5261W        W 9312   9.118   5.417   1.888
 5262W        W 9313   3.709   3.086   9.597
 5263W        W 9314   1.709   0.696   3.061
 5264W        W 9315   7.088   6.318  10.152
 5265W        W 9316   5.120   0.741  10.758
 5266W        W 9317   2.849   2.807   1.512
 5267W        W 9318   1.331   8.925   9.527
 5268W        W 9319   4.405   9.957  11.670
 5269W        W 9320   9.369   3.868   9.953
 5270W        W 9321   2.832   0.003   1.266
 5271W        W 9322  10.768   5.377  11.023
 5272W        W 9323   1.335   7.570   0.369
 5273W        W 9324   0.043   4.790  11.034
 5274W        W 9325  11.055   3.525  11.788
 5275W        W 9326   1.223   4.681   2.338
 5276W        W 9327   4.956  10.394   9.541
 5277W        W 9328   4.290   7.163   3.124
 5278W        W 9329   3.425   6.672   0.728
 5279W        W 9330   5.722   8.534  11.336
 5280W        W 9331   9.635   5.129  11.945
 5281W        W 9332   3.404   0.238  10.951
 5282W        W 9333   6.457   3.569   2.385
 5283W        W 9334   9.118   2.439  11.916
 5284W        W 9335   2.736  10.289   9.644
 5285W        W 9336   4.849  10.097  11.441
 5286W        W 9337   8.887   2.945   1.788
 5287W        W 9338   2.877   9.428  10.858
 5288W        W 9339  11.482   1.136   3.325
 5289W        W 9340   3.454   8.836  11.083
 5290W        W 9341   0.385   4.469  10.704
 5291W        W 9342   6.197   8.663   1.178
 5292W        W 9343   2.296   5.660  10.102
 5293W        W 9344   0.475   1.785   1.394
 5294W        W 9345   0.788   6.566   9.523
 5295W        W 9346   0.926   1.403   2.259
 5296W        W 9347  10.778   4.172  11.829
 5297W        W 9348   1.210   9.743  10.331
 5298W        W 9349   4.338   6.542  11.312
 5299W        W 9350   9.157   7.113   2.361
 5300W        W 9351   1.219   6.258   9.467
 5301W        W 9352   3.360  11.289  10.162
 5302W        W 9353   5.118   0.300  11.009
 5303W        W 9354  11.377   1.675   3.140
 5304W        W 9355   1.421   3.132   2.347
 5305W        W 9356  10.830   7.405   0.508
 5306W        W 9357  10.748   6.568   0.400
 5307W        W 9358   5.164   9.924   1.699
 5308W        W 9359   9.478   4.878  11.057
 5309W        W 9360   7.006   0.984   0.802
 5310W        W 9361   2.065   1.529  11.094
 5311W        W 9362   6.178   0.886   1.924
 5312W        W 9363   7.945   1.377  10.905
 5313W        W 9364   1.596   4.183  10.553
 5314W        W 9365  10.802   8.632   2.725
 5315W        W 9366   5.288   0.676   0.301
 5316W        W 9367   3.595   9.641   1.575
 5317W        W 9368   3.357   6.683  11.857
 5318W        W 9369   8.378   1.681  10.810
 5319W        W 9370   1.505   4.507  11.325
 5320W        W 9371  10.394   1.563  11.820
 5321W        W 9372   5.243   0.348   9.996
 5322W        W 9373   9.875   2.678   9.866
 5323W        W 9374   6.622   4.059   0.998
 5324W        W 9375   1.340   6.078  10.359
 5325W        W 9376   7.679   2.153  10.085
 5326W        W 9377  10.607  11.067   2.236
 5327W        W 9378   9.751   5.267  10.843
 5328W        W 9379   0.020   5.563   2.777
 5329W        W 9380   5.803   6.091   2.685
 5330W        W 9381   6.835   9.791   3.652
 5331W        W 9382   3.903   4.204   2.300
 5332W        W 9383   9.660   0.111   2.805
 5333W        W 9384   4.686   7.359   1.986
 5334W        W 9385   3.870   0.580   0.444
 5335W        W 9386   8.712   7.386  11.995
 5336W        W 9387   5.132   3.491   0.017
 5337W        W 9388   1.415   7.558   9.476
 5338W        W 9389  11.365   5.568  10.229
 5339W        W 9390   2.380   2.995   9.395
 5340W        W 9391   8.992   1.445   0.249
 5341W        W 9392   8.018   7.434  11.587
 5342W        W 9393   8.093   8.754   3.000
 5343W        W 9394   7.675   1.520  10.496
 5344W        W 9395   5.696   2.366  11.280
 5345W        W 9396   7.974   1.893  11.058
 5346W        W 9397   1.401   0.050   0.498
 5347W        W 9398   6.646   4.997  10.570
 5348W        W 9399   1.016   1.977  10.343
 5349W        W 9400   1.741   3.511   3.091
 5350W        W 9401   0.062   9.000   0.824
 5351W        W 9402  10.128   4.227  11.014
 5352W        W 9403   2.868   8.231   8.159
 5353W        W 9404   2.033   5.113   0.343
 5354W        W 9405  10.406   1.462   2.298
 5355W        W 9406   1.367   0.265   2.544
 5356W        W 9407   0.060   5.252   8.525
 5357W        W 9408   2.695   0.888  11.883
 5358W        W 9409   2.742   0.584   2.418
 5359W        W 9410   4.705   7.942  10.829
 5360W        W 9411   0.469   4.514  11.208
 5361W        W 9412   0.964   5.783   3.008
 5362W        W 9413   9.065  10.885   1.784
 5363W        W 9414   3.768  11.491   2.777
 5364W        W 9415   6.433   1.515  11.885
 5365W        W 9416   6.637  10.443   8.930
 5366W        W 9417   4.307   4.675   9.143
 5367W        W 9418   7.190   3.359  10.559
 5368W        W 9419   9.430  10.250   0.869
 5369W        W 9420   9.070  10.774   9.045
 5370W        W 9421   1.903  11.262   9.399
 5371W        W 9422  10.241   9.626  11.972
 5372W        W 9423   0.395   4.615   0.690
 5373W        W 9424   6.077   4.589   2.662
 5374W        W 9425   8.048  10.041   9.578
 5375W        W 9426  11.421   0.116  10.095
 5376W        W 9427   4.414   2.775  10.623
 5377W        W 9428   2.837  10.778   9.416
 5378W        W 9429   5.510   4.598   9.634
 5379W        W 9430  10.334   2.887  10.007
 5380W        W 9431   5.076   0.345  11.961
 5381W        W 9432   7.516   4.017   1.073
 5382W        W 9433   6.803   7.117  10.411
 5383W        W 9434   4.601   4.641   2.515
 5384W        W 9435   7.124   5.293  10.357
 5385W        W 9436   6.229   3.862  11.447
 5386W        W 9437   2.921   6.617  11.397
 5387W        W 9438   9.950   9.583   1.719
 5388W        W 9439   9.027   8.941   8.885
 5389W        W 9440   8.976  11.474  11.949
 5390W        W 9441   7.518   9.692   0.500
 5391W        W 9442   2.666   1.429   0.849
 5392W        W 9443   1.191   8.375   0.257
 5393W        W 9444   8.097   2.376  11.014
 5394W        W 9445   1.150   9.149  11.048
 5395W        W 9446   5.708   1.462   1.442
 5396W        W 9447   6.210   3.794   3.318
 5397W        W 9448   4.155   8.234  10.754
 5398W        W 9449   8.096   6.758   9.581
 5399W        W 9450   3.872   8.650   1.848
 5400W        W 9451   8.965  11.472   3.498
 5401W        W 9452   4.154   8.860   1.233
 5402W        W 9453   6.102   1.901  10.362
 5403W        W 9454   8.649   9.540   3.475
 5404W        W 9455   3.633   7.498   9.748
 5405W        W 9456   3.552   0.979   2.682
 5406W        W 9457   1.204  10.803  10.284
 5407W        W 9458   8.878  10.371   1.135
 5408W        W 9459  11.329   4.678   2.168
 5409W        W 9460   5.244   2.744   8.508
 5410W        W 9461   4.274   5.207   1.083
 5411W        W 9462   1.716   6.447   3.031
 5412W        W 9463   0.237  11.455   9.318
 5413W        W 9464   3.243   1.268  10.511
 5414W        W 9465   9.995   8.623   0.068
 5415W        W 9466   3.368  10.993   8.347
 5416W        W 9467   5.419   9.511   1.451
 5417W        W 9468   5.513   8.976  10.361
 5418W        W 9469   6.053   4.514   9.735
 5419W        W 9470   2.906   8.115  11.468
 5420W        W 9471   8.476  11.246   8.747
 5421W        W 9472   0.826   2.355  10.802
 5422W        W 9473   9.462   4.547   0.466
 5423W        W 9474   2.436   3.203   2.267
 5424W        W 9475  10.025   2.275   2.364
 5425W        W 9476   7.293   6.115   8.807
 5426W        W 9477  10.677   0.291   2.695
 5427W        W 9478   7.556   0.449   1.451
 5428W        W 9479   7.638   9.962   9.291
 5429W        W 9480   3.656   2.693   2.858
 5430W        W 9481  10.419   5.966   8.988
 5431W        W 9482   0.353   3.719   9.393
 5432W        W 9483   8.738   6.345  10.024
 5433W        W 9484  10.987   4.615   9.908
 5434W        W 9485   5.022   4.771   0.653
 5435W        W 9486   3.830   9.890   3.038
 5436W        W 9487   9.032   3.785   2.899
 5437W        W 9488   2.134   0.949   2.650
 5438W        W 9489   7.043   5.487   1.558
 5439W        W 9490   0.034   6.133   0.545
 5440W        W 9491   4.673   9.865   3.122
 5441W        W 9492  10.687   3.101  11.536
 5442W        W 9493   9.901   2.256   9.570
 5443W        W 9494   3.133   4.252   8.905
 5444W        W 9495  10.045   0.367  11.356
 5445W        W 9496   8.048   2.643   3.318
 5446W        W 9497   3.950   5.256  11.092
 5447W        W 9498   1.164   4.247  10.309
 5448W        W 9499   0.479   1.220   2.088
 5449W        W 9500   4.321   0.243  11.530
 5450W        W 9501   3.362   0.330  10.424
 5451W        W 9502   5.874   0.541   1.734
 5452W        W 9503   5.274   7.907   2.220
 5453W        W 9504   4.644   8.522  11.926
 5454W        W 9505   8.436   7.171   1.157
 5455W        W 9506   9.482   6.547   2.587
 5456W        W 9507   8.297   3.819   9.149
 5457W        W 9508   3.285   7.922  11.201
 5458W        W 9509   8.269   3.176   8.490
 5459W        W 9510   7.446   6.123   2.135
 5460W        W 9511  10.839   5.681   9.038
 5461W        W 9512   5.996   9.148   9.488
 5462W        W 9513   5.737  11.006  11.957
 5463W        W 9514   8.970   9.986   9.576
 5464W        W 9515   5.259   1.615   9.771
 5465W        W 9516   8.994   6.435   1.311
 5466W        W 9517   4.778   9.921   0.032
 5467W        W 9518   7.729   7.592  11.978
 5468W        W 9519   0.702   2.226   1.210
 5469W        W 9520  10.932   4.302   9.336
 5470W        W 9521  10.803  11.084   8.553
 5471W        W 9522   1.290   5.239   0.744
 5472W        W 9523   6.995   9.838   1.723
 5473W        W 9524   8.091   5.423  11.297
 5474W        W 9525   1.183   5.237  10.111
 5475W        W 9526   2.718   3.276   0.738
 5476W        W 9527   7.429  10.553   1.661
 5477W        W 9528  10.002  10.440  10.806
 5478W        W 9529   6.272   6.666   2.185
 5479W        W 9530  10.272   9.195   2.288
 5480W        W 9531   2.404   2.265   1.814
 5481W        W 9532   8.859   7.637   0.785
 5482W        W 9533  10.958   4.738   1.176
 5483W        W 9534   9.813  10.982  11.781
 5484W        W 9535  11.127   2.260  11.956
 5485W        W 9536   3.905   1.592  11.487
 5486W        W 9537  11.461   4.252   8.555
 5487W        W 9538   7.588   7.119  11.776
 5488W        W 9539   5.945   2.766   1.871
 5489W        W 9540   1.810  10.877   2.123
 5490W        W 9541   6.116  10.552   3.674
 5491W        W 9542   8.778   8.903  11.613
 5492W        W 9543  10.491   4.103   3.616
 5493W        W 9544   4.607   0.453  10.459
 5494W        W 9545   5.245   0.863   2.432
 5495W        W 9546   7.370   7.634   3.213
 5496W        W 9547   9.670   2.607   2.813
 5497W        W 9548   1.777   0.442   8.479
 5498W        W 9549   8.060   6.834  10.375
 5499W        W 9550   9.326   1.090   8.554
 5500W        W 9551   6.905   2.478  11.530
 5501W        W 9552   8.639   0.767  10.672
 5502W        W 9553   0.731   7.674   8.875
 5503W        W 9554   2.211   3.634  11.806
 5504W        W 9555   9.448  10.823  10.813
 5505W        W 9556   8.876   4.337   1.720
 5506W        W 9557   4.839   7.185   8.974
 5507W        W 9558   5.327   8.296   2.613
 5508W        W 9559   0.484   3.193   9.279
 5509W        W 9560  10.536   6.119   0.342
 5510W        W 9561  10.927   6.656   9.115
 5511W        W 9562   0.961   6.149   0.440
 5512W        W 9563   5.856   1.380   0.239
 5513W        W 9564   1.337   8.948   1.498
 5514W        W 9565   7.725   2.486   1.261
 5515W        W 9566   2.712   3.019   8.808
 5516W        W 9567   9.472   9.162   0.351
 5517W        W 9568   3.666   0.868  11.839
 5518W        W 9569  10.076   5.154   0.843
 5519W        W 9570  11.079   7.366   1.981
 5520W        W 9571   1.607   8.084   8.861
 5521W        W 9572   1.571   2.893  11.939
 5522W        W 9573   4.155   1.269   9.500
 5523W        W 9574   6.071   3.262  11.597
 5524W        W 9575   6.177   6.739   9.382
 5525W        W 9576  11.359   8.893   0.319
 5526W        W 9577   4.094   9.282   0.872
 5527W        W 9578   8.061   5.227   2.353
 5528W        W 9579   6.881   1.668  11.701
 5529W        W 9580   5.293   7.164  10.430
 5530W        W 9581   9.085   8.169   3.181
 5531W        W 9582   7.222   3.796  11.331
 5532W        W 9583   7.123   8.960   1.247
 5533W        W 9584   0.382   5.038   9.793
 5534W        W 9585   9.602   8.884   1.952
 5535W        W 9586   8.433   0.305  10.859
 5536W        W 9587   3.674   4.585   1.078
 5537W        W 9588   6.155   0.304   9.833
 5538W        W 9589   1.521   5.655   0.937
 5539W        W 9590   4.436   0.845   9.610
 5540W        W 9591   3.715   3.616   0.253
 5541W        W 9592   8.776  10.303   0.628
 5542W        W 9593   0.729   4.652   8.651
 5543W        W 9594   2.657   6.433   1.868
 5544W        W 9595   0.735   6.550   8.501
 5545W        W 9596   3.155  11.500   1.862
 5546W        W 9597   9.443   9.741   0.691
 5547W        W 9598   4.501   4.339   1.212
 5548W        W 9599   8.227   3.219   2.603
 5549W        W 9600   7.834   9.069   2.077
 5550W        W 9601   8.583   8.684   0.422
 5551W        W 9602   0.817   8.349  11.820
 5552W        W 9603   9.601   5.547  10.379
 5553W        W 9604   1.287   8.298   3.188
 5554W        W 9605   5.555  10.813  10.098
 5555W        W 9606   5.068   7.633  10.586
 5556W        W 9607   2.025   2.504   8.533
 5557W        W 9608   7.711   8.589   1.379
 5558W        W 9609   5.100  10.487   2.804
 5559W        W 9610  11.018   6.643   0.812
 5560W        W 9611   2.326   2.286  11.973
 5561W        W 9612   9.966   7.636   2.796
 5562W        W 9613   3.674   1.697   8.851
 5563W        W 9614  10.401   7.106  11.086
 5564W        W 9615   2.315   0.952   1.645
 5565W        W 9616   2.595  11.067  11.348
 5566W        W 9617   5.565   0.874  10.991
 5567W        W 9618   4.426   9.860   9.253
 5568W        W 9619   6.458   6.576   0.156
 5569W        W 9620  10.845   3.042   2.008
 5570W        W 9621  10.443   1.122   9.327
 5571W        W 9622   5.971   5.767   9.230
 5572W        W 9623   2.226   2.342   2.815
 5573W        W 9624   8.089   7.835   2.525
 5574W        W 9625   7.496  10.984  12.000
 5575W        W 9626  11.342   8.538   2.779
 5576W        W 9627   4.915   3.984  11.203
 5577W        W 9628   5.598   1.944   1.512
 5578W        W 9629   0.356   2.640   2.814
 5579W        W 9630   7.663  11.354   9.938
 5580W        W 9631   7.743   8.929  11.090
 5581W        W 9632   5.962   3.976   2.361
 5582W        W 9633   5.220   7.449   0.482
 5583W        W 9634   8.202   1.944   1.732
 5584W        W 9635   8.670   8.092   8.600
 5585W        W 9636   5.068   9.365   0.028
 5586W        W 9637   7.010   4.090   3.438
 5587W        W 9638   6.493   7.324   1.452
 5588W        W 9639   6.210   0.432   3.300
 5589W        W 9640   0.382   3.584   0.169
 5590W        W 9641   7.779   7.126  10.706
 5591W        W 9642   0.078   9.776   0.253
 5592W        W 9643   9.066   2.786   0.325
 5593W        W 9644   8.168   1.638   0.389
 5594W        W 9645   2.183   3.893   9.722
 5595W        W 9646   9.598   9.513   8.556
 5596W        W 9647   3.336   8.291   8.433
 5597W        W 9648   5.448   4.399   9.146
 5598W        W 9649   0.790  10.578  11.139
 5599W        W 9650   8.947   8.594  10.229
 5600W        W 9651   5.616   7.553   1.415
 5601W        W 9652   4.277   4.065  10.739
 5602W        W 9653   4.806   1.729   9.976
 5603W        W 9654   8.564   6.704  10.360
 5604W        W 9655   4.050   9.091  10.187
 5605W        W 9656   3.815   5.285   0.767
 5606W        W 9657   8.913   9.961   3.486
 5607W        W 9658   3.695   5.892  11.646
 5608W        W 9659  10.946   3.140   3.453
 5609W        W 9660   4.785   2.599   2.741
 5610W        W 9661   4.056   0.902   2.668
 5611W        W 9662  10.306  10.519   1.057
 5612W        W 9663   3.845   4.887  11.819
 5613W        W 9664   8.600   4.469  10.864
 5614W        W 9665  10.831   0.375   1.843
 5615W        W 9666   3.694   9.458  11.749
 5616W        W 9667  10.249  10.754   9.589
 5617W        W 9668   7.886   5.137   8.684
 5618W        W 9669   9.556   1.156  10.813
 5619W        W 9670   0.370  11.376  11.094
 5620W        W 9671   9.526   0.216   1.405
 5621W        W 9672  11.394   8.131   9.298
 5622W        W 9673   6.023   8.978  10.430
 5623W        W 9674   0.409   0.849   1.111
 5624W        W 9675   6.895   1.650   9.809
 5625W        W 9676   1.295   4.084  11.526
 5626W        W 9677   9.820   7.503   0.801
 5627W        W 9678   7.883   2.724  10.003
 5628W        W 9679   2.685   8.301  10.636
 5629W        W 9680   9.369   6.510   8.265
 5630W        W 9681  11.318   0.003   2.797
 5631W        W 9682   3.740  11.287   3.287
 5632W        W 9683   2.993   7.813   2.256
 5633W        W 9684   3.706   2.936   2.401
 5634W        W 9685   3.699   6.218   3.516
 5635W        W 9686  11.460   9.869   1.285
 5636W        W 9687   7.726   5.177   0.484
 5637W        W 9688   3.147   2.438   1.298
 5638W        W 9689   0.790   7.954   9.745
 5639W        W 9690   0.517   5.791   1.882
 5640W        W 9691   9.547   3.155   1.355
 5641W        W 9692   5.968   8.286   0.228
 5642W        W 9693   2.277   9.062   1.960
 5643W        W 9694   4.601  10.321   9.064
 5644W        W 9695   7.890  11.440   2.893
 5645W        W 9696   9.431   8.163   0.359
 5646W        W 9697   4.198   6.105  11.074
 5647W        W 9698   1.341   6.998  10.561
 5648W        W 9699   8.448   6.236  10.540
 5649W        W 9700   9.336   4.970  11.575
 5650W        W 9701   0.931   3.741   0.962
 5651W        W 9702   8.014   9.033   3.425
 5652W        W 9703   0.438   9.305   9.023
 5653W        W 9704   8.699   1.215   3.095
 5654W        W 9705   8.541   4.742   9.040
 5655W        W 9706   6.455   6.220  10.948
 5656W        W 9707   2.931   4.710  11.427
 5657W        W 9708   2.274   0.546   9.525
 5658W        W 9709   6.584  11.218   2.499
 5659W        W 9710   5.629   5.144   1.769
 5660W        W 9711   6.026   6.217   8.188
 5661W        W 9712   9.866  10.578   1.973
 5662W        W 9713   3.229   3.776   9.149
 5663W        W 9714   1.145   3.270   1.090
 5664W        W 9715   9.100  11.255   9.988
 5665W        W 9716   9.620   2.889  10.511
 5666W        W 9717   5.071   3.241   0.498
 5667W        W 9718   3.361   9.265   2.291
 5668W        W 9719   5.084   7.790   0.115
 5669W        W 9720   3.085   4.143  10.800
 5670W        W 9721   3.633   1.270   0.694
 5671W        W 9722   6.574   4.126   3.148
 5672W        W 9723   7.552   0.324  10.197
 5673W        W 9724   3.608  10.532  11.845
 5674W        W 9725   9.071   2.744   1.275
 5675W        W 9726   3.823  10.857   2.047
 5676W        W 9727   6.140   9.951   1.415
 5677W        W 9728   5.246   7.938   0.893
 5678W        W 9729   7.851   1.454   9.199
 5679W        W 9730   3.383   7.685   0.067
 5680W        W 9731   7.693   1.146  11.718
 5681W        W 9732   9.901  10.734   0.249
 5682W        W 9733   7.286   8.073   9.501
 5683W        W 9734   7.614   9.747  10.783
 5684W        W 9735   3.334   5.249   1.964
 5685W        W 9736   8.415   4.712  10.442
 5686W        W 9737   3.112   0.612   2.770
 5687W        W 9738  10.610   2.328   2.612
 5688W        W 9739  10.050   0.885   9.628
 5689W        W 9740  10.219   9.372   9.524
 5690W        W 9741   9.460   2.672   3.307
 5691W        W 9742   7.395   9.082  11.444
 5692W        W 9743   8.056   3.352   9.170
 5693W        W 9744   5.806   5.541   1.450
 5694W        W 9745   2.118   5.321   3.444
 5695W        W 9746   0.710   5.706   3.434
 5696W        W 9747   4.078   1.432  11.028
 5697W        W 9748   2.663   4.148   1.767
 5698W        W 9749   5.553   8.258   3.208
 5699W        W 9750   6.600  10.043   8.161
 5700W        W 9751   3.356   1.922   1.298
 5701W        W 9752   0.998  10.973   0.851
 5702W        W 9753   6.677   6.716   2.893
 5703W        W 9754   3.872   4.374   0.638
 5704W        W 9755   2.308   0.039   9.562
 5705W        W 9756   0.084  11.363   3.254
 5706W        W 9757   9.161   6.632   9.995
 5707W        W 9758   7.926   4.153   2.187
 5708W        W 9759   9.093   4.262   3.109
 5709W        W 9760   3.237   9.894   1.817
 5710W        W 9761   2.690   6.639   2.382
 5711W        W 9762  10.422   7.071  10.551
 5712W        W 9763   6.749   2.064   2.820
 5713W        W 9764   2.698   9.046  11.484
 5714W        W 9765   4.435   6.781   8.620
 5715W        W 9766   2.111   8.603  11.735
 5716W        W 9767   7.699   3.772  11.523
 5717W        W 9768  10.418   7.606  11.248
 5718W        W 9769   4.397   0.742   1.728
 5719W        W 9770   3.903   4.412  10.556
 5720W        W 9771  10.253  10.389   1.554
 5721W        W 9772   0.100   0.959   1.871
 5722W        W 9773   2.168   7.470   0.999
 5723W        W 9774   1.147   0.221  10.679
 5724W        W 9775  11.307   1.259   1.385
 5725W        W 9776   3.470   9.642   2.796
 5726W        W 9777   3.574   2.320   2.518
 5727W        W 9778   7.653   0.191   9.167
 5728W        W 9779   1.750   1.365   3.489
 5729W        W 9780   3.201   5.702  10.985
 5730W        W 9781   6.964   4.643   0.278
 5731W        W 9782  10.980   0.229   3.121
 5732W        W 9783   4.311   8.667  11.531
 5733W        W 9784   1.223   0.619  10.366
 5734W        W 9785  10.011   1.889  11.899
 5735W        W 9786   5.625   3.252   9.829
 5736W        W 9787   2.524   8.577   8.319
 5737W        W 9788   1.295   1.071  10.612
 5738W        W 9789  10.961   3.303   2.880
 5739W        W 9790   3.966   8.365   1.398
 5740W        W 9791   8.682   7.887  11.908
 5741W        W 9792   9.306   1.779   2.954
 5742W        W 9793   9.444   4.924   0.981
 5743W        W 9794   1.917   3.655   8.882
 5744W        W 9795  11.397   8.865   1.417
 5745W        W 9796   4.227   9.970   0.860
 5746W        W 9797   2.748   1.660   0.214
 5747W        W 9798   7.219   3.838  10.299
 5748W        W 9799   7.720   8.002  11.632
 5749W        W 9800   3.144   3.689   1.832
 5750W        W 9801   5.206   9.071   9.047
 5751W        W 9802  10.641   7.698  11.701
 5752W        W 9803   2.753  10.456   8.738
 5753W        W 9804   0.050   7.515  11.358
 5754W        W 9805   0.260   1.170  11.244
 5755W        W 9806  10.874  11.270   3.338
 5756W        W 9807   5.765   1.494   8.542
 5757W        W 9808   3.286   1.359   9.294
 5758W        W 9809   6.028   6.547   2.657
 5759W        W 9810  10.945   6.252   0.047
 5760W        W 9811   3.867   3.871  10.939
 5761W        W 9812  11.368   7.187   9.383
 5762W        W 9813   0.176   1.425  10.368
 5763W        W 9814   0.793   0.820   2.161
 5764W        W 9815   1.047   6.078  11.336
 5765W        W 9816   3.168   4.953   0.396
 5766W        W 9817   0.673   8.408   0.319
 5767W        W 9818   6.707  11.358   0.364
 5768W        W 9819   9.021   0.869   0.978
 5769W        W 9820  11.285   1.113   9.562
 5770W        W 9821   0.892   4.203   2.242
 5771W        W 9822   8.114   9.229   2.835
 5772W        W 9823   9.477   2.110   1.458
 5773W        W 9824   1.247   7.558  11.868
 5774W        W 9825   2.226   6.137   1.953
 5775W        W 9826   9.520   9.317   1.717
 5776W        W 9827  10.555   6.252  10.761
 5777W        W 9828   9.382   7.006   3.302
 5778W        W 9829   8.593   6.146   1.476
 5779W        W 9830   7.082   6.106   8.329
 5780W        W 9831   0.949   5.337  10.866
 5781W        W 9832   8.879   9.610   2.231
 5782W        W 9833  11.317   7.432   0.301
 5783W        W 9834   8.724   0.331   2.751
 5784W        W 9835   6.718   3.170  10.276
 5785W        W 9836   5.993   9.945   3.418
 5786W        W 9837   5.959   4.582   0.221
 5787W        W 9838   5.687   7.383   3.558
 5788W        W 9839   6.339   8.098  11.849
 5789W        W 9840  11.381   5.770   2.337
 5790W        W 9841  10.792  10.897   0.376
 5791W        W 9842   7.013   3.705  11.808
 5792W        W 9843   6.861   2.288   2.015
 5793W        W 9844   8.163  10.458   0.518
 5794W        W 9845   2.773   1.267   1.730
 5795W        W 9846   8.520   6.607   1.179
 5796W        W 9847   8.028  10.489   2.513
 5797W        W 9848   5.606  10.968   1.615
 5798W        W 9849  11.435   4.773   9.588
 5799W        W 9850   2.903   0.410   9.108
 5800W        W 9851  10.771   4.129  10.562
 5801W        W 9852   3.096   7.121  11.391
 5802W        W 9853   4.660  10.268   2.673
 5803W        W 9854   1.293  10.072   0.904
 5804W        W 9855   5.479   3.656   8.572
 5805W        W 9856   2.318   7.193   0.042
 5806W        W 9857   6.135   9.811  11.855
 5807W        W 9858   4.053   7.547  10.035
 5808W        W 9859   5.274   8.617   4.153
 5809W        W 9860   7.422   0.970   2.877
 5810W        W 9861   0.267   1.347   1.172
 5811W        W 9862   7.146   9.611   9.839
 5812W        W 9863  10.542   2.781  10.474
 5813W        W 9864  11.349   0.720   2.240
 5814W        W 9865   1.244  10.953   3.272
 5815W        W 9866   2.483  10.810   0.691
 5816W        W 9867   0.986   9.556   8.609
 5817W        W 9868   6.761   2.274   8.970
 5818W        W 9869   2.632   0.769  10.801
 5819W        W 9870   4.576   6.192   0.289
 5820W        W 9871   3.428   0.914   0.327
 5821W        W 9872   0.552   9.494  11.789
 5822W        W 9873   5.907   2.276   1.728
 5823W        W 9874   2.785   3.346   9.758
 5824W        W 9875   2.867  10.078  11.467
 5825W        W 9876   5.135   3.287   9.628
 5826W        W 9877   0.224   3.991   8.961
 5827W        W 9878   8.204   3.687  11.528
 5828W        W 9879   6.599   0.135   0.935
 5829W        W 9880   1.771   1.365   0.746
 5830W        W 9881  11.446  10.742   3.760
 5831W        W 9882   0.121   3.831  10.276
 5832W        W 9883  10.256   4.605   3.238
 5833W        W 9884  10.420   8.029   8.944
 5834W        W 9885   5.315   8.021  10.223
 5835W        W 9886   6.981   6.596   0.371
 5836W        W 9887  10.400   6.748  11.536
 5837W        W 9888   6.155   4.580   1.705
 5838W        W 9889  10.554   7.839   1.447
 5839W        W 9890   6.292   7.944  10.058
 5840W        W 9891   4.006   6.449   1.307
 5841W        W 9892   6.709   5.553   0.838
 5842W        W 9893   0.386   0.891   2.972
 5843W        W 9894   3.087   6.208  11.085
 5844W        W 9895   7.296   4.164   0.441
 5845W        W 9896  10.132  10.277   0.280
 5846W        W 9897   6.893   2.187   9.576
 5847W        W 9898  11.067   3.807   2.827
 5848W        W 9899   6.681   0.282  10.231
 5849W        W 9900   1.815   4.388  10.958
 5850W        W 9901  10.860   1.901   9.765
 5851W        W 9902   9.120   7.691   9.266
 5852W        W 9903   0.085   0.076   0.048
 5853W        W 9904   8.267   5.693  11.814
 5854W        W 9905   0.338   9.071   1.235
 5855W        W 9906   4.370   1.752  11.685
 5856W        W 9907   4.189   8.643  10.436
 5857W        W 9908   0.787   4.846  11.455
 5858W        W 9909   6.478   7.185  10.955
 5859W        W 9910   1.719   5.251   8.487
 5860W        W 9911   7.572   0.947   1.592
 5861W        W 9912   7.138   0.134   0.398
 5862W        W 9913   3.528  10.464   9.981
 5863W        W 9914   2.390   0.339   9.083
 5864W        W 9915   9.871  10.107   2.872
 5865W        W 9916   8.251   7.628  11.975
 5866W        W 9917   4.741   6.720   0.676
 5867W        W 9918   9.422   9.289   2.699
 5868W        W 9919  11.094   5.015  10.282
 5869W        W 9920   2.852   4.245   9.872
 5870W        W 9921   3.528   3.020  10.596
 5871W        W 9922  10.930   2.661  11.723
 5872W        W 9923   7.549   1.860   0.327
 5873W        W 9924   7.561   6.680  10.477
 5874W        W 9925   1.904   5.242  10.789
 5875W        W 9926   4.679   9.516  11.722
 5876W        W 9927   7.040   4.310   2.269
 5877W        W 9928   7.114   3.409  10.065
 5878W        W 9929   5.663   5.809   1.007
 5879W        W 9930   2.835   2.872   9.587
 5880W        W 9931  10.613   7.443   1.816
 5881W        W 9932  10.509   4.984   9.505
 5882W        W 9933   7.618  10.408  10.076
 5883W        W 9934   6.314   7.566  11.789
 5884W        W 9935   5.593   8.119  11.725
 5885W        W 9936   9.135   4.171   0.499
 5886W        W 9937  11.289   3.094   9.135
 5887W        W 9938   2.825   8.364  10.147
 5888W        W 9939   7.177   9.264   0.811
 5889W        W 9940   4.216   2.311   9.891
 5890W        W 9941   3.837   6.653   9.881
 5891W        W 9942  11.037   2.716   1.217
 5892W        W 9943   0.193   7.788   2.929
 5893W        W 9944   4.012   1.484  11.972
 5894W        W 9945   5.147   4.661  10.709
 5895W        W 9946   0.278  10.708   0.334
 5896W        W 9947   7.036   7.928  10.927
 5897W        W 9948   1.761   1.796   9.593
 5898W        W 9949  10.198   1.269   3.496
 5899W        W 9950  10.848   9.151   0.544
 5900W        W 9951   8.112   1.562   3.492
 5901W        W 9952   3.578   4.687   8.540
 5902W        W 9953   7.935  10.108  10.586
 5903W        W 9954   5.208   8.079   1.743
 5904W        W 9955   1.758   9.990   2.487
 5905W        W 9956   2.330   1.932   0.392
 5906W        W 9957   6.604   8.189   2.787
 5907W        W 9958   9.816   1.222   1.224
 5908W        W 9959   2.661   3.243   2.722
 5909W        W 9960   8.941   6.851  11.285
 5910W        W 9961   6.125   0.555  11.266
 5911W        W 9962   2.898  10.432   2.873
 5912W        W 9963   9.979  10.798   8.585
 5913W        W 9964   4.641   3.889   0.995
 5914W        W 9965   9.400   9.884   9.882
 5915W        W 9966   5.229   3.719   0.472
 5916W        W 9967   3.301   2.902   0.402
 5917W        W 9968   3.281   1.271   3.859
 5918W        W 9969   0.796  11.195   1.877
 5919W        W 9970   3.705   8.394   0.165
 5920W        W 9971   4.788   8.573  11.419
 5921W        W 9972   9.959  11.476  10.022
 5922W        W 9973   3.770   0.112   8.679
 5923W        W 9974   2.176   9.463   1.642
 5924W        W 9975   9.891   3.779   2.118
 5925W        W 9976  10.917   4.054   9.788
 5926W        W 9977   5.195   7.280   3.174
 5927W        W 9978   5.084   9.458   1.906
 5928W        W 9979   9.049   3.623   2.381
 5929W        W 9980   1.101  10.421   1.647
 5930W        W 9981   1.396   1.438   9.372
 5931W        W 9982   3.334   6.569   3.692
 5932W        W 9983  10.556   7.376   9.443
 5933W        W 9984   6.227   5.591  10.903
 5934W        W 9985  11.332   6.982  11.969
 5935W        W 9986   6.112   5.660   0.798
 5936W        W 9987   4.157   7.928  11.464
 5937W        W 9988   1.267  10.894  11.199
 5938W        W 9989   0.819   3.269  10.544
 5939W        W 9990   4.217   7.818   1.808
 5940W        W 9991   2.956   8.960  11.054
 5941W        W 9992  10.910   1.642   0.447
 5942W        W 9993   4.186   0.175  10.513
 5943W        W 9994   6.403   3.646   2.876
 5944W        W 9995   0.803   7.829   1.054
 5945W        W 9996   1.697   8.955  10.327
 5946W        W 9997   7.304   6.049  11.109
 5947W        W 9998   6.852   7.201   2.712
 5948W        W 9999   8.869   2.226   0.314
 5949W        W10000   2.510   7.779   0.726
 5950W        W10001   6.766   5.481  10.682
 5951W        W10002   9.004   8.072  11.059
 5952W        W10003   3.379   1.829  11.372
 5953W        W10004   8.201   5.403   9.885
 5954W        W10005   0.842  10.687  11.647
 5955W        W10006   2.554   7.561   2.283
 5956W        W10007   2.427   2.901   3.567
 5957W        W10008   1.409   1.202   2.312
 5958W        W10009   4.696   1.950   3.286
 5959W        W10010   5.948   4.699   1.231
 5960W        W10011   8.558  10.369  10.738
 5961W        W10012   2.758   7.388  11.791
 5962W        W10013   8.654   2.807   9.630
 5963W        W10014   7.586   9.898   9.788
 5964W        W10015   4.610   4.232   3.912
 5965W        W10016   4.755   8.832   9.966
 5966W        W10017  11.177   4.285   2.465
 5967W        W10018   8.068  10.508   9.840
 5968W        W10019   1.627   9.953   2.989
 5969W        W10020   1.405  11.442   9.512
 5970W        W10021   2.584   4.106   0.577
 5971W        W10022   9.980   2.083  11.013
 5972W        W10023   4.119  11.202   0.306
 5973W        W10024   8.517   7.616  11.494
 5974W        W10025   7.709   9.571   2.781
 5975W        W10026   3.759   2.443   3.350
 5976W        W10027   7.763   1.513  11.382
 5977W        W10028   7.681   3.104   1.974
 5978W        W10029   9.900   5.401  11.550
 5979W        W10030   2.733   5.293   4.138
 5980W        W10031   8.889   0.519  11.036
 5981W        W10032   4.751   9.958   8.732
 5982W        W10033   6.322   7.048  11.920
 5983W        W10034   9.646   3.360   0.907
 5984W        W10035   0.279   6.972   9.149
 5985W        W10036   9.323   0.228   1.880
 5986W        W10037   8.537   4.708   8.281
 5987W        W10038   9.556   8.636   9.416
 5988W        W10039   2.370   0.457   3.371
 5989W        W10040   2.324   1.383   1.936
 5990W        W10041   6.981   5.660   0.336
 5991W        W10042  10.856   1.679   1.943
 5992W        W10043   0.367   4.267   9.381
 5993W        W10044   4.996  11.342  12.000
 5994W        W10045   6.206   5.265  11.313
 5995W        W10046   5.122  10.447   0.887
 5996W        W10047   9.360   8.002  10.560
 5997W        W10048   0.827  11.074  11.322
 5998W        W10049   6.040   6.926  10.899
 5999W        W10050   8.898   1.806  10.800
 6000W        W10051   8.144   9.106   9.198
 6001W        W10052   7.245   2.217   1.703
 6002W        W10053   0.033   3.836   3.070
 6003W        W10054   8.988   2.097   2.600
 6004W        W10055   3.235   6.217   2.319
 6005W        W10056   7.992   1.928  10.550
 6006W        W10057   8.421   0.749   3.252
 6007W        W10058   5.520   8.054  11.218
 6008W        W10059   3.356   4.484  10.537
 6009W        W10060   4.944   0.144   1.776
 6010W        W10061   8.079   4.953   9.106
 6011W        W10062   6.716   1.349  10.544
 6012W        W10063   6.597   8.937   1.366
 6013W        W10064   0.278   6.580   8.788
 6014W        W10065   7.778   7.068   9.207
 6015W        W10066   8.845   8.477   9.735
 6016W        W10067  10.034  10.696   9.088
 6017W        W10068   6.074   4.160  11.889
 6018W        W10069   7.999   6.853   3.579
 6019W        W10070   9.199   4.774   3.136
 6020W        W10071   9.096   2.753   3.683
 6021W        W10072   5.095   9.950   0.675
 6022W        W10073   3.590   6.577   2.232
 6023W        W10074   3.275   7.027   3.424
 6024W        W10075  10.967  10.962  11.058
 6025W        W10076   1.685  10.411   9.583
 6026W        W10077  10.809   0.620   3.445
 6027W        W10078   6.554   7.485   0.475
 6028W        W10079   5.091  10.982   2.960
 6029W        W10080   5.140   2.365   2.275
 6030W        W10081  10.657   4.107   8.941
 6031W        W10082   2.267   2.765   1.997
 6032W        W10083   9.610   6.949  11.691
 6033W        W10084   3.533   6.862   8.988
 6034W        W10085  11.284  11.185   9.782
 6035W        W10086   3.769   8.876   0.918
 6036W        W10087   6.291   6.809   3.825
 6037W        W10088   5.988   3.407   0.638
 6038W        W10089   7.863   0.796   8.584
 6039W        W10090   3.492   6.600   3.192
 6040W        W10091   2.149   9.146  10.485
 6041W        W10092   5.002   2.427   0.793
 6042W        W10093   8.933   6.207   3.695
 6043W        W10094   1.969   9.432   3.676
 6044W        W10095   6.688  11.355   9.015
 6045W        W10096   1.119   7.906   8.553
 6046W        W10097   7.672   8.218   0.591
 6047W        W10098   4.885  10.733   9.168
 6048W        W10099  10.832   4.556   0.724
 6049W        W10100   6.496   9.041   9.596
 6050W        W10101   7.302   6.698   1.295
 6051W        W10102   2.150   8.253   8.587
 6052W        W10103   0.928   4.538   3.094
 6053W        W10104   4.249   9.105  10.675
 6054W        W10105   0.857   8.736   2.343
 6055W        W10106   1.955   4.704   9.080
 6056W        W10107   2.966   4.311   2.153
 6057W        W10108  11.217   8.913   2.437
 6058W        W10109   3.898   1.069   0.251
 6059W        W10110   2.302   2.747   0.999
 6060W        W10111   7.203  11.274  11.401
 6061W        W10112   8.993   4.979   8.323
 6062W        W10113   9.325   5.839   0.626
 6063W        W10114   9.348   6.169   2.926
 6064W        W10115   6.514  10.314   0.639
 6065W        W10116  10.587   4.415  10.941
 6066W        W10117   1.381  10.317   9.980
 6067W        W10118   5.748   0.887   0.516
 6068W        W10119   8.019  10.966   9.148
 6069W        W10120   8.055   9.533  11.359
 6070W        W10121   9.916   2.928   1.691
 6071W        W10122   0.285  10.845   3.177
 6072W        W10123   8.105   3.100   3.080
 6073W        W10124  10.307   7.480   9.005
 6074W        W10125   6.981   8.015   1.554
 6075W        W10126  11.426   8.329  11.679
 6076W        W10127   5.517   6.983   8.794
 6077W        W10128   7.024  10.349  11.774
 6078W        W10129   4.258   7.985   9.829
 6079W        W10130   8.386   6.111   2.931
 6080W        W10131   4.244   8.953   2.581
 6081W        W10132  11.376   4.314   9.807
 6082W        W10133   0.773   1.735   9.979
 6083W        W10134   7.159   8.373   9.919
 6084W        W10135   6.147   7.611   9.268
 6085W        W10136   1.398   0.218   9.991
 6086W        W10137   5.008  11.190   9.356
 6087W        W10138   7.458   5.695  10.260
 6088W        W10139   6.186   1.951   2.774
 6089W        W10140   2.551   2.170   3.463
 6090W        W10141   7.080   8.261   8.561
 6091W        W10142   4.132   1.690   1.711
 6092W        W10143   1.563   9.264   1.119
 6093W        W10144   8.518   5.428   2.175
 6094W        W10145   0.315   8.400   9.085
 6095W        W10146   8.758   0.430  11.855
 6096W        W10147  10.392   3.662   9.078
 6097W        W10148   6.461  11.495   3.423
 6098W        W10149   1.241   3.776   9.397
 6099W        W10150   5.949   3.475   2.464
 6100W        W10151   9.674   9.595   3.555
 6101W        W10152   4.634   5.741   0.016
 6102W        W10153   9.009   3.729  11.702
 6103W        W10154   8.986   7.100   9.982
 6104W        W10155   9.157  10.024   2.482
 6105W        W10156   6.109   2.468  10.454
 6106W        W10157   2.904   8.484   8.641
 6107W        W10158   8.977   9.783   9.057
 6108W        W10159   8.071   5.975   1.023
 6109W        W10160   5.544   2.795   0.017
 6110W        W10161   0.440   2.195   3.023
 6111W        W10162   6.448   9.500   2.790
 6112W        W10163   5.585   3.309  11.820
 6113W        W10164   3.520   1.451   0.206
 6114W        W10165   8.769   6.151   2.235
 6115W        W10166   4.562   8.531   2.424
 6116W        W10167   0.783   9.975   3.065
 6117W        W10168   5.553   9.292   0.968
 6118W        W10169   3.723   6.150   4.023
 6119W        W10170  10.114  10.805   2.365
 6120W        W10171   0.252  11.348   9.809
 6121W        W10172   6.073   7.525   9.785
 6122W        W10173   2.732   5.166   8.617
 6123W        W10174   2.411   5.758   0.720
 6124W        W10175   5.645   1.814  10.039
 6125W        W10176   6.529   0.728   2.248
 6126W        W10177   1.263   9.156   8.466
 6127W        W10178   8.183   8.651  10.961
 6128W        W10179   3.669   4.848  10.412
 6129W        W10180  11.062   6.979   0.424
 6130W        W10181   2.520   5.239   1.500
 6131W        W10182   4.702   2.284   3.680
 6132W        W10183   9.488   3.143   0.437
 6133W        W10184   7.406   9.570   1.532
 6134W        W10185  10.488   4.037   9.436
 6135W        W10186   8.492   5.702   1.194
 6136W        W10187   4.656   9.543   2.194
 6137W        W10188   8.907  11.278  11.469
 6138W        W10189   6.609   9.996  11.865
 6139W        W10190   2.460   5.266   1.987
 6140W        W10191   7.455   1.670  10.071
 6141W        W10192   9.566   5.193   2.032
 6142W        W10193   7.127  11.343  11.916
 6143W        W10194   7.860   2.325   0.366
 6144W        W10195   0.391   2.617  11.564
 6145W        W10196   8.576   6.583   0.351
 6146W        W10197   0.782   1.820   2.818
 6147W        W10198   0.890   8.082  10.278
 6148W        W10199   1.825   0.984  11.779
 6149W        W10200   4.110   9.447   9.463
 6150W        W10201   4.348   9.839   1.342
 6151W        W10202   6.210  11.402   2.169
 6152W        W10203   1.706  10.650  11.170
 6153W        W10204  10.559   9.986   0.282
 6154W        W10205   4.002   6.602   3.358
 6155W        W10206  11.116   3.057   0.445
 6156W        W10207   1.712   6.194  10.697
 6157W        W10208  10.899   8.598   9.840
 6158W        W10209  10.624  10.500   3.067
 6159W        W10210   5.316   2.198   1.169
 6160W        W10211   4.376   4.420   0.714
 6161W        W10212   6.882   2.968  10.772
 6162W        W10213   9.486  11.127   2.674
 6163W        W10214   6.824   3.830   9.945
 6164W        W10215   9.858   3.893   3.065
 6165W        W10216   6.005   2.770   2.393
 6166W        W10217   4.791   0.494   0.371
 6167W        W10218   1.804   1.176   0.271
 6168W        W10219   9.106   4.794   1.809
 6169W        W10220  10.269   0.402   1.851
 6170W        W10221   7.994   7.218   0.874
 6171W        W10222   6.968  10.878   3.126
 6172W        W10223   6.193   7.941  10.582
 6173W        W10224   9.445   9.482  10.428
 6174W        W10225   3.861   9.875   9.325
 6175W        W10226   8.587   8.049   9.939
 6176W        W10227   3.379   0.937  11.392
 6177W        W10228   3.913   5.887   8.775
 6178W        W10229   8.520   9.009   8.863
 6179W        W10230   7.098   4.162   1.360
 6180W        W10231  11.437  11.047   1.831
 6181W        W10232   3.806   8.760   2.747
 6182W        W10233   0.854   0.532   9.382
 6183W        W10234   8.878   0.815   1.481
 6184W        W10235   4.162   1.849  10.680
 6185W        W10236   6.394  10.283   1.130
 6186W        W10237   0.951  10.210   2.097
 6187W        W10238   6.965  10.468  10.367
 6188W        W10239   7.782   2.267   1.740
 6189W        W10240   4.666   1.633   1.717
 6190W        W10241   0.911   8.916   1.858
 6191W        W10242   5.039   3.763   2.325
 6192W        W10243   4.671   0.129   9.070
 6193W        W10244   8.173   3.698  10.547
 6194W        W10245  10.774   6.421  11.587
 6195W        W10246  10.835   6.077   8.671
 6196W        W10247   1.851   9.368   0.306
 6197W        W10248   7.289  10.536   0.738
 6198W        W10249   7.324   6.620   1.958
 6199W        W10250  11.377   3.432   0.171
 6200W        W10251   9.217  10.713   2.598
 6201W        W10252   7.415   9.582  11.394
 6202W        W10253   2.330   8.093  10.217
 6203W        W10254  11.472   4.309  11.205
 6204W        W10255   4.488   3.668   3.262
 6205W        W10256   8.852   4.258   0.911
 6206W        W10257   9.084   1.757   9.278
 6207W        W10258   1.371   2.345  10.678
 6208W        W10259   3.090   0.819   4.011
 6209W        W10260  11.081   5.987   1.936
 6210W        W10261   8.042   4.557   1.674
 6211W        W10262   6.787  10.024   9.170
 6212W        W10263   2.170   0.454  10.414
 6213W        W10264   2.331   2.863   1.495
 6214W        W10265   3.330   9.879  11.014
 6215W        W10266   5.118  10.323   8.827
 6216W        W10267   5.599   7.431   2.913
 6217W        W10268  11.163   4.014   8.884
 6218W        W10269   8.916   7.073   9.076
 6219W        W10270   1.534   7.305   1.420
 6220W        W10271   9.474   0.528   2.266
 6221W        W10272  10.974   5.252   0.906
 6222W        W10273   7.469   4.108   3.707
 6223W        W10274   5.070   9.540  10.589
 6224W        W10275   9.534   7.109   8.824
 6225W        W10276   9.395   8.861   2.433
 6226W        W10277  10.121   7.629   9.486
 6227W        W10278   4.644  10.708   0.810
 6228W        W10279  11.334   1.767   2.124
 6229W        W10280   7.279   6.784  10.048
 6230W        W10281   5.489   1.969  11.021
 6231W        W10282   6.602   9.495   0.035
 6232W        W10283   8.131   8.795   2.487
 6233W        W10284   7.109   7.503   1.798
 6234W        W10285   4.188   6.144   0.659
 6235W        W10286  10.783   3.976   2.336
 6236W        W10287   4.774   3.480  11.263
 6237W        W10288   9.371   5.075   9.518
 6238W        W10289  11.048   8.371   1.717
 6239W        W10290   7.897   8.308   1.778
 6240W        W10291   2.978   6.615   3.317
 6241W        W10292   0.906   9.649   3.446
 6242W        W10293  10.745   9.744   2.795
 6243W        W10294   2.229   5.746   2.740
 6244W        W10295   1.261   3.328   0.584
 6245W        W10296   3.427   2.884   1.281
 6246W        W10297   9.586   6.607   8.724
 6247W        W10298   7.422   6.233   1.628
 6248W        W10299  10.383   9.943  11.384
 6249W        W10300   2.513  10.441   9.197
 6250W        W10301   0.644   7.887  11.372
 6251W        W10302  11.373  10.320  10.658
 6252W        W10303   8.904  10.965  11.890
 6253W        W10304   4.670   6.649   2.040
 6254W        W10305   3.627   0.147   1.728
 6255W        W10306   8.960   3.571   3.382
 6256W        W10307   7.061   1.185   0.322
 6257W        W10308   4.670   9.349   3.070
 6258W        W10309   3.215  10.884   9.886
 6259W        W10310   3.957   5.826   9.939
 6260W        W10311   5.850   4.163   1.906
 6261W        W10312   5.489   9.834  10.484
 6262W        W10313   3.626   8.887   1.442
 6263W        W10314  11.391   0.244   9.063
 6264W        W10315   2.830   7.908  10.376
 6265W        W10316  11.059   1.661   8.809
 6266W        W10317   2.181   4.411   1.950
 6267W        W10318   9.376   7.289   8.362
 6268W        W10319   4.241   4.200   9.846
 6269W        W10320   1.400   9.935  10.763
 6270W        W10321   7.676   3.767   0.334
 6271W        W10322   9.337   6.171   9.998
 6272W        W10323  11.159   8.849   1.908
 6273W        W10324   8.662  10.857  11.333
 6274W        W10325   4.813   1.254   9.795
 6275W        W10326   7.553   4.502   2.358
 6276W        W10327   4.940   4.540   0.211
 6277W        W10328   9.153   1.314   9.530
 6278W        W10329  10.752   9.157  10.469
 6279W        W10330   0.588   7.863   3.648
 6280W        W10331   0.671   3.203   8.589
 6281W        W10332   2.143   8.412  11.251
 6282W        W10333  11.417  10.834  10.645
 6283W        W10334   4.984   3.475  10.069
 6284W        W10335   7.667   5.972  11.961
 6285W        W10336   4.325  11.429   1.255
 6286W        W10337   0.361   7.654  10.978
 6287W        W10338   1.648   7.443  10.477
 6288W        W10339   6.220   7.640   8.741
 6289W        W10340   7.116   8.678  10.330
 6290W        W10341   5.626  11.472   9.915
 6291W        W10342   8.551   1.966  10.445
 6292W        W10343   3.047  11.384  11.634
 6293W        W10344  11.032   2.199  10.190
 6294W        W10345   1.731   6.895   1.703
 6295W        W10346   3.407   0.243   9.913
 6296W        W10347  10.905   3.091   8.798
 6297W        W10348   8.400   1.785  11.971
 6298W        W10349   1.935   8.591   8.987
 6299W        W10350   4.208   7.464   2.220
 6300W        W10351   7.229   1.234   9.920
 6301W        W10352   4.221  11.042   9.804
 6302W        W10353   5.775   6.757  11.490
 6303W        W10354   5.170   5.542   0.757
 6304W        W10355   6.767   3.427   1.073
 6305W        W10356   0.521   5.155   2.529
 6306W        W10357  10.857  11.363   9.547
 6307W        W10358   7.477   9.609  11.935
 6308W        W10359   8.884   6.903   3.334
 6309W        W10360   9.434   0.862   2.892
 6310W        W10361   2.194   7.113   1.858
 6311W        W10362  10.968   5.129   1.884
 6312W        W10363   4.546   0.799   2.863
 6313W        W10364   0.254  10.536   9.192
 6314W        W10365   2.973   6.737  10.339
 6315W        W10366   1.975   4.791   8.556
 6316W        W10367   1.022  10.436   3.142
 6317W        W10368   9.795  10.963   9.439
 6318W        W10369   1.894   9.576  10.077
 6319W        W10370  11.336   2.737   0.065
 6320W        W10371   8.414   6.339   9.635
 6321W        W10372   8.031  10.984   8.635
 6322W        W10373   8.349   8.033   1.757
 6323W        W10374   2.121   6.752   3.118
 6324W        W10375   1.153   5.830   9.189
 6325W        W10376   2.717   5.092   9.540
 6326W        W10377   3.108   0.352  11.429
 6327W        W10378   1.773   5.940   0.184
 6328W        W10379   6.232  11.234   0.174
 6329W        W10380   0.490   9.966   1.343
 6330W        W10381   1.214  10.404  11.393
 6331W        W10382   0.440   5.272   3.487
 6332W        W10383   6.241   1.067   0.199
 6333W        W10384   0.035   1.276   2.836
 6334W        W10385   3.110  10.988   8.958
 6335W        W10386   5.562  11.406  10.830
 6336W        W10387   3.751  10.735   0.842
 6337W        W10388   5.078   5.043   0.054
 6338W        W10389   0.906   6.271   9.034
 6339W        W10390   0.817  10.188   3.550
 6340W        W10391   9.167   2.135  10.112
 6341W        W10392   0.199   5.648  11.218
 6342W        W10393   9.886   2.911   0.647
 6343W        W10394   8.576   8.462   3.012
 6344W        W10395  10.422   1.491   0.487
 6345W        W10396   6.158   6.931   0.398
 6346W        W10397   4.637  10.586   2.249
 6347W        W10398   1.795   7.239   9.785
 6348W        W10399  10.252   9.141   3.204
 6349W        W10400   9.959   1.810   9.278
 6350W        W10401   4.616  11.308  10.055
 6351W        W10402   7.053   1.074   8.879
 6352W        W10403   8.834   5.291   2.727
 6353W        W10404   2.662   1.742   3.187
 6354W        W10405   3.117   3.350   8.864
 6355W        W10406   0.857   4.845  10.007
 6356W        W10407   9.855   5.696  11.119
 6357W        W10408   2.726   9.603   9.021
 6358W        W10409   2.764   7.539   8.320
 6359W        W10410   3.133   6.282   0.789
 6360W        W10411   4.036   5.145   2.532
 6361W        W10412  10.362   7.902   1.922
 6362W        W10413   9.023   4.717   0.775
 6363W        W10414   7.078  10.305   1.935
 6364W        W10415   5.209   1.677   0.270
 6365W        W10416   7.034   2.447   0.838
 6366W        W10417   4.386   9.611   9.869
 6367W        W10418   5.638   3.596   1.149
 6368W        W10419   3.224   2.146   0.862
 6369W        W10420   2.343   8.946   0.935
 6370W        W10421  10.861   1.784  11.907
 6371W        W10422   7.947   8.906   8.724
 6372W        W10423   4.149   6.152  11.604
 6373W        W10424   2.032   9.325  10.956
 6374W        W10425   0.675   8.846   0.021
 6375W        W10426   7.372   5.540  11.992
 6376W        W10427   3.320   5.797   0.841
 6377W        W10428   0.502   6.199   2.186
 6378W        W10429   0.452   6.103  11.262
 6379W        W10430   1.778   6.032   1.168
 6380W        W10431   8.618   3.733   9.577
 6381W        W10432   9.632   5.263   9.924
 6382W        W10433   0.324   7.483   3.402
 6383W        W10434  10.518   0.457  11.183
 6384W        W10435  11.138   6.966   1.226
 6385W        W10436   3.434  10.005   0.449
 6386W        W10437   0.464   2.161   0.762
 6387W        W10438   3.503   5.256  10.187
 6388W        W10439   1.858   1.860   2.218
 6389W        W10440  10.763   7.035   3.543
 6390W        W10441   6.335   3.597  10.147
 6391W        W10442   0.682  10.713   8.539
 6392W        W10443   7.225   8.452   1.413
 6393W        W10444   3.338   4.407   0.559
 6394W        W10445   4.540   6.740  10.429
 6395W        W10446   6.479   4.697  10.985
 6396W        W10447   9.341  11.400   8.910
 6397W        W10448   8.351   7.399   3.242
 6398W        W10449  10.799   0.765   2.920
 6399W        W10450   9.501   9.177  11.414
 6400W        W10451   9.944   5.715   1.470
 6401W        W10452  10.716   7.612   0.992
 6402W        W10453   8.934  10.398  11.313
 6403W        W10454   5.223   1.648  10.294
 6404W        W10455   6.837   3.183   3.457
 6405W        W10456   0.201   5.509   8.957
 6406W        W10457   1.690   5.821  11.700
 6407W        W10458   8.980   0.274   2.290
 6408W        W10459   2.146   5.693   1.177
 6409W        W10460   1.463   2.407   0.594
 6410W        W10461  10.413   8.075   9.473
 6411W        W10462   0.478   0.767  10.990
 6412W        W10463  11.066  11.098   0.758
 6413W        W10464   1.907   2.712   0.688
 6414W        W10465   7.140  11.291  10.890
 6415W        W10466  10.247   9.600   0.921
 6416W        W10467   7.846   2.781  10.869
 6417W        W10468   5.539   6.215   0.659
 6418W        W10469   9.402   3.069   1.828
 6419W        W10470   6.039   8.482   9.016
 6420W        W10471  11.492   6.104  11.462
 6421W        W10472  10.948   0.462  11.573
 6422W        W10473   9.187   9.309   0.767
 6423W        W10474   5.134   9.433   0.550
 6424W        W10475   6.232   8.652   3.114
 6425W        W10476   5.559   4.502  10.983
 6426W        W10477   5.451   0.733   1.493
 6427W        W10478   9.300   2.293   2.961
 6428W        W10479   1.272   8.418   2.359
 6429W        W10480   4.239   3.101  11.954
 6430W        W10481   1.024   2.177   9.868
 6431W        W10482   1.812   7.795   0.368
 6432W        W10483   4.080   2.219   0.376
 6433W        W10484   2.810   8.498   9.136
 6434W        W10485   8.615  10.793   1.444
 6435W        W10486   7.944   8.896  10.583
 6436W        W10487   8.621   8.085   0.676
 6437W        W10488   7.005   7.938   2.053
 6438W        W10489   7.199   1.910   2.115
 6439W        W10490  11.247   3.228   2.312
 6440W        W10491   8.510   2.878   2.273
 6441W        W10492   4.210   9.578   3.161
 6442W        W10493   3.079   4.238   9.412
 6443W        W10494  10.420   1.631   9.468
 6444W        W10495   9.908   2.581  10.806
 6445W        W10496   2.826   9.673  10.423
 6446W        W10497   0.659   8.158   8.721
 6447W        W10498   3.682   8.629   8.240
 6448W        W10499   2.311   5.935  11.427
 6449W        W10500  11.470   8.000  10.326
 6450W        W10501  10.568   2.635  11.358
 6451W        W10502   3.899   9.546   9.932
 6452W        W10503   2.380   4.359   2.717
 6453W        W10504  11.277   6.523  11.747
 6454W        W10505  10.744  10.222   2.668
 6455W        W10506   9.333   5.247   2.905
 6456W        W10507   0.262   6.965   3.437
 6457W        W10508   5.517   0.275   9.153
 6458W        W10509   3.187   7.620   9.494
 6459W        W10510  11.494  10.759  11.552
 6460W        W10511   8.170  10.023   8.490
 6461W        W10512   1.094   1.914   1.914
 6462W        W10513   5.177   4.142  11.606
 6463W        W10514   5.664   5.286   2.252
 6464W        W10515   1.309   2.650   2.473
 6465W        W10516   9.966   1.272  10.536
 6466W        W10517   9.833   0.688  10.061
 6467W        W10518   4.042   8.458   2.400
 6468W        W10519   8.824   0.546   0.334
 6469W        W10520   8.924   4.589  10.474
 6470W        W10521   4.981   2.116   2.714
 6471W        W10522   8.228  10.040  11.411
 6472W        W10523  10.707   9.491   0.171
 6473W        W10524   1.542   0.679  10.842
 6474W        W10525   7.399   6.609  10.957
 6475W        W10526   8.562   6.571   3.625
 6476W        W10527   3.871   3.014   3.193
 6477W        W10528   9.450   0.165  11.804
 6478W        W10529   8.388   8.607  11.437
 6479W        W10530   4.769   5.699   1.045
 6480W        W10531   0.668  10.391   2.772
 6481W        W10532  10.513   6.467   8.868
 6482W        W10533   0.451   3.652   0.670
 6483W        W10534   0.718   2.194   9.440
 6484W        W10535   1.241   0.733   2.379
 6485W        W10536  10.547   9.287  11.711
 6486W        W10537   4.940   8.368   3.375
 6487W        W10538   7.608   7.509   9.894
 6488W        W10539   1.662   1.973  10.922
 6489W        W10540   4.632   7.553   0.119
 6490W        W10541   0.801  10.180  11.666
 6491W        W10542   2.094   3.293   0.738
 6492W        W10543   0.462  11.395   1.466
 6493W        W10544   1.876   5.560  11.295
 6494W        W10545   4.922   4.108   1.963
 6495W        W10546   3.799   7.013   1.022
 6496W        W10547  10.648   5.901   2.834
 6497W        W10548   8.228   4.379   0.288
 6498W        W10549   0.803   8.884   9.733
 6499W        W10550   7.429  11.440   3.125
 6500W        W10551   9.122   1.893   0.654
 6501W        W10552   9.588  11.239   3.163
 6502W        W10553   2.706   7.668   1.179
 6503W        W10554   6.927   4.988   1.634
 6504W        W10555  11.419   3.400   0.680
 6505W        W10556   2.483   7.067   1.060
 6506W        W10557   0.314   0.665   0.630
 6507W        W10558   5.229   9.956   9.661
 6508W        W10559   3.616   3.046   1.907
 6509W        W10560   5.682   5.352   0.798
 6510W        W10561   7.386   9.440   2.414
 6511W        W10562   1.486   2.298  10.191
 6512W        W10563   3.634   6.575   8.564
 6513W        W10564   2.037   7.432   2.359
 6514W        W10565  11.292  10.033   2.711
 6515W        W10566   4.557   1.369   2.242
 6516W        W10567   6.974   4.180   0.026
 6517W        W10568   0.714   5.372  10.005
 6518W        W10569   6.682   1.708  11.185
 6519W        W10570   8.670  11.410   3.075
 6520W        W10571   7.149   1.992   0.638
 6521W        W10572   1.449   0.714   0.035
 6522W        W10573   7.766   9.924  11.231
 6523W        W10574   4.115   0.450   0.009
 6524W        W10575   8.096   8.192   9.972
 6525W        W10576   0.350   6.486   3.779
 6526W        W10577   4.548   5.756  11.502
 6527W        W10578   4.030  10.538   9.752
 6528W        W10579   5.682   2.350  10.751
 6529W        W10580   8.865   9.292   9.268
 6530W        W10581   1.864   6.935   2.220
 6531W        W10582   0.398  10.830  11.843
 6532W        W10583   3.061  10.857  11.280
 6533W        W10584   0.793   9.953  10.572
 6534W        W10585   2.561   5.377   8.177
 6535W        W10586   6.622   6.674  11.308
 6536W        W10587   3.208   3.306  10.941
 6537W        W10588  10.838  10.289  11.808
 6538W        W10589   1.281  11.174   2.779
 6539W        W10590   3.772  10.934  10.537
 6540W        W10591   7.577   1.981  11.384
 6541W        W10592   3.988  11.473  11.828
 6542W        W10593   0.891   0.839   1.278
 6543W        W10594   1.896   8.611   9.512
 6544W        W10595   3.644   6.180   0.977
 6545W        W10596   9.767   1.690  10.751
 6546W        W10597   3.280   5.611  11.971
 6547W        W10598   0.596   7.272   2.154
 6548W        W10599   5.786   7.022   2.651
 6549W        W10600   9.782  11.418  11.489
 6550W        W10601   5.274   6.708   1.364
 6551W        W10602   6.236   4.106   4.087
 6552W        W10603   1.553   5.998  11.227
 6553W        W10604   6.558   6.877   1.185
 6554W        W10605   7.132   7.654  10.445
 6555W        W10606   6.528   7.767  10.973
 6556W        W10607   4.201  10.997   2.952
 6557W        W10608   7.099   0.832  10.781
 6558W        W10609   5.945  11.499   9.466
 6559W        W10610   5.870   9.519   9.807
 6560W        W10611   3.808   8.952   2.283
 6561W        W10612   4.172   6.255   3.733
 6562W        W10613   1.271   2.814   0.363
 6563W        W10614  10.557   2.362  10.049
 6564W        W10615   0.337  11.457   2.781
 6565W        W10616   0.355   7.254   1.697
 6566W        W10617   3.187   2.122  11.967
 6567W        W10618   2.863   2.796  11.417
 6568W        W10619   5.463   9.242   3.200
 6569W        W10620   9.963   8.386   2.396
 6570W        W10621  10.812  11.167   1.717
 6571W        W10622   1.691   9.132   3.114
 6572W        W10623   2.351  11.091  10.469
 6573W        W10624   7.455   0.937   0.576
 6574W        W10625   1.626   1.335  11.433
 6575W        W10626   6.662   3.092   2.449
 6576W        W10627   2.120   6.584   8.664
 6577W        W10628   2.862   6.217  10.608
 6578W        W10629   4.262   3.528  10.923
 6579W        W10630   6.427   3.111   8.497
 6580W        W10631   2.297   2.467  10.600
 6581W        W10632   1.638   7.053   9.354
 6582W        W10633  11.216   7.643   2.698
 6583W        W10634   9.255   0.610   0.580
 6584W        W10635   1.738   8.647   2.275
 6585W        W10636   5.120  11.289   9.868
 6586W        W10637   2.251   9.473   9.183
 6587W        W10638  10.076   3.389   1.880
 6588W        W10639   8.770   3.365  11.969
 6589W        W10640   4.253   0.087   9.849
 6590W        W10641   9.883   2.441   1.857
 6591W        W10642  10.944   8.211   0.731
 6592W        W10643   9.724   0.683   0.372
 6593W        W10644   5.185   5.969   1.000
 6594W        W10645   7.761   4.548   9.044
 6595W        W10646   3.241   2.645   0.849
 6596W        W10647   5.223   6.091  10.329
 6597W        W10648  10.015   8.148  11.786
 6598W        W10649   6.113   0.943   0.875
 6599W        W10650   1.994   3.402  10.950
 6600W        W10651  10.216   6.098   0.748
 6601W        W10652   8.994   7.850  11.526
 6602W        W10653   1.364   1.930   3.283
 6603W        W10654   6.579   8.634   1.814
 6604W        W10655   6.303   7.190   8.974
 6605W        W10656  10.793   0.764   9.068
 6606W        W10657   2.795   8.844   9.530
 6607W        W10658  11.260   8.603   0.725
 6608W        W10659   3.543   4.107   0.950
 6609W        W10660   4.039   6.171   0.133
 6610W        W10661   4.415   1.771   0.699
 6611W        W10662   6.213   0.289  10.813
 6612W        W10663   4.103  11.450   0.793
 6613W        W10664   7.660   8.860   0.566
 6614W        W10665   2.007   3.039  11.696
 6615W        W10666   8.153   2.842  10.412
 6616W        W10667   1.318   3.620  11.714
 6617W        W10668   4.543   3.405  10.403
 6618W        W10669   4.896   7.164  11.389
 6619W        W10670   5.688   6.300  10.183
 6620W        W10671   7.462   3.866   1.583
 6621W        W10672   0.152   5.635   0.594
 6622W        W10673  10.284   8.579  10.120
 6623W        W10674   7.179   3.109   1.949
 6624W        W10675   5.994   2.368   9.494
 6625W        W10676   4.619   1.442   9.381
 6626W        W10677   4.484   4.675   3.245
 6627W        W10678  10.081   7.450  10.320
 6628W        W10679  10.043  10.918   0.843
 6629W        W10680  11.321   5.258  11.110
 6630W        W10681   4.788   1.353  10.309
 6631W        W10682   0.797   3.511   9.560
 6632W        W10683   5.780   4.375   0.693
 6633W        W10684  10.166   7.512   1.615
 6634W        W10685   8.711   1.294   9.776
 6635W        W10686   3.241   8.604   0.231
 6636W        W10687   5.907   1.630  11.038
 6637W        W10688   4.939   1.747   4.026
 6638W        W10689   6.983   1.320   1.184
 6639W        W10690   7.895   5.266   9.501
 6640W        W10691   0.468   3.750   2.814
 6641W        W10692   8.080  11.382  10.875
 6642W        W10693   1.917   5.262   8.983
 6643W        W10694   1.388   2.827  10.347
 6644W        W10695   8.163  11.297   9.973
 6645W        W10696   9.295   0.362   3.296
 6646W        W10697   0.418  11.214   0.186
 6647W        W10698   8.663  11.244  10.228
 6648W        W10699   2.692   6.574   8.725
 6649W        W10700  10.512   0.686  10.677
 6650W        W10701   5.767   7.703   4.037
 6651W        W10702   3.361   3.366  11.428
 6652W        W10703   4.066  10.363  10.771
 6653W        W10704   9.015   3.304   9.052
 6654W        W10705   6.198   5.744   2.735
 6655W        W10706   4.970   8.121   9.269
 6656W        W10707   9.249   5.916  10.428
 6657W        W10708  10.354   4.130   3.073
 6658W        W10709   3.415   7.382   3.040
 6659W        W10710   7.625   2.122  11.885
 6660W        W10711   3.106   1.393  11.382
 6661W        W10712  10.736  11.282   9.060
 6662W        W10713  10.397   0.856   3.238
 6663W        W10714   4.112   1.236  10.384
 6664W        W10715   5.866  10.911   2.467
 6665W        W10716   2.006  10.345   9.202
 6666W        W10717   1.375   3.717  10.703
 6667W        W10718   1.722   4.592   0.385
 6668W        W10719   4.239   1.223   1.850
 6669W        W10720   9.022   8.972   9.847
 6670W        W10721   1.308   4.570  10.805
 6671W        W10722   4.259   2.776   1.561
 6672W        W10723   0.711   4.165   1.218
 6673W        W10724   9.291  10.600   3.771
 6674W        W10725  10.747   6.075   1.530
 6675W        W10726   2.122  10.592   1.837
 6676W        W10727  11.238   0.678   3.164
 6677W        W10728   0.594   1.925  11.133
 6678W        W10729   1.888  10.033   1.511
 6679W        W10730   7.600   6.215  10.213
 6680W        W10731   4.376   6.653  11.809
 6681W        W10732   0.103   1.691  11.274
 6682W        W10733   7.613  10.327  10.967
 6683W        W10734   7.586   8.017  10.641
 6684W        W10735   3.759   5.002   9.361
 6685W        W10736   5.090   0.279   1.280
 6686W        W10737   1.207   5.926  10.845
 6687W        W10738   9.826   8.832   3.313
 6688W        W10739   7.653   5.492   0.905
 6689W        W10740   2.202   8.859   2.397
 6690W        W10741   7.595   1.919   9.212
 6691W        W10742   9.306   4.841  10.066
 6692W        W10743   7.139   7.435   9.039
 6693W        W10744  10.899  10.922   2.993
 6694W        W10745   7.977   2.330   9.695
 6695W        W10746   3.716   6.618  10.813
 6696W        W10747   7.904  10.800   3.475
 6697W        W10748   3.937  10.285  11.355
 6698W        W10749   5.397   8.480  10.949
 6699W        W10750   0.580   9.066  10.193
 6700W        W10751   0.245   3.166   2.291
 6701W        W10752   6.097   2.504  11.007
 6702W        W10753  10.638   8.393   1.359
 6703W        W10754   3.211  11.487   9.196
 6704W        W10755  10.133   4.218   9.121
 6705W        W10756   6.824   1.756   2.436
 6706W        W10757   0.841   4.583  10.491
 6707W        W10758   5.751   2.858   2.830
 6708W        W10759   9.976   2.729   0.183
 6709W        W10760   3.888   7.264   2.801
 6710W        W10761  10.210   0.388   3.571
 6711W        W10762   7.367   1.068   2.376
 6712W        W10763   7.938   3.309  11.152
 6713W        W10764   0.823   7.377   0.810
 6714W        W10765   1.860   3.120  10.168
 6715W        W10766   1.804   6.417   0.373
 6716W        W10767   5.561   1.902  11.992
 6717W        W10768   2.366   9.585  10.658
 6718W        W10769   6.180   2.516  11.516
 6719W        W10770   4.522   6.112   1.289
 6720W        W10771   4.742  11.492   0.421
 6721W        W10772   9.027   7.366  10.412
 6722W        W10773   1.634  11.004  11.533
 6723W        W10774   4.165   9.543  11.484
 6724W        W10775   6.269   8.741   2.202
 6725W        W10776   3.654   0.882  10.414
 6726W        W10777   0.939   6.263  11.818
 6727W        W10778   8.829   7.610   8.836
 6728W        W10779   5.341   4.463   0.940
 6729W        W10780  10.007   3.267   8.749
 6730W        W10781   8.063   1.918  11.561
 6731W        W10782   9.550   9.274   3.193
 6732W        W10783   5.575   4.610   1.904
 6733W        W10784   5.848   7.087   9.203
 6734W        W10785   3.411   1.945   2.163
 6735W        W10786   8.414   5.903   9.906
 6736W        W10787   8.377   8.397   9.552
 6737W        W10788   0.212   4.083   1.372
 6738W        W10789   6.110   1.610   9.056
 6739W        W10790   4.775   7.961   1.108
 6740W        W10791   8.952   9.147   3.506
 6741W        W10792  10.006   7.973   1.529
 6742W        W10793   6.805  10.861   2.214
 6743W        W10794   9.477   3.389   8.760
 6744W        W10795   8.578   0.107   3.863
 6745W        W10796   2.959   0.690   0.265
 6746W        W10797   6.025   2.150   9.939
 6747W        W10798   4.916   2.641   1.805
 6748W        W10799   7.040   8.643   9.522
 6749W        W10800   7.801  10.385  11.438
 6750W        W10801   5.696   0.732   2.731
 6751W        W10802  11.393   5.194   9.892
 6752W        W10803   7.445  10.033  11.623
 6753W        W10804   7.116  11.173   1.320
 6754W        W10805  11.374   3.833  11.359
 6755W        W10806   9.862   9.997  11.925
 6756W        W10807   7.142   8.897   0.474
 6757W        W10808   2.144   4.993  11.751
 6758W        W10809   4.710   8.908   2.806
 6759W        W10810   2.708   9.497   1.676
 6760W        W10811  10.758   7.705   2.223
 6761W        W10812   1.752   2.690   9.888
 6762W        W10813   5.385   9.369   9.922
 6763W        W10814   2.338  10.053  11.382
 6764W        W10815  11.428   8.122   0.902
 6765W        W10816   8.190   1.182   0.620
 6766W        W10817   9.973   7.608   0.323
 6767W        W10818   5.116   7.240  10.927
 6768W        W10819   3.529   6.923   2.794
 6769W        W10820   8.640   3.043   1.242
 6770W        W10821   7.768   3.594   1.259
 6771W        W10822   1.375   7.171  11.562
 6772W        W10823   0.905   3.803   0.439
 6773W        W10824   2.797   2.852   1.007
 6774W        W10825  10.316  11.019  11.873
 6775W        W10826   6.513   2.335  10.758
 6776W        W10827   9.474   6.935   9.702
 6777W        W10828   4.761   9.910  10.951
 6778W        W10829   6.654   0.851   3.889
 6779W        W10830  10.511   7.280   1.328
 6780W        W10831  11.328   0.151   9.583
 6781W        W10832   5.191   9.010  10.750
 6782W        W10833   2.349   1.969  10.514
 6783W        W10834   5.063   9.365   2.434
 6784W        W10835   3.109   5.123   3.812
 6785W        W10836  11.304   5.264   0.503
 6786W        W10837   8.162   6.003   8.454
 6787W        W10838   9.706   0.555   1.747
 6788W        W10839  10.494   3.876  10.904
 6789W        W10840   1.200   6.693   8.708
 6790W        W10841   2.104   7.609   3.663
 6791W        W10842   4.476   1.440  10.692
 6792W        W10843   6.046   7.545  10.282
 6793W        W10844   2.702   7.512   9.345
 6794W        W10845   4.383  10.693   9.389
 6795W        W10846   4.795   7.181  10.347
 6796W        W10847   7.894  10.356   1.571
 6797W        W10848   7.950   1.240   1.417
 6798W        W10849   7.148   6.796   2.659
 6799W        W10850   9.197   8.420   1.258
 6800W        W10851   5.758   2.639   0.460
 6801W        W10852   1.885   2.150  10.486
 6802W        W10853   3.034   2.485  11.039
 6803W        W10854  10.414   7.420   2.937
 6804W        W10855  11.090   0.454   1.418
 6805W        W10856   5.893   4.280  11.378
 6806W        W10857   7.509   5.353   1.368
 6807W        W10858   7.188   9.440   2.908
 6808W        W10859   9.371   8.864   1.489
 6809W        W10860   5.696  10.742   3.423
 6810W        W10861   7.912   2.380   9.187
 6811W        W10862   3.709   7.023   0.030
 6812W        W10863   2.250  11.108   1.867
 6813W        W10864  11.422   0.526   0.955
 6814W        W10865   3.276   8.885   1.034
 6815W        W10866   7.351   6.959   8.884
 6816W        W10867   8.912   7.622   9.990
 6817W        W10868  10.502   9.081   8.727
 6818W        W10869   4.828   6.674  11.273
 6819W        W10870   0.386   4.879   1.624
 6820W        W10871   2.433   6.453  11.456
 6821W        W10872   9.462   9.774   2.887
 6822W        W10873   8.794   5.760  11.900
 6823W        W10874  10.881   0.354   9.406
 6824W        W10875   5.000   7.487   0.956
 6825W        W10876   2.327  10.336   0.925
 6826W        W10877  10.340   6.289   1.237
 6827W        W10878   5.316   9.793   0.219
 6828W        W10879  11.267   4.692   3.285
 6829W        W10880   5.235   0.802  11.784
 6830W        W10881   5.127   2.591   3.617
 6831W        W10882   5.745   4.084  10.741
 6832W        W10883   9.389  10.309   2.893
 6833W        W10884   1.822   7.801   2.683
 6834W        W10885  10.765   7.089   0.910
 6835W        W10886   9.881   4.740   0.211
 6836W        W10887   9.939   1.223   2.081
 6837W        W10888   3.190   4.752   0.905
 6838W        W10889   2.969   3.433  11.756
 6839W        W10890   0.653  10.446   0.085
 6840W        W10891   6.677   8.684   2.682
 6841W        W10892   8.474   9.482  10.133
 6842W        W10893   1.813   5.532   2.998
 6843W        W10894  11.413   2.906   2.693
 6844W        W10895   5.484  11.312   9.404
 6845W        W10896   9.026   9.927   0.901
 6846W        W10897   8.401   3.465  10.929
 6847W        W10898   6.534   1.656  10.183
 6848W        W10899   0.813   5.327  11.894
 6849W        W10900   2.689   8.164   1.325
 6850W        W10901   9.399   4.215  10.349
 6851W        W10902   7.499   6.695   0.336
 6852W        W10903  10.008   3.740   1.097
 6853W        W10904   2.162   7.403  10.576
 6854W        W10905   9.234   7.902   9.732
 6855W        W10906   8.478   9.891   9.826
 6856W        W10907   2.694   3.790  11.998
 6857W        W10908   1.009   0.708  10.859
 6858W        W10909  10.544  10.332   9.638
 6859W        W10910   6.255   1.297   8.671
 6860W        W10911   0.504   6.012   3.083
 6861W        W10912   0.812   4.558   9.547
 6862W        W10913   7.452   1.396   1.378
 6863W        W10914   9.403   5.832  11.317
 6864W        W10915  10.852   1.338  11.627
 6865W        W10916   8.896   4.789  11.787
 6866W        W10917   2.529   3.323  10.854
 6867W        W10918   6.377   1.371  10.924
 6868W        W10919   7.492   7.364   0.803
 6869W        W10920   1.338  10.922   2.328
 6870W        W10921   8.895   7.408   3.293
 6871W        W10922   5.485  10.561   2.439
 6872W        W10923   4.131  10.369  11.825
 6873W        W10924   1.360   1.806   9.955
 6874W        W10925   3.784   4.152   2.798
 6875W        W10926   5.049   6.040   0.003
 6876W        W10927   9.448   8.397   2.655
 6877W        W10928   7.668   5.557   2.200
 6878W        W10929   1.246   9.986   3.308
 6879W        W10930   5.527   7.520   0.908
 6880W        W10931  10.412  10.017   3.111
 6881W        W10932   4.267   5.236   0.558
 6882W        W10933   4.255   2.203   9.262
 6883W        W10934   8.925   7.157   2.826
 6884W        W10935   5.766   3.678  11.483
 6885W        W10936   7.907   2.754   1.688
 6886W        W10937   3.205   2.350  11.510
 6887W        W10938   7.480  10.011   1.810
 6888W        W10939   2.334   6.657   9.126
 6889W        W10940   9.055   9.527   1.748
 6890W        W10941   4.109  10.306   9.216
 6891W        W10942   3.166   6.191   1.785
 6892W        W10943   1.695   8.138  11.443
 6893W        W10944   6.110   0.222   1.390
 6894W        W10945   2.941   3.323   2.286
 6895W        W10946   4.195  11.455   8.914
 6896W        W10947   8.971   8.686   3.258
 6897W        W10948   7.160   8.152  10.368
 6898W        W10949   7.303   2.220   1.205
 6899W        W10950  10.088   8.085   9.894
 6900W        W10951   5.674   1.771   0.501
 6901W        W10952   0.837  11.336  10.907
 6902W        W10953   0.674  10.746   9.418
 6903W        W10954   3.315  11.220   2.606
 6904W        W10955   0.301   7.907   9.040
 6905W        W10956   2.011   7.596  10.123
 6906W        W10957   4.699   1.887  10.495
 6907W        W10958   7.558  10.440   1.178
 6908W        W10959   5.282   8.859   9.903
 6909W        W10960   7.185   5.346   0.703
 6910W        W10961   8.014   7.461   0.428
 6911W        W10962   5.594   3.125   0.387
 6912W        W10963  10.953   8.947  10.995
 6913W        W10964   3.665  10.439   9.419
 6914W        W10965   8.059   6.331   9.275
 6915W        W10966  10.287   1.993  10.571
 6916W        W10967   2.816   5.689   3.747
 6917W        W10968   6.112   0.268   0.057
 6918W        W10969   2.355   0.920  11.258
 6919W        W10970   8.126  10.327  11.003
 6920W        W10971   2.682  10.155  10.492
 6921W        W10972   1.432   1.509  10.841
 6922W        W10973   9.536   0.333  11.327
 6923W        W10974   7.164   9.195   9.099
 6924W        W10975   3.332   5.241   0.929
 6925W        W10976   9.888   7.227   0.004
 6926W        W10977   7.506   1.799   0.989
 6927W        W10978   6.905   7.422  10.825
 6928W        W10979  11.214   4.734  11.405
 6929W        W10980   9.275   7.602   2.084
 6930W        W10981   2.835   9.938  10.936
 6931W        W10982   7.474  10.113   3.609
 6932W        W10983  10.818   5.503   0.379
 6933W        W10984  10.464   8.837  10.760
 6934W        W10985   0.863  11.475   2.735
 6935W        W10986  11.063   3.376  11.279
 6936W        W10987  10.736   5.103   2.768
 6937W        W10988   4.263  10.010   0.167
 6938W        W10989   8.073  11.078  11.410
 6939W        W10990   0.288   6.749   9.634
 6940W        W10991   9.736   9.485   9.633
 6941W        W10992   7.369   2.439  10.401
 6942W        W10993   5.283   4.326   3.159
 6943W        W10994   2.666  11.337   9.884
 6944W        W10995   3.455   0.989  10.874
 6945W        W10996   1.619   5.713   9.011
 6946W        W10997   1.638   4.027   9.144
 6947W        W10998   8.429   9.244   1.435
 6948W        W10999   3.387   4.713   1.498
 6949W        W11000   1.641   6.881   1.154
 6950W        W11001   6.811   8.816   9.942
 6951W        W11002   9.827   9.455   1.205
 6952W        W11003   9.016   9.942   1.430
 6953W        W11004   3.112   3.838   2.320
 6954W        W11005   7.335   2.679  10.838
 6955W        W11006   8.423   5.228  10.466
 6956W        W11007   8.367   8.554   0.863
 6957W        W11008   7.490   5.676   0.460
 6958W        W11009  11.320   0.282   3.515
 6959W        W11010   8.006   0.730   1.339
 6960W        W11011   0.453   4.013  10.914
 6961W        W11012  10.910   2.460  10.976
 6962W        W11013   6.525   7.696   9.649
 6963W        W11014   4.294   1.349   8.972
 6964W        W11015   6.071   5.004   9.623
 6965W        W11016   5.257   1.657   1.249
 6966W        W11017   5.820  10.039   9.099
 6967W        W11018   6.360  11.430  10.440
 6968W        W11019   4.384   5.614   1.378
 6969W        W11020   8.851   0.961  11.964
 6970W        W11021   3.317   2.227   8.749
 6971W        W11022   9.937   5.996   8.860
 6972W        W11023   7.516   1.703  10.951
 6973W        W11024   3.813  11.417   9.988
 6974W        W11025  10.241   5.344  11.010
 6975W        W11026   7.479   1.376   1.881
 6976W        W11027   9.800   7.496   2.301
 6977W        W11028   5.533   8.543  11.993
 6978W        W11029   5.781  11.029   9.699
 6979W        W11030   6.208   4.070   9.950
 6980W        W11031   5.481  11.417  11.775
 6981W        W11032   8.536   0.799   0.700
 6982W        W11033   5.731   8.891   9.094
 6983W        W11034   9.556  11.286   9.776
 6984W        W11035   2.763   0.737   3.207
 6985W        W11036   4.526   9.281  10.241
 6986W        W11037   6.638   5.185  11.064
 6987W        W11038   4.763   3.310   2.313
 6988W        W11039   2.432   5.181   9.951
 6989W        W11040  11.237   6.503   1.827
 6990W        W11041   2.872   1.958   2.156
 6991W        W11042   3.735   6.244  10.177
 6992W        W11043  11.275   7.375  10.147
 6993W        W11044   4.651  11.427   3.461
 6994W        W11045  10.310   2.012   1.236
 6995W        W11046   9.516   0.451   8.988
 6996W        W11047   8.308   0.674   9.826
 6997W        W11048   4.105  10.219   3.763
 6998W        W11049   1.194   4.564  11.690
 6999W        W11050   5.114   7.088   9.946
 7000W        W11051   6.336  11.140   0.652
 7001W        W11052   2.670   1.391  11.763
 7002W        W11053  10.333   9.533   8.493
 7003W        W11054   9.056   2.796   8.912
 7004W        W11055   1.915   0.108   9.001
 7005W        W11056   7.590   1.054   8.944
 7006W        W11057   3.775   2.867  11.839
 7007W        W11058   6.943   4.057   9.489
 7008W        W11059   2.752   2.941  10.080
 7009W        W11060   0.295   4.032   9.830
 7010W        W11061  10.171   1.939   0.746
 7011W        W11062   1.750  10.840   3.153
 7012W        W11063   8.957   4.141  10.692
 7013W        W11064   2.045   6.347   3.449
 7014W        W11065   2.745  11.189   1.688
 7015W        W11066  10.297   5.684   0.373
 7016W        W11067  10.837   1.337   1.566
 7017W        W11068   9.860   1.180   0.425
 7018W        W11069   1.029   7.039   0.469
 7019W        W11070   0.975   4.968   2.756
 7020W        W11071   7.288   7.148  10.590
 7021W        W11072  11.427   1.050   0.905
 7022W        W11073   2.921  11.285   0.117
 7023W        W11074   5.767   6.685   2.253
 7024W        W11075   1.847   0.890  11.274
 7025W        W11076   4.020   8.382  11.210
 7026W        W11077   7.354   2.346   0.290
 7027W        W11078   0.843   4.647   0.450
 7028W        W11079   1.324   9.806   8.904
 7029W        W11080   8.611   2.961   9.137
 7030W        W11081   6.743   9.013   3.419
 7031W        W11082   4.303   5.659   0.853
 7032W        W11083   6.089   3.671  10.665
 7033W        W11084   5.525   6.291   1.176
 7034W        W11085   4.973   3.641   8.677
 7035W        W11086   5.989   9.984   9.601
 7036W        W11087   6.443  10.882   1.835
 7037W        W11088  11.347   1.693   2.613
 7038W        W11089   7.610   2.767   0.432
 7039W        W11090   0.313   8.138   2.217
 7040W        W11091   9.048   4.628   9.108
 7041W        W11092   1.414  10.814   8.850
 7042W        W11093   7.816   0.221   2.223
 7043W        W11094   3.408   8.969   0.543
 7044W        W11095   7.951   3.663   0.785
 7045W        W11096   5.124   9.748  10.120
 7046W        W11097   8.743   0.913   1.966
 7047W        W11098   9.991  11.177   2.796
 7048W        W11099   5.657   1.269   3.498
 7049W        W11100   5.991   8.941  11.506
 7050W        W11101   5.617   4.657   2.406
 7051W        W11102   8.372   0.757   0.203
 7052W        W11103   8.077   5.837   3.657
 7053W        W11104   0.625   0.908   9.074
 7054W        W11105   2.848   4.225  11.710
 7055W        W11106  11.199   5.981   2.809
 7056W        W11107   7.507   8.029   1.584
 7057W        W11108   5.365   0.317  10.524
 7058W        W11109   5.715   6.593   9.157
 7059W        W11110   7.868   7.882   2.063
 7060W        W11111   8.902  10.411  10.336
 7061W        W11112   7.915  10.792  11.792
 7062W        W11113  10.992   0.319   0.541
 7063W        W11114   3.568   3.998  10.551
 7064W        W11115  10.165   1.452   0.912
 7065W        W11116   9.989   6.509  10.422
 7066W        W11117   4.172   2.710   3.526
 7067W        W11118   6.581   1.787   8.909
 7068W        W11119   5.718   8.178   9.529
 7069W        W11120   3.220   9.355   1.799
 7070W        W11121   7.532  11.466   1.203
 7071W        W11122   1.722   8.646   3.252
 7072W        W11123   7.337   8.344  11.772
 7073W        W11124   6.795  10.399  11.323
 7074W        W11125   0.838   8.540  10.783
 7075W        W11126   5.764  11.448   0.240
 7076W        W11127   6.716   6.340  11.760
 7077W        W11128   9.764   8.254   3.633
 7078W        W11129   5.766   8.831   0.948
 7079W        W11130  10.532   5.527   0.841
 7080W        W11131   9.102  10.417   3.319
 7081W        W11132   7.881  10.954   9.647
 7082W        W11133   6.629  10.896   9.238
 7083W        W11134   2.448   7.048  10.334
 7084W        W11135  10.751   0.308   0.081
 7085W        W11136   6.645   9.136  10.861
 7086W        W11137   4.068   2.841   2.045
 7087W        W11138   8.152   9.860   1.394
 7088W        W11139   5.090   4.527   2.233
 7089W        W11140   0.891   4.147   1.699
 7090W        W11141   6.889   2.501   9.985
 7091W        W11142   2.618   4.912  10.385
 7092W        W11143   8.262   0.357  11.836
 7093W        W11144   7.647   9.044   9.207
 7094W        W11145   3.731   5.736   0.181
 7095W        W11146  10.361   6.098   3.222
 7096W        W11147   0.039  10.812   1.374
 7097W        W11148   4.719   0.344   9.939
 7098W        W11149   5.991   3.357   8.570
 7099W        W11150   8.429  10.507   0.941
 7100W        W11151   4.713   4.126   0.435
 7101W        W11152   0.003   1.806   1.165
 7102W        W11153  10.807   7.348   2.580
 7103W        W11154   5.607   9.399   9.008
 7104W        W11155   1.426   9.131   0.143
 7105W        W11156   9.371   0.466  10.341
 7106W        W11157   2.630   7.056  11.195
 7107W        W11158   2.843  10.921  11.755
 7108W        W11159   2.109   7.323   9.389
 7109W        W11160   1.665   9.675   0.753
 7110W        W11161   0.976  10.118  11.020
 7111W        W11162   9.990   2.862  11.694
 7112W        W11163   2.351   1.556   9.616
 7113W        W11164   8.588   3.357   1.634
 7114W        W11165   0.160  10.507   2.806
 7115W        W11166  11.402   8.467   2.246
 7116W        W11167   8.450   7.104   9.417
 7117W        W11168   5.255   1.602   2.627
 7118W        W11169   9.854   6.127   3.066
 7119W        W11170   7.965   6.958   3.078
 7120W        W11171   6.993   6.566   8.820
 7121W        W11172   1.759   6.460   0.875
 7122W        W11173   6.541   1.823  10.669
 7123W        W11174   2.725   5.729  10.735
 7124W        W11175   6.079  11.299  10.849
 7125W        W11176   1.099   5.743  10.061
 7126W        W11177   1.254   8.869  10.032
 7127W        W11178   5.045   2.948   0.934
 7128W        W11179   0.740   6.508  11.351
 7129W        W11180   8.455   1.144   1.608
 7130W        W11181   7.853   7.416   2.298
 7131W        W11182   2.817   2.578   3.324
 7132W        W11183   5.560   1.343  11.829
 7133W        W11184   2.009   7.678  11.424
 7134W        W11185   8.434   0.748  11.157
 7135W        W11186   0.488   6.724  10.521
 7136W        W11187   1.960  11.148   1.169
 7137W        W11188   0.245  11.103  10.267
 7138W        W11189   4.001   4.562   9.556
 7139W        W11190  10.886   9.038   0.038
 7140W        W11191   5.095   5.565  11.768
 7141W        W11192   9.862   5.279   3.026
 7142W        W11193   6.633   9.606   8.471
 7143W        W11194  10.027   1.785   9.774
 7144W        W11195   4.695   5.717   0.536
 7145W        W11196   1.321   8.388  10.213
 7146W        W11197   8.392  11.284   9.288
 7147W        W11198   3.123   1.017  10.095
 7148W        W11199   8.605   5.782   8.247
 7149W        W11200   3.557   4.161   9.240
 7150W        W11201   2.338  10.055  10.863
 7151W        W11202   1.763   5.032   9.415
 7152W        W11203   8.056   5.994  10.250
 7153W        W11204   6.962   0.948   2.112
 7154W        W11205   5.254   0.909   2.929
 7155W        W11206   4.619   3.220   0.841
 7156W        W11207   3.521   0.068  11.452
 7157W        W11208   8.058   0.078  11.402
 7158W        W11209   4.612   0.308   8.586
 7159W        W11210   8.509   7.640   0.409
 7160W        W11211  10.309   2.713   1.378
 7161W        W11212   8.570   1.181  11.379
 7162W        W11213   5.339  11.415   3.156
 7163W        W11214   4.905   0.673   3.208
 7164W        W11215  10.051   8.462   9.378
 7165W        W11216   4.141   1.855   8.758
 7166W        W11217   5.164   8.281   1.277
 7167W        W11218   3.326  10.805   2.232
 7168W        W11219   5.125   9.107   1.541
 7169W        W11220   6.760  10.904   0.077
 7170W        W11221   1.616   9.004  10.874
 7171W        W11222  11.350   1.905  11.666
 7172W        W11223   2.610   5.730   1.369
 7173W        W11224   8.614   4.084   0.483
 7174W        W11225   3.359   5.229   1.456
 7175W        W11226   6.875   4.574  11.255
 7176W        W11227  10.812   2.748   0.738
 7177W        W11228   6.520  11.134   3.051
 7178W        W11229   5.099   3.100  11.084
 7179W        W11230   9.416  10.875   0.100
 7180W        W11231   3.774   7.982  10.508
 7181W        W11232   7.153   7.050   0.060
 7182W        W11233   1.479   8.541   9.202
 7183W        W11234   3.870   1.871   1.298
 7184W        W11235   1.185   6.725  11.740
 7185W        W11236   5.209   1.441   0.758
 7186W        W11237   4.743   8.695   1.918
 7187W        W11238   3.352   8.798   8.624
 7188W        W11239   1.266   4.668   0.179
 7189W        W11240   7.231   8.399  10.809
 7190W        W11241   0.667   1.469  10.412
 7191W        W11242   2.623   8.652   1.214
 7192W        W11243   7.015   1.702  10.332
 7193W        W11244   5.061  10.803   0.512
 7194W        W11245   2.650   2.351   2.459
 7195W        W11246  10.779   4.222   2.787
 7196W        W11247   4.677   6.128   1.813
 7197W        W11248   8.806   3.650   1.223
 7198W        W11249   5.519   3.278   2.664
 7199W        W11250   1.808   5.543   9.450
 7200W        W11251   4.448   2.154   2.854
 7201W        W11252   6.153   3.121   8.981
 7202W        W11253   6.553   5.635   1.744
 7203W        W11254   3.604  11.247  10.959
 7204W        W11255   3.364   7.141  10.483
 7205W        W11256   3.814   2.609  10.361
 7206W        W11257  11.409   4.345   9.212
 7207W        W11258   9.462   5.032   0.410
 7208W        W11259   6.537   5.685  11.286
 7209W        W11260   8.713   6.627   8.793
 7210W        W11261   0.607   1.239   9.942
 7211W        W11262   4.306   4.574  10.813
 7212W        W11263   1.044   7.873   3.399
 7213W        W11264   4.146   2.533  11.953
 7214W        W11265   5.742   7.520   8.934
 7215W        W11266   8.096   3.699   9.616
 7216W        W11267   0.375   4.905  11.764
 7217W        W11268   0.847   9.034  10.631
 7218W        W11269   6.965   0.856   2.623
 7219W        W11270   0.203   7.645  10.073
 7220W        W11271   3.819   2.084  11.430
 7221W        W11272   7.024  11.467   2.312
 7222W        W11273   9.147   3.303   2.774
 7223W        W11274   4.078   1.720   9.251
 7224W        W11275   9.433   2.421   9.713
 7225W        W11276   5.202   6.762   9.146
 7226W        W11277   6.121   6.242   9.395
 7227W        W11278   0.230   6.612   0.052
 7228W        W11279   2.237   0.203   1.033
 7229W        W11280   5.511  10.263  10.763
 7230W        W11281   4.923   0.188   3.140
 7231W        W11282   2.193   1.977   3.181
 7232W        W11283   0.771  11.204  11.807
 7233W        W11284   7.973  10.924   2.805
 7234W        W11285   8.650   1.340   0.737
 7235W        W11286   0.549   9.720   0.594
 7236W        W11287   7.026   7.609   9.534
 7237W        W11288   0.120   5.270   0.087
 7238W        W11289   4.685   6.179  11.240
 7239W        W11290   3.845  10.979  11.925
 7240W        W11291   4.557   7.583  10.043
 7241W        W11292   8.397   9.934   3.655
 7242W        W11293   3.583   1.300  10.135
 7243W        W11294   2.766   9.935   1.987
 7244W        W11295   2.145   5.132  10.353
 7245W        W11296   1.792   3.562  11.460
 7246W        W11297   8.552   8.876   9.398
 7247W        W11298   6.491   7.098   1.940
 7248W        W11299   2.613   0.932   9.971
 7249W        W11300   2.674   1.842   2.629
 7250W        W11301   0.210   0.005   1.904
 7251W        W11302   4.080   3.607  10.478
 7252W        W11303   3.714   6.107   8.374
 7253W        W11304   3.319   4.764  10.063
 7254W        W11305   0.424   6.673   1.146
 7255W        W11306   0.769   3.152  11.022
 7256W        W11307   8.623   8.913  11.019
 7257W        W11308   1.747   8.971  11.802
 7258W        W11309   8.326   1.088   1.101
 7259W        W11310   2.527   5.644   8.708
 7260W        W11311   7.420   0.465   3.003
 7261W        W11312   2.724   8.858  10.044
 7262W        W11313   4.765   2.484  11.440
 7263W        W11314  10.869   2.925   2.524
 7264W        W11315   3.467  10.543   0.458
 7265W        W11316   6.213   5.495  11.762
 7266W        W11317   7.570   8.063  11.137
 7267W        W11318   8.861   8.499   0.865
 7268W        W11319   8.131   6.360   1.380
 7269W        W11320   9.990   0.303   9.175
 7270W        W11321   9.804   7.895   3.273
 7271W        W11322   5.096   8.270  11.961
 7272W        W11323   1.749   2.625   8.957
 7273W        W11324  10.333   8.890   2.746
 7274W        W11325   3.670   4.211   8.737
 7275W        W11326  10.357   2.172  11.403
 7276W        W11327   6.269  10.397   9.739
 7277W        W11328   2.336   3.838   8.625
 7278W        W11329   3.805   9.712   0.201
 7279W        W11330   4.079   0.378   2.468
 7280W        W11331  10.414   1.810   1.749
 7281W        W11332  10.951   2.561   2.133
 7282W        W11333   1.855   7.731   9.647
 7283W        W11334   0.417   0.405   1.559
 7284W        W11335   9.097   2.766  11.349
 7285W        W11336  10.840   6.166   9.219
 7286W        W11337   2.192   6.639   1.648
 7287W        W11338  10.290   7.928   3.087
 7288W        W11339  10.880   4.676  11.796
 7289W        W11340   6.781   5.816   1.282
 7290W        W11341   0.843   2.901  10.183
 7291W        W11342   2.744   9.910   9.985
 7292W        W11343  11.267   9.522   9.029
 7293W        W11344   8.940   2.552   3.247
 7294W        W11345   1.003   2.819  10.699
 7295W        W11346   7.505  11.293   2.205
 7296W        W11347   5.704   4.038   4.029
 7297W        W11348   0.898  11.358   0.519
 7298W        W11349   1.188   4.195   1.002
 7299W        W11350   8.462   0.967   9.451
 7300W        W11351  11.209   1.670   3.650
 7301W        W11352   3.703   1.290   1.910
 7302W        W11353   2.286   9.355  11.539
 7303W        W11354   7.071   2.002  11.360
 7304W        W11355   1.749   7.836   0.973
 7305W        W11356   9.112  10.794   1.281
 7306W        W11357  10.138  11.048  11.378
 7307W        W11358   1.374   4.111  11.027
 7308W        W11359   4.193   4.691   1.805
 7309W        W11360  10.517   8.424   1.852
 7310W        W11361   2.339   3.435   3.669
 7311W        W11362   6.759   1.373   3.274
 7312W        W11363   1.562  10.512   0.896
 7313W        W11364   5.466   8.404   0.874
 7314W        W11365   0.381  10.396  11.420
 7315W        W11366   4.994  11.087   1.985
 7316W        W11367   1.066   7.475   1.293
 7317W        W11368   2.048   5.167   1.254
 7318W        W11369   0.469   2.631   0.997
 7319W        W11370   5.660   4.655   2.973
 7320W        W11371   4.500   3.238   9.004
 7321W        W11372   9.904   4.203   0.885
 7322W        W11373   3.877   8.345  11.691
 7323W        W11374   4.231  10.575   1.954
 7324W        W11375   8.848   2.326  11.441
 7325W        W11376   6.224   9.240   0.288
 7326W        W11377   0.289   5.142   0.676
 7327W        W11378   5.703   2.812  10.490
 7328W        W11379   0.447  10.987  10.750
 7329W        W11380   0.461   2.123   9.871
 7330W        W11381   0.499   6.719   2.130
 7331W        W11382  10.421   1.963   9.074
 7332W        W11383   6.886   6.039  11.393
 7333W        W11384   9.032   0.342   1.328
 7334W        W11385   2.705   6.233   0.481
 7335W        W11386  11.367  10.228   0.251
 7336W        W11387   9.169   2.145   2.128
 7337W        W11388   1.171   7.917   2.362
 7338W        W11389   3.313   5.090  11.908
 7339W        W11390   6.491   4.514  10.511
 7340W        W11391   9.272   0.571   0.070
 7341W        W11392   1.761   9.044   9.267
 7342W        W11393   3.331   1.775   8.480
 7343W        W11394  10.031   0.964   0.849
 7344W        W11395   9.977   2.416   0.793
 7345W        W11396   0.680  11.244   9.519
 7346W        W11397   8.704   6.063   8.680
 7347W        W11398   7.918   4.254   9.813
 7348W        W11399   8.991  10.178  11.923
 7349W        W11400   6.951   0.838   9.726
 7350W        W11401   7.958   4.495  10.278
 7351W        W11402   9.607   2.922   8.960
 7352W        W11403  10.375   0.947   2.249
 7353W        W11404  11.332   6.147   9.462
 7354W        W11405   5.834   2.281   1.199
 7355W        W11406   6.554   0.218   2.359
 7356W        W11407   8.267   7.891   9.573
 7357W        W11408   8.040   7.141   0.008
 7358W        W11409   7.952  11.226   1.448
 7359W        W11410   2.777   4.979   0.734
 7360W        W11411   4.947   7.066   9.465
 7361W        W11412   4.684   4.771   2.019
 7362W        W11413   1.787   2.319   0.979
 7363W        W11414   0.316   5.754  10.338
 7364W        W11415   2.875   3.696   0.488
 7365W        W11416   4.990   1.786   8.806
 7366W        W11417  10.692   6.797   9.904
 7367W        W11418   2.261   0.256   0.514
 7368W        W11419   4.163   4.875  10.392
 7369W        W11420   2.012   5.398   0.789
 7370W        W11421   6.048   6.467  10.683
 7371W        W11422   8.748   9.560   0.674
 7372W        W11423   9.971   5.656   2.486
 7373W        W11424  10.342   7.450   0.675
 7374W        W11425   1.490  11.381  10.384
 7375W        W11426  10.690   9.642   0.669
 7376W        W11427   8.624   2.559   1.067
 7377W        W11428   4.287   9.963  11.168
 7378W        W11429   8.758   5.919  10.303
 7379W        W11430   8.424   3.826   0.885
 7380W        W11431   2.094   8.077   0.707
 7381W        W11432  11.147   3.584   3.279
 7382W        W11433   7.576  10.559   2.714
 7383W        W11434   9.004   8.582   2.262
 7384W        W11435   0.960   6.924   2.250
 7385W        W11436   7.644  11.313  11.642
 7386W        W11437  10.386   8.916   1.388
 7387W        W11438   3.760   7.104   1.965
 7388W        W11439   0.558   3.686   1.355
 7389W        W11440   3.538   0.738   9.938
 7390W        W11441   0.598   9.146   2.208
 7391W        W11442  11.414   8.630  10.894
 7392W        W11443   7.232   2.774   2.794
 7393W        W11444   8.727   8.394   1.476
 7394W        W11445   3.687   3.645   9.382
 7395W        W11446   4.717   5.721  11.011
 7396W        W11447   5.325   7.284   9.161
 7397W        W11448   7.417   0.581   2.501
 7398W        W11449   3.226   3.132   9.919
 7399W        W11450   9.797   0.502   3.138
 7400W        W11451   2.323   9.724   3.335
 7401W        W11452   7.816  10.598  10.590
 7402W        W11453   7.257   1.283   3.228
 7403W        W11454   1.368   0.260   1.424
 7404W        W11455   4.487   8.470   1.126
 7405W        W11456   5.744   2.820  11.548
 7406W        W11457   1.139   1.016   0.319
 7407W        W11458   6.561   8.121   1.856
 7408W        W11459   2.831   2.707   0.366
 7409W        W11460   9.487   1.950   9.525
 7410W        W11461   3.579   7.006  11.525
 7411W        W11462   0.752   6.059   9.476
 7412W        W11463  10.269   2.913  11.014
 7413W        W11464   3.575   3.185   9.106
 7414W        W11465   2.149   1.053   3.663
 7415W        W11466   5.491   7.564  11.907
 7416W        W11467  11.320   2.732   0.785
 7417W        W11468   6.542   6.653  10.230
 7418W        W11469   7.426  10.247  10.515
 7419W        W11470   6.082   5.086   1.542
 7420W        W11471   3.594   1.815  11.832
 7421W        W11472   1.803   3.578   0.417
 7422W        W11473   5.063   4.233   1.333
 7423W        W11474   3.255   4.704   2.004
 7424W        W11475   6.086   7.721   3.631
 7425W        W11476   7.560   4.478   9.519
 7426W        W11477   5.400   9.040   0.194
 7427W        W11478  10.782   5.586   1.688
 7428W        W11479   8.576   8.886   2.222
 7429W        W11480   9.341   3.638   1.308
 7430W        W11481   8.222   8.125  11.770
 7431W        W11482   2.422   7.408   1.503
 7432W        W11483   9.106   2.706   9.423
 7433W        W11484   2.340   9.976   8.996
 7434W        W11485   6.765   4.212   0.489
 7435W        W11486   8.940   1.008   0.480
 7436W        W11487   9.909  11.253   0.213
 7437W        W11488   5.928  10.655  11.422
 7438W        W11489   4.277   1.347   0.433
 7439W        W11490  10.016  10.309   9.470
 7440W        W11491   2.847   4.543   0.473
 7441W        W11492   8.633   2.550   1.573
 7442W        W11493   8.694   7.568   1.893
 7443W        W11494   4.008   8.055   3.002
 7444W        W11495   9.951   3.314   2.401
 7445W        W11496   0.385   5.025   8.879
 7446W        W11497   0.364   8.591   2.500
 7447W        W11498   9.409  10.360   1.879
 7448W        W11499  11.110   4.557   0.272
 7449W        W11500   2.144   3.235   0.175
 7450W        W11501   5.237   1.228  11.449
 7451W        W11502   9.862   2.328   3.377
 7452W        W11503   4.664  10.394  11.837
 7453W        W11504   5.643   4.802  10.567
 7454W        W11505   7.173   3.829   3.034
 7455W        W11506   4.296   4.724   9.936
 7456W        W11507   0.483   2.675   9.387
 7457W        W11508   9.617   5.699   2.869
 7458W        W11509  10.079   7.467   3.333
 7459W        W11510   2.042   8.747   8.501
 7460W        W11511   1.765   6.462   1.423
 7461W        W11512   4.040   5.942   1.178
 7462W        W11513   5.181   7.854  11.586
 7463W        W11514   2.188  11.287  10.008
 7464W        W11515   1.976   2.696  11.286
 7465W        W11516   8.569   1.578   1.859
 7466W        W11517   0.149   9.443   9.452
 7467W        W11518  10.033   6.138   0.184
 7468W        W11519   3.650   8.424  10.787
 7469W        W11520   6.343  10.730   0.331
 7470W        W11521  10.359   9.924   1.743
 7471W        W11522   7.633   0.009   1.713
 7472W        W11523   5.120   8.634  10.401
 7473W        W11524   8.159   3.888   0.374
 7474W        W11525   8.901   3.248  11.475
 7475W        W11526   7.645   5.611  11.086
 7476W        W11527   6.707   3.664  11.389
 7477W        W11528   8.149   0.401   9.428
 7478W        W11529   4.617   2.475   3.213
 7479W        W11530  10.050   6.173  10.814
 7480W        W11531   2.372   3.391   8.947
 7481W        W11532   8.469   4.992  10.017
 7482W        W11533  11.459   4.764   8.629
 7483W        W11534   8.568   8.320  10.911
 7484W        W11535   0.771   4.869   3.487
 7485W        W11536  10.191   5.832  11.476
 7486W        W11537   0.506   4.730   2.878
 7487W        W11538   0.386   8.531   3.017
 7488W        W11539   8.504  11.212   1.719
 7489W        W11540   9.008   5.047  11.191
 7490W        W11541   7.856   4.520  11.758
 7491W        W11542   7.520   6.976   3.381
 7492W        W11543   8.957   9.127   2.463
 7493W        W11544   5.108   4.031   9.024
 7494W        W11545   8.956   5.668   2.299
 7495W        W11546  11.232  10.134   1.921
 7496W        W11547   5.019  10.058  10.535
 7497W        W11548   4.649   6.998   1.598
 7498W        W11549   1.688   3.113  11.234
 7499W        W11550   0.881  10.421  10.076
 7500W        W11551   5.993   4.909   2.093
 7501W        W11552   2.260   1.150   0.029
 7502W        W11553   2.683   5.414  10.343
 7503W        W11554  10.968  10.093   3.136
 7504W        W11555   7.218   8.388   3.346
 7505W        W11556  11.492   0.280   0.503
 7506W        W11557   6.387   0.206   9.262
 7507W        W11558   3.765   2.655   1.602
 7508W        W11559   6.957   7.995   3.097
 7509W        W11560   9.863   1.034   8.644
 7510W        W11561   5.234   3.590  11.507
 7511W        W11562   6.420   0.973   1.343
 7512W        W11563   1.996   5.097   2.131
 7513W        W11564   4.438   6.523   1.594
 7514W        W11565   0.887   2.101   3.254
 7515W        W11566   2.788   6.437   9.229
 7516W        W11567   5.020   1.237  11.943
 7517W        W11568   6.935   5.657  11.744
 7518W        W11569   9.987   1.360   9.526
 7519W        W11570   0.830   2.407   2.179
 7520W        W11571   6.469   8.122   3.296
 7521W        W11572   5.033   3.445   3.967
 7522W        W11573   8.316   2.974  10.873
 7523W        W11574   9.426   7.649   0.484
 7524W        W11575   7.492  10.800   3.155
 7525W        W11576   6.466   6.115   1.528
 7526W        W11577   6.098   0.687  11.771
 7527W        W11578   8.138   3.291   0.461
 7528W        W11579   8.527   6.566   2.676
 7529W        W11580  11.319   2.272   1.854
 7530W        W11581   9.090   5.224   0.688
 7531W        W11582   5.522  10.955  11.497
 7532W        W11583   0.224   8.599   0.034
 7533W        W11584   9.525   8.663   0.301
 7534W        W11585   6.450   5.945   9.112
 7535W        W11586   5.274   7.481   8.688
 7536W        W11587   4.243   6.231  10.256
 7537W        W11588   5.126   3.098   3.592
 7538W        W11589   8.288   3.698   1.375
 7539W        W11590   8.409   9.717   2.100
 7540W        W11591   6.201  10.850  11.827
 7541W        W11592   4.294   9.111   0.337
 7542W        W11593   1.283  11.421   1.802
 7543W        W11594   1.730   3.218   8.632
 7544W        W11595   3.739   9.297   1.914
 7545W        W11596   3.135   4.064  10.282
 7546W        W11597   2.656   9.014   9.063
 7547W        W11598   4.094  11.375   9.411
 7548W        W11599   6.379  10.085  11.412
 7549W        W11600   4.726   0.070   2.385
 7550W        W11601   1.276   7.047   2.897
 7551W        W11602   7.651   9.538   1.969
 7552W        W11603   7.384  10.769  10.384
 7553W        W11604  10.352   0.432   2.340
 7554W        W11605   0.046   4.626   2.655
 7555W        W11606   5.417   6.019  11.668
 7556W        W11607   7.347   1.703   9.586
 7557W        W11608   8.169   3.304   1.080
 7558W        W11609   6.146   1.325   1.653
 7559W        W11610   5.264   0.938   0.735
 7560W        W11611   2.551   7.023   9.455
 7561W        W11612   2.977   5.822   3.130
 7562W        W11613   2.675  10.677  10.436
 7563W        W11614   6.253   2.857   9.467
 7564W        W11615   0.474   6.182   0.271
 7565W        W11616   5.010   8.374   9.989
 7566W        W11617   5.793   9.549   0.219
 7567W        W11618   7.917   7.654  10.859
 7568W        W11619   2.580   4.229   8.918
 7569W        W11620   8.614  11.298   0.675
 7570W        W11621   3.082   5.881   0.410
 7571W        W11622   2.528  10.374   2.037
 7572W        W11623   9.957   4.170  11.523
 7573W        W11624   6.745   8.546   3.178
 7574W        W11625  11.264   1.740  10.294
 7575W        W11626   0.820  11.025   2.401
 7576W        W11627   6.987  10.952  10.120
 7577W        W11628   6.636   4.283  10.077
 7578W        W11629  10.253   4.597  10.410
 7579W        W11630   8.135   4.786   2.660
 7580W        W11631   1.300   7.543   2.679
 7581W        W11632   9.846   4.281  10.586
 7582W        W11633   2.822   3.730  10.977
 7583W        W11634   0.492   5.055   1.151
 7584W        W11635   9.036   6.851  10.449
 7585W        W11636   8.979   3.210   9.568
 7586W        W11637   9.308   4.099  11.986
 7587W        W11638  11.259   4.230  11.684
 7588W        W11639   5.022   3.799   9.624
 7589W        W11640   4.053   2.055   0.868
 7590W        W11641   8.968   7.864   0.340
 7591W        W11642   3.458   5.236  10.874
 7592W        W11643   7.408   3.245   0.405
 7593W        W11644   2.212   7.661   1.910
 7594W        W11645   3.914   1.709   0.452
 7595W        W11646   4.227   6.709  10.840
 7596W        W11647   3.581   6.603   1.729
 7597W        W11648  10.612   9.560   2.341
 7598W        W11649   9.610   6.440  11.671
 7599W        W11650   6.140   4.424   3.153
 7600W        W11651   9.464   7.024   2.787
 7601W        W11652   0.364  10.208   0.443
 7602W        W11653   2.293   7.938   0.266
 7603W        W11654   9.139   6.858   8.613
 7604W        W11655  10.773   1.976  10.967
 7605W        W11656   2.806   3.297  11.289
 7606W        W11657   6.035  10.404   3.183
 7607W        W11658   2.236   8.056   2.901
 7608W        W11659   1.297   1.794   2.789
 7609W        W11660   2.882   5.976   9.033
 7610W        W11661  10.984   3.575   0.475
 7611W        W11662   9.535   4.785   2.753
 7612W        W11663  10.912   4.248   8.471
 7613W        W11664   2.707  11.350  10.806
 7614W        W11665   4.703   8.451   9.582
 7615W        W11666   1.669   6.747  11.479
 7616W        W11667   9.795   5.668   3.372
 7617W        W11668   6.644   2.893   0.179
 7618W        W11669   7.392   4.557  12.000
 7619W        W11670  10.119   3.563  10.395
 7620W        W11671   6.091  10.870   1.439
 7621W        W11672   8.845   5.072   9.323
 7622W        W11673   9.941   0.711   2.170
 7623W        W11674  11.221   9.904  11.870
 7624W        W11675   7.706   3.211   2.480
 7625W        W11676   8.882   8.011   1.764
 7626W        W11677   8.228   8.608   9.065
 7627W        W11678   6.898  10.214   0.970
 7628W        W11679  10.287   4.141  11.911
 7629W        W11680   3.411   2.853  11.071
 7630W        W11681  10.984   9.973   9.025
 7631W        W11682   3.676  11.278   9.078
 7632W        W11683   8.511   5.070  11.373
 7633W        W11684   3.358   7.526   1.558
 7634W        W11685   5.043   8.695   2.480
 7635W        W11686   9.284   9.618   9.433
 7636W        W11687   2.484   9.114  10.903
 7637W        W11688   4.275   4.837  11.248
 7638W        W11689  11.327   7.187   3.593
 7639W        W11690   2.845   2.167   9.004
 7640W        W11691   0.291   0.348  11.260
 7641W        W11692  11.287   3.387   9.573
 7642W        W11693   5.581   2.375   8.736
 7643W        W11694  10.328   7.556  10.744
 7644W        W11695   1.321  10.917   1.810
 7645W        W11696   7.629   3.597   9.428
 7646W        W11697  10.975  10.534   3.437
 7647W        W11698   5.900   0.953   1.367
 7648W        W11699  11.311   9.858  10.429
 7649W        W11700   5.163   4.062   2.741
 7650W        W11701   6.573   0.676   0.913
 7651W        W11702   9.319   0.267  10.848
 7652W        W11703   6.106   1.855   1.351
 7653W        W11704   3.328   4.507   2.928
 7654W        W11705   7.608   7.581  11.345
 7655W        W11706  10.718  10.877   9.433
 7656W        W11707   4.363   9.108   9.776
 7657W        W11708   5.386   3.218  10.274
 7658W        W11709   4.377   1.804   1.231
 7659W        W11710  11.321   1.906   0.692
 7660W        W11711   1.248   8.881   3.294
 7661W        W11712   8.826   4.627   9.995
 7662W        W11713   0.503   7.912   0.246
 7663W        W11714   7.646   5.854   1.328
 7664W        W11715   5.153   7.603   2.736
 7665W        W11716   3.833   7.926   0.009
 7666W        W11717   3.148   4.977  10.508
 7667W        W11718   4.662   3.536   1.862
 7668W        W11719   0.099   3.609   3.545
 7669W        W11720   5.379   4.130   1.717
 7670W        W11721   5.685   7.643   0.414
 7671W        W11722   7.050  10.884   9.529
 7672W        W11723   1.627   8.497  11.910
 7673W        W11724  10.413   8.646   8.472
 7674W        W11725   8.359   5.054   9.527
 7675W        W11726   7.159   6.088  11.857
 7676W        W11727   6.187   4.421   2.196
 7677W        W11728   6.960   3.249  11.563
 7678W        W11729   0.484   0.274   9.630
 7679W        W11730   8.098   4.972   8.254
 7680W        W11731   3.195   7.614  11.585
 7681W        W11732   4.986   0.745  10.269
 7682W        W11733   1.795   5.686  10.329
 7683W        W11734   8.913   5.047   8.822
 7684W        W11735  11.391  10.991   2.804
 7685W        W11736   4.395   8.105   2.660
 7686W        W11737   1.400   3.811   0.705
 7687W        W11738   7.880  10.767  11.070
 7688W        W11739   5.526   5.154   3.064
 7689W        W11740   1.365   7.181   8.959
 7690W        W11741   9.848   6.040   9.404
 7691W        W11742   7.360   4.344   8.756
 7692W        W11743   5.578   3.124   8.420
 7693W        W11744   0.868   2.500   3.708
 7694W        W11745   4.995   1.526   3.467
 7695W        W11746   6.554   4.056   2.261
 7696W        W11747   8.352   2.930   0.798
 7697W        W11748   3.161   9.403   3.129
 7698W        W11749   8.658   4.867   3.016
 7699W        W11750   4.099   3.715   2.688
 7700W        W11751  11.081  10.549  10.315
 7701W        W11752   8.183   9.811  10.926
 7702W        W11753   2.440  10.411   0.388
 7703W        W11754   7.940   8.945   0.109
 7704W        W11755   4.083   3.723   9.712
 7705W        W11756   1.167   7.435  10.341
 7706W        W11757   2.672   0.483   1.206
 7707W        W11758   9.952   4.989  11.246
 7708W        W11759   6.115  11.320   9.994
 7709W        W11760   7.474   2.217   9.605
 7710W        W11761   7.175   0.660   1.733
 7711W        W11762  11.461  11.064  11.101
 7712W        W11763   5.667   0.044   2.798
 7713W        W11764   5.177   5.042   1.533
 7714W        W11765   6.063   2.638   0.009
 7715W        W11766   0.545  11.478  10.530
 7716W        W11767   3.123   0.765  10.540
 7717W        W11768   7.086  10.672   1.201
 7718W        W11769   4.279   4.076  11.673
 7719W        W11770  11.456   9.376   9.938
 7720W        W11771   0.230   8.402   0.591
 7721W        W11772   2.392   2.947   0.535
 7722W        W11773   4.789   2.402  10.543
 7723W        W11774   0.386   4.334   2.224
 7724W        W11775   7.049   8.038   2.550
 7725W        W11776   5.727  10.067   2.947
 7726W        W11777   6.504   1.613   9.411
 7727W        W11778   1.434  10.818   9.813
 7728W        W11779   1.212   2.153   2.412
 7729W        W11780   0.986   6.251   9.929
 7730W        W11781  10.888   3.851  11.444
 7731W        W11782   4.766   8.883   3.326
 7732W        W11783   6.427   2.263   3.607
 7733W        W11784  10.644   1.225   0.914
 7734W        W11785   6.428   3.131   0.823
 7735W        W11786   5.580   7.312   9.971
 7736W        W11787   4.158   8.672   0.016
 7737W        W11788   2.218  10.484  10.537
 7738W        W11789  10.520   3.136   1.168
 7739W        W11790   1.086   2.723  11.865
 7740W        W11791  10.299   5.610   3.460
 7741W        W11792   5.176   5.634  10.061
 7742W        W11793   9.855   3.135  10.102
 7743W        W11794   5.264   2.098   9.081
 7744W        W11795   0.111   0.959   9.141
 7745W        W11796  10.022   6.470   9.060
 7746W        W11797  11.379   6.656   9.358
 7747W        W11798   2.560   4.535   3.388
 7748W        W11799   9.909   0.696   1.270
 7749W        W11800   6.938   7.917   8.956
 7750W        W11801   2.664   3.836   3.515
 7751W        W11802   2.018   9.308   0.795
 7752W        W11803   0.176   4.326  10.247
 7753W        W11804   0.606  11.246   3.151
 7754W        W11805   0.753   2.580   3.200
 7755W        W11806   5.269   0.855   1.939
 7756W        W11807   7.984  10.493   3.062
 7757W        W11808   5.177   7.527   1.804
 7758W        W11809  10.405  10.883  10.087
 7759W        W11810   1.808   0.200   0.222
 7760W        W11811   5.022   7.372  11.829
 7761W        W11812  10.834   9.278   8.392
 7762W        W11813   1.288   4.783   1.710
 7763W        W11814   8.340   4.500   9.945
 7764W        W11815   1.836   5.380  11.948
 7765W        W11816  11.003   5.527   2.683
 7766W        W11817   8.564  11.325  10.709
 7767W        W11818   2.240   0.428   2.414
 7768W        W11819   9.868   8.474  10.824
 7769W        W11820   8.343   7.638   0.909
 7770W        W11821   5.521   9.205   1.858
 7771W        W11822  10.240   6.066   1.675
 7772W        W11823   9.773   8.861  10.319
 7773W        W11824   0.437   3.598  10.606
 7774W        W11825   0.357   6.567   0.585
 7775W        W11826   5.447   0.371   2.457
 7776W        W11827  10.846   7.301   9.885
 7777W        W11828   4.471   2.824   2.400
 7778W        W11829   2.258   6.559   0.638
 7779W        W11830   5.829   8.065  10.259
 7780W        W11831   1.956   3.232   1.433
 7781W        W11832   6.907   2.101   3.529
 7782W        W11833   3.111   1.795   1.730
 7783W        W11834   6.499   3.497   3.691
 7784W        W11835   1.702   8.409  10.973
 7785W        W11836   4.062   5.692  11.337
 7786W        W11837   2.174   1.405   2.414
 7787W        W11838   8.251   1.438   9.521
 7788W        W11839  11.086   9.016  10.054
 7789W        W11840  10.635  10.425  10.124
 7790W        W11841  10.945   3.803   9.304
 7791W        W11842  11.390   3.611   9.121
 7792W        W11843   2.809   7.328   0.771
 7793W        W11844   7.452   8.089   2.973
 7794W        W11845   3.242  11.113   3.114
 7795W        W11846   0.419   7.050   0.790
 7796W        W11847   0.874   0.319   0.795
 7797W        W11848   9.659  10.391   9.843
 7798W        W11849   8.645   3.528   2.665
 7799W        W11850   0.487   8.348  10.487
 7800W        W11851   5.610   9.159  11.225
 7801W        W11852   3.118   1.642  11.831
 7802W        W11853   9.686  10.089   0.414
 7803W        W11854   3.505   6.686  10.318
 7804W        W11855   6.910   4.084   8.936
 7805W        W11856   1.325   5.476   0.056
 7806W        W11857   5.851   0.275  11.585
 7807W        W11858   9.551  10.788   1.580
 7808W        W11859   5.241   2.774   9.517
 7809W        W11860   8.471   8.538  10.070
 7810W        W11861   7.742   4.915   3.660
 7811W        W11862   1.365   2.836   1.407
 7812W        W11863  10.639  11.052  11.426
 7813W        W11864  10.291  11.468   8.854
 7814W        W11865   8.017   7.405   9.547
 7815W        W11866  11.291   1.829   0.176
 7816W        W11867   8.027   5.498   1.253
 7817W        W11868   9.587   7.441   3.077
 7818W        W11869   5.481  11.160   0.789
 7819W        W11870   7.425   4.782  11.546
 7820W        W11871   7.633   2.867  11.327
 7821W        W11872   3.457   9.069   3.614
 7822W        W11873   4.726   2.875   9.591
 7823W        W11874   8.962   3.791   0.204
 7824W        W11875   0.835   4.783  11.950
 7825W        W11876   6.248   1.295   3.220
 7826W        W11877  10.520   2.301   0.783
 7827W        W11878  10.123  10.447   3.195
 7828W        W11879   0.693  11.297  10.036
 7829W        W11880   4.779   4.179   2.446
 7830W        W11881  10.309   9.329   0.471
 7831W        W11882   8.091   6.350   3.700
 7832W        W11883   6.761   9.117   2.907
 7833W        W11884   1.482  11.262   1.347
 7834W        W11885   5.329   5.180  10.701
 7835W        W11886   0.013   1.232   2.327
 7836W        W11887   8.503   7.687  10.283
 7837W        W11888   3.378   3.791  11.056
 7838W        W11889   0.617   5.445   8.652
 7839W        W11890   6.817   9.862   2.777
 7840W        W11891   0.639   8.081  10.898
 7841W        W11892   5.934   6.064   1.378
 7842W        W11893   8.586   4.046   8.740
 7843W        W11894   9.610   9.876   2.211
 7844W        W11895   8.666   5.475  10.081
 7845W        W11896   9.102   2.766  10.850
 7846W        W11897   8.044   5.375  10.794
 7847W        W11898  10.407   2.462   9.167
 7848W        W11899   2.687   2.008   9.758
 7849W        W11900   1.104   1.414  11.554
 7850W        W11901   3.597  10.763   9.008
 7851W        W11902   6.357   0.310   1.853
 7852W        W11903   7.082  10.410  10.874
 7853W        W11904   0.749   2.303  11.814
 7854W        W11905   7.946   6.918   0.453
 7855W        W11906  10.002   0.471   0.745
 7856W        W11907   7.050   7.011   3.144
 7857W        W11908   0.358   6.498  10.961
 7858W        W11909   4.046   6.711   8.973
 7859W        W11910   3.363   0.373   8.880
 7860W        W11911   8.182   5.598   3.203
 7861W        W11912   0.020   7.904   0.443
 7862W        W11913   2.308   3.310   9.967
 7863W        W11914   7.478   0.771   9.739
 7864W        W11915   9.027   1.260   1.689
 7865W        W11916  11.360   2.135  11.163
 7866W        W11917   5.649   6.524  11.039
 7867W        W11918   4.945   6.787  11.769
 7868W        W11919   5.635   9.035   1.402
 7869W        W11920   6.989   8.344  11.265
 7870W        W11921   0.578   4.073  10.411
 7871W        W11922   2.574   4.688   9.917
 7872W        W11923   8.544   1.125   3.582
 7873W        W11924   3.713   8.856  10.502
 7874W        W11925   9.009   0.299  10.001
 7875W        W11926   5.872   2.189   0.271
 7876W        W11927   2.496   6.556  10.466
 7877W        W11928   5.866   0.086  10.446
 7878W        W11929   0.315   9.892   9.666
 7879W        W11930   0.851   2.310   8.961
 7880W        W11931  11.479   3.629  10.904
 7881W        W11932   5.642   2.453   2.159
 7882W        W11933   5.968   3.169  10.766
 7883W        W11934   9.409  10.139  11.565
 7884W        W11935   9.902   8.255  11.305
 7885W        W11936   0.399   0.774   9.520
 7886W        W11937   4.676   9.044   2.306
 7887W        W11938   2.306   3.771  10.762
 7888W        W11939   7.755   1.031  10.503
 7889W        W11940  10.901  10.482  10.909
 7890W        W11941   0.198   9.969   1.774
 7891W        W11942   7.987   5.997   0.507
 7892W        W11943   3.157  10.490   9.082
 7893W        W11944  10.147   3.282   0.857
 7894W        W11945   3.324  10.994   9.404
 7895W        W11946   4.478   1.888   9.615
 7896W        W11947  10.968   5.914  10.764
 7897W        W11948   5.388   8.471   3.652
 7898W        W11949   0.503   2.714  11.060
 7899W        W11950   5.601   2.872   8.882
 7900W        W11951  10.241   0.837  11.618
 7901W        W11952  10.559   1.478   8.928
 7902W        W11953   8.194   5.080   1.873
 7903W        W11954   6.021   8.110  11.456
 7904W        W11955   7.597   9.404  10.001
 7905W        W11956   6.679   3.131   1.915
 7906W        W11957  10.692   3.613   3.517
 7907W        W11958   9.625   1.982  10.029
 7908W        W11959   8.897   0.024  11.020
 7909W        W11960   9.604   3.103   3.015
 7910W        W11961   4.024   9.454   8.545
 7911W        W11962   4.353   1.805   0.209
 7912W        W11963  10.403  11.075  10.567
 7913W        W11964   7.670   7.668   2.765
 7914W        W11965   6.345   6.131  11.452
 7915W        W11966   7.638   7.046   9.695
 7916W        W11967   3.523   6.598   1.220
 7917W        W11968  10.998   7.599   9.506
 7918W        W11969   8.614   2.790  11.541
 7919W        W11970   8.869  11.279   9.092
 7920W        W11971  10.282   4.597  11.364
 7921W        W11972   5.358   3.214   3.134
 7922W        W11973   8.966  11.427   1.658
 7923W        W11974   4.044   6.834   1.647
 7924W        W11975   9.795   6.189  11.258
 7925W        W11976   4.195   1.039   3.158
 7926W        W11977   4.077   9.102  11.750
 7927W        W11978   3.776   9.741   0.712
 7928W        W11979  11.009   2.395   9.722
 7929W        W11980   9.270   8.505   8.989
 7930W        W11981  10.051   7.173  11.517
 7931W        W11982   5.274   9.851  10.956
 7932W        W11983   2.638   4.919   0.217
 7933W        W11984   9.518  10.311  10.735
 7934W        W11985   6.559   7.208   4.011
 7935W        W11986   5.925   8.363  10.885
 7936W        W11987   1.318   4.221   3.187
 7937W        W11988   1.718   0.682   2.541
 7938W        W11989   8.656   1.215  10.303
 7939W        W11990   4.305   6.056   2.170
 7940W        W11991   3.313   9.579  10.598
 7941W        W11992  11.003   4.299   1.977
 7942W        W11993   8.958   0.848   3.416
 7943W        W11994   9.713   5.146   9.118
 7944W        W11995   6.660   1.784   1.946
 7945W        W11996   9.139   1.222   2.681
 7946W        W11997   2.774   8.056   0.377
 7947W        W11998   1.285   7.151   0.909
 7948W        W11999   4.935  10.722   8.570
 7949W        W12000  11.290   5.704   0.221
 7950W        W12001   1.278   2.243  11.711
 7951W        W12002   5.337   8.263   8.233
 7952W        W12003   5.775   9.095   2.821
 7953W        W12004   9.341   7.245  11.217
 7954W        W12005   3.500   4.599   9.531
 7955W        W12006  10.986   5.338   9.384
 7956W        W12007  11.347   6.863   8.885
 7957W        W12008   9.164  10.876  11.281
 7958W        W12009  10.574  10.940   0.865
 7959W        W12010  10.567   6.307   9.905
 7960W        W12011  10.423   8.850   0.582
 7961W        W12012   6.588   7.674   3.553
 7962W        W12013   5.031  10.966   1.005
 7963W        W12014   2.274   4.177   0.986
 7964W        W12015   8.128   3.280   2.111
 7965W        W12016  10.133   2.380  11.826
 7966W        W12017   9.103   1.247  10.567
 7967W        W12018   9.017   0.283   9.091
 7968W        W12019   4.671   7.501   2.489
 7969W        W12020   3.375  10.714   2.734
 7970W        W12021   7.567   1.867   1.510
 7971W        W12022   5.760  11.361  11.295
 7972W        W12023   5.647   2.297  10.253
 7973W        W12024   9.902   7.007  10.514
 7974W        W12025   5.918   3.285   9.406
 7975W        W12026   8.881   7.562   2.403
 7976W        W12027   9.392   7.170   1.310
 7977W        W12028   2.197   0.517   2.906
 7978W        W12029   2.844   1.552   1.326
 7979W        W12030   2.336   4.728   9.433
 7980W        W12031   9.189   8.284   9.424
 7981W        W12032   4.120   4.309   3.137
 7982W        W12033   9.548  11.317  10.756
 7983W        W12034   7.972   4.885   9.894
 7984W        W12035   1.270   6.465  10.756
 7985W        W12036   7.909   4.778   0.186
 7986W        W12037   2.048   7.098   1.354
 7987W        W12038   1.032   2.470  10.319
 7988W        W12039   0.839   0.866   2.672
 7989W        W12040   6.123   1.985   0.756
 7990W        W12041   2.720   6.119   2.305
 7991W        W12042  10.480   5.686   2.386
 7992W        W12043   9.932  10.434   0.720
 7993W        W12044   7.474   8.557  11.326
 7994W        W12045   4.444   2.502   1.956
 7995W        W12046  11.195   0.016   1.748
 7996W        W12047   9.553   0.987   9.083
 7997W        W12048   8.855   0.388   0.843
 7998W        W12049   1.361   6.129   1.441
 7999W        W12050   2.259   8.999   9.448
 8000W        W12051  10.512   8.095   0.976
 8001W        W12052   9.405  11.364   0.214
 8002W        W12053   6.600  10.442   1.984
 8003W        W12054   0.352   3.996  11.407
 8004W        W12055  10.278   5.480   7.968
 8005W        W12056  11.303   0.636   9.385
 8006W        W12057   1.807   7.203  11.287
 8007W        W12058   8.706   5.121   1.790
 8008W        W12059  10.057   5.547  10.158
 8009W        W12060   2.219   5.655   1.693
 8010W        W12061   4.187   4.530   4.023
 8011W        W12062   0.728   9.880   1.773
 8012W        W12063   9.321   6.730   1.558
 8013W        W12064   8.139   4.331  10.964
 8014W        W12065   6.026   5.358   3.049
 8015W        W12066   9.857   8.965   1.377
 8016W        W12067  10.141   0.814  11.095
 8017W        W12068   2.389   6.139   9.970
 8018W        W12069   6.066  10.305  11.758
 8019W        W12070   7.661   7.105  10.207
 8020W        W12071   9.469   0.836   3.386
 8021W        W12072   6.430   2.422   9.748
 8022W        W12073   7.653  10.381   2.119
 8023W        W12074   9.057   8.783   9.372
 8024W        W12075   8.628   3.355   0.836
 8025W        W12076   3.581   6.048  11.166
 8026W        W12077   7.050   2.744   3.273
 8027W        W12078   7.909   9.410   1.318
 8028W        W12079   0.329  10.008   2.727
 8029W        W12080   8.216  10.392   3.514
 8030W        W12081   1.808   1.158  10.828
 8031W        W12082   1.780   0.851  10.407
 8032W        W12083   5.118   4.450   8.728
 8033W        W12084   8.851  10.397   2.721
 8034W        W12085   0.862   6.235   3.418
 8035W        W12086   7.485   8.827  11.873
 8036W        W12087   5.974   2.024   3.690
 8037W        W12088   4.224  10.061   9.669
 8038W        W12089  11.331   0.769   0.474
 8039W        W12090   1.807   5.998   1.687
 8040W        W12091   6.375   2.844  10.776
 8041W        W12092   1.750   0.954   1.046
 8042W        W12093   0.355   7.213  10.293
 8043W        W12094   0.842   9.926   2.563
 8044W        W12095   8.419   5.527   0.275
 8045W        W12096   0.792   5.077   0.734
 8046W        W12097   6.422  10.319   2.833
 8047W        W12098   1.707   5.010   3.603
 8048W        W12099  11.128   2.649   3.547
 8049W        W12100   7.873   4.100  10.594
 8050W        W12101   9.335   5.294   8.615
 8051W        W12102   1.162   4.030   8.953
 8052W        W12103   9.458   5.629   2.367
 8053W        W12104   6.068  11.344  11.715
 8054W        W12105   0.873   6.853   0.940
 8055W        W12106   6.052   1.187  11.748
 8056W        W12107   8.176   1.406  10.435
 8057W        W12108   4.771   1.491   0.459
 8058W        W12109   3.706   2.131  10.583
 8059W        W12110   6.983   3.165   1.464
 8060W        W12111  11.010   2.319   3.132
 8061W        W12112   1.327   0.315  11.705
 8062W        W12113   0.900   4.254   0.119
 8063W        W12114   7.512   3.093   9.973
 8064W        W12115   9.843   7.197   9.462
 8065W        W12116  10.561   3.306  10.439
 8066W        W12117   0.824   7.497   0.300
 8067W        W12118   6.871   0.260   1.808
 8068W        W12119  11.059   8.103   2.192
 8069W        W12120   4.820   4.647   9.930
 8070W        W12121   4.314   1.283  11.498
 8071W        W12122  10.450   1.848  10.063
 8072W        W12123   1.167   7.054   3.446
 8073W        W12124   9.852   4.711  11.680
 8074W        W12125   3.130  10.505  11.642
 8075W        W12126   0.039   3.803  11.839
 8076W        W12127   3.821   6.630   3.838
 8077W        W12128   8.613   4.619   0.493
 8078W        W12129   1.892   1.789  11.484
 8079W        W12130   0.002  11.255   0.499
 8080W        W12131   1.244   3.245  10.881
 8081W        W12132   7.915   0.736  11.933
 8082W        W12133   9.598   7.670   9.460
 8083W        W12134   9.261   4.336   2.061
 8084W        W12135   6.091   1.302   9.500
 8085W        W12136   8.743   7.123   0.753
 8086W        W12137   4.928   1.225  11.030
 8087W        W12138   8.232   4.316   9.047
 8088W        W12139   8.895   0.342  10.550
 8089W        W12140   1.941  10.375  10.049
 8090W        W12141   5.485  10.544  11.195
 8091W        W12142   9.021   7.355   0.386
 8092W        W12143   8.270   9.539   0.518
 8093W        W12144   8.954   1.669  10.296
 8094W        W12145   0.394   5.122  11.224
 8095W        W12146   6.646  10.756   2.726
 8096W        W12147   6.000   5.496   0.240
 8097W        W12148   2.340   1.455   1.434
 8098W        W12149   0.773   2.781   0.296
 8099W        W12150   5.934   3.671   9.793
 8100W        W12151   3.585   5.064   2.767
 8101W        W12152   9.494   2.434   9.207
 8102W        W12153  11.372   7.149   2.620
 8103W        W12154   7.539   0.088  10.762
 8104W        W12155   0.292   1.741   2.827
 8105W        W12156   8.914   1.627   3.390
 8106W        W12157   7.041   1.164   1.660
 8107W        W12158   8.295   6.170   2.423
 8108W        W12159   6.948   8.565   0.059
 8109W        W12160  10.482  10.567  10.583
 8110W        W12161   9.147  10.354   9.881
 8111W        W12162   1.532   5.130   1.194
 8112W        W12163   6.850   5.923  10.891
 8113W        W12164   6.901   4.183  10.492
 8114W        W12165   1.863   2.657  10.398
 8115W        W12166   4.640   2.687  10.139
 8116W        W12167   6.489  10.003  10.487
 8117W        W12168   2.464   0.338   9.954
 8118W        W12169   3.765  10.300   3.387
 8119W        W12170   3.049   9.289   0.752
 8120W        W12171  11.104   0.745  10.450
 8121W        W12172   0.450   5.294   1.967
 8122W        W12173   3.583   5.764  10.307
 8123W        W12174   1.682   5.558   3.561
 8124W        W12175   5.233   2.126  10.567
 8125W        W12176   0.221   8.976  11.141
 8126W        W12177   8.120   7.370  10.429
 8127W        W12178   5.838   0.027   1.817
 8128W        W12179   5.972   0.777   9.804
 8129W        W12180   2.355   1.198  10.836
 8130W        W12181   1.751   3.858  11.888
 8131W        W12182   4.617   9.925   0.519
 8132W        W12183   9.401   3.322  10.291
 8133W        W12184   3.666   6.120   1.495
 8134W        W12185   2.918  11.053   0.567
 8135W        W12186   2.689   7.446  10.720
 8136W        W12187   6.043   1.761   3.248
 8137W        W12188   6.184   1.816   8.560
 8138W        W12189   2.014  10.456   2.358
 8139W        W12190   9.414  10.004   3.350
 8140W        W12191  10.449   9.893   9.076
 8141W        W12192   5.681   2.351  11.793
 8142W        W12193   6.767  10.386   0.207
 8143W        W12194   3.065   4.278   3.310
 8144W        W12195   9.972  11.044   1.833
 8145W        W12196   7.350   0.268   2.031
 8146W        W12197   7.764   6.234  11.048
 8147W        W12198   4.280   8.140  11.907
 8148W        W12199   6.405  11.278   9.552
 8149W        W12200   3.182   5.578   9.982
 8150W        W12201   5.381  10.270   9.269
 8151W        W12202   5.767   7.970   0.828
 8152W        W12203   0.624   6.631  10.018
 8153W        W12204   2.798   7.531   8.848
 8154W        W12205   2.115  10.479  11.579
 8155W        W12206   1.534   2.248   9.698
 8156W        W12207   1.449   3.831  10.203
 8157W        W12208   3.788   4.944   9.872
 8158W        W12209   8.011   3.547   0.002
 8159W        W12210   5.437  11.118   2.620
 8160W        W12211   7.908   6.738  11.026
 8161W        W12212   6.640  11.322   9.989
 8162W        W12213   8.379   6.225   1.914
 8163W        W12214  10.454   3.009   8.549
 8164W        W12215  10.807   5.795   9.570
 8165W        W12216  10.433   3.112   1.670
 8166W        W12217   7.756   3.173   0.780
 8167W        W12218   5.169   7.022   0.792
 8168W        W12219   0.434   9.833   9.173
 8169W        W12220   4.977   0.511   2.706
 8170W        W12221   1.789   1.882   3.551
 8171W        W12222   6.042   4.769  11.241
 8172W        W12223   3.740   9.302  10.755
 8173W        W12224   1.238   4.950  11.245
 8174W        W12225   9.818  11.216   2.283
 8175W        W12226   5.330  10.799   9.477
 8176W        W12227   9.865   9.942   0.873
 8177W        W12228   7.654  10.993   1.818
 8178W        W12229   3.760   0.870   2.214
 8179W        W12230   4.136   9.585   1.742
 8180W        W12231   4.020  10.528   8.747
 8181W        W12232   5.830  11.302   1.306
 8182W        W12233  10.099   0.885   1.714
 8183W        W12234   1.052   0.041   0.073
 8184W        W12235  11.462  10.414   0.694
 8185W        W12236   2.335   5.427  11.547
 8186W        W12237  10.400   9.956  10.108
 8187W        W12238   0.972  10.871  10.767
 8188W        W12239  10.443   8.651   9.635
 8189W        W12240   4.285   3.177   1.249
 8190W        W12241   9.067   6.046  10.903
 8191W        W12242   9.406   4.848   8.832
 8192W        W12243  10.987   7.799   9.981
 8193W        W12244   8.967   4.101   8.386
 8194W        W12245   1.316   6.603   1.658
 8195W        W12246   6.038   8.374   9.896
 8196W        W12247   9.116   4.657   9.595
 8197W        W12248   8.181   2.778   9.461
 8198W        W12249   7.726   3.004   1.267
 8199W        W12250   3.341   1.435   1.450
 8200W        W12251   7.006   9.178   9.582
 8201W        W12252   0.803   9.077   8.707
 8202W        W12253   6.148   8.726   0.380
 8203W        W12254   1.470  10.977  10.715
 8204W        W12255   1.790   3.734   2.103
 8205W        W12256   4.865   3.330   3.192
 8206W        W12257  11.457   9.340   2.280
 8207W        W12258   2.675  11.474   0.724
 8208W        W12259   1.427   8.053   0.573
 8209W        W12260   6.862   3.497   2.729
 8210W        W12261   5.659   2.230   0.739
 8211W        W12262   9.803   4.269   9.540
 8212W        W12263   3.303   6.276  11.553
 8213W        W12264   4.002   2.260  10.969
 8214W        W12265   9.363   3.633   0.481
 8215W        W12266   7.479   7.122  11.117
 8216W        W12267   2.046   9.562   2.427
 8217W        W12268   2.950   7.960   8.592
 8218W        W12269   6.654   5.288  11.574
 8219W        W12270  10.915   8.981  11.517
 8220W        W12271   2.680   3.730   2.565
 8221W        W12272   5.055   9.306   1.046
 8222W        W12273   4.562   6.425   8.278
 8223W        W12274  10.128   3.253  11.387
 8224W        W12275   7.919   2.680   0.827
 8225W        W12276   9.412   9.676  11.336
 8226W        W12277  10.415   1.922   0.222
 8227W        W12278   9.661   3.772  10.377
 8228W        W12279   8.397   3.231  11.392
 8229W        W12280  10.824   1.839   1.372
 8230W        W12281   2.511   6.172  11.911
 8231W        W12282   4.280   8.794   2.096
 8232W        W12283   0.367   4.555   1.209
 8233W        W12284   0.710   7.655  11.818
 8234W        W12285   4.525   0.269   2.831
 8235W        W12286   9.067   5.916   1.409
 8236W        W12287   0.451  10.338   3.223
 8237W        W12288   0.729   2.840   8.960
 8238W        W12289   9.108   0.754   8.876
 8239W        W12290   5.317   8.444   2.122
 8240W        W12291  10.322   2.716   1.960
 8241W        W12292  10.477  10.583   0.068
 8242W        W12293   4.950   6.752   8.686
 8243W        W12294   1.267   9.289  10.560
 8244W        W12295   2.636   6.056   2.810
 8245W        W12296   6.354   4.082   1.810
 8246W        W12297   1.655   0.359  10.430
 8247W        W12298   9.614   4.656   1.872
 8248W        W12299   5.734   0.460  10.139
 8249W        W12300   7.106  11.498   0.896
 8250W        W12301   1.505   6.566  10.311
 8251W        W12302   5.894   2.094   9.060
 8252W        W12303   9.029   2.937  11.840
 8253W        W12304   4.341   8.602   1.621
 8254W        W12305  10.392   0.985   0.494
 8255W        W12306   3.164   0.920   3.523
 8256W        W12307   4.387   3.593  11.938
 8257W        W12308   3.679   4.107  11.395
 8258W        W12309   0.192  10.352  11.893
 8259W        W12310   8.501  11.435  11.712
 8260W        W12311   6.464   4.802   1.345
 8261W        W12312   2.417   0.296  10.850
 8262W        W12313  10.553   6.558   3.477
 8263W        W12314   1.539   5.069   0.289
 8264W        W12315  10.998   7.984   1.225
 8265W        W12316   2.646   0.960   2.759
 8266W        W12317   6.591   1.073   2.899
 8267W        W12318   5.557   7.604  10.399
 8268W        W12319   8.364   5.720  10.557
 8269W        W12320   9.412   9.137   9.409
 8270W        W12321   5.214   4.277   9.954
 8271W        W12322   4.087   0.975   0.720
 8272W        W12323  10.620   5.149  10.389
 8273W        W12324  10.444  11.434   0.236
 8274W        W12325   8.993   0.817  10.296
 8275W        W12326   2.254   6.166   0.955
 8276W        W12327   1.826   4.100  11.432
 8277W        W12328   6.955   7.504   2.301
 8278W        W12329   1.057   7.524   9.838
 8279W        W12330   2.619   6.908  11.688
 8280W        W12331   3.079   6.299   2.881
 8281W        W12332  11.034  10.827   1.204
 8282W        W12333   9.850   3.687   9.043
 8283W        W12334   8.772   6.359  11.220
 8284W        W12335   6.041   4.153   1.430
 8285W        W12336   0.324   6.008   3.596
 8286W        W12337   5.011   2.189  11.043
 8287W        W12338  10.762   0.389  10.311
 8288W        W12339   8.327   5.787   8.901
 8289W        W12340   4.798   4.876  11.485
 8290W        W12341   4.655   7.487   1.386
 8291W        W12342   2.245   4.174  11.091
 8292W        W12343   7.259   5.079   0.285
 8293W        W12344   9.357   7.235   9.294
 8294W        W12345   6.860  10.063   8.631
 8295W        W12346   7.100   2.883  11.245
 8296W        W12347   1.869   0.057   1.487
 8297W        W12348   9.642  11.184   0.653
 8298W        W12349   4.421   7.039  11.307
 8299W        W12350   8.917   5.608   0.393
 8300W        W12351  11.239   6.221   0.982
 8301W        W12352   5.511   8.895  11.649
 8302W        W12353   7.457   5.275  11.436
 8303W        W12354   7.397   9.295  10.960
 8304W        W12355   1.068   9.076   0.912
 8305W        W12356   0.169   3.543   1.086
 8306W        W12357   8.126   5.192  11.974
 8307W        W12358  10.315   4.725   0.509
 8308W        W12359   5.921  11.420   0.800
 8309W        W12360   5.674   4.672   8.781
 8310W        W12361   5.501   3.852  11.870
 8311W        W12362   2.840   8.776  10.570
 8312W        W12363   5.203   4.574   2.721
 8313W        W12364  10.422   2.937   0.365
 8314W        W12365   3.863   5.383   2.058
 8315W        W12366  10.347  10.140  11.841
 8316W        W12367   3.358   3.892   0.516
 8317W        W12368   6.666   0.273   9.710
 8318W        W12369  10.936   8.135   9.561
 8319W        W12370   2.388  11.022   9.584
 8320W        W12371   6.484   8.527   0.738
 8321W        W12372   5.068   6.106  10.853
 8322W        W12373   8.227   4.883  10.939
 8323W        W12374   9.277   6.178   0.988
 8324W        W12375   7.533  10.787   8.706
 8325W        W12376   3.305   5.469   2.951
 8326W        W12377   9.887   1.209  10.030
 8327W        W12378   2.796   2.841   2.463
 8328W        W12379   4.403  10.362   1.497
 8329W        W12380   9.530   8.030   1.301
 8330W        W12381   3.916   6.573   0.765
 8331W        W12382   3.394   5.698   8.296
 8332W        W12383   6.922   6.110   0.740
 8333W        W12384   0.865   5.084   9.568
 8334W        W12385   9.781   6.188   1.857
 8335W        W12386   1.358   0.473   9.535
 8336W        W12387   5.092   8.154   0.471
 8337W        W12388  10.487   4.438   1.898
 8338W        W12389   9.479  11.478  10.258
 8339W        W12390   8.918  10.413   1.648
 8340W        W12391   1.976   6.640  10.517
 8341W        W12392   8.987   2.567   9.927
 8342W        W12393   8.551   9.856   9.329
 8343W        W12394  10.701   3.753  10.183
 8344W        W12395   3.225   0.505   3.249
 8345W        W12396   0.853   2.321   2.742
 8346W        W12397   9.292   8.456   3.566
 8347W        W12398   6.187   9.323  11.766
 8348W        W12399   1.120  11.407   2.276
 8349W        W12400   5.221   3.582   3.491
 8350W        W12401   0.267   9.095   2.596
 8351W        W12402   5.718   1.244   9.867
 8352W        W12403   1.706   4.540  10.091
 8353W        W12404   5.718   0.264   3.374
 8354W        W12405   4.522   2.715   9.139
 8355W        W12406   1.737   9.445  10.533
 8356W        W12407   7.691   6.482   3.366
 8357W        W12408   9.281   9.369   8.954
 8358W        W12409   5.068   4.574   1.725
 8359W        W12410   3.281   6.162   9.308
 8360W        W12411   7.793   4.595  11.249
 8361W        W12412   3.827   5.776   0.705
 8362W        W12413   1.222   5.868   3.481
 8363W        W12414   7.073   2.660  11.981
 8364W        W12415   1.786   7.238   3.852
 8365W        W12416   4.667   8.859  10.491
 8366W        W12417   9.057   1.693   1.954
 8367W        W12418   8.339   4.337   0.847
 8368W        W12419   2.671   0.205   1.699
 8369W        W12420  10.501   8.679   3.181
 8370W        W12421   1.428   7.126   2.407
 8371W        W12422   2.381   4.849   2.805
 8372W        W12423  10.459   5.821   9.965
 8373W        W12424   4.206   4.265   8.815
 8374W        W12425   2.007   4.613   1.056
 8375W        W12426   5.106   7.209   1.388
 8376W        W12427   2.373   1.845   2.197
 8377W        W12428   8.907   5.073  10.314
 8378W        W12429   4.070   5.317  10.099
 8379W        W12430   8.357   3.835   2.342
 8380W        W12431   9.376   9.333  10.921
 8381W        W12432   4.805   7.754   0.573
 8382W        W12433   1.321   4.653   1.206
 8383W        W12434   8.534   9.591  11.525
 8384W        W12435   2.245   1.515   3.421
 8385W        W12436   3.268   0.120   2.919
 8386W        W12437   7.505   8.518   9.341
 8387W        W12438   1.366   7.087  10.036
 8388W        W12439   8.541   0.313  11.380
 8389W        W12440   7.163  11.302   1.818
 8390W        W12441  11.427   4.858   9.105
 8391W        W12442   0.270   9.884  10.175
 8392W        W12443   5.068   1.680  10.764
 8393W        W12444   1.928   6.164   8.933
 8394W        W12445   7.179   0.022   9.074
 8395W        W12446   7.387   4.330  10.595
 8396W        W12447   2.780   3.289   9.246
 8397W        W12448   6.203   2.868   0.448
 8398W        W12449   8.414   0.149   0.976
 8399W        W12450   2.152   0.428  11.299
 8400W        W12451   3.284   3.843   9.663
 8401W        W12452   6.449   3.320  10.664
 8402W        W12453   0.348   9.526   1.979
 8403W        W12454   0.931   5.986   1.662
 8404W        W12455   1.347   0.977   9.588
 8405W        W12456   1.367   5.081  10.740
 8406W        W12457   7.538   0.268   9.664
 8407W        W12458   3.740   8.488   8.738
 8408W        W12459   4.196  10.935   0.738
 8409W        W12460   9.165   1.382   0.755
 8410W        W12461   2.361   5.271   2.482
 8411W        W12462   2.682   8.107   3.136
 8412W        W12463   6.176   3.468  11.133
 8413W        W12464   4.144   0.870   9.167
 8414W        W12465   5.991   7.240   3.148
 8415W        W12466  10.542   6.019  11.812
 8416W        W12467   3.331  11.364   8.706
 8417W        W12468   7.485   8.626   1.828
 8418W        W12469   1.226  10.437   0.511
 8419W        W12470   6.556   9.601  11.513
 8420W        W12471   9.110   2.450   0.709
 8421W        W12472   3.108   0.665  11.038
 8422W        W12473   8.568   0.713   9.015
 8423W        W12474   1.570   7.624   2.260
 8424W        W12475  11.498   6.521  10.561
 8425W        W12476   7.719   1.826   2.012
 8426W        W12477   7.167   1.208  11.764
 8427W        W12478   4.675   2.833   3.560
 8428W        W12479   6.803   0.377   8.984
 8429W        W12480   2.757   7.387   9.828
 8430W        W12481   0.392   4.973  10.720
 8431W        W12482  10.832  11.414  10.512
 8432W        W12483   1.285   3.281   3.122
 8433W        W12484  10.850   0.845   9.565
 8434W        W12485   8.433   2.452   9.074
 8435W        W12486   1.363   6.201   1.968
 8436W        W12487   7.840   6.073   8.876
 8437W        W12488   9.917   7.200   1.911
 8438W        W12489   9.482   3.906   8.601
 8439W        W12490   6.347   2.037   4.069
 8440W        W12491   2.919   8.412  11.886
 8441W        W12492   9.418   1.704   3.457
 8442W        W12493  10.843  10.102   0.864
 8443W        W12494   3.157   6.675   2.556
 8444W        W12495   4.830  10.310   1.818
 8445W        W12496   3.231  10.049   9.865
 8446W        W12497   5.970  11.012   1.963
 8447W        W12498   3.159   0.325   0.971
 8448ION    NA+12499   2.197   0.124   1.912
 8449ION    NA+12500   3.664   7.527   1.091
 8450ION    NA+12501   9.630   3.907  11.216
 8451ION    NA+12502   3.091   8.885   1.553
 8452ION    NA+12503   9.413   4.647  10.580
 8453ION    NA+12504   2.246   6.606   2.140
 8454ION    NA+12505   4.776   3.806  11.676
 8455ION    NA+12506   7.489   1.275   3.668
 8456ION    NA+12507   0.014   8.495  10.414
 8457ION    NA+12508   6.171   8.191   2.179
 8458ION    NA+12509   9.567   8.366  11.880
 8459ION    NA+12510   9.510   6.095   0.203
 8460ION    NA+12511   3.376   5.716   1.646
 8461ION    NA+12512   9.310   0.934  11.711
 8462ION    NA+12513   5.224   4.987   2.056
 8463ION    NA+12514  11.443   5.189  10.619
 8464ION    NA+12515   7.406   3.511   2.154
 8465ION    NA+12516   7.967  10.500   9.348
 8466ION    NA+12517   0.221   7.450   8.878
 8467ION    NA+12518   9.439   6.446   9.559
 8468ION    NA+12519   2.132   8.167   9.719
 8469ION    NA+12520   7.627   2.172   8.778
 8470ION    NA+12521   8.094   2.585   3.841
 8471ION    NA+12522   8.860  10.959   9.493
 8472ION    NA+12523   5.231   6.356  11.309
 8473ION    NA+12524   0.544   7.505   9.729
 8474ION    NA+12525   9.101  10.675   0.766
 8475ION    NA+12526   4.013   4.029  10.244
 8476ION    NA+12527   9.383   7.747  11.246
 8477ION    NA+12528   3.919   2.181   1.709
 8478ION    NA+12529   4.773   0.912   2.135
 8479ION    NA+12530   1.245   5.061  11.777
 8480ION    NA+12531   0.985  11.194   8.915
 8481ION    NA+12532   8.782   8.382  11.731
 8482ION    NA+12533   0.884   3.997   3.024
 8483ION    NA+12534   7.019   1.404   2.794
 8484ION    NA+12535   5.076   2.101  11.952
 8485ION    NA+12536   4.160   0.724  10.408
 8486ION    NA+12537  10.556   0.082   1.499
 8487ION    NA+12538   5.606   7.572   2.427
 8488ION    NA+12539  11.152   0.474   2.675
 8489ION    NA+12540   4.250   3.952   0.611
 8490ION    NA+12541   6.021   9.441   2.514
 8491ION    NA+12542   3.222   2.373   0.418
 8492ION    NA+12543   1.463   2.208   8.876
 8493ION    NA+12544   3.038   8.913  11.852
 8494ION    NA+12545   4.187   1.770   2.581
 8495ION    NA+12546   8.554   6.815   9.842
 8496ION    NA+12547   7.515   9.554   1.027
 8497ION    NA+12548   7.420   0.853   0.081
 8498ION    NA+12549   1.848   4.128   1.292
 8499ION    NA+12550   7.954   6.373  10.589
 8500ION    NA+12551   3.082   5.825   2.619
 8501ION    NA+12552   5.439   1.502   2.130
 8502ION    NA+12553   0.237   4.409  11.667
 8503ION    NA+12554   3.044   8.290   0.910
 8504ION    NA+12555   7.078   1.693   1.631
 8505ION    NA+12556   2.961  11.023   8.024
 8506ION    NA+12557   8.213   1.100   2.925
 8507ION    NA+12558   4.033   8.429   0.865
 8508ION    NA+12559   9.277   0.056   0.920
 8509ION    NA+12560   3.472   2.045   3.612
 8510ION    NA+12561   5.360  10.113  11.408
 8511ION    NA+12562   8.031   5.077   3.264
 8512ION    NA+12563  11.367   7.922  11.971
 8513ION    NA+12564   9.333   0.758   9.919
 8514ION    NA+12565  11.424  11.081  11.980
 8515ION    NA+12566  11.043   6.518  10.196
 8516ION    NA+12567   5.754   2.824   9.545
 8517ION    NA+12568   6.698   9.162   8.781
 8518ION    NA+12569   1.013   5.099   1.211
 8519ION    NA+12570   7.538   0.227  11.310
 8520ION    NA+12571   0.417   0.392   9.133
 8521ION    NA+12572   2.357   7.759   8.566
 8522ION    NA+12573   8.987   3.298   0.441
 8523ION    NA+12574   9.683   1.545   2.396
 8524ION    NA+12575  10.471   7.681   9.867
 8525ION    NA+12576  10.512   4.164   0.735
 8526ION    NA+12577   7.461   8.703   8.871
 8527ION    NA+12578   0.558   1.538  11.438
 8528ION    NA+12579   9.764  10.128  11.157
 8529ION    NA+12580  10.305  10.981   0.407
 8530ION    NA+12581   9.557   1.487   9.272
 8531ION    NA+12582   0.033   1.783  10.739
 8532ION    NA+12583   8.603   4.533   2.650
 8533ION    NA+12584   1.803  11.212   0.419
 8534ION    NA+12585   2.667   3.423  10.329
 8535ION    NA+12586   8.501   0.175   9.867
 8536ION    NA+12587   5.128   3.358   8.288
 8537ION    CL-12588   2.816   4.603   2.947
 8538ION    CL-12589   4.682   3.259   8.317
 8539ION    CL-12590   0.377   2.365   3.508
 8540ION    CL-12591   1.212  11.337  11.544
 8541ION    CL-12592  10.007   4.141   3.481
 8542ION    CL-12593  11.137  11.416  10.917
 8543ION    CL-12594   5.803  10.117  11.349
 8544ION    CL-12595   9.162   3.786  10.417
 8545ION    CL-12596   9.486  10.486  11.216
 8546ION    CL-12597   0.099   0.594  10.326
 8547ION    CL-12598   2.806   5.110  11.761
 8548ION    CL-12599   5.050   1.272   2.116
 8549ION    CL-12600   3.499  10.720   3.567
 8550ION    CL-12601  11.226   4.097   1.523
 8551ION    CL-12602   1.501   7.651  11.359
 8552ION    CL-12603   0.391   1.523  10.910
 8553ION    CL-12604   6.396   9.286   2.325
 8554ION    CL-12605   0.316  10.509  10.900
 8555ION    CL-12606   4.447   3.922  10.297
 8556ION    CL-12607   6.231   9.340  10.141
 8557ION    CL-12608   0.701   0.034   9.088
 8558ION    CL-12609   2.657   2.192  10.865
 8559ION    CL-12610   7.738   1.725   8.774
 8560ION    CL-12611   9.550   1.805   2.057
 8561ION    CL-12612   9.061   1.206  11.462
 8562ION    CL-12613   0.854   8.796  11.553
 8563ION    CL-12614   8.301   0.698   2.747
 8564ION    CL-12615   9.251  11.052   3.507
 8565ION    CL-12616  11.463   0.785   2.732
 8566ION    CL-12617   8.264   4.622  11.415
 8567ION    CL-12618   2.515   9.841   9.464
 8568ION    CL-12619   8.610   3.071   0.385
 8569ION    CL-12620   9.388   2.903   9.930
 8570ION    CL-12621   4.787   7.217   2.882
 8571ION    CL-12622   9.154   8.591  11.935
 8572ION    CL-12623   8.584   8.123  11.404
 8573ION    CL-12624   6.103   7.407   0.231
 8574ION    CL-12625  10.533   2.112   3.073
 8575ION    CL-12626  11.236   9.416   0.740
 8576ION    CL-12627   1.751   4.954   4.113
 8577ION    CL-12628   0.561   1.784  11.823
 8578ION    CL-12629   8.624  11.261   9.731
 8579ION    CL-12630   2.004  10.191   3.283
 8580ION    CL-12631   8.544   2.114  11.027
 8581ION    CL-12632  11.449   1.442   0.536
 8582ION    CL-12633   2.711  11.032   3.036
 8583ION    CL-12634   8.066   7.910  10.437
 8584ION    CL-12635  10.077   9.850  10.975
 8585ION    CL-12636   4.156   0.164   8.352
 8586ION    CL-12637   0.305   6.750   1.645
 8587ION    CL-12638   5.791   7.973   2.309
 8588ION    CL-12639   7.388   7.072   1.679
 8589ION    CL-12640   1.270   2.247   9.279
 8590ION    CL-12641   9.705   3.465  11.194
 8591ION    CL-12642   5.870  10.347  10.033
 8592ION    CL-12643   2.068  11.110   8.735
 8593ION    CL-12644   4.091   4.073   1.011
 8594ION    CL-12645   0.379  10.526   0.952
 8595ION    CL-12646   3.085   8.503   1.310
 8596ION    CL-12647   9.179  11.115   0.857
 8597ION    CL-12648  10.376   3.932   2.022
 8598ION    CL-12649  10.838   1.194  10.572
 8599ION    CL-12650   4.745   7.835   1.749
 8600ION    CL-12651   5.586   3.237  11.288
 8601ION    CL-12652  10.519   7.006   0.468
 8602ION    CL-12653   2.714   3.845  10.465
 8603ION    CL-12654   4.836   1.315   8.919
 8604ION    CL-12655  11.471   7.622   8.510
 8605ION    CL-12656   6.935   9.286  11.263
 8606ION    CL-12657   9.854   8.544   9.846
 8607ION    CL-12658   5.954   7.002   9.779
 8608ION    CL-12659   4.253   0.558  10.004
 8609ION    CL-12660   9.560   8.000  11.580
 8610ION    CL-12661   0.379   7.463   9.311
 8611ION    CL-12662   8.074   7.367   2.781
 8612ION    CL-12663   1.641   6.546   9.424
 8613ION    CL-12664   7.042   8.855   8.752
 8614ION    CL-12665   2.124  10.912   0.340
 8615ION    CL-12666   9.596   4.385   2.454
 8616ION    CL-12667   5.492   6.025  11.161
 8617ION    CL-12668   4.832   5.255  10.820
 8618ION    CL-12669   7.072   0.672   0.296
 8619ION    CL-12670   0.585   8.077   3.182
 8620ION    CL-12671  11.216   2.114  10.676
 8621ION    CL-12672   4.218   9.604   0.497
 8622ION    CL-12673   1.007  10.098   9.179
 8623ION    CL-12674   6.507   4.450  11.963
 8624ION    CL-12675   0.471   8.600   1.470
 8625ION    CL-12676   6.748   7.566  10.098
  11.50000  11.50000  12.00000
