Protein in INSANE! Membrane UpperLeaflet>POPC=1.0 LowerLeaflet>POPC=1.0
12676
    1AU     AUC    1   5.759   5.844   6.010
    1AU     AUC    2   5.999   5.830   5.857
    1AU     AUC    3   6.004   5.831   6.160
    1AU     AUC    4   5.509   5.858   5.861
    1AU     AUC    5   5.517   5.861   6.163
    1AU     AUC    6   5.622   6.095   6.008
    1AU     AUC    7   5.922   6.080   6.004
    1AU     AUC    8   5.595   5.608   6.014
    1AU     AUC    9   5.899   5.594   6.009
    1AU     AUC   10   5.754   5.693   6.254
    1AU     AUC   11   5.768   5.998   6.253
    1AU     AUC   12   5.747   5.690   5.764
    1AU     AUC   13   5.766   5.995   5.764
    1AU     AUC   14   6.240   5.810   5.708
    1AU     AUC   15   6.241   5.811   6.018
    1AU     AUC   16   6.245   5.817   6.315
    1AU     AUC   17   5.284   5.861   5.724
    1AU     AUC   18   5.270   5.888   6.018
    1AU     AUC   19   5.287   5.873   6.319
    1AU     AUC   20   5.498   6.343   5.996
    1AU     AUC   21   5.794   6.326   5.993
    1AU     AUC   22   6.088   6.306   6.008
    1AU     AUC   23   5.429   5.380   6.016
    1AU     AUC   24   5.733   5.359   6.017
    1AU     AUC   25   6.027   5.333   6.001
    1AU     AUC   26   5.757   5.544   6.479
    1AU     AUC   27   5.763   5.841   6.506
    1AU     AUC   28   5.775   6.152   6.487
    1AU     AUC   29   5.730   5.544   5.531
    1AU     AUC   30   5.749   5.839   5.521
    1AU     AUC   31   5.766   6.130   5.523
    1AU     AUC   32   5.997   5.679   6.392
    1AU     AUC   33   5.995   5.979   6.417
    1AU     AUC   34   5.978   5.674   5.610
    1AU     AUC   35   6.001   5.977   5.614
    1AU     AUC   36   5.510   5.700   6.404
    1AU     AUC   37   5.538   6.007   6.406
    1AU     AUC   38   5.499   5.700   5.626
    1AU     AUC   39   5.513   5.992   5.614
    1AU     AUC   40   6.164   6.060   5.862
    1AU     AUC   41   6.155   6.068   6.166
    1AU     AUC   42   5.363   6.107   5.856
    1AU     AUC   43   5.372   6.119   6.159
    1AU     AUC   44   6.134   5.577   5.848
    1AU     AUC   45   6.142   5.583   6.157
    1AU     AUC   46   5.353   5.623   5.870
    1AU     AUC   47   5.344   5.627   6.159
    1AU     AUC   48   5.634   6.258   6.241
    1AU     AUC   49   5.935   6.233   6.248
    1AU     AUC   50   5.586   5.463   6.251
    1AU     AUC   51   5.898   5.434   6.242
    1AU     AUC   52   5.637   6.239   5.748
    1AU     AUC   53   5.946   6.234   5.747
    1AU     AUC   54   5.582   5.459   5.767
    1AU     AUC   55   5.873   5.437   5.760
    1AU    AUSL   56   6.210   5.847   6.584
    1AU    AUSL   57   5.998   5.363   6.498
    1AU     AUL   58   6.435   5.569   6.556
    1AU       S   59   6.136   5.008   6.709
    1AU     LIG   60   6.118   4.631   6.947
    1AU     LIG   61   6.339   4.463   7.328
    1AU     LIG   62   6.603   4.166   7.590
    1AU     LIG   63   6.620   3.831   7.940
    1AU     LIG   64   6.747   3.585   8.334
    1AU     LIG   65   7.106   3.494   8.627
    1AU       S   66   6.382   5.816   7.018
    1AU     LIG   67   6.497   5.681   7.448
    1AU     LIG   68   6.689   5.381   7.773
    1AU     LIG   69   7.019   5.267   8.119
    1AU     LIG   70   7.373   5.319   8.452
    1AU     LIG   71   7.606   5.562   8.798
    1AU     LIG   72   7.936   5.564   9.139
    1AU    AUSL   73   5.866   5.559   6.673
    1AU    AUSL   74   5.536   6.036   6.635
    1AU     AUL   75   5.780   5.856   6.798
    1AU       S   76   6.110   5.570   7.102
    1AU     LIG   77   6.287   5.206   7.360
    1AU     LIG   78   6.349   4.973   7.781
    1AU     LIG   79   6.300   4.841   8.257
    1AU     LIG   80   6.305   4.746   8.740
    1AU     LIG   81   6.433   4.669   9.194
    1AU     LIG   82   6.587   4.855   9.600
    1AU       S   83   5.327   6.068   7.089
    1AU     LIG   84   5.221   6.087   7.537
    1AU     LIG   85   5.084   5.860   7.923
    1AU     LIG   86   5.053   5.792   8.389
    1AU     LIG   87   5.060   6.021   8.820
    1AU     LIG   88   4.929   6.272   9.212
    1AU     LIG   89   4.672   6.447   9.576
    1AU    AUSL   90   5.974   6.036   6.670
    1AU    AUSL   91   6.271   6.087   6.452
    1AU     AUL   92   6.011   5.793   6.643
    1AU       S   93   6.152   6.041   7.116
    1AU     LIG   94   6.232   6.342   7.460
    1AU     LIG   95   6.453   6.521   7.836
    1AU     LIG   96   6.543   6.696   8.267
    1AU     LIG   97   6.540   6.822   8.734
    1AU     LIG   98   6.612   6.878   9.208
    1AU     LIG   99   6.572   6.818   9.677
    1AU       S  100   6.620   6.146   6.699
    1AU     LIG  101   7.038   6.182   6.846
    1AU     LIG  102   7.224   6.371   7.230
    1AU     LIG  103   7.436   6.669   7.544
    1AU     LIG  104   7.740   6.778   7.909
    1AU     LIG  105   8.162   6.848   8.161
    1AU     LIG  106   8.553   6.966   8.432
    1AU    AUSL  107   6.133   5.867   5.430
    1AU    AUSL  108   6.101   6.146   5.500
    1AU     AUL  109   5.909   6.283   5.333
    1AU       S  110   6.279   5.852   4.963
    1AU     LIG  111   6.536   5.557   4.719
    1AU     LIG  112   6.701   5.341   4.340
    1AU     LIG  113   6.862   5.385   3.885
    1AU     LIG  114   7.280   5.454   3.615
    1AU     LIG  115   7.646   5.588   3.306
    1AU     LIG  116   7.794   5.734   2.863
    1AU       S  117   6.433   6.319   5.183
    1AU     LIG  118   6.706   6.415   4.805
    1AU     LIG  119   6.921   6.631   4.444
    1AU     LIG  120   7.147   6.893   4.149
    1AU     LIG  121   7.277   7.158   3.802
    1AU     LIG  122   7.489   7.478   3.567
    1AU     LIG  123   7.446   7.929   3.485
    1AU    AUSL  124   5.910   5.702   5.338
    1AU    AUSL  125   6.201   5.558   5.580
    1AU     AUL  126   6.367   5.735   5.453
    1AU       S  127   6.374   5.300   5.140
    1AU     LIG  128   6.568   5.040   4.798
    1AU     LIG  129   6.819   4.652   4.694
    1AU     LIG  130   7.125   4.380   4.458
    1AU     LIG  131   7.497   4.404   4.149
    1AU     LIG  132   7.880   4.455   3.866
    1AU     LIG  133   8.212   4.224   3.605
    1AU       S  134   6.019   5.608   4.941
    1AU     LIG  135   6.115   5.267   4.649
    1AU     LIG  136   6.257   5.106   4.240
    1AU     LIG  137   6.399   5.119   3.781
    1AU     LIG  138   6.384   5.004   3.304
    1AU     LIG  139   6.426   4.968   2.817
    1AU     LIG  140   6.673   4.975   2.391
    1AU    AUSL  141   5.901   5.989   5.332
    1AU    AUSL  142   5.609   5.697   5.322
    1AU     AUL  143   5.681   6.132   5.242
    1AU       S  144   5.436   5.543   4.911
    1AU     LIG  145   5.492   5.330   4.493
    1AU     LIG  146   5.246   5.152   4.118
    1AU     LIG  147   5.068   4.889   3.747
    1AU     LIG  148   5.029   4.777   3.281
    1AU     LIG  149   4.808   4.895   2.875
    1AU     LIG  150   4.671   5.116   2.463
    1AU       S  151   6.002   5.864   4.921
    1AU     LIG  152   6.130   5.744   4.456
    1AU     LIG  153   6.351   5.586   4.050
    1AU     LIG  154   6.470   5.593   3.584
    1AU     LIG  155   6.532   5.823   3.174
    1AU     LIG  156   6.664   6.183   2.894
    1AU     LIG  157   6.711   6.423   2.498
    1AU    AUSL  158   5.349   5.836   6.588
    1AU    AUSL  159   5.535   6.302   6.506
    1AU     AUL  160   5.722   6.132   6.767
    1AU       S  161   5.118   5.884   6.968
    1AU     LIG  162   4.860   5.775   7.357
    1AU     LIG  163   4.734   5.516   7.755
    1AU     LIG  164   4.532   5.339   8.177
    1AU     LIG  165   4.197   5.301   8.557
    1AU     LIG  166   3.980   5.448   8.980
    1AU     LIG  167   3.629   5.737   9.171
    1AU       S  168   5.377   6.529   6.844
    1AU     LIG  169   5.305   6.560   7.309
    1AU     LIG  170   5.080   6.808   7.654
    1AU     LIG  171   4.872   6.926   8.081
    1AU     LIG  172   4.771   7.224   8.454
    1AU     LIG  173   4.582   7.583   8.728
    1AU     LIG  174   4.351   8.004   8.817
    1AU    AUSL  175   5.587   5.685   6.672
    1AU    AUSL  176   5.267   5.599   6.431
    1AU     AUL  177   5.336   5.456   6.725
    1AU       S  178   4.850   5.253   6.475
    1AU     LIG  179   4.419   5.042   6.459
    1AU     LIG  180   4.048   4.811   6.661
    1AU     LIG  181   3.874   4.563   7.043
    1AU     LIG  182   3.689   4.300   7.405
    1AU     LIG  183   3.373   4.251   7.764
    1AU     LIG  184   3.114   4.394   8.149
    1AU       S  185   5.380   5.771   7.136
    1AU     LIG  186   5.277   5.550   7.552
    1AU     LIG  187   5.164   5.339   7.974
    1AU     LIG  188   4.960   5.030   8.276
    1AU     LIG  189   4.860   4.752   8.651
    1AU     LIG  190   4.865   4.711   9.122
    1AU     LIG  191   4.743   4.903   9.532
    1AU    AUSL  192   5.348   5.753   5.442
    1AU    AUSL  193   5.437   5.478   5.508
    1AU     AUL  194   5.640   5.359   5.337
    1AU       S  195   5.173   5.643   5.021
    1AU     LIG  196   5.016   5.513   4.570
    1AU     LIG  197   4.787   5.385   4.153
    1AU     LIG  198   4.591   5.150   3.768
    1AU     LIG  199   4.233   5.063   3.438
    1AU     LIG  200   3.969   5.200   3.057
    1AU     LIG  201   3.814   5.509   2.717
    1AU       S  202   5.130   5.195   5.281
    1AU     LIG  203   4.803   4.868   5.157
    1AU     LIG  204   4.431   4.574   5.083
    1AU     LIG  205   4.232   4.266   4.762
    1AU     LIG  206   4.214   4.096   4.304
    1AU     LIG  207   4.302   3.819   3.906
    1AU     LIG  208   4.156   3.519   3.563
    1AU    AUSL  209   5.541   5.958   5.402
    1AU    AUSL  210   5.266   6.107   5.571
    1AU     AUL  211   5.387   6.120   5.239
    1AU       S  212   4.902   6.314   5.306
    1AU     LIG  213   4.592   6.549   5.005
    1AU     LIG  214   4.491   6.765   4.571
    1AU     LIG  215   4.432   6.884   4.093
    1AU     LIG  216   4.140   7.052   3.753
    1AU     LIG  217   3.681   7.179   3.711
    1AU     LIG  218   3.377   7.507   3.561
    1AU       S  219   5.509   5.743   4.926
    1AU     LIG  220   5.415   5.837   4.483
    1AU     LIG  221   5.213   5.685   4.086
    1AU     LIG  222   5.080   5.832   3.639
    1AU     LIG  223   5.104   6.099   3.225
    1AU     LIG  224   5.096   6.239   2.757
    1AU     LIG  225   4.912   6.349   2.320
    1AU    AUSL  226   6.360   6.232   6.013
    1AU    AUSL  227   6.334   6.007   5.595
    1AU     AUL  228   6.173   6.474   5.798
    1AU       S  229   6.646   6.166   5.307
    1AU     LIG  230   7.064   6.245   5.126
    1AU     LIG  231   7.252   6.338   4.705
    1AU     LIG  232   7.484   6.535   4.342
    1AU     LIG  233   7.911   6.547   4.118
    1AU     LIG  234   8.284   6.812   3.986
    1AU     LIG  235   8.426   7.088   3.611
    1AU       S  236   6.792   6.363   6.041
    1AU     LIG  237   7.273   6.415   6.154
    1AU     LIG  238   7.765   6.480   6.044
    1AU     LIG  239   8.253   6.619   5.991
    1AU     LIG  240   8.640   6.968   5.998
    1AU     LIG  241   9.014   7.328   6.006
    1AU     LIG  242   9.246   7.737   6.161
    1AU    AUSL  243   6.418   5.980   5.887
    1AU    AUSL  244   6.446   5.751   6.077
    1AU     AUL  245   6.532   5.784   5.678
    1AU       S  246   6.885   6.098   5.909
    1AU     LIG  247   7.372   6.072   5.793
    1AU     LIG  248   7.864   6.079   5.728
    1AU     LIG  249   8.346   6.122   5.674
    1AU     LIG  250   8.819   6.083   5.661
    1AU     LIG  251   9.252   6.297   5.647
    1AU     LIG  252   9.663   6.557   5.501
    1AU       S  253   6.877   5.547   6.095
    1AU     LIG  254   7.190   5.237   6.296
    1AU     LIG  255   7.555   4.898   6.280
    1AU     LIG  256   7.999   4.657   6.228
    1AU     LIG  257   8.446   4.438   6.255
    1AU     LIG  258   8.853   4.322   6.474
    1AU     LIG  259   9.179   4.398   6.827
    1AU    AUSL  260   6.403   6.020   6.193
    1AU    AUSL  261   6.207   6.279   6.265
    1AU     AUL  262   6.261   6.473   6.180
    1AU       S  263   6.599   6.355   6.566
    1AU     LIG  264   6.844   6.656   6.851
    1AU     LIG  265   7.145   6.878   7.159
    1AU     LIG  266   7.468   7.203   7.333
    1AU     LIG  267   7.693   7.659   7.333
    1AU     LIG  268   7.862   8.135   7.409
    1AU     LIG  269   8.079   8.526   7.613
    1AU       S  270   6.841   6.088   6.228
    1AU     LIG  271   7.252   5.904   6.272
    1AU     LIG  272   7.710   5.998   6.217
    1AU     LIG  273   8.176   6.120   6.156
    1AU     LIG  274   8.663   6.161   6.139
    1AU     LIG  275   9.142   6.277   6.166
    1AU     LIG  276   9.488   6.528   6.414
    1AU    AUSL  277   5.265   6.369   6.009
    1AU    AUSL  278   5.299   6.110   6.467
    1AU     AUL  279   5.085   6.287   6.252
    1AU       S  280   5.070   6.355   6.783
    1AU     LIG  281   4.868   6.311   7.217
    1AU     LIG  282   4.665   6.509   7.621
    1AU     LIG  283   4.395   6.740   7.972
    1AU     LIG  284   4.010   6.822   8.278
    1AU     LIG  285   3.584   7.044   8.394
    1AU     LIG  286   3.197   7.299   8.538
    1AU       S  287   4.674   6.467   6.007
    1AU     LIG  288   4.564   6.924   6.148
    1AU     LIG  289   4.339   7.369   6.090
    1AU     LIG  290   4.005   7.736   6.114
    1AU     LIG  291   3.564   7.946   6.051
    1AU     LIG  292   3.107   8.149   6.144
    1AU     LIG  293   2.688   8.139   6.418
    1AU    AUSL  294   5.081   6.013   5.779
    1AU    AUSL  295   5.389   6.347   5.722
    1AU     AUL  296   5.109   6.334   5.804
    1AU       S  297   4.629   6.133   5.773
    1AU     LIG  298   4.453   6.532   5.520
    1AU     LIG  299   4.074   6.775   5.304
    1AU     LIG  300   3.559   6.828   5.261
    1AU     LIG  301   3.062   6.908   5.181
    1AU     LIG  302   2.590   6.723   5.136
    1AU     LIG  303   2.122   6.882   5.122
    1AU       S  304   4.959   6.604   5.409
    1AU     LIG  305   4.782   6.981   5.191
    1AU     LIG  306   4.804   7.264   4.813
    1AU     LIG  307   4.589   7.670   4.767
    1AU     LIG  308   4.418   8.073   4.570
    1AU     LIG  309   4.185   8.438   4.373
    1AU     LIG  310   3.831   8.760   4.276
    1AU    AUSL  311   5.091   6.001   6.262
    1AU    AUSL  312   5.047   5.740   5.839
    1AU     AUL  313   5.121   6.127   6.012
    1AU       S  314   4.640   5.589   5.822
    1AU     LIG  315   4.252   5.482   6.214
    1AU     LIG  316   3.753   5.369   6.307
    1AU     LIG  317   3.273   5.202   6.282
    1AU     LIG  318   2.876   5.032   5.995
    1AU     LIG  319   2.391   5.076   5.872
    1AU     LIG  320   1.972   4.957   5.644
    1AU       S  321   4.613   6.093   6.201
    1AU     LIG  322   4.335   6.439   6.400
    1AU     LIG  323   3.925   6.591   6.617
    1AU     LIG  324   3.461   6.696   6.737
    1AU     LIG  325   3.019   6.869   6.839
    1AU     LIG  326   2.574   7.039   6.873
    1AU     LIG  327   2.166   6.817   6.786
    1AU    AUSL  328   6.306   5.374   5.985
    1AU    AUSL  329   6.162   5.583   6.492
    1AU     AUL  330   6.400   5.575   6.275
    1AU       S  331   6.675   5.166   6.086
    1AU     LIG  332   6.906   4.799   6.233
    1AU     LIG  333   7.259   4.534   6.064
    1AU     LIG  334   7.682   4.321   5.990
    1AU     LIG  335   8.126   4.142   5.993
    1AU     LIG  336   8.513   3.920   6.178
    1AU     LIG  337   8.873   3.807   6.522
    1AU       S  338   6.239   5.185   6.807
    1AU     LIG  339   6.550   4.881   7.048
    1AU     LIG  340   6.835   4.531   7.217
    1AU     LIG  341   7.115   4.241   7.474
    1AU     LIG  342   7.484   4.150   7.774
    1AU     LIG  343   7.862   4.147   8.086
    1AU     LIG  344   8.263   4.123   8.336
    1AU    AUSL  345   6.378   5.609   5.842
    1AU    AUSL  346   6.146   5.320   5.733
    1AU     AUL  347   6.494   5.505   5.599
    1AU       S  348   6.769   5.318   5.965
    1AU     LIG  349   7.160   5.020   5.839
    1AU     LIG  350   7.608   4.804   5.780
    1AU     LIG  351   8.043   4.589   5.722
    1AU     LIG  352   8.478   4.388   5.705
    1AU     LIG  353   8.887   4.404   5.477
    1AU     LIG  354   9.253   4.666   5.544
    1AU       S  355   6.374   5.053   5.360
    1AU     LIG  356   6.553   4.657   5.155
    1AU     LIG  357   6.720   4.231   4.996
    1AU     LIG  358   6.873   3.802   4.813
    1AU     LIG  359   7.088   3.348   4.836
    1AU     LIG  360   7.498   3.100   4.755
    1AU     LIG  361   7.903   3.087   4.497
    1AU    AUSL  362   5.168   5.514   5.952
    1AU    AUSL  363   5.216   5.587   5.655
    1AU     AUL  364   5.083   5.850   5.533
    1AU       S  365   4.905   5.339   5.432
    1AU     LIG  366   4.472   5.178   5.423
    1AU     LIG  367   4.126   4.986   5.158
    1AU     LIG  368   3.972   4.700   4.824
    1AU     LIG  369   3.804   4.421   4.494
    1AU     LIG  370   3.455   4.416   4.182
    1AU     LIG  371   3.154   4.476   3.816
    1AU       S  372   4.772   5.393   5.921
    1AU     LIG  373   4.449   5.101   5.936
    1AU     LIG  374   4.027   5.032   6.037
    1AU     LIG  375   3.654   4.851   6.268
    1AU     LIG  376   3.189   4.683   6.232
    1AU     LIG  377   2.764   4.464   6.086
    1AU     LIG  378   2.535   4.066   5.922
    1AU    AUSL  379   5.092   5.751   6.114
    1AU    AUSL  380   5.303   5.364   6.262
    1AU     AUL  381   5.052   5.710   6.346
    1AU       S  382   4.994   5.086   6.259
    1AU     LIG  383   4.721   4.743   6.164
    1AU     LIG  384   4.375   4.523   6.380
    1AU     LIG  385   4.091   4.272   6.680
    1AU     LIG  386   3.839   4.015   7.003
    1AU     LIG  387   3.611   3.723   7.317
    1AU     LIG  388   3.344   3.326   7.425
    1AU       S  389   4.660   5.639   5.975
    1AU     LIG  390   4.173   5.478   5.726
    1AU     LIG  391   3.701   5.385   5.793
    1AU     LIG  392   3.216   5.479   5.869
    1AU     LIG  393   2.836   5.480   6.199
    1AU     LIG  394   2.433   5.268   6.355
    1AU     LIG  395   1.999   5.105   6.492
    1AU    AUSL  396   5.781   6.435   6.385
    1AU    AUSL  397   5.364   6.326   6.282
    1AU     AUL  398   5.423   6.553   6.176
    1AU       S  399   5.245   6.611   6.653
    1AU     LIG  400   4.965   6.806   7.016
    1AU     LIG  401   4.837   7.153   7.328
    1AU     LIG  402   4.676   7.608   7.412
    1AU     LIG  403   4.616   8.093   7.452
    1AU     LIG  404   4.317   8.473   7.469
    1AU     LIG  405   3.920   8.633   7.677
    1AU       S  406   5.709   6.852   6.547
    1AU     LIG  407   5.909   7.142   6.835
    1AU     LIG  408   6.016   7.577   6.977
    1AU     LIG  409   6.100   7.886   7.337
    1AU     LIG  410   6.063   8.127   7.761
    1AU     LIG  411   5.920   8.421   8.121
    1AU     LIG  412   5.979   8.837   8.340
    1AU    AUSL  413   5.695   6.526   6.109
    1AU    AUSL  414   5.905   6.532   5.885
    1AU     AUL  415   5.398   6.595   5.886
    1AU       S  416   5.677   6.989   6.253
    1AU     LIG  417   5.601   7.389   6.499
    1AU     LIG  418   5.654   7.829   6.678
    1AU     LIG  419   5.493   8.276   6.791
    1AU     LIG  420   5.373   8.745   6.914
    1AU     LIG  421   5.325   9.226   7.101
    1AU     LIG  422   5.162   9.644   7.290
    1AU       S  423   6.024   6.970   5.761
    1AU     LIG  424   6.260   7.352   5.559
    1AU     LIG  425   6.404   7.763   5.318
    1AU     LIG  426   6.722   8.159   5.244
    1AU     LIG  427   6.844   8.641   5.222
    1AU     LIG  428   6.903   9.116   5.150
    1AU     LIG  429   6.856   9.587   5.118
    1AU    AUSL  430   5.973   6.501   6.167
    1AU    AUSL  431   6.038   6.263   6.505
    1AU     AUL  432   6.155   6.590   6.433
    1AU       S  433   6.407   6.321   6.797
    1AU     LIG  434   6.675   6.324   7.200
    1AU     LIG  435   6.886   6.609   7.540
    1AU     LIG  436   7.106   6.826   7.919
    1AU     LIG  437   7.242   7.094   8.304
    1AU     LIG  438   7.325   7.495   8.572
    1AU     LIG  439   7.451   7.865   8.855
    1AU       S  440   5.927   7.006   6.269
    1AU     LIG  441   6.115   7.439   6.466
    1AU     LIG  442   6.351   7.849   6.660
    1AU     LIG  443   6.670   8.260   6.704
    1AU     LIG  444   6.954   8.700   6.708
    1AU     LIG  445   6.973   9.167   6.876
    1AU     LIG  446   6.740   9.605   6.857
    1AU    AUSL  447   5.748   5.263   6.406
    1AU    AUSL  448   6.192   5.375   6.278
    1AU     AUL  449   6.095   5.122   6.187
    1AU       S  450   5.674   4.846   6.585
    1AU     LIG  451   5.380   4.541   6.772
    1AU     LIG  452   5.235   4.104   6.724
    1AU     LIG  453   5.289   3.646   6.852
    1AU     LIG  454   5.370   3.289   7.162
    1AU     LIG  455   5.377   3.079   7.606
    1AU     LIG  456   5.438   2.909   8.061
    1AU       S  457   6.432   5.049   6.566
    1AU     LIG  458   6.518   4.629   6.591
    1AU     LIG  459   6.523   4.290   6.875
    1AU     LIG  460   6.780   4.015   7.129
    1AU     LIG  461   7.067   3.729   7.344
    1AU     LIG  462   7.291   3.325   7.403
    1AU     LIG  463   7.635   3.174   7.647
    1AU    AUSL  464   5.553   5.199   6.205
    1AU    AUSL  465   5.484   5.413   6.468
    1AU     AUL  466   5.605   5.383   6.652
    1AU       S  467   5.459   4.806   6.349
    1AU     LIG  468   5.137   4.511   6.327
    1AU     LIG  469   5.091   4.050   6.236
    1AU     LIG  470   5.009   3.594   6.412
    1AU     LIG  471   4.752   3.174   6.548
    1AU     LIG  472   4.632   2.737   6.746
    1AU     LIG  473   4.658   2.266   6.658
    1AU       S  474   5.094   5.083   6.482
    1AU     LIG  475   4.820   4.751   6.666
    1AU     LIG  476   4.452   4.569   6.903
    1AU     LIG  477   4.252   4.252   7.199
    1AU     LIG  478   4.057   3.939   7.495
    1AU     LIG  479   4.094   3.661   7.882
    1AU     LIG  480   4.155   3.517   8.334
    1AU    AUSL  481   5.824   5.174   6.145
    1AU    AUSL  482   5.535   5.160   5.898
    1AU     AUL  483   5.961   5.019   5.952
    1AU       S  484   5.262   4.819   5.890
    1AU     LIG  485   4.995   4.409   5.858
    1AU     LIG  486   5.023   3.945   5.731
    1AU     LIG  487   4.986   3.491   5.530
    1AU     LIG  488   4.730   3.039   5.466
    1AU     LIG  489   4.672   2.552   5.325
    1AU     LIG  490   4.747   2.216   4.991
    1AU       S  491   5.679   4.760   6.308
    1AU     LIG  492   5.582   4.280   6.340
    1AU     LIG  493   5.515   3.798   6.403
    1AU     LIG  494   5.620   3.341   6.559
    1AU     LIG  495   5.911   2.925   6.569
    1AU     LIG  496   6.126   2.511   6.732
    1AU     LIG  497   6.330   2.116   6.909
    1AU    AUSL  498   5.744   6.405   5.558
    1AU    AUSL  499   6.261   6.222   5.747
    1AU     AUL  500   6.043   6.436   5.547
    1AU       S  501   5.857   6.903   5.443
    1AU     LIG  502   5.963   7.273   5.149
    1AU     LIG  503   6.110   7.631   4.876
    1AU     LIG  504   6.108   7.821   4.428
    1AU     LIG  505   6.013   8.139   4.080
    1AU     LIG  506   5.969   8.583   3.912
    1AU     LIG  507   6.005   8.924   3.584
    1AU       S  508   6.608   6.342   5.507
    1AU     LIG  509   6.813   6.677   5.243
    1AU     LIG  510   7.117   6.799   4.900
    1AU     LIG  511   7.408   7.130   4.692
    1AU     LIG  512   7.629   7.580   4.687
    1AU     LIG  513   7.815   8.030   4.604
    1AU     LIG  514   7.853   8.435   4.342
    1AU    AUSL  515   5.642   6.489   5.812
    1AU    AUSL  516   5.508   6.252   5.473
    1AU     AUL  517   5.433   6.629   5.589
    1AU       S  518   5.801   6.940   5.764
    1AU     LIG  519   5.752   7.407   5.598
    1AU     LIG  520   5.852   7.814   5.308
    1AU     LIG  521   5.761   8.300   5.132
    1AU     LIG  522   5.467   8.727   4.994
    1AU     LIG  523   5.393   9.222   4.842
    1AU     LIG  524   4.939   9.410   4.742
    1AU       S  525   5.133   6.542   5.172
    1AU     LIG  526   4.989   6.772   4.758
    1AU     LIG  527   4.886   6.992   4.328
    1AU     LIG  528   4.860   7.062   3.839
    1AU     LIG  529   4.883   7.441   3.535
    1AU     LIG  530   4.615   7.800   3.432
    1AU     LIG  531   4.443   8.096   3.129
    1AU    AUSL  532   5.599   5.272   5.639
    1AU    AUSL  533   5.345   5.346   5.755
    1AU     AUL  534   5.763   5.254   5.571
    1AU       S  535   5.010   5.115   5.570
    1AU     LIG  536   4.736   4.792   5.652
    1AU     LIG  537   4.282   4.717   5.587
    1AU     LIG  538   3.961   4.497   5.304
    1AU     LIG  539   3.739   4.207   4.982
    1AU     LIG  540   3.482   3.767   4.903
    1AU     LIG  541   3.252   3.374   4.697
    1AU       S  542   5.417   4.847   5.621
    1AU     LIG  543   5.190   4.520   5.405
    1AU     LIG  544   5.237   4.056   5.278
    1AU     LIG  545   5.344   3.603   5.124
    1AU     LIG  546   5.372   3.314   4.708
    1AU     LIG  547   5.392   3.098   4.250
    1AU     LIG  548   5.571   2.779   3.917
    1AU    AUSL  549   5.803   5.217   5.849
    1AU    AUSL  550   5.975   5.415   5.480
    1AU     AUL  551   5.943   5.043   5.650
    1AU       S  552   5.520   4.761   5.835
    1AU     LIG  553   5.473   4.268   5.802
    1AU     LIG  554   5.511   3.796   5.633
    1AU     LIG  555   5.711   3.370   5.483
    1AU     LIG  556   6.051   2.992   5.481
    1AU     LIG  557   6.285   2.598   5.312
    1AU     LIG  558   6.531   2.206   5.134
    1AU       S  559   6.147   5.177   5.162
    1AU     LIG  560   6.122   4.812   4.908
    1AU     LIG  561   6.341   4.466   4.707
    1AU     LIG  562   6.637   4.184   4.487
    1AU     LIG  563   6.725   3.875   4.158
    1AU     LIG  564   6.946   3.704   3.793
    1AU     LIG  565   7.234   3.552   3.469
    2POPC   NC3  566   1.448   2.459   7.883
    2POPC   PO4  567   1.168   3.024   8.182
    2POPC   GL1  568   1.177   2.914   7.761
    2POPC   GL2  569   0.832   2.862   7.688
    2POPC   C1A  570   1.312   2.782   7.342
    2POPC   D2A  571   1.489   2.699   6.969
    2POPC   C3A  572   1.318   2.728   6.569
    2POPC   C4A  573   1.581   2.973   6.307
    2POPC   C1B  574   0.897   3.081   7.300
    2POPC   C2B  575   0.974   3.065   6.858
    2POPC   C3B  576   0.819   2.869   6.467
    2POPC   C4B  577   1.104   2.782   6.097
    3POPC   NC3  578   2.648   2.029   8.082
    3POPC   PO4  579   3.200   2.283   7.830
    3POPC   GL1  580   2.975   1.999   7.637
    3POPC   GL2  581   2.613   1.974   7.602
    3POPC   C1A  582   2.941   1.860   7.237
    3POPC   D2A  583   3.135   1.882   6.879
    3POPC   C3A  584   2.982   1.892   6.511
    3POPC   C4A  585   3.072   1.924   6.117
    3POPC   C1B  586   2.515   2.154   7.241
    3POPC   C2B  587   2.572   1.944   6.849
    3POPC   C3B  588   2.503   2.053   6.440
    3POPC   C4B  589   2.628   2.176   6.047
    4POPC   NC3  590   8.772   5.215   8.248
    4POPC   PO4  591   9.229   5.495   8.199
    4POPC   GL1  592   9.028   5.310   7.794
    4POPC   GL2  593   9.037   4.940   7.687
    4POPC   C1A  594   9.014   5.301   7.303
    4POPC   D2A  595   9.229   5.193   6.875
    4POPC   C3A  596   9.059   5.235   6.419
    4POPC   C4A  597   8.778   5.251   6.033
    4POPC   C1B  598   9.044   4.795   7.202
    4POPC   C2B  599   8.895   4.822   6.740
    4POPC   C3B  600   8.817   4.799   6.295
    4POPC   C4B  601   8.898   4.497   5.979
    5POPC   NC3  602   1.384   0.568   8.081
    5POPC   PO4  603   0.803   0.847   7.983
    5POPC   GL1  604   0.985   0.486   7.727
    5POPC   GL2  605   1.201   0.188   7.791
    5POPC   C1A  606   0.879   0.319   7.314
    5POPC   D2A  607   0.842   0.489   6.892
    5POPC   C3A  608   0.829   0.166   6.606
    5POPC   C4A  609   0.877  11.477   6.219
    5POPC   C1B  610   1.393   0.377   7.400
    5POPC   C2B  611   1.359   0.522   6.952
    5POPC   C3B  612   1.230   0.478   6.510
    5POPC   C4B  613   1.285   0.265   6.128
    6POPC   NC3  614   7.643   2.578   7.982
    6POPC   PO4  615   7.111   2.994   8.089
    6POPC   GL1  616   7.257   2.823   7.660
    6POPC   GL2  617   6.985   2.852   7.438
    6POPC   C1A  618   7.514   2.887   7.237
    6POPC   D2A  619   7.366   2.864   6.776
    6POPC   C3A  620   7.570   2.799   6.349
    6POPC   C4A  621   7.609   2.906   5.880
    6POPC   C1B  622   7.193   2.518   7.189
    6POPC   C2B  623   7.159   2.390   6.796
    6POPC   C3B  624   7.080   2.552   6.419
    6POPC   C4B  625   7.272   2.495   6.044
    7POPC   NC3  626   2.131   5.666   8.172
    7POPC   PO4  627   1.658   6.094   8.062
    7POPC   GL1  628   1.678   5.935   7.656
    7POPC   GL2  629   2.031   5.927   7.610
    7POPC   C1A  630   1.678   6.112   7.225
    7POPC   D2A  631   1.774   5.923   6.836
    7POPC   C3A  632   1.714   6.028   6.421
    7POPC   C4A  633   1.836   5.824   6.009
    7POPC   C1B  634   1.869   5.638   7.278
    7POPC   C2B  635   1.967   5.463   6.858
    7POPC   C3B  636   2.051   5.619   6.422
    7POPC   C4B  637   2.295   5.594   5.986
    8POPC   NC3  638   0.411   5.438   8.114
    8POPC   PO4  639   0.075   4.884   8.196
    8POPC   GL1  640   0.262   5.033   7.832
    8POPC   GL2  641   0.600   5.024   7.849
    8POPC   C1A  642   0.141   4.868   7.415
    8POPC   D2A  643   0.270   4.754   6.992
    8POPC   C3A  644   0.051   4.728   6.611
    8POPC   C4A  645   0.179   4.868   6.256
    8POPC   C1B  646   0.603   5.107   7.418
    8POPC   C2B  647   0.412   5.247   7.048
    8POPC   C3B  648   0.440   5.148   6.596
    8POPC   C4B  649   0.626   5.127   6.185
    9POPC   NC3  650  11.216   5.252   8.202
    9POPC   PO4  651  10.885   4.668   8.338
    9POPC   GL1  652  11.145   4.843   7.887
    9POPC   GL2  653  11.311   5.196   7.723
    9POPC   C1A  654  11.122   4.889   7.403
    9POPC   D2A  655  11.021   5.123   7.012
    9POPC   C3A  656  11.047   4.950   6.608
    9POPC   C4A  657  11.115   4.812   6.198
    9POPC   C1B  658  11.432   5.316   7.278
    9POPC   C2B  659  11.479   5.168   6.816
    9POPC   C3B  660  11.378   5.289   6.367
    9POPC   C4B  661  11.194   5.257   5.927
   10POPC   NC3  662  11.338   8.137   7.955
   10POPC   PO4  663  10.629   8.290   8.018
   10POPC   GL1  664  10.960   8.327   7.655
   10POPC   GL2  665  11.324   8.421   7.545
   10POPC   C1A  666  10.872   8.345   7.216
   10POPC   D2A  667  10.880   8.481   6.797
   10POPC   C3A  668  11.034   8.160   6.592
   10POPC   C4A  669  11.047   7.992   6.212
   10POPC   C1B  670  11.318   8.076   7.260
   10POPC   C2B  671  11.470   8.092   6.844
   10POPC   C3B  672  11.490   7.951   6.447
   10POPC   C4B  673  11.446   8.292   6.168
   11POPC   NC3  674   3.589   2.496   7.973
   11POPC   PO4  675   4.268   2.401   7.911
   11POPC   GL1  676   3.858   2.421   7.541
   11POPC   GL2  677   3.517   2.552   7.494
   11POPC   C1A  678   3.777   2.440   7.078
   11POPC   D2A  679   3.618   2.765   6.812
   11POPC   C3A  680   3.773   2.739   6.408
   11POPC   C4A  681   4.075   2.660   6.046
   11POPC   C1B  682   3.314   2.836   7.252
   11POPC   C2B  683   3.080   2.817   6.877
   11POPC   C3B  684   3.230   2.773   6.460
   11POPC   C4B  685   3.397   3.132   6.265
   12POPC   NC3  686   4.985   7.975   8.062
   12POPC   PO4  687   5.180   7.510   7.861
   12POPC   GL1  688   5.089   7.882   7.553
   12POPC   GL2  689   5.075   8.253   7.649
   12POPC   C1A  690   4.972   7.909   7.095
   12POPC   D2A  691   5.130   7.904   6.653
   12POPC   C3A  692   4.797   7.956   6.333
   12POPC   C4A  693   4.411   8.078   6.102
   12POPC   C1B  694   5.180   8.348   7.219
   12POPC   C2B  695   4.993   8.386   6.801
   12POPC   C3B  696   5.170   8.329   6.362
   12POPC   C4B  697   5.256   7.957   6.088
   13POPC   NC3  698   8.558   1.021   7.914
   13POPC   PO4  699   7.873   0.947   8.149
   13POPC   GL1  700   8.067   1.139   7.762
   13POPC   GL2  701   7.846   1.385   7.578
   13POPC   C1A  702   8.133   0.945   7.345
   13POPC   D2A  703   7.963   1.041   6.911
   13POPC   C3A  704   8.261   0.983   6.565
   13POPC   C4A  705   8.279   1.123   6.137
   13POPC   C1B  706   8.151   1.442   7.247
   13POPC   C2B  707   8.207   1.468   6.778
   13POPC   C3B  708   7.930   1.365   6.416
   13POPC   C4B  709   7.837   1.658   6.063
   14POPC   NC3  710   1.155   9.402   8.084
   14POPC   PO4  711   0.953  10.055   8.136
   14POPC   GL1  712   1.043   9.831   7.754
   14POPC   GL2  713   1.412   9.671   7.742
   14POPC   C1A  714   0.834   9.926   7.356
   14POPC   D2A  715   1.082  10.008   6.975
   14POPC   C3A  716   1.087   9.761   6.605
   14POPC   C4A  717   1.194   9.878   6.222
   14POPC   C1B  718   1.303   9.700   7.329
   14POPC   C2B  719   1.423   9.592   6.950
   14POPC   C3B  720   1.604   9.672   6.550
   14POPC   C4B  721   1.510   9.501   6.157
   15POPC   NC3  722   1.274  10.542   8.228
   15POPC   PO4  723   0.720  10.734   7.903
   15POPC   GL1  724   0.971  10.413   7.739
   15POPC   GL2  725   1.339  10.417   7.719
   15POPC   C1A  726   1.036  10.398   7.303
   15POPC   D2A  727   1.293  10.500   6.958
   15POPC   C3A  728   1.174  10.310   6.565
   15POPC   C4A  729   0.934  10.310   6.196
   15POPC   C1B  730   1.501  10.179   7.330
   15POPC   C2B  731   1.599  10.073   6.881
   15POPC   C3B  732   1.639  10.152   6.415
   15POPC   C4B  733   1.424  10.329   6.092
   16POPC   NC3  734   3.776   9.369   8.079
   16POPC   PO4  735   3.137   9.381   7.940
   16POPC   GL1  736   3.449   9.569   7.679
   16POPC   GL2  737   3.625   9.836   7.805
   16POPC   C1A  738   3.408   9.557   7.239
   16POPC   D2A  739   3.340   9.749   6.852
   16POPC   C3A  740   3.232   9.527   6.459
   16POPC   C4A  741   3.217   9.542   6.015
   16POPC   C1B  742   3.768   9.896   7.353
   16POPC   C2B  743   3.849   9.886   6.874
   16POPC   C3B  744   3.732   9.697   6.428
   16POPC   C4B  745   3.702   9.717   5.940
   17POPC   NC3  746  10.417   1.291   8.248
   17POPC   PO4  747  10.430   1.878   7.944
   17POPC   GL1  748  10.347   1.624   7.641
   17POPC   GL2  749  10.433   1.296   7.705
   17POPC   C1A  750  10.556   1.585   7.237
   17POPC   D2A  751  10.670   1.385   6.861
   17POPC   C3A  752  10.569   1.645   6.536
   17POPC   C4A  753  10.382   1.561   6.166
   17POPC   C1B  754  10.156   1.272   7.325
   17POPC   C2B  755  10.235   1.073   6.934
   17POPC   C3B  756  10.269   1.191   6.504
   17POPC   C4B  757  10.262   1.029   6.075
   18POPC   NC3  758   3.574  11.287   8.359
   18POPC   PO4  759   3.221  11.467   7.830
   18POPC   GL1  760   3.582  11.324   7.605
   18POPC   GL2  761   3.555  11.004   7.659
   18POPC   C1A  762   3.694  11.234   7.162
   18POPC   D2A  763   3.683  11.173   6.720
   18POPC   C3A  764   3.621   0.014   6.450
   18POPC   C4A  765   3.860   0.163   6.117
   18POPC   C1B  766   3.241  11.004   7.286
   18POPC   C2B  767   3.201  11.004   6.836
   18POPC   C3B  768   3.262  11.125   6.408
   18POPC   C4B  769   3.539  10.919   6.131
   19POPC   NC3  770  11.355   6.318   8.228
   19POPC   PO4  771  11.235   6.969   8.404
   19POPC   GL1  772  11.287   6.873   7.858
   19POPC   GL2  773  11.188   6.521   7.773
   19POPC   C1A  774  11.185   6.872   7.333
   19POPC   D2A  775  11.090   7.020   6.859
   19POPC   C3A  776  11.188   6.824   6.380
   19POPC   C4A  777  10.884   6.970   6.013
   19POPC   C1B  778  11.175   6.363   7.349
   19POPC   C2B  779  11.063   6.517   6.942
   19POPC   C3B  780  11.007   6.364   6.522
   19POPC   C4B  781  11.373   6.322   6.265
   20POPC   NC3  782  10.478   0.315   8.456
   20POPC   PO4  783  10.943   0.071   8.111
   20POPC   GL1  784  10.720   0.257   7.727
   20POPC   GL2  785  10.350   0.326   7.759
   20POPC   C1A  786  10.558   0.266   7.268
   20POPC   D2A  787  10.439   0.028   6.885
   20POPC   C3A  788  10.550   0.276   6.500
   20POPC   C4A  789  10.711   0.237   6.051
   20POPC   C1B  790  10.239   0.631   7.387
   20POPC   C2B  791  10.293   0.552   6.919
   20POPC   C3B  792  10.174   0.671   6.490
   20POPC   C4B  793  10.273   0.473   6.098
   21POPC   NC3  794   6.938   0.959   8.036
   21POPC   PO4  795   6.270   1.085   8.039
   21POPC   GL1  796   6.545   0.845   7.714
   21POPC   GL2  797   6.373   0.632   7.469
   21POPC   C1A  798   6.804   0.896   7.334
   21POPC   D2A  799   6.729   1.134   6.952
   21POPC   C3A  800   6.437   1.001   6.649
   21POPC   C4A  801   6.542   1.187   6.304
   21POPC   C1B  802   6.268   0.983   7.167
   21POPC   C2B  803   6.208   1.384   6.925
   21POPC   C3B  804   6.325   1.604   6.524
   21POPC   C4B  805   6.186   1.475   6.103
   22POPC   NC3  806   9.028  10.995   8.122
   22POPC   PO4  807   9.283  10.499   7.914
   22POPC   GL1  808   9.086  10.820   7.637
   22POPC   GL2  809   8.959  11.194   7.665
   22POPC   C1A  810   8.955  10.898   7.219
   22POPC   D2A  811   8.679  10.790   6.879
   22POPC   C3A  812   8.673  10.998   6.509
   22POPC   C4A  813   8.990  10.965   6.257
   22POPC   C1B  814   8.655  11.282   7.325
   22POPC   C2B  815   8.801  11.319   6.892
   22POPC   C3B  816   8.733   0.025   6.478
   22POPC   C4B  817   8.728  11.450   6.020
   23POPC   NC3  818   0.458   1.103   7.805
   23POPC   PO4  819   0.772   1.666   7.965
   23POPC   GL1  820   0.584   1.546   7.576
   23POPC   GL2  821   0.202   1.470   7.561
   23POPC   C1A  822   0.533   1.533   7.147
   23POPC   D2A  823   0.510   1.322   6.787
   23POPC   C3A  824   0.535   1.614   6.468
   23POPC   C4A  825   0.393   1.592   6.050
   23POPC   C1B  826   0.151   1.162   7.193
   23POPC   C2B  827   0.016   1.083   6.765
   23POPC   C3B  828   0.169   1.251   6.413
   23POPC   C4B  829   0.539   1.055   6.294
   24POPC   NC3  830   4.410   8.583   8.134
   24POPC   PO4  831   4.169   9.154   8.066
   24POPC   GL1  832   4.226   9.047   7.676
   24POPC   GL2  833   4.502   8.893   7.690
   24POPC   C1A  834   4.058   8.927   7.274
   24POPC   D2A  835   4.195   8.604   6.972
   24POPC   C3A  836   4.139   8.678   6.517
   24POPC   C4A  837   4.037   8.439   6.144
   24POPC   C1B  838   4.552   8.893   7.234
   24POPC   C2B  839   4.434   9.029   6.801
   24POPC   C3B  840   4.526   8.958   6.348
   24POPC   C4B  841   4.581   9.096   5.954
   25POPC   NC3  842   3.396   1.515   7.979
   25POPC   PO4  843   3.099   0.945   7.664
   25POPC   GL1  844   3.460   1.186   7.494
   25POPC   GL2  845   3.819   1.162   7.586
   25POPC   C1A  846   3.518   1.143   7.027
   25POPC   D2A  847   3.165   1.060   6.757
   25POPC   C3A  848   3.119   1.074   6.333
   25POPC   C4A  849   3.168   1.423   6.080
   25POPC   C1B  850   3.920   1.407   7.232
   25POPC   C2B  851   4.075   1.593   6.855
   25POPC   C3B  852   3.885   1.482   6.470
   25POPC   C4B  853   3.602   1.132   6.384
   26POPC   NC3  854   5.373   9.887   7.979
   26POPC   PO4  855   5.960   9.938   8.186
   26POPC   GL1  856   5.895   9.989   7.739
   26POPC   GL2  857   5.696   9.706   7.628
   26POPC   C1A  858   6.107   9.880   7.327
   26POPC   D2A  859   6.111   9.720   6.897
   26POPC   C3A  860   5.874   9.895   6.543
   26POPC   C4A  861   6.063   9.920   6.134
   26POPC   C1B  862   5.663   9.663   7.177
   26POPC   C2B  863   5.409   9.682   6.797
   26POPC   C3B  864   5.441   9.525   6.364
   26POPC   C4B  865   5.769   9.496   6.043
   27POPC   NC3  866  11.073  10.479   8.038
   27POPC   PO4  867  10.752   9.958   7.785
   27POPC   GL1  868  11.164  10.136   7.634
   27POPC   GL2  869  11.433  10.408   7.684
   27POPC   C1A  870  11.272  10.037   7.232
   27POPC   D2A  871  10.972  10.104   6.912
   27POPC   C3A  872  11.119  10.324   6.566
   27POPC   C4A  873  11.226  10.196   6.187
   27POPC   C1B  874  11.233  10.558   7.288
   27POPC   C2B  875  10.965  10.655   6.941
   27POPC   C3B  876  10.931  10.813   6.515
   27POPC   C4B  877  11.286  10.725   6.259
   28POPC   NC3  878   4.977   0.066   7.899
   28POPC   PO4  879   5.120   0.616   8.210
   28POPC   GL1  880   5.047   0.633   7.750
   28POPC   GL2  881   4.772   0.427   7.613
   28POPC   C1A  882   5.207   0.569   7.315
   28POPC   D2A  883   5.016   0.419   6.927
   28POPC   C3A  884   5.173   0.344   6.528
   28POPC   C4A  885   5.213   0.670   6.258
   28POPC   C1B  886   4.656   0.630   7.240
   28POPC   C2B  887   4.442   0.593   6.862
   28POPC   C3B  888   4.757   0.693   6.560
   28POPC   C4B  889   4.770   1.008   6.239
   29POPC   NC3  890   8.637   2.583   8.141
   29POPC   PO4  891   8.108   2.958   8.035
   29POPC   GL1  892   8.525   2.942   7.756
   29POPC   GL2  893   8.711   2.634   7.596
   29POPC   C1A  894   8.836   3.099   7.415
   29POPC   D2A  895   8.954   3.349   7.011
   29POPC   C3A  896   8.958   3.213   6.556
   29POPC   C4A  897   8.655   3.037   6.245
   29POPC   C1B  898   9.016   2.644   7.220
   29POPC   C2B  899   9.073   2.692   6.772
   29POPC   C3B  900   9.044   2.709   6.324
   29POPC   C4B  901   9.079   2.551   5.901
   30POPC   NC3  902   7.370  10.459   8.252
   30POPC   PO4  903   7.715  10.713   7.718
   30POPC   GL1  904   7.338  10.566   7.613
   30POPC   GL2  905   7.356  10.237   7.753
   30POPC   C1A  906   7.270  10.445   7.193
   30POPC   D2A  907   6.996  10.422   6.854
   30POPC   C3A  908   7.125  10.632   6.482
   30POPC   C4A  909   7.474  10.682   6.214
   30POPC   C1B  910   7.660  10.160   7.399
   30POPC   C2B  911   7.601  10.112   6.967
   30POPC   C3B  912   7.492  10.266   6.576
   30POPC   C4B  913   7.481  10.131   6.158
   31POPC   NC3  914  10.230   4.702   7.795
   31POPC   PO4  915  10.112   4.115   8.020
   31POPC   GL1  916   9.950   4.289   7.592
   31POPC   GL2  917   9.621   4.417   7.559
   31POPC   C1A  918  10.120   4.407   7.158
   31POPC   D2A  919  10.237   4.677   6.786
   31POPC   C3A  920  10.102   4.594   6.346
   31POPC   C4A  921   9.794   4.252   6.216
   31POPC   C1B  922   9.622   4.112   7.196
   31POPC   C2B  923   9.418   3.923   6.809
   31POPC   C3B  924   9.328   4.120   6.419
   31POPC   C4B  925   9.294   4.583   6.347
   32POPC   NC3  926   0.426   2.069   8.061
   32POPC   PO4  927   1.006   2.389   7.805
   32POPC   GL1  928   0.720   2.050   7.598
   32POPC   GL2  929   0.325   1.986   7.590
   32POPC   C1A  930   0.608   2.039   7.172
   32POPC   D2A  931   0.406   1.984   6.795
   32POPC   C3A  932   0.742   2.094   6.541
   32POPC   C4A  933   0.847   1.931   6.145
   32POPC   C1B  934   0.132   1.841   7.234
   32POPC   C2B  935   0.060   1.597   6.849
   32POPC   C3B  936   0.028   1.757   6.429
   32POPC   C4B  937   0.324   2.056   6.257
   33POPC   NC3  938   9.661   5.656   8.127
   33POPC   PO4  939  10.131   5.115   7.995
   33POPC   GL1  940  10.110   5.493   7.693
   33POPC   GL2  941   9.917   5.808   7.675
   33POPC   C1A  942   9.943   5.563   7.235
   33POPC   D2A  943   9.794   5.766   6.863
   33POPC   C3A  944   9.790   5.559   6.471
   33POPC   C4A  945   9.908   5.657   6.073
   33POPC   C1B  946   9.906   6.096   7.284
   33POPC   C2B  947   9.872   6.263   6.817
   33POPC   C3B  948   9.731   6.061   6.396
   33POPC   C4B  949   9.467   5.893   6.052
   34POPC   NC3  950   4.933   1.040   8.124
   34POPC   PO4  951   5.686   0.899   8.073
   34POPC   GL1  952   5.395   1.013   7.727
   34POPC   GL2  953   5.144   1.290   7.730
   34POPC   C1A  954   5.305   1.087   7.282
   34POPC   D2A  955   5.006   0.936   6.987
   34POPC   C3A  956   5.155   1.064   6.591
   34POPC   C4A  957   5.243   1.189   6.159
   34POPC   C1B  958   4.942   1.445   7.340
   34POPC   C2B  959   4.906   1.429   6.886
   34POPC   C3B  960   4.895   1.474   6.438
   34POPC   C4B  961   4.913   1.547   5.979
   35POPC   NC3  962   7.645   9.271   8.067
   35POPC   PO4  963   8.397   9.248   8.066
   35POPC   GL1  964   8.262   9.070   7.687
   35POPC   GL2  965   7.933   9.072   7.676
   35POPC   C1A  966   8.175   8.888   7.254
   35POPC   D2A  967   8.035   8.741   6.814
   35POPC   C3A  968   8.314   8.658   6.434
   35POPC   C4A  969   8.308   8.774   5.987
   35POPC   C1B  970   7.772   9.182   7.269
   35POPC   C2B  971   7.945   9.238   6.836
   35POPC   C3B  972   8.063   9.098   6.379
   35POPC   C4B  973   7.881   9.054   5.926
   36POPC   NC3  974   8.883  10.365   8.122
   36POPC   PO4  975   8.562  11.039   8.138
   36POPC   GL1  976   8.597  10.663   7.747
   36POPC   GL2  977   8.847  10.358   7.635
   36POPC   C1A  978   8.552  10.515   7.275
   36POPC   D2A  979   8.600  10.283   6.876
   36POPC   C3A  980   8.400  10.536   6.510
   36POPC   C4A  981   8.577  10.672   6.103
   36POPC   C1B  982   9.056  10.390   7.238
   36POPC   C2B  983   9.160  10.619   6.848
   36POPC   C3B  984   8.925  10.512   6.484
   36POPC   C4B  985   8.988  10.154   6.251
   37POPC   NC3  986   7.028   8.827   7.995
   37POPC   PO4  987   7.697   8.697   8.213
   37POPC   GL1  988   7.626   8.688   7.783
   37POPC   GL2  989   7.453   8.912   7.710
   37POPC   C1A  990   7.672   8.657   7.317
   37POPC   D2A  991   7.634   8.431   6.934
   37POPC   C3A  992   7.467   8.597   6.549
   37POPC   C4A  993   7.768   8.704   6.262
   37POPC   C1B  994   7.280   8.988   7.317
   37POPC   C2B  995   7.454   8.972   6.905
   37POPC   C3B  996   7.321   9.105   6.488
   37POPC   C4B  997   7.395   9.059   6.064
   38POPC   NC3  998   0.569  11.107   8.120
   38POPC   PO4  999   1.140  10.965   8.505
   38POPC   GL1 1000   1.190  10.970   7.961
   38POPC   GL2 1001   0.952  11.203   7.763
   38POPC   C1A 1002   1.218  10.865   7.457
   38POPC   D2A 1003   1.214  11.049   7.005
   38POPC   C3A 1004   1.210  10.863   6.571
   38POPC   C4A 1005   0.971  10.888   6.178
   38POPC   C1B 1006   1.177  11.390   7.390
   38POPC   C2B 1007   1.427   0.017   7.007
   38POPC   C3B 1008   1.304  11.463   6.572
   38POPC   C4B 1009   1.336  11.271   6.165
   39POPC   NC3 1010   9.367   8.557   8.049
   39POPC   PO4 1011   9.250   7.890   8.033
   39POPC   GL1 1012   9.547   8.058   7.692
   39POPC   GL2 1013   9.757   8.351   7.723
   39POPC   C1A 1014   9.630   7.995   7.226
   39POPC   D2A 1015   9.822   7.770   6.868
   39POPC   C3A 1016   9.651   7.869   6.462
   39POPC   C4A 1017   9.765   7.817   6.037
   39POPC   C1B 1018   9.699   8.488   7.320
   39POPC   C2B 1019   9.531   8.463   6.896
   39POPC   C3B 1020   9.692   8.414   6.483
   39POPC   C4B 1021   9.507   8.234   6.123
   40POPC   NC3 1022   1.105   1.335   8.033
   40POPC   PO4 1023   1.729   0.892   8.128
   40POPC   GL1 1024   1.482   0.965   7.774
   40POPC   GL2 1025   1.502   1.285   7.697
   40POPC   C1A 1026   1.548   0.888   7.325
   40POPC   D2A 1027   1.723   0.871   6.890
   40POPC   C3A 1028   1.373   0.954   6.618
   40POPC   C4A 1029   1.051   0.934   6.275
   40POPC   C1B 1030   1.339   1.376   7.296
   40POPC   C2B 1031   1.312   1.401   6.852
   40POPC   C3B 1032   0.981   1.339   6.561
   40POPC   C4B 1033   0.867   1.414   6.145
   41POPC   NC3 1034   8.195   3.410   8.054
   41POPC   PO4 1035   8.533   3.837   7.843
   41POPC   GL1 1036   8.457   3.439   7.615
   41POPC   GL2 1037   8.089   3.404   7.560
   41POPC   C1A 1038   8.406   3.262   7.198
   41POPC   D2A 1039   8.227   3.467   6.850
   41POPC   C3A 1040   8.463   3.470   6.479
   41POPC   C4A 1041   8.327   3.385   6.065
   41POPC   C1B 1042   7.863   3.267   7.174
   41POPC   C2B 1043   7.838   3.132   6.715
   41POPC   C3B 1044   7.818   3.253   6.257
   41POPC   C4B 1045   7.478   3.393   5.969
   42POPC   NC3 1046  11.136   9.814   8.029
   42POPC   PO4 1047  10.821   9.253   7.827
   42POPC   GL1 1048  11.005   9.565   7.579
   42POPC   GL2 1049  11.367   9.662   7.604
   42POPC   C1A 1050  10.798   9.677   7.198
   42POPC   D2A 1051  10.634   9.500   6.821
   42POPC   C3A 1052  10.755   9.811   6.524
   42POPC   C4A 1053  10.937   9.787   6.092
   42POPC   C1B 1054  11.354   9.527   7.191
   42POPC   C2B 1055  11.141   9.598   6.816
   42POPC   C3B 1056  11.041   9.381   6.445
   42POPC   C4B 1057  11.339   9.471   6.127
   43POPC   NC3 1058  10.998   7.373   8.430
   43POPC   PO4 1059  11.092   7.747   7.848
   43POPC   GL1 1060  11.183   7.333   7.636
   43POPC   GL2 1061  10.891   7.148   7.637
   43POPC   C1A 1062  11.466   7.278   7.278
   43POPC   D2A 1063   0.081   6.971   6.979
   43POPC   C3A 1064  11.497   7.177   6.568
   43POPC   C4A 1065  11.384   7.486   6.246
   43POPC   C1B 1066  10.928   7.430   7.232
   43POPC   C2B 1067  11.027   7.764   6.925
   43POPC   C3B 1068  10.849   7.668   6.538
   43POPC   C4B 1069  10.942   7.264   6.423
   44POPC   NC3 1070   1.563   8.056   8.156
   44POPC   PO4 1071   0.893   8.205   8.186
   44POPC   GL1 1072   1.186   8.241   7.803
   44POPC   GL2 1073   1.199   8.581   7.637
   44POPC   C1A 1074   1.434   8.187   7.393
   44POPC   D2A 1075   1.579   8.364   6.977
   44POPC   C3A 1076   1.568   8.214   6.572
   44POPC   C4A 1077   1.330   8.107   6.203
   44POPC   C1B 1078   0.956   8.378   7.333
   44POPC   C2B 1079   1.075   8.148   7.012
   44POPC   C3B 1080   1.060   8.266   6.630
   44POPC   C4B 1081   0.863   8.309   6.263
   45POPC   NC3 1082   3.276   3.060   8.090
   45POPC   PO4 1083   2.644   3.229   8.028
   45POPC   GL1 1084   2.613   3.149   7.618
   45POPC   GL2 1085   2.445   3.455   7.550
   45POPC   C1A 1086   2.821   3.259   7.208
   45POPC   D2A 1087   2.654   3.434   6.820
   45POPC   C3A 1088   2.877   3.443   6.418
   45POPC   C4A 1089   2.946   3.849   6.167
   45POPC   C1B 1090   2.291   3.305   7.182
   45POPC   C2B 1091   2.138   3.532   6.849
   45POPC   C3B 1092   2.328   3.624   6.469
   45POPC   C4B 1093   2.411   3.225   6.407
   46POPC   NC3 1094  10.772   8.885   8.086
   46POPC   PO4 1095  11.325   9.396   8.155
   46POPC   GL1 1096  11.336   9.164   7.736
   46POPC   GL2 1097  11.184   8.850   7.786
   46POPC   C1A 1098  11.495   9.038   7.315
   46POPC   D2A 1099  11.284   9.084   6.888
   46POPC   C3A 1100  11.479   9.086   6.463
   46POPC   C4A 1101  11.189   8.977   6.142
   46POPC   C1B 1102  11.047   8.798   7.352
   46POPC   C2B 1103  11.327   8.582   7.033
   46POPC   C3B 1104  11.339   8.593   6.568
   46POPC   C4B 1105  10.998   8.525   6.243
   47POPC   NC3 1106   0.661   3.016   8.148
   47POPC   PO4 1107   0.260   2.480   8.237
   47POPC   GL1 1108   0.314   2.723   7.858
   47POPC   GL2 1109   0.472   2.475   7.713
   47POPC   C1A 1110   0.398   2.901   7.418
   47POPC   D2A 1111   0.478   3.001   6.982
   47POPC   C3A 1112   0.227   2.983   6.622
   47POPC   C4A 1113   0.380   2.945   6.196
   47POPC   C1B 1114   0.277   2.402   7.313
   47POPC   C2B 1115   0.297   2.477   6.882
   47POPC   C3B 1116   0.398   2.512   6.476
   47POPC   C4B 1117   0.716   2.447   6.190
   48POPC   NC3 1118   5.558   0.492   8.231
   48POPC   PO4 1119   6.089   0.176   7.972
   48POPC   GL1 1120   5.664   0.148   7.773
   48POPC   GL2 1121   5.586   0.512   7.695
   48POPC   C1A 1122   5.462   0.111   7.347
   48POPC   D2A 1123   5.558   0.308   6.959
   48POPC   C3A 1124   5.627   0.087   6.561
   48POPC   C4A 1125   5.523   0.128   6.129
   48POPC   C1B 1126   5.908   0.363   7.373
   48POPC   C2B 1127   6.118   0.511   7.045
   48POPC   C3B 1128   6.001   0.726   6.692
   48POPC   C4B 1129   5.873   0.479   6.305
   49POPC   NC3 1130  10.546   4.924   8.156
   49POPC   PO4 1131  10.823   5.536   8.102
   49POPC   GL1 1132  10.796   5.187   7.726
   49POPC   GL2 1133  10.497   5.157   7.663
   49POPC   C1A 1134  10.643   4.903   7.271
   49POPC   D2A 1135  10.551   5.077   6.844
   49POPC   C3A 1136  10.551   4.905   6.445
   49POPC   C4A 1137  10.705   5.081   6.124
   49POPC   C1B 1138  10.403   5.357   7.250
   49POPC   C2B 1139  10.229   5.454   6.779
   49POPC   C3B 1140  10.153   5.215   6.364
   49POPC   C4B 1141   9.874   5.165   5.975
   50POPC   NC3 1142   7.965  10.429   7.966
   50POPC   PO4 1143   8.501  10.145   7.970
   50POPC   GL1 1144   8.342  10.208   7.601
   50POPC   GL2 1145   8.094  10.462   7.484
   50POPC   C1A 1146   8.202  10.061   7.211
   50POPC   D2A 1147   8.075  10.260   6.836
   50POPC   C3A 1148   8.275  10.031   6.567
   50POPC   C4A 1149   8.468  10.112   6.216
   50POPC   C1B 1150   7.800  10.578   7.124
   50POPC   C2B 1151   7.535  10.737   6.822
   50POPC   C3B 1152   7.850  10.652   6.552
   50POPC   C4B 1153   7.956  10.320   6.296
   51POPC   NC3 1154   9.983   1.901   8.028
   51POPC   PO4 1155   9.383   1.659   8.223
   51POPC   GL1 1156   9.488   1.809   7.771
   51POPC   GL2 1157   9.642   2.164   7.751
   51POPC   C1A 1158   9.412   1.956   7.308
   51POPC   D2A 1159   9.697   1.950   6.924
   51POPC   C3A 1160   9.535   1.964   6.503
   51POPC   C4A 1161   9.311   1.782   6.167
   51POPC   C1B 1162   9.810   2.283   7.341
   51POPC   C2B 1163   9.506   2.431   7.008
   51POPC   C3B 1164   9.496   2.478   6.549
   51POPC   C4B 1165   9.861   2.317   6.309
   52POPC   NC3 1166  10.509   2.283   8.162
   52POPC   PO4 1167  10.851   1.785   8.272
   52POPC   GL1 1168  10.800   2.129   7.751
   52POPC   GL2 1169  10.389   2.142   7.535
   52POPC   C1A 1170  10.784   2.160   7.250
   52POPC   D2A 1171  10.476   1.984   6.940
   52POPC   C3A 1172  10.555   2.159   6.544
   52POPC   C4A 1173  10.566   2.035   6.148
   52POPC   C1B 1174  10.090   1.837   7.278
   52POPC   C2B 1175  10.111   1.608   6.867
   52POPC   C3B 1176  10.113   1.890   6.488
   52POPC   C4B 1177  10.056   1.936   6.016
   53POPC   NC3 1178   2.872   5.776   8.234
   53POPC   PO4 1179   3.262   6.176   8.099
   53POPC   GL1 1180   2.923   6.002   7.775
   53POPC   GL2 1181   2.629   5.720   7.721
   53POPC   C1A 1182   2.906   5.900   7.327
   53POPC   D2A 1183   2.985   6.127   6.939
   53POPC   C3A 1184   2.970   5.849   6.577
   53POPC   C4A 1185   3.092   5.909   6.140
   53POPC   C1B 1186   2.411   5.706   7.262
   53POPC   C2B 1187   2.471   5.565   6.786
   53POPC   C3B 1188   2.508   5.805   6.376
   53POPC   C4B 1189   2.619   5.963   5.945
   54POPC   NC3 1190   8.965   9.330   8.119
   54POPC   PO4 1191   9.055   9.971   8.278
   54POPC   GL1 1192   8.858   9.832   7.810
   54POPC   GL2 1193   8.718   9.507   7.697
   54POPC   C1A 1194   8.735   9.947   7.340
   54POPC   D2A 1195   8.961   9.897   6.906
   54POPC   C3A 1196   8.721   9.772   6.508
   54POPC   C4A 1197   8.693   9.667   6.017
   54POPC   C1B 1198   9.055   9.530   7.368
   54POPC   C2B 1199   9.202   9.314   7.003
   54POPC   C3B 1200   9.180   9.364   6.557
   54POPC   C4B 1201   9.128   9.659   6.230
   55POPC   NC3 1202   9.727   0.336   8.098
   55POPC   PO4 1203   9.302  11.353   8.060
   55POPC   GL1 1204   9.294   0.108   7.679
   55POPC   GL2 1205   9.437   0.442   7.661
   55POPC   C1A 1206   9.496   0.093   7.276
   55POPC   D2A 1207   9.394   0.348   6.940
   55POPC   C3A 1208   9.276   0.111   6.588
   55POPC   C4A 1209   9.307   0.298   6.189
   55POPC   C1B 1210   9.744   0.528   7.311
   55POPC   C2B 1211   9.800   0.682   6.874
   55POPC   C3B 1212   9.655   0.507   6.505
   55POPC   C4B 1213   9.779   0.468   6.063
   56POPC   NC3 1214   0.209   8.228   8.376
   56POPC   PO4 1215   0.313   7.860   7.849
   56POPC   GL1 1216   0.302   8.189   7.623
   56POPC   GL2 1217   0.650   8.249   7.700
   56POPC   C1A 1218   0.333   8.125   7.195
   56POPC   D2A 1219   0.589   8.167   6.863
   56POPC   C3A 1220   0.395   8.260   6.497
   56POPC   C4A 1221   0.388   8.048   6.132
   56POPC   C1B 1222   0.762   7.908   7.360
   56POPC   C2B 1223   0.788   7.700   6.913
   56POPC   C3B 1224   0.763   7.861   6.466
   56POPC   C4B 1225   0.803   7.836   5.973
   57POPC   NC3 1226   0.592   4.120   7.956
   57POPC   PO4 1227   0.419   3.418   8.083
   57POPC   GL1 1228   0.447   3.660   7.726
   57POPC   GL2 1229   0.624   3.357   7.614
   57POPC   C1A 1230   0.452   3.891   7.327
   57POPC   D2A 1231   0.665   3.953   6.914
   57POPC   C3A 1232   0.542   3.854   6.528
   57POPC   C4A 1233   0.644   3.721   6.131
   57POPC   C1B 1234   0.308   3.395   7.299
   57POPC   C2B 1235   0.399   3.506   6.893
   57POPC   C3B 1236   0.570   3.347   6.506
   57POPC   C4B 1237   0.215   3.440   6.207
   58POPC   NC3 1238   5.075  10.841   7.978
   58POPC   PO4 1239   4.583  11.349   8.040
   58POPC   GL1 1240   4.643  11.352   7.590
   58POPC   GL2 1241   4.897  11.132   7.588
   58POPC   C1A 1242   4.952   0.043   7.262
   58POPC   D2A 1243   5.207  11.433   6.897
   58POPC   C3A 1244   4.948  11.371   6.562
   58POPC   C4A 1245   4.967  11.494   6.143
   58POPC   C1B 1246   5.170  11.070   7.257
   58POPC   C2B 1247   5.200  10.899   6.853
   58POPC   C3B 1248   5.285  11.024   6.434
   58POPC   C4B 1249   5.156  10.969   6.037
   59POPC   NC3 1250   2.852   0.133   8.107
   59POPC   PO4 1251   2.950   0.759   8.133
   59POPC   GL1 1252   2.796   0.526   7.716
   59POPC   GL2 1253   2.512   0.310   7.749
   59POPC   C1A 1254   2.917   0.439   7.246
   59POPC   D2A 1255   2.611   0.341   6.885
   59POPC   C3A 1256   2.687   0.388   6.434
   59POPC   C4A 1257   2.973   0.117   6.173
   59POPC   C1B 1258   2.395   0.487   7.333
   59POPC   C2B 1259   2.242   0.750   6.963
   59POPC   C3B 1260   2.192   0.792   6.518
   59POPC   C4B 1261   2.475   0.736   6.115
   60POPC   NC3 1262   8.942   0.898   8.264
   60POPC   PO4 1263   8.420   1.410   8.118
   60POPC   GL1 1264   8.538   1.391   7.596
   60POPC   GL2 1265   8.821   1.145   7.501
   60POPC   C1A 1266   8.599   1.299   7.105
   60POPC   D2A 1267   8.889   1.295   6.799
   60POPC   C3A 1268   8.617   1.378   6.465
   60POPC   C4A 1269   8.677   1.363   5.965
   60POPC   C1B 1270   9.194   1.158   7.245
   60POPC   C2B 1271   9.318   0.879   6.926
   60POPC   C3B 1272   9.229   1.015   6.552
   60POPC   C4B 1273   9.071   1.330   6.282
   61POPC   NC3 1274   2.261  10.436   7.959
   61POPC   PO4 1275   1.693  10.728   8.137
   61POPC   GL1 1276   1.828  10.567   7.712
   61POPC   GL2 1277   1.848  10.179   7.721
   61POPC   C1A 1278   1.731  10.639   7.276
   61POPC   D2A 1279   1.667  10.834   6.894
   61POPC   C3A 1280   1.920  10.735   6.566
   61POPC   C4A 1281   1.863  10.605   6.202
   61POPC   C1B 1282   2.060  10.237   7.319
   61POPC   C2B 1283   2.012  10.371   6.894
   61POPC   C3B 1284   2.134  10.199   6.475
   61POPC   C4B 1285   2.032  10.188   6.012
   62POPC   NC3 1286   0.359   4.549   8.322
   62POPC   PO4 1287   0.115   4.092   7.979
   62POPC   GL1 1288   0.054   4.441   7.732
   62POPC   GL2 1289   0.376   4.550   7.787
   62POPC   C1A 1290   0.111   4.349   7.280
   62POPC   D2A 1291   0.162   4.065   6.942
   62POPC   C3A 1292   0.212   4.240   6.563
   62POPC   C4A 1293   0.208   4.002   6.179
   62POPC   C1B 1294   0.561   4.554   7.389
   62POPC   C2B 1295   0.692   4.473   6.955
   62POPC   C3B 1296   0.547   4.633   6.555
   62POPC   C4B 1297   0.535   4.410   6.180
   63POPC   NC3 1298   1.090   8.693   8.113
   63POPC   PO4 1299   1.596   9.291   8.084
   63POPC   GL1 1300   1.372   9.090   7.729
   63POPC   GL2 1301   1.031   9.063   7.705
   63POPC   C1A 1302   1.340   9.191   7.294
   63POPC   D2A 1303   1.088   9.206   6.939
   63POPC   C3A 1304   1.277   9.265   6.557
   63POPC   C4A 1305   1.358   9.042   6.192
   63POPC   C1B 1306   0.931   8.883   7.316
   63POPC   C2B 1307   1.173   8.686   6.983
   63POPC   C3B 1308   1.138   8.755   6.546
   63POPC   C4B 1309   0.855   8.809   6.192
   64POPC   NC3 1310   9.788  10.910   8.063
   64POPC   PO4 1311  10.156   0.099   8.193
   64POPC   GL1 1312  10.043  11.296   7.845
   64POPC   GL2 1313   9.701  11.312   7.721
   64POPC   C1A 1314  10.013  11.074   7.413
   64POPC   D2A 1315   9.795  11.214   7.053
   64POPC   C3A 1316   9.892  11.175   6.617
   64POPC   C4A 1317   9.879  10.896   6.243
   64POPC   C1B 1318   9.418  11.108   7.386
   64POPC   C2B 1319   9.304  11.148   6.906
   64POPC   C3B 1320   9.419  11.145   6.430
   64POPC   C4B 1321   9.234  11.332   6.022
   65POPC   NC3 1322   0.753   7.756   8.018
   65POPC   PO4 1323   1.426   7.658   7.954
   65POPC   GL1 1324   1.107   7.589   7.682
   65POPC   GL2 1325   1.069   7.250   7.810
   65POPC   C1A 1326   1.197   7.676   7.256
   65POPC   D2A 1327   1.464   7.835   6.966
   65POPC   C3A 1328   1.250   7.793   6.622
   65POPC   C4A 1329   1.176   7.617   6.256
   65POPC   C1B 1330   1.189   7.173   7.385
   65POPC   C2B 1331   0.960   7.124   6.983
   65POPC   C3B 1332   1.024   7.175   6.535
   65POPC   C4B 1333   1.477   7.235   6.388
   66POPC   NC3 1334   8.950   0.172   8.060
   66POPC   PO4 1335   9.364   0.705   8.128
   66POPC   GL1 1336   9.024   0.733   7.749
   66POPC   GL2 1337   8.862   0.417   7.638
   66POPC   C1A 1338   8.935   0.712   7.243
   66POPC   D2A 1339   8.697   0.836   6.839
   66POPC   C3A 1340   8.736   0.914   6.343
   66POPC   C4A 1341   8.610   0.845   5.882
   66POPC   C1B 1342   8.974   0.183   7.275
   66POPC   C2B 1343   8.867   0.332   6.886
   66POPC   C3B 1344   9.006   0.536   6.541
   66POPC   C4B 1345   8.792   0.448   6.160
   67POPC   NC3 1346   4.328   2.836   8.065
   67POPC   PO4 1347   3.713   3.111   7.998
   67POPC   GL1 1348   3.907   2.895   7.688
   67POPC   GL2 1349   4.245   2.771   7.552
   67POPC   C1A 1350   3.860   2.907   7.251
   67POPC   D2A 1351   4.141   2.757   6.915
   67POPC   C3A 1352   4.223   2.962   6.506
   67POPC   C4A 1353   4.435   3.075   6.131
   67POPC   C1B 1354   4.274   2.385   7.267
   67POPC   C2B 1355   4.202   2.224   6.877
   67POPC   C3B 1356   4.191   2.445   6.515
   67POPC   C4B 1357   4.547   2.591   6.273
   68POPC   NC3 1358   9.964   9.355   8.124
   68POPC   PO4 1359   9.811   8.717   8.067
   68POPC   GL1 1360   9.726   8.939   7.699
   68POPC   GL2 1361   9.355   9.017   7.683
   68POPC   C1A 1362   9.974   8.973   7.332
   68POPC   D2A 1363   9.949   8.746   6.938
   68POPC   C3A 1364   9.909   8.872   6.503
   68POPC   C4A 1365   9.911   9.120   6.124
   68POPC   C1B 1366   9.465   8.914   7.217
   68POPC   C2B 1367   9.481   8.972   6.749
   68POPC   C3B 1368   9.408   8.881   6.350
   68POPC   C4B 1369   9.175   8.488   6.413
   69POPC   NC3 1370  11.490   3.646   8.100
   69POPC   PO4 1371  10.757   3.582   7.964
   69POPC   GL1 1372  10.867   3.558   7.581
   69POPC   GL2 1373  11.196   3.439   7.675
   69POPC   C1A 1374  10.828   3.782   7.217
   69POPC   D2A 1375  10.922   3.639   6.813
   69POPC   C3A 1376  10.750   3.845   6.467
   69POPC   C4A 1377  11.053   3.658   6.161
   69POPC   C1B 1378  11.321   3.213   7.319
   69POPC   C2B 1379  11.365   3.278   6.867
   69POPC   C3B 1380  11.263   3.225   6.423
   69POPC   C4B 1381  10.973   2.920   6.235
   70POPC   NC3 1382   1.220   5.976   7.917
   70POPC   PO4 1383   0.883   5.452   8.081
   70POPC   GL1 1384   0.973   5.587   7.661
   70POPC   GL2 1385   1.338   5.539   7.677
   70POPC   C1A 1386   0.835   5.527   7.222
   70POPC   D2A 1387   0.737   5.531   6.781
   70POPC   C3A 1388   0.984   5.280   6.513
   70POPC   C4A 1389   1.096   5.391   6.085
   70POPC   C1B 1390   1.311   5.747   7.277
   70POPC   C2B 1391   1.255   5.577   6.871
   70POPC   C3B 1392   1.168   5.750   6.484
   70POPC   C4B 1393   1.342   5.884   6.093
   71POPC   NC3 1394  10.000   6.679   8.073
   71POPC   PO4 1395   9.962   6.028   8.125
   71POPC   GL1 1396  10.258   6.205   7.768
   71POPC   GL2 1397  10.512   6.496   7.818
   71POPC   C1A 1398  10.385   6.325   7.322
   71POPC   D2A 1399  10.586   6.295   6.908
   71POPC   C3A 1400  10.320   6.486   6.634
   71POPC   C4A 1401  10.013   6.479   6.319
   71POPC   C1B 1402  10.737   6.666   7.439
   71POPC   C2B 1403  10.638   6.782   6.994
   71POPC   C3B 1404  10.718   6.793   6.545
   71POPC   C4B 1405  10.452   6.732   6.186
   72POPC   NC3 1406   2.775   1.139   7.933
   72POPC   PO4 1407   3.034   1.755   8.128
   72POPC   GL1 1408   3.036   1.499   7.649
   72POPC   GL2 1409   2.725   1.487   7.530
   72POPC   C1A 1410   3.052   1.345   7.181
   72POPC   D2A 1411   2.781   1.478   6.930
   72POPC   C3A 1412   2.816   1.418   6.531
   72POPC   C4A 1413   2.654   1.629   6.198
   72POPC   C1B 1414   2.575   1.105   7.284
   72POPC   C2B 1415   2.748   0.854   6.975
   72POPC   C3B 1416   2.689   0.909   6.548
   72POPC   C4B 1417   2.415   1.194   6.308
   73POPC   NC3 1418   9.635   7.634   8.032
   73POPC   PO4 1419   9.711   7.004   7.983
   73POPC   GL1 1420   9.603   7.332   7.619
   73POPC   GL2 1421   9.810   7.645   7.544
   73POPC   C1A 1422   9.500   7.474   7.153
   73POPC   D2A 1423   9.445   7.447   6.665
   73POPC   C3A 1424   9.523   7.057   6.397
   73POPC   C4A 1425   9.578   6.855   5.963
   73POPC   C1B 1426   9.960   7.291   7.262
   73POPC   C2B 1427   9.916   7.270   6.815
   73POPC   C3B 1428   9.903   7.409   6.389
   73POPC   C4B 1429  10.020   7.124   6.062
   74POPC   NC3 1430  10.543   3.954   8.113
   74POPC   PO4 1431  10.684   4.574   7.867
   74POPC   GL1 1432  10.566   4.436   7.509
   74POPC   GL2 1433  10.428   4.187   7.637
   74POPC   C1A 1434  10.706   4.343   7.139
   74POPC   D2A 1435  10.739   4.596   6.824
   74POPC   C3A 1436  10.653   4.414   6.444
   74POPC   C4A 1437  10.665   4.570   6.023
   74POPC   C1B 1438  10.351   3.978   7.288
   74POPC   C2B 1439  10.466   3.979   6.888
   74POPC   C3B 1440  10.228   4.170   6.623
   74POPC   C4B 1441  10.313   4.113   6.233
   75POPC   NC3 1442   4.887  10.248   8.304
   75POPC   PO4 1443   4.979   9.619   8.007
   75POPC   GL1 1444   4.976   9.996   7.691
   75POPC   GL2 1445   4.962  10.370   7.744
   75POPC   C1A 1446   5.222  10.169   7.331
   75POPC   D2A 1447   5.149  10.371   6.917
   75POPC   C3A 1448   4.970  10.079   6.579
   75POPC   C4A 1449   5.059   9.829   6.183
   75POPC   C1B 1450   4.913  10.619   7.348
   75POPC   C2B 1451   4.711  10.666   6.928
   75POPC   C3B 1452   4.897  10.636   6.514
   75POPC   C4B 1453   5.037  10.380   6.178
   76POPC   NC3 1454   7.553   8.275   8.068
   76POPC   PO4 1455   6.966   8.376   7.964
   76POPC   GL1 1456   7.159   8.517   7.587
   76POPC   GL2 1457   7.399   8.289   7.573
   76POPC   C1A 1458   7.177   8.521   7.132
   76POPC   D2A 1459   7.181   8.221   6.776
   76POPC   C3A 1460   7.066   8.329   6.367
   76POPC   C4A 1461   7.082   8.644   6.048
   76POPC   C1B 1462   7.395   8.058   7.211
   76POPC   C2B 1463   7.598   7.925   6.831
   76POPC   C3B 1464   7.439   7.947   6.396
   76POPC   C4B 1465   7.526   7.813   5.958
   77POPC   NC3 1466   2.364  11.113   8.385
   77POPC   PO4 1467   3.067  11.283   8.316
   77POPC   GL1 1468   2.705  11.288   7.817
   77POPC   GL2 1469   2.406  11.163   7.772
   77POPC   C1A 1470   2.690   0.008   7.396
   77POPC   D2A 1471   2.894  11.378   7.006
   77POPC   C3A 1472   2.710  11.413   6.598
   77POPC   C4A 1473   2.489  11.442   6.198
   77POPC   C1B 1474   2.646  11.014   7.376
   77POPC   C2B 1475   2.700  10.888   6.951
   77POPC   C3B 1476   2.796  10.933   6.506
   77POPC   C4B 1477   2.607  10.932   6.097
   78POPC   NC3 1478   7.993   0.503   8.110
   78POPC   PO4 1479   8.655   0.562   8.092
   78POPC   GL1 1480   8.371   0.564   7.749
   78POPC   GL2 1481   8.214   0.230   7.741
   78POPC   C1A 1482   8.435   0.483   7.318
   78POPC   D2A 1483   8.251   0.610   6.939
   78POPC   C3A 1484   8.448   0.479   6.558
   78POPC   C4A 1485   8.247   0.595   6.189
   78POPC   C1B 1486   7.855   0.318   7.449
   78POPC   C2B 1487   7.874   0.261   7.004
   78POPC   C3B 1488   7.901   0.431   6.580
   78POPC   C4B 1489   7.727   0.160   6.276
   79POPC   NC3 1490   2.009   0.508   8.113
   79POPC   PO4 1491   2.394   0.020   8.167
   79POPC   GL1 1492   2.072   0.067   7.812
   79POPC   GL2 1493   1.860   0.354   7.652
   79POPC   C1A 1494   2.128   0.006   7.373
   79POPC   D2A 1495   2.380  11.377   7.011
   79POPC   C3A 1496   2.201   0.055   6.615
   79POPC   C4A 1497   2.172   0.352   6.277
   79POPC   C1B 1498   1.876   0.485   7.228
   79POPC   C2B 1499   1.843   0.379   6.790
   79POPC   C3B 1500   1.722   0.600   6.411
   79POPC   C4B 1501   1.712   0.488   5.981
   80POPC   NC3 1502  10.839   3.277   8.300
   80POPC   PO4 1503  10.157   3.372   8.284
   80POPC   GL1 1504  10.337   3.378   7.798
   80POPC   GL2 1505  10.353   3.691   7.689
   80POPC   C1A 1506  10.638   3.087   7.525
   80POPC   D2A 1507  10.848   3.233   7.143
   80POPC   C3A 1508  10.856   3.099   6.729
   80POPC   C4A 1509  10.743   3.345   6.394
   80POPC   C1B 1510  10.424   3.480   7.289
   80POPC   C2B 1511  10.433   3.478   6.822
   80POPC   C3B 1512  10.291   3.612   6.403
   80POPC   C4B 1513  10.513   3.633   6.005
   81POPC   NC3 1514  10.907   6.762   8.159
   81POPC   PO4 1515  10.656   7.297   8.133
   81POPC   GL1 1516  10.400   7.163   7.768
   81POPC   GL2 1517  10.097   7.341   7.827
   81POPC   C1A 1518  10.486   7.155   7.297
   81POPC   D2A 1519  10.623   7.265   6.852
   81POPC   C3A 1520  10.335   7.120   6.542
   81POPC   C4A 1521  10.494   7.271   6.184
   81POPC   C1B 1522  10.302   7.590   7.468
   81POPC   C2B 1523  10.286   7.601   7.010
   81POPC   C3B 1524  10.336   7.628   6.576
   81POPC   C4B 1525  10.247   7.721   6.161
   82POPC   NC3 1526   0.562   9.890   7.968
   82POPC   PO4 1527   0.737   9.189   8.096
   82POPC   GL1 1528   0.690   9.441   7.755
   82POPC   GL2 1529   0.328   9.497   7.745
   82POPC   C1A 1530   0.860   9.419   7.340
   82POPC   D2A 1531   0.710   9.638   6.939
   82POPC   C3A 1532   0.614   9.594   6.481
   82POPC   C4A 1533   0.925   9.421   6.204
   82POPC   C1B 1534   0.364   9.567   7.330
   82POPC   C2B 1535   0.242   9.872   7.045
   82POPC   C3B 1536  11.487   9.980   6.702
   82POPC   C4B 1537   0.109   9.877   6.283
   83POPC   NC3 1538   3.382   2.070   8.183
   83POPC   PO4 1539   3.854   1.494   7.987
   83POPC   GL1 1540   3.672   1.675   7.610
   83POPC   GL2 1541   3.554   1.995   7.654
   83POPC   C1A 1542   3.427   1.644   7.293
   83POPC   D2A 1543   3.567   1.621   6.911
   83POPC   C3A 1544   3.352   1.544   6.553
   83POPC   C4A 1545   3.542   1.791   6.221
   83POPC   C1B 1546   3.413   2.132   7.227
   83POPC   C2B 1547   3.312   2.354   6.831
   83POPC   C3B 1548   3.415   2.274   6.415
   83POPC   C4B 1549   3.803   2.256   6.221
   84POPC   NC3 1550   6.669  10.764   7.966
   84POPC   PO4 1551   6.979  10.212   8.151
   84POPC   GL1 1552   6.744  10.302   7.750
   84POPC   GL2 1553   6.356  10.374   7.816
   84POPC   C1A 1554   6.759  10.516   7.318
   84POPC   D2A 1555   6.475  10.574   6.923
   84POPC   C3A 1556   6.621  10.456   6.518
   84POPC   C4A 1557   6.700  10.705   6.174
   84POPC   C1B 1558   6.284  10.360   7.370
   84POPC   C2B 1559   6.496  10.082   7.013
   84POPC   C3B 1560   6.391  10.007   6.557
   84POPC   C4B 1561   6.587   9.919   6.143
   85POPC   NC3 1562   9.644   2.739   7.960
   85POPC   PO4 1563   9.052   2.567   7.966
   85POPC   GL1 1564   9.227   2.839   7.649
   85POPC   GL2 1565   9.431   2.588   7.512
   85POPC   C1A 1566   9.328   3.062   7.235
   85POPC   D2A 1567   9.519   2.917   6.846
   85POPC   C3A 1568   9.440   3.023   6.442
   85POPC   C4A 1569   9.507   2.766   6.082
   85POPC   C1B 1570   9.749   2.787   7.271
   85POPC   C2B 1571   9.981   2.674   6.904
   85POPC   C3B 1572   9.898   2.794   6.481
   85POPC   C4B 1573   9.974   2.974   6.095
   86POPC   NC3 1574   0.203   9.152   8.087
   86POPC   PO4 1575  11.462   8.559   8.156
   86POPC   GL1 1576   0.226   8.697   7.752
   86POPC   GL2 1577   0.605   8.768   7.801
   86POPC   C1A 1578   0.468   8.595   7.330
   86POPC   D2A 1579   0.674   8.661   6.911
   86POPC   C3A 1580   0.367   8.757   6.590
   86POPC   C4A 1581   0.292   8.668   6.155
   86POPC   C1B 1582   0.484   9.077   7.472
   86POPC   C2B 1583   0.551   9.147   7.026
   86POPC   C3B 1584   0.735   9.109   6.604
   86POPC   C4B 1585   0.481   9.147   6.248
   87POPC   NC3 1586   6.732   2.772   7.967
   87POPC   PO4 1587   7.253   2.340   7.844
   87POPC   GL1 1588   6.918   2.351   7.562
   87POPC   GL2 1589   6.588   2.408   7.589
   87POPC   C1A 1590   6.755   2.282   7.132
   87POPC   D2A 1591   6.652   2.498   6.755
   87POPC   C3A 1592   6.568   2.349   6.346
   87POPC   C4A 1593   6.764   2.632   6.024
   87POPC   C1B 1594   6.502   2.714   7.240
   87POPC   C2B 1595   6.400   2.934   6.834
   87POPC   C3B 1596   6.386   2.820   6.386
   87POPC   C4B 1597   6.158   2.909   5.995
   88POPC   NC3 1598   5.959  10.391   8.180
   88POPC   PO4 1599   5.300  10.336   8.123
   88POPC   GL1 1600   5.489  10.408   7.713
   88POPC   GL2 1601   5.852  10.495   7.698
   88POPC   C1A 1602   5.436  10.638   7.294
   88POPC   D2A 1603   5.654  10.626   6.880
   88POPC   C3A 1604   5.410  10.529   6.498
   88POPC   C4A 1605   5.462  10.565   6.019
   88POPC   C1B 1606   5.771  10.260   7.304
   88POPC   C2B 1607   6.022  10.248   6.933
   88POPC   C3B 1608   6.089  10.486   6.584
   88POPC   C4B 1609   5.837  10.362   6.286
   89POPC   NC3 1610   1.121   1.953   7.909
   89POPC   PO4 1611   1.673   2.199   8.210
   89POPC   GL1 1612   1.674   2.064   7.715
   89POPC   GL2 1613   1.441   1.799   7.570
   89POPC   C1A 1614   1.467   2.209   7.296
   89POPC   D2A 1615   1.236   2.207   6.922
   89POPC   C3A 1616   1.476   2.207   6.565
   89POPC   C4A 1617   1.204   2.298   6.238
   89POPC   C1B 1618   1.082   1.828   7.275
   89POPC   C2B 1619   0.927   1.756   6.871
   89POPC   C3B 1620   1.174   1.804   6.508
   89POPC   C4B 1621   1.360   1.567   6.174
   90POPC   NC3 1622   6.117   0.669   7.937
   90POPC   PO4 1623   6.825   0.454   8.064
   90POPC   GL1 1624   6.788   0.380   7.671
   90POPC   GL2 1625   6.889   0.077   7.655
   90POPC   C1A 1626   6.827   0.385   7.239
   90POPC   D2A 1627   6.639   0.618   6.924
   90POPC   C3A 1628   6.791   0.609   6.484
   90POPC   C4A 1629   6.795   0.836   6.048
   90POPC   C1B 1630   6.436   0.123   7.396
   90POPC   C2B 1631   6.464   0.122   6.963
   90POPC   C3B 1632   6.336   0.359   6.608
   90POPC   C4B 1633   6.326   0.262   6.214
   91POPC   NC3 1634   4.341   1.839   8.021
   91POPC   PO4 1635   3.824   2.123   8.110
   91POPC   GL1 1636   4.057   1.995   7.652
   91POPC   GL2 1637   4.179   1.680   7.564
   91POPC   C1A 1638   3.886   1.949   7.205
   91POPC   D2A 1639   3.764   2.037   6.729
   91POPC   C3A 1640   4.128   1.932   6.439
   91POPC   C4A 1641   4.291   2.188   6.097
   91POPC   C1B 1642   4.395   1.867   7.189
   91POPC   C2B 1643   4.538   1.766   6.738
   91POPC   C3B 1644   4.638   1.890   6.290
   91POPC   C4B 1645   4.473   1.792   5.848
   92POPC   NC3 1646   7.612  11.095   7.935
   92POPC   PO4 1647   6.887  11.197   8.003
   92POPC   GL1 1648   6.977  10.970   7.582
   92POPC   GL2 1649   7.305  11.111   7.501
   92POPC   C1A 1650   7.039  10.899   7.099
   92POPC   D2A 1651   7.204  11.128   6.727
   92POPC   C3A 1652   6.980  11.107   6.338
   92POPC   C4A 1653   7.071  10.901   5.910
   92POPC   C1B 1654   7.687  11.266   7.268
   92POPC   C2B 1655   7.824  11.236   6.833
   92POPC   C3B 1656   7.662  11.135   6.427
   92POPC   C4B 1657   7.401  11.246   6.095
   93POPC   NC3 1658   0.388  10.528   8.130
   93POPC   PO4 1659   0.107   9.960   7.959
   93POPC   GL1 1660   0.258  10.034   7.551
   93POPC   GL2 1661   0.464  10.331   7.641
   93POPC   C1A 1662   0.185  10.353   7.209
   93POPC   D2A 1663   0.287  10.633   6.853
   93POPC   C3A 1664   0.195  10.410   6.484
   93POPC   C4A 1665   0.535  10.109   6.437
   93POPC   C1B 1666   0.582  10.640   7.303
   93POPC   C2B 1667   0.815  10.733   6.946
   93POPC   C3B 1668   0.727  10.597   6.557
   93POPC   C4B 1669   0.540  10.620   6.169
   94POPC   NC3 1670   4.263   0.289   8.194
   94POPC   PO4 1671   4.571   0.798   7.942
   94POPC   GL1 1672   4.277   0.562   7.669
   94POPC   GL2 1673   4.275   0.207   7.685
   94POPC   C1A 1674   4.036   0.439   7.270
   94POPC   D2A 1675   3.848   0.283   6.866
   94POPC   C3A 1676   4.086   0.418   6.504
   94POPC   C4A 1677   4.350   0.709   6.261
   94POPC   C1B 1678   4.462   0.175   7.252
   94POPC   C2B 1679   4.609   0.120   6.841
   94POPC   C3B 1680   4.546   0.185   6.412
   94POPC   C4B 1681   4.438  11.401   6.076
   95POPC   NC3 1682   7.190   1.884   7.947
   95POPC   PO4 1683   7.736   2.065   8.291
   95POPC   GL1 1684   7.665   2.055   7.765
   95POPC   GL2 1685   7.487   1.782   7.553
   95POPC   C1A 1686   7.581   2.165   7.252
   95POPC   D2A 1687   7.421   1.962   6.822
   95POPC   C3A 1688   7.488   2.174   6.411
   95POPC   C4A 1689   7.485   2.031   5.983
   95POPC   C1B 1690   7.121   1.940   7.238
   95POPC   C2B 1691   6.907   1.950   6.771
   95POPC   C3B 1692   6.989   2.044   6.301
   95POPC   C4B 1693   6.733   2.137   5.911
   96POPC   NC3 1694  11.130   4.366   8.072
   96POPC   PO4 1695  11.094   3.710   8.352
   96POPC   GL1 1696  11.138   3.908   7.867
   96POPC   GL2 1697  10.905   4.071   7.693
   96POPC   C1A 1698  11.302   3.896   7.396
   96POPC   D2A 1699  11.154   4.089   6.965
   96POPC   C3A 1700  11.261   3.964   6.512
   96POPC   C4A 1701  10.979   4.152   6.146
   96POPC   C1B 1702  11.126   4.382   7.413
   96POPC   C2B 1703  11.225   4.597   6.997
   96POPC   C3B 1704  11.151   4.445   6.560
   96POPC   C4B 1705  11.422   4.417   6.183
   97POPC   NC3 1706   8.115   1.745   8.301
   97POPC   PO4 1707   8.636   2.148   8.293
   97POPC   GL1 1708   8.539   1.860   7.874
   97POPC   GL2 1709   8.188   1.728   7.786
   97POPC   C1A 1710   8.519   1.841   7.388
   97POPC   D2A 1711   8.276   1.935   6.994
   97POPC   C3A 1712   8.433   1.894   6.560
   97POPC   C4A 1713   8.302   1.662   6.227
   97POPC   C1B 1714   7.982   1.879   7.420
   97POPC   C2B 1715   7.806   1.727   7.027
   97POPC   C3B 1716   7.866   1.834   6.578
   97POPC   C4B 1717   8.041   2.097   6.249
   98POPC   NC3 1718  11.102   5.881   8.137
   98POPC   PO4 1719   0.133   6.098   7.939
   98POPC   GL1 1720  11.290   5.997   7.675
   98POPC   GL2 1721  11.133   5.664   7.690
   98POPC   C1A 1722  11.336   5.838   7.251
   98POPC   D2A 1723  11.233   5.585   6.871
   98POPC   C3A 1724  11.216   5.797   6.464
   98POPC   C4A 1725  10.999   6.006   6.111
   98POPC   C1B 1726  10.931   5.502   7.329
   98POPC   C2B 1727  10.724   5.582   6.940
   98POPC   C3B 1728  10.821   5.416   6.541
   98POPC   C4B 1729  10.832   5.554   6.131
   99POPC   NC3 1730   1.538   6.483   8.297
   99POPC   PO4 1731   0.924   6.354   8.005
   99POPC   GL1 1732   1.181   6.425   7.681
   99POPC   GL2 1733   1.248   6.761   7.727
   99POPC   C1A 1734   1.190   6.259   7.263
   99POPC   D2A 1735   1.283   6.086   6.854
   99POPC   C3A 1736   1.175   6.259   6.438
   99POPC   C4A 1737   1.493   6.381   6.133
   99POPC   C1B 1738   0.984   6.720   7.319
   99POPC   C2B 1739   1.136   6.619   6.888
   99POPC   C3B 1740   1.300   6.747   6.476
   99POPC   C4B 1741   1.092   6.688   6.086
  100POPC   NC3 1742   1.377   4.331   8.070
  100POPC   PO4 1743   0.771   4.612   8.122
  100POPC   GL1 1744   0.946   4.400   7.698
  100POPC   GL2 1745   1.292   4.187   7.603
  100POPC   C1A 1746   0.906   4.159   7.305
  100POPC   D2A 1747   1.150   4.094   6.913
  100POPC   C3A 1748   0.902   4.240   6.545
  100POPC   C4A 1749   0.999   4.148   6.128
  100POPC   C1B 1750   1.359   4.448   7.273
  100POPC   C2B 1751   1.376   4.545   6.847
  100POPC   C3B 1752   1.387   4.349   6.435
  100POPC   C4B 1753   1.374   4.501   6.019
  101POPC   NC3 1754   7.171   9.824   8.000
  101POPC   PO4 1755   7.190   9.256   7.949
  101POPC   GL1 1756   7.455   9.412   7.605
  101POPC   GL2 1757   7.461   9.742   7.595
  101POPC   C1A 1758   7.363   9.468   7.144
  101POPC   D2A 1759   7.521   9.513   6.741
  101POPC   C3A 1760   7.298   9.678   6.381
  101POPC   C4A 1761   7.076   9.459   6.071
  101POPC   C1B 1762   7.205   9.939   7.269
  101POPC   C2B 1763   7.142   9.935   6.803
  101POPC   C3B 1764   7.012  10.118   6.377
  101POPC   C4B 1765   7.065   9.949   5.930
  102POPC   NC3 1766   2.165   8.619   7.993
  102POPC   PO4 1767   1.517   8.531   8.110
  102POPC   GL1 1768   1.701   8.584   7.722
  102POPC   GL2 1769   1.832   8.901   7.754
  102POPC   C1A 1770   1.591   8.751   7.300
  102POPC   D2A 1771   1.578   8.968   6.861
  102POPC   C3A 1772   1.670   8.715   6.461
  102POPC   C4A 1773   1.768   8.398   6.121
  102POPC   C1B 1774   2.084   8.819   7.385
  102POPC   C2B 1775   2.064   8.955   6.997
  102POPC   C3B 1776   2.147   8.861   6.609
  102POPC   C4B 1777   2.200   8.720   6.220
  103POPC   NC3 1778   2.971   6.509   8.126
  103POPC   PO4 1779   2.459   5.991   8.122
  103POPC   GL1 1780   2.464   6.198   7.678
  103POPC   GL2 1781   2.668   6.475   7.688
  103POPC   C1A 1782   2.516   6.206   7.229
  103POPC   D2A 1783   2.511   6.055   6.803
  103POPC   C3A 1784   2.711   6.259   6.387
  103POPC   C4A 1785   2.512   6.463   5.998
  103POPC   C1B 1786   2.658   6.685   7.269
  103POPC   C2B 1787   2.616   6.540   6.840
  103POPC   C3B 1788   2.663   6.752   6.451
  103POPC   C4B 1789   2.935   6.753   6.095
  104POPC   NC3 1790   7.747   1.290   8.433
  104POPC   PO4 1791   7.153   1.398   8.042
  104POPC   GL1 1792   7.326   1.284   7.623
  104POPC   GL2 1793   7.545   0.978   7.719
  104POPC   C1A 1794   7.367   1.478   7.166
  104POPC   D2A 1795   7.513   1.429   6.716
  104POPC   C3A 1796   7.388   1.610   6.277
  104POPC   C4A 1797   7.464   1.503   5.772
  104POPC   C1B 1798   7.589   1.017   7.269
  104POPC   C2B 1799   7.228   1.017   6.984
  104POPC   C3B 1800   7.109   1.019   6.556
  104POPC   C4B 1801   7.495   1.078   6.335
  105POPC   NC3 1802   3.750  10.314   8.208
  105POPC   PO4 1803   3.072  10.207   8.052
  105POPC   GL1 1804   3.304  10.237   7.727
  105POPC   GL2 1805   3.408  10.559   7.849
  105POPC   C1A 1806   3.293  10.077   7.311
  105POPC   D2A 1807   3.436  10.255   6.940
  105POPC   C3A 1808   3.249  10.135   6.545
  105POPC   C4A 1809   3.458  10.083   6.195
  105POPC   C1B 1810   3.501  10.564   7.388
  105POPC   C2B 1811   3.622  10.733   6.989
  105POPC   C3B 1812   3.507  10.632   6.560
  105POPC   C4B 1813   3.811  10.460   6.251
  106POPC   NC3 1814   0.684   6.796   7.938
  106POPC   PO4 1815   0.234   6.539   8.393
  106POPC   GL1 1816   0.220   6.592   7.910
  106POPC   GL2 1817   0.486   6.379   7.705
  106POPC   C1A 1818   0.127   6.651   7.445
  106POPC   D2A 1819   0.080   6.437   7.018
  106POPC   C3A 1820   0.150   6.644   6.598
  106POPC   C4A 1821   0.275   6.629   6.163
  106POPC   C1B 1822   0.558   6.441   7.252
  106POPC   C2B 1823   0.600   6.729   6.900
  106POPC   C3B 1824   0.784   6.648   6.503
  106POPC   C4B 1825   0.706   6.357   6.177
  107POPC   NC3 1826   5.973  11.220   7.897
  107POPC   PO4 1827   5.306  11.245   7.887
  107POPC   GL1 1828   5.585  10.932   7.685
  107POPC   GL2 1829   5.654  11.166   7.479
  107POPC   C1A 1830   5.930  10.790   7.311
  107POPC   D2A 1831   6.082  10.976   6.937
  107POPC   C3A 1832   5.756  11.096   6.674
  107POPC   C4A 1833   5.754  10.867   6.315
  107POPC   C1B 1834   5.993  11.355   7.284
  107POPC   C2B 1835   5.984   0.022   6.924
  107POPC   C3B 1836   6.184  11.379   6.589
  107POPC   C4B 1837   5.985  11.355   6.227
  108POPC   NC3 1838   9.962   3.685   8.020
  108POPC   PO4 1839   9.888   3.102   7.846
  108POPC   GL1 1840   9.921   3.422   7.515
  108POPC   GL2 1841   9.875   3.781   7.504
  108POPC   C1A 1842   9.971   3.483   7.080
  108POPC   D2A 1843   9.936   3.198   6.794
  108POPC   C3A 1844   9.826   3.365   6.398
  108POPC   C4A 1845   9.607   3.330   6.005
  108POPC   C1B 1846   9.503   3.585   7.229
  108POPC   C2B 1847   9.425   3.413   6.788
  108POPC   C3B 1848   9.310   3.567   6.353
  108POPC   C4B 1849   9.510   3.841   6.024
  109POPC   NC3 1850   2.056   4.563   8.074
  109POPC   PO4 1851   2.044   3.956   8.108
  109POPC   GL1 1852   1.790   4.111   7.759
  109POPC   GL2 1853   2.101   4.140   7.601
  109POPC   C1A 1854   1.703   4.078   7.279
  109POPC   D2A 1855   1.739   4.185   6.810
  109POPC   C3A 1856   1.822   4.588   6.554
  109POPC   C4A 1857   1.842   4.779   6.128
  109POPC   C1B 1858   2.195   3.877   7.233
  109POPC   C2B 1859   2.253   4.020   6.795
  109POPC   C3B 1860   2.281   4.171   6.367
  109POPC   C4B 1861   1.917   4.276   6.133
  110POPC   NC3 1862  10.170   8.414   8.037
  110POPC   PO4 1863  10.365   9.121   8.172
  110POPC   GL1 1864  10.263   8.849   7.775
  110POPC   GL2 1865  10.571   8.665   7.676
  110POPC   C1A 1866  10.194   8.524   7.390
  110POPC   D2A 1867  10.423   8.506   7.003
  110POPC   C3A 1868  10.309   8.557   6.556
  110POPC   C4A 1869  10.226   8.734   6.129
  110POPC   C1B 1870  10.525   8.916   7.310
  110POPC   C2B 1871  10.762   8.993   6.946
  110POPC   C3B 1872  10.770   8.904   6.521
  110POPC   C4B 1873  10.684   8.940   6.105
  111POPC   NC3 1874   0.431   0.602   8.128
  111POPC   PO4 1875   0.280  11.461   8.088
  111POPC   GL1 1876   0.522   0.085   7.717
  111POPC   GL2 1877   0.486   0.438   7.635
  111POPC   C1A 1878   0.428   0.042   7.265
  111POPC   D2A 1879   0.376   0.256   6.863
  111POPC   C3A 1880   0.382  11.497   6.449
  111POPC   C4A 1881   0.456   0.157   5.982
  111POPC   C1B 1882   0.475   0.689   7.239
  111POPC   C2B 1883   0.439   0.796   6.781
  111POPC   C3B 1884   0.464   0.533   6.429
  111POPC   C4B 1885   0.824   0.489   6.180
  112POPC   NC3 1886  10.613   9.591   8.046
  112POPC   PO4 1887   9.971   9.832   8.201
  112POPC   GL1 1888  10.230   9.826   7.776
  112POPC   GL2 1889  10.445   9.543   7.591
  112POPC   C1A 1890  10.258   9.894   7.294
  112POPC   D2A 1891  10.056   9.703   6.929
  112POPC   C3A 1892  10.236   9.645   6.542
  112POPC   C4A 1893  10.086   9.626   6.116
  112POPC   C1B 1894  10.291   9.366   7.220
  112POPC   C2B 1895  10.264   9.123   6.842
  112POPC   C3B 1896  10.328   9.158   6.421
  112POPC   C4B 1897  10.581   9.442   6.224
  113POPC   NC3 1898   9.582  10.063   8.376
  113POPC   PO4 1899   9.332   9.589   7.966
  113POPC   GL1 1900   9.713   9.682   7.756
  113POPC   GL2 1901   9.939   9.425   7.628
  113POPC   C1A 1902   9.732   9.837   7.319
  113POPC   D2A 1903   9.534   9.716   6.908
  113POPC   C3A 1904   9.740   9.864   6.533
  113POPC   C4A 1905   9.505   9.970   6.183
  113POPC   C1B 1906   9.614   9.360   7.359
  113POPC   C2B 1907   9.788   9.277   6.983
  113POPC   C3B 1908   9.820   9.360   6.579
  113POPC   C4B 1909   9.576   9.450   6.243
  114POPC   NC3 1910  10.184  10.331   8.104
  114POPC   PO4 1911  10.850  10.146   8.276
  114POPC   GL1 1912  10.623  10.434   7.843
  114POPC   GL2 1913  10.343  10.303   7.630
  114POPC   C1A 1914  10.744  10.439   7.363
  114POPC   D2A 1915  10.487  10.288   7.014
  114POPC   C3A 1916  10.607  10.399   6.610
  114POPC   C4A 1917  10.693  10.216   6.239
  114POPC   C1B 1918  10.279  10.641   7.339
  114POPC   C2B 1919  10.020  10.736   6.992
  114POPC   C3B 1920  10.108  10.611   6.579
  114POPC   C4B 1921  10.320  10.546   6.176
  115POPC   NC3 1922  10.631   7.790   7.966
  115POPC   PO4 1923   9.966   7.971   8.015
  115POPC   GL1 1924  10.162   8.043   7.647
  115POPC   GL2 1925  10.490   8.130   7.573
  115POPC   C1A 1926  10.139   8.038   7.220
  115POPC   D2A 1927   9.995   8.247   6.896
  115POPC   C3A 1928  10.098   8.081   6.525
  115POPC   C4A 1929  10.056   8.248   6.125
  115POPC   C1B 1930  10.640   7.897   7.234
  115POPC   C2B 1931  10.558   8.037   6.809
  115POPC   C3B 1932  10.571   8.129   6.355
  115POPC   C4B 1933  10.645   7.967   5.925
  116POPC   NC3 1934   0.007   7.532   7.943
  116POPC   PO4 1935   0.631   7.248   8.061
  116POPC   GL1 1936   0.458   7.389   7.681
  116POPC   GL2 1937   0.224   7.103   7.684
  116POPC   C1A 1938   0.377   7.581   7.246
  116POPC   D2A 1939   0.105   7.599   6.861
  116POPC   C3A 1940   0.343   7.569   6.461
  116POPC   C4A 1941   0.699   7.421   6.223
  116POPC   C1B 1942   0.484   7.061   7.290
  116POPC   C2B 1943   0.488   7.245   6.854
  116POPC   C3B 1944   0.470   7.042   6.466
  116POPC   C4B 1945   0.676   6.948   6.084
  117POPC   NC3 1946   8.374   9.714   8.021
  117POPC   PO4 1947   7.637   9.758   8.068
  117POPC   GL1 1948   7.947   9.567   7.772
  117POPC   GL2 1949   7.986   9.865   7.666
  117POPC   C1A 1950   8.272   9.499   7.392
  117POPC   D2A 1951   8.458   9.660   6.973
  117POPC   C3A 1952   8.273   9.527   6.567
  117POPC   C4A 1953   8.198   9.683   6.190
  117POPC   C1B 1954   7.826   9.694   7.263
  117POPC   C2B 1955   7.949   9.763   6.869
  117POPC   C3B 1956   7.799   9.841   6.462
  117POPC   C4B 1957   7.734   9.442   6.250
  118POPC   NC3 1958   3.278   0.547   7.854
  118POPC   PO4 1959   3.938   0.612   8.094
  118POPC   GL1 1960   3.776   0.662   7.709
  118POPC   GL2 1961   3.744   0.317   7.679
  118POPC   C1A 1962   3.625   0.734   7.308
  118POPC   D2A 1963   3.379   0.613   6.953
  118POPC   C3A 1964   3.603   0.642   6.556
  118POPC   C4A 1965   3.820   0.683   6.134
  118POPC   C1B 1966   3.543   0.226   7.285
  118POPC   C2B 1967   3.361   0.064   6.913
  118POPC   C3B 1968   3.201   0.301   6.573
  118POPC   C4B 1969   3.402   0.396   6.152
  119POPC   NC3 1970  11.316   2.392   8.264
  119POPC   PO4 1971  10.748   2.779   8.240
  119POPC   GL1 1972  10.959   2.581   7.938
  119POPC   GL2 1973  11.275   2.763   7.909
  119POPC   C1A 1974  10.953   2.575   7.520
  119POPC   D2A 1975  10.940   2.708   7.089
  119POPC   C3A 1976  10.966   2.370   6.781
  119POPC   C4A 1977  10.956   2.411   6.321
  119POPC   C1B 1978  11.432   2.727   7.505
  119POPC   C2B 1979  11.457   2.791   7.068
  119POPC   C3B 1980  11.261   2.766   6.675
  119POPC   C4B 1981  11.436   2.704   6.295
  120POPC   NC3 1982   8.121  11.206   8.228
  120POPC   PO4 1983   7.742  10.737   8.242
  120POPC   GL1 1984   8.140  10.896   7.845
  120POPC   GL2 1985   8.041  11.233   7.700
  120POPC   C1A 1986   8.241  10.929   7.341
  120POPC   D2A 1987   8.312  11.122   6.900
  120POPC   C3A 1988   8.172  11.029   6.439
  120POPC   C4A 1989   7.982  10.798   6.075
  120POPC   C1B 1990   8.176  11.449   7.311
  120POPC   C2B 1991   8.383   0.117   6.955
  120POPC   C3B 1992   8.202   0.023   6.575
  120POPC   C4B 1993   8.255   0.079   6.155
  121POPC   NC3 1994   5.896   1.308   8.158
  121POPC   PO4 1995   5.682   1.890   8.121
  121POPC   GL1 1996   5.680   1.487   7.735
  121POPC   GL2 1997   5.896   1.127   7.659
  121POPC   C1A 1998   5.768   1.411   7.263
  121POPC   D2A 1999   5.668   1.253   6.867
  121POPC   C3A 2000   5.900   1.331   6.511
  121POPC   C4A 2001   5.724   1.290   6.107
  121POPC   C1B 2002   5.756   0.852   7.276
  121POPC   C2B 2003   5.497   0.788   6.866
  121POPC   C3B 2004   5.624   0.914   6.427
  121POPC   C4B 2005   6.082   0.942   6.209
  122POPC   NC3 2006  10.813   1.636   7.845
  122POPC   PO4 2007  11.401   1.943   8.136
  122POPC   GL1 2008  11.381   2.247   7.747
  122POPC   GL2 2009  11.274   1.936   7.607
  122POPC   C1A 2010  11.286   2.298   7.251
  122POPC   D2A 2011  11.396   2.090   6.878
  122POPC   C3A 2012  11.433   2.269   6.537
  122POPC   C4A 2013  11.368   2.220   6.119
  122POPC   C1B 2014  11.116   1.781   7.217
  122POPC   C2B 2015  10.952   1.850   6.812
  122POPC   C3B 2016  11.023   1.894   6.364
  122POPC   C4B 2017  10.920   1.691   5.961
  123POPC   NC3 2018   1.294   3.410   7.952
  123POPC   PO4 2019   1.050   4.001   8.002
  123POPC   GL1 2020   0.974   3.751   7.638
  123POPC   GL2 2021   1.315   3.663   7.487
  123POPC   C1A 2022   0.871   3.595   7.219
  123POPC   D2A 2023   1.128   3.564   6.855
  123POPC   C3A 2024   1.056   3.749   6.472
  123POPC   C4A 2025   1.130   3.665   6.043
  123POPC   C1B 2026   1.370   3.277   7.215
  123POPC   C2B 2027   1.473   3.190   6.770
  123POPC   C3B 2028   1.164   3.231   6.403
  123POPC   C4B 2029   1.311   3.210   5.931
  124POPC   NC3 2030   9.307  10.046   7.883
  124POPC   PO4 2031   9.744  10.473   8.234
  124POPC   GL1 2032   9.794  10.512   7.757
  124POPC   GL2 2033   9.834  10.174   7.733
  124POPC   C1A 2034   9.554  10.598   7.323
  124POPC   D2A 2035   9.495  10.221   7.027
  124POPC   C3A 2036   9.406  10.256   6.590
  124POPC   C4A 2037   9.416  10.615   6.324
  124POPC   C1B 2038   9.941  10.287   7.300
  124POPC   C2B 2039  10.002  10.198   6.870
  124POPC   C3B 2040  10.183  10.130   6.457
  124POPC   C4B 2041   9.881  10.302   6.201
  125POPC   NC3 2042  11.029   0.659   7.967
  125POPC   PO4 2043   0.104   0.925   8.031
  125POPC   GL1 2044   0.002   0.548   7.763
  125POPC   GL2 2045  11.260   0.251   7.739
  125POPC   C1A 2046   0.064   0.380   7.347
  125POPC   D2A 2047   0.019   0.621   6.999
  125POPC   C3A 2048  11.465   0.527   6.599
  125POPC   C4A 2049   0.031   0.267   6.254
  125POPC   C1B 2050  11.065   0.349   7.323
  125POPC   C2B 2051  10.949   0.217   6.891
  125POPC   C3B 2052  11.059   0.222   6.458
  125POPC   C4B 2053  11.110   0.511   6.167
  126POPC   NC3 2054   0.506   6.177   8.189
  126POPC   PO4 2055  11.494   5.627   8.206
  126POPC   GL1 2056   0.147   5.622   7.745
  126POPC   GL2 2057   0.516   5.809   7.787
  126POPC   C1A 2058   0.337   5.652   7.349
  126POPC   D2A 2059   0.304   5.890   6.992
  126POPC   C3A 2060   0.212   5.620   6.658
  126POPC   C4A 2061   0.399   5.588   6.271
  126POPC   C1B 2062   0.743   5.995   7.438
  126POPC   C2B 2063   0.809   6.006   6.995
  126POPC   C3B 2064   0.700   5.989   6.549
  126POPC   C4B 2065   0.830   5.868   6.126
  127POPC   NC3 2066  10.401   5.822   8.095
  127POPC   PO4 2067  10.873   6.303   8.137
  127POPC   GL1 2068  10.763   6.033   7.755
  127POPC   GL2 2069  10.615   5.683   7.669
  127POPC   C1A 2070  10.814   6.005   7.304
  127POPC   D2A 2071  11.005   6.018   6.905
  127POPC   C3A 2072  10.728   5.936   6.561
  127POPC   C4A 2073  10.533   6.207   6.258
  127POPC   C1B 2074  10.347   5.835   7.401
  127POPC   C2B 2075  10.281   5.912   6.992
  127POPC   C3B 2076  10.203   5.961   6.576
  127POPC   C4B 2077  10.360   5.697   6.311
  128POPC   NC3 2078   2.074   6.305   7.970
  128POPC   PO4 2079   1.787   6.843   8.133
  128POPC   GL1 2080   1.766   6.747   7.667
  128POPC   GL2 2081   1.692   6.431   7.656
  128POPC   C1A 2082   1.599   6.630   7.199
  128POPC   D2A 2083   1.625   6.438   6.760
  128POPC   C3A 2084   1.818   6.654   6.418
  128POPC   C4A 2085   2.207   6.809   6.251
  128POPC   C1B 2086   2.061   6.423   7.354
  128POPC   C2B 2087   2.098   6.324   6.940
  128POPC   C3B 2088   2.229   6.373   6.528
  128POPC   C4B 2089   2.174   6.144   6.195
  129POPC   NC3 2090  10.293   2.986   8.076
  129POPC   PO4 2091  10.033   2.403   8.069
  129POPC   GL1 2092  10.353   2.582   7.784
  129POPC   GL2 2093  10.083   2.698   7.622
  129POPC   C1A 2094  10.489   2.621   7.343
  129POPC   D2A 2095  10.485   2.484   6.940
  129POPC   C3A 2096  10.590   2.679   6.551
  129POPC   C4A 2097  10.298   2.596   6.213
  129POPC   C1B 2098  10.188   3.024   7.283
  129POPC   C2B 2099  10.398   2.991   6.922
  129POPC   C3B 2100  10.315   3.093   6.476
  129POPC   C4B 2101  10.475   3.089   6.055
  130POPC   NC3 2102   4.283  10.301   7.875
  130POPC   PO4 2103   3.845  10.772   8.187
  130POPC   GL1 2104   3.914  10.640   7.769
  130POPC   GL2 2105   3.824  10.294   7.675
  130POPC   C1A 2106   3.954  10.836   7.377
  130POPC   D2A 2107   4.173  10.847   6.992
  130POPC   C3A 2108   4.016  10.810   6.598
  130POPC   C4A 2109   4.273  10.753   6.270
  130POPC   C1B 2110   3.958  10.353   7.221
  130POPC   C2B 2111   4.179  10.316   6.815
  130POPC   C3B 2112   4.486  10.330   6.475
  130POPC   C4B 2113   4.629  10.106   6.111
  131POPC   NC3 2114   1.026   5.013   8.128
  131POPC   PO4 2115   1.631   4.728   8.067
  131POPC   GL1 2116   1.279   4.782   7.700
  131POPC   GL2 2117   1.074   5.093   7.647
  131POPC   C1A 2118   0.992   4.779   7.281
  131POPC   D2A 2119   0.819   4.969   6.916
  131POPC   C3A 2120   1.022   4.764   6.564
  131POPC   C4A 2121   1.063   4.875   6.177
  131POPC   C1B 2122   1.247   5.225   7.264
  131POPC   C2B 2123   1.325   5.054   6.859
  131POPC   C3B 2124   1.471   5.064   6.435
  131POPC   C4B 2125   1.567   5.483   6.323
  132POPC   NC3 2126   5.855   2.304   8.076
  132POPC   PO4 2127   6.301   2.635   7.923
  132POPC   GL1 2128   6.062   2.315   7.583
  132POPC   GL2 2129   5.869   1.982   7.654
  132POPC   C1A 2130   5.881   2.085   7.165
  132POPC   D2A 2131   5.894   1.800   6.781
  132POPC   C3A 2132   6.110   2.066   6.459
  132POPC   C4A 2133   6.054   2.444   6.218
  132POPC   C1B 2134   5.491   1.824   7.390
  132POPC   C2B 2135   5.371   1.657   6.961
  132POPC   C3B 2136   5.444   1.568   6.497
  132POPC   C4B 2137   5.773   1.778   6.213
  133POPC   NC3 2138  11.473  11.281   7.787
  133POPC   PO4 2139   0.165  10.903   8.288
  133POPC   GL1 2140   0.230  10.841   7.762
  133POPC   GL2 2141   0.445  11.084   7.631
  133POPC   C1A 2142   0.132  10.906   7.265
  133POPC   D2A 2143  11.429  10.990   6.819
  133POPC   C3A 2144   0.214  10.933   6.419
  133POPC   C4A 2145   0.158  10.819   5.922
  133POPC   C1B 2146   0.720  11.128   7.292
  133POPC   C2B 2147   0.495  11.148   6.900
  133POPC   C3B 2148   0.687  11.106   6.521
  133POPC   C4B 2149   0.532  11.141   6.072
  134POPC   NC3 2150   2.279   3.566   8.025
  134POPC   PO4 2151   1.659   3.143   7.880
  134POPC   GL1 2152   1.923   3.258   7.562
  134POPC   GL2 2153   1.948   3.625   7.621
  134POPC   C1A 2154   1.851   3.053   7.143
  134POPC   D2A 2155   2.062   3.015   6.751
  134POPC   C3A 2156   1.900   3.326   6.460
  134POPC   C4A 2157   1.538   3.528   6.310
  134POPC   C1B 2158   1.771   3.577   7.203
  134POPC   C2B 2159   1.644   3.683   6.792
  134POPC   C3B 2160   1.878   3.863   6.438
  134POPC   C4B 2161   2.102   3.798   6.037
  135POPC   NC3 2162   1.640   2.815   8.195
  135POPC   PO4 2163   2.276   2.379   8.066
  135POPC   GL1 2164   1.961   2.564   7.819
  135POPC   GL2 2165   2.117   2.896   7.893
  135POPC   C1A 2166   1.827   2.557   7.358
  135POPC   D2A 2167   1.821   2.329   6.945
  135POPC   C3A 2168   1.815   2.586   6.583
  135POPC   C4A 2169   1.668   2.497   6.169
  135POPC   C1B 2170   2.224   2.853   7.451
  135POPC   C2B 2171   2.255   2.588   7.049
  135POPC   C3B 2172   2.323   2.560   6.587
  135POPC   C4B 2173   2.111   2.839   6.255
  136POPC   NC3 2174   2.847   9.011   7.983
  136POPC   PO4 2175   2.537   8.490   7.769
  136POPC   GL1 2176   2.510   8.930   7.605
  136POPC   GL2 2177   2.807   9.014   7.443
  136POPC   C1A 2178   2.387   9.259   7.265
  136POPC   D2A 2179   2.388   9.298   6.785
  136POPC   C3A 2180   2.620   9.042   6.462
  136POPC   C4A 2181   2.634   8.879   6.009
  136POPC   C1B 2182   2.536   8.788   7.099
  136POPC   C2B 2183   2.555   8.570   6.678
  136POPC   C3B 2184   2.900   8.618   6.365
  136POPC   C4B 2185   3.120   9.023   6.224
  137POPC   NC3 2186   2.094   1.946   8.096
  137POPC   PO4 2187   1.465   1.638   8.067
  137POPC   GL1 2188   1.874   1.615   7.750
  137POPC   GL2 2189   2.135   1.818   7.626
  137POPC   C1A 2190   1.806   1.585   7.318
  137POPC   D2A 2191   1.566   1.812   6.988
  137POPC   C3A 2192   1.679   1.724   6.547
  137POPC   C4A 2193   1.743   1.967   6.147
  137POPC   C1B 2194   2.016   2.041   7.307
  137POPC   C2B 2195   2.063   1.872   6.895
  137POPC   C3B 2196   2.019   2.115   6.530
  137POPC   C4B 2197   2.148   2.339   6.156
  138POPC   NC3 2198   1.674  11.112   8.404
  138POPC   PO4 2199   1.654   0.214   8.087
  138POPC   GL1 2200   1.596  11.334   7.788
  138POPC   GL2 2201   1.881  11.087   7.804
  138POPC   C1A 2202   1.643  11.167   7.342
  138POPC   D2A 2203   1.894  11.273   6.973
  138POPC   C3A 2204   1.762  11.230   6.557
  138POPC   C4A 2205   1.741   0.072   6.286
  138POPC   C1B 2206   2.116  10.964   7.412
  138POPC   C2B 2207   2.196  10.848   6.996
  138POPC   C3B 2208   2.307  11.061   6.614
  138POPC   C4B 2209   2.130  11.076   6.217
  139POPC   NC3 2210   4.240  11.055   8.268
  139POPC   PO4 2211   4.616  10.547   8.081
  139POPC   GL1 2212   4.490  10.875   7.811
  139POPC   GL2 2213   4.185  11.096   7.770
  139POPC   C1A 2214   4.486  10.912   7.381
  139POPC   D2A 2215   4.662  11.165   7.068
  139POPC   C3A 2216   4.514  11.078   6.651
  139POPC   C4A 2217   4.709  11.030   6.264
  139POPC   C1B 2218   4.146  11.310   7.386
  139POPC   C2B 2219   4.164  11.366   6.943
  139POPC   C3B 2220   4.122  11.389   6.506
  139POPC   C4B 2221   3.973  11.158   6.157
  140POPC   NC3 2222   9.438   1.230   8.056
  140POPC   PO4 2223  10.041   1.434   8.026
  140POPC   GL1 2224   9.738   1.337   7.652
  140POPC   GL2 2225   9.492   0.987   7.625
  140POPC   C1A 2226   9.653   1.520   7.236
  140POPC   D2A 2227   9.335   1.558   6.905
  140POPC   C3A 2228   9.493   1.462   6.512
  140POPC   C4A 2229   9.879   1.491   6.297
  140POPC   C1B 2230   9.713   1.025   7.238
  140POPC   C2B 2231   9.759   1.192   6.827
  140POPC   C3B 2232   9.750   1.004   6.404
  140POPC   C4B 2233   9.409   0.796   6.157
  141POPC   NC3 2234   2.724  10.162   8.334
  141POPC   PO4 2235   2.569  10.772   8.078
  141POPC   GL1 2236   2.729  10.621   7.700
  141POPC   GL2 2237   2.784  10.257   7.621
  141POPC   C1A 2238   2.471  10.545   7.323
  141POPC   D2A 2239   2.516  10.360   6.946
  141POPC   C3A 2240   2.451  10.573   6.587
  141POPC   C4A 2241   2.498  10.431   6.173
  141POPC   C1B 2242   2.982  10.494   7.240
  141POPC   C2B 2243   3.008  10.527   6.772
  141POPC   C3B 2244   3.014  10.529   6.314
  141POPC   C4B 2245   2.947  10.172   6.080
  142POPC   NC3 2246   7.119   0.098   8.116
  142POPC   PO4 2247   7.802   0.041   8.079
  142POPC   GL1 2248   7.463   0.071   7.714
  142POPC   GL2 2249   7.302   0.409   7.749
  142POPC   C1A 2250   7.302   0.113   7.250
  142POPC   D2A 2251   7.455   0.089   6.767
  142POPC   C3A 2252   7.212   0.139   6.364
  142POPC   C4A 2253   7.365   0.219   5.905
  142POPC   C1B 2254   7.256   0.627   7.364
  142POPC   C2B 2255   7.193   0.519   6.917
  142POPC   C3B 2256   7.407   0.584   6.551
  142POPC   C4B 2257   7.228   0.633   6.181
  143POPC   NC3 2258   2.982   9.809   7.834
  143POPC   PO4 2259   2.355   9.983   8.102
  143POPC   GL1 2260   2.465   9.784   7.686
  143POPC   GL2 2261   2.645   9.443   7.695
  143POPC   C1A 2262   2.569   9.940   7.258
  143POPC   D2A 2263   2.913  10.043   6.951
  143POPC   C3A 2264   2.713  10.096   6.531
  143POPC   C4A 2265   2.453   9.918   6.169
  143POPC   C1B 2266   2.864   9.508   7.276
  143POPC   C2B 2267   2.848   9.550   6.832
  143POPC   C3B 2268   2.702   9.562   6.423
  143POPC   C4B 2269   2.749   9.350   6.056
  144POPC   NC3 2270   1.687   7.289   8.034
  144POPC   PO4 2271   1.995   7.837   8.298
  144POPC   GL1 2272   1.912   7.849   7.839
  144POPC   GL2 2273   2.039   8.170   7.776
  144POPC   C1A 2274   1.813   7.835   7.363
  144POPC   D2A 2275   1.937   7.975   6.903
  144POPC   C3A 2276   1.759   7.754   6.505
  144POPC   C4A 2277   1.747   7.862   6.051
  144POPC   C1B 2278   1.944   8.330   7.352
  144POPC   C2B 2279   2.096   8.460   6.946
  144POPC   C3B 2280   2.095   8.316   6.515
  144POPC   C4B 2281   2.207   8.128   6.094
  145POPC   NC3 2282   2.625   2.758   8.035
  145POPC   PO4 2283   3.229   2.629   8.240
  145POPC   GL1 2284   3.035   2.720   7.709
  145POPC   GL2 2285   2.726   2.478   7.637
  145POPC   C1A 2286   3.014   2.426   7.245
  145POPC   D2A 2287   2.742   2.429   6.879
  145POPC   C3A 2288   2.899   2.382   6.491
  145POPC   C4A 2289   3.062   2.433   6.092
  145POPC   C1B 2290   2.683   2.782   7.270
  145POPC   C2B 2291   2.583   2.930   6.834
  145POPC   C3B 2292   2.713   2.839   6.374
  145POPC   C4B 2293   2.548   3.024   5.949
  146POPC   NC3 2294  11.223   1.534   8.329
  146POPC   PO4 2295  10.763   0.982   8.174
  146POPC   GL1 2296  10.920   1.133   7.777
  146POPC   GL2 2297  11.281   1.163   7.701
  146POPC   C1A 2298  10.861   1.183   7.329
  146POPC   D2A 2299  11.170   1.316   7.038
  146POPC   C3A 2300  11.124   1.415   6.592
  146POPC   C4A 2301  10.800   1.264   6.303
  146POPC   C1B 2302  11.254   0.853   7.360
  146POPC   C2B 2303  11.054   0.815   6.925
  146POPC   C3B 2304  11.136   0.911   6.474
  146POPC   C4B 2305  11.495   0.834   6.189
  147POPC   NC3 2306   1.823   1.350   8.154
  147POPC   PO4 2307   2.425   1.601   8.005
  147POPC   GL1 2308   2.273   1.328   7.654
  147POPC   GL2 2309   1.990   1.098   7.713
  147POPC   C1A 2310   2.311   1.530   7.211
  147POPC   D2A 2311   2.332   1.308   6.799
  147POPC   C3A 2312   2.167   1.598   6.460
  147POPC   C4A 2313   1.886   1.484   6.074
  147POPC   C1B 2314   2.006   1.121   7.251
  147POPC   C2B 2315   1.843   1.360   6.878
  147POPC   C3B 2316   1.844   1.185   6.483
  147POPC   C4B 2317   1.562   1.056   6.167
  148POPC   NC3 2318  11.403  11.310   8.340
  148POPC   PO4 2319  11.232  10.883   7.866
  148POPC   GL1 2320  11.161  11.043   7.472
  148POPC   GL2 2321  10.951  11.295   7.674
  148POPC   C1A 2322  11.358  11.376   7.169
  148POPC   D2A 2323  11.429   0.039   6.768
  148POPC   C3A 2324  11.370  11.300   6.403
  148POPC   C4A 2325   0.059  11.311   5.988
  148POPC   C1B 2326  10.861  11.377   7.273
  148POPC   C2B 2327  10.933  11.183   6.909
  148POPC   C3B 2328  10.789  11.309   6.547
  148POPC   C4B 2329  10.934  11.270   6.166
  149POPC   NC3 2330   5.319   8.903   8.153
  149POPC   PO4 2331   4.845   8.419   8.110
  149POPC   GL1 2332   4.977   8.745   7.790
  149POPC   GL2 2333   4.929   9.118   7.871
  149POPC   C1A 2334   5.054   8.825   7.332
  149POPC   D2A 2335   4.928   8.992   6.902
  149POPC   C3A 2336   4.977   8.801   6.512
  149POPC   C4A 2337   4.678   8.464   6.370
  149POPC   C1B 2338   4.830   9.271   7.430
  149POPC   C2B 2339   4.751   9.452   7.014
  149POPC   C3B 2340   4.746   9.384   6.561
  149POPC   C4B 2341   4.997   9.257   6.210
  150POPC   NC3 2342   4.507   9.458   7.972
  150POPC   PO4 2343   4.042   9.963   8.071
  150POPC   GL1 2344   4.159   9.829   7.680
  150POPC   GL2 2345   4.032   9.518   7.660
  150POPC   C1A 2346   4.270   9.909   7.233
  150POPC   D2A 2347   4.594   9.946   6.912
  150POPC   C3A 2348   4.465   9.822   6.505
  150POPC   C4A 2349   4.117   9.979   6.243
  150POPC   C1B 2350   4.313   9.392   7.306
  150POPC   C2B 2351   4.262   9.514   6.865
  150POPC   C3B 2352   4.227   9.367   6.430
  150POPC   C4B 2353   4.133   9.473   6.019
  151POPC   NC3 2354   8.991   1.891   8.152
  151POPC   PO4 2355   8.985   1.232   7.958
  151POPC   GL1 2356   9.012   1.595   7.698
  151POPC   GL2 2357   8.998   1.976   7.650
  151POPC   C1A 2358   8.979   1.621   7.270
  151POPC   D2A 2359   8.764   1.766   6.929
  151POPC   C3A 2360   8.981   1.741   6.566
  151POPC   C4A 2361   8.803   1.787   6.196
  151POPC   C1B 2362   8.941   2.140   7.230
  151POPC   C2B 2363   9.151   2.138   6.817
  151POPC   C3B 2364   9.086   2.206   6.358
  151POPC   C4B 2365   8.694   2.321   6.150
  152POPC   NC3 2366  10.540  11.325   8.024
  152POPC   PO4 2367  10.237  10.790   7.986
  152POPC   GL1 2368  10.487  11.005   7.629
  152POPC   GL2 2369  10.431  11.366   7.539
  152POPC   C1A 2370  10.481  11.064   7.162
  152POPC   D2A 2371  10.504  10.833   6.847
  152POPC   C3A 2372  10.366  11.045   6.534
  152POPC   C4A 2373  10.516  10.999   6.172
  152POPC   C1B 2374  10.063   0.091   7.356
  152POPC   C2B 2375   9.913   0.191   6.927
  152POPC   C3B 2376  10.035   0.165   6.486
  152POPC   C4B 2377  10.288  11.451   6.192
  153POPC   NC3 2378   1.997   9.498   8.184
  153POPC   PO4 2379   2.397   9.006   8.099
  153POPC   GL1 2380   2.154   9.285   7.735
  153POPC   GL2 2381   1.950   9.622   7.700
  153POPC   C1A 2382   1.849   9.264   7.351
  153POPC   D2A 2383   1.884   9.412   6.901
  153POPC   C3A 2384   1.843   9.233   6.474
  153POPC   C4A 2385   2.218   9.243   6.221
  153POPC   C1B 2386   1.832   9.776   7.283
  153POPC   C2B 2387   2.112   9.872   6.931
  153POPC   C3B 2388   2.168   9.682   6.535
  153POPC   C4B 2389   1.977   9.702   6.156
  154POPC   NC3 2390   6.543   0.040   8.037
  154POPC   PO4 2391   6.207  10.836   8.029
  154POPC   GL1 2392   6.317  10.902   7.616
  154POPC   GL2 2393   6.521  11.204   7.643
  154POPC   C1A 2394   6.509  10.970   7.216
  154POPC   D2A 2395   6.635  11.124   6.805
  154POPC   C3A 2396   6.381  10.910   6.525
  154POPC   C4A 2397   6.218  10.867   6.132
  154POPC   C1B 2398   6.837  11.344   7.240
  154POPC   C2B 2399   6.951   0.059   6.851
  154POPC   C3B 2400   6.724   0.051   6.484
  154POPC   C4B 2401   6.517  11.282   6.211
  155POPC   NC3 2402   8.402   8.794   8.164
  155POPC   PO4 2403   9.017   8.853   8.164
  155POPC   GL1 2404   8.773   8.978   7.804
  155POPC   GL2 2405   8.613   8.682   7.689
  155POPC   C1A 2406   8.671   9.105   7.374
  155POPC   D2A 2407   8.606   8.845   7.008
  155POPC   C3A 2408   8.466   9.080   6.692
  155POPC   C4A 2409   8.680   9.279   6.352
  155POPC   C1B 2410   9.004   8.711   7.413
  155POPC   C2B 2411   9.088   8.714   6.956
  155POPC   C3B 2412   8.948   8.910   6.592
  155POPC   C4B 2413   8.780   8.776   6.200
  156POPC   NC3 2414   4.158   1.011   7.962
  156POPC   PO4 2415   4.663   1.488   8.012
  156POPC   GL1 2416   4.487   1.284   7.661
  156POPC   GL2 2417   4.690   1.034   7.516
  156POPC   C1A 2418   4.443   1.369   7.215
  156POPC   D2A 2419   4.514   1.089   6.902
  156POPC   C3A 2420   4.411   1.273   6.551
  156POPC   C4A 2421   4.436   1.439   6.185
  156POPC   C1B 2422   4.237   0.926   7.323
  156POPC   C2B 2423   3.981   0.869   6.968
  156POPC   C3B 2424   4.028   0.940   6.567
  156POPC   C4B 2425   4.060   1.121   6.157
  157POPC   NC3 2426   0.902   8.139   3.978
  157POPC   PO4 2427   1.436   7.751   3.948
  157POPC   GL1 2428   1.396   7.952   4.315
  157POPC   GL2 2429   1.278   8.279   4.296
  157POPC   C1A 2430   1.258   7.819   4.709
  157POPC   D2A 2431   1.172   7.545   5.043
  157POPC   C3A 2432   1.242   7.838   5.372
  157POPC   C4A 2433   1.284   7.756   5.793
  157POPC   C1B 2434   0.978   8.254   4.645
  157POPC   C2B 2435   0.882   8.041   5.019
  157POPC   C3B 2436   0.836   8.146   5.446
  157POPC   C4B 2437   1.061   8.204   5.786
  158POPC   NC3 2438   3.613   1.958   4.068
  158POPC   PO4 2439   4.284   2.181   3.866
  158POPC   GL1 2440   3.952   2.277   4.261
  158POPC   GL2 2441   3.820   1.981   4.511
  158POPC   C1A 2442   3.781   2.413   4.711
  158POPC   D2A 2443   3.558   2.121   4.987
  158POPC   C3A 2444   3.676   2.132   5.441
  158POPC   C4A 2445   3.466   2.183   5.859
  158POPC   C1B 2446   3.605   1.608   4.726
  158POPC   C2B 2447   3.683   1.372   5.125
  158POPC   C3B 2448   3.688   1.589   5.490
  158POPC   C4B 2449   3.334   1.726   5.708
  159POPC   NC3 2450   0.767   5.667   3.886
  159POPC   PO4 2451   0.882   6.270   3.914
  159POPC   GL1 2452   0.580   6.115   4.245
  159POPC   GL2 2453   0.458   5.761   4.274
  159POPC   C1A 2454   0.634   5.979   4.693
  159POPC   D2A 2455   0.691   5.719   5.081
  159POPC   C3A 2456   0.524   5.753   5.485
  159POPC   C4A 2457   0.645   5.510   5.835
  159POPC   C1B 2458   0.370   5.545   4.686
  159POPC   C2B 2459   0.168   5.684   5.101
  159POPC   C3B 2460   0.032   5.582   5.552
  159POPC   C4B 2461  11.447   5.696   6.010
  160POPC   NC3 2462   2.000   4.677   4.191
  160POPC   PO4 2463   1.676   4.219   3.929
  160POPC   GL1 2464   1.549   4.052   4.274
  160POPC   GL2 2465   1.876   4.009   4.379
  160POPC   C1A 2466   1.460   4.192   4.668
  160POPC   D2A 2467   1.733   4.379   4.936
  160POPC   C3A 2468   1.641   4.283   5.345
  160POPC   C4A 2469   1.755   4.489   5.703
  160POPC   C1B 2470   2.133   4.002   4.762
  160POPC   C2B 2471   2.185   3.890   5.222
  160POPC   C3B 2472   2.105   4.118   5.632
  160POPC   C4B 2473   2.260   4.530   5.857
  161POPC   NC3 2474   0.622   1.301   4.025
  161POPC   PO4 2475   0.264   0.990   3.698
  161POPC   GL1 2476   0.343   0.959   4.251
  161POPC   GL2 2477   0.232   1.289   4.395
  161POPC   C1A 2478   0.163   0.952   4.733
  161POPC   D2A 2479   0.226   1.240   5.064
  161POPC   C3A 2480   0.317   1.060   5.445
  161POPC   C4A 2481   0.216   1.159   5.874
  161POPC   C1B 2482   0.577   1.318   4.698
  161POPC   C2B 2483   0.692   1.472   5.119
  161POPC   C3B 2484   0.580   1.473   5.572
  161POPC   C4B 2485   0.714   1.073   5.798
  162POPC   NC3 2486   2.197   1.348   4.200
  162POPC   PO4 2487   2.436   0.751   3.873
  162POPC   GL1 2488   2.246   0.849   4.297
  162POPC   GL2 2489   1.879   0.942   4.305
  162POPC   C1A 2490   2.362   0.887   4.756
  162POPC   D2A 2491   2.120   0.904   5.163
  162POPC   C3A 2492   2.244   0.971   5.594
  162POPC   C4A 2493   2.051   0.985   6.029
  162POPC   C1B 2494   1.899   1.143   4.733
  162POPC   C2B 2495   1.770   1.285   5.128
  162POPC   C3B 2496   1.868   1.342   5.546
  162POPC   C4B 2497   1.532   1.570   5.696
  163POPC   NC3 2498   1.108   3.183   3.925
  163POPC   PO4 2499   0.879   3.837   3.691
  163POPC   GL1 2500   0.870   3.542   4.205
  163POPC   GL2 2501   1.155   3.337   4.387
  163POPC   C1A 2502   0.846   3.445   4.740
  163POPC   D2A 2503   0.923   3.547   5.208
  163POPC   C3A 2504   0.807   3.497   5.688
  163POPC   C4A 2505   0.799   3.223   6.052
  163POPC   C1B 2506   1.484   3.162   4.613
  163POPC   C2B 2507   1.577   3.352   5.009
  163POPC   C3B 2508   1.564   3.271   5.427
  163POPC   C4B 2509   1.286   3.579   5.576
  164POPC   NC3 2510   9.609   7.543   3.823
  164POPC   PO4 2511   9.401   6.950   3.853
  164POPC   GL1 2512   9.503   7.275   4.260
  164POPC   GL2 2513   9.827   7.481   4.333
  164POPC   C1A 2514   9.516   7.323   4.747
  164POPC   D2A 2515   9.323   7.496   5.160
  164POPC   C3A 2516   9.467   7.301   5.559
  164POPC   C4A 2517   9.553   7.365   5.991
  164POPC   C1B 2518  10.086   7.339   4.709
  164POPC   C2B 2519  10.063   7.065   5.097
  164POPC   C3B 2520   9.949   7.091   5.538
  164POPC   C4B 2521   9.975   7.498   5.715
  165POPC   NC3 2522   0.196   2.802   4.081
  165POPC   PO4 2523  10.975   2.455   3.961
  165POPC   GL1 2524  11.028   2.559   4.350
  165POPC   GL2 2525  11.207   2.851   4.293
  165POPC   C1A 2526  11.162   2.506   4.764
  165POPC   D2A 2527  10.917   2.541   5.114
  165POPC   C3A 2528  11.148   2.481   5.453
  165POPC   C4A 2529  11.209   2.628   5.851
  165POPC   C1B 2530  11.416   2.964   4.686
  165POPC   C2B 2531  11.345   2.900   5.129
  165POPC   C3B 2532  11.266   3.068   5.531
  165POPC   C4B 2533  11.423   3.070   5.958
  166POPC   NC3 2534  11.027   8.698   3.784
  166POPC   PO4 2535  10.921   9.122   4.311
  166POPC   GL1 2536  11.078   8.762   4.480
  166POPC   GL2 2537  11.297   8.696   4.234
  166POPC   C1A 2538  11.136   8.668   4.909
  166POPC   D2A 2539  11.262   8.987   5.182
  166POPC   C3A 2540  10.918   9.147   5.393
  166POPC   C4A 2541  10.945   8.798   5.698
  166POPC   C1B 2542  11.401   8.372   4.557
  166POPC   C2B 2543  11.464   8.297   5.018
  166POPC   C3B 2544   0.014   8.574   5.375
  166POPC   C4B 2545  11.405   8.656   5.808
  167POPC   NC3 2546   8.811   5.479   3.859
  167POPC   PO4 2547   8.507   6.017   3.938
  167POPC   GL1 2548   8.682   5.743   4.297
  167POPC   GL2 2549   9.033   5.644   4.313
  167POPC   C1A 2550   8.765   5.681   4.759
  167POPC   D2A 2551   8.758   5.425   5.142
  167POPC   C3A 2552   8.743   5.563   5.580
  167POPC   C4A 2553   8.490   5.706   5.950
  167POPC   C1B 2554   9.263   5.827   4.694
  167POPC   C2B 2555   9.118   5.837   5.149
  167POPC   C3B 2556   9.216   5.772   5.601
  167POPC   C4B 2557   9.002   5.715   6.010
  168POPC   NC3 2558   8.243   3.437   3.961
  168POPC   PO4 2559   7.851   3.804   4.035
  168POPC   GL1 2560   8.077   3.593   4.441
  168POPC   GL2 2561   8.433   3.488   4.430
  168POPC   C1A 2562   8.263   3.581   4.903
  168POPC   D2A 2563   8.540   3.618   5.286
  168POPC   C3A 2564   8.332   3.733   5.695
  168POPC   C4A 2565   7.926   3.671   5.937
  168POPC   C1B 2566   8.382   3.121   4.718
  168POPC   C2B 2567   8.440   3.112   5.192
  168POPC   C3B 2568   8.275   3.106   5.636
  168POPC   C4B 2569   8.131   2.897   6.037
  169POPC   NC3 2570   9.023   9.106   4.080
  169POPC   PO4 2571   8.474   9.196   3.696
  169POPC   GL1 2572   8.581   8.888   4.163
  169POPC   GL2 2573   8.824   8.670   4.298
  169POPC   C1A 2574   8.635   8.968   4.658
  169POPC   D2A 2575   8.659   8.688   4.972
  169POPC   C3A 2576   8.651   8.721   5.413
  169POPC   C4A 2577   8.705   8.993   5.747
  169POPC   C1B 2578   9.097   8.708   4.695
  169POPC   C2B 2579   9.123   8.565   5.147
  169POPC   C3B 2580   9.129   8.813   5.525
  169POPC   C4B 2581   9.211   8.676   5.931
  170POPC   NC3 2582  10.461   1.335   3.931
  170POPC   PO4 2583   9.851   1.145   3.980
  170POPC   GL1 2584  10.061   1.407   4.248
  170POPC   GL2 2585  10.242   1.119   4.325
  170POPC   C1A 2586  10.150   1.496   4.668
  170POPC   D2A 2587  10.142   1.354   5.070
  170POPC   C3A 2588  10.049   1.568   5.435
  170POPC   C4A 2589  10.039   1.421   5.824
  170POPC   C1B 2590  10.516   1.127   4.656
  170POPC   C2B 2591  10.544   1.076   5.104
  170POPC   C3B 2592  10.414   1.184   5.496
  170POPC   C4B 2593  10.639   1.290   5.828
  171POPC   NC3 2594   8.247   8.787   3.809
  171POPC   PO4 2595   8.539   9.379   4.178
  171POPC   GL1 2596   8.232   9.163   4.387
  171POPC   GL2 2597   8.081   8.914   4.254
  171POPC   C1A 2598   8.155   9.134   4.775
  171POPC   D2A 2599   8.278   8.954   5.155
  171POPC   C3A 2600   8.235   9.085   5.561
  171POPC   C4A 2601   8.352   9.272   5.969
  171POPC   C1B 2602   8.240   8.658   4.594
  171POPC   C2B 2603   8.182   8.475   4.998
  171POPC   C3B 2604   8.187   8.536   5.458
  171POPC   C4B 2605   7.926   8.502   5.814
  172POPC   NC3 2606   6.567   0.441   3.743
  172POPC   PO4 2607   7.176   0.747   3.962
  172POPC   GL1 2608   6.926   0.440   4.228
  172POPC   GL2 2609   6.602   0.271   4.217
  172POPC   C1A 2610   6.827   0.294   4.690
  172POPC   D2A 2611   6.774   0.458   5.153
  172POPC   C3A 2612   6.766   0.346   5.593
  172POPC   C4A 2613   6.816   0.333   6.049
  172POPC   C1B 2614   6.335   0.433   4.561
  172POPC   C2B 2615   6.299   0.596   4.995
  172POPC   C3B 2616   6.286   0.428   5.432
  172POPC   C4B 2617   6.334   0.615   5.852
  173POPC   NC3 2618   3.580   8.113   3.992
  173POPC   PO4 2619   2.966   8.086   3.997
  173POPC   GL1 2620   3.018   8.316   4.409
  173POPC   GL2 2621   3.384   8.314   4.428
  173POPC   C1A 2622   3.158   8.365   4.875
  173POPC   D2A 2623   3.360   8.128   5.243
  173POPC   C3A 2624   3.447   8.279   5.679
  173POPC   C4A 2625   3.523   8.470   6.103
  173POPC   C1B 2626   3.440   7.943   4.720
  173POPC   C2B 2627   3.634   7.720   5.103
  173POPC   C3B 2628   3.721   7.819   5.551
  173POPC   C4B 2629   4.009   8.106   5.753
  174POPC   NC3 2630   9.548   9.827   3.895
  174POPC   PO4 2631  10.076   9.347   4.005
  174POPC   GL1 2632   9.762   9.553   4.278
  174POPC   GL2 2633   9.502   9.335   4.430
  174POPC   C1A 2634   9.642   9.877   4.606
  174POPC   D2A 2635   9.817   9.961   5.039
  174POPC   C3A 2636   9.593   9.960   5.433
  174POPC   C4A 2637   9.816   9.961   5.804
  174POPC   C1B 2638   9.589   9.442   4.888
  174POPC   C2B 2639   9.902   9.405   5.238
  174POPC   C3B 2640   9.866   9.452   5.677
  174POPC   C4B 2641   9.436   9.583   5.785
  175POPC   NC3 2642   8.955   0.237   3.945
  175POPC   PO4 2643   8.467   0.609   3.816
  175POPC   GL1 2644   8.708   0.535   4.273
  175POPC   GL2 2645   8.774   0.242   4.406
  175POPC   C1A 2646   8.766   0.650   4.740
  175POPC   D2A 2647   8.625   0.574   5.177
  175POPC   C3A 2648   8.915   0.645   5.514
  175POPC   C4A 2649   9.377   0.691   5.663
  175POPC   C1B 2650   8.756   0.017   4.766
  175POPC   C2B 2651   8.901   0.129   5.131
  175POPC   C3B 2652   8.655   0.146   5.477
  175POPC   C4B 2653   8.459   0.372   5.778
  176POPC   NC3 2654   8.144   9.437   3.921
  176POPC   PO4 2655   7.773   8.899   3.838
  176POPC   GL1 2656   7.747   9.294   4.200
  176POPC   GL2 2657   8.002   9.594   4.362
  176POPC   C1A 2658   7.697   9.361   4.661
  176POPC   D2A 2659   7.823   9.340   5.084
  176POPC   C3A 2660   7.815   9.659   5.358
  176POPC   C4A 2661   7.975   9.522   5.743
  176POPC   C1B 2662   8.205   9.672   4.752
  176POPC   C2B 2663   8.371   9.452   5.117
  176POPC   C3B 2664   8.497   9.515   5.525
  176POPC   C4B 2665   8.351   9.876   5.738
  177POPC   NC3 2666   2.795   0.353   3.886
  177POPC   PO4 2667   2.295  11.463   3.812
  177POPC   GL1 2668   2.443   0.210   4.231
  177POPC   GL2 2669   2.656   0.550   4.323
  177POPC   C1A 2670   2.407   0.326   4.680
  177POPC   D2A 2671   2.239   0.415   5.074
  177POPC   C3A 2672   2.509   0.527   5.414
  177POPC   C4A 2673   2.644   0.345   5.831
  177POPC   C1B 2674   2.829   0.609   4.760
  177POPC   C2B 2675   2.984   0.581   5.197
  177POPC   C3B 2676   2.937   0.743   5.641
  177POPC   C4B 2677   2.972   0.650   6.093
  178POPC   NC3 2678   2.059  11.073   3.951
  178POPC   PO4 2679   1.476  10.868   3.621
  178POPC   GL1 2680   1.587  11.228   4.110
  178POPC   GL2 2681   1.885  11.073   4.415
  178POPC   C1A 2682   1.555  11.371   4.589
  178POPC   D2A 2683   1.859  11.156   4.943
  178POPC   C3A 2684   1.773  11.231   5.405
  178POPC   C4A 2685   1.827  11.068   5.827
  178POPC   C1B 2686   2.286  11.296   4.515
  178POPC   C2B 2687   2.398  11.369   4.927
  178POPC   C3B 2688   2.359  11.119   5.266
  178POPC   C4B 2689   2.343  11.132   5.703
  179POPC   NC3 2690  10.509   9.051   4.112
  179POPC   PO4 2691  10.213   8.458   3.960
  179POPC   GL1 2692  10.301   8.635   4.349
  179POPC   GL2 2693  10.632   8.596   4.315
  179POPC   C1A 2694  10.145   8.910   4.702
  179POPC   D2A 2695  10.179   8.957   5.159
  179POPC   C3A 2696   9.976   8.949   5.556
  179POPC   C4A 2697  10.100   8.512   5.677
  179POPC   C1B 2698  10.631   8.727   4.774
  179POPC   C2B 2699  10.684   8.738   5.220
  179POPC   C3B 2700  10.469   8.863   5.602
  179POPC   C4B 2701  10.320   9.198   5.868
  180POPC   NC3 2702   2.352  10.236   3.918
  180POPC   PO4 2703   3.045   9.947   3.866
  180POPC   GL1 2704   2.775  10.085   4.221
  180POPC   GL2 2705   2.625  10.387   4.303
  180POPC   C1A 2706   2.722  10.017   4.668
  180POPC   D2A 2707   2.979  10.145   5.025
  180POPC   C3A 2708   2.833  10.144   5.452
  180POPC   C4A 2709   2.461  10.162   5.722
  180POPC   C1B 2710   2.710  10.524   4.677
  180POPC   C2B 2711   2.529  10.406   5.064
  180POPC   C3B 2712   2.501  10.592   5.444
  180POPC   C4B 2713   2.811  10.564   5.785
  181POPC   NC3 2714  11.382   4.282   4.015
  181POPC   PO4 2715  11.342   4.916   3.777
  181POPC   GL1 2716  11.292   4.751   4.241
  181POPC   GL2 2717  11.047   4.477   4.325
  181POPC   C1A 2718  11.400   4.601   4.675
  181POPC   D2A 2719  11.156   4.414   5.028
  181POPC   C3A 2720  11.350   4.494   5.441
  181POPC   C4A 2721  11.099   4.469   5.783
  181POPC   C1B 2722  11.176   4.121   4.605
  181POPC   C2B 2723  11.324   3.913   4.983
  181POPC   C3B 2724  11.242   4.009   5.393
  181POPC   C4B 2725  11.350   4.024   5.818
  182POPC   NC3 2726   2.682  11.040   3.527
  182POPC   PO4 2727   2.954  10.464   3.927
  182POPC   GL1 2728   2.824  10.861   4.245
  182POPC   GL2 2729   2.680  11.210   4.148
  182POPC   C1A 2730   2.730  11.053   4.658
  182POPC   D2A 2731   2.754  10.856   5.068
  182POPC   C3A 2732   2.836  10.984   5.490
  182POPC   C4A 2733   3.083  10.980   5.921
  182POPC   C1B 2734   2.814   0.030   4.503
  182POPC   C2B 2735   2.846   0.118   4.962
  182POPC   C3B 2736   2.681   0.020   5.383
  182POPC   C4B 2737   2.787  11.369   5.791
  183POPC   NC3 2738   9.077   8.276   4.027
  183POPC   PO4 2739   8.487   8.407   3.951
  183POPC   GL1 2740   8.697   8.185   4.358
  183POPC   GL2 2741   9.026   7.968   4.412
  183POPC   C1A 2742   8.851   8.261   4.796
  183POPC   D2A 2743   8.605   8.235   5.189
  183POPC   C3A 2744   8.721   8.246   5.612
  183POPC   C4A 2745   8.536   8.325   6.034
  183POPC   C1B 2746   9.138   7.846   4.829
  183POPC   C2B 2747   9.039   7.942   5.255
  183POPC   C3B 2748   9.070   7.785   5.677
  183POPC   C4B 2749   8.736   7.783   6.004
  184POPC   NC3 2750   1.346  10.317   3.970
  184POPC   PO4 2751   1.731  10.768   4.060
  184POPC   GL1 2752   1.584  10.542   4.370
  184POPC   GL2 2753   1.245  10.660   4.305
  184POPC   C1A 2754   1.669  10.240   4.702
  184POPC   D2A 2755   1.635  10.332   5.148
  184POPC   C3A 2756   1.555  10.043   5.473
  184POPC   C4A 2757   1.588   9.907   5.884
  184POPC   C1B 2758   1.179  10.418   4.674
  184POPC   C2B 2759   1.145  10.562   5.059
  184POPC   C3B 2760   1.235  10.462   5.442
  184POPC   C4B 2761   1.073  10.594   5.792
  185POPC   NC3 2762   4.532   9.011   3.894
  185POPC   PO4 2763   4.015   9.270   3.779
  185POPC   GL1 2764   4.164   9.246   4.240
  185POPC   GL2 2765   4.287   8.960   4.407
  185POPC   C1A 2766   4.052   9.306   4.718
  185POPC   D2A 2767   4.177   9.391   5.187
  185POPC   C3A 2768   4.016   9.211   5.602
  185POPC   C4A 2769   4.089   8.958   6.026
  185POPC   C1B 2770   4.519   9.107   4.797
  185POPC   C2B 2771   4.549   8.980   5.219
  185POPC   C3B 2772   4.365   8.838   5.580
  185POPC   C4B 2773   4.471   8.585   5.925
  186POPC   NC3 2774  11.169   9.423   4.059
  186POPC   PO4 2775  10.780  10.056   3.983
  186POPC   GL1 2776  10.941   9.946   4.427
  186POPC   GL2 2777  11.075   9.610   4.510
  186POPC   C1A 2778  10.928   9.888   4.899
  186POPC   D2A 2779  10.768   9.659   5.238
  186POPC   C3A 2780  11.014   9.759   5.577
  186POPC   C4A 2781  11.396   9.885   5.799
  186POPC   C1B 2782  11.070   9.389   4.905
  186POPC   C2B 2783  11.333   9.497   5.246
  186POPC   C3B 2784  11.307   9.360   5.635
  186POPC   C4B 2785  10.920   9.319   5.867
  187POPC   NC3 2786   2.400   6.033   3.694
  187POPC   PO4 2787   3.080   6.207   3.888
  187POPC   GL1 2788   2.766   6.143   4.229
  187POPC   GL2 2789   2.527   5.860   4.155
  187POPC   C1A 2790   2.893   6.033   4.666
  187POPC   D2A 2791   3.122   5.951   5.080
  187POPC   C3A 2792   2.954   5.949   5.525
  187POPC   C4A 2793   2.982   6.298   5.837
  187POPC   C1B 2794   2.417   5.857   4.608
  187POPC   C2B 2795   2.296   5.867   5.069
  187POPC   C3B 2796   2.444   5.751   5.479
  187POPC   C4B 2797   2.721   5.482   5.708
  188POPC   NC3 2798  11.459   8.034   3.975
  188POPC   PO4 2799  10.782   8.286   3.780
  188POPC   GL1 2800  11.013   8.273   4.175
  188POPC   GL2 2801  11.108   7.953   4.333
  188POPC   C1A 2802  10.891   8.290   4.627
  188POPC   D2A 2803  10.765   8.244   5.041
  188POPC   C3A 2804  11.041   8.389   5.357
  188POPC   C4A 2805  11.064   8.276   5.791
  188POPC   C1B 2806  11.363   7.896   4.705
  188POPC   C2B 2807  11.170   7.878   5.092
  188POPC   C3B 2808  11.346   7.987   5.469
  188POPC   C4B 2809  11.400   7.856   5.887
  189POPC   NC3 2810   1.786   9.714   3.965
  189POPC   PO4 2811   1.186   9.927   3.795
  189POPC   GL1 2812   1.310   9.845   4.203
  189POPC   GL2 2813   1.341   9.505   4.142
  189POPC   C1A 2814   1.210   9.883   4.646
  189POPC   D2A 2815   1.202  10.050   5.065
  189POPC   C3A 2816   0.923   9.936   5.402
  189POPC   C4A 2817   1.110  10.086   5.766
  189POPC   C1B 2818   1.539   9.483   4.576
  189POPC   C2B 2819   1.543   9.359   5.030
  189POPC   C3B 2820   1.457   9.535   5.446
  189POPC   C4B 2821   1.162   9.592   5.778
  190POPC   NC3 2822   1.265   7.306   3.900
  190POPC   PO4 2823   1.558   6.798   3.732
  190POPC   GL1 2824   1.479   6.941   4.177
  190POPC   GL2 2825   1.156   6.844   4.312
  190POPC   C1A 2826   1.498   7.129   4.619
  190POPC   D2A 2827   1.631   7.134   5.077
  190POPC   C3A 2828   1.420   7.318   5.469
  190POPC   C4A 2829   1.597   7.385   5.901
  190POPC   C1B 2830   1.034   6.975   4.762
  190POPC   C2B 2831   0.870   7.067   5.197
  190POPC   C3B 2832   0.957   6.960   5.638
  190POPC   C4B 2833   1.129   7.189   5.992
  191POPC   NC3 2834   9.791   5.673   3.891
  191POPC   PO4 2835   9.255   5.353   3.929
  191POPC   GL1 2836   9.523   5.483   4.355
  191POPC   GL2 2837   9.828   5.720   4.399
  191POPC   C1A 2838   9.657   5.502   4.833
  191POPC   D2A 2839   9.614   5.713   5.247
  191POPC   C3A 2840   9.632   5.498   5.662
  191POPC   C4A 2841   9.430   5.391   6.084
  191POPC   C1B 2842   9.896   5.972   4.805
  191POPC   C2B 2843   9.909   6.119   5.241
  191POPC   C3B 2844   9.701   6.056   5.632
  191POPC   C4B 2845   9.650   6.349   5.972
  192POPC   NC3 2846   2.680   2.088   3.870
  192POPC   PO4 2847   3.243   2.203   4.190
  192POPC   GL1 2848   3.077   1.805   4.235
  192POPC   GL2 2849   2.764   1.968   4.344
  192POPC   C1A 2850   3.028   1.677   4.668
  192POPC   D2A 2851   2.983   2.067   4.935
  192POPC   C3A 2852   3.163   2.083   5.328
  192POPC   C4A 2853   2.985   2.144   5.684
  192POPC   C1B 2854   2.544   1.929   4.705
  192POPC   C2B 2855   2.495   1.935   5.152
  192POPC   C3B 2856   2.514   1.959   5.588
  192POPC   C4B 2857   2.818   1.647   5.732
  193POPC   NC3 2858   1.995   2.160   3.837
  193POPC   PO4 2859   1.770   1.482   4.016
  193POPC   GL1 2860   1.833   1.911   4.251
  193POPC   GL2 2861   2.212   2.028   4.311
  193POPC   C1A 2862   1.888   2.235   4.605
  193POPC   D2A 2863   2.192   2.246   4.909
  193POPC   C3A 2864   2.140   2.307   5.367
  193POPC   C4A 2865   1.838   2.299   5.725
  193POPC   C1B 2866   2.068   1.765   4.715
  193POPC   C2B 2867   1.978   1.818   5.184
  193POPC   C3B 2868   1.998   1.825   5.651
  193POPC   C4B 2869   2.232   1.863   6.026
  194POPC   NC3 2870   8.187   1.806   3.967
  194POPC   PO4 2871   7.721   2.317   3.838
  194POPC   GL1 2872   7.981   2.220   4.230
  194POPC   GL2 2873   7.942   1.903   4.401
  194POPC   C1A 2874   8.156   2.252   4.691
  194POPC   D2A 2875   8.011   2.114   5.119
  194POPC   C3A 2876   8.112   2.421   5.468
  194POPC   C4A 2877   8.264   2.421   5.893
  194POPC   C1B 2878   8.178   1.734   4.771
  194POPC   C2B 2879   8.143   1.557   5.192
  194POPC   C3B 2880   7.865   1.699   5.490
  194POPC   C4B 2881   7.932   2.040   5.742
  195POPC   NC3 2882   1.382   1.420   3.716
  195POPC   PO4 2883   0.889   1.669   4.083
  195POPC   GL1 2884   0.992   1.333   4.387
  195POPC   GL2 2885   1.347   1.150   4.329
  195POPC   C1A 2886   1.103   1.350   4.797
  195POPC   D2A 2887   1.206   1.548   5.178
  195POPC   C3A 2888   1.038   1.271   5.451
  195POPC   C4A 2889   1.209   1.192   5.840
  195POPC   C1B 2890   1.427   0.943   4.684
  195POPC   C2B 2891   1.246   0.930   5.075
  195POPC   C3B 2892   1.454   1.002   5.424
  195POPC   C4B 2893   1.684   0.904   5.708
  196POPC   NC3 2894  11.112  10.337   4.114
  196POPC   PO4 2895  10.802  10.790   3.798
  196POPC   GL1 2896  10.967  10.800   4.237
  196POPC   GL2 2897  11.387  10.730   4.297
  196POPC   C1A 2898  10.833  10.638   4.660
  196POPC   D2A 2899  10.900  10.816   5.080
  196POPC   C3A 2900  10.910  10.647   5.510
  196POPC   C4A 2901  10.852  10.646   6.012
  196POPC   C1B 2902  11.338  10.519   4.694
  196POPC   C2B 2903  11.104  10.354   5.035
  196POPC   C3B 2904  11.249  10.244   5.432
  196POPC   C4B 2905  11.293  10.486   5.796
  197POPC   NC3 2906   7.156   1.198   4.028
  197POPC   PO4 2907   7.778   1.544   3.912
  197POPC   GL1 2908   7.597   1.281   4.249
  197POPC   GL2 2909   7.309   1.393   4.460
  197POPC   C1A 2910   7.588   1.032   4.670
  197POPC   D2A 2911   7.343   0.891   5.031
  197POPC   C3A 2912   7.357   1.055   5.440
  197POPC   C4A 2913   7.339   1.029   5.869
  197POPC   C1B 2914   7.250   1.448   4.892
  197POPC   C2B 2915   7.180   1.511   5.328
  197POPC   C3B 2916   6.937   1.320   5.670
  197POPC   C4B 2917   7.007   1.307   6.126
  198POPC   NC3 2918   9.718   9.058   3.934
  198POPC   PO4 2919   9.260   8.697   4.060
  198POPC   GL1 2920   9.519   8.804   4.347
  198POPC   GL2 2921   9.808   8.647   4.232
  198POPC   C1A 2922   9.579   8.931   4.749
  198POPC   D2A 2923   9.300   9.038   5.070
  198POPC   C3A 2924   9.494   9.168   5.424
  198POPC   C4A 2925   9.515   9.077   5.831
  198POPC   C1B 2926   9.854   8.498   4.663
  198POPC   C2B 2927   9.763   8.611   5.116
  198POPC   C3B 2928   9.594   8.637   5.543
  198POPC   C4B 2929   9.734   8.656   6.000
  199POPC   NC3 2930   8.879  10.622   4.015
  199POPC   PO4 2931   9.085   9.951   3.934
  199POPC   GL1 2932   9.051  10.245   4.305
  199POPC   GL2 2933   8.690  10.360   4.396
  199POPC   C1A 2934   9.033  10.397   4.752
  199POPC   D2A 2935   8.936  10.187   5.139
  199POPC   C3A 2936   9.077  10.402   5.495
  199POPC   C4A 2937   9.067  10.582   5.932
  199POPC   C1B 2938   8.557  10.121   4.747
  199POPC   C2B 2939   8.470   9.953   5.148
  199POPC   C3B 2940   8.515  10.240   5.452
  199POPC   C4B 2941   8.717  10.252   5.817
  200POPC   NC3 2942   1.553   8.833   3.790
  200POPC   PO4 2943   0.927   8.611   3.942
  200POPC   GL1 2944   1.120   8.749   4.364
  200POPC   GL2 2945   1.199   9.074   4.378
  200POPC   C1A 2946   1.308   8.594   4.797
  200POPC   D2A 2947   1.263   8.386   5.226
  200POPC   C3A 2948   1.095   8.646   5.573
  200POPC   C4A 2949   1.296   8.596   5.995
  200POPC   C1B 2950   1.131   9.079   4.827
  200POPC   C2B 2951   1.346   8.927   5.212
  200POPC   C3B 2952   1.384   9.066   5.644
  200POPC   C4B 2953   1.024   9.110   5.823
  201POPC   NC3 2954   9.734   4.091   3.888
  201POPC   PO4 2955   9.623   3.424   3.969
  201POPC   GL1 2956   9.779   3.639   4.328
  201POPC   GL2 2957   9.441   3.736   4.400
  201POPC   C1A 2958   9.758   3.741   4.795
  201POPC   D2A 2959   9.525   3.821   5.176
  201POPC   C3A 2960   9.784   3.921   5.551
  201POPC   C4A 2961  10.009   3.843   5.952
  201POPC   C1B 2962   9.411   3.344   4.693
  201POPC   C2B 2963   9.478   3.200   5.125
  201POPC   C3B 2964   9.494   3.427   5.511
  201POPC   C4B 2965   9.182   3.577   5.759
  202POPC   NC3 2966   5.842   1.026   3.961
  202POPC   PO4 2967   5.364   1.538   3.904
  202POPC   GL1 2968   5.462   1.524   4.317
  202POPC   GL2 2969   5.522   1.180   4.307
  202POPC   C1A 2970   5.612   1.409   4.744
  202POPC   D2A 2971   5.476   1.408   5.151
  202POPC   C3A 2972   5.799   1.450   5.397
  202POPC   C4A 2973   5.937   1.666   5.725
  202POPC   C1B 2974   5.423   0.943   4.676
  202POPC   C2B 2975   5.527   0.854   5.116
  202POPC   C3B 2976   5.501   1.043   5.532
  202POPC   C4B 2977   5.943   1.080   5.719
  203POPC   NC3 2978   9.600   2.588   3.872
  203POPC   PO4 2979  10.229   2.625   3.795
  203POPC   GL1 2980  10.037   2.489   4.212
  203POPC   GL2 2981   9.736   2.687   4.362
  203POPC   C1A 2982  10.047   2.472   4.676
  203POPC   D2A 2983   9.925   2.270   5.053
  203POPC   C3A 2984   9.911   2.553   5.394
  203POPC   C4A 2985   9.884   2.518   5.841
  203POPC   C1B 2986   9.611   2.757   4.810
  203POPC   C2B 2987   9.406   2.551   5.147
  203POPC   C3B 2988   9.442   2.658   5.565
  203POPC   C4B 2989   9.730   2.985   5.650
  204POPC   NC3 2990  11.391   5.236   4.103
  204POPC   PO4 2991  10.812   4.916   4.201
  204POPC   GL1 2992  10.858   4.937   4.536
  204POPC   GL2 2993  10.983   5.295   4.494
  204POPC   C1A 2994  10.751   4.747   4.924
  204POPC   D2A 2995  10.999   4.819   5.286
  204POPC   C3A 2996  10.891   4.921   5.668
  204POPC   C4A 2997  10.748   5.311   5.682
  204POPC   C1B 2998  11.221   5.067   4.837
  204POPC   C2B 2999  11.497   4.878   5.117
  204POPC   C3B 3000  11.435   5.040   5.500
  204POPC   C4B 3001  11.450   4.815   5.825
  205POPC   NC3 3002  10.362   3.748   3.814
  205POPC   PO4 3003  10.979   4.040   3.927
  205POPC   GL1 3004  10.650   3.757   4.257
  205POPC   GL2 3005  10.329   3.522   4.253
  205POPC   C1A 3006  10.578   3.458   4.678
  205POPC   D2A 3007  10.519   3.527   5.138
  205POPC   C3A 3008  10.562   3.297   5.557
  205POPC   C4A 3009  10.907   3.264   5.858
  205POPC   C1B 3010  10.229   3.830   4.606
  205POPC   C2B 3011  10.175   3.899   5.085
  205POPC   C3B 3012  10.281   3.745   5.533
  205POPC   C4B 3013  10.104   3.368   5.793
  206POPC   NC3 3014   3.497   1.039   3.692
  206POPC   PO4 3015   3.675   1.503   4.065
  206POPC   GL1 3016   3.538   1.217   4.377
  206POPC   GL2 3017   3.506   0.901   4.212
  206POPC   C1A 3018   3.742   1.018   4.752
  206POPC   D2A 3019   3.837   0.843   5.184
  206POPC   C3A 3020   3.757   1.063   5.593
  206POPC   C4A 3021   3.666   1.372   5.942
  206POPC   C1B 3022   3.313   0.798   4.636
  206POPC   C2B 3023   3.306   0.989   5.084
  206POPC   C3B 3024   3.258   1.149   5.538
  206POPC   C4B 3025   3.385   0.921   5.928
  207POPC   NC3 3026   5.730   9.778   3.915
  207POPC   PO4 3027   5.623   9.193   4.081
  207POPC   GL1 3028   5.599   9.477   4.433
  207POPC   GL2 3029   5.575   9.820   4.408
  207POPC   C1A 3030   5.772   9.596   4.861
  207POPC   D2A 3031   5.755   9.549   5.336
  207POPC   C3A 3032   6.080   9.674   5.672
  207POPC   C4A 3033   6.307   9.479   6.058
  207POPC   C1B 3034   5.292   9.760   4.762
  207POPC   C2B 3035   5.245   9.601   5.235
  207POPC   C3B 3036   5.428   9.709   5.699
  207POPC   C4B 3037   5.553   9.965   6.109
  208POPC   NC3 3038   0.422  11.428   3.870
  208POPC   PO4 3039   0.755  10.845   3.853
  208POPC   GL1 3040   0.655  11.116   4.203
  208POPC   GL2 3041   0.281  11.138   4.286
  208POPC   C1A 3042   0.696  11.167   4.653
  208POPC   D2A 3043   0.851  11.224   5.081
  208POPC   C3A 3044   0.914  10.901   5.373
  208POPC   C4A 3045   0.622  10.804   5.694
  208POPC   C1B 3046   0.263  10.881   4.688
  208POPC   C2B 3047   0.418  10.874   5.166
  208POPC   C3B 3048   0.318  11.172   5.529
  208POPC   C4B 3049   0.166   0.097   5.546
  209POPC   NC3 3050   3.319  10.282   3.668
  209POPC   PO4 3051   3.668   9.933   4.141
  209POPC   GL1 3052   3.456   9.700   4.359
  209POPC   GL2 3053   3.696   9.434   4.343
  209POPC   C1A 3054   3.242   9.809   4.717
  209POPC   D2A 3055   3.265   9.664   5.096
  209POPC   C3A 3056   3.508   9.782   5.453
  209POPC   C4A 3057   3.269   9.979   5.744
  209POPC   C1B 3058   3.510   9.346   4.760
  209POPC   C2B 3059   3.650   9.348   5.207
  209POPC   C3B 3060   3.509   9.312   5.659
  209POPC   C4B 3061   3.639   9.242   6.116
  210POPC   NC3 3062   0.226   8.028   3.369
  210POPC   PO4 3063   0.371   7.829   4.035
  210POPC   GL1 3064   0.268   7.950   4.396
  210POPC   GL2 3065   0.583   8.105   4.395
  210POPC   C1A 3066   0.431   7.830   4.797
  210POPC   D2A 3067   0.202   7.799   5.139
  210POPC   C3A 3068   0.365   7.942   5.527
  210POPC   C4A 3069   0.193   8.261   5.729
  210POPC   C1B 3070   0.402   8.332   4.719
  210POPC   C2B 3071   0.452   8.303   5.136
  210POPC   C3B 3072   0.526   8.551   5.463
  210POPC   C4B 3073   0.640   8.454   5.852
  211POPC   NC3 3074   7.833  10.332   3.837
  211POPC   PO4 3075   8.417  10.755   3.938
  211POPC   GL1 3076   8.199  10.495   4.294
  211POPC   GL2 3077   8.243  10.098   4.297
  211POPC   C1A 3078   8.156  10.678   4.752
  211POPC   D2A 3079   7.918  10.778   5.140
  211POPC   C3A 3080   8.150  10.644   5.517
  211POPC   C4A 3081   8.232  10.386   5.864
  211POPC   C1B 3082   8.061  10.184   4.696
  211POPC   C2B 3083   8.125  10.309   5.114
  211POPC   C3B 3084   7.982  10.134   5.487
  211POPC   C4B 3085   7.901   9.982   5.926
  212POPC   NC3 3086   1.666   5.444   3.989
  212POPC   PO4 3087   1.847   6.041   3.781
  212POPC   GL1 3088   1.810   5.917   4.190
  212POPC   GL2 3089   2.025   5.695   4.324
  212POPC   C1A 3090   1.619   5.940   4.567
  212POPC   D2A 3091   1.551   6.044   4.974
  212POPC   C3A 3092   1.835   6.046   5.302
  212POPC   C4A 3093   1.647   6.168   5.696
  212POPC   C1B 3094   1.957   5.624   4.752
  212POPC   C2B 3095   1.912   5.541   5.173
  212POPC   C3B 3096   1.976   5.524   5.609
  212POPC   C4B 3097   1.912   5.283   6.021
  213POPC   NC3 3098   5.615  11.299   3.516
  213POPC   PO4 3099   6.170   0.139   3.815
  213POPC   GL1 3100   6.117   0.023   4.243
  213POPC   GL2 3101   5.893  11.247   4.244
  213POPC   C1A 3102   6.004   0.043   4.695
  213POPC   D2A 3103   6.016  11.257   5.033
  213POPC   C3A 3104   6.037  11.431   5.409
  213POPC   C4A 3105   6.081  11.201   5.762
  213POPC   C1B 3106   5.727  11.109   4.627
  213POPC   C2B 3107   5.548  10.974   5.046
  213POPC   C3B 3108   5.630  11.090   5.492
  213POPC   C4B 3109   5.607  11.169   5.939
  214POPC   NC3 3110   0.304   4.918   3.795
  214POPC   PO4 3111   0.901   4.521   3.881
  214POPC   GL1 3112   0.728   4.768   4.276
  214POPC   GL2 3113   0.429   4.989   4.297
  214POPC   C1A 3114   0.757   4.979   4.693
  214POPC   D2A 3115   0.798   4.823   5.125
  214POPC   C3A 3116   0.441   4.683   5.390
  214POPC   C4A 3117   0.453   4.804   5.830
  214POPC   C1B 3118   0.235   5.033   4.683
  214POPC   C2B 3119   0.421   5.195   5.068
  214POPC   C3B 3120   0.420   5.207   5.504
  214POPC   C4B 3121   0.205   5.256   5.917
  215POPC   NC3 3122   5.653   0.092   3.949
  215POPC   PO4 3123   5.428   0.791   3.977
  215POPC   GL1 3124   5.667   0.645   4.323
  215POPC   GL2 3125   5.677   0.289   4.396
  215POPC   C1A 3126   5.816   0.588   4.764
  215POPC   D2A 3127   5.851   0.359   5.147
  215POPC   C3A 3128   5.804   0.615   5.531
  215POPC   C4A 3129   5.604   0.736   5.933
  215POPC   C1B 3130   5.486   0.046   4.712
  215POPC   C2B 3131   5.537  11.464   5.164
  215POPC   C3B 3132   5.613   0.142   5.579
  215POPC   C4B 3133   5.963   0.227   5.847
  216POPC   NC3 3134   2.893   7.625   4.064
  216POPC   PO4 3135   2.333   7.951   4.011
  216POPC   GL1 3136   2.610   8.000   4.352
  216POPC   GL2 3137   2.385   7.958   4.579
  216POPC   C1A 3138   2.894   7.938   4.745
  216POPC   D2A 3139   2.848   8.140   5.198
  216POPC   C3A 3140   2.977   8.059   5.639
  216POPC   C4A 3141   2.696   7.872   5.973
  216POPC   C1B 3142   2.566   8.323   4.790
  216POPC   C2B 3143   2.390   8.347   5.215
  216POPC   C3B 3144   2.493   8.202   5.613
  216POPC   C4B 3145   2.629   8.383   5.984
  217POPC   NC3 3146   1.862   6.504   3.931
  217POPC   PO4 3147   2.464   6.417   3.911
  217POPC   GL1 3148   2.198   6.241   4.273
  217POPC   GL2 3149   2.023   6.535   4.416
  217POPC   C1A 3150   2.035   6.158   4.742
  217POPC   D2A 3151   2.198   6.371   5.139
  217POPC   C3A 3152   2.188   6.608   5.550
  217POPC   C4A 3153   1.937   6.543   5.911
  217POPC   C1B 3154   1.791   6.589   4.829
  217POPC   C2B 3155   1.738   6.556   5.286
  217POPC   C3B 3156   1.770   6.923   5.545
  217POPC   C4B 3157   2.011   7.087   5.874
  218POPC   NC3 3158   0.589   3.379   3.812
  218POPC   PO4 3159   0.132   3.893   3.973
  218POPC   GL1 3160   0.408   3.756   4.291
  218POPC   GL2 3161   0.435   3.430   4.377
  218POPC   C1A 3162   0.553   3.836   4.683
  218POPC   D2A 3163   0.318   3.780   5.029
  218POPC   C3A 3164   0.448   3.647   5.396
  218POPC   C4A 3165   0.293   3.733   5.767
  218POPC   C1B 3166   0.368   3.269   4.710
  218POPC   C2B 3167   0.500   3.256   5.082
  218POPC   C3B 3168   0.256   3.157   5.391
  218POPC   C4B 3169   0.367   3.224   5.773
  219POPC   NC3 3170  10.371   7.200   4.005
  219POPC   PO4 3171  10.981   7.402   3.974
  219POPC   GL1 3172  10.843   7.127   4.306
  219POPC   GL2 3173  10.574   7.313   4.447
  219POPC   C1A 3174  10.794   6.968   4.726
  219POPC   D2A 3175  10.598   6.948   5.132
  219POPC   C3A 3176  10.773   7.128   5.502
  219POPC   C4A 3177  10.435   7.004   5.757
  219POPC   C1B 3178  10.608   7.683   4.691
  219POPC   C2B 3179  10.375   7.659   5.064
  219POPC   C3B 3180  10.348   7.389   5.374
  219POPC   C4B 3181  10.489   7.515   5.746
  220POPC   NC3 3182  10.661   4.569   3.955
  220POPC   PO4 3183  10.166   4.172   4.026
  220POPC   GL1 3184  10.275   4.389   4.363
  220POPC   GL2 3185  10.570   4.514   4.458
  220POPC   C1A 3186  10.222   4.315   4.778
  220POPC   D2A 3187  10.456   4.345   5.104
  220POPC   C3A 3188  10.205   4.258   5.456
  220POPC   C4A 3189  10.123   4.406   5.858
  220POPC   C1B 3190  10.672   4.107   4.648
  220POPC   C2B 3191  10.822   3.993   5.065
  220POPC   C3B 3192  10.794   4.239   5.454
  220POPC   C4B 3193  10.554   4.131   5.805
  221POPC   NC3 3194   4.975   8.214   3.840
  221POPC   PO4 3195   4.792   7.685   4.119
  221POPC   GL1 3196   4.926   7.950   4.466
  221POPC   GL2 3197   4.879   8.266   4.349
  221POPC   C1A 3198   4.809   8.118   4.895
  221POPC   D2A 3199   4.549   8.283   5.244
  221POPC   C3A 3200   4.531   8.021   5.608
  221POPC   C4A 3201   4.702   7.694   5.880
  221POPC   C1B 3202   5.169   8.408   4.666
  221POPC   C2B 3203   5.267   8.223   5.087
  221POPC   C3B 3204   5.020   8.176   5.480
  221POPC   C4B 3205   4.871   8.260   5.916
  222POPC   NC3 3206   1.212   4.169   3.844
  222POPC   PO4 3207   1.308   3.616   4.010
  222POPC   GL1 3208   1.057   3.979   4.331
  222POPC   GL2 3209   1.118   4.351   4.310
  222POPC   C1A 3210   1.010   4.004   4.819
  222POPC   D2A 3211   1.264   3.941   5.217
  222POPC   C3A 3212   1.263   4.101   5.665
  222POPC   C4A 3213   1.514   3.992   6.050
  222POPC   C1B 3214   1.006   4.516   4.699
  222POPC   C2B 3215   1.157   4.424   5.100
  222POPC   C3B 3216   0.938   4.459   5.463
  222POPC   C4B 3217   0.891   4.549   5.843
  223POPC   NC3 3218   2.571   8.342   3.956
  223POPC   PO4 3219   2.728   9.056   3.941
  223POPC   GL1 3220   2.787   8.761   4.260
  223POPC   GL2 3221   2.500   8.625   4.389
  223POPC   C1A 3222   2.891   8.761   4.708
  223POPC   D2A 3223   2.764   8.683   5.124
  223POPC   C3A 3224   2.754   8.659   5.558
  223POPC   C4A 3225   3.076   8.599   5.879
  223POPC   C1B 3226   2.504   9.063   4.600
  223POPC   C2B 3227   2.548   9.184   5.053
  223POPC   C3B 3228   2.647   9.194   5.511
  223POPC   C4B 3229   3.039   9.087   5.722
  224POPC   NC3 3230  10.219   0.366   3.870
  224POPC   PO4 3231  10.660   0.114   4.284
  224POPC   GL1 3232  10.347   0.330   4.418
  224POPC   GL2 3233  10.464   0.657   4.356
  224POPC   C1A 3234  10.190   0.269   4.829
  224POPC   D2A 3235  10.299   0.395   5.231
  224POPC   C3A 3236  10.415   0.245   5.612
  224POPC   C4A 3237  10.040   0.131   5.778
  224POPC   C1B 3238  10.516   0.651   4.832
  224POPC   C2B 3239  10.728   0.643   5.277
  224POPC   C3B 3240  10.583   0.764   5.758
  224POPC   C4B 3241  10.666   0.755   6.244
  225POPC   NC3 3242   2.233   2.975   3.990
  225POPC   PO4 3243   1.559   2.956   3.925
  225POPC   GL1 3244   1.807   2.854   4.284
  225POPC   GL2 3245   2.009   2.542   4.209
  225POPC   C1A 3246   1.692   2.697   4.687
  225POPC   D2A 3247   1.590   2.854   5.080
  225POPC   C3A 3248   1.792   2.741   5.441
  225POPC   C4A 3249   1.731   2.903   5.843
  225POPC   C1B 3250   2.215   2.673   4.595
  225POPC   C2B 3251   2.096   2.720   5.020
  225POPC   C3B 3252   2.346   2.796   5.383
  225POPC   C4B 3253   2.199   2.680   5.778
  226POPC   NC3 3254   6.905   7.904   3.930
  226POPC   PO4 3255   7.064   8.411   3.798
  226POPC   GL1 3256   7.069   8.379   4.276
  226POPC   GL2 3257   7.380   8.261   4.411
  226POPC   C1A 3258   7.046   8.421   4.771
  226POPC   D2A 3259   7.239   8.315   5.185
  226POPC   C3A 3260   7.074   8.368   5.602
  226POPC   C4A 3261   7.068   8.058   5.937
  226POPC   C1B 3262   7.570   8.440   4.805
  226POPC   C2B 3263   7.730   8.397   5.248
  226POPC   C3B 3264   7.558   8.204   5.620
  226POPC   C4B 3265   7.490   8.327   6.062
  227POPC   NC3 3266   1.176   0.472   3.959
  227POPC   PO4 3267   1.073   1.142   3.918
  227POPC   GL1 3268   0.868   0.850   4.254
  227POPC   GL2 3269   0.899   0.483   4.377
  227POPC   C1A 3270   0.864   0.881   4.721
  227POPC   D2A 3271   0.734   0.946   5.167
  227POPC   C3A 3272   0.992   0.737   5.500
  227POPC   C4A 3273   1.238   0.693   5.876
  227POPC   C1B 3274   1.213   0.489   4.713
  227POPC   C2B 3275   1.196   0.382   5.151
  227POPC   C3B 3276   1.421   0.366   5.531
  227POPC   C4B 3277   1.579   0.024   5.779
  228POPC   NC3 3278  10.889   7.848   3.885
  228POPC   PO4 3279  11.498   7.700   3.655
  228POPC   GL1 3280  11.411   7.571   4.192
  228POPC   GL2 3281  11.366   7.222   4.282
  228POPC   C1A 3282  11.085   7.495   4.614
  228POPC   D2A 3283  10.870   7.399   5.054
  228POPC   C3A 3284  11.022   7.572   5.503
  228POPC   C4A 3285  10.929   7.552   5.991
  228POPC   C1B 3286  11.290   7.044   4.700
  228POPC   C2B 3287  11.149   6.875   5.092
  228POPC   C3B 3288  11.324   7.031   5.459
  228POPC   C4B 3289  11.260   7.227   5.823
  229POPC   NC3 3290   4.377   2.611   3.994
  229POPC   PO4 3291   3.991   3.099   4.048
  229POPC   GL1 3292   4.224   2.945   4.417
  229POPC   GL2 3293   4.261   2.592   4.490
  229POPC   C1A 3294   3.989   2.881   4.817
  229POPC   D2A 3295   3.877   2.610   5.165
  229POPC   C3A 3296   4.192   2.758   5.403
  229POPC   C4A 3297   4.229   3.110   5.670
  229POPC   C1B 3298   4.341   2.532   4.913
  229POPC   C2B 3299   4.248   2.241   5.206
  229POPC   C3B 3300   4.284   2.309   5.618
  229POPC   C4B 3301   4.515   2.685   5.789
  230POPC   NC3 3302   4.801   9.960   4.061
  230POPC   PO4 3303   5.441  10.126   4.027
  230POPC   GL1 3304   5.420  10.330   4.390
  230POPC   GL2 3305   5.313  10.694   4.366
  230POPC   C1A 3306   5.279  10.354   4.784
  230POPC   D2A 3307   5.154  10.599   5.128
  230POPC   C3A 3308   5.179  10.243   5.370
  230POPC   C4A 3309   5.248  10.172   5.771
  230POPC   C1B 3310   4.922  10.712   4.637
  230POPC   C2B 3311   4.771  10.936   5.021
  230POPC   C3B 3312   4.713  10.781   5.432
  230POPC   C4B 3313   5.083  10.654   5.657
  231POPC   NC3 3314  10.643   2.796   3.934
  231POPC   PO4 3315  10.752   3.427   3.876
  231POPC   GL1 3316  10.735   3.167   4.279
  231POPC   GL2 3317  10.418   2.991   4.352
  231POPC   C1A 3318  10.877   2.982   4.701
  231POPC   D2A 3319  10.862   3.082   5.168
  231POPC   C3A 3320  10.802   2.840   5.548
  231POPC   C4A 3321  10.699   2.636   5.916
  231POPC   C1B 3322  10.540   2.581   4.560
  231POPC   C2B 3323  10.456   2.367   4.968
  231POPC   C3B 3324  10.423   2.547   5.360
  231POPC   C4B 3325  10.261   2.835   5.678
  232POPC   NC3 3326   7.485  11.252   3.655
  232POPC   PO4 3327   6.908   0.116   3.789
  232POPC   GL1 3328   7.006  11.414   4.207
  232POPC   GL2 3329   7.269  11.125   4.238
  232POPC   C1A 3330   6.977  11.296   4.668
  232POPC   D2A 3331   6.941  11.460   5.083
  232POPC   C3A 3332   6.951  11.195   5.463
  232POPC   C4A 3333   6.943  11.384   5.883
  232POPC   C1B 3334   7.334  10.935   4.689
  232POPC   C2B 3335   7.384  11.186   5.097
  232POPC   C3B 3336   7.460  11.285   5.551
  232POPC   C4B 3337   7.558  10.898   5.763
  233POPC   NC3 3338   1.729   3.756   3.909
  233POPC   PO4 3339   2.291   3.435   4.007
  233POPC   GL1 3340   1.885   3.405   4.263
  233POPC   GL2 3341   2.072   3.549   4.514
  233POPC   C1A 3342   1.593   3.654   4.600
  233POPC   D2A 3343   1.707   3.868   4.996
  233POPC   C3A 3344   1.743   3.762   5.444
  233POPC   C4A 3345   1.714   3.537   5.839
  233POPC   C1B 3346   1.978   3.161   4.736
  233POPC   C2B 3347   2.022   3.187   5.179
  233POPC   C3B 3348   2.067   3.177   5.593
  233POPC   C4B 3349   2.112   3.282   6.003
  234POPC   NC3 3350   8.964   1.836   3.794
  234POPC   PO4 3351   8.468   2.260   4.021
  234POPC   GL1 3352   8.908   2.158   4.224
  234POPC   GL2 3353   8.901   1.810   4.297
  234POPC   C1A 3354   9.100   2.075   4.670
  234POPC   D2A 3355   8.989   2.234   5.094
  234POPC   C3A 3356   9.093   1.984   5.430
  234POPC   C4A 3357   9.012   2.055   5.836
  234POPC   C1B 3358   8.607   1.987   4.623
  234POPC   C2B 3359   8.572   1.880   5.063
  234POPC   C3B 3360   8.359   1.955   5.450
  234POPC   C4B 3361   8.477   1.958   5.854
  235POPC   NC3 3362   9.455   0.207   3.531
  235POPC   PO4 3363   9.163   0.650   4.007
  235POPC   GL1 3364   9.327   0.382   4.291
  235POPC   GL2 3365   9.667   0.323   4.190
  235POPC   C1A 3366   9.193   0.370   4.712
  235POPC   D2A 3367   9.175   0.598   5.078
  235POPC   C3A 3368   9.330   0.303   5.351
  235POPC   C4A 3369   9.530   0.184   5.727
  235POPC   C1B 3370   9.806   0.476   4.565
  235POPC   C2B 3371   9.688   0.437   4.991
  235POPC   C3B 3372   9.807   0.491   5.419
  235POPC   C4B 3373  10.115   0.641   5.656
  236POPC   NC3 3374   8.769   0.928   3.975
  236POPC   PO4 3375   8.535   1.586   3.743
  236POPC   GL1 3376   8.559   1.422   4.163
  236POPC   GL2 3377   8.888   1.308   4.262
  236POPC   C1A 3378   8.593   1.466   4.644
  236POPC   D2A 3379   8.618   1.359   5.102
  236POPC   C3A 3380   8.729   1.613   5.496
  236POPC   C4A 3381   9.113   1.559   5.756
  236POPC   C1B 3382   9.017   1.125   4.656
  236POPC   C2B 3383   9.104   1.135   5.102
  236POPC   C3B 3384   8.917   1.146   5.501
  236POPC   C4B 3385   9.068   1.033   5.884
  237POPC   NC3 3386   0.267   7.371   3.892
  237POPC   PO4 3387   0.883   7.005   3.908
  237POPC   GL1 3388   0.677   7.091   4.354
  237POPC   GL2 3389   0.371   7.302   4.368
  237POPC   C1A 3390   0.632   7.303   4.797
  237POPC   D2A 3391   0.364   7.270   5.173
  237POPC   C3A 3392   0.482   7.193   5.630
  237POPC   C4A 3393   0.205   7.111   6.016
  237POPC   C1B 3394   0.108   7.443   4.700
  237POPC   C2B 3395  11.379   7.402   5.098
  237POPC   C3B 3396   0.057   7.505   5.532
  237POPC   C4B 3397   0.325   7.592   5.917
  238POPC   NC3 3398   5.569   1.943   3.952
  238POPC   PO4 3399   6.200   2.082   3.978
  238POPC   GL1 3400   5.942   1.824   4.294
  238POPC   GL2 3401   5.985   1.449   4.324
  238POPC   C1A 3402   5.654   1.902   4.656
  238POPC   D2A 3403   5.384   1.893   5.033
  238POPC   C3A 3404   5.562   1.912   5.467
  238POPC   C4A 3405   5.789   2.151   5.827
  238POPC   C1B 3406   6.083   1.619   4.768
  238POPC   C2B 3407   5.993   1.873   5.158
  238POPC   C3B 3408   6.216   2.058   5.528
  238POPC   C4B 3409   6.253   1.985   5.985
  239POPC   NC3 3410   0.667   6.639   4.100
  239POPC   PO4 3411   0.095   6.922   3.944
  239POPC   GL1 3412   0.214   6.798   4.314
  239POPC   GL2 3413   0.177   6.448   4.253
  239POPC   C1A 3414   0.280   6.927   4.720
  239POPC   D2A 3415   0.474   6.780   5.047
  239POPC   C3A 3416   0.307   6.755   5.447
  239POPC   C4A 3417   0.576   6.601   5.746
  239POPC   C1B 3418   0.381   6.413   4.669
  239POPC   C2B 3419   0.468   6.232   5.099
  239POPC   C3B 3420   0.282   6.226   5.504
  239POPC   C4B 3421   0.372   6.025   5.919
  240POPC   NC3 3422  10.357   9.731   3.863
  240POPC   PO4 3423  10.825   9.235   3.815
  240POPC   GL1 3424  10.664   9.551   4.212
  240POPC   GL2 3425  10.440   9.881   4.320
  240POPC   C1A 3426  10.604   9.548   4.682
  240POPC   D2A 3427  10.578   9.223   5.002
  240POPC   C3A 3428  10.403   9.355   5.407
  240POPC   C4A 3429  10.542   9.653   5.753
  240POPC   C1B 3430  10.148   9.773   4.617
  240POPC   C2B 3431  10.259   9.687   5.038
  240POPC   C3B 3432  10.181   9.851   5.464
  240POPC   C4B 3433  10.296  10.087   5.903
  241POPC   NC3 3434   4.830  11.162   3.820
  241POPC   PO4 3435   5.527  11.006   3.858
  241POPC   GL1 3436   5.363  11.225   4.235
  241POPC   GL2 3437   5.003  11.320   4.269
  241POPC   C1A 3438   5.217  11.117   4.670
  241POPC   D2A 3439   5.067  11.353   4.999
  241POPC   C3A 3440   5.118  11.130   5.373
  241POPC   C4A 3441   5.212  11.382   5.713
  241POPC   C1B 3442   4.705  11.297   4.634
  241POPC   C2B 3443   4.530  11.402   5.041
  241POPC   C3B 3444   4.527  11.293   5.457
  241POPC   C4B 3445   4.772  11.153   5.776
  242POPC   NC3 3446  11.249   6.026   3.549
  242POPC   PO4 3447  11.007   5.650   4.053
  242POPC   GL1 3448  11.155   5.775   4.444
  242POPC   GL2 3449  11.471   5.639   4.390
  242POPC   C1A 3450  11.214   5.586   4.869
  242POPC   D2A 3451  11.090   5.392   5.298
  242POPC   C3A 3452  11.041   5.718   5.655
  242POPC   C4A 3453  10.883   6.140   5.592
  242POPC   C1B 3454   0.078   5.994   4.639
  242POPC   C2B 3455  11.274   6.107   4.931
  242POPC   C3B 3456  11.325   6.017   5.350
  242POPC   C4B 3457  11.365   6.146   5.790
  243POPC   NC3 3458   8.117  11.192   3.920
  243POPC   PO4 3459   7.555  10.838   3.840
  243POPC   GL1 3460   7.827  10.917   4.263
  243POPC   GL2 3461   8.213  11.002   4.366
  243POPC   C1A 3462   7.824  11.073   4.719
  243POPC   D2A 3463   7.897  11.297   5.132
  243POPC   C3A 3464   7.956  11.108   5.542
  243POPC   C4A 3465   7.881  11.287   5.948
  243POPC   C1B 3466   8.324  11.199   4.747
  243POPC   C2B 3467   8.372  11.038   5.144
  243POPC   C3B 3468   8.462  11.181   5.527
  243POPC   C4B 3469   8.362  11.109   5.949
  244POPC   NC3 3470   2.297   8.911   4.001
  244POPC   PO4 3471   1.759   9.249   3.791
  244POPC   GL1 3472   1.700   9.126   4.234
  244POPC   GL2 3473   1.772   8.790   4.254
  244POPC   C1A 3474   1.618   8.981   4.702
  244POPC   D2A 3475   1.797   8.709   5.062
  244POPC   C3A 3476   1.674   8.658   5.522
  244POPC   C4A 3477   1.769   8.874   5.939
  244POPC   C1B 3478   2.053   8.756   4.590
  244POPC   C2B 3479   2.298   8.747   4.928
  244POPC   C3B 3480   2.282   8.831   5.361
  244POPC   C4B 3481   2.220   9.036   5.754
  245POPC   NC3 3482   4.209   0.493   3.914
  245POPC   PO4 3483   4.031  11.382   3.905
  245POPC   GL1 3484   4.147   0.176   4.295
  245POPC   GL2 3485   4.142   0.570   4.409
  245POPC   C1A 3486   4.236   0.191   4.742
  245POPC   D2A 3487   4.023   0.349   5.109
  245POPC   C3A 3488   4.306   0.295   5.455
  245POPC   C4A 3489   4.296   0.347   5.919
  245POPC   C1B 3490   4.277   0.729   4.833
  245POPC   C2B 3491   4.593   0.677   5.167
  245POPC   C3B 3492   4.581   0.688   5.619
  245POPC   C4B 3493   4.182   0.818   5.777
  246POPC   NC3 3494   8.749   9.642   3.866
  246POPC   PO4 3495   9.383   9.384   3.928
  246POPC   GL1 3496   9.055   9.560   4.300
  246POPC   GL2 3497   8.746   9.833   4.332
  246POPC   C1A 3498   8.996   9.326   4.742
  246POPC   D2A 3499   8.808   9.158   5.177
  246POPC   C3A 3500   9.020   9.340   5.576
  246POPC   C4A 3501   9.079   9.193   6.041
  246POPC   C1B 3502   8.984   9.847   4.726
  246POPC   C2B 3503   8.891   9.664   5.140
  246POPC   C3B 3504   8.870   9.851   5.538
  246POPC   C4B 3505   9.169  10.006   5.805
  247POPC   NC3 3506   2.135   0.388   3.878
  247POPC   PO4 3507   1.571   0.268   4.043
  247POPC   GL1 3508   1.919   0.098   4.278
  247POPC   GL2 3509   1.996   0.421   4.364
  247POPC   C1A 3510   1.961   0.111   4.748
  247POPC   D2A 3511   1.795   0.153   5.141
  247POPC   C3A 3512   2.142   0.076   5.462
  247POPC   C4A 3513   2.080   0.017   5.903
  247POPC   C1B 3514   1.888   0.631   4.732
  247POPC   C2B 3515   1.674   0.650   5.111
  247POPC   C3B 3516   1.902   0.531   5.468
  247POPC   C4B 3517   2.168   0.508   5.789
  248POPC   NC3 3518  10.434   6.232   3.760
  248POPC   PO4 3519  10.602   6.807   3.967
  248POPC   GL1 3520  10.471   6.739   4.326
  248POPC   GL2 3521  10.434   6.385   4.260
  248POPC   C1A 3522  10.304   6.813   4.716
  248POPC   D2A 3523  10.172   6.532   5.049
  248POPC   C3A 3524  10.235   6.668   5.433
  248POPC   C4A 3525  10.046   6.658   5.842
  248POPC   C1B 3526  10.447   6.308   4.690
  248POPC   C2B 3527  10.377   6.028   5.026
  248POPC   C3B 3528  10.365   6.163   5.456
  248POPC   C4B 3529  10.480   6.401   5.794
  249POPC   NC3 3530   0.505   1.875   3.870
  249POPC   PO4 3531   0.153   2.351   4.137
  249POPC   GL1 3532   0.187   1.936   4.351
  249POPC   GL2 3533   0.492   1.729   4.364
  249POPC   C1A 3534   0.222   1.714   4.772
  249POPC   D2A 3535   0.418   1.890   5.116
  249POPC   C3A 3536   0.181   1.842   5.446
  249POPC   C4A 3537   0.024   2.207   5.637
  249POPC   C1B 3538   0.586   2.078   4.642
  249POPC   C2B 3539   0.631   2.345   5.007
  249POPC   C3B 3540   0.510   2.299   5.462
  249POPC   C4B 3541   0.499   2.016   5.789
  250POPC   NC3 3542   0.499   8.883   3.924
  250POPC   PO4 3543  11.450   8.455   3.789
  250POPC   GL1 3544   0.250   8.473   4.197
  250POPC   GL2 3545   0.593   8.598   4.318
  250POPC   C1A 3546   0.210   8.789   4.590
  250POPC   D2A 3547   0.345   8.804   5.048
  250POPC   C3A 3548   0.215   9.076   5.429
  250POPC   C4A 3549   0.114   9.092   5.906
  250POPC   C1B 3550   0.747   8.713   4.696
  250POPC   C2B 3551   0.867   8.695   5.092
  250POPC   C3B 3552   0.762   9.003   5.381
  250POPC   C4B 3553   0.563   8.944   5.783
  251POPC   NC3 3554  11.069  11.202   3.724
  251POPC   PO4 3555  10.639   0.199   3.785
  251POPC   GL1 3556  11.109   0.054   4.100
  251POPC   GL2 3557  11.267  11.225   4.198
  251POPC   C1A 3558  11.214   0.018   4.612
  251POPC   D2A 3559  11.055  11.302   5.020
  251POPC   C3A 3560  11.229  11.334   5.443
  251POPC   C4A 3561  11.160   0.074   5.838
  251POPC   C1B 3562  11.195  11.015   4.640
  251POPC   C2B 3563  11.398  10.889   5.040
  251POPC   C3B 3564  11.404  10.845   5.459
  251POPC   C4B 3565  11.171  10.997   5.818
  252POPC   NC3 3566   4.056   1.351   3.862
  252POPC   PO4 3567   4.670   1.366   3.746
  252POPC   GL1 3568   4.601   1.210   4.166
  252POPC   GL2 3569   4.417   1.432   4.215
  252POPC   C1A 3570   4.620   1.352   4.662
  252POPC   D2A 3571   4.625   1.216   5.082
  252POPC   C3A 3572   4.593   1.457   5.459
  252POPC   C4A 3573   4.614   1.171   5.786
  252POPC   C1B 3574   4.193   1.122   4.494
  252POPC   C2B 3575   4.147   1.233   4.949
  252POPC   C3B 3576   4.217   1.131   5.376
  252POPC   C4B 3577   4.147   1.388   5.740
  253POPC   NC3 3578   5.600  10.552   3.956
  253POPC   PO4 3579   6.019  10.102   3.801
  253POPC   GL1 3580   5.914  10.230   4.253
  253POPC   GL2 3581   5.990  10.593   4.291
  253POPC   C1A 3582   5.798  10.125   4.723
  253POPC   D2A 3583   5.558   9.996   5.105
  253POPC   C3A 3584   5.748  10.060   5.467
  253POPC   C4A 3585   5.875  10.252   5.802
  253POPC   C1B 3586   5.728  10.618   4.670
  253POPC   C2B 3587   5.664  10.482   5.092
  253POPC   C3B 3588   5.577  10.566   5.505
  253POPC   C4B 3589   5.863  10.752   5.800
  254POPC   NC3 3590   1.823  10.522   3.648
  254POPC   PO4 3591   2.444  10.799   3.847
  254POPC   GL1 3592   2.319  10.801   4.292
  254POPC   GL2 3593   2.109  10.512   4.319
  254POPC   C1A 3594   2.278  10.818   4.746
  254POPC   D2A 3595   2.039  10.619   5.046
  254POPC   C3A 3596   2.019  10.796   5.441
  254POPC   C4A 3597   2.197  10.668   5.841
  254POPC   C1B 3598   2.227  10.253   4.679
  254POPC   C2B 3599   2.141  10.082   5.114
  254POPC   C3B 3600   2.029  10.303   5.484
  254POPC   C4B 3601   1.687  10.510   5.699
  255POPC   NC3 3602   9.689  11.147   3.753
  255POPC   PO4 3603   9.109  11.413   3.642
  255POPC   GL1 3604   9.398  11.402   4.082
  255POPC   GL2 3605   9.650  11.136   4.260
  255POPC   C1A 3606   9.423  11.441   4.592
  255POPC   D2A 3607   9.414  11.363   5.103
  255POPC   C3A 3608   9.666  11.239   5.552
  255POPC   C4A 3609   9.735  11.359   6.067
  255POPC   C1B 3610   9.622  10.929   4.681
  255POPC   C2B 3611   9.429  10.839   5.095
  255POPC   C3B 3612   9.274  10.887   5.521
  255POPC   C4B 3613   9.484  10.904   5.913
  256POPC   NC3 3614   9.178   4.884   3.926
  256POPC   PO4 3615   8.581   5.101   3.740
  256POPC   GL1 3616   8.754   5.164   4.249
  256POPC   GL2 3617   9.116   5.140   4.383
  256POPC   C1A 3618   8.743   5.068   4.752
  256POPC   D2A 3619   8.940   4.944   5.210
  256POPC   C3A 3620   8.769   4.886   5.654
  256POPC   C4A 3621   8.426   4.857   5.962
  256POPC   C1B 3622   9.164   5.345   4.806
  256POPC   C2B 3623   9.252   5.357   5.260
  256POPC   C3B 3624   9.150   5.248   5.672
  256POPC   C4B 3625   9.204   4.930   5.985
  257POPC   NC3 3626   2.714   3.591   4.024
  257POPC   PO4 3627   3.077   3.081   4.070
  257POPC   GL1 3628   2.752   3.252   4.386
  257POPC   GL2 3629   2.399   3.167   4.444
  257POPC   C1A 3630   2.748   3.448   4.794
  257POPC   D2A 3631   3.020   3.408   5.160
  257POPC   C3A 3632   2.892   3.539   5.574
  257POPC   C4A 3633   3.086   3.408   5.944
  257POPC   C1B 3634   2.460   3.051   4.891
  257POPC   C2B 3635   2.525   3.277   5.285
  257POPC   C3B 3636   2.378   3.576   5.619
  257POPC   C4B 3637   2.564   3.543   6.017
  258POPC   NC3 3638   4.125  10.690   4.081
  258POPC   PO4 3639   4.361  10.064   4.075
  258POPC   GL1 3640   4.256  10.261   4.443
  258POPC   GL2 3641   3.937  10.302   4.371
  258POPC   C1A 3642   4.301  10.193   4.897
  258POPC   D2A 3643   4.686  10.290   5.173
  258POPC   C3A 3644   4.673  10.298   5.630
  258POPC   C4A 3645   4.670  10.633   5.953
  258POPC   C1B 3646   3.960  10.591   4.735
  258POPC   C2B 3647   3.871  10.511   5.159
  258POPC   C3B 3648   4.157  10.367   5.486
  258POPC   C4B 3649   4.234  10.379   5.935
  259POPC   NC3 3650   5.010   0.645   3.857
  259POPC   PO4 3651   5.240   0.001   3.720
  259POPC   GL1 3652   5.209   0.281   4.150
  259POPC   GL2 3653   4.848   0.316   4.310
  259POPC   C1A 3654   5.240   0.483   4.581
  259POPC   D2A 3655   5.294   0.393   5.026
  259POPC   C3A 3656   5.277   0.549   5.444
  259POPC   C4A 3657   5.213   0.381   5.835
  259POPC   C1B 3658   4.798   0.304   4.805
  259POPC   C2B 3659   4.853   0.233   5.282
  259POPC   C3B 3660   4.749   0.190   5.719
  259POPC   C4B 3661   4.772   0.489   6.072
  260POPC   NC3 3662   1.876   7.915   4.020
  260POPC   PO4 3663   2.069   8.524   3.928
  260POPC   GL1 3664   2.107   8.309   4.323
  260POPC   GL2 3665   1.778   8.290   4.402
  260POPC   C1A 3666   2.056   8.299   4.812
  260POPC   D2A 3667   1.752   8.198   5.146
  260POPC   C3A 3668   1.992   8.244   5.510
  260POPC   C4A 3669   2.148   8.538   5.765
  260POPC   C1B 3670   1.768   7.902   4.681
  260POPC   C2B 3671   1.676   7.677   5.088
  260POPC   C3B 3672   1.723   7.799   5.527
  260POPC   C4B 3673   1.542   8.196   5.705
  261POPC   NC3 3674   8.711   2.637   4.152
  261POPC   PO4 3675   9.307   2.815   4.135
  261POPC   GL1 3676   9.231   2.885   4.510
  261POPC   GL2 3677   9.135   2.561   4.569
  261POPC   C1A 3678   9.082   2.913   4.933
  261POPC   D2A 3679   8.937   2.741   5.323
  261POPC   C3A 3680   9.094   3.008   5.657
  261POPC   C4A 3681   9.135   3.136   6.055
  261POPC   C1B 3682   8.722   2.518   4.778
  261POPC   C2B 3683   8.504   2.375   5.145
  261POPC   C3B 3684   8.667   2.371   5.575
  261POPC   C4B 3685   8.638   2.776   5.811
  262POPC   NC3 3686   3.161  10.859   3.875
  262POPC   PO4 3687   3.128   0.028   3.856
  262POPC   GL1 3688   3.223  11.272   4.233
  262POPC   GL2 3689   3.591  11.244   4.317
  262POPC   C1A 3690   3.222  11.294   4.697
  262POPC   D2A 3691   3.179  11.135   5.121
  262POPC   C3A 3692   3.246  11.307   5.538
  262POPC   C4A 3693   3.420  11.400   5.963
  262POPC   C1B 3694   3.640  10.998   4.729
  262POPC   C2B 3695   3.671  11.015   5.196
  262POPC   C3B 3696   3.711  11.071   5.631
  262POPC   C4B 3697   3.860  10.701   5.802
  263POPC   NC3 3698  11.313   2.122   3.940
  263POPC   PO4 3699   0.163   1.552   3.984
  263POPC   GL1 3700  11.262   1.680   4.268
  263POPC   GL2 3701  10.981   1.980   4.273
  263POPC   C1A 3702  11.255   1.914   4.701
  263POPC   D2A 3703  11.314   2.098   5.127
  263POPC   C3A 3704  11.162   1.873   5.512
  263POPC   C4A 3705  11.435   1.782   5.898
  263POPC   C1B 3706  10.800   2.146   4.647
  263POPC   C2B 3707  10.820   2.015   5.063
  263POPC   C3B 3708  10.719   2.146   5.462
  263POPC   C4B 3709  10.940   2.191   5.846
  264POPC   NC3 3710   4.541   1.805   3.732
  264POPC   PO4 3711   3.881   1.705   3.603
  264POPC   GL1 3712   4.086   1.787   4.109
  264POPC   GL2 3713   4.369   1.943   4.289
  264POPC   C1A 3714   4.122   1.611   4.600
  264POPC   D2A 3715   3.965   1.809   5.031
  264POPC   C3A 3716   4.138   1.821   5.465
  264POPC   C4A 3717   3.948   1.843   5.904
  264POPC   C1B 3718   4.309   2.058   4.717
  264POPC   C2B 3719   4.472   1.783   5.062
  264POPC   C3B 3720   4.676   1.976   5.434
  264POPC   C4B 3721   4.747   2.225   5.839
  265POPC   NC3 3722   1.140   6.628   3.766
  265POPC   PO4 3723   1.516   6.447   4.227
  265POPC   GL1 3724   1.310   6.401   4.565
  265POPC   GL2 3725   0.992   6.368   4.417
  265POPC   C1A 3726   1.314   6.514   4.986
  265POPC   D2A 3727   1.297   6.807   5.286
  265POPC   C3A 3728   1.383   6.629   5.677
  265POPC   C4A 3729   1.560   6.879   6.026
  265POPC   C1B 3730   0.842   6.518   4.809
  265POPC   C2B 3731   0.849   6.534   5.279
  265POPC   C3B 3732   0.786   6.192   5.557
  265POPC   C4B 3733   1.083   6.237   5.863
  266POPC   NC3 3734   1.411   6.105   3.946
  266POPC   PO4 3735   1.197   5.436   3.907
  266POPC   GL1 3736   1.294   5.652   4.274
  266POPC   GL2 3737   1.037   5.875   4.263
  266POPC   C1A 3738   1.412   5.510   4.701
  266POPC   D2A 3739   1.227   5.660   5.101
  266POPC   C3A 3740   1.503   5.681   5.429
  266POPC   C4A 3741   1.502   5.501   5.802
  266POPC   C1B 3742   1.128   5.944   4.676
  266POPC   C2B 3743   1.015   6.113   5.045
  266POPC   C3B 3744   1.246   6.116   5.391
  266POPC   C4B 3745   1.065   5.758   5.666
  267POPC   NC3 3746   7.284   2.225   3.975
  267POPC   PO4 3747   7.032   1.572   3.759
  267POPC   GL1 3748   7.139   1.751   4.135
  267POPC   GL2 3749   7.475   1.815   4.213
  267POPC   C1A 3750   7.017   1.823   4.589
  267POPC   D2A 3751   7.102   1.945   5.049
  267POPC   C3A 3752   6.858   1.902   5.442
  267POPC   C4A 3753   7.064   1.779   5.845
  267POPC   C1B 3754   7.506   1.951   4.661
  267POPC   C2B 3755   7.591   1.809   5.079
  267POPC   C3B 3756   7.421   1.941   5.480
  267POPC   C4B 3757   7.158   2.249   5.634
  268POPC   NC3 3758  10.350   8.195   3.620
  268POPC   PO4 3759  10.072   7.653   3.914
  268POPC   GL1 3760  10.303   7.744   4.280
  268POPC   GL2 3761  10.476   8.094   4.302
  268POPC   C1A 3762  10.124   7.854   4.677
  268POPC   D2A 3763   9.929   8.110   4.986
  268POPC   C3A 3764  10.071   7.978   5.350
  268POPC   C4A 3765  10.191   7.970   5.728
  268POPC   C1B 3766  10.349   8.304   4.720
  268POPC   C2B 3767  10.286   8.427   5.168
  268POPC   C3B 3768  10.553   8.322   5.530
  268POPC   C4B 3769  10.595   8.464   5.941
  269POPC   NC3 3770   2.854   9.513   3.883
  269POPC   PO4 3771   2.231   9.777   3.855
  269POPC   GL1 3772   2.531   9.651   4.245
  269POPC   GL2 3773   2.898   9.610   4.379
  269POPC   C1A 3774   2.478   9.568   4.694
  269POPC   D2A 3775   2.744   9.665   5.067
  269POPC   C3A 3776   2.479   9.718   5.419
  269POPC   C4A 3777   2.352   9.522   5.816
  269POPC   C1B 3778   2.966   9.312   4.736
  269POPC   C2B 3779   3.051   9.220   5.190
  269POPC   C3B 3780   3.025   9.554   5.524
  269POPC   C4B 3781   2.797   9.780   5.815
  270POPC   NC3 3782   3.850  10.994   3.719
  270POPC   PO4 3783   4.510  10.829   3.845
  270POPC   GL1 3784   4.568  10.965   4.255
  270POPC   GL2 3785   4.467  11.293   4.186
  270POPC   C1A 3786   4.422  10.828   4.667
  270POPC   D2A 3787   4.345  10.667   5.081
  270POPC   C3A 3788   4.169  10.888   5.411
  270POPC   C4A 3789   4.304  10.966   5.812
  270POPC   C1B 3790   4.131  11.216   4.521
  270POPC   C2B 3791   4.102  11.128   4.944
  270POPC   C3B 3792   4.044  11.368   5.295
  270POPC   C4B 3793   4.068  11.424   5.720
  271POPC   NC3 3794   2.870   6.615   3.950
  271POPC   PO4 3795   2.960   7.178   4.098
  271POPC   GL1 3796   2.877   6.803   4.431
  271POPC   GL2 3797   2.559   6.625   4.367
  271POPC   C1A 3798   2.978   6.527   4.833
  271POPC   D2A 3799   3.052   6.427   5.316
  271POPC   C3A 3800   2.801   6.703   5.597
  271POPC   C4A 3801   2.499   6.942   5.830
  271POPC   C1B 3802   2.501   6.363   4.708
  271POPC   C2B 3803   2.669   6.199   5.097
  271POPC   C3B 3804   2.552   6.258   5.512
  271POPC   C4B 3805   2.163   6.111   5.698
  272POPC   NC3 3806   6.888   3.120   4.176
  272POPC   PO4 3807   6.872   2.469   4.013
  272POPC   GL1 3808   7.079   2.640   4.369
  272POPC   GL2 3809   7.397   2.781   4.350
  272POPC   C1A 3810   7.077   2.816   4.804
  272POPC   D2A 3811   7.325   2.819   5.208
  272POPC   C3A 3812   7.127   2.784   5.644
  272POPC   C4A 3813   7.138   2.985   6.087
  272POPC   C1B 3814   7.449   2.471   4.705
  272POPC   C2B 3815   7.497   2.321   5.142
  272POPC   C3B 3816   7.606   2.456   5.585
  272POPC   C4B 3817   7.776   2.456   6.014
  273POPC   NC3 3818   1.957   9.694   3.481
  273POPC   PO4 3819   1.876  10.179   3.976
  273POPC   GL1 3820   2.089   9.922   4.315
  273POPC   GL2 3821   2.068   9.497   4.290
  273POPC   C1A 3822   1.971   9.786   4.703
  273POPC   D2A 3823   1.694   9.828   5.019
  273POPC   C3A 3824   1.938   9.633   5.317
  273POPC   C4A 3825   2.026   9.841   5.653
  273POPC   C1B 3826   2.031   9.270   4.628
  273POPC   C2B 3827   2.031   9.176   5.035
  273POPC   C3B 3828   1.836   9.132   5.414
  273POPC   C4B 3829   1.827   9.374   5.790
  274POPC   NC3 3830   7.312   8.809   3.807
  274POPC   PO4 3831   7.071   9.371   3.926
  274POPC   GL1 3832   7.279   9.150   4.340
  274POPC   GL2 3833   7.415   8.792   4.310
  274POPC   C1A 3834   7.315   9.043   4.816
  274POPC   D2A 3835   7.331   8.833   5.227
  274POPC   C3A 3836   7.146   9.073   5.603
  274POPC   C4A 3837   6.801   9.067   5.920
  274POPC   C1B 3838   7.736   8.868   4.592
  274POPC   C2B 3839   7.809   8.841   5.008
  274POPC   C3B 3840   7.786   8.878   5.445
  274POPC   C4B 3841   7.473   8.701   5.711
  275POPC   NC3 3842   2.348   1.167   3.666
  275POPC   PO4 3843   2.413   1.710   3.988
  275POPC   GL1 3844   2.679   1.470   4.292
  275POPC   GL2 3845   2.677   1.117   4.209
  275POPC   C1A 3846   2.565   1.428   4.741
  275POPC   D2A 3847   2.264   1.380   5.030
  275POPC   C3A 3848   2.340   1.508   5.425
  275POPC   C4A 3849   2.344   1.404   5.846
  275POPC   C1B 3850   2.909   1.097   4.613
  275POPC   C2B 3851   2.768   1.048   5.066
  275POPC   C3B 3852   2.721   1.182   5.505
  275POPC   C4B 3853   2.775   1.131   5.954
  276POPC   NC3 3854   3.535   3.021   3.998
  276POPC   PO4 3855   3.370   2.427   3.748
  276POPC   GL1 3856   3.483   2.603   4.293
  276POPC   GL2 3857   3.755   2.769   4.377
  276POPC   C1A 3858   3.245   2.492   4.749
  276POPC   D2A 3859   3.360   2.552   5.184
  276POPC   C3A 3860   3.230   2.597   5.611
  276POPC   C4A 3861   3.500   2.670   5.999
  276POPC   C1B 3862   3.489   2.922   4.752
  276POPC   C2B 3863   3.415   3.064   5.208
  276POPC   C3B 3864   3.451   3.081   5.687
  276POPC   C4B 3865   3.823   3.095   6.001
  277POPC   NC3 3866   8.994  10.983   3.488
  277POPC   PO4 3867   9.261  10.859   4.109
  277POPC   GL1 3868   8.879  10.992   4.339
  277POPC   GL2 3869   8.994  11.294   4.367
  277POPC   C1A 3870   8.654  10.806   4.692
  277POPC   D2A 3871   8.580  10.560   5.068
  277POPC   C3A 3872   8.674  10.717   5.509
  277POPC   C4A 3873   8.857  11.017   5.783
  277POPC   C1B 3874   9.081  11.093   4.790
  277POPC   C2B 3875   8.917  11.109   5.216
  277POPC   C3B 3876   9.106  11.378   5.533
  277POPC   C4B 3877   9.042   0.250   5.773
  278POPC   NC3 3878   6.397   2.496   4.043
  278POPC   PO4 3879   6.444   3.115   4.153
  278POPC   GL1 3880   6.595   2.782   4.460
  278POPC   GL2 3881   6.622   2.416   4.481
  278POPC   C1A 3882   6.601   2.685   4.913
  278POPC   D2A 3883   6.790   2.899   5.257
  278POPC   C3A 3884   6.562   2.937   5.653
  278POPC   C4A 3885   6.632   3.134   6.063
  278POPC   C1B 3886   6.948   2.323   4.753
  278POPC   C2B 3887   6.994   2.431   5.183
  278POPC   C3B 3888   6.719   2.467   5.534
  278POPC   C4B 3889   6.343   2.468   5.805
  279POPC   NC3 3890   0.411   2.704   3.580
  279POPC   PO4 3891   0.615   3.032   4.132
  279POPC   GL1 3892   0.571   2.854   4.494
  279POPC   GL2 3893   0.470   2.532   4.467
  279POPC   C1A 3894   0.375   2.798   4.890
  279POPC   D2A 3895   0.566   2.768   5.263
  279POPC   C3A 3896   0.762   3.036   5.490
  279POPC   C4A 3897   0.685   2.776   5.809
  279POPC   C1B 3898   0.162   2.332   4.789
  279POPC   C2B 3899   0.117   2.487   5.207
  279POPC   C3B 3900   0.162   2.705   5.599
  279POPC   C4B 3901   0.272   2.498   5.967
  280POPC   NC3 3902  11.185   3.632   3.844
  280POPC   PO4 3903   0.190   3.114   3.723
  280POPC   GL1 3904   0.031   3.380   4.111
  280POPC   GL2 3905  11.207   3.359   4.264
  280POPC   C1A 3906   0.021   3.613   4.587
  280POPC   D2A 3907  11.478   3.384   4.998
  280POPC   C3A 3908  11.465   3.569   5.372
  280POPC   C4A 3909  11.342   3.522   5.774
  280POPC   C1B 3910  11.029   3.635   4.558
  280POPC   C2B 3911  11.000   3.524   4.962
  280POPC   C3B 3912  10.973   3.541   5.387
  280POPC   C4B 3913  10.896   3.789   5.706
  281POPC   NC3 3914   3.285  10.204   4.180
  281POPC   PO4 3915   3.659  10.777   4.081
  281POPC   GL1 3916   3.327  10.751   4.336
  281POPC   GL2 3917   3.502  10.528   4.511
  281POPC   C1A 3918   3.151  10.787   4.734
  281POPC   D2A 3919   3.353  10.624   5.078
  281POPC   C3A 3920   3.306  10.763   5.511
  281POPC   C4A 3921   3.340  10.505   5.908
  281POPC   C1B 3922   3.615  10.214   4.758
  281POPC   C2B 3923   3.477  10.129   5.095
  281POPC   C3B 3924   3.532  10.307   5.470
  281POPC   C4B 3925   3.778  10.192   5.802
  282POPC   NC3 3926   3.596   0.045   3.874
  282POPC   PO4 3927   3.826   0.719   3.758
  282POPC   GL1 3928   3.709   0.443   4.152
  282POPC   GL2 3929   3.334   0.343   4.231
  282POPC   C1A 3930   3.742   0.258   4.592
  282POPC   D2A 3931   3.648  11.476   4.956
  282POPC   C3A 3932   3.620   0.132   5.401
  282POPC   C4A 3933   3.845   0.424   5.670
  282POPC   C1B 3934   3.247   0.301   4.684
  282POPC   C2B 3935   3.490   0.493   5.032
  282POPC   C3B 3936   3.419   0.622   5.472
  282POPC   C4B 3937   3.164   0.295   5.711
  283POPC   NC3 3938   4.063   9.696   3.991
  283POPC   PO4 3939   4.745   9.418   4.025
  283POPC   GL1 3940   4.472   9.630   4.377
  283POPC   GL2 3941   4.104   9.761   4.474
  283POPC   C1A 3942   4.452   9.651   4.841
  283POPC   D2A 3943   4.695   9.480   5.202
  283POPC   C3A 3944   4.501   9.450   5.612
  283POPC   C4A 3945   4.619   9.588   6.067
  283POPC   C1B 3946   3.810   9.754   4.818
  283POPC   C2B 3947   3.941   9.947   5.183
  283POPC   C3B 3948   4.342   9.895   5.347
  283POPC   C4B 3949   4.307   9.899   5.775
  284POPC   NC3 3950  10.468  10.408   3.816
  284POPC   PO4 3951  10.059  10.957   3.957
  284POPC   GL1 3952  10.408  10.789   4.224
  284POPC   GL2 3953  10.481  10.420   4.320
  284POPC   C1A 3954  10.305  10.752   4.667
  284POPC   D2A 3955  10.445  10.590   5.021
  284POPC   C3A 3956  10.305  10.783   5.360
  284POPC   C4A 3957  10.458  10.757   5.730
  284POPC   C1B 3958  10.577  10.190   4.697
  284POPC   C2B 3959  10.509  10.107   5.127
  284POPC   C3B 3960  10.554  10.283   5.504
  284POPC   C4B 3961  10.872  10.194   5.780
  285POPC   NC3 3962   1.054   4.965   3.932
  285POPC   PO4 3963   0.452   5.343   3.938
  285POPC   GL1 3964   0.801   5.356   4.283
  285POPC   GL2 3965   1.124   5.169   4.381
  285POPC   C1A 3966   0.900   5.479   4.696
  285POPC   D2A 3967   1.134   5.183   4.982
  285POPC   C3A 3968   1.164   5.254   5.437
  285POPC   C4A 3969   0.893   5.059   5.728
  285POPC   C1B 3970   1.374   4.873   4.645
  285POPC   C2B 3971   1.480   4.807   5.105
  285POPC   C3B 3972   1.342   4.761   5.543
  285POPC   C4B 3973   1.455   5.014   5.899
  286POPC   NC3 3974   7.230   9.803   3.884
  286POPC   PO4 3975   7.931   9.881   3.939
  286POPC   GL1 3976   7.729   9.994   4.361
  286POPC   GL2 3977   7.466   9.739   4.364
  286POPC   C1A 3978   7.699   9.857   4.826
  286POPC   D2A 3979   7.390   9.942   5.153
  286POPC   C3A 3980   7.493   9.990   5.601
  286POPC   C4A 3981   7.501   9.672   5.886
  286POPC   C1B 3982   7.260   9.582   4.766
  286POPC   C2B 3983   7.335   9.418   5.201
  286POPC   C3B 3984   7.126   9.594   5.556
  286POPC   C4B 3985   6.703   9.594   5.740
  287POPC   NC3 3986   7.383   0.366   3.829
  287POPC   PO4 3987   7.728   0.998   3.807
  287POPC   GL1 3988   7.618   0.755   4.252
  287POPC   GL2 3989   7.449   0.439   4.305
  287POPC   C1A 3990   7.718   0.541   4.712
  287POPC   D2A 3991   7.739   0.346   5.173
  287POPC   C3A 3992   7.653   0.639   5.569
  287POPC   C4A 3993   7.716   0.676   6.063
  287POPC   C1B 3994   7.221   0.625   4.616
  287POPC   C2B 3995   7.255   0.372   4.975
  287POPC   C3B 3996   7.244   0.283   5.401
  287POPC   C4B 3997   7.149   0.627   5.676
  288POPC   NC3 3998   5.170   9.169   4.063
  288POPC   PO4 3999   4.816   8.648   3.851
  288POPC   GL1 4000   4.732   8.738   4.291
  288POPC   GL2 4001   4.785   9.056   4.373
  288POPC   C1A 4002   4.637   8.581   4.726
  288POPC   D2A 4003   4.927   8.591   5.106
  288POPC   C3A 4004   4.844   8.666   5.552
  288POPC   C4A 4005   4.967   8.766   5.995
  288POPC   C1B 4006   5.019   8.910   4.721
  288POPC   C2B 4007   5.036   9.084   5.163
  288POPC   C3B 4008   4.972   9.182   5.602
  288POPC   C4B 4009   5.358   9.222   5.860
  289POPC   NC3 4010   5.054   1.194   3.932
  289POPC   PO4 4011   4.598   0.694   4.048
  289POPC   GL1 4012   4.953   0.843   4.324
  289POPC   GL2 4013   5.039   1.202   4.429
  289POPC   C1A 4014   4.907   0.849   4.764
  289POPC   D2A 4015   5.099   1.102   5.043
  289POPC   C3A 4016   4.961   0.965   5.412
  289POPC   C4A 4017   5.052   0.868   5.815
  289POPC   C1B 4018   5.114   1.528   4.723
  289POPC   C2B 4019   4.964   1.608   5.130
  289POPC   C3B 4020   5.104   1.437   5.511
  289POPC   C4B 4021   5.430   1.520   5.783
  290POPC   NC3 4022   4.373   7.528   4.161
  290POPC   PO4 4023   3.793   7.732   4.095
  290POPC   GL1 4024   3.967   7.505   4.474
  290POPC   GL2 4025   4.140   7.160   4.438
  290POPC   C1A 4026   4.098   7.621   4.890
  290POPC   D2A 4027   4.180   7.867   5.264
  290POPC   C3A 4028   4.198   7.622   5.645
  290POPC   C4A 4029   3.892   7.329   5.815
  290POPC   C1B 4030   4.315   7.157   4.867
  290POPC   C2B 4031   4.474   7.412   5.219
  290POPC   C3B 4032   4.522   7.220   5.623
  290POPC   C4B 4033   4.216   6.922   5.786
  291POPC   NC3 4034   0.254   0.537   3.772
  291POPC   PO4 4035  11.479  11.430   3.742
  291POPC   GL1 4036   0.108   0.144   4.199
  291POPC   GL2 4037   0.427   0.358   4.206
  291POPC   C1A 4038   0.370   0.060   4.610
  291POPC   D2A 4039   0.685   0.231   4.952
  291POPC   C3A 4040   0.688   0.096   5.408
  291POPC   C4A 4041   0.935   0.258   5.745
  291POPC   C1B 4042   0.458   0.568   4.620
  291POPC   C2B 4043   0.334   0.619   5.085
  291POPC   C3B 4044   0.461   0.560   5.525
  291POPC   C4B 4045   0.422   0.687   5.944
  292POPC   NC3 4046  10.403   2.256   3.548
  292POPC   PO4 4047  10.200   1.702   3.857
  292POPC   GL1 4048  10.158   1.940   4.238
  292POPC   GL2 4049  10.471   2.137   4.238
  292POPC   C1A 4050  10.215   1.998   4.700
  292POPC   D2A 4051  10.320   1.876   5.129
  292POPC   C3A 4052  10.123   2.085   5.486
  292POPC   C4A 4053  10.339   2.304   5.793
  292POPC   C1B 4054  10.578   1.716   4.471
  292POPC   C2B 4055  10.658   1.550   4.904
  292POPC   C3B 4056  10.716   1.594   5.369
  292POPC   C4B 4057  10.460   1.767   5.705
  293POPC   NC3 4058   1.346   1.637   4.194
  293POPC   PO4 4059   1.526   2.143   3.777
  293POPC   GL1 4060   1.357   2.207   4.212
  293POPC   GL2 4061   1.005   2.122   4.256
  293POPC   C1A 4062   1.398   2.246   4.674
  293POPC   D2A 4063   1.650   2.322   5.080
  293POPC   C3A 4064   1.414   2.117   5.426
  293POPC   C4A 4065   1.357   2.022   5.852
  293POPC   C1B 4066   1.037   1.885   4.685
  293POPC   C2B 4067   1.038   2.048   5.068
  293POPC   C3B 4068   0.862   1.908   5.423
  293POPC   C4B 4069   1.018   1.675   5.747
  294POPC   NC3 4070   0.521  10.478   3.722
  294POPC   PO4 4071   0.888  10.233   4.122
  294POPC   GL1 4072   0.736  10.612   4.316
  294POPC   GL2 4073   0.401  10.644   4.210
  294POPC   C1A 4074   0.732  10.669   4.748
  294POPC   D2A 4075   0.727  10.299   4.965
  294POPC   C3A 4076   0.722  10.411   5.366
  294POPC   C4A 4077   0.662  10.310   5.774
  294POPC   C1B 4078   0.334  10.379   4.604
  294POPC   C2B 4079   0.196  10.424   5.064
  294POPC   C3B 4080   0.233  10.446   5.531
  294POPC   C4B 4081   0.209  10.274   5.981
  295POPC   NC3 4082   3.049   2.610   4.034
  295POPC   PO4 4083   2.376   2.450   3.853
  295POPC   GL1 4084   2.543   2.437   4.234
  295POPC   GL2 4085   2.642   2.763   4.287
  295POPC   C1A 4086   2.717   2.400   4.629
  295POPC   D2A 4087   2.585   2.561   4.979
  295POPC   C3A 4088   2.708   2.400   5.341
  295POPC   C4A 4089   2.708   2.582   5.746
  295POPC   C1B 4090   2.906   2.882   4.686
  295POPC   C2B 4091   2.933   2.891   5.141
  295POPC   C3B 4092   2.919   3.026   5.563
  295POPC   C4B 4093   3.041   2.914   5.982
  296POPC   NC3 4094   1.168  11.045   3.910
  296POPC   PO4 4095   0.818   0.175   3.871
  296POPC   GL1 4096   1.058  11.486   4.252
  296POPC   GL2 4097   1.142  11.137   4.404
  296POPC   C1A 4098   1.089   0.006   4.727
  296POPC   D2A 4099   1.366  11.342   5.068
  296POPC   C3A 4100   1.188  11.403   5.454
  296POPC   C4A 4101   0.949  11.221   5.780
  296POPC   C1B 4102   1.408  10.901   4.741
  296POPC   C2B 4103   1.539  10.838   5.193
  296POPC   C3B 4104   1.386  10.948   5.607
  296POPC   C4B 4105   1.447  10.818   6.044
  297POPC   NC3 4106   9.970   8.108   4.120
  297POPC   PO4 4107   9.365   7.929   3.920
  297POPC   GL1 4108   9.531   7.919   4.304
  297POPC   GL2 4109   9.488   8.266   4.343
  297POPC   C1A 4110   9.629   7.808   4.724
  297POPC   D2A 4111   9.820   7.594   5.114
  297POPC   C3A 4112   9.609   7.788   5.501
  297POPC   C4A 4113   9.726   8.175   5.681
  297POPC   C1B 4114   9.402   8.289   4.780
  297POPC   C2B 4115   9.475   8.193   5.215
  297POPC   C3B 4116   9.235   8.276   5.603
  297POPC   C4B 4117   9.028   8.199   6.010
  298POPC   NC3 4118   6.527  11.357   3.923
  298POPC   PO4 4119   6.567  10.728   3.948
  298POPC   GL1 4120   6.335  10.980   4.209
  298POPC   GL2 4121   6.653  11.058   4.351
  298POPC   C1A 4122   6.243  10.977   4.651
  298POPC   D2A 4123   6.526  11.108   4.990
  298POPC   C3A 4124   6.373  10.984   5.394
  298POPC   C4A 4125   6.570  11.022   5.787
  298POPC   C1B 4126   6.489  11.422   4.578
  298POPC   C2B 4127   6.425   0.105   4.983
  298POPC   C3B 4128   6.530  11.468   5.375
  298POPC   C4B 4129   6.442   0.035   5.786
  299POPC   NC3 4130  11.115   6.950   3.908
  299POPC   PO4 4131  10.908   6.262   3.751
  299POPC   GL1 4132  10.943   6.527   4.216
  299POPC   GL2 4133  11.200   6.716   4.335
  299POPC   C1A 4134  10.916   6.477   4.717
  299POPC   D2A 4135  10.705   6.438   5.155
  299POPC   C3A 4136  10.859   6.644   5.565
  299POPC   C4A 4137  10.924   6.482   6.017
  299POPC   C1B 4138  11.408   6.549   4.677
  299POPC   C2B 4139   0.037   6.513   5.082
  299POPC   C3B 4140  11.340   6.523   5.463
  299POPC   C4B 4141  11.354   6.714   5.880
  300POPC   NC3 4142  11.438   1.130   3.983
  300POPC   PO4 4143  10.807   1.029   3.984
  300POPC   GL1 4144  10.934   0.906   4.381
  300POPC   GL2 4145  11.265   1.011   4.438
  300POPC   C1A 4146  10.967   0.915   4.831
  300POPC   D2A 4147  11.014   1.231   5.133
  300POPC   C3A 4148  10.949   1.046   5.509
  300POPC   C4A 4149  11.033   0.963   5.946
  300POPC   C1B 4150  11.320   1.375   4.720
  300POPC   C2B 4151  11.363   1.583   5.140
  300POPC   C3B 4152  11.337   1.381   5.590
  300POPC   C4B 4153  11.290   1.354   6.097
  301POPC   NC3 4154  10.714   5.296   3.975
  301POPC   PO4 4155  10.347   4.836   3.729
  301POPC   GL1 4156  10.293   4.889   4.214
  301POPC   GL2 4157  10.425   5.198   4.397
  301POPC   C1A 4158  10.269   4.829   4.707
  301POPC   D2A 4159  10.130   4.721   5.149
  301POPC   C3A 4160  10.425   4.719   5.528
  301POPC   C4A 4161  10.285   4.883   5.943
  301POPC   C1B 4162  10.590   5.240   4.826
  301POPC   C2B 4163  10.558   5.135   5.237
  301POPC   C3B 4164  10.250   5.230   5.542
  301POPC   C4B 4165  10.326   5.402   5.922
  302POPC   NC3 4166   9.480   0.971   4.169
  302POPC   PO4 4167   9.255   1.512   3.954
  302POPC   GL1 4168   9.365   1.449   4.398
  302POPC   GL2 4169   9.669   1.276   4.536
  302POPC   C1A 4170   9.369   1.541   4.849
  302POPC   D2A 4171   9.624   1.249   5.106
  302POPC   C3A 4172   9.447   1.203   5.555
  302POPC   C4A 4173   9.491   1.312   6.011
  302POPC   C1B 4174   9.972   0.977   4.724
  302POPC   C2B 4175  10.078   0.840   5.121
  302POPC   C3B 4176   9.925   1.057   5.470
  302POPC   C4B 4177   9.800   0.953   5.879
  303POPC   NC3 4178   9.661  10.689   3.950
  303POPC   PO4 4179  10.067  10.114   3.834
  303POPC   GL1 4180  10.001  10.200   4.288
  303POPC   GL2 4181   9.941  10.575   4.355
  303POPC   C1A 4182  10.084  10.272   4.733
  303POPC   D2A 4183   9.929  10.499   5.067
  303POPC   C3A 4184  10.047  10.343   5.476
  303POPC   C4A 4185   9.959  10.622   5.809
  303POPC   C1B 4186   9.585  10.402   4.625
  303POPC   C2B 4187   9.440  10.321   5.061
  303POPC   C3B 4188   9.571  10.483   5.459
  303POPC   C4B 4189   9.513  10.376   5.866
  304POPC   NC3 4190   6.532   1.728   3.790
  304POPC   PO4 4191   6.277   1.131   3.880
  304POPC   GL1 4192   6.505   1.102   4.336
  304POPC   GL2 4193   6.876   0.952   4.376
  304POPC   C1A 4194   6.505   1.252   4.809
  304POPC   D2A 4195   6.673   1.475   5.213
  304POPC   C3A 4196   6.478   1.615   5.645
  304POPC   C4A 4197   6.643   1.664   6.091
  304POPC   C1B 4198   6.747   0.797   4.756
  304POPC   C2B 4199   6.848   0.970   5.157
  304POPC   C3B 4200   6.694   0.868   5.546
  304POPC   C4B 4201   6.445   1.131   5.814
  305POPC   NC3 4202  10.869   0.485   4.082
  305POPC   PO4 4203  11.479   0.662   4.115
  305POPC   GL1 4204  11.255   0.486   4.452
  305POPC   GL2 4205  10.902   0.437   4.588
  305POPC   C1A 4206  11.303   0.521   4.904
  305POPC   D2A 4207  11.372   0.879   5.183
  305POPC   C3A 4208  11.410   0.826   5.614
  305POPC   C4A 4209  11.490   0.476   5.813
  305POPC   C1B 4210  10.692   0.170   4.921
  305POPC   C2B 4211  10.812   0.121   5.322
  305POPC   C3B 4212  11.182   0.347   5.392
  305POPC   C4B 4213  11.004   0.533   5.687
  306POPC   NC3 4214   0.808   9.793   4.022
  306POPC   PO4 4215   0.353   9.331   4.013
  306POPC   GL1 4216   0.665   9.170   4.363
  306POPC   GL2 4217   0.890   9.479   4.472
  306POPC   C1A 4218   0.632   9.188   4.846
  306POPC   D2A 4219   0.555   9.463   5.215
  306POPC   C3A 4220   0.641   9.443   5.664
  306POPC   C4A 4221   0.325   9.540   5.973
  306POPC   C1B 4222   0.706   9.788   4.813
  306POPC   C2B 4223   0.426   9.960   5.183
  306POPC   C3B 4224   0.403   9.912   5.631
  306POPC   C4B 4225   0.709   9.862   6.011
  307POPC   NC3 4226  10.815   6.052   4.157
  307POPC   PO4 4227  10.199   5.875   3.945
  307POPC   GL1 4228  10.480   5.687   4.254
  307POPC   GL2 4229  10.316   5.899   4.450
  307POPC   C1A 4230  10.714   5.718   4.702
  307POPC   D2A 4231  10.854   5.856   5.125
  307POPC   C3A 4232  10.577   5.703   5.426
  307POPC   C4A 4233  10.544   5.865   5.855
  307POPC   C1B 4234  10.208   5.575   4.735
  307POPC   C2B 4235  10.115   5.595   5.180
  307POPC   C3B 4236  10.097   5.752   5.610
  307POPC   C4B 4237  10.102   6.104   5.959
  308POPC   NC3 4238  10.451  11.302   3.989
  308POPC   PO4 4239   9.842   0.094   3.759
  308POPC   GL1 4240  10.025  11.468   4.233
  308POPC   GL2 4241  10.276  11.249   4.439
  308POPC   C1A 4242   9.897  11.380   4.723
  308POPC   D2A 4243   9.918   0.019   5.186
  308POPC   C3A 4244  10.204  11.288   5.445
  308POPC   C4A 4245  10.118  11.110   5.842
  308POPC   C1B 4246  10.654  11.122   4.680
  308POPC   C2B 4247  10.549  11.174   5.080
  308POPC   C3B 4248  10.733  11.126   5.459
  308POPC   C4B 4249  10.602  11.313   5.792
  309POPC   NC3 4250   0.594   4.078   3.964
  309POPC   PO4 4251   0.245   4.577   4.087
  309POPC   GL1 4252   0.289   4.265   4.331
  309POPC   GL2 4253   0.619   4.280   4.420
  309POPC   C1A 4254   0.169   4.144   4.691
  309POPC   D2A 4255   0.147   4.331   5.065
  309POPC   C3A 4256   0.250   4.130   5.420
  309POPC   C4A 4257   0.234   4.351   5.781
  309POPC   C1B 4258   0.477   4.557   4.730
  309POPC   C2B 4259   0.648   4.331   5.044
  309POPC   C3B 4260   0.759   4.023   5.301
  309POPC   C4B 4261   0.687   4.058   5.738
  310POPC   NC3 4262  10.061   4.489   3.686
  310POPC   PO4 4263   9.440   4.469   3.959
  310POPC   GL1 4264   9.778   4.483   4.261
  310POPC   GL2 4265   9.824   4.143   4.425
  310POPC   C1A 4266   9.795   4.563   4.729
  310POPC   D2A 4267   9.816   4.273   5.110
  310POPC   C3A 4268   9.716   4.439   5.537
  310POPC   C4A 4269   9.696   4.695   5.943
  310POPC   C1B 4270   9.467   4.159   4.727
  310POPC   C2B 4271   9.297   4.279   5.149
  310POPC   C3B 4272   9.301   4.105   5.574
  310POPC   C4B 4273   9.370   4.318   5.924
  311POPC   NC3 4274   6.378  10.317   3.976
  311POPC   PO4 4275   6.973  10.129   4.099
  311POPC   GL1 4276   6.857  10.476   4.410
  311POPC   GL2 4277   6.491  10.544   4.437
  311POPC   C1A 4278   6.834  10.766   4.749
  311POPC   D2A 4279   6.622  10.624   5.122
  311POPC   C3A 4280   6.804  10.651   5.531
  311POPC   C4A 4281   6.741  10.323   5.851
  311POPC   C1B 4282   6.204  10.478   4.807
  311POPC   C2B 4283   6.137  10.468   5.282
  311POPC   C3B 4284   6.313  10.554   5.698
  311POPC   C4B 4285   6.310  10.366   6.119
  312POPC   NC3 4286   8.054   0.686   4.010
  312POPC   PO4 4287   7.791   0.030   3.857
  312POPC   GL1 4288   7.926   0.213   4.259
  312POPC   GL2 4289   8.276   0.246   4.206
  312POPC   C1A 4290   7.971   0.087   4.722
  312POPC   D2A 4291   8.314   0.102   5.078
  312POPC   C3A 4292   8.138   0.069   5.505
  312POPC   C4A 4293   7.931   0.292   5.818
  312POPC   C1B 4294   8.347   0.388   4.620
  312POPC   C2B 4295   8.161   0.579   4.952
  312POPC   C3B 4296   8.151   0.553   5.399
  312POPC   C4B 4297   8.119   0.800   5.747
  313POPC   NC3 4298   8.133   1.259   3.826
  313POPC   PO4 4299   8.392   0.923   4.247
  313POPC   GL1 4300   8.049   1.083   4.402
  313POPC   GL2 4301   8.078   1.423   4.340
  313POPC   C1A 4302   8.119   1.185   4.836
  313POPC   D2A 4303   8.279   0.997   5.213
  313POPC   C3A 4304   8.398   1.200   5.557
  313POPC   C4A 4305   8.233   1.515   5.757
  313POPC   C1B 4306   7.752   1.503   4.684
  313POPC   C2B 4307   7.690   1.308   5.112
  313POPC   C3B 4308   7.867   1.180   5.500
  313POPC   C4B 4309   7.821   1.169   5.939
  314POPC   NC3 4310   9.220   3.252   4.067
  314POPC   PO4 4311   8.510   3.051   4.038
  314POPC   GL1 4312   8.811   3.152   4.419
  314POPC   GL2 4313   8.972   3.499   4.439
  314POPC   C1A 4314   8.807   3.344   4.884
  314POPC   D2A 4315   8.997   3.354   5.298
  314POPC   C3A 4316   8.725   3.363   5.696
  314POPC   C4A 4317   8.819   3.516   6.112
  314POPC   C1B 4318   9.127   3.751   4.825
  314POPC   C2B 4319   8.991   3.868   5.246
  314POPC   C3B 4320   8.810   3.918   5.665
  314POPC   C4B 4321   9.004   3.991   6.053
  315POPC   NC3 4322   7.014  10.565   3.950
  315POPC   PO4 4323   7.438  10.163   3.662
  315POPC   GL1 4324   7.427  10.311   4.142
  315POPC   GL2 4325   7.378  10.622   4.287
  315POPC   C1A 4326   7.323  10.189   4.626
  315POPC   D2A 4327   7.120  10.400   5.006
  315POPC   C3A 4328   7.076  10.230   5.442
  315POPC   C4A 4329   7.231  10.427   5.825
  315POPC   C1B 4330   7.696  10.531   4.571
  315POPC   C2B 4331   7.646  10.366   4.982
  315POPC   C3B 4332   7.566  10.469   5.409
  315POPC   C4B 4333   7.732  10.436   5.823
  316POPC   NC3 4334   1.335   2.566   3.826
  316POPC   PO4 4335   0.824   2.910   3.649
  316POPC   GL1 4336   0.934   2.654   4.126
  316POPC   GL2 4337   1.230   2.801   4.305
  316POPC   C1A 4338   0.949   2.478   4.599
  316POPC   D2A 4339   1.171   2.563   5.005
  316POPC   C3A 4340   0.987   2.472   5.387
  316POPC   C4A 4341   0.934   2.286   5.773
  316POPC   C1B 4342   1.026   2.963   4.707
  316POPC   C2B 4343   1.129   3.081   5.130
  316POPC   C3B 4344   1.259   2.884   5.527
  316POPC   C4B 4345   1.383   2.528   5.746
  317POPC   NC3 4346   9.731   1.596   3.884
  317POPC   PO4 4347   9.329   2.190   3.809
  317POPC   GL1 4348   9.419   2.277   4.237
  317POPC   GL2 4349   9.412   1.936   4.270
  317POPC   C1A 4350   9.570   2.269   4.668
  317POPC   D2A 4351   9.453   2.053   5.054
  317POPC   C3A 4352   9.583   2.174   5.501
  317POPC   C4A 4353   9.481   2.231   5.973
  317POPC   C1B 4354   9.745   1.795   4.548
  317POPC   C2B 4355   9.830   1.740   4.992
  317POPC   C3B 4356   9.553   1.675   5.372
  317POPC   C4B 4357   9.639   1.748   5.790
  318POPC   NC3 4358   3.379   5.868   3.811
  318POPC   PO4 4359   3.578   5.347   3.776
  318POPC   GL1 4360   3.585   5.131   4.233
  318POPC   GL2 4361   3.306   4.898   4.278
  318POPC   C1A 4362   3.731   5.159   4.722
  318POPC   D2A 4363   3.732   5.329   5.183
  318POPC   C3A 4364   3.373   5.198   5.449
  318POPC   C4A 4365   3.380   4.965   5.840
  318POPC   C1B 4366   3.449   4.732   4.700
  318POPC   C2B 4367   3.597   4.838   5.139
  318POPC   C3B 4368   3.805   4.927   5.552
  318POPC   C4B 4369   3.845   4.593   5.859
  319W        W 4370  11.138  10.871   8.443
  320W        W 4371   8.682   4.342   3.215
  321W        W 4372   5.727   3.770   8.168
  322W        W 4373   6.732   6.848  11.761
  323W        W 4374   7.591   8.383   9.845
  324W        W 4375   2.108   9.583   8.709
  325W        W 4376   5.951   3.792   8.630
  326W        W 4377   0.883   5.090   2.238
  327W        W 4378   3.862   0.888   3.202
  328W        W 4379   9.327   0.859  11.171
  329W        W 4380   7.586   6.145   8.345
  330W        W 4381   8.650   5.510   8.651
  331W        W 4382  10.929   9.084   9.026
  332W        W 4383   9.765   9.408   9.124
  333W        W 4384  10.482   6.506   2.985
  334W        W 4385   7.774  10.868   2.221
  335W        W 4386  10.260   6.700  10.802
  336W        W 4387   7.462   1.379   0.177
  337W        W 4388   5.122   6.463   0.810
  338W        W 4389   0.767   4.343  11.675
  339W        W 4390   0.095   8.074  10.794
  340W        W 4391   7.990   2.280   2.868
  341W        W 4392   4.066  10.757  11.509
  342W        W 4393   3.184   7.562   9.975
  343W        W 4394   1.445   0.910   1.899
  344W        W 4395   9.689   6.542   9.988
  345W        W 4396   7.289   7.911   0.824
  346W        W 4397  10.981   5.427  10.559
  347W        W 4398   6.672   0.760   1.747
  348W        W 4399   3.212   7.045   1.812
  349W        W 4400   5.498   3.704   9.508
  350W        W 4401   1.840   9.453  11.792
  351W        W 4402   4.758   2.806   0.573
  352W        W 4403   9.877  11.460   3.216
  353W        W 4404   8.595   3.352   2.207
  354W        W 4405   1.507   7.568  10.030
  355W        W 4406   0.425   8.503  11.513
  356W        W 4407   1.110   6.919   8.217
  357W        W 4408   2.467   9.917   0.355
  358W        W 4409   6.300   3.688   8.984
  359W        W 4410   7.639   9.495   9.027
  360W        W 4411  10.644   5.000   0.023
  361W        W 4412   6.108   8.445  10.431
  362W        W 4413   1.103   1.423   9.779
  363W        W 4414   6.531   2.945  11.652
  364W        W 4415   2.329  10.820   1.322
  365W        W 4416   1.829   5.532   2.470
  366W        W 4417   9.418   8.893   3.008
  367W        W 4418   4.668  10.734   2.814
  368W        W 4419   5.254   5.471   1.829
  369W        W 4420   8.448   6.985   3.030
  370W        W 4421   7.628   6.610   9.498
  371W        W 4422   5.635   2.699   1.530
  372W        W 4423  11.185  10.538   2.924
  373W        W 4424   7.734   9.473   3.530
  374W        W 4425   5.556   6.643  10.545
  375W        W 4426   1.400   9.897   0.475
  376W        W 4427   9.839   4.808   0.701
  377W        W 4428   7.610   5.216  10.123
  378W        W 4429   2.218   3.683   2.354
  379W        W 4430   1.429   8.102   2.712
  380W        W 4431   3.719   3.736   1.265
  381W        W 4432   9.181   2.528   2.440
  382W        W 4433   5.141   3.267   1.379
  383W        W 4434   5.621   0.419  11.135
  384W        W 4435   5.403   6.021   9.833
  385W        W 4436   4.824   1.163   2.887
  386W        W 4437   9.422   4.624  11.961
  387W        W 4438   5.044  10.563  10.454
  388W        W 4439   8.594   9.898   2.572
  389W        W 4440  11.213   2.693   8.806
  390W        W 4441   2.671   5.900   1.843
  391W        W 4442   2.970   8.055   9.286
  392W        W 4443   2.717   1.972  11.766
  393W        W 4444   0.877   9.392   2.678
  394W        W 4445   5.393   4.441   3.914
  395W        W 4446   2.654   8.712   3.253
  396W        W 4447   1.702   7.921   3.542
  397W        W 4448   5.213   3.620   1.824
  398W        W 4449   7.012   7.685   1.181
  399W        W 4450   3.171   7.473   2.562
  400W        W 4451   3.781   0.469  10.649
  401W        W 4452  11.385   2.570  10.843
  402W        W 4453   5.418  10.924  10.599
  403W        W 4454   1.454   9.158   0.652
  404W        W 4455   8.692  10.535  11.822
  405W        W 4456   5.353   2.290   8.234
  406W        W 4457   3.124   6.569   1.506
  407W        W 4458   0.253   6.567  11.510
  408W        W 4459   3.314   4.771  11.045
  409W        W 4460  10.267   4.182   1.212
  410W        W 4461   3.563   5.545  11.278
  411W        W 4462   5.976  10.394  10.924
  412W        W 4463   7.597   5.097  11.923
  413W        W 4464   2.764   9.207   3.436
  414W        W 4465   6.439  10.108   3.495
  415W        W 4466   3.307   3.393   0.456
  416W        W 4467   8.246   9.119  11.300
  417W        W 4468   2.295   2.334   9.139
  418W        W 4469   8.934   5.391  11.564
  419W        W 4470   5.254   2.670  10.722
  420W        W 4471  10.014   6.608   2.782
  421W        W 4472   6.962   4.627  10.759
  422W        W 4473   4.253   6.909   0.665
  423W        W 4474  11.290   6.089  10.391
  424W        W 4475   1.269   6.497   0.160
  425W        W 4476   9.081   8.850   0.500
  426W        W 4477   6.483   4.130   9.149
  427W        W 4478   2.274   9.638  11.969
  428W        W 4479  10.901   7.536   1.598
  429W        W 4480  10.050  10.728  10.412
  430W        W 4481   3.942   0.162  11.094
  431W        W 4482   7.124   7.506   0.225
  432W        W 4483   7.800   0.845   2.608
  433W        W 4484   7.114   0.253  11.511
  434W        W 4485   8.605   2.267  11.881
  435W        W 4486   4.203   5.686   0.340
  436W        W 4487   4.198   3.675   1.393
  437W        W 4488   5.561   1.961   9.502
  438W        W 4489   8.431   7.157   1.656
  439W        W 4490   7.460   1.863   3.642
  440W        W 4491   9.929  10.867   1.170
  441W        W 4492   8.024   4.120   1.181
  442W        W 4493   5.714   9.579   9.579
  443W        W 4494   1.272   6.521   1.140
  444W        W 4495   9.468   7.963   2.801
  445W        W 4496   6.981  11.304   2.830
  446W        W 4497   5.468   4.149   2.215
  447W        W 4498   2.158   2.799   8.893
  448W        W 4499   1.009  10.919   9.807
  449W        W 4500   2.818   7.484   1.850
  450W        W 4501   4.280  11.153   3.500
  451W        W 4502   4.734   0.781  11.947
  452W        W 4503   7.647   3.658  10.448
  453W        W 4504  10.857   8.863   1.420
  454W        W 4505  10.614   0.664   1.403
  455W        W 4506   3.223   8.141   9.758
  456W        W 4507   3.147   1.611   2.459
  457W        W 4508   9.361   7.556  10.839
  458W        W 4509   2.708  11.164   2.230
  459W        W 4510   7.925   9.303  11.789
  460W        W 4511   9.531   2.614   0.438
  461W        W 4512   7.035   1.717   0.223
  462W        W 4513   4.133   8.711   8.883
  463W        W 4514   0.841   1.395  11.984
  464W        W 4515   7.150   8.888   3.266
  465W        W 4516   3.119   5.671   9.408
  466W        W 4517  10.037   7.091   0.519
  467W        W 4518   5.516   8.402   9.973
  468W        W 4519   0.659   0.981   0.266
  469W        W 4520   1.119   9.473   0.386
  470W        W 4521   7.189   4.331   0.873
  471W        W 4522   2.714  10.761   1.916
  472W        W 4523   4.295  10.791  11.994
  473W        W 4524   9.200  10.116  11.118
  474W        W 4525   3.210   6.465   8.910
  475W        W 4526   6.025   5.736  11.379
  476W        W 4527   5.926   6.041   9.836
  477W        W 4528   2.160   4.824   3.329
  478W        W 4529   9.551   1.084   9.584
  479W        W 4530  10.655   0.845  11.289
  480W        W 4531   4.704   0.626  11.063
  481W        W 4532   2.401   7.708   7.983
  482W        W 4533   2.457   4.825   8.344
  483W        W 4534   8.029   9.600   9.354
  484W        W 4535   3.579   2.606   8.822
  485W        W 4536   4.558   7.170  11.853
  486W        W 4537   3.846   9.220   8.577
  487W        W 4538   0.903   8.424   1.769
  488W        W 4539   9.446   6.472  10.422
  489W        W 4540   3.075   7.161   9.520
  490W        W 4541   5.065  10.716   9.960
  491W        W 4542   7.144   1.895  10.938
  492W        W 4543   5.111   2.283   3.286
  493W        W 4544   2.288   7.194   9.877
  494W        W 4545   2.743   1.637   3.611
  495W        W 4546   7.985   6.077   3.214
  496W        W 4547  11.282   3.402   2.688
  497W        W 4548   5.968   6.510   0.430
  498W        W 4549   4.024  11.343   2.107
  499W        W 4550   0.891   2.709   1.227
  500W        W 4551   5.499   2.702   3.315
  501W        W 4552   4.859   4.356   0.853
  502W        W 4553   9.743   3.372  10.641
  503W        W 4554   5.230   9.795   2.293
  504W        W 4555   6.167  10.869   9.974
  505W        W 4556   1.433   3.330   1.501
  506W        W 4557   7.202   0.855   9.305
  507W        W 4558   0.831   6.516   1.386
  508W        W 4559  10.115   8.555   0.355
  509W        W 4560   1.652   4.027   9.672
  510W        W 4561   4.507   5.296  11.243
  511W        W 4562  10.574  10.062   2.298
  512W        W 4563  11.431   4.713  11.909
  513W        W 4564   8.292   5.424   8.297
  514W        W 4565  10.851   9.380   1.546
  515W        W 4566   1.410   2.779   2.920
  516W        W 4567   7.427   6.618   8.506
  517W        W 4568   0.051   4.844   0.388
  518W        W 4569   2.818   8.576   0.380
  519W        W 4570   2.642   4.649   1.941
  520W        W 4571   4.623  10.225   0.962
  521W        W 4572   3.870   1.723   2.175
  522W        W 4573   7.572   2.427   2.627
  523W        W 4574   2.405   6.970  10.814
  524W        W 4575   6.216   9.475   9.664
  525W        W 4576   6.186   5.077  10.860
  526W        W 4577   3.173   8.657   9.919
  527W        W 4578   8.296   4.709   3.593
  528W        W 4579   8.901   8.496  11.311
  529W        W 4580   3.277   8.076   0.366
  530W        W 4581   7.430   2.701   1.762
  531W        W 4582   6.707   0.772   9.234
  532W        W 4583   9.730   7.528   1.366
  533W        W 4584   8.476   6.124   3.414
  534W        W 4585   0.891   5.599   9.568
  535W        W 4586   1.738  11.050  10.218
  536W        W 4587   4.935   0.080  10.308
  537W        W 4588   8.535   6.674   2.155
  538W        W 4589   1.300   7.493  10.884
  539W        W 4590   0.308   1.672   0.783
  540W        W 4591   5.644   2.800  11.033
  541W        W 4592   5.527   2.274   3.584
  542W        W 4593   6.682   8.732  11.241
  543W        W 4594   3.617   0.939   1.418
  544W        W 4595   7.370   1.339   0.889
  545W        W 4596   7.308   6.125   0.354
  546W        W 4597   1.124   8.458   8.567
  547W        W 4598  11.400   5.234   3.381
  548W        W 4599   9.261   6.014   8.202
  549W        W 4600   3.882  10.785  11.024
  550W        W 4601   0.856   7.826   1.919
  551W        W 4602  10.561   9.803   1.398
  552W        W 4603   5.684   7.230   1.606
  553W        W 4604   7.622  10.075   0.089
  554W        W 4605   2.606   7.594   0.270
  555W        W 4606   9.879   6.519   2.293
  556W        W 4607  10.972   6.521   9.642
  557W        W 4608  10.012   3.374   1.389
  558W        W 4609   1.536  11.367   0.007
  559W        W 4610   7.702   1.936   2.592
  560W        W 4611   9.438   7.042  10.751
  561W        W 4612   0.375   1.166   0.680
  562W        W 4613   5.634   8.011   2.848
  563W        W 4614   6.119  11.205   2.737
  564W        W 4615   1.211   6.562   0.653
  565W        W 4616  10.788  11.276   1.163
  566W        W 4617   4.605   7.109   9.866
  567W        W 4618  11.422   2.593   3.110
  568W        W 4619   5.592   4.156   8.617
  569W        W 4620   2.233   9.204   2.727
  570W        W 4621   2.495   8.110  11.865
  571W        W 4622   8.967  10.468  10.835
  572W        W 4623   1.020   1.871  11.999
  573W        W 4624   1.334   8.661   1.916
  574W        W 4625   6.464   7.128   3.151
  575W        W 4626   4.883   1.988   1.403
  576W        W 4627   9.894   9.770  10.441
  577W        W 4628   9.562   6.801   9.211
  578W        W 4629   1.127   5.678   0.509
  579W        W 4630   5.804  10.440   9.468
  580W        W 4631   8.041   0.546  11.356
  581W        W 4632   9.218   2.072   3.346
  582W        W 4633   6.493   5.637   2.227
  583W        W 4634   1.850   2.184   9.340
  584W        W 4635   9.439   3.188   3.536
  585W        W 4636   4.322   2.674  11.067
  586W        W 4637   5.697   8.718   9.620
  587W        W 4638  10.885   6.757  11.920
  588W        W 4639   8.101  10.950   0.748
  589W        W 4640   1.317   9.001  11.478
  590W        W 4641   2.169   1.805   2.639
  591W        W 4642   2.684   0.340   2.864
  592W        W 4643   3.245   3.727   0.057
  593W        W 4644   4.601   6.216   3.453
  594W        W 4645   9.451   4.343   9.841
  595W        W 4646   4.285   7.991  10.358
  596W        W 4647   0.780   9.003   1.342
  597W        W 4648   7.402   3.150   9.446
  598W        W 4649   5.059   9.487   9.378
  599W        W 4650   3.030   6.049  11.937
  600W        W 4651   0.446   8.551   1.960
  601W        W 4652   4.326   7.151   8.888
  602W        W 4653   9.902   1.988   1.740
  603W        W 4654   0.978   3.554   3.063
  604W        W 4655   2.736   9.394   9.949
  605W        W 4656   7.409   4.860  10.509
  606W        W 4657   4.783   6.532   1.230
  607W        W 4658   7.377   1.700  11.793
  608W        W 4659   9.579   3.163  11.545
  609W        W 4660   8.694   9.782   0.330
  610W        W 4661  10.394   9.472   9.986
  611W        W 4662   2.370   2.299  10.088
  612W        W 4663  10.750   9.551   8.796
  613W        W 4664   6.880   9.894   3.200
  614W        W 4665   3.510   5.082   3.298
  615W        W 4666   5.575   9.769   1.792
  616W        W 4667   5.566   2.418   9.261
  617W        W 4668   8.558  11.323   2.140
  618W        W 4669   6.272   7.055  10.462
  619W        W 4670   2.259   7.654  11.877
  620W        W 4671   1.393   2.849   1.954
  621W        W 4672   0.197   2.176   1.470
  622W        W 4673   4.104   6.341   8.613
  623W        W 4674   6.644   7.236  11.414
  624W        W 4675   0.237   5.361   1.489
  625W        W 4676   0.319   4.176   3.098
  626W        W 4677   3.836  10.219   0.218
  627W        W 4678   8.868   4.337   0.134
  628W        W 4679   1.364   1.132   2.822
  629W        W 4680   2.348   9.599  10.173
  630W        W 4681   7.861   9.290   0.688
  631W        W 4682  11.463   5.675  11.698
  632W        W 4683   5.720   8.366   1.197
  633W        W 4684   7.234  10.229   1.442
  634W        W 4685   2.824   9.555  11.534
  635W        W 4686   5.983   6.861   1.817
  636W        W 4687  10.928   7.471  11.437
  637W        W 4688   1.407   6.667   2.180
  638W        W 4689   3.600  10.443  10.479
  639W        W 4690   3.674   9.465   3.322
  640W        W 4691   0.769   6.782   9.047
  641W        W 4692   8.998   6.838   9.541
  642W        W 4693   8.675   6.694   1.633
  643W        W 4694  11.408   5.774   1.089
  644W        W 4695   3.610   1.817   2.621
  645W        W 4696  10.573   0.846   0.913
  646W        W 4697   1.810  10.199  11.296
  647W        W 4698   4.147   5.706  11.841
  648W        W 4699  11.303   7.450  11.780
  649W        W 4700   8.572   0.554  10.210
  650W        W 4701   6.216   9.731   0.387
  651W        W 4702   1.772   7.307   0.252
  652W        W 4703   4.141   0.463   1.429
  653W        W 4704   5.246   1.649  11.736
  654W        W 4705   8.126   7.119   9.974
  655W        W 4706   8.447   1.174  10.790
  656W        W 4707   5.120   4.455  11.222
  657W        W 4708   7.085   7.172   1.075
  658W        W 4709   0.669   1.982   2.207
  659W        W 4710   7.969   0.367   0.249
  660W        W 4711   5.044  10.103   3.169
  661W        W 4712   0.720   8.895  11.078
  662W        W 4713   5.073   1.764   3.093
  663W        W 4714   2.696   5.288   3.732
  664W        W 4715   5.758   3.159   2.120
  665W        W 4716   3.608   4.866   0.624
  666W        W 4717   8.930   3.747   0.719
  667W        W 4718   7.616   9.114   3.081
  668W        W 4719   7.414   8.126   2.078
  669W        W 4720   1.355  11.470  11.038
  670W        W 4721   0.985   3.016   9.601
  671W        W 4722   9.007   0.223  11.515
  672W        W 4723   5.843   5.763  11.864
  673W        W 4724   4.942  10.235  10.031
  674W        W 4725   3.591   7.006   9.606
  675W        W 4726   6.544  11.122  10.977
  676W        W 4727   9.620   5.489   9.424
  677W        W 4728   2.095   4.186  10.583
  678W        W 4729   7.415   4.255   1.932
  679W        W 4730   0.900   7.579   9.393
  680W        W 4731   2.436  10.371  10.100
  681W        W 4732   7.118  10.451   8.712
  682W        W 4733   7.164  11.140   0.393
  683W        W 4734   0.845   3.327  10.047
  684W        W 4735   4.681   6.159   0.812
  685W        W 4736   3.654   2.371  11.802
  686W        W 4737   2.221   6.232   2.979
  687W        W 4738   8.301   5.255   2.777
  688W        W 4739   8.816   3.811   9.075
  689W        W 4740  10.850   4.936   3.640
  690W        W 4741   5.862  10.517   0.157
  691W        W 4742   2.303  11.337   9.063
  692W        W 4743   5.679   1.723   1.003
  693W        W 4744   8.150   8.253   2.297
  694W        W 4745   2.297   1.735  11.930
  695W        W 4746   1.313   5.170   2.597
  696W        W 4747   5.485   2.629   0.937
  697W        W 4748   3.130   9.397   9.211
  698W        W 4749   2.997   4.136   0.231
  699W        W 4750   4.728   7.231   0.533
  700W        W 4751  10.089   0.842   3.659
  701W        W 4752  10.488   5.060   2.329
  702W        W 4753   8.119   4.629   9.450
  703W        W 4754   1.647   2.228   2.324
  704W        W 4755   9.280   3.260  10.809
  705W        W 4756   7.173   0.998  11.279
  706W        W 4757   9.656   8.914   0.797
  707W        W 4758   4.335   9.939  10.647
  708W        W 4759  10.613   3.232   0.702
  709W        W 4760   4.932   1.253   1.192
  710W        W 4761   1.295   9.713   9.808
  711W        W 4762   6.588   9.863   9.636
  712W        W 4763   2.171   8.628   1.624
  713W        W 4764   1.807   8.556   9.970
  714W        W 4765   9.382   9.583   2.310
  715W        W 4766   2.755   2.187   0.259
  716W        W 4767   3.119   3.165   1.786
  717W        W 4768  10.138   9.654   3.102
  718W        W 4769   0.210   0.576   0.100
  719W        W 4770   4.166   9.503  10.960
  720W        W 4771   5.120   9.391  11.019
  721W        W 4772   9.223   6.573  10.870
  722W        W 4773   8.093  10.031   9.084
  723W        W 4774   7.948   0.282  10.920
  724W        W 4775   8.018   1.481   1.867
  725W        W 4776   1.135   7.981  11.583
  726W        W 4777   7.135   3.673   1.226
  727W        W 4778   0.580   7.660   1.438
  728W        W 4779  10.280   0.460   1.063
  729W        W 4780   6.277   1.863   2.210
  730W        W 4781   2.615   5.546   3.295
  731W        W 4782   3.679   8.380  11.279
  732W        W 4783   0.718  10.356   1.409
  733W        W 4784   3.673   7.915  11.509
  734W        W 4785   5.222   3.060  11.580
  735W        W 4786   6.531   2.757   3.353
  736W        W 4787   0.774   0.846   3.216
  737W        W 4788   7.017   8.454   1.956
  738W        W 4789   5.667   7.809   9.834
  739W        W 4790   5.869  10.588   2.059
  740W        W 4791   0.490  11.052   0.670
  741W        W 4792   8.305   6.401  10.999
  742W        W 4793  11.408   7.627   9.611
  743W        W 4794   1.538   7.955  10.927
  744W        W 4795   2.211   1.206   1.031
  745W        W 4796   5.665   5.520   2.726
  746W        W 4797   9.874   8.394   0.760
  747W        W 4798   3.200  10.757   0.907
  748W        W 4799  10.822   8.649   8.774
  749W        W 4800   6.676   3.343   8.849
  750W        W 4801   2.746   4.242  11.205
  751W        W 4802  10.385   5.677   1.945
  752W        W 4803  11.393   4.577   1.687
  753W        W 4804   5.000   2.025   9.555
  754W        W 4805   8.568   7.161  11.193
  755W        W 4806  10.863   4.642   1.698
  756W        W 4807   4.800   2.714  10.925
  757W        W 4808   0.923   8.996   9.234
  758W        W 4809   7.126   4.278   9.996
  759W        W 4810   9.055  11.418   9.467
  760W        W 4811  11.459   5.696  10.739
  761W        W 4812   5.702   1.213   1.931
  762W        W 4813   0.682   0.323  10.970
  763W        W 4814  10.892   7.036   1.755
  764W        W 4815  10.148   4.493   9.843
  765W        W 4816   6.680   9.096  11.726
  766W        W 4817   2.065   6.860   3.634
  767W        W 4818   7.583   0.741   2.050
  768W        W 4819  10.004   5.693  10.638
  769W        W 4820   2.625   1.794   1.734
  770W        W 4821   4.188   1.764   3.115
  771W        W 4822   6.762   5.113   0.417
  772W        W 4823   1.949   0.689   0.195
  773W        W 4824   8.538   8.953   2.736
  774W        W 4825   5.063   6.696  10.336
  775W        W 4826   7.031   1.041   3.557
  776W        W 4827   9.664   4.832   3.703
  777W        W 4828   6.274   5.689   1.264
  778W        W 4829   0.851   5.066   1.715
  779W        W 4830   7.826   4.662  10.747
  780W        W 4831  11.458   8.531   9.431
  781W        W 4832   5.957  10.111  10.443
  782W        W 4833   4.829   5.642   2.104
  783W        W 4834  10.983   0.964   1.189
  784W        W 4835   6.707   2.607   9.386
  785W        W 4836   6.065   2.327   2.215
  786W        W 4837  10.137   0.298  10.766
  787W        W 4838  10.497   5.620  10.470
  788W        W 4839   9.409   7.841   3.406
  789W        W 4840   2.764   8.659   2.742
  790W        W 4841   1.202   9.636   1.777
  791W        W 4842   5.771  10.042   0.376
  792W        W 4843   6.592   3.156  11.180
  793W        W 4844   7.524   7.663   1.265
  794W        W 4845   5.506   1.774   3.408
  795W        W 4846   6.420  10.630  11.175
  796W        W 4847   7.393   7.632   2.213
  797W        W 4848   7.551   6.753  11.409
  798W        W 4849  10.527   6.538  10.357
  799W        W 4850   8.535   9.899   8.816
  800W        W 4851   9.158   8.906  11.155
  801W        W 4852  11.438   5.608   1.824
  802W        W 4853   0.903  10.077   0.403
  803W        W 4854   2.740   6.604  10.962
  804W        W 4855  10.339   5.127   3.132
  805W        W 4856   9.981   1.701  10.280
  806W        W 4857   6.410   3.806   9.564
  807W        W 4858   1.363   5.498   3.225
  808W        W 4859   0.044  11.329  10.674
  809W        W 4860   9.337   0.291   0.436
  810W        W 4861   5.019   0.479   0.869
  811W        W 4862   3.656   2.331   1.203
  812W        W 4863   9.901   0.214   0.324
  813W        W 4864   4.594   2.189   0.995
  814W        W 4865   2.536   8.375   0.757
  815W        W 4866   0.556   9.187   0.777
  816W        W 4867   5.918   7.867  11.970
  817W        W 4868   6.532   5.169   1.931
  818W        W 4869   4.746   8.355   1.552
  819W        W 4870   3.264   1.391   2.023
  820W        W 4871  10.424   0.605   9.413
  821W        W 4872   3.825   0.307   9.656
  822W        W 4873   6.248   7.171   9.475
  823W        W 4874   2.240   5.268   9.486
  824W        W 4875   5.449   0.790   9.893
  825W        W 4876   0.879   8.341   3.505
  826W        W 4877   5.666   9.959  11.879
  827W        W 4878   2.277   3.285   2.725
  828W        W 4879  11.375   7.091  10.514
  829W        W 4880   2.690   4.499   0.942
  830W        W 4881   1.421   9.892   9.345
  831W        W 4882   6.991   4.803   0.746
  832W        W 4883   1.831   8.146   1.384
  833W        W 4884   7.893   4.186   8.663
  834W        W 4885  10.897   2.184   2.229
  835W        W 4886  11.220  10.005   0.795
  836W        W 4887   1.241   0.649   3.006
  837W        W 4888   7.755  10.596   0.762
  838W        W 4889   0.710   8.912   2.730
  839W        W 4890  10.063   5.695   1.019
  840W        W 4891   8.045  10.734   1.213
  841W        W 4892   6.258   9.118   3.141
  842W        W 4893   1.539   6.241   9.855
  843W        W 4894   6.454   0.317  11.623
  844W        W 4895   0.860   8.348   9.897
  845W        W 4896   6.557   9.416   1.093
  846W        W 4897  10.853   2.110   1.725
  847W        W 4898   4.244  10.834   2.489
  848W        W 4899   2.644   3.681   2.033
  849W        W 4900   7.859   0.339   2.677
  850W        W 4901   6.585   8.161  11.351
  851W        W 4902   0.665   2.129   1.705
  852W        W 4903   0.771   0.801   0.747
  853W        W 4904   1.379   3.158  11.553
  854W        W 4905  11.395   4.063   3.527
  855W        W 4906   2.370   2.460   0.465
  856W        W 4907   8.329   7.540   2.326
  857W        W 4908   1.223   9.366   9.442
  858W        W 4909   4.223  11.276  11.349
  859W        W 4910   1.763   5.088   1.682
  860W        W 4911   3.841   9.271   0.453
  861W        W 4912   3.483  11.387  11.973
  862W        W 4913   7.480   4.966   0.938
  863W        W 4914   2.564   4.657  11.778
  864W        W 4915   7.749   1.454   0.575
  865W        W 4916   7.912   1.937   0.703
  866W        W 4917   0.853   2.683   8.489
  867W        W 4918   3.182   7.436   1.057
  868W        W 4919   2.675   4.101   1.246
  869W        W 4920   6.953   0.328   2.748
  870W        W 4921   2.397   8.185   8.169
  871W        W 4922   4.895   2.946   4.041
  872W        W 4923   4.278   3.378  11.515
  873W        W 4924   2.234   3.841   1.356
  874W        W 4925  11.141   7.691   0.766
  875W        W 4926   1.038   8.913   0.414
  876W        W 4927   8.446   1.709   3.216
  877W        W 4928   1.338  10.041  11.723
  878W        W 4929   9.917   9.001   9.383
  879W        W 4930   0.346   2.740   0.058
  880W        W 4931   9.798   7.515   8.545
  881W        W 4932   3.901   2.180   2.883
  882W        W 4933   6.944   5.847  10.343
  883W        W 4934   4.146   2.206   3.359
  884W        W 4935   4.306   0.864   2.233
  885W        W 4936   7.812  10.127   0.557
  886W        W 4937   0.495   6.249   1.665
  887W        W 4938   0.303   1.878  10.292
  888W        W 4939  11.420   4.682  10.542
  889W        W 4940   3.615   0.460   2.776
  890W        W 4941   5.693   1.304   0.704
  891W        W 4942   1.182  10.376   9.506
  892W        W 4943  10.948  10.395   9.313
  893W        W 4944   6.275  10.205   0.232
  894W        W 4945   4.474  11.161   9.260
  895W        W 4946   4.263   4.712   2.822
  896W        W 4947   6.656   9.493  10.546
  897W        W 4948  11.338   7.576   9.055
  898W        W 4949  10.390   9.639  10.491
  899W        W 4950   3.939   6.186  10.692
  900W        W 4951   4.057   4.028   9.269
  901W        W 4952   1.589   9.506   8.548
  902W        W 4953   1.341   8.705   1.032
  903W        W 4954   0.867   6.339   2.936
  904W        W 4955   3.541  11.382   9.539
  905W        W 4956   4.784   8.362   2.859
  906W        W 4957   8.280  10.240   2.804
  907W        W 4958   5.655  10.574   2.931
  908W        W 4959   7.599   8.471  10.381
  909W        W 4960   0.197   1.453  11.848
  910W        W 4961   6.058   3.263   0.162
  911W        W 4962   0.612   7.086   9.459
  912W        W 4963   3.377   8.884   1.973
  913W        W 4964  11.282   8.055   3.041
  914W        W 4965   1.724   7.349   2.921
  915W        W 4966   3.077   5.296   8.236
  916W        W 4967   8.145   2.786  11.287
  917W        W 4968   9.245   0.438   2.685
  918W        W 4969   8.670   0.995   2.628
  919W        W 4970   9.433   2.120   0.480
  920W        W 4971  11.014  10.520   0.751
  921W        W 4972   2.239   9.103  10.052
  922W        W 4973   6.562   1.926   1.424
  923W        W 4974   5.774   1.918   2.022
  924W        W 4975   4.306   0.717  11.388
  925W        W 4976   6.214   3.749   0.323
  926W        W 4977   4.758   6.274  10.317
  927W        W 4978   0.321   2.288  10.909
  928W        W 4979   7.967   7.906   1.468
  929W        W 4980   6.582  10.429  10.736
  930W        W 4981   2.124   4.284   0.476
  931W        W 4982   3.150   5.608  10.491
  932W        W 4983   4.451   8.856   9.287
  933W        W 4984  10.364   2.397  10.909
  934W        W 4985   9.660   4.132   1.841
  935W        W 4986   1.544   6.361   3.502
  936W        W 4987   5.054   1.895   3.631
  937W        W 4988   3.295  10.269   2.644
  938W        W 4989   8.592   3.370   3.112
  939W        W 4990   6.228   1.417   2.737
  940W        W 4991  10.937   3.686   1.437
  941W        W 4992   8.568   6.193   9.164
  942W        W 4993  11.192   8.088   3.534
  943W        W 4994   8.007  11.460   8.911
  944W        W 4995   6.101  10.386   2.706
  945W        W 4996   3.610   6.379   2.708
  946W        W 4997   3.677   3.726   3.020
  947W        W 4998   9.433  10.510  10.284
  948W        W 4999   0.446   7.007   2.526
  949W        W 5000   2.150  10.040   2.793
  950W        W 5001   9.799   3.297  11.988
  951W        W 5002   7.659   2.251  10.913
  952W        W 5003   9.076  10.956   0.519
  953W        W 5004   9.304   5.121   1.454
  954W        W 5005   6.750   9.047   9.291
  955W        W 5006   8.398   9.056  11.806
  956W        W 5007   5.808   3.734   1.567
  957W        W 5008   1.319   3.851   2.793
  958W        W 5009   5.258   8.036   9.653
  959W        W 5010   0.984   1.721   1.427
  960W        W 5011   0.302   9.492   1.487
  961W        W 5012  10.349   3.188   2.188
  962W        W 5013   2.830  10.837   9.011
  963W        W 5014   5.745   7.164  11.307
  964W        W 5015   1.352   0.410   3.459
  965W        W 5016   8.605   5.909  10.962
  966W        W 5017   5.146   4.619  11.757
  967W        W 5018   1.010   0.663   1.763
  968W        W 5019   5.588   7.531  10.988
  969W        W 5020   2.101   5.982  10.943
  970W        W 5021   9.501   5.235   3.429
  971W        W 5022   3.805   8.018   8.951
  972W        W 5023   4.154   7.608   9.079
  973W        W 5024   7.200   2.305   2.966
  974W        W 5025   8.743   4.950  10.770
  975W        W 5026   0.851   0.180   1.820
  976W        W 5027   4.411   1.294   1.394
  977W        W 5028   6.947   2.747   8.926
  978W        W 5029   7.654   3.810   3.317
  979W        W 5030  11.480   4.260   0.167
  980W        W 5031   2.640   8.479   1.735
  981W        W 5032  10.848  10.318   0.301
  982W        W 5033   3.181   2.838   9.139
  983W        W 5034   1.359   2.728  10.967
  984W        W 5035   3.347   9.763   8.882
  985W        W 5036   5.071   5.867  11.372
  986W        W 5037   5.459   9.397   8.073
  987W        W 5038  10.861   8.134   2.701
  988W        W 5039   6.406   9.142   1.825
  989W        W 5040   5.869   9.939   8.727
  990W        W 5041   7.080   8.396   9.061
  991W        W 5042   6.033   5.533   9.651
  992W        W 5043   8.896   5.524  10.577
  993W        W 5044   7.411   3.648   0.751
  994W        W 5045   6.305   2.741   2.883
  995W        W 5046   8.053   5.538   0.704
  996W        W 5047   1.426   6.249   8.979
  997W        W 5048   6.708   0.082  10.839
  998W        W 5049   8.048   6.449   0.293
  999W        W 5050  10.612   4.464   9.598
 1000W        W 5051   9.507   3.510   2.660
 1001W        W 5052   4.185   2.804  10.049
 1002W        W 5053   0.367   4.566   9.808
 1003W        W 5054   9.967   9.004  11.477
 1004W        W 5055   2.649   6.567   2.890
 1005W        W 5056   3.298  10.328   3.163
 1006W        W 5057   9.916   1.735   3.383
 1007W        W 5058   9.383   5.536  11.734
 1008W        W 5059   7.914   9.940   3.272
 1009W        W 5060   1.236   4.547   9.859
 1010W        W 5061   8.966   9.343  11.406
 1011W        W 5062   3.605   0.414   0.027
 1012W        W 5063   2.898   2.990   8.427
 1013W        W 5064   0.261   9.094   0.022
 1014W        W 5065   8.124   8.865   0.626
 1015W        W 5066   9.738   6.691   0.481
 1016W        W 5067   9.361   9.352   9.917
 1017W        W 5068   5.259   1.915   0.742
 1018W        W 5069   3.156   2.385   2.140
 1019W        W 5070   9.297   5.943   1.937
 1020W        W 5071   0.936   1.528  11.097
 1021W        W 5072   2.904   1.621  10.490
 1022W        W 5073   3.637   0.231   9.184
 1023W        W 5074   0.407   6.453   3.237
 1024W        W 5075   1.846   3.625   9.400
 1025W        W 5076   9.834   9.942   3.407
 1026W        W 5077   5.990   0.463   9.287
 1027W        W 5078  11.392   6.955   1.705
 1028W        W 5079   7.671   2.612  11.978
 1029W        W 5080   8.434   0.256   0.453
 1030W        W 5081   5.768  10.872   9.166
 1031W        W 5082   8.437   8.097   9.134
 1032W        W 5083   0.277   5.089   2.994
 1033W        W 5084   4.787   8.945   0.920
 1034W        W 5085   0.531   3.972  11.899
 1035W        W 5086   0.395   6.252   9.777
 1036W        W 5087   8.721   1.445  11.751
 1037W        W 5088  11.250  11.183  10.287
 1038W        W 5089   2.598   8.123   2.113
 1039W        W 5090   3.669   8.431   9.689
 1040W        W 5091   8.005   6.871   2.583
 1041W        W 5092   9.533   2.401  11.125
 1042W        W 5093   6.956   0.727   1.280
 1043W        W 5094   6.280   6.414   8.601
 1044W        W 5095   2.153   8.354  10.692
 1045W        W 5096   0.905   1.345   9.091
 1046W        W 5097   2.088   6.872   9.505
 1047W        W 5098   9.786  10.254   9.031
 1048W        W 5099  11.048   7.642  10.489
 1049W        W 5100   1.193   1.957   0.683
 1050W        W 5101   8.548   9.743   1.106
 1051W        W 5102   6.067   8.149   3.055
 1052W        W 5103  11.049   9.828   0.351
 1053W        W 5104   4.875   9.729   2.692
 1054W        W 5105   6.217   1.425   1.212
 1055W        W 5106   1.776  11.225  11.111
 1056W        W 5107   9.427   6.624   0.093
 1057W        W 5108   8.254   0.271   3.006
 1058W        W 5109   2.445   0.702   0.300
 1059W        W 5110   2.583   6.125  11.024
 1060W        W 5111   3.743   0.077   0.386
 1061W        W 5112   7.946   8.968   1.577
 1062W        W 5113   6.678   9.035   0.269
 1063W        W 5114   0.914   3.355  11.499
 1064W        W 5115   0.874   6.781  10.898
 1065W        W 5116   8.172   6.709   1.775
 1066W        W 5117   2.419   4.839   1.193
 1067W        W 5118   9.405   2.423  10.642
 1068W        W 5119   5.155   2.662   1.338
 1069W        W 5120   0.909   3.688  10.938
 1070W        W 5121   7.564   7.212   0.254
 1071W        W 5122  10.121   7.915   0.681
 1072W        W 5123   6.719   9.355   9.727
 1073W        W 5124   9.808  10.198   1.770
 1074W        W 5125   2.212   4.690   0.160
 1075W        W 5126   2.173   7.937   2.346
 1076W        W 5127  11.178   6.527  11.236
 1077W        W 5128  10.842  10.011   9.994
 1078W        W 5129   1.601   2.371   1.465
 1079W        W 5130   6.554   1.707   0.970
 1080W        W 5131   1.919   1.357   9.412
 1081W        W 5132  11.380   7.228   0.786
 1082W        W 5133   9.866  10.851   9.908
 1083W        W 5134   1.202   9.580   0.880
 1084W        W 5135   0.752   2.344  11.319
 1085W        W 5136   9.563  10.400   0.022
 1086W        W 5137   9.341   7.566   1.010
 1087W        W 5138  10.847   7.192   3.086
 1088W        W 5139   6.651   1.447   1.503
 1089W        W 5140   5.483   6.792   1.777
 1090W        W 5141   9.450   1.894  11.094
 1091W        W 5142   9.259   1.472  11.815
 1092W        W 5143   4.693   7.628   2.946
 1093W        W 5144   6.601   3.707  10.944
 1094W        W 5145   5.125   8.121   3.239
 1095W        W 5146   9.538   8.856  10.787
 1096W        W 5147   9.458   1.620   1.593
 1097W        W 5148   2.907   9.493   2.165
 1098W        W 5149  11.296   5.164   2.879
 1099W        W 5150   7.630   9.345  10.512
 1100W        W 5151   2.897   0.936  11.429
 1101W        W 5152   2.183   4.377   9.841
 1102W        W 5153   3.749   7.951  11.001
 1103W        W 5154   5.139   6.683  10.860
 1104W        W 5155   9.753   7.023   0.984
 1105W        W 5156   0.193   2.878   8.987
 1106W        W 5157   3.725  10.432   2.871
 1107W        W 5158   3.213  11.342  10.640
 1108W        W 5159  10.956  10.827   2.571
 1109W        W 5160  10.850   6.338   2.705
 1110W        W 5161  11.090  11.125  11.472
 1111W        W 5162   0.398   6.008  10.762
 1112W        W 5163   8.206   2.873   1.305
 1113W        W 5164   7.476   2.382   9.082
 1114W        W 5165   7.048   6.849   2.020
 1115W        W 5166   0.254   8.986   3.109
 1116W        W 5167   9.839   1.776   1.271
 1117W        W 5168   2.916   5.469   0.746
 1118W        W 5169   8.002   8.372  11.368
 1119W        W 5170   7.886   0.660   3.080
 1120W        W 5171   8.998   8.707   2.768
 1121W        W 5172   2.093   0.934   0.617
 1122W        W 5173   8.009   3.839  10.112
 1123W        W 5174   9.366   7.419   9.886
 1124W        W 5175   0.857   0.492   8.862
 1125W        W 5176   4.763   4.340   2.916
 1126W        W 5177   7.030   5.011  11.332
 1127W        W 5178  10.978   4.077   0.605
 1128W        W 5179   4.361   1.367   2.817
 1129W        W 5180   2.490   4.219  10.213
 1130W        W 5181   6.401   2.745   1.649
 1131W        W 5182   3.230   0.454   9.445
 1132W        W 5183   7.014   2.983   9.763
 1133W        W 5184   5.236   4.016   8.278
 1134W        W 5185   0.081   2.832  11.223
 1135W        W 5186   6.804  10.790   0.557
 1136W        W 5187   2.683  10.812   9.985
 1137W        W 5188   4.577   2.212  11.933
 1138W        W 5189   7.086   6.532  11.423
 1139W        W 5190  10.273   4.100  10.439
 1140W        W 5191   7.884   5.026   1.460
 1141W        W 5192   6.360   3.241   3.241
 1142W        W 5193   4.319   4.222   2.622
 1143W        W 5194  11.376   7.533   3.147
 1144W        W 5195   1.271   6.672   9.736
 1145W        W 5196   9.458   3.995   2.841
 1146W        W 5197   4.674   4.224   8.598
 1147W        W 5198  10.072   8.669   1.834
 1148W        W 5199   0.860   7.682  10.662
 1149W        W 5200   8.949   5.651   0.949
 1150W        W 5201   0.918   0.235  10.208
 1151W        W 5202   1.335  10.251   2.795
 1152W        W 5203  10.145   3.103  10.460
 1153W        W 5204  10.936   1.114   0.652
 1154W        W 5205   4.609   2.175   2.374
 1155W        W 5206   7.373   1.476   9.002
 1156W        W 5207   3.814   0.346  10.166
 1157W        W 5208   2.504   1.749   8.848
 1158W        W 5209   6.707  10.859   8.708
 1159W        W 5210   3.860   4.634  11.363
 1160W        W 5211   6.194   2.902  10.384
 1161W        W 5212   3.025   5.548   8.813
 1162W        W 5213   0.288   3.162  10.834
 1163W        W 5214   2.424   4.636  11.294
 1164W        W 5215   0.107   1.780   8.872
 1165W        W 5216   4.219   4.985   9.537
 1166W        W 5217   9.991   1.820   2.731
 1167W        W 5218   9.009   3.970   2.582
 1168W        W 5219  11.281   3.112  10.868
 1169W        W 5220   8.388   1.779   0.844
 1170W        W 5221   1.273   8.464  11.522
 1171W        W 5222   6.955   6.219   9.166
 1172W        W 5223  11.387   3.133   1.341
 1173W        W 5224  10.713   1.785   3.878
 1174W        W 5225   1.182  10.321  10.417
 1175W        W 5226   9.101   9.015   2.003
 1176W        W 5227   8.939   1.884  11.894
 1177W        W 5228   4.232   9.957   2.792
 1178W        W 5229   8.925   6.935   1.180
 1179W        W 5230   6.888   3.130   9.292
 1180W        W 5231   6.222   8.535  11.276
 1181W        W 5232   9.464   3.577   3.155
 1182W        W 5233   8.544   2.100   1.284
 1183W        W 5234   8.542   8.044   2.784
 1184W        W 5235   9.856   9.297  10.654
 1185W        W 5236   7.431   2.805   2.297
 1186W        W 5237   8.931   7.143  10.833
 1187W        W 5238  10.788   9.814   1.872
 1188W        W 5239   4.699   9.524   8.447
 1189W        W 5240   8.156   1.806   2.260
 1190W        W 5241   8.020   6.445  11.454
 1191W        W 5242   7.578   5.321  10.634
 1192W        W 5243   7.112   9.069   0.015
 1193W        W 5244   7.107  10.978   9.029
 1194W        W 5245   8.820   4.574   8.646
 1195W        W 5246   4.151   2.608   3.012
 1196W        W 5247   5.651   3.859   0.737
 1197W        W 5248   1.250   6.530  11.216
 1198W        W 5249   8.514   8.982   3.243
 1199W        W 5250   4.027   0.516   9.028
 1200W        W 5251   8.817  10.902   0.949
 1201W        W 5252   6.525   8.453   9.731
 1202W        W 5253   2.384   8.703  10.392
 1203W        W 5254   0.499   1.039  11.763
 1204W        W 5255   0.370   4.382   1.702
 1205W        W 5256   0.459   0.462   2.002
 1206W        W 5257  11.326  10.798   0.440
 1207W        W 5258  10.527   4.813   9.979
 1208W        W 5259   1.798   1.705  10.079
 1209W        W 5260   6.438   4.689   0.351
 1210W        W 5261   1.314   5.032   3.458
 1211W        W 5262  10.373   6.233  11.256
 1212W        W 5263   6.130   9.631  10.554
 1213W        W 5264  10.814   7.973   1.863
 1214W        W 5265   3.280   8.356   8.951
 1215W        W 5266   2.265   6.198   9.298
 1216W        W 5267   9.999   5.158   8.615
 1217W        W 5268  10.384   2.155   9.581
 1218W        W 5269   1.849   0.257   2.733
 1219W        W 5270   3.366   1.297   8.844
 1220W        W 5271   7.161   7.232  10.089
 1221W        W 5272   8.601  10.792   0.338
 1222W        W 5273   6.448   8.049   9.073
 1223W        W 5274   6.730   5.449   0.047
 1224W        W 5275   7.468   1.540   2.382
 1225W        W 5276   6.535   9.521   3.290
 1226W        W 5277   3.519   8.629  11.738
 1227W        W 5278   5.858   2.986   0.802
 1228W        W 5279  10.869   5.537  10.072
 1229W        W 5280   2.428   1.794  11.385
 1230W        W 5281   7.199  10.653   0.214
 1231W        W 5282   0.045  10.939   0.909
 1232W        W 5283   3.299   7.475   2.065
 1233W        W 5284   8.925   7.562  11.109
 1234W        W 5285   6.261   9.985  10.919
 1235W        W 5286   3.720  10.883  10.060
 1236W        W 5287  10.003   9.182   1.796
 1237W        W 5288   3.775   7.040   0.506
 1238W        W 5289   9.436   7.126   1.857
 1239W        W 5290   3.642   9.397   9.147
 1240W        W 5291   3.811   9.839   1.204
 1241W        W 5292   1.317   5.320   9.451
 1242W        W 5293  11.321   8.532   8.933
 1243W        W 5294   8.268   6.386   8.789
 1244W        W 5295   6.993   0.041   3.286
 1245W        W 5296   2.390   1.328   9.173
 1246W        W 5297   6.378   9.140  11.313
 1247W        W 5298   3.145   1.870   9.553
 1248W        W 5299   6.531   2.499  11.901
 1249W        W 5300   3.735   9.834   2.062
 1250W        W 5301   6.144  11.039  11.294
 1251W        W 5302   7.157   7.073   0.527
 1252W        W 5303   2.312   9.999   1.716
 1253W        W 5304   8.532   9.425  11.017
 1254W        W 5305   5.558   5.649   9.515
 1255W        W 5306   7.645   7.994  10.166
 1256W        W 5307   1.120   0.392  11.238
 1257W        W 5308   1.306   8.119   1.896
 1258W        W 5309   7.564  10.902  11.458
 1259W        W 5310   1.682   4.540   9.565
 1260W        W 5311   8.821   1.609   2.791
 1261W        W 5312   5.126   8.578   0.497
 1262W        W 5313   5.704  10.083   1.302
 1263W        W 5314   9.867  10.258  10.336
 1264W        W 5315   9.030   3.811   8.594
 1265W        W 5316   5.728   8.666   0.397
 1266W        W 5317   2.045  11.316  11.935
 1267W        W 5318   7.459   4.002  11.904
 1268W        W 5319   4.604   6.742   2.921
 1269W        W 5320   5.347   5.055   2.595
 1270W        W 5321   9.472   3.029   2.442
 1271W        W 5322   9.142   1.239  10.008
 1272W        W 5323   0.623   0.530  10.513
 1273W        W 5324   4.462  10.395   8.546
 1274W        W 5325   1.249   3.555   9.841
 1275W        W 5326   0.745   0.075  11.419
 1276W        W 5327   0.635   7.148   1.264
 1277W        W 5328  10.321  10.821  10.999
 1278W        W 5329   1.823   5.053   2.647
 1279W        W 5330   1.477   9.764   1.297
 1280W        W 5331   3.656   2.320   0.692
 1281W        W 5332   6.665   6.894   2.314
 1282W        W 5333   8.415   7.071   0.282
 1283W        W 5334   5.293   3.294   2.261
 1284W        W 5335   0.231   2.271   9.106
 1285W        W 5336   1.766   6.873   2.739
 1286W        W 5337   5.298   0.149   0.370
 1287W        W 5338   0.078  10.320   2.356
 1288W        W 5339   6.752   9.994  10.993
 1289W        W 5340   6.085   8.474  11.763
 1290W        W 5341   8.075   7.253  11.110
 1291W        W 5342   9.817   9.416   0.730
 1292W        W 5343   2.424  11.328   0.291
 1293W        W 5344   2.416   9.407   0.401
 1294W        W 5345   8.462   5.654   3.568
 1295W        W 5346   4.266   3.553   0.907
 1296W        W 5347   6.946   2.383  11.049
 1297W        W 5348   8.448   3.266   9.491
 1298W        W 5349   9.126  10.086   0.389
 1299W        W 5350  10.327   8.597  11.582
 1300W        W 5351  11.453   8.658   9.918
 1301W        W 5352   6.542   0.640   0.009
 1302W        W 5353   6.259  11.071   3.527
 1303W        W 5354   0.200   7.214   9.785
 1304W        W 5355   2.958   7.598   3.022
 1305W        W 5356   0.410   9.034   1.731
 1306W        W 5357  10.526   8.522   0.061
 1307W        W 5358   7.183   5.667   1.031
 1308W        W 5359   3.358   5.289   9.133
 1309W        W 5360   9.930   8.154   2.672
 1310W        W 5361   2.914   5.461   1.763
 1311W        W 5362   2.384   3.325   1.220
 1312W        W 5363   4.008   1.736   8.425
 1313W        W 5364   8.727   6.665  10.850
 1314W        W 5365  10.411   1.492  10.451
 1315W        W 5366   7.223   6.571   3.139
 1316W        W 5367  11.483   6.133  11.983
 1317W        W 5368   0.170   1.081   0.197
 1318W        W 5369  11.452   3.391  10.439
 1319W        W 5370   8.886   3.295   8.574
 1320W        W 5371   0.065   6.107   1.913
 1321W        W 5372   5.970   4.041   9.416
 1322W        W 5373   9.867   3.674   0.556
 1323W        W 5374   4.605   8.577   0.586
 1324W        W 5375  10.820   3.469   2.365
 1325W        W 5376   0.513  10.012   2.240
 1326W        W 5377   5.047  11.456   0.759
 1327W        W 5378   7.260   6.210  10.600
 1328W        W 5379   3.737  11.125  11.434
 1329W        W 5380   2.674   9.311  11.952
 1330W        W 5381  10.637   7.857   0.594
 1331W        W 5382   1.689   4.877  11.037
 1332W        W 5383   6.864  11.382   9.444
 1333W        W 5384   1.908   8.814   0.251
 1334W        W 5385   8.457   2.323   2.409
 1335W        W 5386   3.680   2.842   0.731
 1336W        W 5387  10.649  11.310   0.630
 1337W        W 5388   2.807   4.155   2.693
 1338W        W 5389   3.166   0.306   1.533
 1339W        W 5390   0.270   5.554   9.823
 1340W        W 5391   6.297  10.457  10.280
 1341W        W 5392   4.953   0.620   1.710
 1342W        W 5393   0.229   3.112   0.405
 1343W        W 5394   2.933   0.119  10.146
 1344W        W 5395   0.478   3.085  11.443
 1345W        W 5396   1.977   8.089  11.857
 1346W        W 5397   4.631   7.622  11.593
 1347W        W 5398   7.284   0.526   8.934
 1348W        W 5399   6.429   7.896   2.262
 1349W        W 5400   7.555   2.289   0.812
 1350W        W 5401   3.794   5.228   0.268
 1351W        W 5402   3.711   4.474   1.923
 1352W        W 5403   8.289   4.543   8.596
 1353W        W 5404   7.812   8.432  11.860
 1354W        W 5405   5.558   8.971   8.622
 1355W        W 5406   0.813   9.178   3.165
 1356W        W 5407   2.754   2.090  10.355
 1357W        W 5408   0.506   1.300   2.575
 1358W        W 5409   5.313  11.409   1.639
 1359W        W 5410  10.230   9.455  11.411
 1360W        W 5411  10.675  10.460   1.422
 1361W        W 5412   2.783   2.377   0.777
 1362W        W 5413   8.020   5.973   4.119
 1363W        W 5414   2.316  10.888  11.819
 1364W        W 5415   6.934   1.499   0.695
 1365W        W 5416   0.027   9.846   8.854
 1366W        W 5417   0.488   3.069   9.789
 1367W        W 5418  10.628   3.880   0.269
 1368W        W 5419   2.787   3.777   9.439
 1369W        W 5420   4.599   9.504  10.667
 1370W        W 5421   5.531   1.686   2.882
 1371W        W 5422   3.372   1.448   2.893
 1372W        W 5423   5.149   9.282   8.478
 1373W        W 5424   0.208   0.310  10.775
 1374W        W 5425  10.889  10.125  11.307
 1375W        W 5426   4.716  10.025   2.294
 1376W        W 5427   4.949   0.827   9.800
 1377W        W 5428   4.107   4.546   3.558
 1378W        W 5429  10.505   7.224  11.627
 1379W        W 5430   6.775   3.685   9.217
 1380W        W 5431   4.506   4.456   9.575
 1381W        W 5432   3.845   0.483  11.571
 1382W        W 5433  10.790   4.181   1.137
 1383W        W 5434   5.311   9.899   3.596
 1384W        W 5435   4.378   1.426   9.961
 1385W        W 5436   7.472   0.791   3.413
 1386W        W 5437   9.076   0.819   2.364
 1387W        W 5438   8.528   7.588   9.295
 1388W        W 5439   3.677   2.654   9.322
 1389W        W 5440   8.540   7.536   2.818
 1390W        W 5441   9.016   4.615   1.285
 1391W        W 5442   8.623   2.574   0.511
 1392W        W 5443   5.984   3.335   1.211
 1393W        W 5444   2.711   7.920   2.668
 1394W        W 5445   3.123  10.282   0.124
 1395W        W 5446  10.572   9.835  10.960
 1396W        W 5447   7.615   4.355   1.480
 1397W        W 5448   2.382   7.886  10.702
 1398W        W 5449   8.651   6.327  11.755
 1399W        W 5450   8.997   9.637  10.971
 1400W        W 5451   5.765   0.333   0.483
 1401W        W 5452   6.063   8.074   8.583
 1402W        W 5453   6.048   7.314   4.046
 1403W        W 5454   4.042  10.929   9.127
 1404W        W 5455   0.892   3.865  11.456
 1405W        W 5456   4.289   8.920   0.771
 1406W        W 5457   2.791   2.473  11.841
 1407W        W 5458   7.805   6.678   9.989
 1408W        W 5459   9.547   2.901   9.471
 1409W        W 5460  10.107   9.000   9.868
 1410W        W 5461   3.570   0.770   9.194
 1411W        W 5462   4.727   9.098  11.428
 1412W        W 5463   8.760  10.894   2.350
 1413W        W 5464   3.875   5.283  10.545
 1414W        W 5465   6.723   3.708   0.309
 1415W        W 5466   8.014   9.636   9.891
 1416W        W 5467   9.074   5.758   2.772
 1417W        W 5468   7.641   4.158  11.085
 1418W        W 5469  10.848   9.833  11.879
 1419W        W 5470   3.109   9.132  10.227
 1420W        W 5471   5.823   5.189  11.626
 1421W        W 5472   3.417   6.094  10.675
 1422W        W 5473   6.540   6.626   1.802
 1423W        W 5474   9.565   6.124  10.821
 1424W        W 5475   6.906  10.877  10.673
 1425W        W 5476   8.181   8.949   1.126
 1426W        W 5477   3.300   8.012  10.230
 1427W        W 5478   4.221   2.313  10.445
 1428W        W 5479  10.855   2.740   9.185
 1429W        W 5480   0.451  11.051   1.211
 1430W        W 5481   0.991  11.340   1.395
 1431W        W 5482   8.925   7.359   9.560
 1432W        W 5483   2.173   3.424   1.886
 1433W        W 5484   9.192   7.075  11.926
 1434W        W 5485   2.950   7.862  11.975
 1435W        W 5486   2.329   0.540   1.978
 1436W        W 5487   1.187   9.794   2.690
 1437W        W 5488   8.939   0.736  11.476
 1438W        W 5489   2.945   3.160   3.249
 1439W        W 5490   4.295   2.782   0.341
 1440W        W 5491   4.677   4.237   9.122
 1441W        W 5492   4.736   2.967   1.415
 1442W        W 5493   5.234   5.620  10.956
 1443W        W 5494   5.758  11.049   3.100
 1444W        W 5495  11.026   6.058   9.873
 1445W        W 5496   1.276   4.811   9.423
 1446W        W 5497   2.338   4.332   8.454
 1447W        W 5498   2.403   2.702  11.567
 1448W        W 5499   5.778   7.110  10.419
 1449W        W 5500   1.282   1.114  11.116
 1450W        W 5501   8.747   4.294   9.220
 1451W        W 5502   7.481   5.197   1.917
 1452W        W 5503   5.166   1.695  11.254
 1453W        W 5504   6.586   6.123  10.053
 1454W        W 5505   6.578   4.507   2.564
 1455W        W 5506   1.191   5.660   1.309
 1456W        W 5507  10.211   0.604   0.121
 1457W        W 5508   3.072   8.899   2.385
 1458W        W 5509   3.403  10.774  10.893
 1459W        W 5510   8.097   4.026   3.153
 1460W        W 5511   3.210   3.560   2.747
 1461W        W 5512   4.710  10.945   9.696
 1462W        W 5513   9.887   0.280  10.292
 1463W        W 5514   5.732   3.392   8.889
 1464W        W 5515   9.088   4.587  10.947
 1465W        W 5516  10.751   1.870   0.866
 1466W        W 5517   5.075   3.768   1.382
 1467W        W 5518   9.108   4.227   8.883
 1468W        W 5519   9.766   5.284   1.256
 1469W        W 5520   9.892   8.107   0.282
 1470W        W 5521  10.392  10.984   3.316
 1471W        W 5522  10.062   2.357   2.884
 1472W        W 5523   1.278   2.431   1.062
 1473W        W 5524   7.075   0.215   1.303
 1474W        W 5525   2.175   2.130  11.028
 1475W        W 5526   7.380   7.092   2.351
 1476W        W 5527   0.009   9.583   2.733
 1477W        W 5528   9.119   6.579   9.100
 1478W        W 5529   3.126   8.896   9.069
 1479W        W 5530   4.091   9.529  10.444
 1480W        W 5531   1.914   2.222   0.425
 1481W        W 5532   4.843  10.579   1.273
 1482W        W 5533   6.167   6.190   3.028
 1483W        W 5534   3.726   5.396  11.780
 1484W        W 5535   0.154   8.917   2.151
 1485W        W 5536   6.216   6.129  11.962
 1486W        W 5537   0.906   6.421   1.914
 1487W        W 5538   5.189   3.643  11.010
 1488W        W 5539   9.321   6.299  11.281
 1489W        W 5540   8.905   3.290  10.457
 1490W        W 5541   4.576   0.271  11.970
 1491W        W 5542   1.767   9.189  11.346
 1492W        W 5543   9.530   0.600   9.422
 1493W        W 5544   9.788   0.859  11.365
 1494W        W 5545  10.461  11.306   1.826
 1495W        W 5546  10.856   1.296  11.091
 1496W        W 5547   3.709   3.369  10.935
 1497W        W 5548   0.377   3.819   2.376
 1498W        W 5549   4.573   0.757   0.787
 1499W        W 5550   9.055   8.091  10.218
 1500W        W 5551  10.705   0.229   0.953
 1501W        W 5552  10.136  10.427   9.948
 1502W        W 5553   8.496  11.313   0.173
 1503W        W 5554   1.056  10.573   2.509
 1504W        W 5555   5.222  11.484   2.648
 1505W        W 5556   5.438   4.034   3.577
 1506W        W 5557   2.019   9.869   9.354
 1507W        W 5558   5.175   1.394   2.608
 1508W        W 5559   6.663   2.654  10.378
 1509W        W 5560   5.172   3.966   4.005
 1510W        W 5561   9.225   6.305   8.650
 1511W        W 5562   8.881   7.432   1.219
 1512W        W 5563  10.595   4.306  10.088
 1513W        W 5564   2.199   9.117  11.950
 1514W        W 5565   8.125   4.995   4.008
 1515W        W 5566   7.555   7.141   1.314
 1516W        W 5567   1.669   6.903   3.249
 1517W        W 5568   0.027   5.972   9.956
 1518W        W 5569   4.424  10.402  11.372
 1519W        W 5570   9.536   9.890   1.383
 1520W        W 5571   5.553   9.596  11.265
 1521W        W 5572   2.736   1.049   1.241
 1522W        W 5573   3.256   2.331   9.284
 1523W        W 5574  11.064   9.391  11.726
 1524W        W 5575   2.278   2.245   0.908
 1525W        W 5576   9.042   6.781   1.971
 1526W        W 5577   7.840   5.750   9.882
 1527W        W 5578  11.106   4.487  10.886
 1528W        W 5579   8.054   4.669   2.186
 1529W        W 5580   7.372   4.664  11.040
 1530W        W 5581   4.091  11.385   2.612
 1531W        W 5582   3.658   6.600   0.264
 1532W        W 5583   6.040   0.808   8.454
 1533W        W 5584  10.930   8.163   0.306
 1534W        W 5585  10.795   1.801  10.506
 1535W        W 5586   9.393   2.643   2.000
 1536W        W 5587   1.619   1.294   9.814
 1537W        W 5588   0.543  10.526   2.385
 1538W        W 5589   9.415   0.093  11.200
 1539W        W 5590   9.974  11.462   9.539
 1540W        W 5591   2.914   5.373   0.223
 1541W        W 5592   3.374   2.587  10.670
 1542W        W 5593   4.347   3.770  11.181
 1543W        W 5594   6.629   2.226   0.970
 1544W        W 5595   2.148   1.779   9.213
 1545W        W 5596   2.205  11.415  11.421
 1546W        W 5597   4.368   0.817   0.313
 1547W        W 5598   9.563   7.941  10.130
 1548W        W 5599   4.948   8.635  10.824
 1549W        W 5600   0.613   5.905   0.690
 1550W        W 5601   3.245   4.292  11.277
 1551W        W 5602   2.217   8.670   2.963
 1552W        W 5603   1.839   0.278   9.497
 1553W        W 5604   6.395   4.031  10.524
 1554W        W 5605   4.115  11.248  10.830
 1555W        W 5606   5.898   6.177   0.831
 1556W        W 5607   0.278   1.605   9.871
 1557W        W 5608   1.402  10.279   1.320
 1558W        W 5609   3.723   6.555   9.400
 1559W        W 5610   1.121   1.793   9.003
 1560W        W 5611   7.905   0.466   1.758
 1561W        W 5612   6.228   8.824  10.082
 1562W        W 5613   8.019   4.164  11.447
 1563W        W 5614   8.603   8.430   1.989
 1564W        W 5615   8.161   6.557   3.164
 1565W        W 5616   9.659   6.980   2.309
 1566W        W 5617   0.708  11.406   0.969
 1567W        W 5618   8.838   8.738   3.756
 1568W        W 5619  11.270   9.043  10.935
 1569W        W 5620   1.314   5.992   0.057
 1570W        W 5621   8.922   6.102   0.538
 1571W        W 5622   8.513   3.392   8.935
 1572W        W 5623   4.770   8.252  11.713
 1573W        W 5624  11.282   9.686   1.745
 1574W        W 5625   6.814   8.109   9.446
 1575W        W 5626   7.101  10.490   9.242
 1576W        W 5627  10.981  10.640  11.366
 1577W        W 5628   5.423   6.225   2.272
 1578W        W 5629   6.299   6.090   2.531
 1579W        W 5630   3.234   8.507  10.419
 1580W        W 5631   2.727   5.522   2.805
 1581W        W 5632   0.366   9.512  11.332
 1582W        W 5633   3.176   6.197   3.405
 1583W        W 5634   1.002   1.871   3.634
 1584W        W 5635   0.332   7.036  11.747
 1585W        W 5636   3.687   3.862  11.827
 1586W        W 5637   9.957  11.472   1.841
 1587W        W 5638  10.409   1.283  11.341
 1588W        W 5639   6.250   7.878   0.393
 1589W        W 5640  11.008  10.061   1.495
 1590W        W 5641  10.828   1.350   9.632
 1591W        W 5642  10.469   6.449  11.978
 1592W        W 5643   0.826   1.343   3.533
 1593W        W 5644   0.899   3.779   2.529
 1594W        W 5645   9.512   2.072   2.549
 1595W        W 5646   3.139   2.064  10.762
 1596W        W 5647   4.530   0.941  10.079
 1597W        W 5648   1.345   2.345   1.943
 1598W        W 5649   8.906   4.666   2.248
 1599W        W 5650   5.798   9.137   9.882
 1600W        W 5651  11.038   9.842   2.307
 1601W        W 5652   8.856   1.754   1.070
 1602W        W 5653   8.013   7.434   1.303
 1603W        W 5654   9.018   7.734   2.856
 1604W        W 5655  10.005   7.004   9.033
 1605W        W 5656   3.375   3.359   1.382
 1606W        W 5657   9.159   7.578  11.855
 1607W        W 5658  10.580   3.614   9.624
 1608W        W 5659   8.133  10.355  11.949
 1609W        W 5660  10.044   8.935   8.871
 1610W        W 5661   6.971   4.663  11.726
 1611W        W 5662   6.615   1.170   9.589
 1612W        W 5663   6.351   8.990   2.654
 1613W        W 5664  10.008   8.907  10.977
 1614W        W 5665   8.331   6.837   0.736
 1615W        W 5666   2.805  11.308   8.800
 1616W        W 5667   2.504   0.055  10.420
 1617W        W 5668   6.588  10.828   1.346
 1618W        W 5669   4.585   9.103  11.908
 1619W        W 5670   9.414   2.891   0.886
 1620W        W 5671   5.000   2.797   3.198
 1621W        W 5672   0.201  10.343   1.441
 1622W        W 5673   9.926   4.845   2.289
 1623W        W 5674  10.099   0.392   9.753
 1624W        W 5675   3.300   9.919   1.328
 1625W        W 5676  10.851   6.440   1.251
 1626W        W 5677   6.124   3.651   1.984
 1627W        W 5678   4.168   4.256  11.203
 1628W        W 5679   0.693  10.764   3.345
 1629W        W 5680   9.371   8.042   1.832
 1630W        W 5681   0.449   6.175  11.768
 1631W        W 5682   4.213  10.125   3.291
 1632W        W 5683   9.456   3.958   2.322
 1633W        W 5684   2.873   2.553  10.542
 1634W        W 5685   0.764   4.183   0.713
 1635W        W 5686   1.782   0.950   8.671
 1636W        W 5687   3.745   3.603  11.398
 1637W        W 5688   2.155   5.694   9.119
 1638W        W 5689   8.107   5.819  10.963
 1639W        W 5690   4.992   9.573   8.883
 1640W        W 5691   3.840   7.554   3.250
 1641W        W 5692   5.637   3.675   2.060
 1642W        W 5693   5.061   3.532   2.733
 1643W        W 5694   0.064   6.689   2.410
 1644W        W 5695  10.446   3.208   2.679
 1645W        W 5696   5.650   7.615   1.938
 1646W        W 5697   6.993   0.665   8.514
 1647W        W 5698   7.992   4.997  10.374
 1648W        W 5699   4.438   1.060  11.041
 1649W        W 5700   2.689   3.278   0.228
 1650W        W 5701   0.541   0.375   3.386
 1651W        W 5702   3.219   3.611  10.543
 1652W        W 5703   3.149   6.038   9.780
 1653W        W 5704   9.912   2.862   1.156
 1654W        W 5705   0.434   8.647  10.079
 1655W        W 5706   7.133   2.863   0.471
 1656W        W 5707   8.087  10.049   2.372
 1657W        W 5708   0.848   8.368  11.237
 1658W        W 5709   6.233   5.239   2.419
 1659W        W 5710   1.896   2.266   1.879
 1660W        W 5711   3.180   5.311   2.507
 1661W        W 5712   5.806   5.017   0.411
 1662W        W 5713   5.205   9.745  11.816
 1663W        W 5714   1.371   5.752   1.781
 1664W        W 5715   2.100   8.903   9.081
 1665W        W 5716  10.550   6.962   9.063
 1666W        W 5717   5.562   7.962   8.708
 1667W        W 5718   4.637   0.421   3.614
 1668W        W 5719   6.435   2.144   9.326
 1669W        W 5720   1.269   7.666   9.018
 1670W        W 5721  11.240   2.829   1.732
 1671W        W 5722   3.415   2.264   2.964
 1672W        W 5723  10.795   3.691   0.941
 1673W        W 5724  11.035   6.191   0.524
 1674W        W 5725   0.897   8.693  10.261
 1675W        W 5726   2.667   0.537  11.247
 1676W        W 5727  11.498   8.177   2.595
 1677W        W 5728   7.297  10.755   2.175
 1678W        W 5729  10.411   0.388   8.949
 1679W        W 5730   5.496   6.744   0.375
 1680W        W 5731   2.715   0.244   0.269
 1681W        W 5732   3.529   3.983   2.006
 1682W        W 5733   9.618   2.937  11.071
 1683W        W 5734   4.547   9.383   9.356
 1684W        W 5735   8.703   5.125   0.410
 1685W        W 5736   5.107   4.037   0.096
 1686W        W 5737   1.711   9.505   9.577
 1687W        W 5738   4.804   1.466  11.528
 1688W        W 5739   5.691   9.441  11.723
 1689W        W 5740   1.822   0.483   1.232
 1690W        W 5741   2.781   3.622   3.041
 1691W        W 5742   9.918   4.780   1.216
 1692W        W 5743   9.062   4.888   2.693
 1693W        W 5744   0.036   9.442   3.243
 1694W        W 5745   4.562   4.804   0.462
 1695W        W 5746  10.673   5.789   3.699
 1696W        W 5747   7.153   9.875   2.238
 1697W        W 5748   6.153   4.880  10.404
 1698W        W 5749  11.022   0.608   0.804
 1699W        W 5750   8.437  10.052  10.336
 1700W        W 5751   2.709   3.673   1.524
 1701W        W 5752   3.821  10.254   0.724
 1702W        W 5753  11.098   0.032  11.787
 1703W        W 5754   4.399   9.375   1.345
 1704W        W 5755   4.679  10.788   1.735
 1705W        W 5756   9.047  11.358  10.473
 1706W        W 5757   4.241   7.790  10.978
 1707W        W 5758   5.532  10.873   1.273
 1708W        W 5759   7.911   3.207  11.623
 1709W        W 5760   5.517   6.821  10.072
 1710W        W 5761  10.124   5.172  10.500
 1711W        W 5762   6.267   3.187   2.187
 1712W        W 5763   8.538   5.251   3.257
 1713W        W 5764  10.814   0.736   0.329
 1714W        W 5765  10.117   6.246  11.690
 1715W        W 5766   8.925   3.550   9.950
 1716W        W 5767   4.811   6.924   2.460
 1717W        W 5768   3.361   8.155  11.827
 1718W        W 5769   1.065   7.922  11.071
 1719W        W 5770   2.222   0.963   3.208
 1720W        W 5771   4.185   8.393   9.464
 1721W        W 5772   8.183   7.964   3.154
 1722W        W 5773   7.879  11.471  10.379
 1723W        W 5774   1.448   3.738   1.196
 1724W        W 5775   7.398   4.756   8.246
 1725W        W 5776   6.182  11.193   9.101
 1726W        W 5777   7.883   5.488   1.731
 1727W        W 5778   5.592   1.713   9.026
 1728W        W 5779   2.772   2.700   1.940
 1729W        W 5780   0.403   4.046   0.382
 1730W        W 5781   2.371   8.536   8.882
 1731W        W 5782   3.819  10.983   8.666
 1732W        W 5783   8.406  10.934  11.848
 1733W        W 5784   9.515   0.100   9.356
 1734W        W 5785   5.538   8.036   3.685
 1735W        W 5786   8.959   9.995   3.012
 1736W        W 5787   0.476   0.364   1.001
 1737W        W 5788   6.275   7.996   0.927
 1738W        W 5789   6.170   4.040   8.146
 1739W        W 5790   5.073   2.574  11.722
 1740W        W 5791   3.043   8.329   3.037
 1741W        W 5792   3.082   5.574   1.251
 1742W        W 5793   0.749  10.478  10.622
 1743W        W 5794   5.348   6.941   3.478
 1744W        W 5795   5.957   4.177   3.630
 1745W        W 5796   8.887   5.082   1.121
 1746W        W 5797   6.201   4.300   0.971
 1747W        W 5798   4.700   3.727  10.817
 1748W        W 5799   6.617   8.026   8.572
 1749W        W 5800   0.962   2.898   0.756
 1750W        W 5801   1.666   3.271   1.932
 1751W        W 5802  10.791   5.469   2.203
 1752W        W 5803   9.449   4.250  10.888
 1753W        W 5804   3.656   6.135   9.713
 1754W        W 5805   3.625   3.560   9.910
 1755W        W 5806   6.332   5.377  10.452
 1756W        W 5807   9.920   4.657   8.834
 1757W        W 5808  10.833   7.404   8.979
 1758W        W 5809   4.266   5.580  10.881
 1759W        W 5810   5.794  10.416   8.923
 1760W        W 5811   5.924   3.760   2.864
 1761W        W 5812   7.189  10.160   0.435
 1762W        W 5813   3.226   9.316   3.598
 1763W        W 5814  11.336   7.982   1.807
 1764W        W 5815   5.720   4.101   0.277
 1765W        W 5816   4.114   6.779   0.180
 1766W        W 5817   6.902   0.733  10.286
 1767W        W 5818  10.429  10.560   0.560
 1768W        W 5819   2.928   2.959  11.903
 1769W        W 5820  10.023   2.606  11.293
 1770W        W 5821   4.463   6.724   3.514
 1771W        W 5822   1.299   8.900   2.380
 1772W        W 5823   2.190   3.311  10.493
 1773W        W 5824   7.928   9.186   9.677
 1774W        W 5825   3.298   4.066   2.820
 1775W        W 5826  11.101   9.470   9.650
 1776W        W 5827   2.749   3.692   8.933
 1777W        W 5828   9.121   7.968   2.259
 1778W        W 5829   7.772   2.880   2.795
 1779W        W 5830   7.465   3.129  10.894
 1780W        W 5831   8.487   0.579   1.182
 1781W        W 5832   6.513   0.828  11.528
 1782W        W 5833   6.537   2.280   2.433
 1783W        W 5834   9.559   8.684  11.406
 1784W        W 5835   3.312   9.810   2.371
 1785W        W 5836   4.618   0.280   1.467
 1786W        W 5837   6.665   1.126  11.927
 1787W        W 5838   5.274   0.941   3.518
 1788W        W 5839   4.495   5.361  10.455
 1789W        W 5840   0.949   8.485   9.417
 1790W        W 5841  10.892   8.609  10.874
 1791W        W 5842   7.163   9.775   1.235
 1792W        W 5843   1.903   2.169   9.897
 1793W        W 5844   6.569   8.289   0.263
 1794W        W 5845   3.399   9.101  11.538
 1795W        W 5846   5.981   7.866  11.032
 1796W        W 5847   6.237   6.462   9.841
 1797W        W 5848   1.226   0.975   0.914
 1798W        W 5849   1.431   3.094   9.920
 1799W        W 5850   1.677   4.608   3.376
 1800W        W 5851   4.061   6.758   2.866
 1801W        W 5852   6.062   1.808   9.516
 1802W        W 5853  10.758   9.116   2.878
 1803W        W 5854   9.766   8.450   8.893
 1804W        W 5855   1.478   8.002   0.042
 1805W        W 5856   9.494   6.582   1.050
 1806W        W 5857   9.203   4.523   3.533
 1807W        W 5858   0.696   6.691  11.836
 1808W        W 5859   2.623  10.579  11.409
 1809W        W 5860   3.695   2.150   9.099
 1810W        W 5861  10.829  10.958   9.839
 1811W        W 5862  10.952   6.680   3.131
 1812W        W 5863   8.002  10.109  10.084
 1813W        W 5864   4.684  10.918   3.325
 1814W        W 5865   1.464   9.659   0.040
 1815W        W 5866   9.517   2.663   1.476
 1816W        W 5867   4.261  10.794  10.603
 1817W        W 5868   9.231   5.145  10.720
 1818W        W 5869   3.243   3.832  11.546
 1819W        W 5870   5.687   4.275  10.002
 1820W        W 5871   4.173   9.961  10.158
 1821W        W 5872   1.230   9.058   2.855
 1822W        W 5873   2.620  10.049   2.973
 1823W        W 5874   6.546   9.513   9.250
 1824W        W 5875   1.626   5.566   0.444
 1825W        W 5876   8.904   4.154   9.702
 1826W        W 5877   9.999   7.134   2.753
 1827W        W 5878   2.482   5.333   1.013
 1828W        W 5879   4.172   3.159  11.060
 1829W        W 5880   1.378   5.794   9.635
 1830W        W 5881   1.314   2.991   3.486
 1831W        W 5882   1.694   6.640  10.960
 1832W        W 5883   1.354  10.842   9.387
 1833W        W 5884   4.110   5.189  11.523
 1834W        W 5885   0.633  10.439   8.964
 1835W        W 5886   4.889   5.982   9.860
 1836W        W 5887   1.362   3.794   1.851
 1837W        W 5888   0.315   3.533   9.930
 1838W        W 5889  10.003   0.497   8.651
 1839W        W 5890   9.523   1.954   9.000
 1840W        W 5891   4.621   3.193   0.270
 1841W        W 5892   9.121   0.380   9.632
 1842W        W 5893   3.573   4.224   3.248
 1843W        W 5894   8.526   5.379  10.942
 1844W        W 5895   5.617   8.520   1.663
 1845W        W 5896  10.001   2.698   9.325
 1846W        W 5897  10.205   3.412  10.865
 1847W        W 5898   8.106   9.571   8.831
 1848W        W 5899   0.770   8.216   2.225
 1849W        W 5900   0.684   8.064   9.266
 1850W        W 5901   9.113   6.699   2.940
 1851W        W 5902   8.626  10.280   0.257
 1852W        W 5903   6.534   2.619  11.236
 1853W        W 5904   0.226   5.880   1.454
 1854W        W 5905   1.817   2.792   1.207
 1855W        W 5906   3.454   8.430   1.633
 1856W        W 5907   3.814   4.825  10.843
 1857W        W 5908   8.200   2.608   8.463
 1858W        W 5909   1.540  11.030   0.847
 1859W        W 5910   6.719   9.918   0.365
 1860W        W 5911   5.880   6.212  11.514
 1861W        W 5912   4.572  11.219   2.688
 1862W        W 5913   7.159   9.434   1.949
 1863W        W 5914  10.614  11.369  11.812
 1864W        W 5915   2.009   6.263  11.812
 1865W        W 5916   7.454   3.344   1.562
 1866W        W 5917   5.726   4.103   3.172
 1867W        W 5918   8.035  10.823   1.722
 1868W        W 5919   2.441  10.876  10.893
 1869W        W 5920  11.298   4.282   2.999
 1870W        W 5921   7.195   2.660   9.407
 1871W        W 5922   9.255   0.709   1.813
 1872W        W 5923   7.242   3.256   3.029
 1873W        W 5924   2.118   3.752   3.388
 1874W        W 5925  10.347   3.385  10.015
 1875W        W 5926   1.340   9.179   1.949
 1876W        W 5927   3.704   2.128   8.598
 1877W        W 5928  10.287   3.914   9.922
 1878W        W 5929   6.956   5.486   2.007
 1879W        W 5930   4.495   2.721   1.024
 1880W        W 5931   6.322   3.660   1.504
 1881W        W 5932   8.329  10.806   9.456
 1882W        W 5933   4.734   5.226   0.764
 1883W        W 5934   7.057   4.553   1.716
 1884W        W 5935  11.053  11.281   0.245
 1885W        W 5936   9.726   5.909  11.727
 1886W        W 5937   6.663  10.383   9.477
 1887W        W 5938   5.287  10.950   9.001
 1888W        W 5939   6.290   2.357   1.341
 1889W        W 5940   4.642   0.474   2.242
 1890W        W 5941   0.425   2.725  10.587
 1891W        W 5942  10.934   1.993   2.706
 1892W        W 5943   6.377   6.151   1.008
 1893W        W 5944   1.890  10.185   1.998
 1894W        W 5945   1.147   0.867   9.103
 1895W        W 5946   3.511   9.486   9.634
 1896W        W 5947  10.549   2.756   2.388
 1897W        W 5948   1.182   7.998   9.439
 1898W        W 5949   0.294   0.835   2.311
 1899W        W 5950   1.704   5.556   1.420
 1900W        W 5951   3.145   8.865   3.151
 1901W        W 5952  10.047   5.009  10.015
 1902W        W 5953   2.097   1.802   1.726
 1903W        W 5954   8.396   3.271  10.433
 1904W        W 5955   3.780   3.098  11.379
 1905W        W 5956   9.061   6.069   9.074
 1906W        W 5957  11.206   5.720  11.204
 1907W        W 5958   1.791   4.590   1.561
 1908W        W 5959   8.746   2.543   2.776
 1909W        W 5960  11.411  10.535  11.101
 1910W        W 5961  10.022   2.628  10.331
 1911W        W 5962   8.250   0.915  10.383
 1912W        W 5963   5.584   2.160   2.548
 1913W        W 5964   5.644   0.368   9.650
 1914W        W 5965  10.980   5.220  11.446
 1915W        W 5966  10.092   3.641   9.503
 1916W        W 5967   0.288   7.272   2.949
 1917W        W 5968   3.222  11.292   1.537
 1918W        W 5969   6.726   6.138   8.705
 1919W        W 5970   1.528   7.061   8.503
 1920W        W 5971  11.332   5.740   9.192
 1921W        W 5972  10.118   6.068   2.217
 1922W        W 5973   5.118  10.322   2.254
 1923W        W 5974   0.417   9.761   3.398
 1924W        W 5975   9.183   9.577   0.303
 1925W        W 5976   8.950  10.460   2.183
 1926W        W 5977   1.774   8.923   1.800
 1927W        W 5978   2.247   2.798  10.112
 1928W        W 5979   4.129   4.216   1.533
 1929W        W 5980   2.299   1.898   3.544
 1930W        W 5981   4.146   3.305  10.079
 1931W        W 5982   0.194   1.472   1.664
 1932W        W 5983   8.460  10.710   2.730
 1933W        W 5984   4.648   3.849   2.790
 1934W        W 5985   6.618   8.460  10.262
 1935W        W 5986   2.998  10.441  10.142
 1936W        W 5987   3.246   1.813   9.048
 1937W        W 5988   9.668  10.911   0.685
 1938W        W 5989   3.488   8.010   0.898
 1939W        W 5990   5.438   7.811   9.204
 1940W        W 5991   4.053   2.551   2.510
 1941W        W 5992   7.663  11.028   0.473
 1942W        W 5993   3.617   2.098   0.237
 1943W        W 5994   6.559   1.247   9.071
 1944W        W 5995   8.096   8.340   2.797
 1945W        W 5996   0.872   0.394   2.318
 1946W        W 5997   6.998   3.360   0.587
 1947W        W 5998   4.173   9.093   1.712
 1948W        W 5999   3.346   0.515   3.745
 1949W        W 6000   3.672   3.557   1.756
 1950W        W 6001   9.941   4.756  10.792
 1951W        W 6002   7.198   1.855   2.706
 1952W        W 6003   8.681   3.662  11.310
 1953W        W 6004  11.410   9.916   9.341
 1954W        W 6005   9.844   0.195   1.031
 1955W        W 6006   1.448   5.124   2.100
 1956W        W 6007   2.422   6.124   8.819
 1957W        W 6008   3.380   9.478   0.404
 1958W        W 6009   8.592   5.241  11.909
 1959W        W 6010   5.991   6.073  10.990
 1960W        W 6011  10.591   3.370   0.224
 1961W        W 6012   3.136  11.358  11.146
 1962W        W 6013   8.710   8.823   1.223
 1963W        W 6014   1.793   5.980   2.208
 1964W        W 6015   1.814  10.797   9.143
 1965W        W 6016  11.261   9.784  11.470
 1966W        W 6017   5.247   9.045   0.690
 1967W        W 6018  10.461  11.405  10.935
 1968W        W 6019  11.403   7.472   1.719
 1969W        W 6020   9.987   5.605   0.030
 1970W        W 6021   1.244   1.435   3.233
 1971W        W 6022   4.814   1.720  11.980
 1972W        W 6023   6.531   7.560   0.955
 1973W        W 6024   4.969   6.581   3.489
 1974W        W 6025   3.839   3.162   1.464
 1975W        W 6026   7.151   8.865  11.090
 1976W        W 6027   3.277   2.682   1.732
 1977W        W 6028   2.271   7.914   1.223
 1978W        W 6029   3.790   0.365   3.304
 1979W        W 6030   4.142  11.199  10.307
 1980W        W 6031  10.427   5.215  11.455
 1981W        W 6032   2.817   8.823   0.813
 1982W        W 6033  10.790   3.226   9.337
 1983W        W 6034   3.959   7.141   9.271
 1984W        W 6035   3.859   3.387  11.838
 1985W        W 6036  11.440   3.115   9.979
 1986W        W 6037   2.213   8.916  11.419
 1987W        W 6038   6.221  10.811  10.720
 1988W        W 6039   2.201   2.216  11.519
 1989W        W 6040   3.295   9.028  10.680
 1990W        W 6041   1.295   5.289   1.634
 1991W        W 6042   9.764   4.608  10.177
 1992W        W 6043   3.774   8.025   8.432
 1993W        W 6044   8.026  10.445   2.046
 1994W        W 6045   6.949   8.440   0.588
 1995W        W 6046   5.549   2.397   9.762
 1996W        W 6047   0.685   5.995   1.215
 1997W        W 6048   1.694   6.657  11.950
 1998W        W 6049   6.025   8.844   1.701
 1999W        W 6050   0.603   1.827   9.047
 2000W        W 6051   2.794   1.111  10.418
 2001W        W 6052   6.114   0.473   2.363
 2002W        W 6053   8.581   9.753   1.620
 2003W        W 6054  11.362   0.890  11.840
 2004W        W 6055   7.242   7.964   9.866
 2005W        W 6056   8.653  10.018  10.979
 2006W        W 6057   3.304   2.293   9.807
 2007W        W 6058   1.822   6.447   1.948
 2008W        W 6059   3.656   8.918   8.951
 2009W        W 6060   2.248   3.697  11.308
 2010W        W 6061  10.075   0.279   1.473
 2011W        W 6062   8.111   1.537  11.294
 2012W        W 6063   2.923   1.866  11.245
 2013W        W 6064   8.366   9.547   0.001
 2014W        W 6065   0.245   8.022   9.532
 2015W        W 6066   2.591   3.407   8.519
 2016W        W 6067   1.202   9.501   3.100
 2017W        W 6068  10.849   6.993  10.788
 2018W        W 6069   3.842   7.492   0.257
 2019W        W 6070   1.997   7.714   3.180
 2020W        W 6071   1.791   1.309   2.042
 2021W        W 6072   9.385   9.429  11.848
 2022W        W 6073   1.610  10.534   1.744
 2023W        W 6074   8.001  11.421   0.927
 2024W        W 6075   8.586   0.614   2.269
 2025W        W 6076   4.279   4.550  11.700
 2026W        W 6077   2.403   7.440   4.085
 2027W        W 6078   9.479   9.853   8.953
 2028W        W 6079   8.113   5.298   3.601
 2029W        W 6080   9.510  11.065  11.242
 2030W        W 6081   8.894   3.629  10.836
 2031W        W 6082   6.120   9.463   0.813
 2032W        W 6083   2.642  10.879   0.218
 2033W        W 6084  10.513   0.379   3.282
 2034W        W 6085   1.557   2.425   0.102
 2035W        W 6086  10.909   1.136   8.636
 2036W        W 6087   9.077  11.273   2.170
 2037W        W 6088   8.148   7.566   1.841
 2038W        W 6089   3.161   1.457   3.393
 2039W        W 6090   2.296   4.938   3.854
 2040W        W 6091   0.202   6.856  10.147
 2041W        W 6092  10.423   6.945   0.056
 2042W        W 6093  10.871   6.123  11.166
 2043W        W 6094   1.775   2.825   3.323
 2044W        W 6095  10.095   2.693   8.791
 2045W        W 6096   4.798  10.087   1.420
 2046W        W 6097   5.705  11.342   8.941
 2047W        W 6098   2.766   4.561   1.455
 2048W        W 6099   4.445  11.279  11.946
 2049W        W 6100   8.976   9.457  10.253
 2050W        W 6101   3.011   7.847   0.798
 2051W        W 6102   5.655   8.123   1.952
 2052W        W 6103   6.414   3.321   9.326
 2053W        W 6104   1.116   2.231   1.501
 2054W        W 6105   5.453   5.862   0.171
 2055W        W 6106   8.899   5.908  11.418
 2056W        W 6107  11.469   6.721   0.862
 2057W        W 6108   6.778  10.383   1.555
 2058W        W 6109   4.327   6.476   0.999
 2059W        W 6110  10.782   5.099   1.416
 2060W        W 6111   0.362  10.371   9.898
 2061W        W 6112   6.976   3.792   2.316
 2062W        W 6113   4.000   7.905   0.949
 2063W        W 6114   5.572   3.276   1.659
 2064W        W 6115  11.268   0.399  11.110
 2065W        W 6116   1.810  10.393   2.908
 2066W        W 6117   0.999   9.926   1.331
 2067W        W 6118  10.441   8.969  11.261
 2068W        W 6119   9.740   8.176   9.528
 2069W        W 6120   1.898   2.527  11.753
 2070W        W 6121   5.980   6.240   8.979
 2071W        W 6122   0.658   1.638   1.824
 2072W        W 6123   2.215  11.329  10.900
 2073W        W 6124   4.323  10.315   2.429
 2074W        W 6125   5.230   9.663   4.059
 2075W        W 6126   2.900   8.501   8.151
 2076W        W 6127   2.851   2.921  10.927
 2077W        W 6128   7.420   3.000  11.755
 2078W        W 6129   5.445   4.664   0.384
 2079W        W 6130   1.835   0.229   3.307
 2080W        W 6131  10.877   5.938   2.402
 2081W        W 6132   6.959   9.899  11.469
 2082W        W 6133   5.784   4.776  10.021
 2083W        W 6134  11.470   5.078   1.826
 2084W        W 6135   8.192   2.866   8.959
 2085W        W 6136   4.146   3.019   2.716
 2086W        W 6137   3.539  11.043   0.358
 2087W        W 6138   2.315   9.123   3.210
 2088W        W 6139   1.692   1.874   0.765
 2089W        W 6140   0.301   9.906  10.696
 2090W        W 6141  10.421   5.442   9.326
 2091W        W 6142  10.860   9.548  10.660
 2092W        W 6143   1.403   1.758  11.257
 2093W        W 6144   9.221   3.868   1.859
 2094W        W 6145   2.618   3.207   1.751
 2095W        W 6146   8.553   1.830   9.492
 2096W        W 6147   8.194  11.072  10.455
 2097W        W 6148   8.214   5.066   0.482
 2098W        W 6149   2.405   5.331   0.018
 2099W        W 6150   3.191   7.940   1.301
 2100W        W 6151   3.651   7.573   9.204
 2101W        W 6152   1.332   9.396   2.411
 2102W        W 6153   7.546  10.370   9.011
 2103W        W 6154   0.067   0.564   9.830
 2104W        W 6155  10.402   2.362   0.293
 2105W        W 6156  11.070   5.994  11.622
 2106W        W 6157   1.872   3.168   9.142
 2107W        W 6158  10.044   6.149   9.907
 2108W        W 6159   6.183  10.777   3.056
 2109W        W 6160   0.055   2.763   2.142
 2110W        W 6161   7.119   7.042  11.482
 2111W        W 6162   0.050   3.325  11.319
 2112W        W 6163   5.717   0.750   2.192
 2113W        W 6164   0.184   3.197  11.878
 2114W        W 6165   3.906   1.034  11.397
 2115W        W 6166   1.899   0.244  10.882
 2116W        W 6167   6.036   4.380  10.341
 2117W        W 6168   9.342   7.609   8.811
 2118W        W 6169   3.283   5.137   9.621
 2119W        W 6170   3.438   3.260   3.121
 2120W        W 6171   3.595   9.294  10.266
 2121W        W 6172  10.154   0.306   2.922
 2122W        W 6173   3.969   8.883   9.441
 2123W        W 6174   5.361   8.107   4.182
 2124W        W 6175   2.166   8.417   2.114
 2125W        W 6176  10.400   6.496   2.445
 2126W        W 6177   8.209   9.967   0.277
 2127W        W 6178  11.262   3.944   1.038
 2128W        W 6179   0.883   7.368   1.720
 2129W        W 6180  10.385   6.685   1.356
 2130W        W 6181   1.866   9.697  11.346
 2131W        W 6182   3.259   2.252  10.313
 2132W        W 6183   8.591   2.661   3.640
 2133W        W 6184   4.596   2.383   9.584
 2134W        W 6185   3.187   9.390  11.930
 2135W        W 6186   2.118   5.618   0.334
 2136W        W 6187  10.031   1.136   2.609
 2137W        W 6188   1.023   3.665   1.497
 2138W        W 6189   9.519   9.776  10.828
 2139W        W 6190   0.832   6.238  10.401
 2140W        W 6191  10.166   0.843   9.020
 2141W        W 6192   9.220   1.220   3.192
 2142W        W 6193   9.305   8.248  11.438
 2143W        W 6194   1.883   1.929   1.274
 2144W        W 6195   4.363   4.397   0.196
 2145W        W 6196   8.657   1.769   0.386
 2146W        W 6197   9.796   6.759   1.854
 2147W        W 6198   1.663   9.404   1.617
 2148W        W 6199   4.507   8.377  10.028
 2149W        W 6200   3.862   9.679   8.795
 2150W        W 6201   3.618   0.276   2.271
 2151W        W 6202   0.418   8.866   9.272
 2152W        W 6203   2.444   3.246   3.208
 2153W        W 6204   5.088   2.981   9.937
 2154W        W 6205   5.155   8.609   3.100
 2155W        W 6206   1.449   1.750  11.759
 2156W        W 6207  10.041  10.490  11.826
 2157W        W 6208   4.576   4.148   3.357
 2158W        W 6209   4.111   2.542   0.742
 2159W        W 6210   8.296   3.678   1.910
 2160W        W 6211   0.564  10.373   1.893
 2161W        W 6212   7.872   4.088   9.345
 2162W        W 6213   0.765   3.750   9.089
 2163W        W 6214   7.032   3.374  11.049
 2164W        W 6215   1.636  10.587  10.403
 2165W        W 6216   6.509   4.810   1.051
 2166W        W 6217   5.284   1.150   9.552
 2167W        W 6218   0.101   7.047   1.245
 2168W        W 6219   2.190  11.285   2.315
 2169W        W 6220   7.086   0.368   9.415
 2170W        W 6221   2.721   5.668  11.758
 2171W        W 6222   5.585   9.425   2.172
 2172W        W 6223   0.810   4.798  10.954
 2173W        W 6224   1.691   8.051  10.056
 2174W        W 6225   2.483   9.024   1.557
 2175W        W 6226   9.607   8.465   1.669
 2176W        W 6227   8.422   2.337   3.125
 2177W        W 6228   7.033   9.750   0.741
 2178W        W 6229   9.624   7.417  11.695
 2179W        W 6230  11.236   6.072   1.474
 2180W        W 6231  10.589   6.143   2.052
 2181W        W 6232   7.673   0.674   9.292
 2182W        W 6233   1.539   9.510  10.990
 2183W        W 6234  10.027   1.750   2.206
 2184W        W 6235   3.220   6.069   1.288
 2185W        W 6236   3.808   9.248  11.263
 2186W        W 6237   5.081   5.540   0.265
 2187W        W 6238   8.623   3.741  10.397
 2188W        W 6239   0.946   9.761  11.414
 2189W        W 6240   9.902   8.749   2.406
 2190W        W 6241  11.029   3.193   0.985
 2191W        W 6242   9.791   7.524   9.070
 2192W        W 6243  10.845   7.490  10.938
 2193W        W 6244   5.489   4.200   9.558
 2194W        W 6245   7.057   7.491  11.227
 2195W        W 6246   1.827   0.522   1.749
 2196W        W 6247   9.247   0.744  10.697
 2197W        W 6248   3.741   3.278   0.986
 2198W        W 6249   8.365   6.324   0.711
 2199W        W 6250   1.780   9.035   9.783
 2200W        W 6251   3.136   0.254   0.017
 2201W        W 6252   1.368   7.056   0.066
 2202W        W 6253   2.825   7.969  10.983
 2203W        W 6254  10.432  11.394   3.005
 2204W        W 6255   0.798   9.938  10.024
 2205W        W 6256   6.474  10.025   1.764
 2206W        W 6257   6.537   0.874   3.413
 2207W        W 6258   7.673   6.333   1.226
 2208W        W 6259   7.895   5.606   0.209
 2209W        W 6260   9.394   3.758  10.806
 2210W        W 6261  10.495   6.954   2.707
 2211W        W 6262   2.341   8.438   0.240
 2212W        W 6263   5.131   7.132   1.653
 2213W        W 6264   8.536  11.336  11.190
 2214W        W 6265   5.529  10.233   3.279
 2215W        W 6266  10.461   2.751  11.890
 2216W        W 6267   6.633   0.961  11.027
 2217W        W 6268  11.054   1.329   2.945
 2218W        W 6269   7.667   3.033   3.284
 2219W        W 6270   8.912   4.257  11.648
 2220W        W 6271   1.579  10.239   0.161
 2221W        W 6272  10.469   3.644   1.899
 2222W        W 6273  11.120   9.923  10.880
 2223W        W 6274   7.536   6.282  11.551
 2224W        W 6275   4.586   9.353   0.707
 2225W        W 6276  10.275  11.149   9.226
 2226W        W 6277   5.439   3.689   3.033
 2227W        W 6278   5.631   4.844   0.865
 2228W        W 6279   0.517   0.727  10.038
 2229W        W 6280   1.503   8.648   0.533
 2230W        W 6281   7.438   5.803  11.506
 2231W        W 6282   0.444   3.557  11.635
 2232W        W 6283  10.226   3.600   3.343
 2233W        W 6284   1.458   3.472   8.973
 2234W        W 6285  10.637   7.498  10.246
 2235W        W 6286  10.819   9.048   9.537
 2236W        W 6287   3.531   4.658   0.147
 2237W        W 6288  10.550  10.572   2.340
 2238W        W 6289   6.649   6.313   9.567
 2239W        W 6290   6.149   0.626   0.323
 2240W        W 6291   6.466   7.526  10.499
 2241W        W 6292   5.235   3.542   9.088
 2242W        W 6293   4.673   2.450   1.434
 2243W        W 6294   4.039   4.775   0.300
 2244W        W 6295  10.902   6.943  11.433
 2245W        W 6296   8.143   5.919   1.549
 2246W        W 6297  10.496   4.079  11.367
 2247W        W 6298   6.747   9.733  10.109
 2248W        W 6299   8.410   3.518   9.980
 2249W        W 6300   3.329   9.330   1.305
 2250W        W 6301   8.204   1.200   9.968
 2251W        W 6302   9.747   6.055  10.324
 2252W        W 6303   2.660   1.262   3.272
 2253W        W 6304   4.285   7.251   0.286
 2254W        W 6305   3.749   1.822  10.966
 2255W        W 6306   1.764   3.596   2.618
 2256W        W 6307   8.022   9.757   0.855
 2257W        W 6308  11.290   7.264  11.016
 2258W        W 6309  10.396   7.875   2.681
 2259W        W 6310   9.421   8.495  10.441
 2260W        W 6311   6.686  10.230   9.987
 2261W        W 6312   7.095   5.138  11.827
 2262W        W 6313   2.373   9.496   2.118
 2263W        W 6314   4.293   8.561   2.917
 2264W        W 6315  10.413   7.993   0.158
 2265W        W 6316   5.657   7.146   2.140
 2266W        W 6317   2.892   7.237  10.277
 2267W        W 6318   3.811   4.618   9.077
 2268W        W 6319   0.350   0.974  10.519
 2269W        W 6320  11.267   3.643   9.956
 2270W        W 6321   6.274   3.213   2.713
 2271W        W 6322   1.215   8.782  11.922
 2272W        W 6323   3.517   8.479   2.258
 2273W        W 6324   0.047  10.037  11.132
 2274W        W 6325   0.328   6.347   9.295
 2275W        W 6326   3.842  10.469   2.386
 2276W        W 6327   1.968   4.315  11.920
 2277W        W 6328   7.927   1.467   2.605
 2278W        W 6329   2.179  10.812  10.051
 2279W        W 6330   1.238  10.964  11.871
 2280W        W 6331   7.644   4.497   1.006
 2281W        W 6332   4.536   0.625   9.069
 2282W        W 6333   7.744   8.494  10.898
 2283W        W 6334   3.427   1.764  10.454
 2284W        W 6335   8.580   8.180  10.497
 2285W        W 6336   3.338   0.246   8.281
 2286W        W 6337   6.199   6.995  11.456
 2287W        W 6338   0.489   8.114   1.683
 2288W        W 6339   4.642   0.510   3.108
 2289W        W 6340   6.362   6.837   2.702
 2290W        W 6341   2.449   6.635   0.180
 2291W        W 6342   2.957   5.096  10.020
 2292W        W 6343   5.917  10.993   0.971
 2293W        W 6344   9.019   9.148   0.065
 2294W        W 6345   0.588  11.457   2.261
 2295W        W 6346   8.641   0.272   3.332
 2296W        W 6347   4.556  10.409  10.866
 2297W        W 6348   4.228   7.660   2.734
 2298W        W 6349   1.728   9.057   8.755
 2299W        W 6350   5.471   0.252   0.881
 2300W        W 6351   5.303   6.881  11.317
 2301W        W 6352  10.241   9.924   2.655
 2302W        W 6353   2.587   8.515  11.552
 2303W        W 6354  10.935   4.329  11.342
 2304W        W 6355   1.464   2.865   0.844
 2305W        W 6356   3.080  11.312   9.709
 2306W        W 6357   7.568   7.529   9.406
 2307W        W 6358   6.632   2.011   0.035
 2308W        W 6359   8.407   5.519   1.700
 2309W        W 6360   2.166  10.016  10.393
 2310W        W 6361   2.812   7.137   0.220
 2311W        W 6362   2.308   7.631   2.769
 2312W        W 6363  11.439   7.688   2.195
 2313W        W 6364   2.705   6.039   9.532
 2314W        W 6365   6.141   0.964   2.507
 2315W        W 6366   0.030   2.647   1.343
 2316W        W 6367   7.358   0.369  11.946
 2317W        W 6368   4.491  10.419   9.865
 2318W        W 6369   9.439   5.605   1.569
 2319W        W 6370   5.688   9.998   9.913
 2320W        W 6371  10.906   0.300   8.857
 2321W        W 6372   6.255   8.475   2.694
 2322W        W 6373   6.932   5.990   1.748
 2323W        W 6374   8.542   9.419   9.058
 2324W        W 6375   6.795   9.118   8.351
 2325W        W 6376   8.375  11.136   1.140
 2326W        W 6377   6.445   3.848   0.756
 2327W        W 6378   5.641   6.901   3.052
 2328W        W 6379   8.062   6.478   2.243
 2329W        W 6380   9.447   0.030   2.375
 2330W        W 6381   1.931   4.607  11.448
 2331W        W 6382   6.604   2.712   1.178
 2332W        W 6383   1.922   7.611   1.455
 2333W        W 6384   4.607   8.031  11.281
 2334W        W 6385  10.653   9.201   1.004
 2335W        W 6386   6.379   4.371  11.372
 2336W        W 6387   3.241   1.808   0.422
 2337W        W 6388   8.920   6.762   3.811
 2338W        W 6389   1.751   8.665   1.349
 2339W        W 6390   7.459   4.643   0.538
 2340W        W 6391   3.063   0.512   1.995
 2341W        W 6392   0.743   6.722   3.494
 2342W        W 6393   8.009   5.089   0.957
 2343W        W 6394   3.706   3.079  10.110
 2344W        W 6395   9.691   6.206   0.618
 2345W        W 6396   7.802   3.770   8.952
 2346W        W 6397   2.990   9.682   9.603
 2347W        W 6398   8.108  10.922   0.246
 2348W        W 6399  10.408   5.665   1.404
 2349W        W 6400   6.089   0.512   0.859
 2350W        W 6401   0.041   2.279   0.976
 2351W        W 6402   5.743   0.863   0.076
 2352W        W 6403   9.816   4.267  11.958
 2353W        W 6404   0.226   6.779   2.915
 2354W        W 6405   0.152  10.993   9.494
 2355W        W 6406   5.493   3.218  10.779
 2356W        W 6407   2.132   6.848  11.240
 2357W        W 6408   4.134   0.485   2.940
 2358W        W 6409   2.760   5.572   2.286
 2359W        W 6410  10.856   6.529   2.229
 2360W        W 6411   8.401   2.374  10.481
 2361W        W 6412   6.270   5.236   0.533
 2362W        W 6413   8.893   7.953   1.234
 2363W        W 6414  10.873   7.251  11.974
 2364W        W 6415   5.069   2.277   8.665
 2365W        W 6416   5.868   6.817   0.036
 2366W        W 6417   3.656   5.614   1.193
 2367W        W 6418   2.865   9.986   2.522
 2368W        W 6419   7.657   9.938   1.333
 2369W        W 6420   8.132   5.831   2.062
 2370W        W 6421   7.626   2.905  10.396
 2371W        W 6422   9.132   4.111   1.384
 2372W        W 6423   6.170   4.063  11.008
 2373W        W 6424   7.748   3.429   2.946
 2374W        W 6425   6.074   9.607  11.336
 2375W        W 6426  10.433   1.135  10.834
 2376W        W 6427   7.766   4.354   3.376
 2377W        W 6428   6.298   6.568   1.346
 2378W        W 6429  10.925   2.819   3.054
 2379W        W 6430   7.236   6.542  11.904
 2380W        W 6431   8.007   2.148   3.406
 2381W        W 6432   0.381   3.167  10.295
 2382W        W 6433   0.103  11.311   2.303
 2383W        W 6434   1.709   1.677   8.536
 2384W        W 6435   4.107   3.963   0.097
 2385W        W 6436   8.505   4.676   1.941
 2386W        W 6437   9.667   2.080   3.072
 2387W        W 6438   0.882   5.531   0.934
 2388W        W 6439   7.913   3.255  10.644
 2389W        W 6440   3.224   7.952   2.727
 2390W        W 6441   1.794   5.527   1.952
 2391W        W 6442   2.939  10.455   2.307
 2392W        W 6443   5.454   3.801  10.011
 2393W        W 6444   0.083   6.973   0.398
 2394W        W 6445   1.628   7.568   8.634
 2395W        W 6446   6.807   2.333   3.271
 2396W        W 6447   8.487   1.294   0.182
 2397W        W 6448   1.846   2.759   1.727
 2398W        W 6449   3.623   1.794   0.837
 2399W        W 6450   4.637  11.282   1.655
 2400W        W 6451   0.936   5.508   1.948
 2401W        W 6452   5.411   7.034   2.576
 2402W        W 6453   7.087  10.834  11.693
 2403W        W 6454  10.798   8.508  11.391
 2404W        W 6455   9.888   7.055  11.030
 2405W        W 6456   4.696   1.767  11.090
 2406W        W 6457  10.006   6.581   0.903
 2407W        W 6458   2.902   5.101   9.066
 2408W        W 6459  10.785   4.634  10.452
 2409W        W 6460   0.312   6.273  10.285
 2410W        W 6461   3.241   6.879   0.236
 2411W        W 6462   6.134   1.549   0.722
 2412W        W 6463   1.834   7.122  11.794
 2413W        W 6464   0.761   9.399   1.724
 2414W        W 6465   4.050   1.794   9.758
 2415W        W 6466   7.388  10.843  10.958
 2416W        W 6467   0.688   0.466   0.342
 2417W        W 6468  11.178   6.908   2.171
 2418W        W 6469   5.209   2.650  11.240
 2419W        W 6470   6.560  10.503  11.713
 2420W        W 6471   9.889   6.999   8.480
 2421W        W 6472   3.347   3.618   0.935
 2422W        W 6473   8.013   1.869   9.599
 2423W        W 6474   1.366   9.858   2.213
 2424W        W 6475   9.912   7.035   9.992
 2425W        W 6476   5.386   1.166   0.321
 2426W        W 6477   6.934  10.838  11.180
 2427W        W 6478   5.429   4.322  10.434
 2428W        W 6479   1.904   7.070  10.809
 2429W        W 6480   2.216   8.080   3.497
 2430W        W 6481   5.364   2.251   0.371
 2431W        W 6482   8.903   0.010   0.543
 2432W        W 6483   8.989   5.539  11.081
 2433W        W 6484   1.866   1.170   2.917
 2434W        W 6485   2.816   5.940   0.955
 2435W        W 6486   4.251   3.856   1.870
 2436W        W 6487  10.315   9.341  10.904
 2437W        W 6488  10.156   1.397   3.029
 2438W        W 6489   8.861  10.789   9.893
 2439W        W 6490  10.892   9.923   9.494
 2440W        W 6491  10.025   4.919   1.724
 2441W        W 6492   0.654   0.427   2.880
 2442W        W 6493   8.138   9.746   2.787
 2443W        W 6494   2.236   6.679  10.047
 2444W        W 6495   0.897  10.843   1.420
 2445W        W 6496   2.695   1.443  10.019
 2446W        W 6497   9.805   9.344   8.621
 2447W        W 6498   6.590   7.910   1.354
 2448W        W 6499   0.294   4.647   3.360
 2449W        W 6500   8.383   9.208  10.565
 2450W        W 6501   3.226   3.131   0.887
 2451W        W 6502  10.886  11.448  10.033
 2452W        W 6503   8.588   5.568   9.509
 2453W        W 6504  10.599   8.964   9.978
 2454W        W 6505   1.270   1.499   0.919
 2455W        W 6506   8.459  10.394   2.322
 2456W        W 6507  11.143   5.620   3.132
 2457W        W 6508   5.992   6.691  10.223
 2458W        W 6509   7.355   3.252   1.065
 2459W        W 6510   9.548   4.605   9.236
 2460W        W 6511   3.592   5.062  11.397
 2461W        W 6512   2.912  10.537   0.540
 2462W        W 6513   6.139   1.039  11.248
 2463W        W 6514   5.624   8.801   3.244
 2464W        W 6515   2.717   0.484   0.722
 2465W        W 6516   8.470   7.627   1.439
 2466W        W 6517   3.163   4.247   1.731
 2467W        W 6518   0.120   0.388   2.928
 2468W        W 6519   8.302   5.509   4.032
 2469W        W 6520   1.625   9.405   2.824
 2470W        W 6521  10.705   1.251   0.132
 2471W        W 6522   6.662   5.287   0.882
 2472W        W 6523   2.220   9.500   9.691
 2473W        W 6524   1.337   6.144   2.994
 2474W        W 6525   1.896   4.632   2.921
 2475W        W 6526   8.906   5.888   9.777
 2476W        W 6527   2.222   6.656   2.632
 2477W        W 6528  11.075   8.653   3.126
 2478W        W 6529   8.511   4.149  11.338
 2479W        W 6530   3.105   5.074   2.972
 2480W        W 6531   3.673   9.822  10.300
 2481W        W 6532   7.832   0.307  11.762
 2482W        W 6533   6.199  10.761   9.447
 2483W        W 6534  10.548   8.183   2.253
 2484W        W 6535   5.306  11.465   2.150
 2485W        W 6536   0.538   5.011   0.262
 2486W        W 6537   3.341   4.224  11.868
 2487W        W 6538   3.904   1.740  10.287
 2488W        W 6539   3.666   0.251   0.861
 2489W        W 6540   3.251   9.748   0.847
 2490W        W 6541   7.509   8.869   9.734
 2491W        W 6542   5.197   8.781   1.158
 2492W        W 6543   2.294   0.006   2.773
 2493W        W 6544   8.980   2.989   2.278
 2494W        W 6545   1.382   0.770   1.386
 2495W        W 6546  10.779   0.006  11.332
 2496W        W 6547   7.998   1.781   2.993
 2497W        W 6548  11.274  11.261   9.255
 2498W        W 6549   9.925   5.222   0.362
 2499W        W 6550   5.511   5.356   0.023
 2500W        W 6551   3.111   9.168   9.711
 2501W        W 6552   3.633   4.894   2.254
 2502W        W 6553   1.783   7.636   9.144
 2503W        W 6554   9.402   8.405   9.907
 2504W        W 6555   8.996   6.360   0.117
 2505W        W 6556  10.555   9.078   1.849
 2506W        W 6557   3.252  11.451   0.535
 2507W        W 6558   1.109   9.394   1.347
 2508W        W 6559   5.103   0.389   3.381
 2509W        W 6560   7.097  10.834   2.645
 2510W        W 6561   2.080   7.226   3.290
 2511W        W 6562   1.747   5.086   3.165
 2512W        W 6563   5.698   5.642  10.050
 2513W        W 6564   0.031   3.575   2.086
 2514W        W 6565   0.899   7.167  11.864
 2515W        W 6566   9.702   7.973  11.021
 2516W        W 6567   1.339   3.598  11.218
 2517W        W 6568   8.256  10.914   2.298
 2518W        W 6569   1.776   4.706  10.567
 2519W        W 6570   9.769   5.726   1.992
 2520W        W 6571   3.476   8.070   9.336
 2521W        W 6572   2.536   4.038   3.142
 2522W        W 6573   6.257   1.119   9.956
 2523W        W 6574   5.516   3.745   2.537
 2524W        W 6575   3.105   8.561  11.438
 2525W        W 6576   9.529   5.721   1.084
 2526W        W 6577   8.359   4.188   9.516
 2527W        W 6578   2.268   0.275   0.006
 2528W        W 6579   6.526   3.994   3.680
 2529W        W 6580   4.656   9.720   1.046
 2530W        W 6581   2.745   6.214   1.395
 2531W        W 6582  11.007   6.478  10.714
 2532W        W 6583   1.678   4.100   0.324
 2533W        W 6584   2.925   0.294  10.711
 2534W        W 6585  10.367   9.548   1.829
 2535W        W 6586   2.733   7.553  11.295
 2536W        W 6587   0.420   3.068   1.397
 2537W        W 6588   4.637  10.416   3.235
 2538W        W 6589   0.019   9.534  10.925
 2539W        W 6590   5.587   6.297   1.781
 2540W        W 6591   6.231   8.055   9.550
 2541W        W 6592   2.632   5.116  11.261
 2542W        W 6593   6.116   1.988  11.368
 2543W        W 6594   1.280   4.113  11.997
 2544W        W 6595   6.610   7.642   1.832
 2545W        W 6596   3.583   9.547   3.841
 2546W        W 6597   0.919   7.249   9.024
 2547W        W 6598   7.450   2.328   2.146
 2548W        W 6599  11.331   7.018   3.102
 2549W        W 6600   7.090  10.513   9.838
 2550W        W 6601   8.903   9.172  10.694
 2551W        W 6602  10.349   2.821   0.882
 2552W        W 6603   8.750   6.826  11.886
 2553W        W 6604  11.139   9.000   1.014
 2554W        W 6605  10.328   0.874   9.834
 2555W        W 6606  10.363   3.663   0.654
 2556W        W 6607   1.845   5.840   9.863
 2557W        W 6608   9.808  10.625   2.903
 2558W        W 6609   9.798   0.896  11.877
 2559W        W 6610  10.926   3.506  10.830
 2560W        W 6611   8.887   5.595   9.086
 2561W        W 6612   5.748   3.647   3.430
 2562W        W 6613   3.626   9.797   8.343
 2563W        W 6614   7.530   9.210   0.274
 2564W        W 6615  10.195   5.343   3.956
 2565W        W 6616   0.159   5.654   3.240
 2566W        W 6617   1.675   5.090  11.505
 2567W        W 6618  10.344   8.072  11.434
 2568W        W 6619   6.812   7.219   3.541
 2569W        W 6620   9.646   5.068  10.352
 2570W        W 6621   0.228   1.945   0.350
 2571W        W 6622   7.056   9.478   0.302
 2572W        W 6623   3.035   4.676   9.636
 2573W        W 6624   6.296   4.648   9.976
 2574W        W 6625   4.774   0.478   9.495
 2575W        W 6626   4.899   4.375  10.400
 2576W        W 6627   7.056   1.859   3.232
 2577W        W 6628   8.927   6.326   9.516
 2578W        W 6629   9.847   9.602   2.653
 2579W        W 6630   4.633   8.375  10.516
 2580W        W 6631   4.820   5.686   1.575
 2581W        W 6632   2.297   2.078   9.590
 2582W        W 6633  11.252   5.309   8.915
 2583W        W 6634   6.448   2.695   2.146
 2584W        W 6635   9.365   8.488   0.735
 2585W        W 6636  10.344   3.166   3.689
 2586W        W 6637   2.864   2.479  10.017
 2587W        W 6638  10.481   3.679   2.895
 2588W        W 6639   3.595   7.566  10.252
 2589W        W 6640   1.710   8.419  10.454
 2590W        W 6641   5.036   3.497   0.936
 2591W        W 6642   0.971   2.660   1.742
 2592W        W 6643   3.725  10.909   9.534
 2593W        W 6644  11.398   2.135   3.406
 2594W        W 6645   8.947   5.081   9.783
 2595W        W 6646   0.029   5.599   3.748
 2596W        W 6647   7.403   6.406   0.773
 2597W        W 6648   1.243   0.954   3.444
 2598W        W 6649   3.121   0.228   2.452
 2599W        W 6650   2.721   6.902   9.917
 2600W        W 6651   8.038   3.824  11.054
 2601W        W 6652   9.685   5.232   2.517
 2602W        W 6653   7.217   9.989   8.954
 2603W        W 6654   2.266   5.779   9.599
 2604W        W 6655   3.628   1.724   9.396
 2605W        W 6656  10.982   4.734   9.342
 2606W        W 6657   8.518  11.117   3.592
 2607W        W 6658   3.866   9.306   1.346
 2608W        W 6659   8.024   9.204  10.180
 2609W        W 6660   0.914   5.348   9.086
 2610W        W 6661   0.363   7.668   1.917
 2611W        W 6662   1.691  11.314   2.477
 2612W        W 6663   9.325  10.356   1.457
 2613W        W 6664   0.885   4.828   9.096
 2614W        W 6665   3.314  10.262   0.865
 2615W        W 6666   6.974   2.271   9.124
 2616W        W 6667   9.503   1.506  10.319
 2617W        W 6668   3.795   5.075   1.250
 2618W        W 6669  10.358   7.920  10.286
 2619W        W 6670  10.996   9.372   2.043
 2620W        W 6671   1.879   0.478   0.723
 2621W        W 6672   2.811   9.899  11.938
 2622W        W 6673   0.567   3.166   2.804
 2623W        W 6674   3.890   5.596   1.645
 2624W        W 6675   9.217  10.621  11.703
 2625W        W 6676   2.196   1.724   0.899
 2626W        W 6677   2.243   6.168   2.464
 2627W        W 6678  11.004   7.557   3.478
 2628W        W 6679   7.253   5.692  10.721
 2629W        W 6680   2.756   9.119   2.914
 2630W        W 6681   1.354   5.470  11.088
 2631W        W 6682   5.728   0.710   8.898
 2632W        W 6683   0.402  10.944   2.111
 2633W        W 6684   9.601  10.568   9.396
 2634W        W 6685  10.348   2.274   1.657
 2635W        W 6686   3.149   1.622   0.898
 2636W        W 6687   4.563   3.684   9.953
 2637W        W 6688   7.912   7.148   1.704
 2638W        W 6689   2.075   4.217   8.877
 2639W        W 6690   0.415   4.783  10.277
 2640W        W 6691  10.781   8.663   0.910
 2641W        W 6692   5.398   2.853   1.937
 2642W        W 6693   3.161   7.569  11.021
 2643W        W 6694   5.610   4.104   1.205
 2644W        W 6695   4.578  11.328  10.604
 2645W        W 6696   0.961   9.779  11.964
 2646W        W 6697   3.921  10.614   1.601
 2647W        W 6698   5.070  10.363  10.959
 2648W        W 6699   4.184  10.653   3.432
 2649W        W 6700   4.660   4.248  10.851
 2650W        W 6701  10.817   1.169   2.082
 2651W        W 6702   2.482   7.542   3.254
 2652W        W 6703  10.467  10.431   9.147
 2653W        W 6704   4.680   8.886   1.438
 2654W        W 6705   4.614   3.940   1.510
 2655W        W 6706   7.698   3.966   2.831
 2656W        W 6707   6.957   3.883   0.745
 2657W        W 6708   4.270   3.267   2.292
 2658W        W 6709   5.786   7.058   0.711
 2659W        W 6710   9.408  10.490   0.555
 2660W        W 6711   9.591   0.977   0.867
 2661W        W 6712  10.383   8.319  10.583
 2662W        W 6713   0.441   6.922  11.210
 2663W        W 6714   7.901   1.665  10.057
 2664W        W 6715   8.448   5.019   8.603
 2665W        W 6716   9.856   7.524   9.905
 2666W        W 6717   1.467  10.419   3.290
 2667W        W 6718   0.833   0.984  10.361
 2668W        W 6719  10.278  11.459   3.517
 2669W        W 6720   6.255   9.931  10.037
 2670W        W 6721   9.182   8.881   1.036
 2671W        W 6722   9.779  10.371   1.229
 2672W        W 6723   6.116   2.941  11.276
 2673W        W 6724   8.899   1.028  10.976
 2674W        W 6725  11.230   0.238   2.212
 2675W        W 6726   2.734   5.055   2.642
 2676W        W 6727   8.475  11.231   2.634
 2677W        W 6728   3.149  11.005   1.962
 2678W        W 6729   1.451   3.288   9.451
 2679W        W 6730   9.516   3.659  11.635
 2680W        W 6731   9.809   2.149  10.496
 2681W        W 6732   7.280   8.917   2.217
 2682W        W 6733   7.566  11.217   8.979
 2683W        W 6734   5.765   7.764   3.271
 2684W        W 6735   7.976   0.483  10.458
 2685W        W 6736   6.975   0.478   2.235
 2686W        W 6737   1.043   9.266  11.879
 2687W        W 6738   4.762   0.969  11.467
 2688W        W 6739   7.429   0.050   2.680
 2689W        W 6740   7.011   6.708   0.846
 2690W        W 6741   6.262   7.352   2.748
 2691W        W 6742   6.616   2.686   0.659
 2692W        W 6743   6.746   3.072   2.910
 2693W        W 6744   7.214   8.959   2.743
 2694W        W 6745   6.592   8.423   1.372
 2695W        W 6746   4.845   2.881   8.710
 2696W        W 6747   8.491   6.054   0.228
 2697W        W 6748   3.834   9.865  10.784
 2698W        W 6749  10.380   1.602   1.396
 2699W        W 6750   2.371   6.074  10.496
 2700W        W 6751   0.294   4.528   8.880
 2701W        W 6752   8.419   7.150  11.687
 2702W        W 6753   1.448  10.061   1.768
 2703W        W 6754   5.669   1.461   9.452
 2704W        W 6755   3.946   0.792   9.525
 2705W        W 6756   9.775  11.323   1.378
 2706W        W 6757  10.544   2.677   9.585
 2707W        W 6758   8.122   0.424   0.839
 2708W        W 6759   8.640   3.187   3.575
 2709W        W 6760   9.943   2.385   1.353
 2710W        W 6761   7.638   9.829  10.297
 2711W        W 6762   3.347   0.709   2.363
 2712W        W 6763   6.161   1.748   1.708
 2713W        W 6764   3.421   7.889   3.189
 2714W        W 6765   5.028   9.155  10.233
 2715W        W 6766   2.403   5.167   9.015
 2716W        W 6767   7.778   5.428   3.962
 2717W        W 6768   4.096   5.748  10.444
 2718W        W 6769   2.231   4.648  10.821
 2719W        W 6770   0.687  10.242   9.528
 2720W        W 6771   8.145   6.832   9.069
 2721W        W 6772   6.040   9.609   9.166
 2722W        W 6773   5.904   3.886  10.275
 2723W        W 6774   9.001   8.220   2.664
 2724W        W 6775   0.191   6.073   2.622
 2725W        W 6776  11.186   8.825  10.469
 2726W        W 6777   5.405   0.385   1.812
 2727W        W 6778   0.395   7.846  10.448
 2728W        W 6779  11.091   9.452   3.467
 2729W        W 6780   0.393   3.883   1.843
 2730W        W 6781  11.317   9.896   9.839
 2731W        W 6782   0.725   5.508   1.458
 2732W        W 6783   0.458   8.477   9.596
 2733W        W 6784   0.624   1.922  10.671
 2734W        W 6785   7.182  10.074  10.093
 2735W        W 6786   4.536   5.795  10.178
 2736W        W 6787   7.846  10.911  10.142
 2737W        W 6788  10.099   6.524   3.304
 2738W        W 6789   7.394   0.858   1.078
 2739W        W 6790   5.619   5.192   9.735
 2740W        W 6791   9.880   3.842   2.594
 2741W        W 6792   5.568   8.424  10.492
 2742W        W 6793   8.423  10.207   1.827
 2743W        W 6794   5.218   4.946  11.135
 2744W        W 6795  10.926   8.159   8.994
 2745W        W 6796   7.504   3.483  11.894
 2746W        W 6797   7.137   5.133  10.851
 2747W        W 6798  11.350  10.290  11.548
 2748W        W 6799   0.969   1.195   1.840
 2749W        W 6800   2.224   6.478  10.900
 2750W        W 6801   5.154   4.127  10.810
 2751W        W 6802   8.910   2.277  10.474
 2752W        W 6803   2.905   7.157   2.252
 2753W        W 6804   7.831   3.083   0.098
 2754W        W 6805   8.050  11.394   0.425
 2755W        W 6806   7.525   1.205   9.446
 2756W        W 6807   4.303   8.303   2.069
 2757W        W 6808   2.644   6.722   1.392
 2758W        W 6809   6.465   3.179   1.361
 2759W        W 6810   2.371   4.677   8.856
 2760W        W 6811   7.117   9.902   0.011
 2761W        W 6812  11.088   5.725   0.710
 2762W        W 6813   5.956  10.098   1.762
 2763W        W 6814   9.651   7.930   2.287
 2764W        W 6815   5.267   4.729  10.166
 2765W        W 6816   9.997   1.335   9.047
 2766W        W 6817   5.599   0.371  11.991
 2767W        W 6818   4.813  10.373   0.332
 2768W        W 6819   7.697   8.121   1.097
 2769W        W 6820   2.241   6.143   0.325
 2770W        W 6821   2.818   9.032   1.944
 2771W        W 6822   2.268   0.412   1.487
 2772W        W 6823   2.103   4.664   2.426
 2773W        W 6824   4.040   2.035  11.880
 2774W        W 6825  10.563   1.224   2.757
 2775W        W 6826  10.273   5.037   9.029
 2776W        W 6827   7.714   4.497   2.884
 2777W        W 6828   2.123   5.060  11.216
 2778W        W 6829   3.943  10.702   0.374
 2779W        W 6830   8.692   7.847   3.237
 2780W        W 6831   2.905   9.593   1.220
 2781W        W 6832   5.666   1.230   2.450
 2782W        W 6833   7.784   4.692   8.583
 2783W        W 6834   2.542   4.246   9.485
 2784W        W 6835   6.971   7.522   0.698
 2785W        W 6836  10.278   4.589   0.894
 2786W        W 6837  10.388   8.673   2.237
 2787W        W 6838   4.615   2.754  11.876
 2788W        W 6839   6.576   2.161  10.241
 2789W        W 6840   8.330   3.176  11.962
 2790W        W 6841   8.286  10.462   8.919
 2791W        W 6842   5.782   9.878  10.899
 2792W        W 6843   8.702   8.768   0.138
 2793W        W 6844   5.317   2.301   1.674
 2794W        W 6845   8.540   4.700   1.436
 2795W        W 6846   5.511   8.959   2.370
 2796W        W 6847   5.914   1.199  10.800
 2797W        W 6848   9.765   4.486  11.209
 2798W        W 6849   6.483   0.616   2.741
 2799W        W 6850   2.892   3.269   1.266
 2800W        W 6851   7.044   9.409   3.393
 2801W        W 6852   3.229   6.242  10.236
 2802W        W 6853   5.074   6.463   1.800
 2803W        W 6854   4.460   7.955   9.347
 2804W        W 6855   5.740   7.461   9.449
 2805W        W 6856   9.430   3.366   9.761
 2806W        W 6857   9.539   1.313  11.301
 2807W        W 6858   3.791   4.614   2.634
 2808W        W 6859   5.490   3.681  10.522
 2809W        W 6860  10.056   7.698  11.840
 2810W        W 6861   0.799   6.886   1.753
 2811W        W 6862   0.406   7.892   0.760
 2812W        W 6863   5.682   0.811  11.494
 2813W        W 6864  10.891   8.105  10.267
 2814W        W 6865   9.908   0.237   2.260
 2815W        W 6866   9.842  11.369   9.029
 2816W        W 6867   8.593   9.310   1.894
 2817W        W 6868   7.245   1.950   8.829
 2818W        W 6869   4.700   9.138   8.933
 2819W        W 6870  10.082   4.670   9.342
 2820W        W 6871   1.295   4.140   1.479
 2821W        W 6872   7.031   0.527   3.511
 2822W        W 6873   2.430   0.963   2.228
 2823W        W 6874   1.411  11.283   3.309
 2824W        W 6875   2.979   7.042   8.116
 2825W        W 6876   8.439   0.222   9.017
 2826W        W 6877   0.640   5.808   9.050
 2827W        W 6878   9.983   9.805   8.821
 2828W        W 6879   6.618   1.246   2.453
 2829W        W 6880   4.554   1.767   9.036
 2830W        W 6881   0.307  11.256  11.599
 2831W        W 6882   8.994   6.837   0.338
 2832W        W 6883   6.075   8.956   0.816
 2833W        W 6884  10.676   7.017   2.229
 2834W        W 6885   8.886  10.013   1.950
 2835W        W 6886   3.730   0.634  11.115
 2836W        W 6887   7.850   1.656  11.991
 2837W        W 6888   3.144   1.124   2.568
 2838W        W 6889  11.381   1.287   8.808
 2839W        W 6890  10.254   6.108   2.736
 2840W        W 6891   0.443   3.574  11.126
 2841W        W 6892   8.574  10.201   3.922
 2842W        W 6893   5.170  10.568   1.766
 2843W        W 6894   6.600  10.982  11.528
 2844W        W 6895  10.990   6.830   2.643
 2845W        W 6896   7.493  10.520  11.818
 2846W        W 6897   5.668   6.135   9.391
 2847W        W 6898   1.804   6.002   2.736
 2848W        W 6899   2.402   7.066   2.329
 2849W        W 6900   0.256   9.936  11.602
 2850W        W 6901   2.188   3.777   2.868
 2851W        W 6902   0.045   8.504   3.281
 2852W        W 6903   7.162   6.416   9.624
 2853W        W 6904  10.504  10.539  11.530
 2854W        W 6905   1.072   7.412   2.230
 2855W        W 6906   3.939   3.628   2.190
 2856W        W 6907   8.951   6.341  10.493
 2857W        W 6908   6.591   8.546  11.703
 2858W        W 6909  10.509   1.880   2.347
 2859W        W 6910   1.285   3.355  10.334
 2860W        W 6911   6.185   7.030   2.237
 2861W        W 6912   4.503   3.940   9.516
 2862W        W 6913   0.889  10.745   2.058
 2863W        W 6914   0.421   8.829   0.435
 2864W        W 6915   3.740   2.204  10.107
 2865W        W 6916   7.119   0.396   9.971
 2866W        W 6917  10.988   3.764   1.959
 2867W        W 6918   7.145   0.359  10.996
 2868W        W 6919   7.522   6.696   3.822
 2869W        W 6920   9.578   7.788   0.043
 2870W        W 6921   5.039   8.225  11.111
 2871W        W 6922   4.850   7.941   2.561
 2872W        W 6923   1.570   5.986   8.559
 2873W        W 6924   6.156   9.718   2.039
 2874W        W 6925   1.741   4.157   1.833
 2875W        W 6926   1.132   7.391   8.569
 2876W        W 6927   5.392  10.441   0.369
 2877W        W 6928   0.467   9.900   0.069
 2878W        W 6929   8.295   8.539  11.936
 2879W        W 6930   8.702   5.708   3.128
 2880W        W 6931   5.575   4.710  11.450
 2881W        W 6932   0.754   1.887   0.430
 2882W        W 6933  10.153   4.261   0.351
 2883W        W 6934   6.647   1.934   0.530
 2884W        W 6935   5.313   7.420  11.421
 2885W        W 6936   5.427   9.101   9.426
 2886W        W 6937   5.632   0.794   3.194
 2887W        W 6938  10.295   4.110   2.661
 2888W        W 6939   2.081   8.796  10.944
 2889W        W 6940   6.246   7.075   1.458
 2890W        W 6941   4.811   3.822   3.668
 2891W        W 6942   6.009   2.363   2.717
 2892W        W 6943   9.329   3.780   9.022
 2893W        W 6944   1.697   4.655   2.054
 2894W        W 6945   4.761   2.220   9.124
 2895W        W 6946   2.189   6.631   1.146
 2896W        W 6947   0.012   7.576  10.660
 2897W        W 6948   3.887   9.278   2.881
 2898W        W 6949   1.962   4.157   2.334
 2899W        W 6950   5.128   2.207   4.027
 2900W        W 6951  10.074   2.225  10.043
 2901W        W 6952   3.429  10.260   2.148
 2902W        W 6953   3.755  10.872   3.168
 2903W        W 6954   7.082   9.163  10.592
 2904W        W 6955   7.946   2.790   2.300
 2905W        W 6956   7.123   3.777  10.758
 2906W        W 6957  10.875   2.596   0.234
 2907W        W 6958   7.192   9.596  10.350
 2908W        W 6959   2.242   9.967   2.289
 2909W        W 6960   4.088   6.497   2.020
 2910W        W 6961   7.636   4.714   1.873
 2911W        W 6962   0.391   1.356   8.955
 2912W        W 6963   0.879   3.749   2.023
 2913W        W 6964  11.278   6.271   2.340
 2914W        W 6965   6.736   8.985   2.236
 2915W        W 6966   2.123   0.724  10.874
 2916W        W 6967   2.873   4.685   8.704
 2917W        W 6968  11.010  10.482   9.857
 2918W        W 6969   7.573   3.625   9.929
 2919W        W 6970   0.699   3.095  11.908
 2920W        W 6971   7.479  10.282   3.169
 2921W        W 6972   4.179   3.344   1.791
 2922W        W 6973  10.911   9.525  10.139
 2923W        W 6974   9.587   8.469   3.223
 2924W        W 6975  11.001   4.512   8.862
 2925W        W 6976   8.355   9.351   0.836
 2926W        W 6977   0.952   0.144   9.698
 2927W        W 6978   9.036   4.794   0.247
 2928W        W 6979   6.675   3.912   1.212
 2929W        W 6980   5.169   5.972   1.907
 2930W        W 6981   1.012   3.056   3.101
 2931W        W 6982  10.397   5.374   8.344
 2932W        W 6983   0.973   7.955   0.079
 2933W        W 6984   7.571   3.635  10.963
 2934W        W 6985  11.236   0.255  10.572
 2935W        W 6986   1.907   8.384   2.658
 2936W        W 6987   1.801   3.690   1.591
 2937W        W 6988   8.344   4.767   0.012
 2938W        W 6989   4.751  11.192  11.118
 2939W        W 6990   0.924   3.137   1.497
 2940W        W 6991   7.286   9.983   2.764
 2941W        W 6992   6.788   4.071  11.451
 2942W        W 6993   3.298   2.790   9.641
 2943W        W 6994   1.127   1.908  10.841
 2944W        W 6995   0.632   9.314   9.493
 2945W        W 6996   1.834   8.288   0.323
 2946W        W 6997   7.403   4.821   1.424
 2947W        W 6998   5.404   7.033  11.803
 2948W        W 6999   4.670   3.472   1.311
 2949W        W 7000   0.762   5.133  10.433
 2950W        W 7001   9.922   3.179   3.351
 2951W        W 7002   1.688   8.092   9.392
 2952W        W 7003   3.113   4.732   3.346
 2953W        W 7004   9.814   1.956   0.788
 2954W        W 7005   0.712  10.120   0.897
 2955W        W 7006   2.765   8.369   9.660
 2956W        W 7007   3.732   7.971   9.937
 2957W        W 7008   8.690   3.059   2.708
 2958W        W 7009  10.526   8.306   9.972
 2959W        W 7010   0.321   1.728   3.421
 2960W        W 7011   1.714   9.999   9.747
 2961W        W 7012   2.740   4.766   3.690
 2962W        W 7013   9.856   9.861   9.919
 2963W        W 7014   0.014   0.187   1.385
 2964W        W 7015   6.627   4.551   2.018
 2965W        W 7016   1.721  11.494  11.552
 2966W        W 7017   5.010   4.400   9.529
 2967W        W 7018   5.179   9.041   3.397
 2968W        W 7019   8.152   3.045   3.608
 2969W        W 7020   7.653   6.596   8.974
 2970W        W 7021   7.138   7.455   2.627
 2971W        W 7022  10.262  10.422   2.775
 2972W        W 7023   7.146   4.199  11.009
 2973W        W 7024   9.759   3.656   3.548
 2974W        W 7025   2.737   0.770   1.697
 2975W        W 7026   8.621   8.926   0.745
 2976W        W 7027   5.019   3.162   1.852
 2977W        W 7028   3.168   0.739   1.275
 2978W        W 7029   4.806  10.694  11.220
 2979W        W 7030   2.400   5.340   4.172
 2980W        W 7031   7.117   0.477   0.804
 2981W        W 7032   2.806   6.119  11.482
 2982W        W 7033   2.140   0.749   9.995
 2983W        W 7034   1.840  10.023   8.871
 2984W        W 7035  10.761   8.596  10.338
 2985W        W 7036   0.557   5.024   8.366
 2986W        W 7037   4.157   2.643   9.519
 2987W        W 7038   7.131   6.396   3.972
 2988W        W 7039   7.480   9.068   1.772
 2989W        W 7040   3.216   6.600  10.741
 2990W        W 7041   0.968   4.380  11.223
 2991W        W 7042   2.279   3.761  10.271
 2992W        W 7043  11.340  10.994   3.347
 2993W        W 7044   9.865  10.892   3.346
 2994W        W 7045   5.941   0.932  10.348
 2995W        W 7046   1.247   7.677   0.833
 2996W        W 7047   7.024   7.015   1.551
 2997W        W 7048  10.771   6.055  10.310
 2998W        W 7049   8.658   0.459   9.429
 2999W        W 7050   4.746   4.742  10.986
 3000W        W 7051   9.638   3.631   1.657
 3001W        W 7052   9.401   6.459   2.081
 3002W        W 7053   5.755   9.897   2.323
 3003W        W 7054   8.533   7.885  11.039
 3004W        W 7055   4.676   3.618   0.551
 3005W        W 7056   3.727   3.528  10.427
 3006W        W 7057   9.136   2.778  10.376
 3007W        W 7058   4.261   7.781   0.426
 3008W        W 7059   0.700   1.603   9.504
 3009W        W 7060  10.445   0.459   0.574
 3010W        W 7061   0.280   5.850   9.419
 3011W        W 7062   1.072   8.140   8.955
 3012W        W 7063   9.051   1.734  11.406
 3013W        W 7064   8.920   9.138   1.541
 3014W        W 7065   4.580   0.229   0.884
 3015W        W 7066   1.355   3.664   0.217
 3016W        W 7067   9.249   5.696   3.250
 3017W        W 7068   8.355   8.958   9.847
 3018W        W 7069   4.070   7.405   0.754
 3019W        W 7070   9.051   2.259   1.157
 3020W        W 7071   8.465   4.402   2.367
 3021W        W 7072   5.991  10.454   0.647
 3022W        W 7073  11.289   1.812   1.667
 3023W        W 7074   7.182   4.808   2.138
 3024W        W 7075   2.101   4.286   3.219
 3025W        W 7076   3.258  10.832  10.385
 3026W        W 7077   0.844   5.323  11.377
 3027W        W 7078   5.579   2.838   9.994
 3028W        W 7079   1.697   1.609   3.081
 3029W        W 7080   4.466   7.666   1.015
 3030W        W 7081   1.768   6.016   9.387
 3031W        W 7082   4.216   7.561  11.888
 3032W        W 7083  10.799   9.006   3.369
 3033W        W 7084   4.016   6.677  10.373
 3034W        W 7085   6.141   7.838   2.680
 3035W        W 7086   5.425   1.908   8.576
 3036W        W 7087   0.591   3.416   1.765
 3037W        W 7088   3.648   1.333   3.311
 3038W        W 7089  10.992   1.019   2.534
 3039W        W 7090   4.733   8.162   0.312
 3040W        W 7091   7.450   4.044   9.670
 3041W        W 7092   7.049   6.761   3.582
 3042W        W 7093   8.674   6.519   3.116
 3043W        W 7094   5.909   5.997   0.350
 3044W        W 7095  10.502  10.773   1.856
 3045W        W 7096   4.830   1.981  11.538
 3046W        W 7097   1.467  10.344   9.067
 3047W        W 7098   8.053   3.274   1.589
 3048W        W 7099   6.334  10.779   2.306
 3049W        W 7100   5.463   8.320   9.081
 3050W        W 7101   3.236   9.278   4.133
 3051W        W 7102   2.142   5.630   3.847
 3052W        W 7103   3.968  11.018   1.246
 3053W        W 7104   7.059   3.236   0.081
 3054W        W 7105   7.869   0.765  10.058
 3055W        W 7106  10.058  10.279   8.601
 3056W        W 7107  11.454   4.144   2.000
 3057W        W 7108  10.002   3.439   2.910
 3058W        W 7109   6.738   7.338  11.917
 3059W        W 7110   2.588   0.865   9.028
 3060W        W 7111   2.497   9.640   2.598
 3061W        W 7112   0.871   6.808   2.749
 3062W        W 7113   1.407   1.253  11.944
 3063W        W 7114  11.355   1.305  11.512
 3064W        W 7115   2.055   4.861   9.831
 3065W        W 7116   3.236   5.067   8.672
 3066W        W 7117   5.068   3.901  10.351
 3067W        W 7118   1.167   1.242   1.356
 3068W        W 7119   9.964   2.246   9.053
 3069W        W 7120   7.465   5.000   9.686
 3070W        W 7121   8.950   9.151   3.010
 3071W        W 7122   2.209   9.995   9.852
 3072W        W 7123   4.525  11.106   2.143
 3073W        W 7124   6.695   7.791   0.141
 3074W        W 7125   1.724   8.678  11.389
 3075W        W 7126   8.517  10.713   1.916
 3076W        W 7127   9.946   1.492   1.691
 3077W        W 7128   7.890   3.700   2.404
 3078W        W 7129  10.938   3.076   0.006
 3079W        W 7130   1.598   7.399   3.445
 3080W        W 7131   7.574   6.576   2.476
 3081W        W 7132   9.605   6.601   3.086
 3082W        W 7133   8.393   0.648   1.687
 3083W        W 7134   8.349   0.142  10.381
 3084W        W 7135  11.393   8.050   8.777
 3085W        W 7136   3.063   7.012   2.881
 3086W        W 7137   9.908   0.872   3.114
 3087W        W 7138   2.108   1.274  10.047
 3088W        W 7139   1.605   4.524   2.535
 3089W        W 7140   3.683   9.950   9.802
 3090W        W 7141   0.715  10.572   0.600
 3091W        W 7142   5.177  11.045   3.460
 3092W        W 7143   0.048   8.338   1.525
 3093W        W 7144   8.008   1.980   1.209
 3094W        W 7145   1.186   3.205   0.050
 3095W        W 7146   7.558  11.496   0.660
 3096W        W 7147  11.197   2.221   1.357
 3097W        W 7148   6.792   8.613  10.750
 3098W        W 7149   3.808   3.726   0.743
 3099W        W 7150   8.687   1.406   9.221
 3100W        W 7151  10.883   5.079   3.152
 3101W        W 7152   9.432   8.405  10.976
 3102W        W 7153   4.679   1.757   2.737
 3103W        W 7154   6.290   7.272   3.604
 3104W        W 7155   5.923   6.165   2.194
 3105W        W 7156   0.306   8.748   8.763
 3106W        W 7157   2.939  10.906  10.806
 3107W        W 7158   6.848   2.379   0.325
 3108W        W 7159  11.311   0.765   3.650
 3109W        W 7160   4.073   7.066  11.716
 3110W        W 7161   9.742   1.419  11.988
 3111W        W 7162   1.494   7.787   3.098
 3112W        W 7163   3.842   2.779  10.883
 3113W        W 7164   3.289   4.740   9.080
 3114W        W 7165   2.289  10.554   2.948
 3115W        W 7166   5.545   3.571   3.896
 3116W        W 7167   9.470   3.351   9.253
 3117W        W 7168   6.240  10.712   8.940
 3118W        W 7169   1.325   3.583   2.322
 3119W        W 7170   1.009   3.289   9.153
 3120W        W 7171   6.285   8.776  10.811
 3121W        W 7172   5.510   5.554  11.417
 3122W        W 7173   1.807   2.723   2.261
 3123W        W 7174   1.016   8.471   0.710
 3124W        W 7175   3.851   9.484   2.418
 3125W        W 7176   5.208   2.571  10.228
 3126W        W 7177  10.665   4.377   0.242
 3127W        W 7178   4.021   4.942   8.207
 3128W        W 7179   2.767   4.630   9.206
 3129W        W 7180   1.654   5.142  10.316
 3130W        W 7181   8.887   9.618  11.873
 3131W        W 7182   9.937   0.740  10.538
 3132W        W 7183   2.907  10.875   2.587
 3133W        W 7184   8.936  10.998  10.838
 3134W        W 7185   7.120   8.453   2.961
 3135W        W 7186   4.315   8.113   1.323
 3136W        W 7187   4.223   9.836   2.260
 3137W        W 7188   0.967   9.336   9.906
 3138W        W 7189   1.271   8.807   8.905
 3139W        W 7190   9.841   3.619   9.937
 3140W        W 7191   4.204   3.527   9.246
 3141W        W 7192   9.435   9.988  10.300
 3142W        W 7193   8.880   9.463   8.649
 3143W        W 7194   7.664   8.144   2.530
 3144W        W 7195   1.357   8.388   1.474
 3145W        W 7196   8.659   2.619  11.009
 3146W        W 7197  11.343   9.345   1.318
 3147W        W 7198  10.697   6.053   0.880
 3148W        W 7199   1.883   7.915  10.534
 3149W        W 7200   1.918   0.813   2.193
 3150W        W 7201  10.350   9.412   2.710
 3151W        W 7202   2.722  11.276   9.336
 3152W        W 7203   4.193   0.941  11.836
 3153W        W 7204  10.286   8.586   0.973
 3154W        W 7205   6.672   7.710   2.675
 3155W        W 7206   3.626   0.440   1.342
 3156W        W 7207  10.764   4.809  11.228
 3157W        W 7208   3.185   6.378   0.319
 3158W        W 7209   6.724  11.456  11.346
 3159W        W 7210   1.174   1.682   8.483
 3160W        W 7211   3.905   8.794  11.454
 3161W        W 7212  10.446   4.658   1.381
 3162W        W 7213   5.316   6.510  11.772
 3163W        W 7214   5.179   0.726  11.282
 3164W        W 7215   1.314  11.039   0.374
 3165W        W 7216   3.206   3.860   1.371
 3166W        W 7217  11.289   5.745   8.654
 3167W        W 7218  10.402   2.983   9.083
 3168W        W 7219   1.420   0.172   2.988
 3169W        W 7220   6.287   7.678   3.158
 3170W        W 7221   7.878   4.152   0.701
 3171W        W 7222   6.750   3.687   3.302
 3172W        W 7223   3.858   6.589  11.774
 3173W        W 7224  10.713   5.677  11.405
 3174W        W 7225   4.816   9.874   9.683
 3175W        W 7226   4.097   0.925   1.218
 3176W        W 7227   9.662   4.323   3.347
 3177W        W 7228   8.528   8.716  10.586
 3178W        W 7229   0.098   9.012  10.241
 3179W        W 7230   0.753   6.368   0.848
 3180W        W 7231   4.203   9.019   3.183
 3181W        W 7232   6.248   0.154   0.500
 3182W        W 7233   5.881   3.292   3.076
 3183W        W 7234   2.264   5.269   3.002
 3184W        W 7235   6.456   5.881  10.542
 3185W        W 7236  10.335   7.311   9.881
 3186W        W 7237   9.845   5.730   0.550
 3187W        W 7238   3.554   8.443   0.624
 3188W        W 7239   8.477  10.088   0.727
 3189W        W 7240   9.188   6.559   3.416
 3190W        W 7241   9.159   8.028   8.536
 3191W        W 7242   1.982   2.719   0.207
 3192W        W 7243   1.665  10.057  10.304
 3193W        W 7244   4.483  10.937   1.265
 3194W        W 7245   6.232   5.727  10.093
 3195W        W 7246  10.595   3.643  11.771
 3196W        W 7247   9.997   1.787   8.782
 3197W        W 7248   9.952   6.116   3.583
 3198W        W 7249   6.953   1.375  10.959
 3199W        W 7250   0.277   2.949   3.168
 3200W        W 7251   8.478   5.831   0.698
 3201W        W 7252   8.880   5.453   1.470
 3202W        W 7253   3.322   2.727  10.167
 3203W        W 7254   4.602   6.728   9.092
 3204W        W 7255   8.487   7.458   9.832
 3205W        W 7256   3.660  10.173   8.949
 3206W        W 7257  10.716   9.487   9.295
 3207W        W 7258  11.392   8.367   0.236
 3208W        W 7259  10.930   7.054  10.272
 3209W        W 7260   3.611   1.361  11.156
 3210W        W 7261   2.058   4.489   3.701
 3211W        W 7262   3.124  10.371  11.159
 3212W        W 7263  11.243   9.373   0.207
 3213W        W 7264   8.008   7.905   0.311
 3214W        W 7265   5.772   0.529  10.661
 3215W        W 7266   0.441   8.190   1.172
 3216W        W 7267   1.281   4.352   1.927
 3217W        W 7268   2.078   5.090   8.080
 3218W        W 7269   3.995   7.925   2.337
 3219W        W 7270   7.044  10.805   1.714
 3220W        W 7271   9.402   9.911   1.910
 3221W        W 7272   3.439   4.331   2.388
 3222W        W 7273   1.672   0.539   9.084
 3223W        W 7274   0.333   3.479   8.912
 3224W        W 7275   8.033   7.642  10.013
 3225W        W 7276   9.179   1.462  10.988
 3226W        W 7277   0.779   1.257   0.987
 3227W        W 7278   3.761  10.963   2.640
 3228W        W 7279   7.379   2.437  11.311
 3229W        W 7280   4.155   4.651   2.299
 3230W        W 7281   2.840  10.258   3.436
 3231W        W 7282  10.996   9.671   1.145
 3232W        W 7283   3.108  10.420  10.654
 3233W        W 7284   5.866   1.715   2.497
 3234W        W 7285   2.884  10.073   1.059
 3235W        W 7286   9.779   4.798   3.214
 3236W        W 7287  10.844  11.328   2.692
 3237W        W 7288   6.747   1.277  11.431
 3238W        W 7289  11.065  10.374   2.347
 3239W        W 7290   0.986  11.290  10.461
 3240W        W 7291   9.281  11.371   1.434
 3241W        W 7292   0.920   6.991  11.382
 3242W        W 7293   9.333   1.930  10.546
 3243W        W 7294   5.470   1.421  10.945
 3244W        W 7295   1.698   1.989   2.754
 3245W        W 7296   7.783  10.108   2.792
 3246W        W 7297   3.228   7.313   9.055
 3247W        W 7298   4.819   8.244   2.124
 3248W        W 7299   2.755  10.563   1.074
 3249W        W 7300   8.667   2.095   1.821
 3250W        W 7301   5.707   5.125  11.101
 3251W        W 7302   0.690   3.256   0.988
 3252W        W 7303   6.585   1.223   1.952
 3253W        W 7304   0.777   4.039   9.520
 3254W        W 7305   6.986  10.007  10.556
 3255W        W 7306  10.910   8.538   2.205
 3256W        W 7307   3.590   7.535  10.752
 3257W        W 7308   0.260   2.614   0.551
 3258W        W 7309   9.030   1.904   1.512
 3259W        W 7310   0.480   9.519   9.935
 3260W        W 7311   0.734   5.779  11.590
 3261W        W 7312   1.465   1.956   0.250
 3262W        W 7313   9.499   2.884  11.998
 3263W        W 7314   4.857   9.574   1.492
 3264W        W 7315   2.515   7.581  10.240
 3265W        W 7316   6.547   6.730  10.751
 3266W        W 7317   0.407   4.809   9.329
 3267W        W 7318   9.039   9.998  10.618
 3268W        W 7319   2.856   7.191   1.427
 3269W        W 7320   7.044   3.578   1.740
 3270W        W 7321   1.009   0.948  11.811
 3271W        W 7322   9.969   1.283  11.576
 3272W        W 7323   1.709   5.700  10.812
 3273W        W 7324   5.417  11.384  10.344
 3274W        W 7325  10.535   4.561   9.096
 3275W        W 7326   0.306   7.170  10.793
 3276W        W 7327   5.370  10.370   9.737
 3277W        W 7328   1.399   0.808  11.512
 3278W        W 7329   9.854   9.359  10.135
 3279W        W 7330   2.714   2.622   9.154
 3280W        W 7331   4.994   5.369  11.322
 3281W        W 7332   1.718   4.781  11.918
 3282W        W 7333   8.891   2.918   0.779
 3283W        W 7334   4.487   7.850   2.196
 3284W        W 7335  11.449   0.796   1.382
 3285W        W 7336   6.715   7.975  10.500
 3286W        W 7337  11.263   1.597   9.789
 3287W        W 7338   4.813   9.358   9.811
 3288W        W 7339   1.788   8.930   2.735
 3289W        W 7340   8.115   8.458   1.449
 3290W        W 7341   4.132   4.690   1.296
 3291W        W 7342   0.863   9.762   9.543
 3292W        W 7343   0.954   6.415   2.412
 3293W        W 7344  10.376   8.397   2.670
 3294W        W 7345  10.907   5.718   1.212
 3295W        W 7346  10.074   5.320   2.159
 3296W        W 7347   5.804   1.243   2.953
 3297W        W 7348   9.493   8.924  11.858
 3298W        W 7349   1.245   6.689   9.201
 3299W        W 7350   5.241   5.124   1.019
 3300W        W 7351   1.248   2.514   3.331
 3301W        W 7352   5.300   2.538   2.843
 3302W        W 7353   2.275   4.769   0.679
 3303W        W 7354   1.946  10.888  10.757
 3304W        W 7355   2.247  11.234   0.760
 3305W        W 7356   0.299   9.032   9.763
 3306W        W 7357   1.220  11.314  10.014
 3307W        W 7358  11.155   6.149   8.939
 3308W        W 7359   3.648   1.812   3.133
 3309W        W 7360   3.230   8.534   9.427
 3310W        W 7361   0.103   2.891   9.507
 3311W        W 7362   6.481   3.305   0.475
 3312W        W 7363   4.992  11.033   2.461
 3313W        W 7364   2.786   0.219   9.612
 3314W        W 7365   0.838   5.809   0.083
 3315W        W 7366   2.020   8.014  11.039
 3316W        W 7367   8.813   0.796   9.808
 3317W        W 7368   2.357   1.365   2.857
 3318W        W 7369   9.550   7.139   0.303
 3319W        W 7370   7.310   9.041   8.427
 3320W        W 7371   0.081  10.554   1.905
 3321W        W 7372   1.790  10.323  10.793
 3322W        W 7373   0.802   7.288  10.982
 3323W        W 7374   8.086   4.234   2.654
 3324W        W 7375   0.508   2.789   2.393
 3325W        W 7376   8.263   6.683  11.883
 3326W        W 7377   6.899   2.738   1.787
 3327W        W 7378   5.740   5.618  10.952
 3328W        W 7379  11.197   0.763   8.887
 3329W        W 7380   4.761   7.984   9.759
 3330W        W 7381   4.364  10.858  11.088
 3331W        W 7382   3.203   0.941   9.601
 3332W        W 7383   2.449   2.811   0.052
 3333W        W 7384  10.343   3.151   9.569
 3334W        W 7385   3.415   4.650  11.620
 3335W        W 7386   3.948   8.747  10.944
 3336W        W 7387   2.687   7.297   2.700
 3337W        W 7388   3.529   5.519   8.717
 3338W        W 7389   9.502   8.026   9.076
 3339W        W 7390   8.107   0.778  10.868
 3340W        W 7391   8.217  10.529  10.286
 3341W        W 7392   5.174  11.473   8.971
 3342W        W 7393   9.113  10.887  10.330
 3343W        W 7394  10.791   7.991  11.195
 3344W        W 7395   0.688   2.589   9.786
 3345W        W 7396   1.835  10.582   1.282
 3346W        W 7397  11.070   4.467   3.653
 3347W        W 7398  11.300   3.126   3.147
 3348W        W 7399   2.437   7.182   8.988
 3349W        W 7400   6.508   4.347   9.600
 3350W        W 7401   1.885   3.799   0.907
 3351W        W 7402   9.499   4.562   1.444
 3352W        W 7403   7.984   9.847  11.778
 3353W        W 7404   7.551   7.693   0.436
 3354W        W 7405   5.050   6.497   0.268
 3355W        W 7406   6.417   4.035   8.621
 3356W        W 7407  10.262   9.159  10.371
 3357W        W 7408  11.290   6.556   0.277
 3358W        W 7409   6.542  10.906  10.321
 3359W        W 7410   5.084  11.325  10.755
 3360W        W 7411   4.705   4.173   9.946
 3361W        W 7412   4.665   9.223   1.828
 3362W        W 7413   8.828   6.596   0.763
 3363W        W 7414   2.493   3.229  11.740
 3364W        W 7415   8.773   7.992   9.511
 3365W        W 7416   6.469   2.907   9.020
 3366W        W 7417   3.733   5.697  10.812
 3367W        W 7418   3.177   1.418   9.831
 3368W        W 7419  10.190   7.804   2.174
 3369W        W 7420   9.880   7.021   3.246
 3370W        W 7421   7.402   5.700   1.811
 3371W        W 7422   2.680  10.434  10.924
 3372W        W 7423   2.183  10.481  11.071
 3373W        W 7424   5.190  10.238  11.936
 3374W        W 7425   8.933   6.685   2.471
 3375W        W 7426   2.035   8.870   3.552
 3376W        W 7427   9.555   2.650  11.550
 3377W        W 7428  11.422  10.291  10.129
 3378W        W 7429   3.103   1.852   3.034
 3379W        W 7430   4.923   5.667  10.532
 3380W        W 7431   4.642   3.423   9.514
 3381W        W 7432   8.069   1.042  11.359
 3382W        W 7433   0.831   9.275  11.400
 3383W        W 7434   7.381   3.619   2.655
 3384W        W 7435   1.671   6.704   8.891
 3385W        W 7436   3.799   9.762  11.284
 3386W        W 7437   5.281   0.653   9.437
 3387W        W 7438   5.805   5.240   9.255
 3388W        W 7439   7.559   9.496   9.522
 3389W        W 7440   3.026  10.340   1.829
 3390W        W 7441   9.674   0.542  10.948
 3391W        W 7442   3.736   3.342   2.691
 3392W        W 7443   8.194   5.915   9.456
 3393W        W 7444   6.931   6.440  10.959
 3394W        W 7445   2.586   8.798  11.974
 3395W        W 7446   3.723   5.057   8.826
 3396W        W 7447   2.283   1.398   0.505
 3397W        W 7448  11.063   0.874   1.715
 3398W        W 7449   7.975   0.792   0.514
 3399W        W 7450   9.515   5.528   0.218
 3400W        W 7451   5.757   7.659  11.485
 3401W        W 7452   6.743   9.537   8.002
 3402W        W 7453   4.456   8.123   0.803
 3403W        W 7454   8.859   6.232   2.712
 3404W        W 7455   0.415   4.528   0.186
 3405W        W 7456   6.224  10.261   9.194
 3406W        W 7457   8.517   7.089   2.546
 3407W        W 7458   2.620   9.207  10.417
 3408W        W 7459   1.918   7.076  10.254
 3409W        W 7460   3.598   3.811   2.502
 3410W        W 7461   3.383   5.432   0.473
 3411W        W 7462   6.075   5.405   1.944
 3412W        W 7463   4.024   0.897   1.734
 3413W        W 7464   7.294   2.321   3.472
 3414W        W 7465   5.761  10.875  10.982
 3415W        W 7466  11.313   8.174   9.807
 3416W        W 7467   0.726   5.985   2.605
 3417W        W 7468   5.785   8.607   2.143
 3418W        W 7469   0.660   3.360   2.280
 3419W        W 7470   7.448   3.336  11.372
 3420W        W 7471   6.049  11.454   3.214
 3421W        W 7472   5.167   1.228  10.578
 3422W        W 7473   7.402   8.519   0.281
 3423W        W 7474   1.756  10.065   0.976
 3424W        W 7475   3.798   7.011   3.252
 3425W        W 7476  11.148   8.475   1.208
 3426W        W 7477   4.575   6.196  11.759
 3427W        W 7478   1.673   4.288   0.810
 3428W        W 7479   8.096   4.636   1.187
 3429W        W 7480   6.789   4.038   2.728
 3430W        W 7481   9.063   3.269   1.438
 3431W        W 7482  10.651   7.893  10.700
 3432W        W 7483   0.162   1.081   9.917
 3433W        W 7484   9.296  10.393   8.977
 3434W        W 7485   7.968   8.233   9.345
 3435W        W 7486   8.006   0.956   1.807
 3436W        W 7487   6.127   6.723   3.133
 3437W        W 7488   4.530   1.282   0.875
 3438W        W 7489  11.478  10.769   9.948
 3439W        W 7490  11.327   6.489   2.824
 3440W        W 7491   4.539   1.649   8.504
 3441W        W 7492   2.317   3.864   9.195
 3442W        W 7493   8.865   9.865  11.427
 3443W        W 7494   1.926   5.943   0.685
 3444W        W 7495   2.933   9.070   0.327
 3445W        W 7496   2.300   1.047   9.593
 3446W        W 7497   5.152   0.800   1.276
 3447W        W 7498   9.307   1.338   1.166
 3448W        W 7499   8.419  10.865  10.948
 3449W        W 7500   0.326   5.746   0.080
 3450W        W 7501   6.646   4.222  10.935
 3451W        W 7502   2.353  11.338   1.402
 3452W        W 7503   3.738   1.403  10.652
 3453W        W 7504   4.158   1.318   3.361
 3454W        W 7505   8.886   9.941  10.114
 3455W        W 7506   6.926   2.317   8.598
 3456W        W 7507   1.046   2.512   9.430
 3457W        W 7508   9.289   4.308   8.423
 3458W        W 7509   3.760   1.263   9.180
 3459W        W 7510   4.662   3.325   3.630
 3460W        W 7511   8.425  10.317   9.446
 3461W        W 7512   0.738   7.095   3.150
 3462W        W 7513   4.488   0.132  11.037
 3463W        W 7514   4.363   6.628   2.458
 3464W        W 7515   5.599   7.911   1.464
 3465W        W 7516   4.983   3.886   3.180
 3466W        W 7517   6.208  10.242   2.179
 3467W        W 7518   5.550   3.064   1.187
 3468W        W 7519   0.326   2.141   2.551
 3469W        W 7520  10.868   2.107   0.402
 3470W        W 7521   7.005   6.493   1.640
 3471W        W 7522   4.614   0.935  10.589
 3472W        W 7523   5.229   2.086  10.011
 3473W        W 7524   8.073   7.867  11.321
 3474W        W 7525   6.437   7.657   4.047
 3475W        W 7526   8.141   6.177  11.864
 3476W        W 7527   8.795   4.804   3.391
 3477W        W 7528   1.899   1.695   0.336
 3478W        W 7529  11.170   3.346   1.762
 3479W        W 7530  11.012  10.884   8.963
 3480W        W 7531   3.713   8.015   1.447
 3481W        W 7532   9.159   1.699   2.421
 3482W        W 7533   0.244   1.867   9.432
 3483W        W 7534   0.347  10.842  11.227
 3484W        W 7535   5.513  10.727   0.777
 3485W        W 7536   8.812   4.076   2.141
 3486W        W 7537   2.057   6.120   8.433
 3487W        W 7538   9.582   1.479   8.738
 3488W        W 7539   0.567   5.505   2.897
 3489W        W 7540   2.354  10.791   2.297
 3490W        W 7541   8.771   5.861   1.815
 3491W        W 7542  10.583   4.817   2.789
 3492W        W 7543   1.360   6.104   2.475
 3493W        W 7544  10.367   1.382   9.932
 3494W        W 7545   7.571   8.067   0.101
 3495W        W 7546   6.613   8.970  10.405
 3496W        W 7547   8.016   7.742   9.181
 3497W        W 7548  10.332   9.840   9.596
 3498W        W 7549   6.483   1.906   9.796
 3499W        W 7550   8.960   0.811   3.015
 3500W        W 7551   7.099   2.061  10.080
 3501W        W 7552   8.333   0.414   8.520
 3502W        W 7553   3.243   7.017   9.980
 3503W        W 7554   0.970   3.762  10.431
 3504W        W 7555   5.764   6.540   8.623
 3505W        W 7556   8.963   6.122   3.214
 3506W        W 7557   6.550   6.590   0.696
 3507W        W 7558   9.356   4.381   0.977
 3508W        W 7559   6.695   0.389   0.475
 3509W        W 7560   2.387   3.728   0.878
 3510W        W 7561  11.423   0.401  11.644
 3511W        W 7562   7.641   7.622   1.763
 3512W        W 7563   1.624   1.302  10.326
 3513W        W 7564  11.046   9.476  11.135
 3514W        W 7565   6.378   9.871   8.869
 3515W        W 7566   4.166  10.514   1.039
 3516W        W 7567   2.694  10.475  11.907
 3517W        W 7568   5.654   2.194   3.086
 3518W        W 7569   5.635   0.703   1.067
 3519W        W 7570   5.318   1.239   3.071
 3520W        W 7571   3.284   8.016  10.729
 3521W        W 7572   4.333   5.070  10.831
 3522W        W 7573   2.150   2.392   3.374
 3523W        W 7574   7.321   4.544   3.568
 3524W        W 7575   1.921   9.862   0.287
 3525W        W 7576   5.952   3.553   9.317
 3526W        W 7577   7.198   7.499  11.729
 3527W        W 7578   3.741   2.602   0.273
 3528W        W 7579   6.019   8.242   3.548
 3529W        W 7580   9.454   0.494   0.914
 3530W        W 7581   5.686   3.150   3.569
 3531W        W 7582   9.467   6.994  10.225
 3532W        W 7583   3.764   4.031   9.678
 3533W        W 7584   1.706   3.111   0.428
 3534W        W 7585   3.333   5.998   8.716
 3535W        W 7586  10.728   9.040   2.345
 3536W        W 7587   1.930   1.617  10.568
 3537W        W 7588  11.391  10.364   9.063
 3538W        W 7589   4.384   4.419  10.332
 3539W        W 7590   3.370   2.826  11.583
 3540W        W 7591   4.136   7.443  11.363
 3541W        W 7592   3.776   4.501   9.989
 3542W        W 7593   1.625   0.399  11.277
 3543W        W 7594   4.852  11.384   1.221
 3544W        W 7595   9.303   9.127   8.497
 3545W        W 7596   1.983   2.063   8.801
 3546W        W 7597   3.019   4.127   0.804
 3547W        W 7598   2.865   3.700   1.016
 3548W        W 7599   6.247   9.901   2.545
 3549W        W 7600   2.327  10.810   9.088
 3550W        W 7601  10.937   7.006   9.410
 3551W        W 7602   5.226   8.539   9.481
 3552W        W 7603  11.138   3.788  10.461
 3553W        W 7604  11.225   8.295  11.200
 3554W        W 7605   0.270   7.479   0.003
 3555W        W 7606   0.304   8.172  10.024
 3556W        W 7607   4.312   5.101   2.081
 3557W        W 7608   6.007   3.694  11.889
 3558W        W 7609   6.578   2.147  11.527
 3559W        W 7610   7.187   3.193   2.507
 3560W        W 7611  10.006   4.417   1.589
 3561W        W 7612  10.238   6.577   0.424
 3562W        W 7613   8.494   3.790  11.908
 3563W        W 7614   4.941   8.282   0.859
 3564W        W 7615   9.986   1.280  11.055
 3565W        W 7616   3.528   6.207  11.986
 3566W        W 7617   2.592   7.040   3.134
 3567W        W 7618   1.408   1.184   8.398
 3568W        W 7619   0.396   5.593   1.050
 3569W        W 7620   5.993   8.398   0.757
 3570W        W 7621  10.319   4.551   2.424
 3571W        W 7622   7.670   6.704   1.598
 3572W        W 7623   6.415   8.591   3.594
 3573W        W 7624   1.700   8.361   0.924
 3574W        W 7625   0.735   7.059   8.585
 3575W        W 7626   1.399   1.385   8.853
 3576W        W 7627   9.629   5.987   8.559
 3577W        W 7628  11.363   1.553   9.263
 3578W        W 7629   5.861   5.048   2.708
 3579W        W 7630   7.610  11.478   0.154
 3580W        W 7631   1.378  10.784   1.292
 3581W        W 7632   7.988   1.523   1.002
 3582W        W 7633   2.326  10.473   3.455
 3583W        W 7634   0.535   8.717   3.441
 3584W        W 7635  11.167  11.347   8.776
 3585W        W 7636   6.010   7.493   2.326
 3586W        W 7637  11.050   2.307   0.859
 3587W        W 7638   9.514  11.226   1.853
 3588W        W 7639   9.689   6.621   3.587
 3589W        W 7640   3.354   0.440   0.492
 3590W        W 7641   6.588   5.279   1.382
 3591W        W 7642  10.173   6.937   2.294
 3592W        W 7643   6.757   1.167  10.069
 3593W        W 7644   4.421   9.574   8.871
 3594W        W 7645   3.364   0.114   3.414
 3595W        W 7646   2.851   6.712   0.517
 3596W        W 7647   1.411   1.708   2.217
 3597W        W 7648   0.663   7.105   9.985
 3598W        W 7649   2.946   7.049  10.788
 3599W        W 7650   3.806   2.594  11.363
 3600W        W 7651   9.077  10.544   9.442
 3601W        W 7652   0.186   3.441   3.089
 3602W        W 7653   2.085   8.572   0.656
 3603W        W 7654   5.256   9.858   1.345
 3604W        W 7655   3.710   8.426  10.202
 3605W        W 7656   5.358  11.340   1.151
 3606W        W 7657   3.371   9.851   3.416
 3607W        W 7658   3.836   4.371  11.832
 3608W        W 7659   2.425   7.977  11.344
 3609W        W 7660   5.501   7.013   9.579
 3610W        W 7661   6.250   5.906   8.683
 3611W        W 7662  10.273   9.410   9.001
 3612W        W 7663   4.662   6.450  10.835
 3613W        W 7664   2.904   5.286  10.846
 3614W        W 7665   3.124   2.239   3.367
 3615W        W 7666  10.063   5.654   9.633
 3616W        W 7667   3.688   4.351  10.967
 3617W        W 7668   6.525   1.200   0.842
 3618W        W 7669  10.338   1.095   1.321
 3619W        W 7670   2.093   8.144   9.096
 3620W        W 7671   2.197   7.141   2.798
 3621W        W 7672   0.716   4.652   2.463
 3622W        W 7673   3.171   5.764  11.503
 3623W        W 7674   7.532   1.526   2.917
 3624W        W 7675   3.707   7.748   2.772
 3625W        W 7676   6.230   0.033  11.260
 3626W        W 7677   1.936   6.331  11.308
 3627W        W 7678   5.269   4.228   0.532
 3628W        W 7679   5.501   3.346   0.736
 3629W        W 7680   4.220   0.619   3.415
 3630W        W 7681   7.768   6.861   2.097
 3631W        W 7682   2.648   9.342   9.446
 3632W        W 7683   2.730   3.784  11.455
 3633W        W 7684   8.389   5.248   9.047
 3634W        W 7685   5.751   6.550   9.701
 3635W        W 7686   8.386   4.183   1.881
 3636W        W 7687   8.110   8.152  10.903
 3637W        W 7688   2.328   8.595   9.890
 3638W        W 7689   4.838   1.718   0.963
 3639W        W 7690   5.343   9.992   8.876
 3640W        W 7691   3.609  10.156   1.673
 3641W        W 7692   5.517  10.232   1.977
 3642W        W 7693   9.752   6.148   2.593
 3643W        W 7694   6.896   9.411   1.486
 3644W        W 7695   0.282   4.141   0.873
 3645W        W 7696  10.676   6.616  11.102
 3646W        W 7697   6.789   2.249   8.056
 3647W        W 7698   1.948   1.383   8.898
 3648W        W 7699   7.473   4.004   2.353
 3649W        W 7700   3.205  10.024  10.361
 3650W        W 7701   4.872   2.001   0.408
 3651W        W 7702  10.163   5.670   2.992
 3652W        W 7703   4.125   0.495   0.906
 3653W        W 7704   7.881   6.278   1.805
 3654W        W 7705  11.011   6.506   8.596
 3655W        W 7706   0.669   9.283   0.276
 3656W        W 7707   6.273   3.300  10.103
 3657W        W 7708   0.956   0.124   3.210
 3658W        W 7709   2.104   2.400   1.396
 3659W        W 7710  10.813   0.309  10.862
 3660W        W 7711   8.524   4.194   1.341
 3661W        W 7712  10.579   4.988   0.932
 3662W        W 7713   5.916   8.026   9.086
 3663W        W 7714   1.763   7.355   1.909
 3664W        W 7715   1.134   3.318   1.923
 3665W        W 7716   3.598   1.327   2.418
 3666W        W 7717   8.150   2.105  10.106
 3667W        W 7718   4.575   4.857   1.495
 3668W        W 7719   0.283  10.578  10.380
 3669W        W 7720   1.033   3.284   2.628
 3670W        W 7721   9.933   7.607  11.322
 3671W        W 7722   8.635  10.389   3.115
 3672W        W 7723   6.514   4.834  11.478
 3673W        W 7724   8.122   3.541   3.363
 3674W        W 7725  10.591   2.708   3.420
 3675W        W 7726   5.722   6.316   0.005
 3676W        W 7727   1.913   6.185  10.236
 3677W        W 7728   7.340  11.043   0.875
 3678W        W 7729   1.906   9.839  10.845
 3679W        W 7730   5.157   8.901  11.220
 3680W        W 7731   3.868   9.945  11.753
 3681W        W 7732   7.025   4.286   3.948
 3682W        W 7733   2.606   1.670  10.891
 3683W        W 7734   6.874  11.325  10.431
 3684W        W 7735  11.265  10.352   1.174
 3685W        W 7736   5.470   4.045  11.198
 3686W        W 7737   7.108   9.638   9.320
 3687W        W 7738   4.419   4.270   2.108
 3688W        W 7739  10.178   5.285   2.657
 3689W        W 7740   2.260   0.713  11.743
 3690W        W 7741   8.101   9.648  10.434
 3691W        W 7742   1.694   2.308   3.190
 3692W        W 7743   6.087   3.204   1.703
 3693W        W 7744  10.876   1.717   9.268
 3694W        W 7745   2.240   6.151   1.460
 3695W        W 7746   0.182  11.433   0.976
 3696W        W 7747   9.615   5.327   0.765
 3697W        W 7748   4.232   1.895  11.208
 3698W        W 7749  10.085   3.897   1.625
 3699W        W 7750   3.183  10.416   1.347
 3700W        W 7751   4.905   8.651   9.077
 3701W        W 7752   8.724   8.312   3.485
 3702W        W 7753   3.035   3.064  10.472
 3703W        W 7754   5.334  11.153   0.237
 3704W        W 7755   8.477   6.703  11.408
 3705W        W 7756   6.687   7.092   0.758
 3706W        W 7757   6.113   1.594   9.972
 3707W        W 7758  10.061   8.402   1.395
 3708W        W 7759   7.948   0.976   9.597
 3709W        W 7760   1.140   1.487  10.321
 3710W        W 7761   5.918   9.368   1.732
 3711W        W 7762  11.421  11.477  11.360
 3712W        W 7763   1.132   4.346   2.680
 3713W        W 7764   3.137   1.280   0.523
 3714W        W 7765   9.495   3.911   0.864
 3715W        W 7766   3.080   8.446   1.983
 3716W        W 7767   3.832   4.699   3.135
 3717W        W 7768   6.193   0.778  10.809
 3718W        W 7769   4.393   1.734   2.148
 3719W        W 7770   1.343   6.573   2.700
 3720W        W 7771  10.989  10.782   2.057
 3721W        W 7772   3.035   4.639  11.986
 3722W        W 7773   6.506   9.553  11.036
 3723W        W 7774   4.095   8.651   9.897
 3724W        W 7775  10.285   3.241  11.852
 3725W        W 7776  10.096  11.411  11.905
 3726W        W 7777   4.186   8.304   0.414
 3727W        W 7778   9.926   2.175   0.326
 3728W        W 7779   1.174   4.050   9.840
 3729W        W 7780   9.512   6.760  11.259
 3730W        W 7781   1.287   7.086   1.883
 3731W        W 7782   2.807   2.304   9.537
 3732W        W 7783   3.010   0.569   9.918
 3733W        W 7784   4.264   7.263  10.883
 3734W        W 7785   0.786  11.154   2.998
 3735W        W 7786   5.487   6.546   2.660
 3736W        W 7787   6.061   4.674  11.734
 3737W        W 7788   7.211   3.705   0.266
 3738W        W 7789  10.211   6.642   9.956
 3739W        W 7790   8.984   9.594   2.698
 3740W        W 7791   0.380   2.396   2.043
 3741W        W 7792   3.766   9.994   2.553
 3742W        W 7793  11.481   5.274   9.385
 3743W        W 7794  11.488   5.294   1.006
 3744W        W 7795   4.995   5.170  10.336
 3745W        W 7796   7.145   2.885  10.252
 3746W        W 7797   9.848   0.611   2.627
 3747W        W 7798   3.530   1.332  11.677
 3748W        W 7799  11.036   8.537  11.902
 3749W        W 7800   4.182   2.331   1.276
 3750W        W 7801   9.908   6.640   9.542
 3751W        W 7802   0.440   1.258   3.207
 3752W        W 7803   4.149   3.067   0.739
 3753W        W 7804   9.981   6.657  11.984
 3754W        W 7805   1.651   1.459   1.280
 3755W        W 7806  10.591   4.114   1.636
 3756W        W 7807   0.272   7.488   1.045
 3757W        W 7808  11.442   0.475   1.801
 3758W        W 7809   0.222   3.076   0.928
 3759W        W 7810   3.688  11.119   1.697
 3760W        W 7811   2.008   6.867   0.301
 3761W        W 7812  11.439   3.948   9.504
 3762W        W 7813  10.263   6.073  10.368
 3763W        W 7814   1.441   7.833   1.417
 3764W        W 7815  11.088   1.713  11.334
 3765W        W 7816   2.233   8.108   1.708
 3766W        W 7817   3.697   7.450   2.376
 3767W        W 7818   8.048  10.239   1.018
 3768W        W 7819   1.362   5.611   2.256
 3769W        W 7820   7.358   8.471   0.912
 3770W        W 7821   5.347   8.984   2.840
 3771W        W 7822   6.190   3.036   8.226
 3772W        W 7823   6.765   3.661  10.417
 3773W        W 7824   6.017   4.212   8.940
 3774W        W 7825   9.446   1.920  11.999
 3775W        W 7826   6.449   8.124   3.818
 3776W        W 7827   9.117   3.327   0.940
 3777W        W 7828   4.265   9.338   2.152
 3778W        W 7829   4.767  10.867  10.734
 3779W        W 7830   0.886   4.603   1.474
 3780W        W 7831   4.259   2.329  11.478
 3781W        W 7832  10.039   6.358   8.546
 3782W        W 7833   1.018   7.509  11.387
 3783W        W 7834  10.092   9.718   2.214
 3784W        W 7835   6.771   6.406   1.191
 3785W        W 7836   6.129   6.543  11.211
 3786W        W 7837   2.437   9.361   1.175
 3787W        W 7838   5.593   9.419  10.776
 3788W        W 7839   1.829   0.808   9.565
 3789W        W 7840   5.769   8.840  10.743
 3790W        W 7841   6.170   0.912   9.064
 3791W        W 7842   7.040   9.595  10.876
 3792W        W 7843   5.682   1.857  10.527
 3793W        W 7844   1.785   3.571   9.926
 3794W        W 7845   4.809   1.105   1.668
 3795W        W 7846   7.330   9.987   8.456
 3796W        W 7847   4.520   7.164   1.018
 3797W        W 7848   6.524   2.888   9.923
 3798W        W 7849  10.004   6.611  11.283
 3799W        W 7850  10.781   4.657   2.250
 3800W        W 7851   5.526   4.671   1.403
 3801W        W 7852   0.162   6.038   8.913
 3802W        W 7853   7.521  10.813   9.301
 3803W        W 7854   8.012   9.509   2.339
 3804W        W 7855   2.250  10.971   3.245
 3805W        W 7856   3.668   4.158   0.252
 3806W        W 7857   0.402   8.857  10.613
 3807W        W 7858   8.625   2.745   0.015
 3808W        W 7859   9.892   6.530   1.414
 3809W        W 7860   5.155   0.158   9.479
 3810W        W 7861   0.099   7.833   1.395
 3811W        W 7862  10.018   7.079   1.434
 3812W        W 7863   7.707   5.925  10.648
 3813W        W 7864   6.236   3.551   8.278
 3814W        W 7865   5.143   6.798   2.959
 3815W        W 7866   0.641   1.298   1.457
 3816W        W 7867   4.230  10.476   2.909
 3817W        W 7868  10.958   7.744   0.040
 3818W        W 7869   1.860   1.490  11.878
 3819W        W 7870   7.201   1.233  10.394
 3820W        W 7871  10.067   8.563   3.415
 3821W        W 7872   7.952   0.012   9.511
 3822W        W 7873  10.381   8.463  11.077
 3823W        W 7874   2.417   8.906   0.455
 3824W        W 7875   1.187   4.532   3.475
 3825W        W 7876   5.454   0.849  10.406
 3826W        W 7877   1.998  10.288   0.573
 3827W        W 7878   9.268   6.995   0.770
 3828W        W 7879   2.384   1.975   1.332
 3829W        W 7880   2.610  10.432   1.544
 3830W        W 7881   2.287   7.672   9.004
 3831W        W 7882   4.824   9.013   0.379
 3832W        W 7883   1.682   3.192  10.632
 3833W        W 7884   6.073   9.260  10.915
 3834W        W 7885   8.433   2.938   1.804
 3835W        W 7886   3.472   3.397   2.233
 3836W        W 7887   0.880   0.468  11.877
 3837W        W 7888  10.762   4.588   3.257
 3838W        W 7889   1.765   7.880   1.847
 3839W        W 7890   4.559   9.817   1.831
 3840W        W 7891  11.143   5.106   0.061
 3841W        W 7892   1.653   1.760   9.091
 3842W        W 7893   5.047   2.494   9.756
 3843W        W 7894  10.435   0.844   8.579
 3844W        W 7895   2.671   1.423   2.344
 3845W        W 7896   4.757   3.259  11.772
 3846W        W 7897   5.121   8.192  10.610
 3847W        W 7898   7.695   4.287   0.258
 3848W        W 7899   8.922   8.344   0.350
 3849W        W 7900   9.601   0.285   9.839
 3850W        W 7901   4.164   7.361   1.773
 3851W        W 7902   8.729   8.529   9.059
 3852W        W 7903   3.851   7.097  10.629
 3853W        W 7904   5.053   6.016   0.467
 3854W        W 7905   6.758   8.057   9.967
 3855W        W 7906   9.642   7.605   1.883
 3856W        W 7907   6.484   1.881   3.273
 3857W        W 7908  11.027   9.403   2.563
 3858W        W 7909   2.407   1.456  10.442
 3859W        W 7910   0.902   1.413   0.527
 3860W        W 7911   4.315  11.490   3.072
 3861W        W 7912  11.342   8.977   3.445
 3862W        W 7913   0.493   6.478   2.614
 3863W        W 7914   5.647   1.360  10.383
 3864W        W 7915   3.223   3.755   3.248
 3865W        W 7916   7.155   3.600   9.549
 3866W        W 7917   8.672   1.827   2.275
 3867W        W 7918   1.853   2.487   2.733
 3868W        W 7919   3.209   0.965   1.732
 3869W        W 7920   2.705   2.771   2.961
 3870W        W 7921  10.386   6.981   1.791
 3871W        W 7922   9.856   4.303   2.308
 3872W        W 7923   0.968   5.956   2.166
 3873W        W 7924   0.837   1.064   9.516
 3874W        W 7925   5.690   5.165   1.278
 3875W        W 7926   6.796   2.353   1.488
 3876W        W 7927   7.063   6.692  10.518
 3877W        W 7928   0.100   7.185   2.125
 3878W        W 7929   2.654   9.670   0.787
 3879W        W 7930   4.234   5.208   0.013
 3880W        W 7931  11.067   2.802  11.240
 3881W        W 7932   1.231   5.624  11.567
 3882W        W 7933   5.139   7.752  11.017
 3883W        W 7934   4.430   2.062   1.671
 3884W        W 7935   5.717   8.533   2.785
 3885W        W 7936   9.414   5.631  10.826
 3886W        W 7937   4.100   7.088   9.772
 3887W        W 7938  11.303   3.361   8.683
 3888W        W 7939   8.653   2.822  10.501
 3889W        W 7940   8.422   8.514   8.618
 3890W        W 7941   4.928   2.486   0.212
 3891W        W 7942   3.939   7.931   9.450
 3892W        W 7943   3.248   2.883   2.203
 3893W        W 7944  10.770  10.027  10.500
 3894W        W 7945   2.919   9.968   9.145
 3895W        W 7946   1.203   6.604   3.212
 3896W        W 7947   7.652   0.226   3.385
 3897W        W 7948   3.376   6.656  11.224
 3898W        W 7949  10.906   1.805   3.190
 3899W        W 7950   4.114   1.323   2.362
 3900W        W 7951   6.461   2.462   8.388
 3901W        W 7952   3.729   7.195   1.494
 3902W        W 7953   1.117   6.984   1.368
 3903W        W 7954   3.719  11.461  10.501
 3904W        W 7955   2.207   4.626  10.295
 3905W        W 7956   3.880   1.368   1.385
 3906W        W 7957   7.886   8.551   0.929
 3907W        W 7958   5.469   1.188   1.145
 3908W        W 7959  11.422   3.758   1.623
 3909W        W 7960   0.479   5.364   9.365
 3910W        W 7961   5.234  10.908  11.071
 3911W        W 7962   7.029   9.482  11.751
 3912W        W 7963   1.867   0.273   2.211
 3913W        W 7964  11.295   2.518   9.295
 3914W        W 7965   0.799   1.768   0.938
 3915W        W 7966   7.113   2.156  11.926
 3916W        W 7967   5.336   5.160   0.500
 3917W        W 7968   1.811   3.883  10.972
 3918W        W 7969   0.291   1.304   9.456
 3919W        W 7970   5.908   9.620   1.257
 3920W        W 7971   5.087   3.027   2.739
 3921W        W 7972   1.237   2.270  11.186
 3922W        W 7973   7.991   4.658   0.679
 3923W        W 7974   9.623   2.387  11.973
 3924W        W 7975  11.402   6.586   3.413
 3925W        W 7976   2.756   0.727   9.489
 3926W        W 7977  10.899   3.596   8.972
 3927W        W 7978   8.551   3.839   3.309
 3928W        W 7979   5.259   2.755   0.500
 3929W        W 7980   2.179   1.335  11.519
 3930W        W 7981   2.427   8.335   2.555
 3931W        W 7982   0.182   0.780  11.453
 3932W        W 7983  11.132   1.632  10.829
 3933W        W 7984   1.484   1.853  10.451
 3934W        W 7985   2.892   6.926   9.035
 3935W        W 7986   2.987   8.311   2.456
 3936W        W 7987  10.565   7.795   3.403
 3937W        W 7988   3.445  10.641   1.782
 3938W        W 7989   2.431   9.857   1.227
 3939W        W 7990   0.720   1.168  10.824
 3940W        W 7991  11.243  10.605  11.978
 3941W        W 7992  11.169   7.914  11.555
 3942W        W 7993   5.286  10.071   2.719
 3943W        W 7994   6.113   4.757   0.726
 3944W        W 7995  11.494   4.904   1.313
 3945W        W 7996   6.555   0.842   8.728
 3946W        W 7997   3.598   6.159   0.492
 3947W        W 7998   8.461   4.012   9.967
 3948W        W 7999   2.870   9.092   1.242
 3949W        W 8000   9.883   2.931   8.383
 3950W        W 8001   8.434   4.291  11.844
 3951W        W 8002   8.801   2.529   2.077
 3952W        W 8003   7.655   0.833  11.106
 3953W        W 8004   8.244   6.445  10.092
 3954W        W 8005   9.156   1.275   8.981
 3955W        W 8006   8.337   6.970  10.777
 3956W        W 8007   9.253   6.771   8.140
 3957W        W 8008   2.964   0.429   3.400
 3958W        W 8009   9.538   6.279   9.074
 3959W        W 8010  10.323   9.327   1.384
 3960W        W 8011   8.963   8.086   9.010
 3961W        W 8012   4.994   4.737   1.232
 3962W        W 8013   2.820   5.902  10.189
 3963W        W 8014   6.197   4.230   0.473
 3964W        W 8015   5.633   3.871   9.042
 3965W        W 8016   3.662   2.528   2.055
 3966W        W 8017   2.587   9.552   3.085
 3967W        W 8018   0.550   9.957  11.150
 3968W        W 8019   7.867   2.401  10.450
 3969W        W 8020   4.207  10.041   8.820
 3970W        W 8021   2.687   0.563  10.328
 3971W        W 8022   3.453  10.131  11.480
 3972W        W 8023   9.487   1.593   0.378
 3973W        W 8024   7.671   1.220  10.005
 3974W        W 8025   3.586  10.303  10.970
 3975W        W 8026   7.705  11.095  10.657
 3976W        W 8027   4.184   3.460   0.403
 3977W        W 8028   7.521  10.383   9.575
 3978W        W 8029   1.633  10.495  11.700
 3979W        W 8030   7.608   6.167   3.844
 3980W        W 8031   9.949   2.818   2.286
 3981W        W 8032   6.691   9.897   1.316
 3982W        W 8033   6.659   3.379   9.763
 3983W        W 8034  11.328   9.014   9.556
 3984W        W 8035   2.820   9.970   1.550
 3985W        W 8036   7.211   8.455   2.447
 3986W        W 8037   9.158   5.535  10.076
 3987W        W 8038  10.698   2.291   1.266
 3988W        W 8039   5.606   4.860  11.949
 3989W        W 8040   6.185   2.322   3.186
 3990W        W 8041   0.660   5.877   9.974
 3991W        W 8042   4.618   6.800   0.242
 3992W        W 8043   2.200   3.931   1.871
 3993W        W 8044   4.454  10.814   8.841
 3994W        W 8045   1.024   6.775  10.346
 3995W        W 8046   9.274   8.999  10.347
 3996W        W 8047   0.420   0.096   0.555
 3997W        W 8048   8.599   7.989   2.268
 3998W        W 8049   1.461   9.320  10.076
 3999W        W 8050   4.315  10.377   0.551
 4000W        W 8051   4.607   0.787   1.305
 4001W        W 8052   0.314   0.701   8.698
 4002W        W 8053   7.651   9.035   1.094
 4003W        W 8054   5.423   0.396   2.915
 4004W        W 8055  11.467   5.258   2.316
 4005W        W 8056   0.829   6.261  10.916
 4006W        W 8057   9.704   9.583   0.240
 4007W        W 8058   5.224  11.388  11.271
 4008W        W 8059   0.780   4.626   1.965
 4009W        W 8060   7.689   7.569  10.434
 4010W        W 8061   8.117   0.458   3.492
 4011W        W 8062   4.470   7.135   9.372
 4012W        W 8063   4.122  10.134   1.837
 4013W        W 8064   3.091   3.663  10.058
 4014W        W 8065   9.654   0.624   3.791
 4015W        W 8066   3.349  10.964  11.720
 4016W        W 8067   1.043   5.114   0.315
 4017W        W 8068   7.845   2.405  11.499
 4018W        W 8069  10.871   5.014   0.504
 4019W        W 8070   5.151   0.453   2.231
 4020W        W 8071   6.299  11.247   1.192
 4021W        W 8072   1.835  10.907   9.686
 4022W        W 8073   3.749   4.971   1.758
 4023W        W 8074   8.685  10.579   3.560
 4024W        W 8075   5.993   9.971   0.852
 4025W        W 8076   3.545  10.635  11.377
 4026W        W 8077   5.038   3.427  10.589
 4027W        W 8078  10.860   7.707   2.989
 4028W        W 8079   3.098   7.565   0.384
 4029W        W 8080   9.617   4.998   4.189
 4030W        W 8081   4.793   7.970  10.266
 4031W        W 8082   3.224   2.728   3.124
 4032W        W 8083   0.558   0.898   1.743
 4033W        W 8084   7.390   9.785   3.269
 4034W        W 8085   2.896   4.479  10.402
 4035W        W 8086   5.097   9.005   2.060
 4036W        W 8087   5.286   3.173   8.749
 4037W        W 8088  10.311   6.946   9.524
 4038W        W 8089   9.115   3.683   9.481
 4039W        W 8090   8.795   1.312   1.294
 4040W        W 8091   2.779   1.253   9.522
 4041W        W 8092   2.194   2.802   3.029
 4042W        W 8093   5.807  10.602  10.480
 4043W        W 8094   3.744   2.643   9.844
 4044W        W 8095  10.884   3.297   9.885
 4045W        W 8096  11.003   5.058   2.460
 4046W        W 8097   8.032   1.073   3.354
 4047W        W 8098  11.004   3.134  10.405
 4048W        W 8099  11.347   2.332   0.413
 4049W        W 8100   3.340   9.338  11.078
 4050W        W 8101   5.036   1.580   9.291
 4051W        W 8102   9.609   7.482  10.372
 4052W        W 8103   4.222   2.856  11.525
 4053W        W 8104   6.583   0.403   1.385
 4054W        W 8105   0.123   8.583   1.082
 4055W        W 8106   0.062   2.345  10.400
 4056W        W 8107   0.519   3.785   3.354
 4057W        W 8108   2.668   6.196   3.279
 4058W        W 8109   2.863   2.000   1.193
 4059W        W 8110   2.667   3.153   3.734
 4060W        W 8111   8.819   0.417   1.837
 4061W        W 8112   0.443   9.244   3.512
 4062W        W 8113   8.939   5.215   2.328
 4063W        W 8114   6.213   3.005   3.709
 4064W        W 8115  11.260   5.647   9.678
 4065W        W 8116   9.165   8.067  11.895
 4066W        W 8117   7.646  11.285  11.135
 4067W        W 8118   1.819   2.464  10.876
 4068W        W 8119   2.293  11.482   3.283
 4069W        W 8120   3.325   9.634  11.487
 4070W        W 8121   6.718   6.976   0.272
 4071W        W 8122   1.319   7.609   1.843
 4072W        W 8123   9.459   8.649   8.534
 4073W        W 8124  10.071   4.819   2.792
 4074W        W 8125  10.179   0.011   0.699
 4075W        W 8126   9.666   4.079   1.330
 4076W        W 8127   4.580   2.140   8.641
 4077W        W 8128   6.670   0.432   3.178
 4078W        W 8129   9.686   1.469   0.826
 4079W        W 8130   4.650  11.495   9.632
 4080W        W 8131   6.136   1.365   2.186
 4081W        W 8132   9.880   7.511  10.814
 4082W        W 8133   7.938   5.003  11.554
 4083W        W 8134   7.922   9.546   0.247
 4084W        W 8135   5.614   5.760   2.063
 4085W        W 8136   8.251   2.287   0.865
 4086W        W 8137   2.887   9.736   3.428
 4087W        W 8138   6.584   8.988   0.784
 4088W        W 8139   6.300   9.917   3.046
 4089W        W 8140   5.540   5.844   1.568
 4090W        W 8141   8.458   8.119   0.217
 4091W        W 8142   6.403   2.229   1.836
 4092W        W 8143   0.747   3.263   0.428
 4093W        W 8144   9.543   8.937   8.976
 4094W        W 8145   8.334   3.036   9.944
 4095W        W 8146  11.102   2.906   9.611
 4096W        W 8147   4.709   2.951  11.371
 4097W        W 8148   6.560  11.374  11.843
 4098W        W 8149   9.932   2.246   8.541
 4099W        W 8150  10.329   0.325  11.696
 4100W        W 8151   0.763   4.328   9.999
 4101W        W 8152  11.267   4.855   0.822
 4102W        W 8153   8.414   1.943   2.739
 4103W        W 8154   5.418   9.761   3.118
 4104W        W 8155  10.459  10.924   1.365
 4105W        W 8156   9.000   8.601  10.777
 4106W        W 8157  11.483   8.732  11.316
 4107W        W 8158   7.094  10.079   9.571
 4108W        W 8159   0.231   0.764   3.263
 4109W        W 8160   4.951   1.909   8.289
 4110W        W 8161   7.845   1.164   2.225
 4111W        W 8162   8.037  11.305  11.880
 4112W        W 8163   6.477   6.415   9.073
 4113W        W 8164  10.638   9.523   3.176
 4114W        W 8165  11.072   4.706   2.821
 4115W        W 8166   0.037   9.837   2.262
 4116W        W 8167   8.951   2.199   9.548
 4117W        W 8168   4.521  10.973   0.398
 4118W        W 8169   7.069   2.311   2.485
 4119W        W 8170   5.747   1.324  11.375
 4120W        W 8171  10.571   0.693   3.697
 4121W        W 8172   0.015   6.147   3.142
 4122W        W 8173   5.229   5.565   1.278
 4123W        W 8174   2.682   6.933   1.861
 4124W        W 8175   5.043   7.576  10.037
 4125W        W 8176  10.885   5.408   8.582
 4126W        W 8177   0.827   5.713  10.496
 4127W        W 8178   5.531   9.522   2.686
 4128W        W 8179   3.098   8.466  10.927
 4129W        W 8180   5.535  10.205   0.818
 4130W        W 8181   1.385   1.937   1.179
 4131W        W 8182   4.128   7.409   1.272
 4132W        W 8183   3.647  11.430   1.281
 4133W        W 8184   6.132   0.856   3.017
 4134W        W 8185  11.142  10.553   1.635
 4135W        W 8186   0.752   0.740   3.741
 4136W        W 8187  10.111   3.227   0.378
 4137W        W 8188   4.282   9.048  11.200
 4138W        W 8189  11.115   3.895   0.122
 4139W        W 8190   3.804   3.118   0.309
 4140W        W 8191   0.135   3.157   1.818
 4141W        W 8192   6.520   7.399   2.298
 4142W        W 8193   4.830   7.038   3.275
 4143W        W 8194   4.566  10.295  10.369
 4144W        W 8195   9.550   2.469  10.173
 4145W        W 8196   0.977   8.704   3.149
 4146W        W 8197   9.462   6.192   1.451
 4147W        W 8198   7.121   1.819   9.317
 4148W        W 8199  11.290   3.009  11.633
 4149W        W 8200   8.133   8.139   0.743
 4150W        W 8201   6.695   1.579   2.920
 4151W        W 8202   9.048   2.256   9.041
 4152W        W 8203   8.744   4.608  11.301
 4153W        W 8204   2.281   1.801  10.092
 4154W        W 8205   1.930   5.338   9.914
 4155W        W 8206   1.076   2.319   0.234
 4156W        W 8207  11.244   6.936   9.839
 4157W        W 8208   2.121  10.919  11.325
 4158W        W 8209   7.951   4.022   1.667
 4159W        W 8210   0.919   8.417   2.724
 4160W        W 8211   8.521   1.803  11.421
 4161W        W 8212   6.970   4.692  10.257
 4162W        W 8213   7.023   1.326   9.352
 4163W        W 8214  11.258   1.367   1.930
 4164W        W 8215   4.368   5.589   1.880
 4165W        W 8216   9.095   8.513   1.790
 4166W        W 8217   5.096   9.386   2.997
 4167W        W 8218   6.010   2.827   3.289
 4168W        W 8219   2.180   7.460   0.508
 4169W        W 8220   8.256   2.710   2.757
 4170W        W 8221   9.000  11.223   2.667
 4171W        W 8222   2.270   9.080   8.624
 4172W        W 8223   4.907   2.959  10.448
 4173W        W 8224   8.892   9.571   9.746
 4174W        W 8225   5.262   7.506   9.596
 4175W        W 8226   9.231   6.076  11.745
 4176W        W 8227   7.957   8.701  10.058
 4177W        W 8228   5.557   8.193   0.243
 4178W        W 8229   9.520   1.540   9.793
 4179W        W 8230   6.037   3.818   1.077
 4180W        W 8231   1.146   7.430   3.157
 4181W        W 8232   3.645   8.967   3.265
 4182W        W 8233   4.875   0.994   0.407
 4183W        W 8234   2.479   8.018   9.408
 4184W        W 8235   2.177   8.423   1.142
 4185W        W 8236   2.045   4.254   9.376
 4186W        W 8237   4.676   5.256   0.253
 4187W        W 8238   1.415   8.594   2.778
 4188W        W 8239   4.389   9.489   2.630
 4189W        W 8240  11.247   7.790  11.052
 4190W        W 8241   6.053   5.877   1.779
 4191W        W 8242   0.399   8.069  11.778
 4192W        W 8243  10.745   8.156  11.766
 4193W        W 8244  10.830   1.515  10.104
 4194W        W 8245   8.431   9.387   9.584
 4195W        W 8246  11.393   4.388   0.658
 4196W        W 8247   5.929   4.724   9.141
 4197W        W 8248  10.469   5.170   1.823
 4198W        W 8249   5.187   3.972   0.947
 4199W        W 8250   4.690   6.980  10.874
 4200W        W 8251   1.067  10.526   3.608
 4201W        W 8252   5.419  10.299  10.233
 4202W        W 8253   7.696   2.723   9.435
 4203W        W 8254   6.611   0.905   0.428
 4204W        W 8255   8.127   8.647   1.965
 4205W        W 8256   0.806   1.067  11.322
 4206W        W 8257   1.575   0.843   0.560
 4207W        W 8258   8.507   5.600  11.393
 4208W        W 8259   4.537   7.557  10.558
 4209W        W 8260   1.403   2.938   9.069
 4210W        W 8261   2.572   8.629  11.062
 4211W        W 8262   6.338   2.354   0.355
 4212W        W 8263   9.289   4.174   9.362
 4213W        W 8264  11.224   5.354   1.432
 4214W        W 8265   4.356   6.672   9.973
 4215W        W 8266   9.675   1.005   1.709
 4216W        W 8267   9.135   8.043   0.784
 4217W        W 8268  10.464  10.324  11.057
 4218W        W 8269   9.793   9.640  11.602
 4219W        W 8270  10.505   8.411   9.105
 4220W        W 8271   2.958  10.855   1.464
 4221W        W 8272   0.752   3.812   9.982
 4222W        W 8273  10.239   7.504   1.183
 4223W        W 8274   9.119   1.748   8.710
 4224W        W 8275   9.492   8.413   2.187
 4225W        W 8276   7.406   7.620  10.862
 4226W        W 8277   0.887   9.635   2.206
 4227W        W 8278   1.959   9.613   1.200
 4228W        W 8279   4.162   6.255   9.746
 4229W        W 8280   0.500   2.581   1.545
 4230W        W 8281   6.004   5.692   2.362
 4231W        W 8282   5.041   0.487   9.029
 4232W        W 8283   7.732  10.562   0.253
 4233W        W 8284   7.694   9.029   2.572
 4234W        W 8285   7.426   2.779   0.913
 4235W        W 8286   8.200   1.358  11.757
 4236W        W 8287   2.337   8.520   9.385
 4237W        W 8288   7.969  11.323   2.487
 4238W        W 8289   4.087   6.903   1.166
 4239W        W 8290   8.497   0.156   1.478
 4240W        W 8291   9.286   4.526  11.425
 4241W        W 8292  11.366   1.219  10.996
 4242W        W 8293   3.622   1.212   9.667
 4243W        W 8294   9.138   5.754   8.646
 4244W        W 8295  10.052  10.482  11.324
 4245W        W 8296   2.276   7.244  11.561
 4246W        W 8297   4.872   2.164   1.904
 4247W        W 8298   5.219   1.199  10.066
 4248W        W 8299   0.079  10.536   3.343
 4249W        W 8300   1.753   8.394   1.817
 4250W        W 8301   6.064   3.712   3.829
 4251W        W 8302   4.113   4.752   8.675
 4252W        W 8303   8.116   9.449   1.755
 4253W        W 8304   5.819   9.030   0.023
 4254W        W 8305  11.166   4.294  10.265
 4255W        W 8306   4.062   1.508   0.913
 4256W        W 8307  11.241   7.459   1.222
 4257W        W 8308   5.232   8.456  11.514
 4258W        W 8309   4.734   4.292  11.852
 4259W        W 8310  10.001   1.635   0.384
 4260W        W 8311   8.486  10.221   1.312
 4261W        W 8312  10.500  10.876   8.844
 4262W        W 8313   0.452   9.463   2.967
 4263W        W 8314   7.388   4.016   9.156
 4264W        W 8315   1.726   5.970   3.255
 4265W        W 8316   4.312   0.308   0.437
 4266W        W 8317   6.184   7.458  11.258
 4267W        W 8318   7.108   9.175  10.070
 4268W        W 8319   2.927   0.995   2.146
 4269W        W 8320   9.391   8.879   3.574
 4270W        W 8321   2.280   2.784   2.536
 4271W        W 8322  11.188   0.082   0.904
 4272W        W 8323   6.615   3.669   1.968
 4273W        W 8324   6.146   2.547   0.850
 4274W        W 8325   2.005  10.744   0.830
 4275W        W 8326   7.990   4.041  11.931
 4276W        W 8327   7.451  10.884   9.839
 4277W        W 8328  10.975   1.216   9.148
 4278W        W 8329  10.708   6.549   1.736
 4279W        W 8330  10.366   6.029   9.494
 4280W        W 8331   8.333   2.308  11.417
 4281W        W 8332   8.422   1.450   2.537
 4282W        W 8333   3.146   2.089   2.567
 4283W        W 8334   7.611   2.535   3.137
 4284W        W 8335   7.859  10.391   8.600
 4285W        W 8336   4.918   8.990   9.465
 4286W        W 8337   4.997   8.833  11.760
 4287W        W 8338   2.855   2.289   2.923
 4288W        W 8339   6.608   5.861  11.784
 4289W        W 8340   7.529   6.892   0.845
 4290W        W 8341   5.327   0.317  11.539
 4291W        W 8342   9.155   2.837   2.835
 4292W        W 8343   1.846  11.303   2.985
 4293W        W 8344   4.225   9.561  11.967
 4294W        W 8345   9.029   4.085  11.189
 4295W        W 8346   1.801   9.172   2.263
 4296W        W 8347   6.864   9.478   2.423
 4297W        W 8348   8.365   1.606   1.357
 4298W        W 8349   6.973   6.980  10.973
 4299W        W 8350   9.028   2.998   3.297
 4300W        W 8351   3.559   9.330   0.872
 4301W        W 8352   8.364   1.102   2.162
 4302W        W 8353   6.961   4.640   1.224
 4303W        W 8354   1.807   8.895   0.901
 4304W        W 8355   3.641   1.751   1.724
 4305W        W 8356   5.631   1.831  11.443
 4306W        W 8357   4.238   3.139   9.613
 4307W        W 8358   8.629   2.839   8.644
 4308W        W 8359  10.660   2.277  10.511
 4309W        W 8360   5.936  10.772   8.534
 4310W        W 8361   9.368  10.793   9.851
 4311W        W 8362   1.747  10.905   0.007
 4312W        W 8363   2.749   5.646  11.242
 4313W        W 8364   0.168   2.400   9.615
 4314W        W 8365   4.442   8.655  10.890
 4315W        W 8366   9.097   2.399   1.658
 4316W        W 8367   0.574   2.927   1.913
 4317W        W 8368   2.376   2.581   9.650
 4318W        W 8369   2.813  11.471   3.246
 4319W        W 8370   3.629   0.775   0.903
 4320W        W 8371   1.858   9.996  11.779
 4321W        W 8372   2.040  10.551   8.707
 4322W        W 8373   1.001   0.645   9.873
 4323W        W 8374   8.520   5.349   0.842
 4324W        W 8375   6.809   7.519   8.662
 4325W        W 8376  10.473   5.488  11.918
 4326W        W 8377   5.112   7.231   2.166
 4327W        W 8378   1.188   2.661   9.921
 4328W        W 8379   9.894   7.009   4.055
 4329W        W 8380  10.799   5.000   8.905
 4330W        W 8381   4.151   6.487   4.210
 4331W        W 8382   0.626  11.031   8.624
 4332W        W 8383   5.573   7.991  10.740
 4333W        W 8384   8.723   7.146   2.095
 4334W        W 8385  10.955   0.818  10.877
 4335W        W 8386   6.755   6.092   0.224
 4336W        W 8387  10.266  11.416  11.412
 4337W        W 8388   8.414   1.665   9.971
 4338W        W 8389   3.287   3.068   2.671
 4339W        W 8390   3.579   9.040   0.051
 4340W        W 8391   8.636   9.661  10.581
 4341W        W 8392   9.953  11.341  10.550
 4342W        W 8393  10.903   5.106   9.784
 4343W        W 8394   7.135  11.395   9.884
 4344W        W 8395  10.506   6.538   0.855
 4345W        W 8396   5.401  10.783   2.235
 4346W        W 8397   9.899   9.242  11.924
 4347W        W 8398  10.206   7.964  10.948
 4348W        W 8399   1.085  10.695   8.950
 4349W        W 8400  11.380   2.326   2.387
 4350W        W 8401   5.205   1.779   1.766
 4351W        W 8402   0.380   8.509  11.016
 4352W        W 8403   0.507   8.118   2.645
 4353W        W 8404   8.503   7.181   8.941
 4354W        W 8405   8.409   5.172   1.326
 4355W        W 8406   0.302   7.457   0.514
 4356W        W 8407  10.184   6.881   3.653
 4357W        W 8408   3.166   2.584   2.629
 4358W        W 8409   5.576   7.229   0.270
 4359W        W 8410   2.425  11.017   2.741
 4360W        W 8411  11.278   9.125   2.925
 4361W        W 8412   9.337   9.365   1.294
 4362W        W 8413  11.457   4.160  10.682
 4363W        W 8414   0.978   8.019   1.480
 4364W        W 8415   1.452   9.565   3.543
 4365W        W 8416   6.544   3.389  11.944
 4366W        W 8417   4.286   0.348   9.448
 4367W        W 8418   4.042  11.500   1.623
 4368W        W 8419   8.351   4.190  10.436
 4369W        W 8420   7.604   8.582   2.817
 4370W        W 8421  10.353   1.013  10.322
 4371W        W 8422   7.688   6.684   2.956
 4372W        W 8423   6.056   4.537  10.809
 4373W        W 8424  11.423   2.128   2.876
 4374W        W 8425   9.277   6.481   0.565
 4375W        W 8426   9.901   7.927  10.526
 4376W        W 8427  10.602   1.768  11.410
 4377W        W 8428   6.237   6.572  11.719
 4378W        W 8429   6.208   1.367  10.424
 4379W        W 8430   4.542  10.940  11.567
 4380W        W 8431   9.857   8.031   1.709
 4381W        W 8432   6.133   9.161   1.291
 4382W        W 8433   5.554   7.024  10.870
 4383W        W 8434   0.534   7.373  11.417
 4384W        W 8435   0.628   4.190   2.676
 4385W        W 8436   1.981   5.676   8.655
 4386W        W 8437   3.558   1.786   9.887
 4387W        W 8438   5.456   5.643  10.502
 4388W        W 8439   6.350   9.572   1.538
 4389W        W 8440   0.895   4.601   0.980
 4390W        W 8441  10.314   7.368   3.520
 4391W        W 8442   6.275   4.120   2.759
 4392W        W 8443   2.447   2.633  11.050
 4393W        W 8444   1.689   7.392   0.746
 4394W        W 8445   1.701   3.301   1.027
 4395W        W 8446   0.014  10.872   9.000
 4396W        W 8447   7.438  10.070   0.889
 4397W        W 8448   9.576   1.005   2.410
 4398W        W 8449   1.231   4.252   0.503
 4399W        W 8450   5.593   4.359  11.845
 4400W        W 8451   8.431   2.327   9.520
 4401W        W 8452   1.801   1.038   1.562
 4402W        W 8453   8.733   2.139   0.760
 4403W        W 8454   4.516   2.228  10.902
 4404W        W 8455   1.479  11.159   8.969
 4405W        W 8456   9.878   9.112   2.794
 4406W        W 8457   8.478   4.844   0.908
 4407W        W 8458   0.424   0.243  11.773
 4408W        W 8459   5.311   7.487   1.323
 4409W        W 8460  10.507   1.738   2.856
 4410W        W 8461   7.915   6.538   0.827
 4411W        W 8462   6.009   5.240  10.076
 4412W        W 8463   4.685   5.299  11.741
 4413W        W 8464   8.660   2.109   9.976
 4414W        W 8465   1.673  11.386   9.808
 4415W        W 8466  11.424  10.351   9.603
 4416W        W 8467   2.838  11.150  10.345
 4417W        W 8468   4.425   0.119   1.964
 4418W        W 8469   5.499   9.349  10.288
 4419W        W 8470   5.632   0.297   1.374
 4420W        W 8471   7.842   1.046   0.936
 4421W        W 8472   7.721   9.929   8.764
 4422W        W 8473   1.815  10.975   1.613
 4423W        W 8474   1.163   7.926   9.955
 4424W        W 8475   4.464   9.422   3.572
 4425W        W 8476   6.093   6.657   0.901
 4426W        W 8477   8.220   7.081   2.127
 4427W        W 8478   0.302   4.792   2.139
 4428W        W 8479   4.687   9.795  10.218
 4429W        W 8480   0.409   0.228  10.133
 4430W        W 8481  11.175   0.861  11.347
 4431W        W 8482   7.630   9.835   2.386
 4432W        W 8483   5.150   9.816   8.443
 4433W        W 8484   4.119   9.199   9.027
 4434W        W 8485   5.064   2.965   0.068
 4435W        W 8486   3.508   6.006   3.067
 4436W        W 8487  10.341  10.097   0.768
 4437W        W 8488   3.124   5.262  11.321
 4438W        W 8489   0.497  10.856   9.836
 4439W        W 8490   2.301   5.531  11.057
 4440W        W 8491   6.656   0.557  10.692
 4441W        W 8492   1.207   0.502   0.399
 4442W        W 8493   3.310   7.963   1.814
 4443W        W 8494   0.979   2.952   2.233
 4444W        W 8495   2.714   5.572   9.770
 4445W        W 8496   3.555   0.619   1.843
 4446W        W 8497  10.430   1.778   3.401
 4447W        W 8498   7.630   0.423   0.935
 4448W        W 8499  10.765   3.010  10.876
 4449W        W 8500   8.290   1.386   8.873
 4450W        W 8501   7.976   8.703   9.543
 4451W        W 8502   3.379   9.921   9.368
 4452W        W 8503  10.833  10.906  10.345
 4453W        W 8504   0.228   1.925   1.911
 4454W        W 8505   0.582   9.439  10.868
 4455W        W 8506  10.664   2.610   8.721
 4456W        W 8507   7.025  10.398   2.966
 4457W        W 8508   4.573   4.794   0.977
 4458W        W 8509   8.510   3.955  10.867
 4459W        W 8510   8.352   2.162   0.374
 4460W        W 8511   0.828   7.321   2.677
 4461W        W 8512   8.212   3.721   8.654
 4462W        W 8513   3.556   7.554   0.677
 4463W        W 8514   1.617   1.044   9.156
 4464W        W 8515   6.244  10.303   8.613
 4465W        W 8516  11.250   3.852   2.399
 4466W        W 8517  10.395   0.015  10.262
 4467W        W 8518   8.372   8.046   1.188
 4468W        W 8519   0.061   9.518  11.827
 4469W        W 8520   5.310  10.399   1.259
 4470W        W 8521   5.611  10.440  11.713
 4471W        W 8522   2.894   9.584   0.335
 4472W        W 8523   8.175   2.752   0.310
 4473W        W 8524   1.370   4.768   2.952
 4474W        W 8525   2.844   6.407   9.943
 4475W        W 8526  10.830  10.886  11.839
 4476W        W 8527   8.026   9.494   8.325
 4477W        W 8528   9.446   5.320  11.267
 4478W        W 8529   9.012   5.267   3.355
 4479W        W 8530   3.424   2.211   1.692
 4480W        W 8531  10.493  10.907   2.766
 4481W        W 8532  10.413  11.293   9.767
 4482W        W 8533   1.320   4.732  10.319
 4483W        W 8534   2.695   0.062  11.323
 4484W        W 8535   8.137   2.752  11.783
 4485W        W 8536   1.347   7.018  11.074
 4486W        W 8537   1.481   6.282  11.643
 4487W        W 8538   2.194   5.787  11.879
 4488W        W 8539  11.353   8.926  11.778
 4489W        W 8540  10.017   2.934   2.807
 4490W        W 8541   4.470   3.003   3.163
 4491W        W 8542   9.947   3.206   9.272
 4492W        W 8543  10.859   3.089   1.478
 4493W        W 8544   9.203   3.601  11.242
 4494W        W 8545   3.500   2.284  11.075
 4495W        W 8546   7.995   0.293   9.949
 4496W        W 8547   2.093   0.879   9.134
 4497W        W 8548   1.929   3.133   9.655
 4498W        W 8549  10.259  11.365   1.183
 4499W        W 8550   6.626  11.386   2.018
 4500W        W 8551   4.058   3.002   9.157
 4501W        W 8552   3.975   0.976  10.802
 4502W        W 8553   1.715   2.231  11.351
 4503W        W 8554   3.194   0.715  11.822
 4504W        W 8555   3.344   6.532   9.823
 4505W        W 8556   8.714   9.023  10.212
 4506W        W 8557   5.686   4.285   8.126
 4507W        W 8558   5.879  10.943   0.460
 4508W        W 8559   0.201   0.325   2.428
 4509W        W 8560   5.551   9.685   0.707
 4510W        W 8561   1.277   3.834   3.391
 4511W        W 8562   9.059  10.558   0.180
 4512W        W 8563   2.872   1.395   9.002
 4513W        W 8564   9.509   0.994  10.316
 4514W        W 8565   7.029   1.714   1.177
 4515W        W 8566   1.248   0.182   9.068
 4516W        W 8567   8.960   7.183   1.650
 4517W        W 8568  11.278   9.332  10.488
 4518W        W 8569   9.172   9.557   3.200
 4519W        W 8570   3.936   6.966   2.413
 4520W        W 8571   3.745   7.097  10.122
 4521W        W 8572   4.633   6.448   3.926
 4522W        W 8573   4.750   7.523   9.562
 4523W        W 8574   7.061   8.779  11.598
 4524W        W 8575   1.305  10.526  10.861
 4525W        W 8576   5.705   8.463   8.633
 4526W        W 8577   9.380   1.097   0.179
 4527W        W 8578   1.997   6.988   0.825
 4528W        W 8579   1.108   7.087   9.474
 4529W        W 8580   5.840   5.289  10.571
 4530W        W 8581   6.926   8.715   1.028
 4531W        W 8582   4.039   7.574  10.542
 4532W        W 8583   6.059   2.830   1.274
 4533W        W 8584  11.458   5.152  11.622
 4534W        W 8585   6.670   9.549   1.934
 4535W        W 8586   6.875   8.146  11.836
 4536W        W 8587   4.346   6.992   2.098
 4537W        W 8588   6.129   7.363   1.857
 4538W        W 8589   6.173   0.469  10.309
 4539W        W 8590   9.627   7.972   0.834
 4540W        W 8591   9.901   3.841  10.784
 4541W        W 8592  11.206   1.348   0.029
 4542W        W 8593   6.044   2.566   9.100
 4543W        W 8594  11.374   2.479  11.542
 4544W        W 8595   3.120   6.610   2.043
 4545W        W 8596   6.266   8.920   9.099
 4546W        W 8597   6.857   0.265  11.972
 4547W        W 8598   2.322   0.945  10.421
 4548W        W 8599   7.106   0.289  10.490
 4549W        W 8600   8.107   8.429  10.477
 4550W        W 8601   7.945   3.315  10.146
 4551W        W 8602   9.614  10.413   3.336
 4552W        W 8603   2.596   8.071   8.916
 4553W        W 8604   7.916   3.217   9.642
 4554W        W 8605   9.815   6.150   1.087
 4555W        W 8606   2.475   6.545   9.616
 4556W        W 8607   4.635   9.534  11.189
 4557W        W 8608   6.046   4.403   8.475
 4558W        W 8609   7.747   7.921   9.669
 4559W        W 8610   1.219  11.444   0.951
 4560W        W 8611   6.627  10.779   9.797
 4561W        W 8612   4.610   6.311   8.793
 4562W        W 8613   8.550   9.455   2.905
 4563W        W 8614   5.050  11.019  11.565
 4564W        W 8615   4.593  11.219   0.827
 4565W        W 8616   0.009   9.982   3.149
 4566W        W 8617   4.557   3.338   2.764
 4567W        W 8618   3.244   7.160   0.645
 4568W        W 8619   3.107   9.894   2.969
 4569W        W 8620  10.768  10.329   1.912
 4570W        W 8621   7.546   7.166   2.844
 4571W        W 8622  10.502   6.505   9.365
 4572W        W 8623  11.474   6.796  10.932
 4573W        W 8624   1.307   8.772  10.552
 4574W        W 8625   3.345   9.268   8.735
 4575W        W 8626   8.846   3.043  10.028
 4576W        W 8627   9.633   5.769   9.883
 4577W        W 8628   9.467   6.135   3.421
 4578W        W 8629   2.677   2.298  11.369
 4579W        W 8630   1.475   2.665  11.473
 4580W        W 8631   9.871   8.352  10.255
 4581W        W 8632   9.709   4.768   9.694
 4582W        W 8633   8.108   2.282  11.944
 4583W        W 8634   9.852   4.123  10.061
 4584W        W 8635   2.340  10.127  11.904
 4585W        W 8636   1.317   5.531  10.522
 4586W        W 8637   7.432   1.232  10.859
 4587W        W 8638  10.088   2.685   3.287
 4588W        W 8639   2.172   6.751  11.756
 4589W        W 8640   1.712   4.086   3.459
 4590W        W 8641   5.972   9.084   2.155
 4591W        W 8642  10.462   2.705   2.906
 4592W        W 8643  10.899   8.655   0.397
 4593W        W 8644   6.610  10.616   3.459
 4594W        W 8645   9.351   0.828   1.309
 4595W        W 8646   9.320   3.966   3.469
 4596W        W 8647   4.593  10.782  10.210
 4597W        W 8648   6.361  10.752   0.875
 4598W        W 8649   9.444  10.961   8.452
 4599W        W 8650  10.926   4.098   3.297
 4600W        W 8651   0.767   8.584   8.957
 4601W        W 8652   0.423   5.649   2.363
 4602W        W 8653   4.634   3.197  10.853
 4603W        W 8654  10.287  10.130  10.598
 4604W        W 8655  11.424   4.417   1.172
 4605W        W 8656   7.976   9.935   1.887
 4606W        W 8657   9.850   4.354   2.841
 4607W        W 8658   2.226   4.863   1.689
 4608W        W 8659   6.500   0.668   9.968
 4609W        W 8660   8.620   6.689   9.221
 4610W        W 8661   5.846   3.337  10.367
 4611W        W 8662   7.200   6.149   1.180
 4612W        W 8663   4.217   6.695   9.468
 4613W        W 8664   8.595   2.098   3.544
 4614W        W 8665   7.312   4.294  11.496
 4615W        W 8666   4.235   0.555  10.882
 4616W        W 8667   9.294   3.386   0.008
 4617W        W 8668   0.298   2.686  10.082
 4618W        W 8669   3.762   2.197   9.594
 4619W        W 8670   7.419  11.302   9.464
 4620W        W 8671   0.148   2.266  11.948
 4621W        W 8672   8.022  11.276   1.973
 4622W        W 8673   1.390   8.374   9.720
 4623W        W 8674   2.340   7.717   9.780
 4624W        W 8675   4.985   2.838   2.276
 4625W        W 8676   5.497   7.028   1.163
 4626W        W 8677   5.669   4.227   2.687
 4627W        W 8678   8.853   9.312   1.054
 4628W        W 8679   8.326   0.205   2.473
 4629W        W 8680   2.781   4.727  10.894
 4630W        W 8681   5.171   9.341  11.515
 4631W        W 8682   5.974   0.390   2.872
 4632W        W 8683   4.235   7.535   9.577
 4633W        W 8684   2.343   3.459   9.504
 4634W        W 8685  11.287  11.243   1.284
 4635W        W 8686   8.339  10.792   3.237
 4636W        W 8687   1.291   2.571   8.722
 4637W        W 8688   2.641   8.645   2.219
 4638W        W 8689  10.089   9.774   0.479
 4639W        W 8690   1.861   2.033  11.915
 4640W        W 8691   5.791   1.242   8.985
 4641W        W 8692   1.844   3.687  10.499
 4642W        W 8693   4.620   3.178   9.968
 4643W        W 8694   5.694   3.631  10.982
 4644W        W 8695   6.431   8.269  10.866
 4645W        W 8696   9.363  10.815   3.067
 4646W        W 8697   1.145   3.119   8.677
 4647W        W 8698   7.707   8.586   2.291
 4648W        W 8699  10.954   8.614   9.295
 4649W        W 8700   3.113   0.810   0.767
 4650W        W 8701   4.727   9.082  10.919
 4651W        W 8702   3.085   0.919   9.111
 4652W        W 8703   6.302   8.861  11.976
 4653W        W 8704   5.150  10.612   3.190
 4654W        W 8705  11.315   2.595  10.003
 4655W        W 8706   8.074   0.962   9.112
 4656W        W 8707   6.722   7.722  11.573
 4657W        W 8708   2.162   9.818   0.763
 4658W        W 8709   0.352  10.984   2.610
 4659W        W 8710  11.046   2.599  10.453
 4660W        W 8711   7.598   5.958   0.881
 4661W        W 8712   3.163   4.347   1.225
 4662W        W 8713   2.363   4.140  11.611
 4663W        W 8714  10.099  10.283   2.274
 4664W        W 8715   7.068  10.344   2.445
 4665W        W 8716   8.199   8.500   3.380
 4666W        W 8717   1.301   9.302   8.938
 4667W        W 8718  10.842   0.847  11.818
 4668W        W 8719   6.417   0.118   2.869
 4669W        W 8720  10.368   9.029   0.095
 4670W        W 8721   2.693   1.179   0.295
 4671W        W 8722   7.867   7.709   0.847
 4672W        W 8723   7.511   4.635  10.060
 4673W        W 8724   5.680   3.589   0.297
 4674W        W 8725  10.435   3.701   1.313
 4675W        W 8726   8.291   2.447   1.938
 4676W        W 8727  11.459   9.017   9.068
 4677W        W 8728   3.241   3.321   9.467
 4678W        W 8729   1.682  10.679   0.439
 4679W        W 8730   2.267   4.373   1.461
 4680W        W 8731   0.547   7.068   0.232
 4681W        W 8732  11.198   7.017   8.930
 4682W        W 8733  10.146   9.086   0.946
 4683W        W 8734   1.577   3.429   3.526
 4684W        W 8735   4.803   0.457  11.533
 4685W        W 8736   0.836  10.897   0.219
 4686W        W 8737   9.548   2.383   0.985
 4687W        W 8738   2.849  10.856   8.496
 4688W        W 8739   4.962   9.532   3.474
 4689W        W 8740   7.981   8.443   0.342
 4690W        W 8741   0.557   2.316   0.267
 4691W        W 8742   0.831   7.393   3.570
 4692W        W 8743   8.248   2.110   8.664
 4693W        W 8744   8.561   8.477   2.511
 4694W        W 8745   6.147   6.211  10.294
 4695W        W 8746   0.283   5.264  10.249
 4696W        W 8747   9.813   9.412  11.137
 4697W        W 8748  10.314   0.761   2.807
 4698W        W 8749   2.879   5.054   2.166
 4699W        W 8750   5.009  11.067  10.321
 4700W        W 8751   4.074  10.467  10.261
 4701W        W 8752   9.618  10.994  10.340
 4702W        W 8753   2.961   4.965   1.679
 4703W        W 8754  10.135   3.762  11.218
 4704W        W 8755   5.074  10.992   1.466
 4705W        W 8756   7.512   0.579  10.685
 4706W        W 8757   6.740   6.295  10.513
 4707W        W 8758   6.230   7.142   0.968
 4708W        W 8759   0.121   4.279   2.584
 4709W        W 8760   7.017   1.440   2.143
 4710W        W 8761   2.943   6.915   0.980
 4711W        W 8762  10.574   0.774   1.892
 4712W        W 8763   9.617   1.725  11.564
 4713W        W 8764   2.437   7.015   0.556
 4714W        W 8765   3.230   9.605  10.056
 4715W        W 8766  10.454   8.942   9.179
 4716W        W 8767   5.140  10.505  11.518
 4717W        W 8768   4.797   5.246   1.272
 4718W        W 8769   8.079   0.655   2.214
 4719W        W 8770   0.589   8.699   0.918
 4720W        W 8771   3.576   4.657   3.590
 4721W        W 8772   6.161   5.208   1.047
 4722W        W 8773   2.011   9.102   1.347
 4723W        W 8774   4.876   0.951   9.301
 4724W        W 8775   0.903   2.394   0.710
 4725W        W 8776   8.633   4.673   9.537
 4726W        W 8777   7.272  10.019  11.077
 4727W        W 8778   4.261   7.151  10.291
 4728W        W 8779   7.390   0.797  10.234
 4729W        W 8780   2.577   4.255  10.724
 4730W        W 8781   0.454  10.785   1.637
 4731W        W 8782   9.742   6.607  10.829
 4732W        W 8783   5.884   6.911   3.545
 4733W        W 8784   5.620   4.529   3.458
 4734W        W 8785  10.687   9.671  11.435
 4735W        W 8786   1.555   6.919   0.545
 4736W        W 8787  10.326   3.655   2.404
 4737W        W 8788   8.843  10.861   3.018
 4738W        W 8789   6.296   0.780   9.529
 4739W        W 8790   9.837   0.384  11.840
 4740W        W 8791   6.042   2.649   9.959
 4741W        W 8792   3.102   1.061   3.082
 4742W        W 8793   1.623   0.736  10.022
 4743W        W 8794   4.767   5.228   1.795
 4744W        W 8795   1.827   0.454  11.754
 4745W        W 8796   1.701   3.373  11.960
 4746W        W 8797  11.404   6.190  10.903
 4747W        W 8798   0.715   9.570   1.065
 4748W        W 8799   6.105   7.867   1.870
 4749W        W 8800   1.233   8.284  10.718
 4750W        W 8801   2.706   0.386  11.752
 4751W        W 8802   5.594   6.610   0.879
 4752W        W 8803   0.253   6.160   0.982
 4753W        W 8804   1.722   9.559   9.059
 4754W        W 8805   7.749   6.654  11.886
 4755W        W 8806  10.020   8.016   9.098
 4756W        W 8807   1.927   7.139   9.030
 4757W        W 8808   7.367  11.292  10.335
 4758W        W 8809   4.807  10.879  11.999
 4759W        W 8810   1.467  10.737   2.759
 4760W        W 8811   8.452   9.918   3.143
 4761W        W 8812   8.099  11.449   3.460
 4762W        W 8813   8.008   0.236   1.320
 4763W        W 8814   4.730   2.210  10.055
 4764W        W 8815   2.252   5.699   2.220
 4765W        W 8816   4.360   1.888  10.165
 4766W        W 8817   9.381  10.117   9.402
 4767W        W 8818   1.409   1.480   0.421
 4768W        W 8819  10.434   5.505   8.825
 4769W        W 8820   5.714  11.262   2.362
 4770W        W 8821  10.280   5.154   1.323
 4771W        W 8822   3.662   8.242   2.693
 4772W        W 8823   2.617   9.135   2.411
 4773W        W 8824   5.067   6.116   1.431
 4774W        W 8825  11.467   4.766  10.058
 4775W        W 8826   2.485   7.173   3.636
 4776W        W 8827   0.741   7.607  10.177
 4777W        W 8828   7.978   0.490   8.901
 4778W        W 8829   1.881  11.238   3.508
 4779W        W 8830   1.014  10.523   1.029
 4780W        W 8831   0.191   9.340   0.454
 4781W        W 8832   9.018   3.400   1.915
 4782W        W 8833   9.693   3.778   0.083
 4783W        W 8834   5.950   1.633  11.762
 4784W        W 8835  10.027   5.424   1.669
 4785W        W 8836   6.091   6.382   1.775
 4786W        W 8837  10.425   5.795  10.974
 4787W        W 8838   6.535   4.369   1.362
 4788W        W 8839   8.190   3.658   2.833
 4789W        W 8840   0.933  11.196   3.497
 4790W        W 8841   3.854   9.894   3.578
 4791W        W 8842  11.227   1.205  10.148
 4792W        W 8843   5.284  10.741  11.954
 4793W        W 8844   6.279   1.499  11.407
 4794W        W 8845   3.205   7.231  11.860
 4795W        W 8846   5.919  11.077  10.381
 4796W        W 8847  11.106  11.236   2.251
 4797W        W 8848   6.053   7.540   0.718
 4798W        W 8849   6.498   9.872   0.847
 4799W        W 8850   1.978   3.219   2.315
 4800W        W 8851   2.898   2.250   1.698
 4801W        W 8852  10.082   9.975   1.372
 4802W        W 8853   2.010  10.476   0.071
 4803W        W 8854   6.122   8.542   9.418
 4804W        W 8855   0.917   2.770   2.704
 4805W        W 8856  10.822   2.222   9.269
 4806W        W 8857   4.346   0.977   3.720
 4807W        W 8858   2.260   3.130  11.284
 4808W        W 8859  10.711   0.083   2.229
 4809W        W 8860   2.561  11.376  11.799
 4810W        W 8861   0.881   1.294   2.909
 4811W        W 8862   1.242   1.053  10.079
 4812W        W 8863   3.118   1.186  11.997
 4813W        W 8864   8.561   3.576   0.370
 4814W        W 8865  11.449   3.875   0.530
 4815W        W 8866  10.433   5.318   9.846
 4816W        W 8867   2.230   5.248   8.539
 4817W        W 8868   2.667   5.032   3.241
 4818W        W 8869   6.527   3.921  11.893
 4819W        W 8870   8.486   9.358   2.417
 4820W        W 8871   8.150   2.400   1.432
 4821W        W 8872   0.201   9.500   0.970
 4822W        W 8873   3.238   1.593  10.905
 4823W        W 8874   1.979  11.468  10.455
 4824W        W 8875   7.074   9.535   8.404
 4825W        W 8876   7.267   4.259   2.748
 4826W        W 8877   9.890  11.422  11.051
 4827W        W 8878   8.483   0.936  11.682
 4828W        W 8879   4.726   3.707   9.110
 4829W        W 8880   5.981   9.533   2.987
 4830W        W 8881   8.988   1.726   9.757
 4831W        W 8882   5.698   6.394   3.101
 4832W        W 8883   6.977   2.227  10.561
 4833W        W 8884   5.280   4.535   8.344
 4834W        W 8885   2.700   7.058   8.563
 4835W        W 8886   4.657   4.826  10.498
 4836W        W 8887   7.925   6.243   9.754
 4837W        W 8888   3.526  11.267   2.187
 4838W        W 8889  11.257   2.028   9.486
 4839W        W 8890  10.313   0.524  10.208
 4840W        W 8891  10.519   8.345   0.570
 4841W        W 8892   4.536   2.354   0.519
 4842W        W 8893   6.962   8.979   1.783
 4843W        W 8894   5.124   2.600   9.057
 4844W        W 8895   6.914   2.782   2.336
 4845W        W 8896   2.596   0.969   0.744
 4846W        W 8897  10.564   3.492  11.244
 4847W        W 8898   9.661   4.134   0.433
 4848W        W 8899   6.115   8.118   1.403
 4849W        W 8900   3.194  11.266   1.021
 4850W        W 8901   0.221   9.997   0.879
 4851W        W 8902   5.702  10.515   1.588
 4852W        W 8903   6.940   2.985   0.933
 4853W        W 8904  10.459   4.883  10.811
 4854W        W 8905   3.474  10.871   1.312
 4855W        W 8906   7.949   2.277   2.296
 4856W        W 8907   8.315   0.229   1.961
 4857W        W 8908   2.419   5.124  10.787
 4858W        W 8909   1.838   9.672   2.024
 4859W        W 8910   2.261  10.514   9.629
 4860W        W 8911   3.003   9.482   2.651
 4861W        W 8912   6.780   2.579   2.815
 4862W        W 8913  10.646   5.528   3.255
 4863W        W 8914   6.929   8.189   1.066
 4864W        W 8915   3.901   8.769   0.469
 4865W        W 8916   8.523  10.900   8.976
 4866W        W 8917   9.848  10.939  10.855
 4867W        W 8918   0.195  11.323   8.793
 4868W        W 8919   9.365   7.549   2.511
 4869W        W 8920  11.430   6.541   1.353
 4870W        W 8921  10.418   3.145   3.181
 4871W        W 8922   4.893   1.757   2.203
 4872W        W 8923  10.319   4.585  11.902
 4873W        W 8924   7.566   2.004   3.134
 4874W        W 8925   6.116   8.375   1.843
 4875W        W 8926  10.818   0.576   2.299
 4876W        W 8927   3.871   1.410   2.854
 4877W        W 8928   1.457   6.084   0.566
 4878W        W 8929   6.133   5.075   0.044
 4879W        W 8930   7.054   5.142   1.179
 4880W        W 8931   2.247  10.321   1.203
 4881W        W 8932   8.846   1.321   2.273
 4882W        W 8933   8.566  10.376   9.936
 4883W        W 8934   0.676   0.595  11.433
 4884W        W 8935   1.445   4.078   2.331
 4885W        W 8936   4.092   6.344   8.094
 4886W        W 8937   8.814   2.035   3.060
 4887W        W 8938   2.165   2.311   2.326
 4888W        W 8939  10.593   0.308   9.819
 4889W        W 8940   0.805   9.513  10.383
 4890W        W 8941   3.620   7.473  11.247
 4891W        W 8942   7.686   5.072  11.079
 4892W        W 8943   3.145   6.797   8.544
 4893W        W 8944   0.902   7.982   0.566
 4894W        W 8945   5.998   2.497   3.680
 4895W        W 8946   3.154   7.584  10.508
 4896W        W 8947   8.373  10.876   9.963
 4897W        W 8948   9.578  10.861   8.955
 4898W        W 8949   3.481   8.987   9.430
 4899W        W 8950   7.796   3.602   1.887
 4900W        W 8951   2.952   1.156  10.913
 4901W        W 8952   2.293   7.402  11.079
 4902W        W 8953   7.946   5.532  10.360
 4903W        W 8954   5.134   8.652   1.669
 4904W        W 8955  11.464   2.065   9.952
 4905W        W 8956   6.547   1.435   0.370
 4906W        W 8957   2.605   5.779   0.239
 4907W        W 8958   0.857   3.589  11.965
 4908W        W 8959   3.699   6.279   8.978
 4909W        W 8960   0.874   9.536   9.076
 4910W        W 8961  10.038   6.492   3.952
 4911W        W 8962   4.673   7.515  11.078
 4912W        W 8963   7.118   8.034   0.325
 4913W        W 8964  10.023   5.156   9.518
 4914W        W 8965   0.266   1.678   2.350
 4915W        W 8966   2.859   1.451   2.846
 4916W        W 8967   1.481  10.415   2.245
 4917W        W 8968  11.427   6.981  11.431
 4918W        W 8969   9.507   3.484   2.139
 4919W        W 8970   9.068   0.827   9.365
 4920W        W 8971   3.684  10.363   1.214
 4921W        W 8972  10.904   2.222  11.418
 4922W        W 8973  10.429   0.107   9.364
 4923W        W 8974   9.272   6.099   2.427
 4924W        W 8975   6.793   7.514   3.119
 4925W        W 8976   6.223  11.408   1.694
 4926W        W 8977   6.473   5.816   9.646
 4927W        W 8978   7.150   2.686   1.323
 4928W        W 8979  10.244   6.524   1.948
 4929W        W 8980   0.782   5.747  11.046
 4930W        W 8981   5.482   2.808   2.433
 4931W        W 8982   7.519   0.492   0.437
 4932W        W 8983   1.123   6.024   0.943
 4933W        W 8984   3.540   8.447   3.161
 4934W        W 8985  10.201   1.147   0.037
 4935W        W 8986   2.781   1.887   0.676
 4936W        W 8987   3.177  10.473   9.484
 4937W        W 8988   3.915   7.000  11.153
 4938W        W 8989   7.469   1.972  10.509
 4939W        W 8990   4.073   2.500   9.005
 4940W        W 8991   3.375   9.876  11.937
 4941W        W 8992   8.741   3.855   1.681
 4942W        W 8993   7.984   6.327   2.727
 4943W        W 8994   1.171  10.462  11.966
 4944W        W 8995  10.411   7.453   0.161
 4945W        W 8996  10.885   1.531   2.463
 4946W        W 8997   9.964   9.039   0.405
 4947W        W 8998   9.620   4.201   8.940
 4948W        W 8999   2.639   1.352  11.274
 4949W        W 9000   4.206  11.023   1.719
 4950W        W 9001   6.996   0.819   3.101
 4951W        W 9002   8.473   8.856   1.666
 4952W        W 9003   1.828   2.994   2.734
 4953W        W 9004  11.467   2.879  10.436
 4954W        W 9005   8.906   7.767  10.617
 4955W        W 9006   5.989  10.496   1.160
 4956W        W 9007   2.802  11.373   2.709
 4957W        W 9008   2.607   2.440   1.271
 4958W        W 9009  10.366   7.397   2.464
 4959W        W 9010   9.369   4.893   2.273
 4960W        W 9011   2.910   5.091   1.197
 4961W        W 9012  10.381   1.630  10.955
 4962W        W 9013  10.889   6.178   3.217
 4963W        W 9014   1.231   4.290   9.398
 4964W        W 9015   1.383   0.378   1.981
 4965W        W 9016   7.178   7.936  11.478
 4966W        W 9017   3.798   8.185   1.935
 4967W        W 9018   1.693   8.137   2.272
 4968W        W 9019   5.861   7.256  11.784
 4969W        W 9020   0.618   3.280   3.324
 4970W        W 9021   2.190   5.799   3.283
 4971W        W 9022  10.293  11.404   2.509
 4972W        W 9023   6.440   0.910  10.398
 4973W        W 9024   6.462   6.111   2.033
 4974W        W 9025  10.152   5.085  11.907
 4975W        W 9026  11.008   4.970  10.790
 4976W        W 9027   8.884   6.368   8.274
 4977W        W 9028   1.761   4.994   0.775
 4978W        W 9029   6.350   5.713   0.260
 4979W        W 9030   6.621   4.957  11.956
 4980W        W 9031   6.273  10.479   1.641
 4981W        W 9032  11.060   0.508   9.890
 4982W        W 9033  10.183   3.671   0.162
 4983W        W 9034   5.237   6.724   2.218
 4984W        W 9035   9.344   5.950   9.487
 4985W        W 9036   0.390   9.019  11.539
 4986W        W 9037   2.359   3.672   0.366
 4987W        W 9038   4.939   9.995   9.193
 4988W        W 9039   9.120   5.492   9.538
 4989W        W 9040   1.761   6.734   9.869
 4990W        W 9041   4.716  11.453  11.535
 4991W        W 9042   7.057   5.541  11.163
 4992W        W 9043   2.481   4.124   2.273
 4993W        W 9044   6.801  11.096   3.580
 4994W        W 9045   7.927   5.920  11.446
 4995W        W 9046   6.711   7.962   0.649
 4996W        W 9047   3.495   7.931   2.293
 4997W        W 9048   8.395   6.093  11.394
 4998W        W 9049  11.439   6.466   9.911
 4999W        W 9050   1.951   2.686   9.379
 5000W        W 9051   7.559   9.499   8.527
 5001W        W 9052   5.791   6.627   1.379
 5002W        W 9053  11.220   2.095   8.975
 5003W        W 9054   8.304  10.538  11.484
 5004W        W 9055   0.173   8.060  11.298
 5005W        W 9056  10.000   5.170   3.511
 5006W        W 9057   0.910   9.042   3.652
 5007W        W 9058   2.891   6.542  11.956
 5008W        W 9059   7.300  10.484  11.340
 5009W        W 9060   4.212   0.147   3.532
 5010W        W 9061   8.030   6.876   1.267
 5011W        W 9062   8.534   4.052   2.827
 5012W        W 9063   3.672  11.233   0.809
 5013W        W 9064   0.690   7.727   2.383
 5014W        W 9065   5.443   9.411   3.653
 5015W        W 9066   1.042   9.653  10.886
 5016W        W 9067   7.422   2.616   9.863
 5017W        W 9068   4.173   6.035   1.676
 5018W        W 9069   7.566  11.049   2.669
 5019W        W 9070   8.509   7.455  10.777
 5020W        W 9071   6.536   6.166   8.222
 5021W        W 9072   2.681   6.473   0.943
 5022W        W 9073   3.262   2.597   0.005
 5023W        W 9074   6.604   8.542   9.215
 5024W        W 9075   2.697  11.078   1.068
 5025W        W 9076   6.570  10.351   2.526
 5026W        W 9077   3.308   1.177   1.057
 5027W        W 9078   8.782  10.306   9.080
 5028W        W 9079   5.559   3.223   9.335
 5029W        W 9080   5.948   5.792  10.514
 5030W        W 9081  10.026   3.663  11.686
 5031W        W 9082   9.975   5.503   9.058
 5032W        W 9083   8.382   2.545   9.995
 5033W        W 9084   5.278   2.186  11.436
 5034W        W 9085   0.572   2.311  10.345
 5035W        W 9086   1.385   9.509  11.536
 5036W        W 9087   6.661   8.349   2.301
 5037W        W 9088   8.184   9.488   3.261
 5038W        W 9089   9.968   8.617   2.913
 5039W        W 9090   2.523   6.659   3.474
 5040W        W 9091   1.392   1.448   1.764
 5041W        W 9092   9.749   9.246   2.289
 5042W        W 9093   5.302   5.110  11.617
 5043W        W 9094   6.692  11.379   1.489
 5044W        W 9095   8.856   8.366   8.091
 5045W        W 9096   2.792   7.915   9.912
 5046W        W 9097   1.690   1.495   2.574
 5047W        W 9098   5.711   9.175   0.501
 5048W        W 9099  10.979   5.545  11.841
 5049W        W 9100   1.373   4.548   8.983
 5050W        W 9101   5.589   6.138  10.669
 5051W        W 9102  11.191  10.801   9.472
 5052W        W 9103   9.372   1.849   1.053
 5053W        W 9104   5.352   1.399   8.703
 5054W        W 9105   9.610   3.790   9.488
 5055W        W 9106   2.517   2.924  10.538
 5056W        W 9107   3.742   8.483   9.194
 5057W        W 9108  11.149   1.474   0.952
 5058W        W 9109   8.628  10.829  10.446
 5059W        W 9110   5.441   7.784   8.236
 5060W        W 9111   1.392   5.673   2.752
 5061W        W 9112   7.572  10.927   1.308
 5062W        W 9113   0.448   1.494   0.295
 5063W        W 9114   4.523   1.299  11.984
 5064W        W 9115   0.275   7.492   2.501
 5065W        W 9116   2.477   5.305   0.510
 5066W        W 9117   7.806   5.515  11.717
 5067W        W 9118   7.545   8.947  10.221
 5068W        W 9119   3.106   1.843  10.080
 5069W        W 9120   4.010   0.416   1.936
 5070W        W 9121   7.529   0.710  11.586
 5071W        W 9122   4.079   4.821   0.812
 5072W        W 9123   9.653   1.342   2.935
 5073W        W 9124   6.667   7.540   9.158
 5074W        W 9125   3.268   7.824   8.928
 5075W        W 9126  11.459   0.758  10.798
 5076W        W 9127   1.403   5.083   8.999
 5077W        W 9128   7.209  10.618   3.490
 5078W        W 9129   1.286   2.279   2.863
 5079W        W 9130   8.774   3.130  10.934
 5080W        W 9131   1.738   7.618  11.845
 5081W        W 9132   4.112   2.172   2.186
 5082W        W 9133  10.087   1.734  11.368
 5083W        W 9134   3.316   8.611   2.720
 5084W        W 9135   7.817   7.576   3.140
 5085W        W 9136   4.634   4.402  11.364
 5086W        W 9137  11.431   9.260  11.392
 5087W        W 9138   8.621   7.191  10.328
 5088W        W 9139   3.440   7.082  10.962
 5089W        W 9140   1.914   0.289  10.014
 5090W        W 9141   2.931  10.039   0.547
 5091W        W 9142   0.489  11.007   9.109
 5092W        W 9143   1.787   6.437   2.461
 5093W        W 9144   3.631   8.905   9.927
 5094W        W 9145   8.553   2.848   3.165
 5095W        W 9146   6.998   0.727  11.738
 5096W        W 9147   9.357  11.129  11.762
 5097W        W 9148   9.318  11.001   9.384
 5098W        W 9149   2.643   5.563   9.247
 5099W        W 9150   1.340   7.860  10.445
 5100W        W 9151   4.355   9.115   8.553
 5101W        W 9152  11.110   9.644   3.011
 5102W        W 9153   0.794   6.631   0.344
 5103W        W 9154   3.782   7.977   0.479
 5104W        W 9155   2.524   9.629  11.133
 5105W        W 9156   9.032   6.320   1.729
 5106W        W 9157   4.375   7.130   2.651
 5107W        W 9158  10.804   8.219   3.224
 5108W        W 9159   6.621   9.451   0.579
 5109W        W 9160   1.396   0.470   0.924
 5110W        W 9161   4.551   3.017   1.906
 5111W        W 9162   8.600   3.673   8.335
 5112W        W 9163   4.509   5.987  10.659
 5113W        W 9164   4.637   1.477   3.244
 5114W        W 9165   3.407   9.106   2.766
 5115W        W 9166   0.902   5.278   3.235
 5116W        W 9167   0.287  10.965   3.644
 5117W        W 9168   0.286   9.450  10.441
 5118W        W 9169   1.943  10.888   2.664
 5119W        W 9170   1.940   3.300   3.112
 5120W        W 9171  11.431  10.811   2.345
 5121W        W 9172   0.393   5.410  11.657
 5122W        W 9173   1.776  11.331   1.967
 5123W        W 9174   3.732   7.646   1.858
 5124W        W 9175   8.006   6.938  11.500
 5125W        W 9176   4.636   4.405   1.682
 5126W        W 9177  10.784   0.977  10.036
 5127W        W 9178  10.619   2.227  11.847
 5128W        W 9179   5.497   5.188  10.220
 5129W        W 9180   7.468   8.866  10.707
 5130W        W 9181   4.033   3.111  10.536
 5131W        W 9182   0.748   4.318   9.078
 5132W        W 9183   3.233   6.710   9.364
 5133W        W 9184   4.492   3.747   2.309
 5134W        W 9185  10.906   2.139   3.575
 5135W        W 9186   6.653   9.956   2.223
 5136W        W 9187   0.774   1.703   3.176
 5137W        W 9188   0.967   1.898  11.491
 5138W        W 9189   1.393   9.930  11.235
 5139W        W 9190   2.622   3.798   9.922
 5140W        W 9191   3.391   3.203  11.966
 5141W        W 9192   0.970   7.909   2.810
 5142W        W 9193   8.208   4.506   3.107
 5143W        W 9194   6.127   2.749   8.648
 5144W        W 9195  10.388   6.970   3.196
 5145W        W 9196   6.187   1.806   0.278
 5146W        W 9197  11.446   9.222   1.798
 5147W        W 9198   0.441   9.568   2.475
 5148W        W 9199   5.002   4.314   3.593
 5149W        W 9200   1.564   1.916   1.699
 5150W        W 9201   2.263   0.692   1.040
 5151W        W 9202   5.285   1.273   1.621
 5152W        W 9203   3.092   5.370   3.401
 5153W        W 9204   6.030   7.439  10.753
 5154W        W 9205  10.834   2.809  10.035
 5155W        W 9206   6.166   2.107  11.864
 5156W        W 9207   4.630   4.819  11.949
 5157W        W 9208  10.640   1.361   3.243
 5158W        W 9209   0.916   8.480   1.239
 5159W        W 9210   5.746   0.914   9.422
 5160W        W 9211   6.920   4.073   1.851
 5161W        W 9212   3.593   5.206   8.321
 5162W        W 9213   8.829  11.326   1.227
 5163W        W 9214   3.748   7.464  11.731
 5164W        W 9215   9.064   2.239  10.977
 5165W        W 9216   9.838   9.854   9.365
 5166W        W 9217   4.190   5.172   1.592
 5167W        W 9218   2.506  10.345   2.552
 5168W        W 9219   1.321   4.730   0.715
 5169W        W 9220   1.254   8.143   1.045
 5170W        W 9221   1.894   4.062  10.130
 5171W        W 9222   2.620   4.599   2.447
 5172W        W 9223   7.959   8.831  11.598
 5173W        W 9224   8.538   5.699   2.645
 5174W        W 9225  10.281   7.021   0.978
 5175W        W 9226   0.676   4.299   3.487
 5176W        W 9227   0.923   5.520   2.520
 5177W        W 9228   8.741   6.133   0.997
 5178W        W 9229   1.789   4.127   2.813
 5179W        W 9230   2.090   9.591   3.013
 5180W        W 9231   5.087   7.018   0.218
 5181W        W 9232  10.780   2.614   1.696
 5182W        W 9233   9.496   5.775   9.020
 5183W        W 9234  10.854  10.426   8.781
 5184W        W 9235   3.612   4.208   1.469
 5185W        W 9236   0.435   5.483  10.747
 5186W        W 9237   6.204   7.599   1.407
 5187W        W 9238   9.689   1.185   3.471
 5188W        W 9239   3.359   4.286   9.800
 5189W        W 9240  10.910   0.978   3.431
 5190W        W 9241   8.153   1.847   9.104
 5191W        W 9242   6.021   0.881   3.511
 5192W        W 9243   0.717  10.869  10.300
 5193W        W 9244   6.883   9.599   8.866
 5194W        W 9245  10.969   2.508   2.652
 5195W        W 9246   9.297   5.300   9.015
 5196W        W 9247   0.884   4.186  10.765
 5197W        W 9248   9.621  10.495   2.448
 5198W        W 9249   3.848   6.487  11.269
 5199W        W 9250   1.832   7.561  10.942
 5200W        W 9251   3.708   6.141   1.991
 5201W        W 9252   2.685   1.744   9.347
 5202W        W 9253   8.867   4.161  10.210
 5203W        W 9254   4.998   3.092   9.162
 5204W        W 9255   6.347   6.164   0.510
 5205W        W 9256   8.647   1.908   8.970
 5206W        W 9257   9.420  10.889   2.203
 5207W        W 9258   9.084   5.278   0.070
 5208W        W 9259   4.656   9.502   0.224
 5209W        W 9260   3.384   7.048   2.350
 5210W        W 9261   2.022   6.318   9.729
 5211W        W 9262   6.756  11.107   0.959
 5212W        W 9263   3.989   1.046  10.003
 5213W        W 9264   6.235   0.446   8.837
 5214W        W 9265   9.141   6.589  11.663
 5215W        W 9266   9.406   1.306   2.050
 5216W        W 9267   8.945   8.511   8.580
 5217W        W 9268   6.519   6.782   3.514
 5218W        W 9269  10.421   5.226   0.428
 5219W        W 9270   0.724   7.162  10.498
 5220W        W 9271   2.236   5.584  10.575
 5221W        W 9272   1.533   4.976   9.845
 5222W        W 9273   0.263   2.138  11.457
 5223W        W 9274   9.367  11.487   2.889
 5224W        W 9275   7.968   1.185   0.193
 5225W        W 9276   3.305   7.009   1.314
 5226W        W 9277   3.566   8.459   1.118
 5227W        W 9278   8.913   7.276  11.540
 5228W        W 9279   2.502   4.268   0.105
 5229W        W 9280   0.897   0.335   1.305
 5230W        W 9281   5.327   1.010   9.057
 5231W        W 9282   7.993   9.337  10.869
 5232W        W 9283   1.232   8.677  11.060
 5233W        W 9284   2.619   0.150   2.225
 5234W        W 9285   3.138  10.793   0.144
 5235W        W 9286   0.655   5.474   0.423
 5236W        W 9287   1.133   1.890   9.501
 5237W        W 9288   2.081   2.919  10.824
 5238W        W 9289   8.501   4.941   2.395
 5239W        W 9290   6.682   0.465  11.198
 5240W        W 9291   9.413   9.908  11.997
 5241W        W 9292   9.609   8.552   1.172
 5242W        W 9293  11.095   8.154  10.722
 5243W        W 9294  11.046   3.987  10.957
 5244W        W 9295   9.320   2.156  11.542
 5245W        W 9296   3.170   4.781   2.506
 5246W        W 9297  11.199   0.467   0.089
 5247W        W 9298   1.475   2.773   9.522
 5248W        W 9299   9.821   2.182  11.500
 5249W        W 9300   7.599   4.133  10.167
 5250W        W 9301   0.681   7.603   3.078
 5251W        W 9302   0.978   2.830  11.363
 5252W        W 9303   6.077   2.086  10.858
 5253W        W 9304   7.197   1.560  11.342
 5254W        W 9305   1.784   8.212   3.122
 5255W        W 9306   3.956   2.786   1.144
 5256W        W 9307   8.518  10.008  11.835
 5257W        W 9308  10.357   1.232   1.825
 5258W        W 9309   1.728   0.030   0.924
 5259W        W 9310   9.239   7.635   1.525
 5260W        W 9311   9.611   8.889   9.874
 5261W        W 9312   9.130   5.439   1.923
 5262W        W 9313   3.718   3.118   9.594
 5263W        W 9314   1.734   0.724   3.167
 5264W        W 9315   7.074   6.306  10.126
 5265W        W 9316   5.093   0.770  10.778
 5266W        W 9317   2.879   2.817   1.461
 5267W        W 9318   1.321   8.845   9.513
 5268W        W 9319   4.388   9.955  11.660
 5269W        W 9320   9.344   3.858   9.927
 5270W        W 9321   2.819   0.023   1.274
 5271W        W 9322  10.737   5.353  11.003
 5272W        W 9323   1.322   7.547   0.353
 5273W        W 9324   0.038   4.759  11.022
 5274W        W 9325  11.154   3.500  11.756
 5275W        W 9326   1.202   4.700   2.288
 5276W        W 9327   4.892  10.392   9.536
 5277W        W 9328   4.306   7.108   3.171
 5278W        W 9329   3.402   6.695   0.711
 5279W        W 9330   5.720   8.506  11.389
 5280W        W 9331   9.648   5.118  11.920
 5281W        W 9332   3.413   0.244  10.934
 5282W        W 9333   6.407   3.654   2.435
 5283W        W 9334   9.098   2.467  11.875
 5284W        W 9335   2.743  10.325   9.703
 5285W        W 9336   4.863  10.039  11.470
 5286W        W 9337   8.964   2.897   1.762
 5287W        W 9338   2.894   9.405  10.837
 5288W        W 9339  11.406   1.192   3.370
 5289W        W 9340   3.475   8.819  11.115
 5290W        W 9341   0.395   4.485  10.710
 5291W        W 9342   6.148   8.643   1.227
 5292W        W 9343   2.299   5.658  10.089
 5293W        W 9344   0.472   1.770   1.337
 5294W        W 9345   0.800   6.584   9.527
 5295W        W 9346   0.897   1.497   2.259
 5296W        W 9347  10.792   4.126  11.804
 5297W        W 9348   1.229   9.782  10.306
 5298W        W 9349   4.344   6.514  11.291
 5299W        W 9350   9.169   7.115   2.347
 5300W        W 9351   1.238   6.247   9.448
 5301W        W 9352   3.337  11.277  10.152
 5302W        W 9353   5.095   0.294  10.997
 5303W        W 9354  11.391   1.673   3.163
 5304W        W 9355   1.460   3.102   2.404
 5305W        W 9356  10.832   7.431   0.449
 5306W        W 9357  10.759   6.588   0.373
 5307W        W 9358   5.084   9.981   1.833
 5308W        W 9359   9.483   4.866  11.073
 5309W        W 9360   7.008   0.963   0.736
 5310W        W 9361   2.107   1.597  11.038
 5311W        W 9362   6.164   0.846   1.974
 5312W        W 9363   7.957   1.290  10.882
 5313W        W 9364   1.589   4.193  10.554
 5314W        W 9365  10.821   8.651   2.684
 5315W        W 9366   5.300   0.663   0.319
 5316W        W 9367   3.594   9.633   1.623
 5317W        W 9368   3.351   6.679  11.793
 5318W        W 9369   8.374   1.658  10.878
 5319W        W 9370   1.450   4.523  11.285
 5320W        W 9371  10.379   1.539  11.790
 5321W        W 9372   5.189   0.348   9.951
 5322W        W 9373   9.864   2.676   9.825
 5323W        W 9374   6.684   4.346   0.838
 5324W        W 9375   1.365   6.052  10.338
 5325W        W 9376   7.628   2.105  10.027
 5326W        W 9377  10.607  11.075   2.273
 5327W        W 9378   9.737   5.240  10.827
 5328W        W 9379   0.084   5.571   2.746
 5329W        W 9380   5.766   6.044   2.676
 5330W        W 9381   6.751   9.737   3.707
 5331W        W 9382   3.937   4.156   2.281
 5332W        W 9383   9.830   0.006   2.701
 5333W        W 9384   4.667   7.380   1.913
 5334W        W 9385   3.861   0.589   0.458
 5335W        W 9386   8.737   7.351   0.018
 5336W        W 9387   5.168   3.480   0.032
 5337W        W 9388   1.419   7.504   9.494
 5338W        W 9389  11.351   5.582  10.238
 5339W        W 9390   2.361   2.984   9.326
 5340W        W 9391   8.994   1.443   0.232
 5341W        W 9392   8.004   7.439  11.570
 5342W        W 9393   8.056   8.798   2.986
 5343W        W 9394   7.679   1.488  10.482
 5344W        W 9395   5.738   2.330  11.237
 5345W        W 9396   8.052   1.993  11.105
 5346W        W 9397   1.403   0.035   0.492
 5347W        W 9398   6.669   5.008  10.576
 5348W        W 9399   1.006   1.983  10.356
 5349W        W 9400   1.691   3.731   3.109
 5350W        W 9401   0.071   8.980   0.772
 5351W        W 9402  10.138   4.236  10.981
 5352W        W 9403   2.855   7.986   8.048
 5353W        W 9404   2.036   5.115   0.353
 5354W        W 9405  10.390   1.406   2.303
 5355W        W 9406   1.388   0.244   2.487
 5356W        W 9407   0.121   5.262   8.538
 5357W        W 9408   2.704   0.886  11.886
 5358W        W 9409   2.761   0.596   2.408
 5359W        W 9410   4.704   7.962  10.793
 5360W        W 9411   0.455   4.529  11.245
 5361W        W 9412   0.973   5.798   3.022
 5362W        W 9413   9.014  10.873   1.883
 5363W        W 9414   3.671  11.456   2.905
 5364W        W 9415   6.423   1.569  11.892
 5365W        W 9416   6.656  10.411   8.944
 5366W        W 9417   4.334   4.669   9.144
 5367W        W 9418   7.229   3.345  10.501
 5368W        W 9419   9.322  10.165   0.965
 5369W        W 9420   9.045  10.850   8.973
 5370W        W 9421   1.860  11.280   9.335
 5371W        W 9422  10.269   9.607  11.963
 5372W        W 9423   0.406   4.650   0.714
 5373W        W 9424   6.072   4.586   2.695
 5374W        W 9425   8.015  10.057   9.584
 5375W        W 9426  11.390   0.140  10.090
 5376W        W 9427   4.424   2.787  10.552
 5377W        W 9428   2.782  10.801   9.505
 5378W        W 9429   5.513   4.729   9.508
 5379W        W 9430  10.318   2.873  10.005
 5380W        W 9431   5.070   0.367  11.970
 5381W        W 9432   7.527   4.004   1.094
 5382W        W 9433   6.782   7.110  10.444
 5383W        W 9434   4.643   4.617   2.489
 5384W        W 9435   7.133   5.299  10.359
 5385W        W 9436   6.234   3.899  11.479
 5386W        W 9437   2.930   6.629  11.449
 5387W        W 9438   9.868   9.684   1.747
 5388W        W 9439   9.012   8.947   8.892
 5389W        W 9440   8.920   0.076   0.031
 5390W        W 9441   7.487   9.721   0.462
 5391W        W 9442   2.653   1.449   0.894
 5392W        W 9443   1.184   8.391   0.224
 5393W        W 9444   8.168   2.439  10.917
 5394W        W 9445   1.160   9.176  11.029
 5395W        W 9446   5.760   1.450   1.462
 5396W        W 9447   6.192   3.856   3.315
 5397W        W 9448   4.117   8.256  10.772
 5398W        W 9449   8.100   6.789   9.583
 5399W        W 9450   3.842   8.702   1.883
 5400W        W 9451   8.938  11.370   3.156
 5401W        W 9452   4.191   8.889   1.258
 5402W        W 9453   6.176   1.873  10.409
 5403W        W 9454   8.692   9.543   3.373
 5404W        W 9455   3.655   7.504   9.715
 5405W        W 9456   3.551   0.967   2.811
 5406W        W 9457   1.221  10.863  10.314
 5407W        W 9458   8.915  10.443   1.151
 5408W        W 9459  11.281   4.717   2.161
 5409W        W 9460   5.324   2.709   8.550
 5410W        W 9461   4.292   5.191   1.090
 5411W        W 9462   1.749   6.442   3.019
 5412W        W 9463   0.252  11.448   9.297
 5413W        W 9464   3.265   1.270  10.512
 5414W        W 9465   9.962   8.732  11.916
 5415W        W 9466   3.353  10.799   8.321
 5416W        W 9467   5.490   9.411   1.451
 5417W        W 9468   5.584   8.856  10.250
 5418W        W 9469   5.957   4.504   9.604
 5419W        W 9470   2.886   8.075  11.516
 5420W        W 9471   8.425  11.300   8.653
 5421W        W 9472   0.851   2.346  10.820
 5422W        W 9473   9.432   4.571   0.504
 5423W        W 9474   2.486   3.236   2.263
 5424W        W 9475  10.000   2.246   2.375
 5425W        W 9476   7.292   6.174   8.771
 5426W        W 9477  10.674   0.310   2.786
 5427W        W 9478   7.523   0.446   1.424
 5428W        W 9479   7.605   9.947   9.289
 5429W        W 9480   3.661   2.719   2.821
 5430W        W 9481  10.477   6.013   8.994
 5431W        W 9482   0.372   3.714   9.413
 5432W        W 9483   8.748   6.349  10.011
 5433W        W 9484  10.995   4.618   9.902
 5434W        W 9485   5.035   4.796   0.689
 5435W        W 9486   3.765   9.942   3.069
 5436W        W 9487   8.997   3.840   3.058
 5437W        W 9488   2.186   0.880   2.677
 5438W        W 9489   7.013   5.549   1.502
 5439W        W 9490   0.039   6.147   0.506
 5440W        W 9491   4.615   9.844   3.131
 5441W        W 9492  10.685   3.098  11.556
 5442W        W 9493   9.867   2.236   9.565
 5443W        W 9494   3.156   4.268   8.879
 5444W        W 9495   9.948   0.356  11.337
 5445W        W 9496   8.074   2.660   3.284
 5446W        W 9497   3.920   5.262  11.059
 5447W        W 9498   1.145   4.240  10.319
 5448W        W 9499   0.434   1.269   2.076
 5449W        W 9500   4.298   0.242  11.532
 5450W        W 9501   3.346   0.302  10.397
 5451W        W 9502   5.910   0.445   1.798
 5452W        W 9503   5.224   7.949   2.214
 5453W        W 9504   4.665   8.612   0.077
 5454W        W 9505   8.444   7.154   1.142
 5455W        W 9506   9.452   6.574   2.579
 5456W        W 9507   8.299   3.828   9.147
 5457W        W 9508   3.285   8.067  11.224
 5458W        W 9509   8.252   3.187   8.530
 5459W        W 9510   7.598   6.070   2.167
 5460W        W 9511  10.869   5.692   9.021
 5461W        W 9512   5.926   9.149   9.386
 5462W        W 9513   5.735  10.970  11.962
 5463W        W 9514   8.884  10.062   9.565
 5464W        W 9515   5.265   1.615   9.756
 5465W        W 9516   9.024   6.456   1.253
 5466W        W 9517   4.783   9.949   0.023
 5467W        W 9518   7.728   7.603  11.956
 5468W        W 9519   0.710   2.215   1.196
 5469W        W 9520  10.931   4.167   9.301
 5470W        W 9521  10.737  11.254   8.510
 5471W        W 9522   1.298   5.249   0.762
 5472W        W 9523   6.981   9.887   1.734
 5473W        W 9524   8.058   5.410  11.282
 5474W        W 9525   1.178   5.192  10.144
 5475W        W 9526   2.677   3.311   0.760
 5476W        W 9527   7.570  10.520   1.745
 5477W        W 9528   9.971  10.446  10.826
 5478W        W 9529   6.275   6.541   2.241
 5479W        W 9530  10.242   9.179   2.253
 5480W        W 9531   2.406   2.301   1.825
 5481W        W 9532   8.884   7.610   0.759
 5482W        W 9533  10.973   4.671   1.203
 5483W        W 9534   9.822  10.961  11.843
 5484W        W 9535  11.125   2.241  11.934
 5485W        W 9536   3.922   1.596  11.477
 5486W        W 9537  11.388   4.408   8.525
 5487W        W 9538   7.576   7.163  11.706
 5488W        W 9539   5.966   2.748   1.925
 5489W        W 9540   1.850  10.832   2.126
 5490W        W 9541   6.074  10.617   3.696
 5491W        W 9542   8.880   8.885  11.639
 5492W        W 9543  10.550   4.200   3.637
 5493W        W 9544   4.660   0.415  10.585
 5494W        W 9545   5.206   0.890   2.507
 5495W        W 9546   7.305   7.571   3.096
 5496W        W 9547   9.628   2.602   2.719
 5497W        W 9548   1.673   0.460   8.544
 5498W        W 9549   8.067   6.836  10.387
 5499W        W 9550   9.381   1.052   8.536
 5500W        W 9551   6.925   2.537  11.556
 5501W        W 9552   8.618   0.721  10.686
 5502W        W 9553   0.769   7.707   8.884
 5503W        W 9554   2.182   3.639  11.840
 5504W        W 9555   9.385  10.758  10.760
 5505W        W 9556   8.851   4.372   1.722
 5506W        W 9557   4.859   7.165   8.967
 5507W        W 9558   5.254   8.280   2.642
 5508W        W 9559   0.511   3.182   9.290
 5509W        W 9560  10.558   6.132   0.358
 5510W        W 9561  10.945   6.587   9.107
 5511W        W 9562   0.978   6.161   0.427
 5512W        W 9563   5.857   1.398   0.206
 5513W        W 9564   1.312   8.938   1.485
 5514W        W 9565   7.630   2.427   1.320
 5515W        W 9566   2.629   3.013   8.853
 5516W        W 9567   9.473   9.142   0.319
 5517W        W 9568   3.679   0.884  11.848
 5518W        W 9569  10.116   5.212   0.845
 5519W        W 9570  11.042   7.393   2.095
 5520W        W 9571   1.599   8.053   8.864
 5521W        W 9572   1.577   2.891  11.939
 5522W        W 9573   4.110   1.279   9.567
 5523W        W 9574   6.122   3.278  11.641
 5524W        W 9575   6.126   6.676   9.359
 5525W        W 9576  11.370   8.881   0.304
 5526W        W 9577   4.096   9.382   0.905
 5527W        W 9578   8.027   5.171   2.336
 5528W        W 9579   6.875   1.685  11.722
 5529W        W 9580   5.280   7.147  10.448
 5530W        W 9581   9.119   8.189   3.148
 5531W        W 9582   7.194   3.785  11.319
 5532W        W 9583   7.208   9.005   1.342
 5533W        W 9584   0.363   5.059   9.777
 5534W        W 9585   9.613   8.868   1.974
 5535W        W 9586   8.459   0.280  10.919
 5536W        W 9587   3.659   4.595   1.079
 5537W        W 9588   6.181   0.310   9.757
 5538W        W 9589   1.530   5.679   0.928
 5539W        W 9590   4.452   0.881   9.575
 5540W        W 9591   3.718   3.627   0.263
 5541W        W 9592   8.888  10.469   0.655
 5542W        W 9593   0.755   4.632   8.646
 5543W        W 9594   2.669   6.423   1.853
 5544W        W 9595   0.756   6.579   8.426
 5545W        W 9596   3.088   0.008   1.992
 5546W        W 9597   9.447   9.762   0.686
 5547W        W 9598   4.501   4.343   1.207
 5548W        W 9599   8.209   3.216   2.584
 5549W        W 9600   7.880   9.069   2.097
 5550W        W 9601   8.462   8.514   0.505
 5551W        W 9602   0.835   8.360  11.807
 5552W        W 9603   9.591   5.559  10.357
 5553W        W 9604   1.278   8.291   3.167
 5554W        W 9605   5.510  10.920  10.095
 5555W        W 9606   5.049   7.616  10.544
 5556W        W 9607   1.971   2.523   8.481
 5557W        W 9608   7.617   8.595   1.353
 5558W        W 9609   5.157  10.582   2.684
 5559W        W 9610  10.981   6.684   0.813
 5560W        W 9611   2.313   2.285  12.000
 5561W        W 9612   9.939   7.654   2.826
 5562W        W 9613   3.735   1.680   8.883
 5563W        W 9614  10.426   7.074  11.135
 5564W        W 9615   2.299   0.948   1.516
 5565W        W 9616   2.607  11.081  11.321
 5566W        W 9617   5.551   0.909  10.983
 5567W        W 9618   4.430   9.884   9.284
 5568W        W 9619   6.447   6.554   0.182
 5569W        W 9620  10.792   3.064   1.990
 5570W        W 9621  10.427   1.122   9.383
 5571W        W 9622   5.989   5.755   9.185
 5572W        W 9623   2.345   2.314   2.831
 5573W        W 9624   8.089   7.849   2.655
 5574W        W 9625   7.504  11.005  11.983
 5575W        W 9626  11.475   8.660   2.788
 5576W        W 9627   4.865   3.969  11.243
 5577W        W 9628   5.634   1.933   1.495
 5578W        W 9629   0.350   2.587   2.820
 5579W        W 9630   7.657  11.361   9.924
 5580W        W 9631   7.770   8.960  11.132
 5581W        W 9632   5.979   3.968   2.374
 5582W        W 9633   5.147   7.505   0.364
 5583W        W 9634   8.173   1.954   1.720
 5584W        W 9635   8.635   8.045   8.629
 5585W        W 9636   5.066   9.298   0.013
 5586W        W 9637   7.021   4.105   3.468
 5587W        W 9638   6.677   7.370   1.404
 5588W        W 9639   6.191   0.432   3.348
 5589W        W 9640   0.395   3.563   0.199
 5590W        W 9641   7.784   7.132  10.712
 5591W        W 9642   0.058   9.815   0.404
 5592W        W 9643   9.065   2.803   0.289
 5593W        W 9644   8.169   1.658   0.377
 5594W        W 9645   2.163   3.880   9.725
 5595W        W 9646   9.370   9.621   8.495
 5596W        W 9647   3.300   8.258   8.433
 5597W        W 9648   5.550   4.378   9.098
 5598W        W 9649   0.792  10.585  11.152
 5599W        W 9650   8.949   8.582  10.269
 5600W        W 9651   5.810   7.428   1.151
 5601W        W 9652   4.200   4.072  10.703
 5602W        W 9653   4.828   1.735   9.985
 5603W        W 9654   8.567   6.693  10.376
 5604W        W 9655   4.058   9.075  10.181
 5605W        W 9656   3.841   5.285   0.798
 5606W        W 9657   8.807  10.053   3.500
 5607W        W 9658   3.671   5.878  11.646
 5608W        W 9659  10.874   3.142   3.468
 5609W        W 9660   4.688   2.699   2.790
 5610W        W 9661   4.053   0.933   2.695
 5611W        W 9662  10.298  10.512   1.068
 5612W        W 9663   3.846   4.890  11.830
 5613W        W 9664   8.614   4.453  10.828
 5614W        W 9665  10.896   0.389   1.820
 5615W        W 9666   3.719   9.457  11.751
 5616W        W 9667  10.257  10.767   9.576
 5617W        W 9668   7.980   5.230   8.669
 5618W        W 9669   9.547   1.152  10.806
 5619W        W 9670   0.370  11.352  11.079
 5620W        W 9671   9.510   0.327   1.400
 5621W        W 9672  11.310   8.052   9.294
 5622W        W 9673   5.981   9.157  10.401
 5623W        W 9674   0.379   0.859   1.100
 5624W        W 9675   6.938   1.649   9.788
 5625W        W 9676   1.360   4.073  11.501
 5626W        W 9677   9.845   7.501   0.844
 5627W        W 9678   7.893   2.792   9.950
 5628W        W 9679   2.658   8.338  10.664
 5629W        W 9680   9.596   6.410   8.264
 5630W        W 9681  11.339   0.014   2.670
 5631W        W 9682   3.810  11.356   3.381
 5632W        W 9683   2.997   7.841   2.236
 5633W        W 9684   3.736   2.948   2.375
 5634W        W 9685   3.668   6.225   3.543
 5635W        W 9686  11.457   9.870   1.298
 5636W        W 9687   7.707   5.173   0.507
 5637W        W 9688   3.154   2.412   1.293
 5638W        W 9689   0.702   7.891   9.743
 5639W        W 9690   0.491   5.768   1.869
 5640W        W 9691   9.542   3.167   1.321
 5641W        W 9692   6.050   8.308   0.231
 5642W        W 9693   2.258   8.995   2.007
 5643W        W 9694   4.566  10.339   9.065
 5644W        W 9695   7.877  11.428   2.991
 5645W        W 9696   9.397   8.160   0.347
 5646W        W 9697   4.235   6.062  11.087
 5647W        W 9698   1.465   6.954  10.571
 5648W        W 9699   8.454   6.221  10.537
 5649W        W 9700   9.247   4.997  11.644
 5650W        W 9701   0.954   3.708   0.955
 5651W        W 9702   8.026   9.043   3.425
 5652W        W 9703   0.379   9.342   9.042
 5653W        W 9704   8.650   1.231   3.087
 5654W        W 9705   8.547   4.746   9.040
 5655W        W 9706   6.452   6.257  10.932
 5656W        W 9707   2.939   4.711  11.421
 5657W        W 9708   2.286   0.544   9.550
 5658W        W 9709   6.573  11.251   2.518
 5659W        W 9710   5.668   5.098   1.779
 5660W        W 9711   6.031   6.317   8.163
 5661W        W 9712   9.860  10.671   2.003
 5662W        W 9713   3.231   3.761   9.118
 5663W        W 9714   1.190   3.250   1.073
 5664W        W 9715   9.084  11.247   9.952
 5665W        W 9716   9.610   2.898  10.507
 5666W        W 9717   5.066   3.234   0.498
 5667W        W 9718   3.375   9.310   2.292
 5668W        W 9719   5.076   7.897   0.010
 5669W        W 9720   3.077   4.134  10.792
 5670W        W 9721   3.651   1.277   0.673
 5671W        W 9722   6.582   4.167   3.181
 5672W        W 9723   7.549   0.309  10.214
 5673W        W 9724   3.584  10.495  11.877
 5674W        W 9725   9.071   2.767   1.257
 5675W        W 9726   3.845  10.864   2.094
 5676W        W 9727   6.201  10.021   1.326
 5677W        W 9728   5.262   7.875   0.990
 5678W        W 9729   7.860   1.427   9.154
 5679W        W 9730   3.424   7.689   0.033
 5680W        W 9731   7.695   1.185  11.763
 5681W        W 9732   9.978  10.711   0.290
 5682W        W 9733   7.319   8.002   9.353
 5683W        W 9734   7.636   9.761  10.809
 5684W        W 9735   3.334   5.226   1.988
 5685W        W 9736   8.435   4.703  10.422
 5686W        W 9737   3.095   0.645   2.802
 5687W        W 9738  10.499   2.297   2.606
 5688W        W 9739   9.972   0.833   9.486
 5689W        W 9740  10.293   9.318   9.509
 5690W        W 9741   9.446   2.648   3.277
 5691W        W 9742   7.419   9.129  11.485
 5692W        W 9743   8.051   3.360   9.164
 5693W        W 9744   5.767   5.696   1.147
 5694W        W 9745   2.229   5.289   3.499
 5695W        W 9746   0.660   5.697   3.402
 5696W        W 9747   4.108   1.439  11.012
 5697W        W 9748   2.653   4.149   1.771
 5698W        W 9749   5.602   8.303   3.253
 5699W        W 9750   6.492  10.018   8.184
 5700W        W 9751   3.370   1.879   1.294
 5701W        W 9752   1.006  10.978   0.809
 5702W        W 9753   6.730   6.704   3.031
 5703W        W 9754   3.868   4.380   0.651
 5704W        W 9755   2.292   0.034   9.540
 5705W        W 9756   0.027  11.410   3.136
 5706W        W 9757   9.170   6.628   9.990
 5707W        W 9758   7.937   4.163   2.158
 5708W        W 9759   9.182   4.336   3.074
 5709W        W 9760   3.204   9.849   1.872
 5710W        W 9761   2.717   6.662   2.370
 5711W        W 9762  10.405   7.035  10.360
 5712W        W 9763   6.759   2.073   2.849
 5713W        W 9764   2.703   9.037  11.509
 5714W        W 9765   4.418   6.754   8.588
 5715W        W 9766   2.119   8.594  11.803
 5716W        W 9767   7.689   3.776  11.484
 5717W        W 9768  10.441   7.591  11.241
 5718W        W 9769   4.464   0.661   1.796
 5719W        W 9770   3.890   4.416  10.497
 5720W        W 9771  10.162  10.505   1.565
 5721W        W 9772   0.072   0.982   1.840
 5722W        W 9773   2.138   7.475   1.010
 5723W        W 9774   1.118   0.257  10.690
 5724W        W 9775  11.281   1.307   1.420
 5725W        W 9776   3.501   9.606   2.796
 5726W        W 9777   3.596   2.311   2.488
 5727W        W 9778   7.615   0.192   9.167
 5728W        W 9779   1.726   1.202   3.410
 5729W        W 9780   3.191   5.724  10.982
 5730W        W 9781   6.938   4.639   0.245
 5731W        W 9782  11.092   0.189   3.076
 5732W        W 9783   4.392   8.722  11.618
 5733W        W 9784   1.208   0.629  10.361
 5734W        W 9785   9.991   1.873  11.900
 5735W        W 9786   5.569   3.322   9.851
 5736W        W 9787   2.467   8.624   8.407
 5737W        W 9788   1.278   1.067  10.608
 5738W        W 9789  10.859   3.348   2.987
 5739W        W 9790   3.937   8.468   1.427
 5740W        W 9791   8.688   7.842  11.885
 5741W        W 9792   9.295   1.741   2.935
 5742W        W 9793   9.416   4.897   0.999
 5743W        W 9794   1.915   3.700   8.896
 5744W        W 9795  11.392   8.830   1.484
 5745W        W 9796   4.212   9.948   0.869
 5746W        W 9797   2.786   1.674   0.196
 5747W        W 9798   7.212   3.839  10.256
 5748W        W 9799   7.670   8.013  11.611
 5749W        W 9800   3.142   3.671   1.847
 5750W        W 9801   5.202   9.095   8.980
 5751W        W 9802  10.556   7.703  11.730
 5752W        W 9803   2.559  10.476   8.725
 5753W        W 9804   0.063   7.545  11.364
 5754W        W 9805   0.311   1.202  11.239
 5755W        W 9806  10.777  11.417   3.371
 5756W        W 9807   5.855   1.619   8.590
 5757W        W 9808   3.257   1.379   9.335
 5758W        W 9809   5.988   6.502   2.662
 5759W        W 9810  10.956   6.248   0.033
 5760W        W 9811   3.867   3.861  10.997
 5761W        W 9812  11.449   7.174   9.353
 5762W        W 9813   0.150   1.401  10.352
 5763W        W 9814   0.791   0.897   2.201
 5764W        W 9815   1.071   6.068  11.334
 5765W        W 9816   3.157   4.946   0.401
 5766W        W 9817   0.675   8.389   0.307
 5767W        W 9818   6.699  11.374   0.360
 5768W        W 9819   8.949   0.952   0.960
 5769W        W 9820  11.302   1.126   9.551
 5770W        W 9821   0.927   4.208   2.245
 5771W        W 9822   8.097   9.248   2.787
 5772W        W 9823   9.495   2.139   1.460
 5773W        W 9824   1.229   7.562  11.859
 5774W        W 9825   2.233   6.133   1.957
 5775W        W 9826   9.486   9.342   1.822
 5776W        W 9827  10.567   6.234  10.761
 5777W        W 9828   9.371   7.032   3.308
 5778W        W 9829   8.603   6.196   1.463
 5779W        W 9830   7.043   6.315   8.325
 5780W        W 9831   0.921   5.300  10.872
 5781W        W 9832   8.895   9.575   2.198
 5782W        W 9833  11.327   7.446   0.297
 5783W        W 9834   8.720   0.417   2.776
 5784W        W 9835   6.737   3.166  10.282
 5785W        W 9836   5.856   9.840   3.385
 5786W        W 9837   5.938   4.574   0.220
 5787W        W 9838   5.713   7.391   3.631
 5788W        W 9839   6.376   8.058  11.841
 5789W        W 9840  11.412   5.782   2.301
 5790W        W 9841  10.823  10.839   0.376
 5791W        W 9842   6.999   3.690  11.802
 5792W        W 9843   6.864   2.292   2.024
 5793W        W 9844   8.194  10.467   0.478
 5794W        W 9845   2.801   1.299   1.763
 5795W        W 9846   8.517   6.619   1.154
 5796W        W 9847   7.979  10.545   2.550
 5797W        W 9848   5.554  10.980   1.781
 5798W        W 9849  11.443   4.787   9.560
 5799W        W 9850   2.774   0.350   9.117
 5800W        W 9851  10.773   4.124  10.535
 5801W        W 9852   3.109   7.160  11.352
 5802W        W 9853   4.733  10.229   2.760
 5803W        W 9854   1.223  10.087   0.890
 5804W        W 9855   5.445   3.643   8.574
 5805W        W 9856   2.315   7.187   0.072
 5806W        W 9857   6.156   9.796  11.853
 5807W        W 9858   4.042   7.548  10.040
 5808W        W 9859   5.233   8.627   4.147
 5809W        W 9860   7.432   1.002   2.921
 5810W        W 9861   0.223   1.339   1.157
 5811W        W 9862   7.151   9.631   9.824
 5812W        W 9863  10.535   2.768  10.477
 5813W        W 9864  11.280   0.765   2.195
 5814W        W 9865   1.178  10.840   3.177
 5815W        W 9866   2.491  10.782   0.704
 5816W        W 9867   1.026   9.516   8.561
 5817W        W 9868   6.516   2.416   8.905
 5818W        W 9869   2.648   0.760  10.793
 5819W        W 9870   4.583   6.190   0.289
 5820W        W 9871   3.437   0.910   0.319
 5821W        W 9872   0.572   9.465  11.801
 5822W        W 9873   5.918   2.294   1.707
 5823W        W 9874   2.796   3.358   9.756
 5824W        W 9875   2.808  10.080  11.442
 5825W        W 9876   5.132   3.345   9.582
 5826W        W 9877   0.242   4.005   8.985
 5827W        W 9878   8.192   3.651  11.511
 5828W        W 9879   6.564   0.123   0.929
 5829W        W 9880   1.799   1.372   0.757
 5830W        W 9881  11.335  10.754   3.803
 5831W        W 9882   0.105   3.856  10.277
 5832W        W 9883  10.254   4.599   3.222
 5833W        W 9884  10.536   7.852   9.177
 5834W        W 9885   5.306   7.984  10.186
 5835W        W 9886   6.971   6.544   0.353
 5836W        W 9887  10.403   6.734  11.560
 5837W        W 9888   6.167   4.576   1.724
 5838W        W 9889  10.527   7.865   1.455
 5839W        W 9890   6.282   7.948  10.074
 5840W        W 9891   4.028   6.444   1.415
 5841W        W 9892   6.613   5.767   0.716
 5842W        W 9893   0.424   0.876   2.820
 5843W        W 9894   3.097   6.225  11.072
 5844W        W 9895   7.207   4.203   0.379
 5845W        W 9896  10.162  10.242   0.285
 5846W        W 9897   6.887   2.160   9.613
 5847W        W 9898  10.984   3.839   2.842
 5848W        W 9899   6.648   0.261  10.253
 5849W        W 9900   1.807   4.387  10.972
 5850W        W 9901  10.817   1.897   9.742
 5851W        W 9902   9.145   7.716   9.287
 5852W        W 9903   0.039   0.068   0.061
 5853W        W 9904   8.278   5.688  11.834
 5854W        W 9905   0.287   9.052   1.224
 5855W        W 9906   4.395   1.749  11.674
 5856W        W 9907   4.186   8.616  10.411
 5857W        W 9908   0.821   4.820  11.480
 5858W        W 9909   6.508   7.221  10.916
 5859W        W 9910   1.729   5.273   8.430
 5860W        W 9911   7.562   0.945   1.559
 5861W        W 9912   7.150   0.151   0.369
 5862W        W 9913   3.521  10.428   9.967
 5863W        W 9914   2.207   0.351   9.093
 5864W        W 9915   9.842  10.107   2.915
 5865W        W 9916   8.262   7.562  11.980
 5866W        W 9917   4.727   6.759   0.759
 5867W        W 9918   9.396   9.308   2.731
 5868W        W 9919  11.084   5.016  10.262
 5869W        W 9920   2.875   4.233   9.881
 5870W        W 9921   3.521   3.065  10.582
 5871W        W 9922  10.920   2.651  11.711
 5872W        W 9923   7.530   1.881   0.346
 5873W        W 9924   7.572   6.694  10.475
 5874W        W 9925   1.902   5.239  10.771
 5875W        W 9926   4.716   9.554  11.698
 5876W        W 9927   7.032   4.323   2.290
 5877W        W 9928   7.095   3.413  10.021
 5878W        W 9929   5.562   5.802   0.683
 5879W        W 9930   2.805   2.867   9.586
 5880W        W 9931  10.535   7.451   1.961
 5881W        W 9932  10.518   4.953   9.471
 5882W        W 9933   7.592  10.436  10.083
 5883W        W 9934   6.281   7.547  11.767
 5884W        W 9935   5.511   8.081  11.740
 5885W        W 9936   9.154   4.155   0.523
 5886W        W 9937  11.263   3.118   9.158
 5887W        W 9938   2.780   8.388  10.170
 5888W        W 9939   7.035   9.270   0.935
 5889W        W 9940   4.200   2.298   9.901
 5890W        W 9941   3.844   6.639   9.890
 5891W        W 9942  11.024   2.692   1.227
 5892W        W 9943   0.230   7.797   2.912
 5893W        W 9944   4.022   1.479  11.961
 5894W        W 9945   5.159   4.705  10.683
 5895W        W 9946   0.306  10.723   0.315
 5896W        W 9947   7.011   7.966  10.962
 5897W        W 9948   1.670   1.783   9.596
 5898W        W 9949  10.181   1.316   3.520
 5899W        W 9950  10.906   9.140   0.552
 5900W        W 9951   8.012   1.622   3.477
 5901W        W 9952   3.602   4.698   8.493
 5902W        W 9953   7.956  10.130  10.594
 5903W        W 9954   5.177   8.133   1.749
 5904W        W 9955   1.723  10.029   2.512
 5905W        W 9956   2.342   1.929   0.421
 5906W        W 9957   6.675   8.204   2.804
 5907W        W 9958   9.819   1.238   1.268
 5908W        W 9959   2.792   3.223   2.748
 5909W        W 9960   8.989   6.852  11.257
 5910W        W 9961   6.144   0.535  11.256
 5911W        W 9962   2.870  10.481   2.909
 5912W        W 9963   9.964  10.817   8.567
 5913W        W 9964   4.654   3.896   0.990
 5914W        W 9965   9.324   9.861   9.837
 5915W        W 9966   5.204   3.723   0.492
 5916W        W 9967   3.306   2.894   0.401
 5917W        W 9968   3.088   1.317   3.926
 5918W        W 9969   0.766  11.181   1.827
 5919W        W 9970   3.738   8.380   0.153
 5920W        W 9971   4.752   8.589  11.304
 5921W        W 9972   9.968  11.336  10.039
 5922W        W 9973   3.722   0.257   8.674
 5923W        W 9974   2.188   9.491   1.642
 5924W        W 9975   9.924   3.787   2.101
 5925W        W 9976  10.962   4.066   9.803
 5926W        W 9977   5.371   7.330   3.137
 5927W        W 9978   5.158   9.476   1.893
 5928W        W 9979   9.075   3.494   2.403
 5929W        W 9980   1.106  10.443   1.710
 5930W        W 9981   1.358   1.434   9.356
 5931W        W 9982   3.326   6.617   3.674
 5932W        W 9983  10.549   7.380   9.420
 5933W        W 9984   6.247   5.591  10.909
 5934W        W 9985  11.349   6.979  11.953
 5935W        W 9986   6.107   5.704   0.751
 5936W        W 9987   4.177   7.921  11.515
 5937W        W 9988   1.239  10.925  11.218
 5938W        W 9989   0.815   3.290  10.552
 5939W        W 9990   4.183   7.882   1.771
 5940W        W 9991   2.981   8.954  11.090
 5941W        W 9992  10.934   1.591   0.465
 5942W        W 9993   4.197   0.181  10.504
 5943W        W 9994   6.422   3.652   2.928
 5944W        W 9995   0.816   7.872   1.040
 5945W        W 9996   1.737   8.949  10.317
 5946W        W 9997   7.315   6.071  11.087
 5947W        W 9998   6.744   7.172   2.730
 5948W        W 9999   8.937   2.211   0.294
 5949W        W10000   2.502   7.802   0.752
 5950W        W10001   6.776   5.495  10.685
 5951W        W10002   9.020   8.096  10.993
 5952W        W10003   3.409   1.804  11.356
 5953W        W10004   8.142   5.341   9.932
 5954W        W10005   0.865  10.700  11.644
 5955W        W10006   2.555   7.576   2.297
 5956W        W10007   2.343   2.836   3.508
 5957W        W10008   1.328   1.217   2.301
 5958W        W10009   4.647   1.988   3.261
 5959W        W10010   6.012   4.705   1.231
 5960W        W10011   8.486  10.407  10.695
 5961W        W10012   2.728   7.439  11.789
 5962W        W10013   8.662   2.785   9.629
 5963W        W10014   7.576   9.926   9.806
 5964W        W10015   4.546   4.278   3.860
 5965W        W10016   4.741   8.833   9.939
 5966W        W10017  11.126   4.337   2.479
 5967W        W10018   8.022  10.537   9.800
 5968W        W10019   1.652   9.881   3.003
 5969W        W10020   1.290  11.345   9.460
 5970W        W10021   2.576   4.100   0.586
 5971W        W10022   9.954   2.095  11.011
 5972W        W10023   4.075  11.206   0.306
 5973W        W10024   8.500   7.607  11.471
 5974W        W10025   7.652   9.580   2.847
 5975W        W10026   3.714   2.540   3.298
 5976W        W10027   7.646   1.353  11.301
 5977W        W10028   7.646   3.118   1.962
 5978W        W10029   9.875   5.404  11.568
 5979W        W10030   2.797   4.994   4.148
 5980W        W10031   8.948   0.496  11.037
 5981W        W10032   4.720   9.975   8.718
 5982W        W10033   6.311   7.053  11.960
 5983W        W10034   9.607   3.399   0.882
 5984W        W10035   0.280   6.825   9.152
 5985W        W10036   9.295   0.192   1.881
 5986W        W10037   8.592   4.712   8.203
 5987W        W10038   9.561   8.630   9.408
 5988W        W10039   2.450   0.432   3.472
 5989W        W10040   2.318   1.377   1.924
 5990W        W10041   7.008   5.684   0.397
 5991W        W10042  10.848   1.663   1.958
 5992W        W10043   0.344   4.289   9.393
 5993W        W10044   4.979  11.368  11.953
 5994W        W10045   6.215   5.263  11.325
 5995W        W10046   5.069  10.434   0.797
 5996W        W10047   9.384   8.013  10.614
 5997W        W10048   0.769  11.077  11.323
 5998W        W10049   6.060   6.965  10.937
 5999W        W10050   8.883   1.794  10.762
 6000W        W10051   8.134   9.122   9.202
 6001W        W10052   7.256   2.214   1.692
 6002W        W10053   0.017   3.843   2.838
 6003W        W10054   8.925   2.114   2.581
 6004W        W10055   3.286   6.196   2.313
 6005W        W10056   7.998   1.913  10.583
 6006W        W10057   8.450   0.737   3.171
 6007W        W10058   5.519   8.052  11.235
 6008W        W10059   3.379   4.492  10.589
 6009W        W10060   4.926   0.146   1.861
 6010W        W10061   8.061   4.835   8.981
 6011W        W10062   6.710   1.293  10.550
 6012W        W10063   6.617   8.961   1.368
 6013W        W10064   0.465   6.449   8.825
 6014W        W10065   7.711   7.070   9.208
 6015W        W10066   8.885   8.434   9.783
 6016W        W10067  10.048  10.698   9.079
 6017W        W10068   6.081   4.189  11.901
 6018W        W10069   7.980   6.798   3.588
 6019W        W10070   9.264   4.851   3.158
 6020W        W10071   9.105   2.663   3.701
 6021W        W10072   5.091   9.919   0.860
 6022W        W10073   3.614   6.605   2.235
 6023W        W10074   3.298   7.035   3.352
 6024W        W10075  10.854  10.951  10.885
 6025W        W10076   1.704  10.443   9.513
 6026W        W10077  10.974   0.434   3.501
 6027W        W10078   6.512   7.429   0.436
 6028W        W10079   5.014  11.078   2.969
 6029W        W10080   5.117   2.346   2.354
 6030W        W10081  10.618   4.050   8.918
 6031W        W10082   2.267   2.821   2.034
 6032W        W10083   9.621   6.915  11.725
 6033W        W10084   3.554   6.881   9.004
 6034W        W10085  11.273  11.209   9.779
 6035W        W10086   3.792   8.898   0.953
 6036W        W10087   6.222   6.837   3.930
 6037W        W10088   6.023   3.458   0.694
 6038W        W10089   8.106   0.910   8.605
 6039W        W10090   3.494   6.559   3.182
 6040W        W10091   2.145   9.127  10.556
 6041W        W10092   5.020   2.390   0.772
 6042W        W10093   8.899   6.247   3.702
 6043W        W10094   2.304   9.314   3.681
 6044W        W10095   6.670  11.315   8.978
 6045W        W10096   1.207   7.906   8.514
 6046W        W10097   7.641   8.181   0.594
 6047W        W10098   4.846  10.751   9.182
 6048W        W10099  10.804   4.554   0.728
 6049W        W10100   6.355   8.972   9.611
 6050W        W10101   7.290   6.676   1.258
 6051W        W10102   2.096   8.238   8.586
 6052W        W10103   0.884   4.570   3.069
 6053W        W10104   4.236   9.084  10.669
 6054W        W10105   0.842   8.703   2.280
 6055W        W10106   1.883   4.664   9.057
 6056W        W10107   2.955   4.308   2.198
 6057W        W10108  11.215   8.914   2.423
 6058W        W10109   3.912   1.071   0.255
 6059W        W10110   2.301   2.814   1.037
 6060W        W10111   7.179  11.239  11.383
 6061W        W10112   9.104   4.813   8.288
 6062W        W10113   9.329   5.767   0.613
 6063W        W10114   9.357   6.189   2.921
 6064W        W10115   6.551  10.336   0.642
 6065W        W10116  10.611   4.392  10.938
 6066W        W10117   1.296  10.186   9.957
 6067W        W10118   5.730   0.821   0.582
 6068W        W10119   7.988  10.942   9.080
 6069W        W10120   7.965   9.536  11.340
 6070W        W10121   9.933   2.902   1.653
 6071W        W10122   0.294  10.957   3.109
 6072W        W10123   8.139   3.123   3.075
 6073W        W10124  10.288   7.436   8.984
 6074W        W10125   7.006   8.015   1.631
 6075W        W10126  11.450   8.343  11.679
 6076W        W10127   5.464   6.951   8.772
 6077W        W10128   7.033  10.330  11.767
 6078W        W10129   4.252   7.984   9.841
 6079W        W10130   8.409   6.110   2.922
 6080W        W10131   4.233   8.989   2.629
 6081W        W10132  11.405   4.336   9.801
 6082W        W10133   0.772   1.736   9.993
 6083W        W10134   7.072   8.452   9.914
 6084W        W10135   6.183   7.631   9.261
 6085W        W10136   1.389   0.287  10.002
 6086W        W10137   4.973  11.207   9.351
 6087W        W10138   7.460   5.717  10.249
 6088W        W10139   6.295   1.926   2.727
 6089W        W10140   2.625   2.238   3.374
 6090W        W10141   7.129   8.160   8.469
 6091W        W10142   4.142   1.651   1.710
 6092W        W10143   1.554   9.262   1.139
 6093W        W10144   8.472   5.429   2.202
 6094W        W10145   0.294   8.352   9.096
 6095W        W10146   8.733   0.520  11.864
 6096W        W10147  10.392   3.503   9.113
 6097W        W10148   6.507   0.026   3.440
 6098W        W10149   1.240   3.766   9.374
 6099W        W10150   5.936   3.474   2.451
 6100W        W10151   9.788   9.463   3.605
 6101W        W10152   4.642   5.732   0.025
 6102W        W10153   9.012   3.756  11.693
 6103W        W10154   8.987   7.095   9.989
 6104W        W10155   9.139  10.025   2.416
 6105W        W10156   6.127   2.399  10.431
 6106W        W10157   2.863   8.438   8.660
 6107W        W10158   8.970   9.789   9.109
 6108W        W10159   8.092   5.998   1.032
 6109W        W10160   5.474   2.641   0.035
 6110W        W10161   0.406   2.153   3.081
 6111W        W10162   6.463   9.494   2.782
 6112W        W10163   5.626   3.324  11.819
 6113W        W10164   3.533   1.435   0.189
 6114W        W10165   8.851   6.257   2.187
 6115W        W10166   4.553   8.575   2.452
 6116W        W10167   0.798   9.834   3.056
 6117W        W10168   5.648   9.268   0.989
 6118W        W10169   3.708   6.220   4.054
 6119W        W10170  10.073  10.788   2.466
 6120W        W10171   0.250  11.369   9.810
 6121W        W10172   6.109   7.570   9.766
 6122W        W10173   2.731   5.178   8.597
 6123W        W10174   2.418   5.755   0.717
 6124W        W10175   5.660   1.809  10.008
 6125W        W10176   6.557   0.759   2.261
 6126W        W10177   1.285   9.054   8.449
 6127W        W10178   8.189   8.709  10.990
 6128W        W10179   3.660   4.840  10.359
 6129W        W10180  11.068   6.996   0.406
 6130W        W10181   2.519   5.238   1.506
 6131W        W10182   4.738   2.300   3.684
 6132W        W10183   9.514   3.159   0.431
 6133W        W10184   7.486   9.472   1.480
 6134W        W10185  10.412   4.041   9.414
 6135W        W10186   8.514   5.727   1.226
 6136W        W10187   4.752   9.539   2.218
 6137W        W10188   9.035  11.230  11.388
 6138W        W10189   6.624  10.008  11.863
 6139W        W10190   2.441   5.264   2.001
 6140W        W10191   7.369   1.633  10.114
 6141W        W10192   9.609   5.203   1.920
 6142W        W10193   7.109  11.331  11.904
 6143W        W10194   7.862   2.322   0.384
 6144W        W10195   0.394   2.608  11.577
 6145W        W10196   8.556   6.570   0.305
 6146W        W10197   0.765   1.777   2.665
 6147W        W10198   0.842   8.121  10.371
 6148W        W10199   1.828   0.988  11.783
 6149W        W10200   4.034   9.408   9.481
 6150W        W10201   4.305   9.921   1.378
 6151W        W10202   6.164  11.477   2.242
 6152W        W10203   1.693  10.676  11.160
 6153W        W10204  10.544   9.909   0.306
 6154W        W10205   4.012   6.549   3.329
 6155W        W10206  11.185   3.031   0.449
 6156W        W10207   1.697   6.201  10.712
 6157W        W10208  10.953   8.589   9.832
 6158W        W10209  10.616  10.551   3.149
 6159W        W10210   5.312   2.184   1.167
 6160W        W10211   4.373   4.411   0.716
 6161W        W10212   6.952   2.969  10.728
 6162W        W10213   9.572  11.053   2.667
 6163W        W10214   6.856   3.849   9.881
 6164W        W10215   9.891   3.904   3.095
 6165W        W10216   6.017   2.813   2.438
 6166W        W10217   4.802   0.478   0.399
 6167W        W10218   1.807   1.183   0.273
 6168W        W10219   9.142   4.794   1.803
 6169W        W10220  10.337   0.324   1.919
 6170W        W10221   7.956   7.188   0.871
 6171W        W10222   6.944  10.882   3.137
 6172W        W10223   6.179   7.934  10.579
 6173W        W10224   9.446   9.484  10.420
 6174W        W10225   3.884   9.856   9.288
 6175W        W10226   8.586   8.053   9.980
 6176W        W10227   3.405   0.915  11.391
 6177W        W10228   3.899   5.874   8.738
 6178W        W10229   8.497   8.965   8.844
 6179W        W10230   7.106   4.172   1.367
 6180W        W10231  11.428  11.042   1.863
 6181W        W10232   3.809   8.754   2.831
 6182W        W10233   0.855   0.550   9.386
 6183W        W10234   8.848   0.809   1.452
 6184W        W10235   4.208   1.848  10.690
 6185W        W10236   6.500  10.360   1.144
 6186W        W10237   0.988  10.200   2.154
 6187W        W10238   6.934  10.482  10.346
 6188W        W10239   7.796   2.297   1.788
 6189W        W10240   4.700   1.616   1.723
 6190W        W10241   0.902   8.925   1.831
 6191W        W10242   5.063   3.752   2.283
 6192W        W10243   4.679   0.119   9.130
 6193W        W10244   8.150   3.704  10.568
 6194W        W10245  10.786   6.410  11.567
 6195W        W10246  10.812   5.970   8.567
 6196W        W10247   1.899   9.349   0.314
 6197W        W10248   7.250  10.561   0.732
 6198W        W10249   7.414   6.519   1.997
 6199W        W10250  11.385   3.449   0.207
 6200W        W10251   9.166  10.729   2.608
 6201W        W10252   7.404   9.619  11.372
 6202W        W10253   2.322   8.085  10.207
 6203W        W10254  11.478   4.282  11.203
 6204W        W10255   4.514   3.644   3.236
 6205W        W10256   8.856   4.214   0.947
 6206W        W10257   9.068   1.763   9.235
 6207W        W10258   1.387   2.310  10.674
 6208W        W10259   3.035   0.785   4.056
 6209W        W10260  11.066   5.965   1.941
 6210W        W10261   8.077   4.539   1.680
 6211W        W10262   6.761   9.985   9.178
 6212W        W10263   2.174   0.452  10.435
 6213W        W10264   2.354   2.826   1.538
 6214W        W10265   3.358   9.856  11.021
 6215W        W10266   5.010  10.395   8.812
 6216W        W10267   5.750   7.500   2.799
 6217W        W10268  11.188   4.022   8.849
 6218W        W10269   8.985   7.086   9.078
 6219W        W10270   1.511   7.309   1.453
 6220W        W10271   9.485   0.530   2.246
 6221W        W10272  10.989   5.277   0.954
 6222W        W10273   7.482   4.077   3.735
 6223W        W10274   5.097   9.558  10.538
 6224W        W10275   9.536   7.139   8.836
 6225W        W10276   9.400   8.885   2.445
 6226W        W10277  10.122   7.666   9.473
 6227W        W10278   4.625  10.706   0.814
 6228W        W10279  11.286   1.843   2.180
 6229W        W10280   7.309   6.749  10.025
 6230W        W10281   5.485   1.960  10.976
 6231W        W10282   6.586   9.511   0.059
 6232W        W10283   8.140   8.781   2.471
 6233W        W10284   7.132   7.520   1.648
 6234W        W10285   4.173   6.123   0.635
 6235W        W10286  10.736   3.985   2.401
 6236W        W10287   4.764   3.466  11.292
 6237W        W10288   9.352   5.044   9.446
 6238W        W10289  11.063   8.406   1.701
 6239W        W10290   7.878   8.222   1.861
 6240W        W10291   2.984   6.647   3.263
 6241W        W10292   0.900   9.567   3.522
 6242W        W10293  10.726   9.794   2.729
 6243W        W10294   2.250   5.730   2.750
 6244W        W10295   1.245   3.307   0.571
 6245W        W10296   3.444   2.856   1.264
 6246W        W10297   9.636   6.633   8.729
 6247W        W10298   7.411   6.178   1.637
 6248W        W10299  10.231   9.981  11.383
 6249W        W10300   2.614  10.388   9.225
 6250W        W10301   0.653   7.898  11.363
 6251W        W10302  11.435  10.270  10.653
 6252W        W10303   8.906  11.024  11.976
 6253W        W10304   4.804   6.864   1.939
 6254W        W10305   3.570   0.110   1.784
 6255W        W10306   9.024   3.500   3.433
 6256W        W10307   7.018   1.191   0.282
 6257W        W10308   4.597   9.340   3.075
 6258W        W10309   3.212  10.840   9.856
 6259W        W10310   4.002   5.815   9.957
 6260W        W10311   5.885   4.124   1.903
 6261W        W10312   5.534   9.833  10.449
 6262W        W10313   3.586   8.894   1.463
 6263W        W10314  11.403   0.246   9.046
 6264W        W10315   2.822   7.938  10.429
 6265W        W10316  10.998   1.635   8.785
 6266W        W10317   2.171   4.437   1.963
 6267W        W10318   9.408   7.240   8.344
 6268W        W10319   4.204   4.159   9.909
 6269W        W10320   1.410   9.981  10.738
 6270W        W10321   7.692   3.771   0.333
 6271W        W10322   9.310   6.149   9.983
 6272W        W10323  11.064   8.894   1.892
 6273W        W10324   8.671  10.883  11.416
 6274W        W10325   4.817   1.306   9.718
 6275W        W10326   7.582   4.508   2.367
 6276W        W10327   4.958   4.537   0.246
 6277W        W10328   9.120   1.318   9.494
 6278W        W10329  10.772   9.113  10.421
 6279W        W10330   0.631   7.859   3.609
 6280W        W10331   0.615   3.094   8.714
 6281W        W10332   2.148   8.416  11.303
 6282W        W10333  11.359  10.797  10.620
 6283W        W10334   5.026   3.484  10.065
 6284W        W10335   7.664   5.995  11.962
 6285W        W10336   4.327  11.424   1.224
 6286W        W10337   0.405   7.645  10.978
 6287W        W10338   1.655   7.436  10.496
 6288W        W10339   6.303   7.661   8.764
 6289W        W10340   7.099   8.711  10.350
 6290W        W10341   5.609  11.418   9.880
 6291W        W10342   8.505   1.881  10.429
 6292W        W10343   3.066  11.394  11.647
 6293W        W10344  11.006   2.154  10.159
 6294W        W10345   1.734   6.890   1.718
 6295W        W10346   3.378   0.217   9.887
 6296W        W10347  10.866   3.099   8.813
 6297W        W10348   8.398   1.804  11.944
 6298W        W10349   1.803   8.536   8.907
 6299W        W10350   4.187   7.439   2.273
 6300W        W10351   7.198   1.212   9.840
 6301W        W10352   4.210  11.019   9.827
 6302W        W10353   5.749   6.709  11.544
 6303W        W10354   5.132   5.539   0.760
 6304W        W10355   6.705   3.447   0.994
 6305W        W10356   0.439   5.148   2.506
 6306W        W10357  10.858  11.367   9.527
 6307W        W10358   7.512   9.589  11.907
 6308W        W10359   8.859   6.957   3.329
 6309W        W10360   9.454   0.861   2.874
 6310W        W10361   2.200   7.104   1.863
 6311W        W10362  10.971   5.082   1.930
 6312W        W10363   4.563   0.778   2.657
 6313W        W10364   0.312  10.543   9.347
 6314W        W10365   2.975   6.729  10.327
 6315W        W10366   1.965   4.800   8.538
 6316W        W10367   0.970  10.363   3.127
 6317W        W10368   9.822  11.010   9.414
 6318W        W10369   1.863   9.633  10.055
 6319W        W10370  11.340   2.711   0.045
 6320W        W10371   8.420   6.386   9.613
 6321W        W10372   8.123  10.848   8.596
 6322W        W10373   8.357   8.037   1.775
 6323W        W10374   2.157   6.742   3.125
 6324W        W10375   1.144   5.823   9.172
 6325W        W10376   2.723   5.076   9.534
 6326W        W10377   3.122   0.369  11.445
 6327W        W10378   1.794   5.967   0.173
 6328W        W10379   6.230  11.198   0.178
 6329W        W10380   0.472   9.930   1.322
 6330W        W10381   1.239  10.422  11.379
 6331W        W10382   0.423   5.255   3.439
 6332W        W10383   6.151   1.105   0.478
 6333W        W10384   0.061   1.260   2.878
 6334W        W10385   3.272  10.973   8.792
 6335W        W10386   5.552   0.013  10.830
 6336W        W10387   3.710  10.732   0.857
 6337W        W10388   5.096   5.024   0.075
 6338W        W10389   0.911   6.290   9.038
 6339W        W10390   0.789  10.086   3.533
 6340W        W10391   9.165   2.102  10.059
 6341W        W10392   0.237   5.638  11.210
 6342W        W10393   9.882   2.888   0.666
 6343W        W10394   8.573   8.508   3.022
 6344W        W10395  10.456   1.447   0.543
 6345W        W10396   6.234   6.967   0.469
 6346W        W10397   4.713  10.632   2.300
 6347W        W10398   1.803   7.241   9.787
 6348W        W10399  10.294   9.126   3.149
 6349W        W10400   9.952   1.801   9.297
 6350W        W10401   4.604  11.272  10.083
 6351W        W10402   7.022   1.057   8.880
 6352W        W10403   8.812   5.304   2.828
 6353W        W10404   2.570   1.777   3.123
 6354W        W10405   3.092   3.284   8.859
 6355W        W10406   0.829   4.839   9.994
 6356W        W10407   9.850   5.653  11.119
 6357W        W10408   2.658   9.537   8.974
 6358W        W10409   2.782   7.506   8.290
 6359W        W10410   3.153   6.275   0.811
 6360W        W10411   4.034   5.087   2.533
 6361W        W10412  10.326   8.170   1.794
 6362W        W10413   8.988   4.705   0.762
 6363W        W10414   7.126  10.331   1.941
 6364W        W10415   5.234   1.655   0.277
 6365W        W10416   7.049   2.470   0.798
 6366W        W10417   4.386   9.634   9.798
 6367W        W10418   5.514   3.590   1.179
 6368W        W10419   3.228   2.118   0.870
 6369W        W10420   2.324   8.896   0.975
 6370W        W10421  10.892   1.771  11.851
 6371W        W10422   7.891   8.905   8.800
 6372W        W10423   4.096   6.157  11.584
 6373W        W10424   2.057   9.369  10.992
 6374W        W10425   0.716   8.844   0.013
 6375W        W10426   7.374   5.556   0.016
 6376W        W10427   3.319   5.784   0.853
 6377W        W10428   0.496   6.180   2.190
 6378W        W10429   0.488   6.087  11.271
 6379W        W10430   1.789   6.045   1.167
 6380W        W10431   8.620   3.744   9.552
 6381W        W10432   9.571   5.247   9.878
 6382W        W10433   0.343   7.460   3.403
 6383W        W10434  10.445   0.377  11.200
 6384W        W10435  11.086   6.927   1.278
 6385W        W10436   3.427  10.005   0.432
 6386W        W10437   0.464   2.156   0.753
 6387W        W10438   3.431   5.254  10.242
 6388W        W10439   1.900   1.804   2.198
 6389W        W10440  10.751   7.107   3.581
 6390W        W10441   6.400   3.769  10.087
 6391W        W10442   0.799  10.578   8.434
 6392W        W10443   7.118   8.496   1.454
 6393W        W10444   3.337   4.423   0.549
 6394W        W10445   4.539   6.735  10.437
 6395W        W10446   6.503   4.711  10.983
 6396W        W10447   9.311  11.321   8.975
 6397W        W10448   8.309   7.445   3.253
 6398W        W10449  10.798   0.793   2.949
 6399W        W10450   9.476   9.188  11.422
 6400W        W10451   9.864   5.852   1.477
 6401W        W10452  10.734   7.643   1.061
 6402W        W10453   8.784  10.366  11.345
 6403W        W10454   5.238   1.662  10.287
 6404W        W10455   6.848   3.192   3.409
 6405W        W10456   0.221   5.522   8.959
 6406W        W10457   1.697   5.811  11.702
 6407W        W10458   8.950   0.248   2.309
 6408W        W10459   2.149   5.697   1.186
 6409W        W10460   1.456   2.383   0.594
 6410W        W10461  10.300   8.158   9.497
 6411W        W10462   0.442   0.764  10.991
 6412W        W10463  11.086  11.097   0.770
 6413W        W10464   1.940   2.717   0.699
 6414W        W10465   7.135  11.292  10.879
 6415W        W10466  10.269   9.622   0.967
 6416W        W10467   7.823   2.779  10.843
 6417W        W10468   5.495   6.265   0.500
 6418W        W10469   9.453   3.108   1.810
 6419W        W10470   6.148   8.456   8.917
 6420W        W10471   0.006   6.125  11.415
 6421W        W10472  10.916   0.449  11.508
 6422W        W10473   9.285   9.295   0.765
 6423W        W10474   5.068   9.495   0.529
 6424W        W10475   6.105   8.633   3.168
 6425W        W10476   5.563   4.522  10.970
 6426W        W10477   5.595   0.833   1.564
 6427W        W10478   9.239   2.326   2.912
 6428W        W10479   1.253   8.395   2.332
 6429W        W10480   4.243   3.102  11.962
 6430W        W10481   0.983   2.199   9.888
 6431W        W10482   1.785   7.786   0.415
 6432W        W10483   4.088   2.214   0.355
 6433W        W10484   2.797   8.506   9.154
 6434W        W10485   8.546  10.733   1.400
 6435W        W10486   7.952   8.901  10.578
 6436W        W10487   8.629   8.053   0.709
 6437W        W10488   6.941   7.910   2.152
 6438W        W10489   7.174   1.911   2.167
 6439W        W10490  11.242   3.159   2.221
 6440W        W10491   8.461   2.845   2.302
 6441W        W10492   4.154   9.602   3.189
 6442W        W10493   3.046   4.224   9.376
 6443W        W10494  10.420   1.633   9.481
 6444W        W10495   9.884   2.574  10.804
 6445W        W10496   2.839   9.661  10.406
 6446W        W10497   0.610   8.165   8.707
 6447W        W10498   3.979   8.774   8.365
 6448W        W10499   2.309   5.946  11.418
 6449W        W10500  11.419   7.875  10.234
 6450W        W10501  10.564   2.656  11.319
 6451W        W10502   3.923   9.523   9.959
 6452W        W10503   2.294   4.285   2.737
 6453W        W10504  11.291   6.520  11.727
 6454W        W10505  10.757  10.303   2.731
 6455W        W10506   9.322   5.293   2.895
 6456W        W10507   0.286   6.948   3.414
 6457W        W10508   5.532   0.289   9.154
 6458W        W10509   3.205   7.651   9.471
 6459W        W10510  11.467  10.791  11.555
 6460W        W10511   8.036  10.013   8.290
 6461W        W10512   1.082   1.904   1.904
 6462W        W10513   5.186   4.127  11.607
 6463W        W10514   5.691   5.264   2.266
 6464W        W10515   1.320   2.599   2.432
 6465W        W10516   9.962   1.253  10.539
 6466W        W10517   9.835   0.731  10.014
 6467W        W10518   4.020   8.495   2.441
 6468W        W10519   8.864   0.501   0.345
 6469W        W10520   8.971   4.598  10.464
 6470W        W10521   4.890   2.230   2.839
 6471W        W10522   8.302  10.010  11.381
 6472W        W10523  10.719   9.445   0.179
 6473W        W10524   1.530   0.696  10.874
 6474W        W10525   7.408   6.602  10.947
 6475W        W10526   8.492   6.599   3.580
 6476W        W10527   3.909   3.034   3.176
 6477W        W10528   9.398   0.132  11.864
 6478W        W10529   8.435   8.665  11.455
 6479W        W10530   4.742   5.698   1.056
 6480W        W10531   0.683  10.670   2.849
 6481W        W10532  10.513   6.493   8.818
 6482W        W10533   0.434   3.644   0.736
 6483W        W10534   0.678   2.157   9.436
 6484W        W10535   1.269   0.720   2.346
 6485W        W10536  10.585   9.229  11.689
 6486W        W10537   4.754   8.428   3.389
 6487W        W10538   7.530   7.541   9.933
 6488W        W10539   1.708   1.955  10.903
 6489W        W10540   4.659   7.617   0.133
 6490W        W10541   0.817  10.190  11.639
 6491W        W10542   2.119   3.314   0.727
 6492W        W10543   0.505   0.008   1.434
 6493W        W10544   1.850   5.529  11.292
 6494W        W10545   4.947   4.074   1.903
 6495W        W10546   3.662   7.126   0.980
 6496W        W10547  10.696   5.853   2.871
 6497W        W10548   8.190   4.364   0.301
 6498W        W10549   0.810   8.863   9.749
 6499W        W10550   7.414  11.301   3.140
 6500W        W10551   9.091   1.781   0.628
 6501W        W10552   9.442  11.242   3.311
 6502W        W10553   2.725   7.623   1.178
 6503W        W10554   7.027   5.072   1.694
 6504W        W10555  11.415   3.409   0.717
 6505W        W10556   2.470   7.091   1.073
 6506W        W10557   0.292   0.670   0.603
 6507W        W10558   5.315   9.903   9.543
 6508W        W10559   3.614   3.046   1.888
 6509W        W10560   5.724   5.337   0.792
 6510W        W10561   7.373   9.397   2.425
 6511W        W10562   1.478   2.307  10.170
 6512W        W10563   3.623   6.577   8.577
 6513W        W10564   2.034   7.415   2.379
 6514W        W10565  11.265  10.060   2.706
 6515W        W10566   4.647   1.339   2.400
 6516W        W10567   6.984   4.194  11.918
 6517W        W10568   0.720   5.364   9.985
 6518W        W10569   6.698   1.751  11.214
 6519W        W10570   8.432  11.291   3.122
 6520W        W10571   7.143   1.977   0.689
 6521W        W10572   1.458   0.729   0.023
 6522W        W10573   7.789   9.985  11.236
 6523W        W10574   4.108   0.466   0.001
 6524W        W10575   8.079   8.202   9.978
 6525W        W10576   0.330   6.512   3.741
 6526W        W10577   4.553   5.745  11.502
 6527W        W10578   4.002  10.552   9.764
 6528W        W10579   5.661   2.362  10.733
 6529W        W10580   8.940   9.270   9.331
 6530W        W10581   1.881   6.920   2.231
 6531W        W10582   0.408  10.809  11.823
 6532W        W10583   3.076  10.868  11.295
 6533W        W10584   0.795   9.981  10.556
 6534W        W10585   2.553   5.369   8.146
 6535W        W10586   6.612   6.709  11.277
 6536W        W10587   3.180   3.301  10.930
 6537W        W10588  10.883  10.326  11.784
 6538W        W10589   1.290  11.207   2.793
 6539W        W10590   3.754  10.948  10.558
 6540W        W10591   7.579   1.951  11.377
 6541W        W10592   3.964  11.473  11.816
 6542W        W10593   0.852   0.840   1.295
 6543W        W10594   1.829   8.613   9.449
 6544W        W10595   3.634   6.170   0.991
 6545W        W10596   9.774   1.674  10.761
 6546W        W10597   3.288   5.604  11.969
 6547W        W10598   0.602   7.263   2.127
 6548W        W10599   5.896   7.017   2.637
 6549W        W10600   9.746  11.417  11.548
 6550W        W10601   5.273   6.603   1.338
 6551W        W10602   6.226   4.140   4.087
 6552W        W10603   1.569   5.975  11.222
 6553W        W10604   6.661   6.894   1.215
 6554W        W10605   7.208   7.684  10.357
 6555W        W10606   6.514   7.755  10.980
 6556W        W10607   4.228  10.985   3.000
 6557W        W10608   7.077   0.864  10.763
 6558W        W10609   5.938  11.465   9.465
 6559W        W10610   5.904   9.580  10.090
 6560W        W10611   3.764   8.955   2.357
 6561W        W10612   4.166   6.276   3.740
 6562W        W10613   1.292   2.803   0.359
 6563W        W10614  10.552   2.390  10.025
 6564W        W10615   0.405  11.466   2.780
 6565W        W10616   0.357   7.228   1.672
 6566W        W10617   3.176   2.097  11.975
 6567W        W10618   2.889   2.782  11.422
 6568W        W10619   5.584   9.294   3.175
 6569W        W10620  10.013   8.294   2.183
 6570W        W10621  10.904  11.067   1.637
 6571W        W10622   1.809   9.238   3.270
 6572W        W10623   2.328  11.078  10.445
 6573W        W10624   7.490   0.991   0.547
 6574W        W10625   1.643   1.322  11.426
 6575W        W10626   6.745   3.295   2.318
 6576W        W10627   2.134   6.568   8.674
 6577W        W10628   2.874   6.229  10.600
 6578W        W10629   4.192   3.554  10.737
 6579W        W10630   6.618   2.941   8.512
 6580W        W10631   2.292   2.462  10.584
 6581W        W10632   1.599   6.999   9.412
 6582W        W10633  11.258   7.691   2.661
 6583W        W10634   9.242   0.774   0.555
 6584W        W10635   1.727   8.658   2.265
 6585W        W10636   5.104  11.280   9.857
 6586W        W10637   2.197   9.397   9.187
 6587W        W10638   9.949   3.324   1.912
 6588W        W10639   8.791   3.363  11.956
 6589W        W10640   4.242   0.092   9.937
 6590W        W10641   9.872   2.463   1.896
 6591W        W10642  10.936   8.166   0.861
 6592W        W10643   9.665   0.662   0.292
 6593W        W10644   5.149   5.985   0.959
 6594W        W10645   7.703   4.465   9.051
 6595W        W10646   3.241   2.624   0.845
 6596W        W10647   5.213   6.055  10.318
 6597W        W10648  10.089   8.232  11.838
 6598W        W10649   6.039   1.018   0.972
 6599W        W10650   2.000   3.423  10.954
 6600W        W10651  10.189   6.116   0.712
 6601W        W10652   8.932   7.914  11.461
 6602W        W10653   1.360   1.941   3.278
 6603W        W10654   6.563   8.661   1.816
 6604W        W10655   6.290   7.199   8.968
 6605W        W10656  10.703   0.801   9.029
 6606W        W10657   2.760   8.852   9.519
 6607W        W10658  11.273   8.544   0.713
 6608W        W10659   3.534   4.111   0.954
 6609W        W10660   4.042   6.200   0.121
 6610W        W10661   4.436   1.795   0.680
 6611W        W10662   6.223   0.268  10.797
 6612W        W10663   4.117  11.477   0.764
 6613W        W10664   7.609   8.835   0.616
 6614W        W10665   2.014   3.030  11.721
 6615W        W10666   8.141   2.829  10.391
 6616W        W10667   1.299   3.625  11.722
 6617W        W10668   4.559   3.427  10.401
 6618W        W10669   4.873   7.177  11.413
 6619W        W10670   5.649   6.309  10.174
 6620W        W10671   7.450   3.866   1.603
 6621W        W10672   0.155   5.659   0.599
 6622W        W10673  10.268   8.670  10.232
 6623W        W10674   7.135   3.126   1.984
 6624W        W10675   6.004   2.329   9.541
 6625W        W10676   4.533   1.341   9.299
 6626W        W10677   4.528   4.656   3.267
 6627W        W10678  10.114   7.468  10.327
 6628W        W10679  10.172  10.986   0.726
 6629W        W10680  11.388   5.245  11.109
 6630W        W10681   4.774   1.335  10.280
 6631W        W10682   0.810   3.511   9.569
 6632W        W10683   5.756   4.370   0.714
 6633W        W10684  10.143   7.619   1.673
 6634W        W10685   8.681   1.297   9.749
 6635W        W10686   3.291   8.593   0.209
 6636W        W10687   5.922   1.649  11.030
 6637W        W10688   4.898   1.672   4.104
 6638W        W10689   6.945   1.222   1.155
 6639W        W10690   7.882   5.095   9.394
 6640W        W10691   0.529   3.712   2.854
 6641W        W10692   8.109  11.295  10.912
 6642W        W10693   1.899   5.243   8.949
 6643W        W10694   1.358   2.854  10.402
 6644W        W10695   8.160  11.319   9.970
 6645W        W10696   9.123   0.350   3.174
 6646W        W10697   0.430  11.233   0.177
 6647W        W10698   8.634  11.270  10.184
 6648W        W10699   2.713   6.544   8.731
 6649W        W10700  10.505   0.660  10.667
 6650W        W10701   5.729   7.721   4.054
 6651W        W10702   3.316   3.317  11.421
 6652W        W10703   4.057  10.351  10.794
 6653W        W10704   9.008   3.345   9.066
 6654W        W10705   6.156   5.692   2.840
 6655W        W10706   4.968   8.133   9.244
 6656W        W10707   9.258   5.932  10.440
 6657W        W10708  10.403   4.102   3.164
 6658W        W10709   3.432   7.371   2.988
 6659W        W10710   7.629   2.121  11.891
 6660W        W10711   3.137   1.369  11.351
 6661W        W10712  10.729  11.326   9.037
 6662W        W10713  10.406   0.914   3.269
 6663W        W10714   4.196   1.257  10.424
 6664W        W10715   5.875  10.810   2.527
 6665W        W10716   2.086  10.353   9.181
 6666W        W10717   1.392   3.683  10.712
 6667W        W10718   1.760   4.629   0.419
 6668W        W10719   4.384   1.248   1.921
 6669W        W10720   9.087   8.915   9.864
 6670W        W10721   1.273   4.558  10.802
 6671W        W10722   4.278   2.764   1.546
 6672W        W10723   0.743   4.128   1.229
 6673W        W10724   9.288  10.378   3.784
 6674W        W10725  10.724   6.051   1.558
 6675W        W10726   2.124  10.540   1.706
 6676W        W10727  11.248   0.704   3.141
 6677W        W10728   0.582   1.903  11.159
 6678W        W10729   1.869  10.082   1.478
 6679W        W10730   7.600   6.244  10.201
 6680W        W10731   4.403   6.677  11.767
 6681W        W10732   0.095   1.689  11.267
 6682W        W10733   7.618  10.377  10.964
 6683W        W10734   7.622   8.042  10.660
 6684W        W10735   3.762   5.074   9.340
 6685W        W10736   5.126   0.291   1.344
 6686W        W10737   1.226   5.938  10.832
 6687W        W10738   9.817   9.010   3.312
 6688W        W10739   7.628   5.447   0.956
 6689W        W10740   2.199   8.784   2.461
 6690W        W10741   7.639   1.893   9.206
 6691W        W10742   9.307   4.805  10.060
 6692W        W10743   7.178   7.472   9.074
 6693W        W10744  10.898  10.984   3.086
 6694W        W10745   7.941   2.360   9.700
 6695W        W10746   3.710   6.637  10.800
 6696W        W10747   7.857  11.009   3.351
 6697W        W10748   3.930  10.280  11.342
 6698W        W10749   5.423   8.526  10.973
 6699W        W10750   0.601   9.101  10.187
 6700W        W10751   0.200   3.209   2.432
 6701W        W10752   6.080   2.582  10.924
 6702W        W10753  10.662   8.376   1.347
 6703W        W10754   3.161  11.498   9.219
 6704W        W10755  10.119   4.226   9.048
 6705W        W10756   6.742   1.771   2.436
 6706W        W10757   0.844   4.615  10.474
 6707W        W10758   5.742   2.815   2.870
 6708W        W10759   9.994   2.709   0.211
 6709W        W10760   3.913   7.271   2.821
 6710W        W10761  10.001   0.425   3.398
 6711W        W10762   7.381   1.046   2.404
 6712W        W10763   7.941   3.291  11.138
 6713W        W10764   0.775   7.403   0.817
 6714W        W10765   1.860   3.126  10.166
 6715W        W10766   1.788   6.424   0.391
 6716W        W10767   5.598   1.868   0.011
 6717W        W10768   2.375   9.591  10.662
 6718W        W10769   6.139   2.489  11.522
 6719W        W10770   4.552   6.094   1.332
 6720W        W10771   4.702  11.464   0.378
 6721W        W10772   9.124   7.350  10.412
 6722W        W10773   1.629  11.001  11.540
 6723W        W10774   4.209   9.495  11.474
 6724W        W10775   6.287   8.696   2.233
 6725W        W10776   3.651   0.890  10.380
 6726W        W10777   0.957   6.249  11.805
 6727W        W10778   8.832   7.596   8.880
 6728W        W10779   5.331   4.464   0.980
 6729W        W10780  10.002   3.257   8.774
 6730W        W10781   8.036   1.921  11.605
 6731W        W10782   9.666   9.481   3.120
 6732W        W10783   5.625   4.580   1.904
 6733W        W10784   5.831   7.061   9.156
 6734W        W10785   3.412   1.938   2.145
 6735W        W10786   8.408   5.946   9.915
 6736W        W10787   8.409   8.404   9.580
 6737W        W10788   0.235   4.041   1.357
 6738W        W10789   6.165   1.614   9.042
 6739W        W10790   4.820   7.956   1.233
 6740W        W10791   8.993   9.194   3.564
 6741W        W10792   9.985   7.942   1.201
 6742W        W10793   6.834  10.945   2.203
 6743W        W10794   9.438   3.350   8.739
 6744W        W10795   8.484   0.089   3.778
 6745W        W10796   2.959   0.712   0.290
 6746W        W10797   6.064   2.124   9.989
 6747W        W10798   4.939   2.660   1.806
 6748W        W10799   7.048   8.686   9.477
 6749W        W10800   7.813  10.441  11.439
 6750W        W10801   5.689   0.782   2.696
 6751W        W10802  11.386   5.217   9.889
 6752W        W10803   7.446  10.057  11.609
 6753W        W10804   7.128  11.182   1.334
 6754W        W10805  11.442   3.809  11.388
 6755W        W10806   9.908   9.999  11.929
 6756W        W10807   7.107   8.935   0.531
 6757W        W10808   2.161   4.978  11.730
 6758W        W10809   4.720   8.889   2.866
 6759W        W10810   2.704   9.484   1.686
 6760W        W10811  10.756   7.736   2.343
 6761W        W10812   1.777   2.670   9.907
 6762W        W10813   5.317   9.383   9.823
 6763W        W10814   2.286  10.000  11.404
 6764W        W10815  11.446   8.100   0.980
 6765W        W10816   8.235   1.227   0.637
 6766W        W10817   9.939   7.576   0.343
 6767W        W10818   5.113   7.248  10.947
 6768W        W10819   3.564   6.896   2.800
 6769W        W10820   8.657   3.060   1.221
 6770W        W10821   7.800   3.623   1.301
 6771W        W10822   1.370   7.177  11.564
 6772W        W10823   0.892   3.771   0.441
 6773W        W10824   2.796   2.852   0.950
 6774W        W10825  10.313  10.957  11.757
 6775W        W10826   6.516   2.340  10.769
 6776W        W10827   9.478   6.943   9.711
 6777W        W10828   4.765   9.944  10.933
 6778W        W10829   6.708   0.893   3.907
 6779W        W10830  10.602   7.184   1.354
 6780W        W10831  11.357   0.166   9.569
 6781W        W10832   5.272   9.016  10.688
 6782W        W10833   2.319   1.942  10.575
 6783W        W10834   5.122   9.297   2.478
 6784W        W10835   3.187   5.013   3.774
 6785W        W10836  11.305   5.289   0.521
 6786W        W10837   8.237   5.890   8.553
 6787W        W10838   9.748   0.473   1.818
 6788W        W10839  10.498   3.849  10.861
 6789W        W10840   1.172   6.737   8.702
 6790W        W10841   2.121   7.592   3.665
 6791W        W10842   4.563   1.455  10.721
 6792W        W10843   6.013   7.533  10.249
 6793W        W10844   2.698   7.548   9.320
 6794W        W10845   4.384  10.678   9.425
 6795W        W10846   4.787   7.178  10.350
 6796W        W10847   8.006  10.328   1.535
 6797W        W10848   7.951   1.259   1.414
 6798W        W10849   7.123   6.809   2.681
 6799W        W10850   9.124   8.429   1.288
 6800W        W10851   5.749   2.630   0.474
 6801W        W10852   1.891   2.156  10.432
 6802W        W10853   3.034   2.472  11.045
 6803W        W10854  10.393   7.447   2.994
 6804W        W10855  11.062   0.426   1.311
 6805W        W10856   5.875   4.285  11.401
 6806W        W10857   7.471   5.337   1.422
 6807W        W10858   7.117   9.504   2.884
 6808W        W10859   9.358   8.886   1.523
 6809W        W10860   5.619  10.709   3.446
 6810W        W10861   8.002   2.343   9.178
 6811W        W10862   3.669   7.051   0.018
 6812W        W10863   2.272  11.031   1.842
 6813W        W10864  11.488   0.498   0.979
 6814W        W10865   3.287   8.891   1.026
 6815W        W10866   7.316   7.006   8.848
 6816W        W10867   8.917   7.622  10.034
 6817W        W10868  10.517   9.083   8.682
 6818W        W10869   4.823   6.681  11.286
 6819W        W10870   0.399   4.876   1.631
 6820W        W10871   2.437   6.468  11.410
 6821W        W10872   9.419   9.826   2.817
 6822W        W10873   8.809   5.760  11.918
 6823W        W10874  10.888   0.355   9.373
 6824W        W10875   4.971   7.442   0.934
 6825W        W10876   2.493  10.217   0.779
 6826W        W10877  10.321   6.186   1.206
 6827W        W10878   5.219   9.953   0.356
 6828W        W10879  11.288   4.744   3.277
 6829W        W10880   5.265   0.805  11.800
 6830W        W10881   5.144   2.603   3.690
 6831W        W10882   5.748   4.089  10.738
 6832W        W10883   9.353  10.327   2.872
 6833W        W10884   1.838   7.818   2.705
 6834W        W10885  10.869   7.186   0.896
 6835W        W10886   9.878   4.721   0.198
 6836W        W10887   9.925   1.242   2.122
 6837W        W10888   3.180   4.746   0.913
 6838W        W10889   2.961   3.438  11.765
 6839W        W10890   0.676  10.424   0.080
 6840W        W10891   6.777   8.697   2.650
 6841W        W10892   8.474   9.471  10.107
 6842W        W10893   1.833   5.546   2.983
 6843W        W10894  11.401   2.825   2.641
 6844W        W10895   5.474  11.281   9.388
 6845W        W10896   8.949   9.791   0.793
 6846W        W10897   8.390   3.461  10.935
 6847W        W10898   6.592   1.638  10.200
 6848W        W10899   0.816   5.309  11.906
 6849W        W10900   2.727   8.131   1.155
 6850W        W10901   9.365   4.238  10.339
 6851W        W10902   7.471   6.689   0.342
 6852W        W10903   9.978   3.775   1.052
 6853W        W10904   2.178   7.428  10.584
 6854W        W10905   9.222   7.910   9.763
 6855W        W10906   8.450   9.896   9.828
 6856W        W10907   2.681   3.799  11.982
 6857W        W10908   0.982   0.733  10.866
 6858W        W10909  10.554  10.316   9.648
 6859W        W10910   6.215   1.249   8.660
 6860W        W10911   0.486   5.998   3.041
 6861W        W10912   0.812   4.561   9.540
 6862W        W10913   7.447   1.413   1.379
 6863W        W10914   9.398   5.815  11.307
 6864W        W10915  10.846   1.317  11.612
 6865W        W10916   8.803   4.762  11.783
 6866W        W10917   2.515   3.306  10.877
 6867W        W10918   6.383   1.401  10.924
 6868W        W10919   7.464   7.393   0.826
 6869W        W10920   1.353  10.948   2.295
 6870W        W10921   9.040   7.450   3.291
 6871W        W10922   5.618  10.368   2.466
 6872W        W10923   4.127  10.364  11.818
 6873W        W10924   1.324   1.838   9.971
 6874W        W10925   3.815   4.152   2.789
 6875W        W10926   5.029   6.075  11.955
 6876W        W10927   9.486   8.462   2.711
 6877W        W10928   7.708   5.564   2.216
 6878W        W10929   1.239   9.967   3.289
 6879W        W10930   5.461   7.447   0.783
 6880W        W10931  10.462  10.052   3.106
 6881W        W10932   4.263   5.214   0.539
 6882W        W10933   4.214   2.149   9.353
 6883W        W10934   8.958   7.195   2.830
 6884W        W10935   5.763   3.710  11.460
 6885W        W10936   7.950   2.780   1.751
 6886W        W10937   3.201   2.319  11.512
 6887W        W10938   7.476   9.975   1.828
 6888W        W10939   2.370   6.681   9.116
 6889W        W10940   9.059   9.593   1.700
 6890W        W10941   4.081  10.340   9.215
 6891W        W10942   3.144   6.145   1.805
 6892W        W10943   1.681   8.145  11.428
 6893W        W10944   6.126   0.228   1.306
 6894W        W10945   2.979   3.337   2.273
 6895W        W10946   4.069  11.461   8.976
 6896W        W10947   9.000   8.703   3.275
 6897W        W10948   7.165   8.187  10.342
 6898W        W10949   7.198   2.184   1.185
 6899W        W10950  10.024   7.986   9.913
 6900W        W10951   5.700   1.775   0.499
 6901W        W10952   0.870  11.370  10.941
 6902W        W10953   0.807  10.725   9.388
 6903W        W10954   3.288  11.228   2.636
 6904W        W10955   0.285   7.841   9.022
 6905W        W10956   2.005   7.596  10.140
 6906W        W10957   4.718   1.925  10.515
 6907W        W10958   7.612  10.440   1.211
 6908W        W10959   5.253   8.869   9.865
 6909W        W10960   7.167   5.296   0.701
 6910W        W10961   8.021   7.414   0.420
 6911W        W10962   5.570   3.092   0.284
 6912W        W10963  10.776   9.112  10.923
 6913W        W10964   3.656  10.337   9.467
 6914W        W10965   8.042   6.367   9.257
 6915W        W10966  10.272   1.974  10.603
 6916W        W10967   2.878   5.804   3.647
 6917W        W10968   6.140   0.206   0.011
 6918W        W10969   2.366   0.923  11.293
 6919W        W10970   8.126  10.344  11.035
 6920W        W10971   2.685  10.146  10.474
 6921W        W10972   1.444   1.502  10.811
 6922W        W10973   9.450   0.502  11.512
 6923W        W10974   7.204   9.238   9.028
 6924W        W10975   3.353   5.237   0.951
 6925W        W10976   9.975   7.189   0.007
 6926W        W10977   7.530   1.807   1.017
 6927W        W10978   6.914   7.504  10.741
 6928W        W10979  11.248   4.722  11.426
 6929W        W10980   9.152   7.523   2.014
 6930W        W10981   2.874   9.942  10.901
 6931W        W10982   6.930  10.207   3.591
 6932W        W10983  10.827   5.511   0.330
 6933W        W10984  10.431   8.816  10.705
 6934W        W10985   0.928   0.044   2.690
 6935W        W10986  11.050   3.322  11.282
 6936W        W10987  10.665   5.336   2.762
 6937W        W10988   4.306  10.030   0.170
 6938W        W10989   8.165  11.043  11.408
 6939W        W10990   0.306   6.734   9.659
 6940W        W10991   9.796   9.422   9.641
 6941W        W10992   7.373   2.441  10.329
 6942W        W10993   5.261   4.321   3.149
 6943W        W10994   2.617  11.306   9.887
 6944W        W10995   3.465   0.984  10.864
 6945W        W10996   1.614   5.696   9.009
 6946W        W10997   1.634   4.059   9.153
 6947W        W10998   8.450   9.303   1.380
 6948W        W10999   3.388   4.697   1.513
 6949W        W11000   1.611   6.894   1.173
 6950W        W11001   6.751   8.863   9.918
 6951W        W11002   9.849   9.491   1.250
 6952W        W11003   8.978   9.971   1.353
 6953W        W11004   3.118   3.850   2.332
 6954W        W11005   7.331   2.631  10.801
 6955W        W11006   8.447   5.225  10.447
 6956W        W11007   8.387   8.508   1.001
 6957W        W11008   7.497   5.648   0.506
 6958W        W11009  11.477   0.328   3.415
 6959W        W11010   8.001   0.745   1.320
 6960W        W11011   0.401   4.020  10.894
 6961W        W11012  10.880   2.470  10.926
 6962W        W11013   6.579   7.687   9.638
 6963W        W11014   4.201   1.430   8.826
 6964W        W11015   6.083   4.994   9.620
 6965W        W11016   5.253   1.654   1.260
 6966W        W11017   5.708  10.000   9.226
 6967W        W11018   6.367  11.374  10.469
 6968W        W11019   4.342   5.618   1.371
 6969W        W11020   8.923   1.012  11.932
 6970W        W11021   3.228   2.233   8.739
 6971W        W11022   9.966   6.000   8.943
 6972W        W11023   7.641   1.716  10.933
 6973W        W11024   3.797  11.373   9.967
 6974W        W11025  10.226   5.326  10.978
 6975W        W11026   7.485   1.339   1.902
 6976W        W11027   9.851   7.455   2.364
 6977W        W11028   5.615   8.559  11.901
 6978W        W11029   5.779  10.970   9.665
 6979W        W11030   6.154   4.146   9.893
 6980W        W11031   5.483  11.376  11.758
 6981W        W11032   8.484   0.760   0.707
 6982W        W11033   5.733   8.765   9.093
 6983W        W11034   9.546  11.272   9.761
 6984W        W11035   2.683   0.763   3.147
 6985W        W11036   4.507   9.305  10.208
 6986W        W11037   6.645   5.200  11.064
 6987W        W11038   4.783   3.306   2.306
 6988W        W11039   2.448   5.174   9.946
 6989W        W11040  11.210   6.480   1.840
 6990W        W11041   2.892   1.937   2.149
 6991W        W11042   3.748   6.233  10.210
 6992W        W11043  11.314   7.392  10.090
 6993W        W11044   4.707  11.450   3.435
 6994W        W11045  10.268   2.048   1.133
 6995W        W11046   9.549   0.432   8.935
 6996W        W11047   8.311   0.697   9.816
 6997W        W11048   3.812  10.337   3.866
 6998W        W11049   1.233   4.538  11.718
 6999W        W11050   5.106   7.081   9.953
 7000W        W11051   6.317  11.197   0.676
 7001W        W11052   2.661   1.391  11.778
 7002W        W11053  10.313   9.535   8.488
 7003W        W11054   9.121   2.874   8.882
 7004W        W11055   1.817   0.056   8.899
 7005W        W11056   7.588   1.012   8.913
 7006W        W11057   3.793   2.877  11.844
 7007W        W11058   6.957   4.110   9.452
 7008W        W11059   2.732   2.974  10.079
 7009W        W11060   0.330   4.046   9.844
 7010W        W11061  10.302   1.962   0.628
 7011W        W11062   1.752  10.835   3.184
 7012W        W11063   8.985   4.125  10.695
 7013W        W11064   2.078   6.360   3.458
 7014W        W11065   2.733  11.245   1.722
 7015W        W11066  10.323   5.706   0.402
 7016W        W11067  10.786   1.290   1.557
 7017W        W11068   9.844   1.134   0.425
 7018W        W11069   1.035   7.077   0.461
 7019W        W11070   0.849   5.025   2.792
 7020W        W11071   7.290   7.172  10.590
 7021W        W11072  11.411   1.016   0.898
 7022W        W11073   2.955  11.286   0.138
 7023W        W11074   5.754   6.648   2.222
 7024W        W11075   1.860   0.857  11.294
 7025W        W11076   4.214   8.386  11.260
 7026W        W11077   7.353   2.377   0.345
 7027W        W11078   0.861   4.644   0.476
 7028W        W11079   1.330   9.833   8.847
 7029W        W11080   8.673   2.942   9.149
 7030W        W11081   6.677   9.040   3.473
 7031W        W11082   4.273   5.636   0.851
 7032W        W11083   6.085   3.671  10.689
 7033W        W11084   5.529   6.196   1.187
 7034W        W11085   5.016   3.852   8.723
 7035W        W11086   6.072   9.951   9.565
 7036W        W11087   6.485  10.934   1.822
 7037W        W11088  11.343   1.670   2.654
 7038W        W11089   7.666   2.782   0.473
 7039W        W11090   0.270   8.100   2.167
 7040W        W11091   9.054   4.699   9.100
 7041W        W11092   1.547  10.708   8.698
 7042W        W11093   7.831   0.211   2.189
 7043W        W11094   3.407   8.965   0.538
 7044W        W11095   7.924   3.653   0.798
 7045W        W11096   5.200   9.805  10.066
 7046W        W11097   8.800   0.942   1.936
 7047W        W11098  10.038  11.083   2.898
 7048W        W11099   5.668   1.279   3.484
 7049W        W11100   5.974   8.923  11.535
 7050W        W11101   5.638   4.671   2.406
 7051W        W11102   8.403   0.755   0.193
 7052W        W11103   7.981   5.795   3.643
 7053W        W11104   0.624   0.905   9.073
 7054W        W11105   2.864   4.227  11.708
 7055W        W11106  11.211   5.986   2.782
 7056W        W11107   7.489   8.114   1.557
 7057W        W11108   5.297   0.363  10.523
 7058W        W11109   5.641   6.595   9.162
 7059W        W11110   7.876   7.830   2.185
 7060W        W11111   8.889  10.409  10.337
 7061W        W11112   7.926  10.793  11.791
 7062W        W11113  10.912   0.231   0.462
 7063W        W11114   3.556   3.994  10.628
 7064W        W11115  10.170   1.569   0.938
 7065W        W11116   9.994   6.512  10.398
 7066W        W11117   4.178   2.701   3.519
 7067W        W11118   6.691   1.886   8.939
 7068W        W11119   5.722   8.213   9.518
 7069W        W11120   3.210   9.328   1.789
 7070W        W11121   7.539  11.461   1.183
 7071W        W11122   1.682   8.720   3.203
 7072W        W11123   7.311   8.370  11.780
 7073W        W11124   6.819  10.363  11.306
 7074W        W11125   0.813   8.545  10.733
 7075W        W11126   5.768  11.413   0.215
 7076W        W11127   6.731   6.353  11.779
 7077W        W11128   9.768   8.176   3.654
 7078W        W11129   5.622   8.761   0.879
 7079W        W11130  10.548   5.536   0.850
 7080W        W11131   9.101  10.456   3.307
 7081W        W11132   7.894  11.011   9.610
 7082W        W11133   6.649  10.860   9.242
 7083W        W11134   2.433   7.060  10.331
 7084W        W11135  10.727   0.362  11.986
 7085W        W11136   6.681   9.101  10.893
 7086W        W11137   4.077   2.843   2.011
 7087W        W11138   8.143   9.851   1.396
 7088W        W11139   5.106   4.502   2.212
 7089W        W11140   0.834   4.156   1.731
 7090W        W11141   6.923   2.523   9.963
 7091W        W11142   2.635   4.909  10.386
 7092W        W11143   8.324   0.236  11.916
 7093W        W11144   7.629   9.034   9.269
 7094W        W11145   3.725   5.759   0.174
 7095W        W11146  10.379   6.066   3.264
 7096W        W11147   0.011  10.806   1.397
 7097W        W11148   4.663   0.407  10.004
 7098W        W11149   6.193   3.260   8.704
 7099W        W11150   8.436  10.575   0.914
 7100W        W11151   4.723   4.110   0.431
 7101W        W11152  11.471   1.795   1.189
 7102W        W11153  10.882   7.325   2.599
 7103W        W11154   5.498   9.531   9.102
 7104W        W11155   1.458   9.152   0.158
 7105W        W11156   9.421   0.485  10.289
 7106W        W11157   2.631   7.025  11.257
 7107W        W11158   2.837  10.939  11.749
 7108W        W11159   2.175   7.385   9.416
 7109W        W11160   1.696   9.599   0.749
 7110W        W11161   0.992  10.149  11.002
 7111W        W11162   9.971   2.867  11.730
 7112W        W11163   2.331   1.553   9.654
 7113W        W11164   8.587   3.373   1.617
 7114W        W11165   0.183  10.532   2.810
 7115W        W11166  11.421   8.471   2.067
 7116W        W11167   8.483   7.107   9.456
 7117W        W11168   5.166   1.892   2.595
 7118W        W11169   9.868   6.121   3.082
 7119W        W11170   7.962   7.062   3.152
 7120W        W11171   6.981   6.588   8.789
 7121W        W11172   1.748   6.483   0.891
 7122W        W11173   6.591   1.830  10.709
 7123W        W11174   2.710   5.745  10.726
 7124W        W11175   6.035  11.285  10.851
 7125W        W11176   1.126   5.694  10.060
 7126W        W11177   1.327   8.825  10.017
 7127W        W11178   5.087   2.974   0.945
 7128W        W11179   0.756   6.507  11.366
 7129W        W11180   8.436   1.148   1.619
 7130W        W11181   7.819   7.340   2.291
 7131W        W11182   2.846   2.691   3.501
 7132W        W11183   5.551   1.260  11.835
 7133W        W11184   2.014   7.684  11.425
 7134W        W11185   8.502   0.771  11.189
 7135W        W11186   0.499   6.694  10.540
 7136W        W11187   1.952  11.130   1.156
 7137W        W11188   0.261  11.104  10.254
 7138W        W11189   4.005   4.478   9.527
 7139W        W11190  10.902   9.003   0.031
 7140W        W11191   5.124   5.584  11.776
 7141W        W11192   9.824   5.269   3.021
 7142W        W11193   6.550   9.581   8.477
 7143W        W11194  10.047   1.784   9.791
 7144W        W11195   4.671   5.697   0.543
 7145W        W11196   1.278   8.350  10.214
 7146W        W11197   8.334  11.281   9.263
 7147W        W11198   3.200   0.996  10.102
 7148W        W11199   8.785   5.779   8.238
 7149W        W11200   3.542   4.204   9.256
 7150W        W11201   2.359  10.052  10.877
 7151W        W11202   1.779   5.019   9.402
 7152W        W11203   8.054   6.012  10.269
 7153W        W11204   7.000   0.952   2.100
 7154W        W11205   5.108   0.777   3.047
 7155W        W11206   4.633   3.202   0.856
 7156W        W11207   3.539   0.084  11.443
 7157W        W11208   8.060   0.035  11.385
 7158W        W11209   4.375   0.268   8.706
 7159W        W11210   8.511   7.624   0.410
 7160W        W11211  10.371   2.728   1.392
 7161W        W11212   8.555   1.285  11.287
 7162W        W11213   5.300  11.459   3.165
 7163W        W11214   4.775   0.937   3.439
 7164W        W11215  10.057   8.539   9.289
 7165W        W11216   4.137   1.998   8.856
 7166W        W11217   5.227   8.293   1.282
 7167W        W11218   3.382  10.748   2.347
 7168W        W11219   5.102   9.127   1.529
 7169W        W11220   6.723  10.926   0.054
 7170W        W11221   1.637   9.024  10.853
 7171W        W11222  11.405   1.861  11.706
 7172W        W11223   2.615   5.719   1.367
 7173W        W11224   8.619   4.088   0.487
 7174W        W11225   3.363   5.215   1.474
 7175W        W11226   6.885   4.536  11.260
 7176W        W11227  10.848   2.772   0.734
 7177W        W11228   6.524  11.171   3.084
 7178W        W11229   5.101   3.128  11.074
 7179W        W11230   9.478  10.859   0.201
 7180W        W11231   3.759   7.997  10.482
 7181W        W11232   7.159   7.033   0.002
 7182W        W11233   1.400   8.437   9.201
 7183W        W11234   3.888   1.871   1.293
 7184W        W11235   1.198   6.712  11.704
 7185W        W11236   5.193   1.415   0.752
 7186W        W11237   4.714   8.709   1.967
 7187W        W11238   3.282   8.757   8.595
 7188W        W11239   1.297   4.651   0.201
 7189W        W11240   7.255   8.405  10.799
 7190W        W11241   0.643   1.478  10.421
 7191W        W11242   2.622   8.630   1.259
 7192W        W11243   7.022   1.709  10.473
 7193W        W11244   5.026  10.826   0.466
 7194W        W11245   2.689   2.348   2.405
 7195W        W11246  10.744   4.305   2.825
 7196W        W11247   4.669   6.092   1.850
 7197W        W11248   8.792   3.665   1.209
 7198W        W11249   5.549   3.262   2.690
 7199W        W11250   1.796   5.520   9.454
 7200W        W11251   4.395   2.191   2.847
 7201W        W11252   6.013   3.071   9.149
 7202W        W11253   6.530   5.657   1.719
 7203W        W11254   3.612  11.256  10.963
 7204W        W11255   3.358   7.127  10.468
 7205W        W11256   3.810   2.645  10.379
 7206W        W11257  11.384   4.375   9.198
 7207W        W11258   9.456   5.043   0.373
 7208W        W11259   6.565   5.693  11.283
 7209W        W11260   8.750   6.561   8.742
 7210W        W11261   0.646   1.239   9.953
 7211W        W11262   4.269   4.571  10.813
 7212W        W11263   1.061   7.877   3.359
 7213W        W11264   4.148   2.529  11.933
 7214W        W11265   5.797   7.531   8.925
 7215W        W11266   8.106   3.716   9.620
 7216W        W11267   0.397   4.898  11.771
 7217W        W11268   0.869   9.059  10.623
 7218W        W11269   6.945   0.844   2.603
 7219W        W11270   0.288   7.681   9.936
 7220W        W11271   3.815   2.087  11.421
 7221W        W11272   7.027  11.471   2.339
 7222W        W11273   9.077   3.345   2.905
 7223W        W11274   4.106   1.668   9.257
 7224W        W11275   9.397   2.432   9.699
 7225W        W11276   5.147   6.744   9.126
 7226W        W11277   6.181   6.170   9.428
 7227W        W11278   0.242   6.604   0.048
 7228W        W11279   2.224   0.172   1.037
 7229W        W11280   5.508  10.277  10.722
 7230W        W11281   4.839   0.057   2.973
 7231W        W11282   2.071   1.960   3.107
 7232W        W11283   0.779  11.208  11.807
 7233W        W11284   8.046  10.971   2.848
 7234W        W11285   8.713   1.383   0.751
 7235W        W11286   0.554   9.710   0.575
 7236W        W11287   7.079   7.565   9.594
 7237W        W11288   0.129   5.279   0.105
 7238W        W11289   4.712   6.175  11.252
 7239W        W11290   3.818  10.966  11.924
 7240W        W11291   4.537   7.584  10.041
 7241W        W11292   8.333   9.826   3.631
 7242W        W11293   3.601   1.352  10.150
 7243W        W11294   2.707   9.931   2.043
 7244W        W11295   2.157   5.131  10.343
 7245W        W11296   1.790   3.511  11.464
 7246W        W11297   8.562   8.903   9.379
 7247W        W11298   6.593   7.126   1.855
 7248W        W11299   2.639   0.930   9.958
 7249W        W11300   2.680   1.879   2.630
 7250W        W11301   0.220   0.022   1.858
 7251W        W11302   4.158   3.747  10.268
 7252W        W11303   3.699   6.123   8.351
 7253W        W11304   3.260   4.684  10.096
 7254W        W11305   0.410   6.640   1.117
 7255W        W11306   0.766   3.192  11.043
 7256W        W11307   8.659   8.910  11.062
 7257W        W11308   1.734   8.959  11.796
 7258W        W11309   8.360   1.093   1.112
 7259W        W11310   2.516   5.631   8.724
 7260W        W11311   7.385   0.464   3.011
 7261W        W11312   2.720   8.882  10.027
 7262W        W11313   4.735   2.441  11.355
 7263W        W11314  10.926   3.022   2.589
 7264W        W11315   3.456  10.529   0.447
 7265W        W11316   6.259   5.493  11.788
 7266W        W11317   7.520   8.099  11.143
 7267W        W11318   8.870   8.490   0.847
 7268W        W11319   8.140   6.391   1.378
 7269W        W11320   9.976   0.375   9.228
 7270W        W11321   9.825   8.025   3.166
 7271W        W11322   5.143   8.405   0.024
 7272W        W11323   1.737   2.509   8.949
 7273W        W11324  10.338   8.902   2.684
 7274W        W11325   3.680   4.247   8.752
 7275W        W11326  10.336   2.198  11.393
 7276W        W11327   6.251  10.378   9.767
 7277W        W11328   2.345   3.842   8.646
 7278W        W11329   3.792   9.710   0.195
 7279W        W11330   4.077   0.450   2.438
 7280W        W11331  10.378   1.795   1.854
 7281W        W11332  11.044   2.669   2.177
 7282W        W11333   1.851   7.721   9.667
 7283W        W11334   0.397   0.504   1.488
 7284W        W11335   9.099   2.608  11.357
 7285W        W11336  10.860   6.118   9.350
 7286W        W11337   2.208   6.638   1.648
 7287W        W11338  10.305   8.157   3.108
 7288W        W11339  10.915   4.623  11.806
 7289W        W11340   6.756   5.870   1.207
 7290W        W11341   0.778   2.863  10.210
 7291W        W11342   2.714   9.918   9.991
 7292W        W11343  11.221   9.490   9.138
 7293W        W11344   8.912   2.491   3.266
 7294W        W11345   0.926   2.829  10.712
 7295W        W11346   7.507  11.308   2.220
 7296W        W11347   5.698   4.039   4.048
 7297W        W11348   0.886  11.362   0.491
 7298W        W11349   1.201   4.163   0.993
 7299W        W11350   8.494   0.954   9.413
 7300W        W11351  11.223   1.686   3.661
 7301W        W11352   3.763   1.290   1.908
 7302W        W11353   2.284   9.408  11.515
 7303W        W11354   7.075   2.049  11.428
 7304W        W11355   1.715   7.835   0.989
 7305W        W11356   9.069  10.880   1.392
 7306W        W11357   9.998  10.990  11.356
 7307W        W11358   1.336   4.090  10.999
 7308W        W11359   4.197   4.671   1.800
 7309W        W11360  10.605   8.585   1.798
 7310W        W11361   2.064   3.263   3.594
 7311W        W11362   6.684   1.396   3.414
 7312W        W11363   1.524  10.510   0.880
 7313W        W11364   5.476   8.298   0.756
 7314W        W11365   0.376  10.403  11.459
 7315W        W11366   5.034  11.082   1.961
 7316W        W11367   1.062   7.498   1.274
 7317W        W11368   2.038   5.174   1.249
 7318W        W11369   0.439   2.620   1.024
 7319W        W11370   5.631   4.656   2.959
 7320W        W11371   4.530   3.205   9.022
 7321W        W11372   9.864   4.291   0.886
 7322W        W11373   3.972   8.348  11.706
 7323W        W11374   4.278  10.601   2.005
 7324W        W11375   8.827   2.202  11.432
 7325W        W11376   6.204   9.215   0.346
 7326W        W11377   0.321   5.177   0.674
 7327W        W11378   5.702   2.814  10.496
 7328W        W11379   0.428  10.949  10.733
 7329W        W11380   0.470   2.121   9.889
 7330W        W11381   0.493   6.696   2.117
 7331W        W11382  10.412   1.948   9.077
 7332W        W11383   6.915   6.048  11.398
 7333W        W11384   8.989   0.318   1.356
 7334W        W11385   2.718   6.213   0.493
 7335W        W11386  11.352  10.276   0.350
 7336W        W11387   9.129   2.123   2.101
 7337W        W11388   1.166   7.899   2.329
 7338W        W11389   3.329   5.083  11.910
 7339W        W11390   6.511   4.525  10.507
 7340W        W11391   9.242   0.605  11.996
 7341W        W11392   1.676   9.096   9.267
 7342W        W11393   3.354   1.722   8.545
 7343W        W11394  10.098   1.064   0.874
 7344W        W11395  10.039   2.414   0.796
 7345W        W11396   0.686  11.227   9.526
 7346W        W11397   8.716   6.048   8.685
 7347W        W11398   7.941   4.246   9.816
 7348W        W11399   9.011  10.150  11.845
 7349W        W11400   6.925   0.788   9.724
 7350W        W11401   7.960   4.492  10.276
 7351W        W11402   9.647   2.911   8.961
 7352W        W11403  10.458   0.921   2.359
 7353W        W11404  11.366   6.161   9.485
 7354W        W11405   5.805   2.345   1.216
 7355W        W11406   6.572   0.243   2.395
 7356W        W11407   8.265   7.888   9.612
 7357W        W11408   7.996   7.119  11.987
 7358W        W11409   7.966  11.232   1.425
 7359W        W11410   2.756   4.966   0.734
 7360W        W11411   4.974   7.072   9.467
 7361W        W11412   4.707   4.773   2.012
 7362W        W11413   1.778   2.329   0.982
 7363W        W11414   0.318   5.762  10.327
 7364W        W11415   2.881   3.697   0.481
 7365W        W11416   4.982   1.772   8.783
 7366W        W11417  10.669   6.844   9.890
 7367W        W11418   2.283   0.252   0.535
 7368W        W11419   4.155   4.876  10.405
 7369W        W11420   2.002   5.431   0.788
 7370W        W11421   6.046   6.507  10.699
 7371W        W11422   8.820   9.332   0.538
 7372W        W11423   9.918   5.686   2.488
 7373W        W11424  10.356   7.453   0.690
 7374W        W11425   1.467  11.429  10.452
 7375W        W11426  10.733   9.651   0.713
 7376W        W11427   8.635   2.567   1.041
 7377W        W11428   4.283   9.956  11.154
 7378W        W11429   8.781   5.911  10.272
 7379W        W11430   8.405   3.829   0.890
 7380W        W11431   2.085   8.075   0.754
 7381W        W11432  11.219   3.638   3.259
 7382W        W11433   7.489  10.510   2.690
 7383W        W11434   9.010   8.576   2.283
 7384W        W11435   0.955   6.909   2.253
 7385W        W11436   7.579  11.393  11.642
 7386W        W11437  10.347   8.828   1.419
 7387W        W11438   3.722   7.114   1.982
 7388W        W11439   0.562   3.640   1.302
 7389W        W11440   3.577   0.713   9.882
 7390W        W11441   0.623   9.157   2.226
 7391W        W11442  11.432   8.565  10.813
 7392W        W11443   7.252   2.784   2.782
 7393W        W11444   8.638   8.383   1.472
 7394W        W11445   3.694   3.610   9.378
 7395W        W11446   4.735   5.710  11.018
 7396W        W11447   5.348   7.272   9.152
 7397W        W11448   7.405   0.531   2.495
 7398W        W11449   3.225   3.184   9.974
 7399W        W11450   9.635   0.396   3.045
 7400W        W11451   2.411   9.945   3.417
 7401W        W11452   7.823  10.616  10.573
 7402W        W11453   7.130   1.351   3.176
 7403W        W11454   1.397   0.260   1.413
 7404W        W11455   4.539   8.528   1.106
 7405W        W11456   5.682   2.774  11.561
 7406W        W11457   1.158   1.020   0.335
 7407W        W11458   6.565   8.150   1.829
 7408W        W11459   2.836   2.699   0.363
 7409W        W11460   9.439   1.959   9.519
 7410W        W11461   3.578   7.030  11.517
 7411W        W11462   0.758   6.073   9.479
 7412W        W11463  10.261   2.909  10.943
 7413W        W11464   3.571   3.169   9.095
 7414W        W11465   1.968   0.798   3.629
 7415W        W11466   5.485   7.591  11.923
 7416W        W11467  11.354   2.742   0.841
 7417W        W11468   6.528   6.656  10.226
 7418W        W11469   7.433  10.241  10.522
 7419W        W11470   6.148   5.074   1.561
 7420W        W11471   3.596   1.812  11.828
 7421W        W11472   1.841   3.617   0.400
 7422W        W11473   5.010   4.253   1.351
 7423W        W11474   3.237   4.688   2.005
 7424W        W11475   6.095   7.747   3.668
 7425W        W11476   7.616   4.528   9.551
 7426W        W11477   5.334   8.906   0.169
 7427W        W11478  10.834   5.553   1.700
 7428W        W11479   8.580   8.895   2.199
 7429W        W11480   9.330   3.659   1.263
 7430W        W11481   8.131   8.030  11.825
 7431W        W11482   2.401   7.418   1.501
 7432W        W11483   9.085   2.681   9.370
 7433W        W11484   2.379   9.981   8.972
 7434W        W11485   6.681   4.207   0.337
 7435W        W11486   8.822   1.006   0.430
 7436W        W11487   9.875  11.204   0.310
 7437W        W11488   5.968  10.589  11.396
 7438W        W11489   4.282   1.360   0.432
 7439W        W11490  10.058  10.303   9.463
 7440W        W11491   2.827   4.537   0.463
 7441W        W11492   8.631   2.555   1.544
 7442W        W11493   8.653   7.603   1.914
 7443W        W11494   3.931   8.075   3.099
 7444W        W11495   9.919   3.323   2.426
 7445W        W11496   0.451   5.052   8.882
 7446W        W11497   0.370   8.573   2.461
 7447W        W11498   9.394  10.439   1.954
 7448W        W11499  11.106   4.612   0.296
 7449W        W11500   2.156   3.228   0.184
 7450W        W11501   5.249   1.206  11.433
 7451W        W11502   9.857   2.263   3.538
 7452W        W11503   4.676  10.414  11.815
 7453W        W11504   5.663   4.787  10.534
 7454W        W11505   7.188   3.851   3.057
 7455W        W11506   4.243   4.699   9.942
 7456W        W11507   0.528   2.652   9.316
 7457W        W11508   9.592   5.727   2.863
 7458W        W11509   9.868   7.549   3.363
 7459W        W11510   1.940   8.715   8.436
 7460W        W11511   1.768   6.470   1.430
 7461W        W11512   4.079   6.001   1.147
 7462W        W11513   5.084   7.882  11.505
 7463W        W11514   2.137  11.319   9.995
 7464W        W11515   1.981   2.688  11.289
 7465W        W11516   8.527   1.575   1.868
 7466W        W11517   0.120   9.456   9.500
 7467W        W11518  10.017   6.132   0.198
 7468W        W11519   3.606   8.413  10.763
 7469W        W11520   6.333  10.713   0.334
 7470W        W11521  10.317  10.063   1.834
 7471W        W11522   7.651   0.020   1.694
 7472W        W11523   5.114   8.651  10.343
 7473W        W11524   8.172   3.868   0.390
 7474W        W11525   9.143   3.105  11.285
 7475W        W11526   7.630   5.614  11.070
 7476W        W11527   6.622   3.579  11.459
 7477W        W11528   8.143   0.485   9.388
 7478W        W11529   4.590   2.483   3.235
 7479W        W11530  10.067   6.193  10.826
 7480W        W11531   2.318   3.392   8.985
 7481W        W11532   8.491   4.982  10.002
 7482W        W11533  11.242   4.910   8.595
 7483W        W11534   8.562   8.380  10.975
 7484W        W11535   0.760   4.852   3.505
 7485W        W11536  10.210   5.777  11.477
 7486W        W11537   0.420   4.622   2.866
 7487W        W11538   0.457   8.536   2.963
 7488W        W11539   8.430  11.168   1.660
 7489W        W11540   9.005   5.038  11.196
 7490W        W11541   7.849   4.522  11.776
 7491W        W11542   7.508   6.955   3.368
 7492W        W11543   8.953   9.134   2.480
 7493W        W11544   5.155   4.026   9.204
 7494W        W11545   8.901   5.746   2.289
 7495W        W11546  11.261  10.151   1.941
 7496W        W11547   5.040  10.062  10.512
 7497W        W11548   4.528   7.034   1.521
 7498W        W11549   1.682   3.082  11.153
 7499W        W11550   0.866  10.466   9.993
 7500W        W11551   6.030   4.903   2.092
 7501W        W11552   2.257   1.159   0.024
 7502W        W11553   2.690   5.414  10.337
 7503W        W11554  10.979  10.117   3.157
 7504W        W11555   7.656   8.669   3.350
 7505W        W11556  11.437   0.300   0.510
 7506W        W11557   6.422   0.173   9.290
 7507W        W11558   3.780   2.651   1.591
 7508W        W11559   6.991   7.986   3.155
 7509W        W11560   9.909   1.045   8.617
 7510W        W11561   5.255   3.577  11.511
 7511W        W11562   6.503   0.987   1.314
 7512W        W11563   1.976   5.084   2.146
 7513W        W11564   4.480   6.530   1.659
 7514W        W11565   0.901   2.177   3.209
 7515W        W11566   2.812   6.453   9.247
 7516W        W11567   5.028   1.236  11.952
 7517W        W11568   7.020   5.608  11.658
 7518W        W11569   9.986   1.345   9.551
 7519W        W11570   0.869   2.456   2.203
 7520W        W11571   6.508   8.151   3.304
 7521W        W11572   5.043   3.453   3.966
 7522W        W11573   8.299   2.969  10.851
 7523W        W11574   9.442   7.642   0.508
 7524W        W11575   7.460  10.798   3.098
 7525W        W11576   6.477   6.135   1.530
 7526W        W11577   6.087   0.650  11.770
 7527W        W11578   8.136   3.300   0.462
 7528W        W11579   8.439   6.586   2.666
 7529W        W11580  11.346   2.317   1.862
 7530W        W11581   9.113   5.234   0.690
 7531W        W11582   5.554  10.908  11.484
 7532W        W11583   0.285   8.573  11.999
 7533W        W11584   9.601   8.643   0.305
 7534W        W11585   6.512   5.908   9.134
 7535W        W11586   5.326   7.485   8.682
 7536W        W11587   4.253   6.228  10.266
 7537W        W11588   5.142   3.094   3.601
 7538W        W11589   8.298   3.738   1.401
 7539W        W11590   8.418   9.765   2.103
 7540W        W11591   6.192  10.819  11.821
 7541W        W11592   4.298   9.123   0.311
 7542W        W11593   1.309  11.426   1.778
 7543W        W11594   1.706   2.985   8.673
 7544W        W11595   3.746   9.256   1.933
 7545W        W11596   3.221   4.111  10.263
 7546W        W11597   2.602   8.999   9.047
 7547W        W11598   4.052  11.367   9.483
 7548W        W11599   6.391  10.068  11.403
 7549W        W11600   4.816   0.004   2.336
 7550W        W11601   1.299   7.034   2.909
 7551W        W11602   7.656   9.520   1.975
 7552W        W11603   7.361  10.766  10.429
 7553W        W11604  10.340   0.421   2.426
 7554W        W11605   0.032   4.807   2.595
 7555W        W11606   5.445   6.013  11.675
 7556W        W11607   7.513   1.675   9.643
 7557W        W11608   8.202   3.339   1.098
 7558W        W11609   6.169   1.225   1.661
 7559W        W11610   5.252   0.915   0.768
 7560W        W11611   2.578   7.039   9.451
 7561W        W11612   3.004   5.818   3.127
 7562W        W11613   2.664  10.667  10.465
 7563W        W11614   6.274   2.797   9.494
 7564W        W11615   0.497   6.192   0.269
 7565W        W11616   5.012   8.380   9.941
 7566W        W11617   5.502   9.538   0.199
 7567W        W11618   7.934   7.665  10.866
 7568W        W11619   2.617   4.211   8.942
 7569W        W11620   8.522  11.199   0.656
 7570W        W11621   3.104   5.866   0.406
 7571W        W11622   2.449  10.361   2.048
 7572W        W11623  10.012   4.172  11.501
 7573W        W11624   6.633   8.637   3.129
 7574W        W11625  11.270   1.731  10.307
 7575W        W11626   0.847  11.043   2.491
 7576W        W11627   7.009  10.948  10.105
 7577W        W11628   6.615   4.250  10.094
 7578W        W11629  10.249   4.632  10.381
 7579W        W11630   8.112   4.772   2.686
 7580W        W11631   1.301   7.541   2.688
 7581W        W11632   9.829   4.298  10.564
 7582W        W11633   2.839   3.702  10.944
 7583W        W11634   0.493   5.068   1.157
 7584W        W11635   9.045   6.838  10.449
 7585W        W11636   9.000   3.173   9.549
 7586W        W11637   9.316   4.111  11.980
 7587W        W11638  11.280   4.219  11.695
 7588W        W11639   5.008   3.847   9.672
 7589W        W11640   4.061   2.056   0.859
 7590W        W11641   8.980   7.833   0.311
 7591W        W11642   3.434   5.256  10.848
 7592W        W11643   7.479   3.271   0.409
 7593W        W11644   2.209   7.630   1.925
 7594W        W11645   3.915   1.719   0.426
 7595W        W11646   4.220   6.733  10.845
 7596W        W11647   3.602   6.624   1.719
 7597W        W11648  10.593   9.553   2.289
 7598W        W11649   9.634   6.412  11.669
 7599W        W11650   6.116   4.420   3.185
 7600W        W11651   9.476   7.043   2.789
 7601W        W11652   0.379  10.221   0.452
 7602W        W11653   2.250   7.949   0.296
 7603W        W11654   9.169   6.839   8.642
 7604W        W11655  10.762   1.984  10.976
 7605W        W11656   2.793   3.282  11.305
 7606W        W11657   6.031  10.325   3.249
 7607W        W11658   2.243   8.101   2.950
 7608W        W11659   1.259   1.711   2.790
 7609W        W11660   2.893   5.996   9.033
 7610W        W11661  10.979   3.552   0.494
 7611W        W11662   9.568   4.795   2.744
 7612W        W11663  10.868   4.168   8.470
 7613W        W11664   2.713  11.348  10.844
 7614W        W11665   4.699   8.475   9.542
 7615W        W11666   1.662   6.753  11.456
 7616W        W11667   9.752   5.681   3.352
 7617W        W11668   6.669   2.909   0.186
 7618W        W11669   7.388   4.595   0.008
 7619W        W11670  10.113   3.624  10.380
 7620W        W11671   6.052  10.903   1.494
 7621W        W11672   8.837   5.121   9.286
 7622W        W11673  10.023   0.741   2.157
 7623W        W11674  11.340   9.965  11.946
 7624W        W11675   7.697   3.239   2.452
 7625W        W11676   8.876   8.029   1.765
 7626W        W11677   8.224   8.605   9.102
 7627W        W11678   6.952  10.204   0.976
 7628W        W11679  10.305   4.073  11.894
 7629W        W11680   3.382   2.866  11.090
 7630W        W11681  11.015   9.967   8.994
 7631W        W11682   3.619  11.228   9.067
 7632W        W11683   8.514   5.081  11.407
 7633W        W11684   3.293   7.493   1.556
 7634W        W11685   5.044   8.732   2.500
 7635W        W11686   9.354   9.608   9.408
 7636W        W11687   2.496   9.118  10.946
 7637W        W11688   4.327   4.807  11.267
 7638W        W11689  11.376   7.216   3.571
 7639W        W11690   2.818   2.129   9.046
 7640W        W11691   0.280   0.317  11.278
 7641W        W11692  11.496   3.389   9.548
 7642W        W11693   5.628   2.346   8.758
 7643W        W11694  10.386   7.427  10.744
 7644W        W11695   1.288  10.930   1.777
 7645W        W11696   7.649   3.616   9.416
 7646W        W11697  11.052  10.566   3.416
 7647W        W11698   6.074   0.733   1.407
 7648W        W11699  11.264   9.846  10.369
 7649W        W11700   5.171   4.049   2.728
 7650W        W11701   6.591   0.668   0.905
 7651W        W11702   9.331   0.241  10.712
 7652W        W11703   6.089   1.912   1.220
 7653W        W11704   3.374   4.574   2.929
 7654W        W11705   7.568   7.587  11.352
 7655W        W11706  10.694  10.876   9.351
 7656W        W11707   4.348   9.099   9.746
 7657W        W11708   5.368   3.179  10.301
 7658W        W11709   4.391   1.782   1.232
 7659W        W11710  11.315   1.893   0.699
 7660W        W11711   1.331   9.073   3.366
 7661W        W11712   8.839   4.612   9.990
 7662W        W11713   0.460   7.909   0.253
 7663W        W11714   7.653   5.820   1.365
 7664W        W11715   5.201   7.762   2.905
 7665W        W11716   3.871   7.924  11.977
 7666W        W11717   3.137   4.945  10.539
 7667W        W11718   4.685   3.556   1.852
 7668W        W11719   0.124   3.583   3.577
 7669W        W11720   5.413   4.115   1.685
 7670W        W11721   5.667   7.731   0.415
 7671W        W11722   7.053  10.928   9.544
 7672W        W11723   1.624   8.472  11.895
 7673W        W11724  10.435   8.651   8.408
 7674W        W11725   8.370   5.100   9.530
 7675W        W11726   7.145   6.042  11.873
 7676W        W11727   6.156   4.424   2.222
 7677W        W11728   6.973   3.223  11.569
 7678W        W11729   0.468   0.292   9.629
 7679W        W11730   8.101   4.921   8.244
 7680W        W11731   3.209   7.654  11.549
 7681W        W11732   4.976   0.720  10.285
 7682W        W11733   1.795   5.642  10.322
 7683W        W11734   8.923   5.075   8.757
 7684W        W11735  11.367  11.021   2.817
 7685W        W11736   4.366   8.137   2.620
 7686W        W11737   1.414   3.800   0.693
 7687W        W11738   7.897  10.812  11.051
 7688W        W11739   5.500   5.143   3.085
 7689W        W11740   1.410   7.171   8.981
 7690W        W11741   9.841   6.106   9.443
 7691W        W11742   7.347   4.397   8.679
 7692W        W11743   5.733   3.054   8.504
 7693W        W11744   0.859   2.390   3.681
 7694W        W11745   5.098   1.419   3.476
 7695W        W11746   6.555   4.098   2.268
 7696W        W11747   8.333   2.921   0.794
 7697W        W11748   3.155   9.400   3.120
 7698W        W11749   8.578   4.835   2.924
 7699W        W11750   4.118   3.719   2.679
 7700W        W11751  11.033  10.448  10.389
 7701W        W11752   8.183   9.809  10.921
 7702W        W11753   2.434  10.431   0.333
 7703W        W11754   7.969   8.918   0.133
 7704W        W11755   4.106   3.664   9.724
 7705W        W11756   1.165   7.369  10.379
 7706W        W11757   2.709   0.518   1.238
 7707W        W11758   9.947   5.000  11.259
 7708W        W11759   6.112  11.375  10.000
 7709W        W11760   7.413   2.196   9.563
 7710W        W11761   7.181   0.656   1.735
 7711W        W11762  11.415  11.037  11.080
 7712W        W11763   5.695  11.471   2.833
 7713W        W11764   5.213   5.072   1.534
 7714W        W11765   6.013   2.636   0.000
 7715W        W11766   0.529  11.472  10.558
 7716W        W11767   3.137   0.748  10.538
 7717W        W11768   7.078  10.676   1.203
 7718W        W11769   4.347   4.015  11.637
 7719W        W11770  11.472   9.450  10.014
 7720W        W11771   0.259   8.369   0.625
 7721W        W11772   2.408   2.945   0.544
 7722W        W11773   4.802   2.430  10.512
 7723W        W11774   0.435   4.293   2.188
 7724W        W11775   7.154   7.973   2.638
 7725W        W11776   5.795  10.006   2.855
 7726W        W11777   6.587   1.645   9.384
 7727W        W11778   1.447  10.667   9.905
 7728W        W11779   1.146   2.084   2.411
 7729W        W11780   1.026   6.236   9.919
 7730W        W11781  10.935   3.814  11.419
 7731W        W11782   4.679   8.939   3.397
 7732W        W11783   6.458   2.271   3.604
 7733W        W11784  10.656   1.365   1.021
 7734W        W11785   6.348   3.061   0.892
 7735W        W11786   5.539   7.348  10.007
 7736W        W11787   4.162   8.668   0.059
 7737W        W11788   2.181  10.515  10.518
 7738W        W11789  10.483   3.211   1.185
 7739W        W11790   1.097   2.712  11.866
 7740W        W11791  10.223   5.629   3.509
 7741W        W11792   5.178   5.588  10.067
 7742W        W11793   9.824   3.124  10.067
 7743W        W11794   5.248   2.070   9.096
 7744W        W11795   0.113   0.950   9.125
 7745W        W11796  10.036   6.489   9.071
 7746W        W11797  11.372   6.664   9.383
 7747W        W11798   2.562   4.520   3.286
 7748W        W11799   9.852   0.704   1.224
 7749W        W11800   6.948   7.923   8.959
 7750W        W11801   2.600   3.627   3.520
 7751W        W11802   2.100   9.303   0.792
 7752W        W11803   0.177   4.348  10.243
 7753W        W11804   0.478  11.369   3.360
 7754W        W11805   0.723   2.648   3.183
 7755W        W11806   5.296   0.875   1.967
 7756W        W11807   7.925  10.522   3.078
 7757W        W11808   5.149   7.620   1.808
 7758W        W11809  10.377  10.891  10.070
 7759W        W11810   1.834   0.197   0.267
 7760W        W11811   5.025   7.388  11.856
 7761W        W11812  10.865   9.294   8.369
 7762W        W11813   1.319   4.794   1.691
 7763W        W11814   8.348   4.506   9.937
 7764W        W11815   1.842   5.365  11.941
 7765W        W11816  11.094   5.533   2.609
 7766W        W11817   8.576  11.316  10.688
 7767W        W11818   2.276   0.428   2.484
 7768W        W11819   9.909   8.425  10.774
 7769W        W11820   8.370   7.607   0.908
 7770W        W11821   5.547   9.016   1.841
 7771W        W11822  10.239   6.093   1.692
 7772W        W11823   9.811   8.872  10.353
 7773W        W11824   0.423   3.607  10.590
 7774W        W11825   0.350   6.562   0.583
 7775W        W11826   5.621   0.291   2.425
 7776W        W11827  10.869   7.311   9.814
 7777W        W11828   4.472   2.803   2.357
 7778W        W11829   2.241   6.548   0.643
 7779W        W11830   5.806   8.038  10.261
 7780W        W11831   1.953   3.202   1.481
 7781W        W11832   6.909   2.054   3.687
 7782W        W11833   3.127   1.784   1.727
 7783W        W11834   6.494   3.456   3.702
 7784W        W11835   1.696   8.437  10.957
 7785W        W11836   4.050   5.671  11.345
 7786W        W11837   2.144   1.343   2.405
 7787W        W11838   8.238   1.410   9.491
 7788W        W11839  11.113   9.062  10.018
 7789W        W11840  10.590  10.426  10.151
 7790W        W11841  11.048   3.643   9.478
 7791W        W11842  11.398   3.634   9.110
 7792W        W11843   2.771   7.360   0.729
 7793W        W11844   7.514   8.066   3.007
 7794W        W11845   3.288  11.175   3.164
 7795W        W11846   0.396   7.041   0.798
 7796W        W11847   0.927   0.315   0.773
 7797W        W11848   9.643  10.323   9.842
 7798W        W11849   8.663   3.584   2.666
 7799W        W11850   0.386   8.365  10.498
 7800W        W11851   5.634   9.090  11.172
 7801W        W11852   3.114   1.643  11.773
 7802W        W11853   9.691  10.092   0.405
 7803W        W11854   3.504   6.673  10.305
 7804W        W11855   6.933   4.080   8.897
 7805W        W11856   1.301   5.486   0.055
 7806W        W11857   5.848   0.253  11.565
 7807W        W11858   9.575  10.798   1.556
 7808W        W11859   5.284   2.832   9.488
 7809W        W11860   8.462   8.534  10.105
 7810W        W11861   7.786   4.873   3.590
 7811W        W11862   1.354   2.826   1.422
 7812W        W11863  10.609  11.026  11.354
 7813W        W11864  10.295  11.413   8.757
 7814W        W11865   8.050   7.385   9.545
 7815W        W11866  11.275   1.832   0.192
 7816W        W11867   8.046   5.514   1.241
 7817W        W11868   9.481   7.492   3.023
 7818W        W11869   5.536  11.258   0.687
 7819W        W11870   7.447   4.794  11.537
 7820W        W11871   7.647   2.869  11.314
 7821W        W11872   3.573   9.012   3.810
 7822W        W11873   4.738   2.892   9.565
 7823W        W11874   8.961   3.809   0.191
 7824W        W11875   0.850   4.749  11.978
 7825W        W11876   6.208   1.307   3.269
 7826W        W11877  10.555   2.362   0.781
 7827W        W11878  10.127  10.415   3.295
 7828W        W11879   0.701  11.305  10.033
 7829W        W11880   4.798   4.152   2.411
 7830W        W11881  10.357   9.353   0.530
 7831W        W11882   8.086   6.299   3.692
 7832W        W11883   6.767   9.125   2.969
 7833W        W11884   1.495  11.264   1.333
 7834W        W11885   5.356   5.184  10.712
 7835W        W11886  11.472   1.240   2.370
 7836W        W11887   8.501   7.685  10.310
 7837W        W11888   3.360   3.771  11.054
 7838W        W11889   0.605   5.486   8.605
 7839W        W11890   6.771   9.916   2.712
 7840W        W11891   0.621   8.087  10.863
 7841W        W11892   5.994   6.130   1.343
 7842W        W11893   8.574   4.113   8.748
 7843W        W11894   9.673   9.999   2.367
 7844W        W11895   8.646   5.476  10.029
 7845W        W11896   9.141   2.772  10.882
 7846W        W11897   8.057   5.291  10.792
 7847W        W11898  10.408   2.466   9.140
 7848W        W11899   2.694   1.923   9.838
 7849W        W11900   1.127   1.399  11.548
 7850W        W11901   3.599  10.679   9.074
 7851W        W11902   6.395   0.356   1.919
 7852W        W11903   7.086  10.434  10.855
 7853W        W11904   0.766   2.302  11.814
 7854W        W11905   7.920   6.907   0.448
 7855W        W11906   9.948   0.597   0.702
 7856W        W11907   7.081   7.085   3.118
 7857W        W11908   0.357   6.475  10.982
 7858W        W11909   4.050   6.702   8.978
 7859W        W11910   3.255   0.454   8.915
 7860W        W11911   8.178   5.598   3.155
 7861W        W11912  11.483   7.927   0.485
 7862W        W11913   2.321   3.320   9.993
 7863W        W11914   7.459   0.779   9.741
 7864W        W11915   9.151   1.192   1.636
 7865W        W11916  11.337   2.134  11.142
 7866W        W11917   5.644   6.534  11.048
 7867W        W11918   4.911   6.809  11.783
 7868W        W11919   5.661   8.922   1.355
 7869W        W11920   7.056   8.381  11.278
 7870W        W11921   0.564   4.072  10.394
 7871W        W11922   2.601   4.677   9.920
 7872W        W11923   8.526   1.076   3.556
 7873W        W11924   3.725   8.843  10.490
 7874W        W11925   8.990   0.237  10.095
 7875W        W11926   5.866   2.203   0.262
 7876W        W11927   2.504   6.571  10.475
 7877W        W11928   5.889   0.071  10.445
 7878W        W11929   0.313   9.916   9.666
 7879W        W11930   0.889   2.280   8.974
 7880W        W11931  11.462   3.647  10.888
 7881W        W11932   5.578   2.409   2.099
 7882W        W11933   5.994   3.128  10.820
 7883W        W11934   9.478  10.154  11.562
 7884W        W11935   9.928   8.352  11.307
 7885W        W11936   0.400   0.798   9.527
 7886W        W11937   4.666   9.065   2.359
 7887W        W11938   2.340   3.777  10.779
 7888W        W11939   7.765   0.989  10.519
 7889W        W11940  10.956  10.420  10.888
 7890W        W11941   0.223   9.974   1.787
 7891W        W11942   7.968   6.009   0.521
 7892W        W11943   3.146  10.425   8.973
 7893W        W11944  10.098   3.292   0.883
 7894W        W11945   3.238  10.982   9.328
 7895W        W11946   4.535   1.791   9.567
 7896W        W11947  10.967   5.886  10.747
 7897W        W11948   5.286   8.552   3.601
 7898W        W11949   0.553   2.730  11.071
 7899W        W11950   5.596   2.840   8.981
 7900W        W11951  10.247   0.828  11.605
 7901W        W11952  10.493   1.283   8.897
 7902W        W11953   8.198   5.073   1.860
 7903W        W11954   6.022   8.082  11.474
 7904W        W11955   7.570   9.405  10.010
 7905W        W11956   6.635   3.175   1.834
 7906W        W11957  10.721   3.650   3.410
 7907W        W11958   9.637   1.979  10.021
 7908W        W11959   8.966  11.496  10.969
 7909W        W11960   9.560   3.099   2.986
 7910W        W11961   4.176   9.580   8.389
 7911W        W11962   4.371   1.805   0.188
 7912W        W11963  10.399  11.078  10.554
 7913W        W11964   7.615   7.651   2.673
 7914W        W11965   6.387   6.156  11.431
 7915W        W11966   7.647   7.087   9.712
 7916W        W11967   3.616   6.638   1.190
 7917W        W11968  10.956   7.679   9.406
 7918W        W11969   8.624   2.722  11.514
 7919W        W11970   8.796  11.339   9.033
 7920W        W11971  10.289   4.599  11.336
 7921W        W11972   5.383   3.176   3.153
 7922W        W11973   8.875  11.411   1.732
 7923W        W11974   4.068   6.869   1.682
 7924W        W11975   9.823   6.136  11.273
 7925W        W11976   4.389   0.957   3.099
 7926W        W11977   4.073   9.103  11.815
 7927W        W11978   3.769   9.746   0.700
 7928W        W11979  10.964   2.404   9.707
 7929W        W11980   9.264   8.499   8.982
 7930W        W11981  10.032   7.111  11.506
 7931W        W11982   5.273   9.874  10.938
 7932W        W11983   2.658   4.931   0.207
 7933W        W11984   9.492  10.268  10.725
 7934W        W11985   6.609   7.168   4.011
 7935W        W11986   5.909   8.358  10.905
 7936W        W11987   1.387   4.259   3.104
 7937W        W11988   1.678   0.737   2.654
 7938W        W11989   8.653   1.222  10.265
 7939W        W11990   4.254   6.023   2.179
 7940W        W11991   3.318   9.563  10.593
 7941W        W11992  10.943   4.255   2.005
 7942W        W11993   8.909   0.671   3.535
 7943W        W11994   9.742   5.056   9.096
 7944W        W11995   6.687   1.785   1.913
 7945W        W11996   9.180   1.247   2.671
 7946W        W11997   2.754   8.077   0.391
 7947W        W11998   1.263   7.171   0.914
 7948W        W11999   4.858  10.762   8.480
 7949W        W12000  11.300   5.719   0.218
 7950W        W12001   1.288   2.239  11.712
 7951W        W12002   5.365   8.321   8.229
 7952W        W12003   5.854   9.049   2.787
 7953W        W12004   9.349   7.234  11.246
 7954W        W12005   3.533   4.665   9.528
 7955W        W12006  10.945   5.279   9.318
 7956W        W12007  11.456   6.564   8.854
 7957W        W12008   9.120  10.740  11.227
 7958W        W12009  10.641  10.865   0.888
 7959W        W12010  10.577   6.306   9.885
 7960W        W12011  10.458   8.865   0.573
 7961W        W12012   6.607   7.698   3.558
 7962W        W12013   5.066  10.956   0.958
 7963W        W12014   2.228   4.215   0.973
 7964W        W12015   8.114   3.233   2.094
 7965W        W12016  10.126   2.372  11.848
 7966W        W12017   9.097   1.243  10.536
 7967W        W12018   9.067   0.304   9.125
 7968W        W12019   4.688   7.455   2.419
 7969W        W12020   3.324  10.755   2.868
 7970W        W12021   7.615   1.884   1.526
 7971W        W12022   5.734  11.347  11.278
 7972W        W12023   5.655   2.308  10.239
 7973W        W12024   9.905   7.023  10.517
 7974W        W12025   6.038   3.201   9.672
 7975W        W12026   8.843   7.535   2.414
 7976W        W12027   9.376   7.149   1.325
 7977W        W12028   2.207   0.480   3.021
 7978W        W12029   2.919   1.522   1.332
 7979W        W12030   2.294   4.735   9.392
 7980W        W12031   9.208   8.265   9.423
 7981W        W12032   4.165   4.295   3.113
 7982W        W12033   9.455  11.261  10.768
 7983W        W12034   7.953   4.853   9.875
 7984W        W12035   1.251   6.464  10.702
 7985W        W12036   7.859   4.778   0.211
 7986W        W12037   2.037   7.090   1.361
 7987W        W12038   1.037   2.472  10.357
 7988W        W12039   0.909   0.843   2.685
 7989W        W12040   6.179   2.051   0.736
 7990W        W12041   2.756   6.142   2.289
 7991W        W12042  10.420   5.700   2.462
 7992W        W12043   9.915  10.445   0.728
 7993W        W12044   7.525   8.590  11.380
 7994W        W12045   4.462   2.490   1.949
 7995W        W12046  11.198  11.487   1.752
 7996W        W12047   9.600   0.986   9.062
 7997W        W12048   8.901   0.457   0.851
 7998W        W12049   1.362   6.130   1.441
 7999W        W12050   2.253   9.002   9.549
 8000W        W12051  10.442   8.088   1.011
 8001W        W12052   9.314  11.323   0.258
 8002W        W12053   6.648  10.474   2.034
 8003W        W12054   0.410   4.024  11.399
 8004W        W12055  10.107   4.706   8.329
 8005W        W12056  11.313   0.639   9.385
 8006W        W12057   1.801   7.223  11.299
 8007W        W12058   8.725   5.120   1.838
 8008W        W12059  10.050   5.540  10.137
 8009W        W12060   2.222   5.654   1.698
 8010W        W12061   4.110   4.549   4.077
 8011W        W12062   0.744   9.909   1.777
 8012W        W12063   9.369   6.689   1.568
 8013W        W12064   8.154   4.326  10.978
 8014W        W12065   5.993   5.305   3.139
 8015W        W12066   9.844   8.967   1.357
 8016W        W12067  10.153   0.765  11.035
 8017W        W12068   2.414   6.142   9.977
 8018W        W12069   6.100  10.287  11.770
 8019W        W12070   7.662   7.121  10.214
 8020W        W12071   9.405   0.746   3.365
 8021W        W12072   6.456   2.405   9.790
 8022W        W12073   7.569  10.311   2.230
 8023W        W12074   9.057   8.757   9.380
 8024W        W12075   8.616   3.358   0.815
 8025W        W12076   3.607   6.052  11.157
 8026W        W12077   7.088   2.762   3.253
 8027W        W12078   7.958   9.409   1.237
 8028W        W12079   0.305  10.012   2.721
 8029W        W12080   8.246  10.310   3.464
 8030W        W12081   1.827   1.173  10.888
 8031W        W12082   1.825   0.865  10.473
 8032W        W12083   5.137   4.345   8.800
 8033W        W12084   8.836  10.354   2.666
 8034W        W12085   0.816   6.198   3.417
 8035W        W12086   7.527   8.840  11.884
 8036W        W12087   5.970   1.994   3.533
 8037W        W12088   4.158  10.080   9.662
 8038W        W12089  11.317   0.819   0.435
 8039W        W12090   1.808   5.996   1.688
 8040W        W12091   6.468   2.858  10.799
 8041W        W12092   1.748   0.948   1.042
 8042W        W12093   0.292   7.339  10.300
 8043W        W12094   0.802  10.157   2.660
 8044W        W12095   8.390   5.523   0.304
 8045W        W12096   0.807   5.058   0.754
 8046W        W12097   6.520  10.365   3.033
 8047W        W12098   1.807   5.018   3.677
 8048W        W12099  11.106   2.652   3.512
 8049W        W12100   7.856   4.114  10.617
 8050W        W12101   9.579   5.465   8.611
 8051W        W12102   1.167   4.045   8.938
 8052W        W12103   9.393   5.605   2.356
 8053W        W12104   6.035  11.305  11.711
 8054W        W12105   0.865   6.853   0.916
 8055W        W12106   6.119   1.151  11.788
 8056W        W12107   8.197   1.446  10.426
 8057W        W12108   4.776   1.492   0.444
 8058W        W12109   3.692   2.178  10.602
 8059W        W12110   6.978   3.161   1.432
 8060W        W12111  11.003   2.314   3.116
 8061W        W12112   1.339   0.316  11.713
 8062W        W12113   0.838   4.242   0.183
 8063W        W12114   7.499   3.119   9.947
 8064W        W12115   9.870   7.207   9.492
 8065W        W12116  10.568   3.397  10.489
 8066W        W12117   0.799   7.517   0.300
 8067W        W12118   6.881   0.259   1.785
 8068W        W12119  11.123   8.083   2.262
 8069W        W12120   4.770   4.676   9.999
 8070W        W12121   4.334   1.284  11.484
 8071W        W12122  10.458   1.885  10.112
 8072W        W12123   1.191   7.039   3.462
 8073W        W12124   9.859   4.700  11.671
 8074W        W12125   3.121  10.497  11.652
 8075W        W12126   0.059   3.817  11.887
 8076W        W12127   3.827   6.664   3.803
 8077W        W12128   8.583   4.627   0.458
 8078W        W12129   1.904   1.780  11.462
 8079W        W12130   0.014  11.274   0.504
 8080W        W12131   1.235   3.222  10.868
 8081W        W12132   8.008   0.781  11.850
 8082W        W12133   9.606   7.696   9.504
 8083W        W12134   9.250   4.348   2.055
 8084W        W12135   6.140   1.280   9.452
 8085W        W12136   8.750   7.121   0.718
 8086W        W12137   4.929   1.243  11.035
 8087W        W12138   8.217   4.330   9.047
 8088W        W12139   8.837   0.296  10.569
 8089W        W12140   1.904  10.397  10.004
 8090W        W12141   5.523  10.473  11.186
 8091W        W12142   9.078   7.330   0.378
 8092W        W12143   8.392   9.161   0.323
 8093W        W12144   8.951   1.668  10.262
 8094W        W12145   0.390   5.074  11.258
 8095W        W12146   6.600  10.798   2.750
 8096W        W12147   5.882   5.503   0.321
 8097W        W12148   2.409   1.462   1.413
 8098W        W12149   0.790   2.760   0.299
 8099W        W12150   5.943   3.686   9.811
 8100W        W12151   3.565   5.048   2.764
 8101W        W12152   9.520   2.447   9.204
 8102W        W12153  11.395   7.156   2.606
 8103W        W12154   7.523   0.081  10.734
 8104W        W12155   0.319   1.697   2.880
 8105W        W12156   8.926   1.614   3.333
 8106W        W12157   7.060   1.160   1.645
 8107W        W12158   8.406   6.135   2.408
 8108W        W12159   6.934   8.603   0.089
 8109W        W12160  10.544  10.580  10.619
 8110W        W12161   9.136  10.338   9.904
 8111W        W12162   1.528   5.083   1.221
 8112W        W12163   6.846   5.944  10.893
 8113W        W12164   6.917   4.181  10.498
 8114W        W12165   1.836   2.676  10.418
 8115W        W12166   4.678   2.694  10.071
 8116W        W12167   6.492  10.002  10.470
 8117W        W12168   2.431   0.296   9.976
 8118W        W12169   3.764  10.358   3.366
 8119W        W12170   3.035   9.294   0.785
 8120W        W12171  11.114   0.752  10.386
 8121W        W12172   0.438   5.272   1.985
 8122W        W12173   3.598   5.747  10.293
 8123W        W12174   1.781   5.525   3.501
 8124W        W12175   5.236   2.137  10.525
 8125W        W12176   0.258   9.079  11.043
 8126W        W12177   8.142   7.351  10.437
 8127W        W12178   5.750  11.479   1.892
 8128W        W12179   5.945   0.733   9.882
 8129W        W12180   2.373   1.192  10.866
 8130W        W12181   1.719   3.869  11.870
 8131W        W12182   4.668   9.907   0.547
 8132W        W12183   9.379   3.315  10.269
 8133W        W12184   3.686   6.072   1.490
 8134W        W12185   2.937  11.050   0.594
 8135W        W12186   2.694   7.486  10.739
 8136W        W12187   5.989   1.745   3.089
 8137W        W12188   6.235   2.026   8.691
 8138W        W12189   2.014  10.433   2.429
 8139W        W12190   9.320   9.993   3.418
 8140W        W12191  10.478   9.907   9.094
 8141W        W12192   5.693   2.282  11.744
 8142W        W12193   6.754  10.408   0.185
 8143W        W12194   3.018   4.241   3.209
 8144W        W12195  10.055  11.004   1.672
 8145W        W12196   7.359   0.262   2.015
 8146W        W12197   7.789   6.235  11.058
 8147W        W12198   4.360   8.073  11.976
 8148W        W12199   6.386  11.218   9.566
 8149W        W12200   3.183   5.572   9.957
 8150W        W12201   5.332  10.385   9.223
 8151W        W12202   5.770   7.909   0.942
 8152W        W12203   0.655   6.593  10.042
 8153W        W12204   2.792   7.521   8.820
 8154W        W12205   2.139  10.469  11.580
 8155W        W12206   1.453   2.273   9.665
 8156W        W12207   1.443   3.835  10.215
 8157W        W12208   3.746   5.000   9.868
 8158W        W12209   8.011   3.553  12.000
 8159W        W12210   5.442  11.012   2.710
 8160W        W12211   7.913   6.743  11.017
 8161W        W12212   6.632  11.300   9.988
 8162W        W12213   8.395   6.250   1.906
 8163W        W12214  10.424   3.040   8.567
 8164W        W12215  10.765   5.684   9.590
 8165W        W12216  10.389   3.175   1.679
 8166W        W12217   7.801   3.146   0.829
 8167W        W12218   5.207   6.996   0.723
 8168W        W12219   0.472   9.866   9.182
 8169W        W12220   4.957   0.450   2.686
 8170W        W12221   1.788   1.749   3.564
 8171W        W12222   6.048   4.773  11.249
 8172W        W12223   3.746   9.291  10.756
 8173W        W12224   1.224   4.986  11.224
 8174W        W12225   9.854  11.201   2.259
 8175W        W12226   5.285  10.821   9.510
 8176W        W12227   9.852   9.951   0.916
 8177W        W12228   7.553  11.031   1.795
 8178W        W12229   3.805   0.872   2.229
 8179W        W12230   4.095   9.608   1.739
 8180W        W12231   4.001  10.520   8.738
 8181W        W12232   5.802  11.321   1.391
 8182W        W12233  10.135   0.766   1.649
 8183W        W12234   1.070   0.037   0.061
 8184W        W12235   0.044  10.459   0.767
 8185W        W12236   2.316   5.427  11.538
 8186W        W12237  10.328   9.978  10.106
 8187W        W12238   0.954  10.902  10.784
 8188W        W12239  10.499   8.638   9.581
 8189W        W12240   4.282   3.167   1.236
 8190W        W12241   9.079   6.038  10.913
 8191W        W12242   9.398   4.732   8.734
 8192W        W12243  11.004   7.780   9.911
 8193W        W12244   8.785   4.193   8.288
 8194W        W12245   1.309   6.609   1.655
 8195W        W12246   6.029   8.378   9.911
 8196W        W12247   9.134   4.618   9.584
 8197W        W12248   8.189   2.796   9.482
 8198W        W12249   7.691   2.949   1.331
 8199W        W12250   3.376   1.388   1.511
 8200W        W12251   7.166   9.181   9.548
 8201W        W12252   0.823   9.067   8.738
 8202W        W12253   6.303   8.697   0.449
 8203W        W12254   1.456  11.013  10.751
 8204W        W12255   1.784   3.724   2.117
 8205W        W12256   4.899   3.316   3.171
 8206W        W12257  11.447   9.353   2.285
 8207W        W12258   2.711  11.482   0.744
 8208W        W12259   1.415   8.096   0.567
 8209W        W12260   6.885   3.537   2.763
 8210W        W12261   5.691   2.201   0.758
 8211W        W12262   9.835   4.246   9.500
 8212W        W12263   3.311   6.251  11.533
 8213W        W12264   4.009   2.288  10.974
 8214W        W12265   9.365   3.654   0.455
 8215W        W12266   7.459   7.148  11.101
 8216W        W12267   1.983   9.589   2.509
 8217W        W12268   2.921   7.935   8.552
 8218W        W12269   6.666   5.290  11.566
 8219W        W12270  10.980   8.994  11.395
 8220W        W12271   2.679   3.680   2.548
 8221W        W12272   5.118   9.407   1.056
 8222W        W12273   4.585   6.374   8.281
 8223W        W12274  10.102   3.224  11.358
 8224W        W12275   7.914   2.650   0.936
 8225W        W12276   9.368   9.682  11.331
 8226W        W12277  10.489   1.834   0.181
 8227W        W12278   9.627   3.791  10.361
 8228W        W12279   8.430   3.199  11.393
 8229W        W12280  10.898   1.753   1.342
 8230W        W12281   2.520   6.185  11.895
 8231W        W12282   4.250   8.834   2.140
 8232W        W12283   0.423   4.546   1.218
 8233W        W12284   0.710   7.643  11.802
 8234W        W12285   4.485   0.239   2.660
 8235W        W12286   9.042   5.925   1.378
 8236W        W12287   0.474  10.260   3.152
 8237W        W12288   0.911   2.800   9.018
 8238W        W12289   9.127   0.753   8.863
 8239W        W12290   5.293   8.481   2.128
 8240W        W12291  10.332   2.724   1.928
 8241W        W12292  10.486  10.579   0.056
 8242W        W12293   4.930   6.734   8.656
 8243W        W12294   1.290   9.323  10.555
 8244W        W12295   2.659   6.041   2.784
 8245W        W12296   6.398   4.105   1.792
 8246W        W12297   1.651   0.394  10.451
 8247W        W12298   9.647   4.642   1.922
 8248W        W12299   5.663   0.411  10.161
 8249W        W12300   7.075  11.476   0.846
 8250W        W12301   1.489   6.548  10.256
 8251W        W12302   5.930   2.076   9.101
 8252W        W12303   9.046   2.962  11.766
 8253W        W12304   4.328   8.609   1.673
 8254W        W12305  10.369   0.952   0.463
 8255W        W12306   2.976   0.930   3.565
 8256W        W12307   4.417   3.589  11.970
 8257W        W12308   3.701   4.124  11.410
 8258W        W12309   0.190  10.345  11.950
 8259W        W12310   8.611  11.368  11.679
 8260W        W12311   6.607   4.812   1.571
 8261W        W12312   2.424   0.294  10.872
 8262W        W12313  10.603   6.608   3.484
 8263W        W12314   1.539   5.088   0.299
 8264W        W12315  11.059   7.976   1.350
 8265W        W12316   2.678   0.999   2.698
 8266W        W12317   6.591   1.086   2.943
 8267W        W12318   5.556   7.583  10.460
 8268W        W12319   8.390   5.712  10.537
 8269W        W12320   9.417   9.116   9.447
 8270W        W12321   5.190   4.248   9.982
 8271W        W12322   4.092   0.988   0.724
 8272W        W12323  10.605   5.129  10.366
 8273W        W12324  10.417   0.074   0.251
 8274W        W12325   8.994   0.808  10.281
 8275W        W12326   2.286   6.160   0.967
 8276W        W12327   1.868   4.088  11.435
 8277W        W12328   6.985   7.352   2.115
 8278W        W12329   1.060   7.411   9.854
 8279W        W12330   2.653   6.937  11.762
 8280W        W12331   3.100   6.281   2.904
 8281W        W12332  11.025  10.804   1.203
 8282W        W12333   9.845   3.692   9.032
 8283W        W12334   8.815   6.363  11.238
 8284W        W12335   6.052   4.180   1.432
 8285W        W12336   0.308   6.033   3.564
 8286W        W12337   5.019   2.199  10.986
 8287W        W12338  10.786   0.366  10.326
 8288W        W12339   8.395   5.751   9.018
 8289W        W12340   4.819   4.889  11.466
 8290W        W12341   4.784   7.466   1.411
 8291W        W12342   2.246   4.178  11.102
 8292W        W12343   7.259   5.037   0.289
 8293W        W12344   9.388   7.271   9.323
 8294W        W12345   6.811  10.033   8.609
 8295W        W12346   7.120   2.882  11.216
 8296W        W12347   1.886   0.043   1.489
 8297W        W12348   9.612  11.425   0.678
 8298W        W12349   4.408   7.012  11.325
 8299W        W12350   8.876   5.610   0.421
 8300W        W12351  11.238   6.242   0.975
 8301W        W12352   5.472   8.957  11.640
 8302W        W12353   7.428   5.301  11.458
 8303W        W12354   7.430   9.299  10.982
 8304W        W12355   1.030   9.088   0.914
 8305W        W12356   0.090   3.565   1.163
 8306W        W12357   8.095   5.202  12.000
 8307W        W12358  10.355   4.737   0.415
 8308W        W12359   5.937   0.006   0.889
 8309W        W12360   5.655   4.666   8.687
 8310W        W12361   5.517   3.841  11.879
 8311W        W12362   2.847   8.803  10.602
 8312W        W12363   5.187   4.570   2.704
 8313W        W12364  10.466   2.866   0.383
 8314W        W12365   3.851   5.349   2.100
 8315W        W12366  10.414  10.111  11.842
 8316W        W12367   3.357   3.896   0.522
 8317W        W12368   6.689   0.260   9.731
 8318W        W12369  10.824   8.166   9.539
 8319W        W12370   2.316  11.025   9.563
 8320W        W12371   6.504   8.456   0.858
 8321W        W12372   5.062   6.101  10.838
 8322W        W12373   8.267   4.848  10.998
 8323W        W12374   9.265   6.134   0.950
 8324W        W12375   7.533  10.782   8.718
 8325W        W12376   3.374   5.503   2.968
 8326W        W12377   9.877   1.241  10.034
 8327W        W12378   2.783   2.848   2.422
 8328W        W12379   4.393  10.431   1.488
 8329W        W12380   9.480   8.049   1.321
 8330W        W12381   3.889   6.555   0.736
 8331W        W12382   3.391   5.706   8.269
 8332W        W12383   6.912   6.186   0.733
 8333W        W12384   0.854   5.081   9.551
 8334W        W12385   9.781   6.231   1.850
 8335W        W12386   1.351   0.440   9.509
 8336W        W12387   5.179   7.992   0.499
 8337W        W12388  10.390   4.596   1.907
 8338W        W12389   9.481  11.473  10.244
 8339W        W12390   8.867  10.427   1.660
 8340W        W12391   1.948   6.633  10.498
 8341W        W12392   8.949   2.543   9.961
 8342W        W12393   8.496   9.833   9.329
 8343W        W12394  10.728   3.749  10.136
 8344W        W12395   3.387   0.668   3.241
 8345W        W12396   0.781   2.289   2.717
 8346W        W12397   9.273   8.378   3.594
 8347W        W12398   6.194   9.308  11.780
 8348W        W12399   1.103  11.404   2.229
 8349W        W12400   5.233   3.571   3.489
 8350W        W12401   0.238   9.102   2.620
 8351W        W12402   5.738   1.220   9.894
 8352W        W12403   1.729   4.539  10.079
 8353W        W12404   5.666   0.295   3.372
 8354W        W12405   4.551   2.694   9.134
 8355W        W12406   1.773   9.467  10.524
 8356W        W12407   7.665   6.437   3.399
 8357W        W12408   9.284   9.378   8.956
 8358W        W12409   5.120   4.593   1.718
 8359W        W12410   3.304   6.187   9.322
 8360W        W12411   7.829   4.605  11.256
 8361W        W12412   3.807   5.764   0.697
 8362W        W12413   1.247   5.927   3.487
 8363W        W12414   7.109   2.684  11.999
 8364W        W12415   1.793   7.272   3.906
 8365W        W12416   4.651   8.876  10.451
 8366W        W12417   9.040   1.638   1.928
 8367W        W12418   8.358   4.343   0.847
 8368W        W12419   2.694   0.255   1.722
 8369W        W12420  10.511   8.646   3.111
 8370W        W12421   1.449   7.127   2.414
 8371W        W12422   2.371   4.786   2.864
 8372W        W12423  10.449   5.818   9.967
 8373W        W12424   4.207   4.271   8.847
 8374W        W12425   1.949   4.636   1.084
 8375W        W12426   4.974   7.003   1.189
 8376W        W12427   2.396   1.859   2.181
 8377W        W12428   8.927   5.086  10.293
 8378W        W12429   4.122   5.296  10.088
 8379W        W12430   8.370   3.890   2.364
 8380W        W12431   9.366   9.305  10.912
 8381W        W12432   4.753   7.754   0.612
 8382W        W12433   1.400   4.581   1.212
 8383W        W12434   8.475   9.534  11.514
 8384W        W12435   2.153   1.475   3.302
 8385W        W12436   3.189   0.162   2.948
 8386W        W12437   7.521   8.512   9.341
 8387W        W12438   1.400   7.052  10.056
 8388W        W12439   8.509   0.319  11.433
 8389W        W12440   7.121  11.306   1.849
 8390W        W12441  11.446   4.863   9.057
 8391W        W12442   0.264   9.914  10.181
 8392W        W12443   5.081   1.695  10.763
 8393W        W12444   1.918   6.147   8.921
 8394W        W12445   7.148   0.014   9.038
 8395W        W12446   7.399   4.355  10.587
 8396W        W12447   2.772   3.284   9.257
 8397W        W12448   6.202   2.860   0.428
 8398W        W12449   8.516   0.117   0.951
 8399W        W12450   2.158   0.421  11.318
 8400W        W12451   3.279   3.823   9.618
 8401W        W12452   6.432   3.327  10.637
 8402W        W12453   0.339   9.518   1.987
 8403W        W12454   0.927   5.966   1.658
 8404W        W12455   1.328   0.947   9.583
 8405W        W12456   1.339   5.060  10.713
 8406W        W12457   7.534   0.284   9.670
 8407W        W12458   3.709   8.472   8.684
 8408W        W12459   4.159  10.959   0.771
 8409W        W12460   9.218   1.275   0.664
 8410W        W12461   2.297   5.266   2.500
 8411W        W12462   2.677   8.013   3.197
 8412W        W12463   6.166   3.479  11.168
 8413W        W12464   4.195   1.001   9.126
 8414W        W12465   5.971   7.270   3.190
 8415W        W12466  10.570   5.981  11.803
 8416W        W12467   3.296  11.479   8.736
 8417W        W12468   7.498   8.573   1.836
 8418W        W12469   1.201  10.507   0.483
 8419W        W12470   6.558   9.587  11.545
 8420W        W12471   9.116   2.476   0.704
 8421W        W12472   3.114   0.664  11.036
 8422W        W12473   8.504   0.723   8.947
 8423W        W12474   1.589   7.634   2.287
 8424W        W12475  11.446   6.570  10.474
 8425W        W12476   7.684   1.858   2.041
 8426W        W12477   7.161   1.228  11.763
 8427W        W12478   4.677   2.816   3.603
 8428W        W12479   6.770   0.364   8.931
 8429W        W12480   2.740   7.405   9.807
 8430W        W12481   0.382   4.989  10.741
 8431W        W12482  10.823  11.388  10.540
 8432W        W12483   1.445   3.312   2.933
 8433W        W12484  10.856   0.847   9.536
 8434W        W12485   8.512   2.441   9.008
 8435W        W12486   1.374   6.207   1.970
 8436W        W12487   7.822   6.117   8.828
 8437W        W12488   9.967   7.225   1.932
 8438W        W12489   9.568   3.840   8.566
 8439W        W12490   6.697   2.020   4.170
 8440W        W12491   2.920   8.388  11.924
 8441W        W12492   9.422   1.626   3.462
 8442W        W12493  10.777  10.135   1.028
 8443W        W12494   3.184   6.635   2.559
 8444W        W12495   4.701  10.313   1.884
 8445W        W12496   3.185  10.078   9.833
 8446W        W12497   6.020  11.055   2.000
 8447W        W12498   3.155   0.303   0.977
 8448ION    NA+12499   2.240   0.048   1.871
 8449ION    NA+12500   3.648   7.593   1.185
 8450ION    NA+12501   9.645   3.925  11.228
 8451ION    NA+12502   3.068   8.775   1.580
 8452ION    NA+12503   9.458   4.676  10.595
 8453ION    NA+12504   2.273   6.604   2.139
 8454ION    NA+12505   4.825   3.779  11.730
 8455ION    NA+12506   7.441   1.342   3.621
 8456ION    NA+12507  11.385   8.367  10.333
 8457ION    NA+12508   6.008   8.183   2.326
 8458ION    NA+12509   9.590   8.365  11.864
 8459ION    NA+12510   9.461   6.074   0.193
 8460ION    NA+12511   3.376   5.695   1.667
 8461ION    NA+12512   9.358   0.995  11.662
 8462ION    NA+12513   5.253   4.978   2.066
 8463ION    NA+12514  11.436   5.195  10.602
 8464ION    NA+12515   7.379   3.535   2.148
 8465ION    NA+12516   7.941  10.482   9.301
 8466ION    NA+12517   0.228   7.006   8.674
 8467ION    NA+12518   9.421   6.450   9.554
 8468ION    NA+12519   2.085   8.182   9.712
 8469ION    NA+12520   7.737   2.089   8.758
 8470ION    NA+12521   8.137   2.514   3.801
 8471ION    NA+12522   8.804  10.974   9.415
 8472ION    NA+12523   5.223   6.352  11.283
 8473ION    NA+12524   0.391   7.540   9.415
 8474ION    NA+12525   9.382  10.673   1.041
 8475ION    NA+12526   3.785   4.033  10.182
 8476ION    NA+12527   9.409   7.727  11.351
 8477ION    NA+12528   3.933   2.180   1.706
 8478ION    NA+12529   4.816   0.933   2.143
 8479ION    NA+12530   1.251   5.042  11.804
 8480ION    NA+12531   0.961  11.204   9.034
 8481ION    NA+12532   8.759   8.378  11.791
 8482ION    NA+12533   0.891   4.042   3.114
 8483ION    NA+12534   7.074   1.351   2.667
 8484ION    NA+12535   5.144   2.111  11.936
 8485ION    NA+12536   4.171   0.696  10.365
 8486ION    NA+12537  10.594   0.155   1.464
 8487ION    NA+12538   5.357   7.540   2.486
 8488ION    NA+12539  11.147   0.488   2.667
 8489ION    NA+12540   4.241   3.950   0.593
 8490ION    NA+12541   5.999   9.460   2.490
 8491ION    NA+12542   3.208   2.344   0.427
 8492ION    NA+12543   1.464   2.070   8.747
 8493ION    NA+12544   3.069   8.889  11.858
 8494ION    NA+12545   4.150   1.800   2.604
 8495ION    NA+12546   8.554   6.829   9.879
 8496ION    NA+12547   7.520   9.549   0.959
 8497ION    NA+12548   7.408   0.872   0.064
 8498ION    NA+12549   1.795   4.143   1.299
 8499ION    NA+12550   7.962   6.387  10.600
 8500ION    NA+12551   3.109   5.824   2.622
 8501ION    NA+12552   5.409   1.609   2.203
 8502ION    NA+12553   0.260   4.386  11.714
 8503ION    NA+12554   3.072   8.353   0.800
 8504ION    NA+12555   7.141   1.692   1.688
 8505ION    NA+12556   3.082  11.007   7.938
 8506ION    NA+12557   8.197   1.086   2.843
 8507ION    NA+12558   4.062   8.458   0.902
 8508ION    NA+12559   9.205   0.059   0.955
 8509ION    NA+12560   3.639   2.103   3.549
 8510ION    NA+12561   5.386  10.050  11.437
 8511ION    NA+12562   8.137   4.992   3.218
 8512ION    NA+12563  11.456   7.904  11.982
 8513ION    NA+12564   9.323   0.759   9.887
 8514ION    NA+12565  11.470  11.063  12.000
 8515ION    NA+12566  11.004   6.519  10.172
 8516ION    NA+12567   5.779   2.796   9.519
 8517ION    NA+12568   6.595   9.180   8.825
 8518ION    NA+12569   1.016   5.096   1.226
 8519ION    NA+12570   7.583   0.282  11.275
 8520ION    NA+12571   0.411   0.423   9.141
 8521ION    NA+12572   2.403   7.798   8.511
 8522ION    NA+12573   8.995   3.299   0.434
 8523ION    NA+12574   9.634   1.542   2.452
 8524ION    NA+12575  10.493   7.828   9.803
 8525ION    NA+12576  10.481   4.148   0.724
 8526ION    NA+12577   7.384   8.777   8.896
 8527ION    NA+12578   0.587   1.529  11.490
 8528ION    NA+12579   9.769  10.096  11.134
 8529ION    NA+12580  10.375  11.059   0.252
 8530ION    NA+12581   9.543   1.503   9.256
 8531ION    NA+12582   0.061   1.866  10.731
 8532ION    NA+12583   8.843   4.438   2.708
 8533ION    NA+12584   1.828  11.202   0.441
 8534ION    NA+12585   2.689   3.433  10.365
 8535ION    NA+12586   8.501   0.190   9.858
 8536ION    NA+12587   4.979   3.407   8.416
 8537ION    CL-12588   2.864   4.626   2.897
 8538ION    CL-12589   4.680   3.104   8.251
 8539ION    CL-12590   0.372   2.236   3.579
 8540ION    CL-12591   1.207  11.351  11.526
 8541ION    CL-12592  10.058   4.057   3.539
 8542ION    CL-12593  11.111  11.411  10.956
 8543ION    CL-12594   5.828  10.074  11.377
 8544ION    CL-12595   9.124   3.755  10.378
 8545ION    CL-12596   9.564  10.501  11.187
 8546ION    CL-12597   0.097   0.568  10.337
 8547ION    CL-12598   2.821   5.135  11.750
 8548ION    CL-12599   5.087   1.299   2.114
 8549ION    CL-12600   3.497  10.721   3.586
 8550ION    CL-12601  11.128   4.169   1.526
 8551ION    CL-12602   1.502   7.656  11.361
 8552ION    CL-12603   0.366   1.545  10.881
 8553ION    CL-12604   6.385   9.352   2.299
 8554ION    CL-12605   0.363  10.397  10.925
 8555ION    CL-12606   4.568   3.965  10.386
 8556ION    CL-12607   6.380   9.348  10.128
 8557ION    CL-12608   0.723   0.086   9.165
 8558ION    CL-12609   2.655   2.188  10.864
 8559ION    CL-12610   7.867   1.652   8.696
 8560ION    CL-12611   9.540   1.797   2.093
 8561ION    CL-12612   9.049   1.220  11.431
 8562ION    CL-12613   0.865   8.787  11.540
 8563ION    CL-12614   8.273   0.675   2.689
 8564ION    CL-12615   9.407  10.820   3.574
 8565ION    CL-12616  11.444   0.816   2.682
 8566ION    CL-12617   8.281   4.620  11.490
 8567ION    CL-12618   2.529   9.876   9.469
 8568ION    CL-12619   8.611   3.077   0.384
 8569ION    CL-12620   9.358   2.888   9.938
 8570ION    CL-12621   5.042   7.310   2.732
 8571ION    CL-12622   9.166   8.556  11.948
 8572ION    CL-12623   8.487   8.164  11.491
 8573ION    CL-12624   6.049   7.419   0.223
 8574ION    CL-12625  10.515   2.208   3.108
 8575ION    CL-12626  11.252   9.478   0.726
 8576ION    CL-12627   1.918   5.121   4.172
 8577ION    CL-12628   0.536   1.830  11.824
 8578ION    CL-12629   8.613  11.287   9.681
 8579ION    CL-12630   1.931  10.131   3.353
 8580ION    CL-12631   8.557   2.120  10.974
 8581ION    CL-12632  11.430   1.409   0.514
 8582ION    CL-12633   2.791  10.984   3.088
 8583ION    CL-12634   8.081   7.923  10.440
 8584ION    CL-12635  10.052   9.803  10.929
 8585ION    CL-12636   4.024  11.431   8.424
 8586ION    CL-12637   0.338   6.724   1.613
 8587ION    CL-12638   5.689   7.861   2.385
 8588ION    CL-12639   7.426   7.149   1.843
 8589ION    CL-12640   1.369   2.213   9.163
 8590ION    CL-12641   9.701   3.488  11.149
 8591ION    CL-12642   5.813  10.502   9.982
 8592ION    CL-12643   2.033  11.078   8.724
 8593ION    CL-12644   4.108   4.054   1.009
 8594ION    CL-12645   0.454  10.575   1.038
 8595ION    CL-12646   3.089   8.478   1.238
 8596ION    CL-12647   9.293  11.115   0.981
 8597ION    CL-12648  10.318   4.116   2.110
 8598ION    CL-12649  10.840   1.193  10.525
 8599ION    CL-12650   4.705   7.879   1.735
 8600ION    CL-12651   5.654   3.232  11.302
 8601ION    CL-12652  10.549   7.003   0.543
 8602ION    CL-12653   2.777   3.864  10.442
 8603ION    CL-12654   4.867   1.284   8.910
 8604ION    CL-12655  11.471   7.838   8.311
 8605ION    CL-12656   6.934   9.294  11.292
 8606ION    CL-12657  10.073   8.467   9.804
 8607ION    CL-12658   5.942   7.066   9.874
 8608ION    CL-12659   4.189   0.591   9.929
 8609ION    CL-12660   9.691   7.989  11.597
 8610ION    CL-12661   0.397   7.290   9.032
 8611ION    CL-12662   8.071   7.347   2.746
 8612ION    CL-12663   1.697   6.509   9.383
 8613ION    CL-12664   6.932   8.869   8.834
 8614ION    CL-12665   2.141  10.901   0.340
 8615ION    CL-12666   9.268   4.419   2.564
 8616ION    CL-12667   5.510   6.031  11.165
 8617ION    CL-12668   4.848   5.228  10.837
 8618ION    CL-12669   7.062   0.676   0.267
 8619ION    CL-12670   0.622   8.098   3.140
 8620ION    CL-12671  11.187   2.122  10.654
 8621ION    CL-12672   4.222   9.626   0.473
 8622ION    CL-12673   0.977  10.076   9.135
 8623ION    CL-12674   6.526   4.451  11.880
 8624ION    CL-12675   0.478   8.610   1.458
 8625ION    CL-12676   6.776   7.569  10.103
  11.50000  11.50000  12.00000
