Protein in INSANE! Membrane UpperLeaflet>POPC=1.0 LowerLeaflet>POPC=1.0
10365
    1AU     AUC    1   4.868   5.015   5.923
    1AU     AUC    2   5.392   4.870   5.834
    1AU     AUC    3   5.386   4.906   6.074
    1AU     AUC    4   4.795   5.233   5.897
    1AU     AUC    5   4.929   5.447   6.075
    1AU     AUC    6   5.188   5.336   6.060
    1AU     AUC    7   5.320   5.109   5.927
    1AU     AUC    8   4.858   5.014   5.917
    1AU     AUC    9   5.194   4.823   6.211
    1AU     AUC   10   4.949   5.162   6.115
    1AU     AUC   11   5.217   5.107   6.172
    1AU     AUC   12   4.874   5.005   5.897
    1AU     AUC   13   5.079   5.192   5.868
    1AU     AUC   14   5.451   4.881   5.806
    1AU     AUC   15   5.609   5.007   5.706
    1AU     AUC   16   5.410   4.918   6.094
    1AU     AUC   17   4.803   5.278   5.894
    1AU     AUC   18   4.790   5.318   5.913
    1AU     AUC   19   4.900   5.481   6.068
    1AU     AUC   20   5.182   5.345   6.059
    1AU     AUC   21   5.138   4.938   5.960
    1AU     AUC   22   5.148   4.945   5.956
    1AU     AUC   23   4.717   5.297   6.175
    1AU     AUC   24   5.184   4.824   6.233
    1AU     AUC   25   5.497   4.670   6.022
    1AU     AUC   26   4.959   5.173   6.127
    1AU     AUC   27   4.959   4.936   6.156
    1AU     AUC   28   5.209   5.096   6.183
    1AU     AUC   29   5.137   5.003   5.676
    1AU     AUC   30   5.069   5.182   5.839
    1AU     AUC   31   5.070   5.186   5.870
    1AU     AUC   32   5.424   4.929   6.127
    1AU     AUC   33   4.948   4.903   6.152
    1AU     AUC   34   5.385   4.875   5.805
    1AU     AUC   35   5.399   4.860   5.814
    1AU     AUC   36   4.951   5.188   6.121
    1AU     AUC   37   4.942   5.451   6.102
    1AU     AUC   38   4.953   4.953   5.681
    1AU     AUC   39   5.060   5.195   5.869
    1AU     AUC   40   5.339   5.120   5.917
    1AU     AUC   41   5.335   5.125   5.906
    1AU     AUC   42   4.782   5.275   5.901
    1AU     AUC   43   4.951   5.457   6.112
    1AU     AUC   44   5.599   5.015   5.920
    1AU     AUC   45   5.459   4.814   6.092
    1AU     AUC   46   4.957   5.439   5.804
    1AU     AUC   47   4.690   5.333   6.147
    1AU     AUC   48   5.221   5.113   6.188
    1AU     AUC   49   5.198   5.080   6.146
    1AU     AUC   50   4.928   5.189   6.141
    1AU     AUC   51   5.195   4.857   6.308
    1AU     AUC   52   5.168   5.329   6.029
    1AU     AUC   53   5.132   4.934   5.946
    1AU     AUC   54   5.000   4.963   5.707
    1AU     AUC   55   5.215   5.006   5.698
    1AU    AUSL   56   5.432   4.962   6.316
    1AU    AUSL   57   5.529   5.211   6.392
    1AU     AUL   58   5.495   4.938   6.414
    1AU       S   59   5.900   5.339   6.733
    1AU     LIG   60   5.569   5.438   7.351
    1AU     LIG   61   5.133   5.574   7.799
    1AU     LIG   62   4.696   5.366   7.917
    1AU       S   63   5.925   4.391   5.527
    1AU     LIG   64   6.319   4.507   5.326
    1AU     LIG   65   5.916   4.947   5.047
    1AU     LIG   66   5.607   5.233   4.866
    1AU    AUSL   67   5.548   5.282   5.886
    1AU    AUSL   68   5.302   5.370   5.816
    1AU     AUL   69   5.690   5.269   5.784
    1AU       S   70   5.846   4.554   5.256
    1AU     LIG   71   5.400   4.471   4.666
    1AU     LIG   72   5.084   4.159   4.497
    1AU     LIG   73   4.629   4.101   4.631
    1AU       S   74   5.179   4.857   6.864
    1AU     LIG   75   4.828   5.343   7.426
    1AU     LIG   76   4.568   5.682   7.535
    1AU     LIG   77   4.175   5.663   7.743
    1AU    AUSL   78   4.933   4.891   6.151
    1AU    AUSL   79   4.894   5.210   5.649
    1AU     AUL   80   4.938   4.676   5.636
    1AU       S   81   5.510   4.340   5.328
    1AU     LIG   82   4.925   4.502   4.821
    1AU     LIG   83   4.364   4.893   4.773
    1AU     LIG   84   4.184   5.494   4.934
    1AU       S   85   4.623   4.830   5.170
    1AU     LIG   86   5.031   5.319   4.895
    1AU     LIG   87   5.431   5.509   4.509
    1AU     LIG   88   5.907   5.548   4.631
    1AU    AUSL   89   5.596   4.785   5.561
    1AU    AUSL   90   5.298   4.582   6.197
    1AU     AUL   91   5.620   4.449   5.876
    1AU       S   92   5.855   5.378   5.291
    1AU     LIG   93   5.860   5.815   5.615
    1AU     LIG   94   5.646   6.075   5.995
    1AU     LIG   95   5.444   6.164   6.444
    1AU       S   96   4.724   4.513   6.720
    1AU     LIG   97   3.971   4.710   6.844
    1AU     LIG   98   3.637   5.292   6.872
    1AU     LIG   99   3.517   5.756   6.735
    1AU    AUSL  100   5.156   5.269   5.614
    1AU    AUSL  101   5.474   5.197   6.128
    1AU     AUL  102   5.185   5.278   5.597
    1AU       S  103   4.725   4.280   5.852
    1AU     LIG  104   5.170   3.810   6.401
    1AU     LIG  105   5.671   3.825   6.544
    1AU     LIG  106   5.926   4.218   6.561
    1AU       S  107   5.664   5.507   5.274
    1AU     LIG  108   6.288   5.222   5.137
    1AU     LIG  109   6.247   4.620   4.876
    1AU     LIG  110   6.166   4.108   5.093
    1AU    AUSL  111   5.020   5.106   5.440
    1AU    AUSL  112   4.953   4.750   5.886
    1AU     AUL  113   4.701   5.022   5.582
    1AU       S  114   5.133   4.373   6.813
    1AU     LIG  115   4.340   4.404   6.943
    1AU     LIG  116   3.995   5.084   7.110
    1AU     LIG  117   4.086   5.592   7.215
    1AU       S  118   5.414   5.546   5.191
    1AU     LIG  119   5.390   6.032   5.534
    1AU     LIG  120   5.177   6.291   5.929
    1AU     LIG  121   5.041   6.649   6.193
    1AU    AUSL  122   5.172   5.575   6.229
    1AU    AUSL  123   5.350   5.383   6.277
    1AU     AUL  124   5.618   5.426   6.208
    1AU       S  125   5.204   4.831   6.863
    1AU     LIG  126   5.398   4.403   7.283
    1AU     LIG  127   5.116   4.180   7.470
    1AU     LIG  128   4.750   3.917   7.525
    1AU       S  129   4.790   5.081   7.012
    1AU     LIG  130   4.560   4.522   7.383
    1AU     LIG  131   4.318   4.057   7.283
    1AU     LIG  132   4.308   3.911   6.804
    1AU    AUSL  133   5.240   4.700   5.978
    1AU    AUSL  134   4.932   5.723   6.123
    1AU     AUL  135   5.199   5.557   5.668
    1AU       S  136   4.708   6.245   6.351
    1AU     LIG  137   4.626   6.563   5.893
    1AU     LIG  138   4.531   6.697   5.414
    1AU     LIG  139   4.285   6.527   5.047
    1AU       S  140   5.408   4.238   6.500
    1AU     LIG  141   4.811   4.031   6.649
    1AU     LIG  142   4.616   3.663   6.454
    1AU     LIG  143   4.542   3.215   6.335
    1AU    AUSL  144   5.023   4.648   6.107
    1AU    AUSL  145   4.947   4.949   5.651
    1AU     AUL  146   4.959   4.725   5.929
    1AU       S  147   5.176   4.378   6.874
    1AU     LIG  148   5.570   4.090   6.951
    1AU     LIG  149   5.706   4.003   7.372
    1AU     LIG  150   5.954   4.243   7.682
    1AU       S  151   4.688   5.857   6.601
    1AU     LIG  152   5.184   5.889   6.884
    1AU     LIG  153   5.548   5.960   7.280
    1AU     LIG  154   5.988   5.694   7.243
    1AU    AUSL  155   5.091   5.327   6.316
    1AU    AUSL  156   4.597   5.055   5.843
    1AU     AUL  157   5.071   5.322   6.322
    1AU       S  158   4.242   4.979   5.813
    1AU     LIG  159   4.273   5.132   6.715
    1AU     LIG  160   4.373   5.231   7.349
    1AU     LIG  161   4.276   5.074   7.833
    1AU       S  162   5.441   4.846   7.222
    1AU     LIG  163   5.687   4.978   7.599
    1AU     LIG  164   5.608   5.369   7.874
    1AU     LIG  165   5.562   5.831   7.794
    1AU    AUSL  166   5.422   5.470   6.023
    1AU    AUSL  167   5.731   4.825   6.086
    1AU     AUL  168   5.772   5.240   6.053
    1AU       S  169   5.585   4.577   6.784
    1AU     LIG  170   6.256   4.814   6.445
    1AU     LIG  171   6.318   5.353   6.113
    1AU     LIG  172   6.405   5.374   5.617
    1AU       S  173   5.281   4.909   5.009
    1AU     LIG  174   5.265   5.032   4.535
    1AU     LIG  175   4.966   5.402   4.374
    1AU     LIG  176   5.007   5.875   4.325
    1AU    AUSL  177   5.718   5.019   5.664
    1AU    AUSL  178   5.709   4.789   5.813
    1AU     AUL  179   5.549   5.020   5.429
    1AU       S  180   5.452   4.718   5.052
    1AU     LIG  181   5.772   4.286   4.872
    1AU     LIG  182   5.907   4.486   4.507
    1AU     LIG  183   5.728   4.834   4.612
    1AU       S  184   6.158   4.908   5.473
    1AU     LIG  185   6.198   5.068   4.696
    1AU     LIG  186   5.893   5.160   4.295
    1AU     LIG  187   5.554   4.835   4.141
    1AU    AUSL  188   5.463   5.116   5.674
    1AU    AUSL  189   5.335   4.813   5.549
    1AU     AUL  190   5.432   5.202   5.646
    1AU       S  191   4.686   4.680   5.198
    1AU     LIG  192   4.818   4.948   4.701
    1AU     LIG  193   4.542   5.310   4.637
    1AU     LIG  194   3.949   5.076   4.943
    1AU       S  195   5.091   4.444   5.234
    1AU     LIG  196   4.470   4.196   6.202
    1AU     LIG  197   4.008   4.253   6.616
    1AU     LIG  198   3.591   4.381   6.883
    1AU    AUSL  199   4.702   5.598   6.214
    1AU    AUSL  200   4.827   5.313   6.449
    1AU     AUL  201   4.500   5.166   6.287
    1AU       S  202   4.706   5.191   6.994
    1AU     LIG  203   4.171   4.796   7.442
    1AU     LIG  204   3.935   4.409   7.277
    1AU     LIG  205   3.845   3.987   7.063
    1AU       S  206   4.047   5.266   6.100
    1AU     LIG  207   4.269   4.703   6.500
    1AU     LIG  208   4.410   4.836   7.054
    1AU     LIG  209   4.686   4.922   7.592
    1AU    AUSL  210   4.627   5.278   5.586
    1AU    AUSL  211   4.969   5.449   5.535
    1AU     AUL  212   4.488   5.483   5.810
    1AU       S  213   4.237   5.115   5.331
    1AU     LIG  214   4.118   4.593   5.035
    1AU     LIG  215   4.115   4.248   4.717
    1AU     LIG  216   3.798   3.938   4.542
    1AU       S  217   4.582   5.302   5.106
    1AU     LIG  218   4.090   5.269   4.533
    1AU     LIG  219   3.704   5.564   4.645
    1AU     LIG  220   3.482   5.975   4.838
    1AU    AUSL  221   4.701   5.537   5.956
    1AU    AUSL  222   4.895   5.681   5.844
    1AU     AUL  223   4.603   5.269   5.688
    1AU       S  224   4.181   5.891   5.735
    1AU     LIG  225   4.241   5.964   5.093
    1AU     LIG  226   4.647   5.792   4.760
    1AU     LIG  227   5.143   5.791   4.793
    1AU       S  228   4.267   5.594   5.398
    1AU     LIG  229   4.959   5.878   5.239
    1AU     LIG  230   5.259   6.185   5.086
    1AU     LIG  231   5.711   6.024   5.137
    1AU    AUSL  232   5.527   4.674   5.997
    1AU    AUSL  233   5.551   4.699   6.282
    1AU     AUL  234   5.677   4.727   5.826
    1AU       S  235   6.210   4.640   5.813
    1AU     LIG  236   6.632   4.840   5.538
    1AU     LIG  237   6.851   5.097   5.752
    1AU     LIG  238   6.892   4.662   6.003
    1AU       S  239   5.948   5.008   6.762
    1AU     LIG  240   6.419   5.094   6.828
    1AU     LIG  241   6.739   5.360   6.630
    1AU     LIG  242   6.630   5.775   6.478
    1AU    AUSL  243   5.871   5.000   5.912
    1AU    AUSL  244   5.609   5.029   5.962
    1AU     AUL  245   5.772   4.839   6.353
    1AU       S  246   6.265   4.933   5.857
    1AU     LIG  247   6.668   5.053   6.212
    1AU     LIG  248   6.915   5.479   6.147
    1AU     LIG  249   7.077   5.936   6.265
    1AU       S  250   4.707   4.297   5.792
    1AU     LIG  251   4.027   4.279   6.142
    1AU     LIG  252   3.635   4.527   6.398
    1AU     LIG  253   3.488   4.846   6.719
    1AU    AUSL  254   4.530   5.283   5.996
    1AU    AUSL  255   4.762   5.483   5.699
    1AU     AUL  256   4.722   5.535   5.670
    1AU       S  257   4.534   6.042   5.977
    1AU     LIG  258   3.968   6.138   6.172
    1AU     LIG  259   3.606   5.899   5.881
    1AU     LIG  260   3.387   5.496   5.818
    1AU       S  261   4.096   5.787   5.848
    1AU     LIG  262   3.865   6.300   5.746
    1AU     LIG  263   4.080   6.715   5.678
    1AU     LIG  264   4.076   6.917   5.314
    1AU    AUSL  265   4.468   5.522   6.099
    1AU    AUSL  266   4.714   5.327   6.209
    1AU     AUL  267   4.578   5.430   6.397
    1AU       S  268   4.325   5.922   6.365
    1AU     LIG  269   3.779   5.648   6.321
    1AU     LIG  270   3.480   5.217   6.230
    1AU     LIG  271   3.135   4.890   6.372
    1AU       S  272   4.053   5.697   5.943
    1AU     LIG  273   3.752   4.988   5.779
    1AU     LIG  274   3.812   4.079   5.776
    1AU     LIG  275   4.236   3.765   6.027
    1AU    AUSL  276   4.943   4.816   6.405
    1AU    AUSL  277   5.273   5.171   6.436
    1AU     AUL  278   5.271   5.100   6.476
    1AU       S  279   5.519   5.161   6.914
    1AU     LIG  280   5.884   4.731   7.150
    1AU     LIG  281   6.035   4.268   7.063
    1AU     LIG  282   6.202   3.853   6.805
    1AU       S  283   4.906   4.101   6.202
    1AU     LIG  284   5.510   3.889   6.077
    1AU     LIG  285   5.925   3.875   5.750
    1AU     LIG  286   6.359   3.825   5.499
    1AU    AUSL  287   5.165   4.745   5.735
    1AU    AUSL  288   5.104   4.515   5.855
    1AU     AUL  289   5.366   4.416   5.994
    1AU       S  290   4.703   3.874   5.669
    1AU     LIG  291   4.430   3.990   5.216
    1AU     LIG  292   4.024   3.852   5.019
    1AU     LIG  293   3.606   4.077   5.051
    1AU       S  294   4.316   4.651   5.477
    1AU     LIG  295   3.719   4.636   5.322
    1AU     LIG  296   3.402   4.335   5.565
    1AU     LIG  297   3.390   4.192   6.034
    1AU    AUSL  298   4.728   4.825   5.765
    1AU    AUSL  299   4.692   4.844   6.282
    1AU     AUL  300   4.727   4.796   5.760
    1AU       S  301   4.328   4.558   5.912
    1AU     LIG  302   3.803   4.529   5.784
    1AU     LIG  303   3.406   4.699   5.971
    1AU     LIG  304   3.100   5.047   5.896
    1AU       S  305   4.298   4.151   5.752
    1AU     LIG  306   3.977   4.758   6.145
    1AU     LIG  307   3.862   5.087   6.496
    1AU     LIG  308   4.051   5.563   6.716
    1AU    AUSL  309   5.048   5.228   6.583
    1AU    AUSL  310   5.669   5.050   6.227
    1AU     AUL  311   5.329   5.422   6.542
    1AU       S  312   5.137   5.373   7.057
    1AU     LIG  313   4.710   5.665   7.052
    1AU     LIG  314   4.374   5.960   6.990
    1AU     LIG  315   4.361   6.322   6.706
    1AU       S  316   6.045   5.264   6.523
    1AU     LIG  317   6.054   5.786   6.452
    1AU     LIG  318   5.953   6.280   6.343
    1AU     LIG  319   5.594   6.578   6.163
    1AU    AUSL  320   4.858   5.028   6.565
    1AU    AUSL  321   4.924   5.550   6.360
    1AU     AUL  322   5.038   5.471   6.557
    1AU       S  323   5.165   5.268   7.139
    1AU     LIG  324   5.602   5.656   6.918
    1AU     LIG  325   5.876   6.083   6.840
    1AU     LIG  326   6.272   6.390   6.732
    1AU       S  327   4.898   6.162   6.360
    1AU     LIG  328   4.829   6.184   6.950
    1AU     LIG  329   5.084   5.763   7.356
    1AU     LIG  330   5.227   5.157   7.595
    1AU    AUSL  331   5.318   4.726   6.431
    1AU    AUSL  332   4.725   4.792   6.028
    1AU     AUL  333   5.065   4.584   6.363
    1AU       S  334   5.118   4.026   5.799
    1AU     LIG  335   5.142   3.530   6.005
    1AU     LIG  336   5.462   3.391   6.409
    1AU     LIG  337   5.870   3.418   6.769
    1AU       S  338   4.990   4.752   7.251
    1AU     LIG  339   4.763   4.210   7.112
    1AU     LIG  340   4.668   3.708   7.062
    1AU     LIG  341   4.544   3.297   6.848
    1AU    AUSL  342   4.675   5.055   6.093
    1AU    AUSL  343   4.781   5.078   6.324
    1AU     AUL  344   4.804   4.608   6.239
    1AU       S  345   4.161   4.695   5.501
    1AU     LIG  346   4.014   4.225   5.361
    1AU     LIG  347   4.150   3.728   5.527
    1AU     LIG  348   4.505   3.416   5.729
    1AU       S  349   4.769   4.620   6.838
    1AU     LIG  350   5.113   3.924   6.999
    1AU     LIG  351   5.028   3.484   6.754
    1AU     LIG  352   5.044   3.104   6.425
    1AU    AUSL  353   5.030   5.067   6.371
    1AU    AUSL  354   5.174   5.590   5.937
    1AU     AUL  355   5.133   5.601   5.964
    1AU       S  356   4.052   5.323   5.663
    1AU     LIG  357   4.547   5.945   5.456
    1AU     LIG  358   4.866   6.296   5.516
    1AU     LIG  359   5.277   6.538   5.493
    1AU       S  360   4.658   5.532   5.177
    1AU     LIG  361   4.676   6.193   5.038
    1AU     LIG  362   4.923   6.610   5.120
    1AU     LIG  363   4.947   6.944   5.510
    1AU    AUSL  364   5.212   5.015   5.665
    1AU    AUSL  365   5.003   5.439   5.798
    1AU     AUL  366   5.280   5.067   5.448
    1AU       S  367   4.637   6.077   5.921
    1AU     LIG  368   4.274   6.307   5.511
    1AU     LIG  369   3.825   6.127   5.292
    1AU     LIG  370   3.571   5.740   5.330
    1AU       S  371   5.148   4.134   5.563
    1AU     LIG  372   5.071   3.641   5.458
    1AU     LIG  373   4.658   3.536   5.252
    1AU     LIG  374   4.483   3.659   4.848
    1AU    AUSL  375   5.376   4.585   5.779
    1AU    AUSL  376   5.091   4.831   5.461
    1AU     AUL  377   5.442   4.612   5.716
    1AU       S  378   5.354   4.030   5.644
    1AU     LIG  379   5.528   3.560   5.680
    1AU     LIG  380   5.494   3.125   5.500
    1AU     LIG  381   5.632   2.738   5.288
    1AU       S  382   4.696   4.300   5.466
    1AU     LIG  383   4.920   4.007   5.094
    1AU     LIG  384   5.360   3.908   4.883
    1AU     LIG  385   5.711   3.554   4.768
    2POPC   NC3  386   3.491   1.417   8.089
    2POPC   PO4  387   3.094   0.816   8.219
    2POPC   GL1  388   3.296   0.867   7.774
    2POPC   GL2  389   3.518   1.148   7.660
    2POPC   C1A  390   3.245   0.894   7.296
    2POPC   D2A  391   3.125   0.919   6.844
    2POPC   C3A  392   3.405   0.964   6.464
    2POPC   C4A  393   3.330   0.918   5.972
    2POPC   C1B  394   3.489   1.367   7.257
    2POPC   C2B  395   3.438   1.377   6.807
    2POPC   C3B  396   3.721   1.360   6.481
    2POPC   C4B  397   3.767   1.143   6.114
    3POPC   NC3  398   7.261   0.351   8.108
    3POPC   PO4  399   7.831   9.957   7.966
    3POPC   GL1  400   7.530   0.199   7.705
    3POPC   GL2  401   7.402   0.565   7.666
    3POPC   C1A  402   7.387   0.155   7.309
    3POPC   D2A  403   7.587   0.325   6.944
    3POPC   C3A  404   7.405   0.365   6.545
    3POPC   C4A  405   7.396   0.137   6.162
    3POPC   C1B  406   7.195   0.630   7.284
    3POPC   C2B  407   7.287   0.753   6.882
    3POPC   C3B  408   7.149   0.854   6.469
    3POPC   C4B  409   7.275   0.679   6.115
    4POPC   NC3  410   1.113   1.428   8.117
    4POPC   PO4  411   0.770   0.811   8.047
    4POPC   GL1  412   0.894   1.121   7.741
    4POPC   GL2  413   1.227   1.010   7.777
    4POPC   C1A  414   1.151   1.301   7.366
    4POPC   D2A  415   1.394   1.411   6.970
    4POPC   C3A  416   1.225   1.320   6.552
    4POPC   C4A  417   1.021   1.452   6.150
    4POPC   C1B  418   1.359   0.818   7.411
    4POPC   C2B  419   1.292   0.897   7.015
    4POPC   C3B  420   1.492   0.776   6.665
    4POPC   C4B  421   1.377   0.924   6.287
    5POPC   NC3  422   0.693   5.075   8.088
    5POPC   PO4  423   0.413   4.512   7.882
    5POPC   GL1  424   0.612   4.835   7.629
    5POPC   GL2  425   0.511   5.171   7.624
    5POPC   C1A  426   0.754   4.935   7.215
    5POPC   D2A  427   0.547   4.963   6.791
    5POPC   C3A  428   0.760   4.904   6.407
    5POPC   C4A  429   0.732   4.876   5.969
    5POPC   C1B  430   0.301   5.239   7.257
    5POPC   C2B  431   0.053   5.426   6.982
    5POPC   C3B  432   0.088   5.267   6.594
    5POPC   C4B  433   0.269   5.042   6.243
    6POPC   NC3  434   6.264   7.529   8.585
    6POPC   PO4  435   5.733   7.711   8.111
    6POPC   GL1  436   5.642   7.975   7.688
    6POPC   GL2  437   5.677   8.335   7.749
    6POPC   C1A  438   5.744   7.985   7.222
    6POPC   D2A  439   5.535   7.934   6.804
    6POPC   C3A  440   5.839   7.838   6.463
    6POPC   C4A  441   6.245   7.605   6.463
    6POPC   C1B  442   5.503   8.422   7.344
    6POPC   C2B  443   5.682   8.398   6.916
    6POPC   C3B  444   5.668   8.326   6.456
    6POPC   C4B  445   5.667   8.365   5.984
    7POPC   NC3  446   0.319   8.157   8.169
    7POPC   PO4  447   0.827   7.696   8.044
    7POPC   GL1  448   0.450   7.896   7.754
    7POPC   GL2  449   0.392   8.299   7.687
    7POPC   C1A  450   0.175   7.916   7.374
    7POPC   D2A  451   0.381   7.867   6.963
    7POPC   C3A  452   0.148   7.976   6.584
    7POPC   C4A  453   0.150   7.815   6.163
    7POPC   C1B  454   0.556   8.254   7.254
    7POPC   C2B  455   0.463   8.336   6.796
    7POPC   C3B  456   0.597   8.179   6.390
    7POPC   C4B  457   0.888   8.331   6.028
    8POPC   NC3  458   8.516   6.391   8.143
    8POPC   PO4  459   9.201   6.297   8.308
    8POPC   GL1  460   8.979   6.418   7.915
    8POPC   GL2  461   9.038   6.710   7.740
    8POPC   C1A  462   8.803   6.341   7.474
    8POPC   D2A  463   8.697   6.441   7.029
    8POPC   C3A  464   8.767   6.529   6.583
    8POPC   C4A  465   9.034   6.362   6.287
    8POPC   C1B  466   8.899   6.850   7.292
    8POPC   C2B  467   9.093   7.058   6.905
    8POPC   C3B  468   8.956   6.997   6.460
    8POPC   C4B  469   8.705   6.773   6.123
    9POPC   NC3  470   2.568   6.293   8.033
    9POPC   PO4  471   2.655   6.918   8.079
    9POPC   GL1  472   2.538   6.683   7.690
    9POPC   GL2  473   2.832   6.461   7.619
    9POPC   C1A  474   2.466   6.700   7.248
    9POPC   D2A  475   2.571   6.566   6.849
    9POPC   C3A  476   2.417   6.763   6.522
    9POPC   C4A  477   2.642   6.727   6.124
    9POPC   C1B  478   2.964   6.639   7.199
    9POPC   C2B  479   3.043   6.784   6.757
    9POPC   C3B  480   3.119   6.704   6.308
    9POPC   C4B  481   3.010   6.415   5.955
   10POPC   NC3  482   7.516   9.606   7.958
   10POPC   PO4  483   6.944   9.937   8.100
   10POPC   GL1  484   7.128   9.835   7.675
   10POPC   GL2  485   7.177   9.457   7.605
   10POPC   C1A  486   7.023   9.783   7.235
   10POPC   D2A  487   7.143   0.042   6.870
   10POPC   C3A  488   7.097   9.894   6.492
   10POPC   C4A  489   6.836   9.989   6.155
   10POPC   C1B  490   7.491   9.615   7.296
   10POPC   C2B  491   7.339   9.555   6.873
   10POPC   C3B  492   7.461   9.520   6.450
   10POPC   C4B  493   7.645   9.672   6.040
   11POPC   NC3  494   7.920   4.813   8.028
   11POPC   PO4  495   7.972   4.175   8.321
   11POPC   GL1  496   8.114   4.335   7.873
   11POPC   GL2  497   8.437   4.383   7.790
   11POPC   C1A  498   8.130   4.219   7.389
   11POPC   D2A  499   8.223   4.005   6.960
   11POPC   C3A  500   8.098   4.149   6.529
   11POPC   C4A  501   7.807   4.190   6.180
   11POPC   C1B  502   8.541   4.533   7.373
   11POPC   C2B  503   8.611   4.376   6.951
   11POPC   C3B  504   8.550   4.419   6.513
   11POPC   C4B  505   8.300   4.500   6.161
   12POPC   NC3  506   3.310   2.075   8.140
   12POPC   PO4  507   3.765   2.576   8.125
   12POPC   GL1  508   3.625   2.248   7.788
   12POPC   GL2  509   3.509   1.891   7.696
   12POPC   C1A  510   3.520   2.292   7.361
   12POPC   D2A  511   3.435   2.514   6.981
   12POPC   C3A  512   3.475   2.258   6.620
   12POPC   C4A  513   3.337   2.163   6.201
   12POPC   C1B  514   3.770   1.796   7.314
   12POPC   C2B  515   3.862   1.720   6.848
   12POPC   C3B  516   3.696   1.844   6.418
   12POPC   C4B  517   3.255   1.758   6.478
   13POPC   NC3  518   9.187   5.950   8.009
   13POPC   PO4  519   9.473   5.347   8.159
   13POPC   GL1  520   9.137   5.446   7.877
   13POPC   GL2  521   9.389   5.596   7.643
   13POPC   C1A  522   8.901   5.476   7.486
   13POPC   D2A  523   9.026   5.304   7.074
   13POPC   C3A  524   9.018   5.601   6.746
   13POPC   C4A  525   9.054   5.819   6.339
   13POPC   C1B  526   9.217   5.784   7.251
   13POPC   C2B  527   8.832   5.934   7.103
   13POPC   C3B  528   8.754   6.038   6.689
   13POPC   C4B  529   8.593   6.084   6.291
   14POPC   NC3  530   2.000   4.434   8.272
   14POPC   PO4  531   1.368   4.240   8.003
   14POPC   GL1  532   1.737   4.303   7.753
   14POPC   GL2  533   1.941   4.589   7.784
   14POPC   C1A  534   1.736   4.393   7.287
   14POPC   D2A  535   1.718   4.154   6.877
   14POPC   C3A  536   1.762   4.414   6.492
   14POPC   C4A  537   1.778   4.194   6.096
   14POPC   C1B  538   2.197   4.316   7.514
   14POPC   C2B  539   2.196   4.166   7.069
   14POPC   C3B  540   2.151   4.079   6.594
   14POPC   C4B  541   2.245   4.373   6.224
   15POPC   NC3  542   4.320   9.059   8.071
   15POPC   PO4  543   3.864   8.541   8.151
   15POPC   GL1  544   3.876   8.784   7.698
   15POPC   GL2  545   4.104   9.049   7.625
   15POPC   C1A  546   3.835   8.954   7.218
   15POPC   D2A  547   4.043   8.774   6.826
   15POPC   C3A  548   4.105   9.040   6.460
   15POPC   C4A  549   4.168   9.217   6.000
   15POPC   C1B  550   4.372   8.858   7.267
   15POPC   C2B  551   4.544   8.593   6.970
   15POPC   C3B  552   4.544   8.817   6.599
   15POPC   C4B  553   4.427   8.786   6.169
   16POPC   NC3  554   0.379   1.134   7.912
   16POPC   PO4  555   0.691   1.669   8.037
   16POPC   GL1  556   0.541   1.539   7.635
   16POPC   GL2  557   0.198   1.428   7.523
   16POPC   C1A  558   0.650   1.275   7.287
   16POPC   D2A  559   0.899   1.194   6.919
   16POPC   C3A  560   0.728   1.146   6.495
   16POPC   C4A  561   0.504   1.484   6.309
   16POPC   C1B  562   0.213   1.008   7.288
   16POPC   C2B  563   0.380   1.092   6.882
   16POPC   C3B  564   0.194   1.136   6.497
   16POPC   C4B  565   0.205   0.987   6.091
   17POPC   NC3  566   7.931   5.750   8.000
   17POPC   PO4  567   8.602   5.867   8.030
   17POPC   GL1  568   8.354   5.760   7.676
   17POPC   GL2  569   8.173   6.096   7.693
   17POPC   C1A  570   8.461   5.609   7.245
   17POPC   D2A  571   8.490   5.603   6.791
   17POPC   C3A  572   8.138   5.464   6.501
   17POPC   C4A  573   7.880   5.603   6.131
   17POPC   C1B  574   8.360   6.127   7.262
   17POPC   C2B  575   8.267   6.090   6.798
   17POPC   C3B  576   8.086   6.035   6.371
   17POPC   C4B  577   7.903   6.156   5.960
   18POPC   NC3  578   5.733   0.441   8.211
   18POPC   PO4  579   6.214   9.959   8.250
   18POPC   GL1  580   6.038   0.329   7.827
   18POPC   GL2  581   5.672   0.510   7.728
   18POPC   C1A  582   5.897   0.302   7.346
   18POPC   D2A  583   6.025   0.030   7.022
   18POPC   C3A  584   6.039   0.191   6.620
   18POPC   C4A  585   5.924   0.031   6.266
   18POPC   C1B  586   5.561   0.702   7.326
   18POPC   C2B  587   5.786   0.681   6.932
   18POPC   C3B  588   5.653   0.513   6.510
   18POPC   C4B  589   5.900   0.560   6.167
   19POPC   NC3  590   9.499   6.559   8.058
   19POPC   PO4  591   0.182   6.226   8.126
   19POPC   GL1  592   9.950   6.510   7.763
   19POPC   GL2  593   9.762   6.776   7.690
   19POPC   C1A  594   9.811   6.563   7.249
   19POPC   D2A  595   9.823   6.439   6.790
   19POPC   C3A  596   9.861   6.591   6.337
   19POPC   C4A  597   9.945   6.371   5.833
   19POPC   C1B  598   9.400   6.829   7.397
   19POPC   C2B  599   9.264   6.581   7.022
   19POPC   C3B  600   9.365   6.632   6.581
   19POPC   C4B  601   9.386   6.884   6.221
   20POPC   NC3  602   9.583   0.994   8.386
   20POPC   PO4  603   9.978   1.387   7.982
   20POPC   GL1  604   9.720   1.269   7.670
   20POPC   GL2  605   9.402   1.321   7.810
   20POPC   C1A  606   9.765   1.249   7.237
   20POPC   D2A  607   9.854   1.005   6.869
   20POPC   C3A  608   9.691   1.122   6.450
   20POPC   C4A  609   9.737   0.804   6.146
   20POPC   C1B  610   9.282   1.195   7.383
   20POPC   C2B  611   9.346   1.172   6.911
   20POPC   C3B  612   9.385   1.513   6.582
   20POPC   C4B  613   9.475   1.548   6.131
   21POPC   NC3  614   1.894   8.070   8.024
   21POPC   PO4  615   2.346   7.557   8.036
   21POPC   GL1  616   2.167   7.782   7.644
   21POPC   GL2  617   1.854   8.016   7.528
   21POPC   C1A  618   2.251   7.954   7.225
   21POPC   D2A  619   2.056   7.894   6.841
   21POPC   C3A  620   2.362   7.925   6.499
   21POPC   C4A  621   2.472   8.016   6.063
   21POPC   C1B  622   1.551   8.318   7.338
   21POPC   C2B  623   1.438   8.348   6.891
   21POPC   C3B  624   1.712   8.164   6.573
   21POPC   C4B  625   2.009   8.189   6.248
   22POPC   NC3  626   4.141   1.520   8.138
   22POPC   PO4  627   4.686   1.138   8.332
   22POPC   GL1  628   4.577   1.371   7.894
   22POPC   GL2  629   4.265   1.203   7.750
   22POPC   C1A  630   4.611   1.301   7.369
   22POPC   D2A  631   4.392   1.106   6.947
   22POPC   C3A  632   4.561   0.954   6.495
   22POPC   C4A  633   4.597   1.184   6.038
   22POPC   C1B  634   3.984   1.249   7.396
   22POPC   C2B  635   3.860   1.130   6.961
   22POPC   C3B  636   3.998   0.941   6.569
   22POPC   C4B  637   4.199   1.258   6.321
   23POPC   NC3  638   7.695   6.985   8.043
   23POPC   PO4  639   8.283   7.468   8.071
   23POPC   GL1  640   7.986   7.300   7.772
   23POPC   GL2  641   8.214   7.311   7.581
   23POPC   C1A  642   7.881   7.071   7.328
   23POPC   D2A  643   8.128   7.134   6.922
   23POPC   C3A  644   7.935   7.101   6.513
   23POPC   C4A  645   7.699   7.038   6.151
   23POPC   C1B  646   8.204   7.572   7.230
   23POPC   C2B  647   8.380   7.698   6.837
   23POPC   C3B  648   8.321   7.639   6.411
   23POPC   C4B  649   8.278   7.414   6.020
   24POPC   NC3  650   9.175   3.487   8.038
   24POPC   PO4  651   8.717   3.964   8.014
   24POPC   GL1  652   8.868   3.685   7.672
   24POPC   GL2  653   8.821   3.291   7.739
   24POPC   C1A  654   9.116   3.768   7.287
   24POPC   D2A  655   9.312   3.595   6.907
   24POPC   C3A  656   9.073   3.739   6.571
   24POPC   C4A  657   8.857   3.589   6.244
   24POPC   C1B  658   9.039   3.269   7.332
   24POPC   C2B  659   8.878   3.343   6.914
   24POPC   C3B  660   9.004   3.188   6.514
   24POPC   C4B  661   8.783   3.103   6.102
   25POPC   NC3  662   0.204   1.788   8.050
   25POPC   PO4  663   0.432   2.211   8.434
   25POPC   GL1  664   0.398   2.177   7.832
   25POPC   GL2  665   0.656   2.046   7.655
   25POPC   C1A  666   0.169   2.094   7.406
   25POPC   D2A  667   9.926   2.184   7.003
   25POPC   C3A  668   0.111   1.994   6.651
   25POPC   C4A  669   0.167   2.024   6.212
   25POPC   C1B  670   0.608   1.880   7.235
   25POPC   C2B  671   0.601   2.085   6.825
   25POPC   C3B  672   0.655   2.005   6.384
   25POPC   C4B  673   0.556   1.827   5.954
   26POPC   NC3  674   9.991   4.367   8.003
   26POPC   PO4  675   9.555   4.783   7.793
   26POPC   GL1  676   9.717   4.486   7.565
   26POPC   GL2  677   9.706   4.106   7.657
   26POPC   C1A  678   9.651   4.608   7.141
   26POPC   D2A  679   9.375   4.592   6.806
   26POPC   C3A  680   9.540   4.466   6.418
   26POPC   C4A  681   9.538   4.687   6.020
   26POPC   C1B  682   9.807   4.137   7.213
   26POPC   C2B  683   9.907   4.327   6.808
   26POPC   C3B  684   0.023   4.154   6.441
   26POPC   C4B  685   9.908   3.823   6.158
   27POPC   NC3  686   7.278   0.990   8.068
   27POPC   PO4  687   7.678   1.456   7.737
   27POPC   GL1  688   7.250   1.388   7.618
   27POPC   GL2  689   7.134   1.040   7.597
   27POPC   C1A  690   7.155   1.314   7.176
   27POPC   D2A  691   7.367   1.252   6.769
   27POPC   C3A  692   7.078   1.366   6.447
   27POPC   C4A  693   6.991   1.217   6.020
   27POPC   C1B  694   7.539   0.987   7.331
   27POPC   C2B  695   7.767   0.945   6.927
   27POPC   C3B  696   7.648   0.877   6.508
   27POPC   C4B  697   7.475   1.164   6.192
   28POPC   NC3  698   9.242   4.953   8.068
   28POPC   PO4  699   8.588   4.902   8.020
   28POPC   GL1  700   8.914   4.747   7.691
   28POPC   GL2  701   9.122   5.017   7.563
   28POPC   C1A  702   9.017   4.668   7.201
   28POPC   D2A  703   8.889   4.767   6.737
   28POPC   C3A  704   9.141   4.815   6.338
   28POPC   C4A  705   9.096   4.801   5.845
   28POPC   C1B  706   8.671   5.040   7.363
   28POPC   C2B  707   8.558   5.110   6.949
   28POPC   C3B  708   8.727   5.219   6.529
   28POPC   C4B  709   8.593   5.567   6.291
   29POPC   NC3  710   5.997   8.848   8.206
   29POPC   PO4  711   5.444   9.240   8.142
   29POPC   GL1  712   5.725   9.214   7.780
   29POPC   GL2  713   5.831   8.859   7.707
   29POPC   C1A  714   5.769   9.206   7.334
   29POPC   D2A  715   5.977   9.120   6.945
   29POPC   C3A  716   5.742   9.198   6.568
   29POPC   C4A  717   5.423   9.143   6.251
   29POPC   C1B  718   5.971   8.648   7.328
   29POPC   C2B  719   6.177   8.622   6.940
   29POPC   C3B  720   5.933   8.726   6.627
   29POPC   C4B  721   5.775   8.785   6.258
   30POPC   NC3  722   5.000   8.891   8.144
   30POPC   PO4  723   4.429   8.666   7.868
   30POPC   GL1  724   4.826   8.751   7.650
   30POPC   GL2  725   4.922   9.130   7.663
   30POPC   C1A  726   4.931   8.839   7.215
   30POPC   D2A  727   4.768   9.208   7.044
   30POPC   C3A  728   4.861   9.244   6.658
   30POPC   C4A  729   4.958   8.959   6.357
   30POPC   C1B  730   5.344   8.941   7.495
   30POPC   C2B  731   5.532   8.847   7.060
   30POPC   C3B  732   5.399   8.775   6.631
   30POPC   C4B  733   5.295   8.619   6.213
   31POPC   NC3  734   5.905   9.682   8.014
   31POPC   PO4  735   5.376   0.076   8.153
   31POPC   GL1  736   5.634   0.002   7.726
   31POPC   GL2  737   5.783   9.704   7.514
   31POPC   C1A  738   5.449   0.031   7.300
   31POPC   D2A  739   5.554   0.224   6.923
   31POPC   C3A  740   5.497   9.982   6.548
   31POPC   C4A  741   5.574   9.634   6.262
   31POPC   C1B  742   6.117   9.553   7.197
   31POPC   C2B  743   6.261   9.563   6.777
   31POPC   C3B  744   6.054   9.540   6.358
   31POPC   C4B  745   5.916   9.231   6.047
   32POPC   NC3  746   7.127   2.452   8.117
   32POPC   PO4  747   7.201   3.122   8.121
   32POPC   GL1  748   7.297   2.824   7.801
   32POPC   GL2  749   7.582   2.972   7.653
   32POPC   C1A  750   7.098   2.665   7.430
   32POPC   D2A  751   7.253   2.736   7.008
   32POPC   C3A  752   7.058   2.700   6.605
   32POPC   C4A  753   7.144   3.014   6.292
   32POPC   C1B  754   7.809   2.750   7.328
   32POPC   C2B  755   7.750   2.617   6.915
   32POPC   C3B  756   7.595   2.812   6.526
   32POPC   C4B  757   7.598   2.892   6.055
   33POPC   NC3  758   8.964   9.281   8.239
   33POPC   PO4  759   9.200   8.587   8.161
   33POPC   GL1  760   9.044   8.846   7.807
   33POPC   GL2  761   8.676   8.845   7.925
   33POPC   C1A  762   9.111   8.975   7.337
   33POPC   D2A  763   9.174   8.766   6.948
   33POPC   C3A  764   9.146   9.030   6.610
   33POPC   C4A  765   8.962   8.988   6.249
   33POPC   C1B  766   8.632   8.855   7.474
   33POPC   C2B  767   8.691   8.932   7.020
   33POPC   C3B  768   8.703   8.739   6.616
   33POPC   C4B  769   8.460   8.659   6.232
   34POPC   NC3  770   5.037   0.379   8.029
   34POPC   PO4  771   4.636   0.883   7.850
   34POPC   GL1  772   4.860   0.590   7.593
   34POPC   GL2  773   4.732   0.238   7.579
   34POPC   C1A  774   5.091   0.480   7.221
   34POPC   D2A  775   5.277   0.648   6.856
   34POPC   C3A  776   5.096   0.551   6.461
   34POPC   C4A  777   5.119   0.518   6.017
   34POPC   C1B  778   4.739   0.100   7.139
   34POPC   C2B  779   5.058   0.154   6.780
   34POPC   C3B  780   5.053   0.065   6.294
   34POPC   C4B  781   4.873   0.087   5.849
   35POPC   NC3  782   0.283   6.755   8.126
   35POPC   PO4  783   0.825   6.582   8.115
   35POPC   GL1  784   0.793   6.390   7.719
   35POPC   GL2  785   0.460   6.420   7.745
   35POPC   C1A  786   0.775   6.582   7.323
   35POPC   D2A  787   0.730   6.876   6.982
   35POPC   C3A  788   0.787   6.641   6.607
   35POPC   C4A  789   0.651   6.716   6.201
   35POPC   C1B  790   0.285   6.497   7.376
   35POPC   C2B  791   0.434   6.406   6.960
   35POPC   C3B  792   0.303   6.487   6.565
   35POPC   C4B  793   0.237   6.265   6.218
   36POPC   NC3  794   7.576   8.608   7.928
   36POPC   PO4  795   7.805   9.243   8.019
   36POPC   GL1  796   7.521   9.078   7.716
   36POPC   GL2  797   7.179   8.957   7.837
   36POPC   C1A  798   7.527   9.104   7.267
   36POPC   D2A  799   7.784   9.173   6.902
   36POPC   C3A  800   7.656   9.007   6.503
   36POPC   C4A  801   7.541   9.170   6.070
   36POPC   C1B  802   7.184   8.763   7.438
   36POPC   C2B  803   7.279   8.684   7.022
   36POPC   C3B  804   7.015   8.695   6.658
   36POPC   C4B  805   7.214   8.837   6.295
   37POPC   NC3  806   1.926   8.732   8.100
   37POPC   PO4  807   2.249   8.249   7.793
   37POPC   GL1  808   1.959   8.544   7.624
   37POPC   GL2  809   2.037   8.928   7.649
   37POPC   C1A  810   1.920   8.670   7.207
   37POPC   D2A  811   1.985   8.984   6.922
   37POPC   C3A  812   2.060   8.752   6.552
   37POPC   C4A  813   1.717   8.628   6.282
   37POPC   C1B  814   2.190   9.260   7.343
   37POPC   C2B  815   2.412   9.266   6.938
   37POPC   C3B  816   2.239   9.249   6.528
   37POPC   C4B  817   1.918   9.120   6.231
   38POPC   NC3  818   0.659   6.163   8.153
   38POPC   PO4  819   0.446   5.519   8.003
   38POPC   GL1  820   0.493   5.902   7.760
   38POPC   GL2  821   0.829   5.868   7.714
   38POPC   C1A  822   0.529   6.065   7.345
   38POPC   D2A  823   0.406   5.807   6.977
   38POPC   C3A  824   0.456   5.982   6.581
   38POPC   C4A  825   0.736   6.199   6.283
   38POPC   C1B  826   0.647   5.586   7.377
   38POPC   C2B  827   0.715   5.397   6.977
   38POPC   C3B  828   0.634   5.418   6.514
   38POPC   C4B  829   0.292   5.611   6.260
   39POPC   NC3  830   2.086   7.166   8.104
   39POPC   PO4  831   1.512   7.656   8.077
   39POPC   GL1  832   1.710   7.545   7.663
   39POPC   GL2  833   1.965   7.306   7.639
   39POPC   C1A  834   1.891   7.569   7.212
   39POPC   D2A  835   1.769   7.418   6.775
   39POPC   C3A  836   1.921   7.661   6.423
   39POPC   C4A  837   2.087   7.608   6.001
   39POPC   C1B  838   2.241   7.155   7.330
   39POPC   C2B  839   2.139   7.080   6.903
   39POPC   C3B  840   2.233   7.255   6.516
   39POPC   C4B  841   2.255   7.100   6.103
   40POPC   NC3  842   6.524   0.160   7.945
   40POPC   PO4  843   6.964   0.675   7.939
   40POPC   GL1  844   6.939   0.325   7.672
   40POPC   GL2  845   6.643   0.516   7.584
   40POPC   C1A  846   6.875   0.258   7.233
   40POPC   D2A  847   6.814   0.540   6.890
   40POPC   C3A  848   6.901   0.418   6.441
   40POPC   C4A  849   6.731   0.665   6.093
   40POPC   C1B  850   6.389   0.359   7.311
   40POPC   C2B  851   6.280   0.488   6.943
   40POPC   C3B  852   6.420   0.571   6.544
   40POPC   C4B  853   6.355   0.330   6.208
   41POPC   NC3  854   8.866   7.332   8.102
   41POPC   PO4  855   8.436   6.844   8.161
   41POPC   GL1  856   8.640   7.068   7.743
   41POPC   GL2  857   9.019   7.208   7.610
   41POPC   C1A  858   8.656   7.498   7.480
   41POPC   D2A  859   8.655   7.348   7.085
   41POPC   C3A  860   8.808   7.437   6.679
   41POPC   C4A  861   8.762   7.463   6.231
   41POPC   C1B  862   9.133   7.495   7.252
   41POPC   C2B  863   9.320   7.582   6.840
   41POPC   C3B  864   9.181   7.691   6.412
   41POPC   C4B  865   9.226   7.683   5.936
   42POPC   NC3  866   2.386   3.739   8.094
   42POPC   PO4  867   1.806   4.024   8.300
   42POPC   GL1  868   1.787   3.801   7.873
   42POPC   GL2  869   2.012   3.498   7.765
   42POPC   C1A  870   1.839   3.885   7.426
   42POPC   D2A  871   2.085   3.662   7.114
   42POPC   C3A  872   1.861   3.618   6.730
   42POPC   C4A  873   1.652   3.802   6.390
   42POPC   C1B  874   1.762   3.340   7.385
   42POPC   C2B  875   1.610   3.179   6.962
   42POPC   C3B  876   1.766   3.120   6.530
   42POPC   C4B  877   2.019   3.403   6.277
   43POPC   NC3  878   0.992   3.120   8.054
   43POPC   PO4  879   0.731   2.522   7.957
   43POPC   GL1  880   0.921   2.784   7.661
   43POPC   GL2  881   1.289   2.845   7.709
   43POPC   C1A  882   0.935   2.740   7.242
   43POPC   D2A  883   0.811   2.556   6.875
   43POPC   C3A  884   0.946   2.788   6.551
   43POPC   C4A  885   1.063   2.669   6.120
   43POPC   C1B  886   1.546   2.792   7.323
   43POPC   C2B  887   1.362   2.702   6.921
   43POPC   C3B  888   1.468   2.682   6.508
   43POPC   C4B  889   1.463   2.948   6.161
   44POPC   NC3  890   9.397   1.862   7.926
   44POPC   PO4  891   9.947   2.271   8.021
   44POPC   GL1  892   9.733   2.142   7.655
   44POPC   GL2  893   9.839   1.789   7.670
   44POPC   C1A  894   9.488   2.268   7.276
   44POPC   D2A  895   9.499   2.504   6.864
   44POPC   C3A  896   9.821   2.402   6.502
   44POPC   C4A  897   9.761   2.268   5.993
   44POPC   C1B  898   9.754   1.761   7.231
   44POPC   C2B  899   9.863   1.529   6.821
   44POPC   C3B  900   9.925   1.583   6.386
   44POPC   C4B  901   9.667   1.945   6.360
   45POPC   NC3  902   0.309   2.545   8.159
   45POPC   PO4  903   0.463   3.184   8.099
   45POPC   GL1  904   0.383   2.940   7.713
   45POPC   GL2  905   0.148   2.644   7.690
   45POPC   C1A  906   0.284   2.990   7.261
   45POPC   D2A  907   0.564   3.000   6.912
   45POPC   C3A  908   0.504   3.062   6.482
   45POPC   C4A  909   0.584   2.774   6.177
   45POPC   C1B  910   0.441   2.518   7.342
   45POPC   C2B  911   0.299   2.529   6.908
   45POPC   C3B  912   0.354   2.437   6.477
   45POPC   C4B  913   0.196   2.503   6.045
   46POPC   NC3  914   8.135   7.132   8.339
   46POPC   PO4  915   7.877   6.554   8.075
   46POPC   GL1  916   8.123   6.815   7.754
   46POPC   GL2  917   8.379   6.585   7.691
   46POPC   C1A  918   8.388   6.921   7.313
   46POPC   D2A  919   8.595   6.914   6.861
   46POPC   C3A  920   8.446   7.112   6.469
   46POPC   C4A  921   8.217   6.923   6.107
   46POPC   C1B  922   8.044   6.532   7.360
   46POPC   C2B  923   8.215   6.578   6.968
   46POPC   C3B  924   8.256   6.639   6.555
   46POPC   C4B  925   7.938   6.538   6.320
   47POPC   NC3  926   4.964   1.508   8.296
   47POPC   PO4  927   4.469   1.866   8.112
   47POPC   GL1  928   4.747   1.838   7.768
   47POPC   GL2  929   5.078   1.874   7.916
   47POPC   C1A  930   4.772   1.804   7.308
   47POPC   D2A  931   4.998   1.919   6.904
   47POPC   C3A  932   4.734   1.978   6.536
   47POPC   C4A  933   4.846   2.360   6.333
   47POPC   C1B  934   5.289   1.970   7.495
   47POPC   C2B  935   5.492   2.095   7.089
   47POPC   C3B  936   5.413   2.169   6.649
   47POPC   C4B  937   5.201   1.899   6.344
   48POPC   NC3  938   2.646   4.609   7.986
   48POPC   PO4  939   2.757   5.250   8.112
   48POPC   GL1  940   2.539   5.149   7.734
   48POPC   GL2  941   2.406   4.813   7.586
   48POPC   C1A  942   2.658   5.200   7.300
   48POPC   D2A  943   2.484   5.030   6.931
   48POPC   C3A  944   2.634   5.115   6.488
   48POPC   C4A  945   2.602   5.115   6.023
   48POPC   C1B  946   2.528   4.591   7.186
   48POPC   C2B  947   2.670   4.607   6.713
   48POPC   C3B  948   2.712   4.635   6.254
   48POPC   C4B  949   2.949   4.526   5.850
   49POPC   NC3  950   4.276   2.304   8.127
   49POPC   PO4  951   3.733   1.813   8.150
   49POPC   GL1  952   4.040   1.952   7.821
   49POPC   GL2  953   4.238   1.707   7.666
   49POPC   C1A  954   4.126   2.143   7.398
   49POPC   D2A  955   3.895   2.221   6.982
   49POPC   C3A  956   3.999   2.242   6.516
   49POPC   C4A  957   4.353   2.176   6.236
   49POPC   C1B  958   4.266   1.656   7.231
   49POPC   C2B  959   4.353   1.883   6.881
   49POPC   C3B  960   4.222   1.754   6.478
   49POPC   C4B  961   4.456   1.654   6.131
   50POPC   NC3  962   6.362   7.283   7.976
   50POPC   PO4  963   6.859   7.075   8.405
   50POPC   GL1  964   6.799   7.136   7.784
   50POPC   GL2  965   6.996   7.381   7.638
   50POPC   C1A  966   6.630   7.188   7.310
   50POPC   D2A  967   6.399   7.221   6.877
   50POPC   C3A  968   6.610   7.236   6.465
   50POPC   C4A  969   6.625   7.122   6.028
   50POPC   C1B  970   7.010   7.508   7.241
   50POPC   C2B  971   6.933   7.288   6.880
   50POPC   C3B  972   7.028   7.504   6.508
   50POPC   C4B  973   6.806   7.597   6.095
   51POPC   NC3  974   9.678   2.635   8.118
   51POPC   PO4  975   9.102   3.056   8.182
   51POPC   GL1  976   9.358   2.928   7.764
   51POPC   GL2  977   9.610   2.644   7.636
   51POPC   C1A  978   9.343   2.853   7.284
   51POPC   D2A  979   9.446   3.104   6.948
   51POPC   C3A  980   9.486   2.909   6.553
   51POPC   C4A  981   9.286   2.957   6.156
   51POPC   C1B  982   9.868   2.625   7.260
   51POPC   C2B  983   9.915   2.873   6.888
   51POPC   C3B  984   0.023   2.876   6.461
   51POPC   C4B  985   9.753   2.743   6.129
   52POPC   NC3  986   6.658   1.884   8.284
   52POPC   PO4  987   7.076   1.410   8.108
   52POPC   GL1  988   6.832   1.646   7.846
   52POPC   GL2  989   6.796   2.025   7.807
   52POPC   C1A  990   6.813   1.639   7.413
   52POPC   D2A  991   6.606   1.403   7.109
   52POPC   C3A  992   6.650   1.538   6.679
   52POPC   C4A  993   6.808   1.809   6.328
   52POPC   C1B  994   6.505   2.063   7.425
   52POPC   C2B  995   6.374   1.870   6.992
   52POPC   C3B  996   6.341   1.988   6.528
   52POPC   C4B  997   6.548   2.259   6.168
   53POPC   NC3  998   0.166   3.482   7.906
   53POPC   PO4  999   9.820   3.025   8.339
   53POPC   GL1 1000   9.848   3.072   7.852
   53POPC   GL2 1001   9.644   3.399   7.750
   53POPC   C1A 1002   9.802   3.120   7.371
   53POPC   D2A 1003   0.013   3.369   7.024
   53POPC   C3A 1004   9.791   3.345   6.635
   53POPC   C4A 1005   9.716   3.233   6.232
   53POPC   C1B 1006   9.656   3.635   7.306
   53POPC   C2B 1007   9.766   3.806   6.853
   53POPC   C3B 1008   9.549   3.946   6.496
   53POPC   C4B 1009   9.430   3.637   6.216
   54POPC   NC3 1010   6.967   8.767   8.437
   54POPC   PO4 1011   6.417   9.029   8.235
   54POPC   GL1 1012   6.389   8.903   7.780
   54POPC   GL2 1013   6.716   8.698   7.740
   54POPC   C1A 1014   6.321   9.045   7.321
   54POPC   D2A 1015   6.531   9.122   6.887
   54POPC   C3A 1016   6.270   9.103   6.523
   54POPC   C4A 1017   6.287   8.770   6.266
   54POPC   C1B 1018   6.809   9.092   7.508
   54POPC   C2B 1019   7.042   9.207   7.114
   54POPC   C3B 1020   7.064   9.192   6.645
   54POPC   C4B 1021   6.742   9.012   6.353
   55POPC   NC3 1022   9.699   0.313   7.855
   55POPC   PO4 1023   9.274   0.695   8.141
   55POPC   GL1 1024   9.512   0.785   7.717
   55POPC   GL2 1025   9.900   0.765   7.659
   55POPC   C1A 1026   9.556   0.780   7.254
   55POPC   D2A 1027   9.623   0.544   6.868
   55POPC   C3A 1028   9.386   0.729   6.544
   55POPC   C4A 1029   9.243   0.651   6.142
   55POPC   C1B 1030   9.926   0.441   7.286
   55POPC   C2B 1031   9.989   0.168   6.921
   55POPC   C3B 1032   9.977   0.387   6.520
   55POPC   C4B 1033   9.627   0.321   6.283
   56POPC   NC3 1034   0.057   5.789   7.998
   56POPC   PO4 1035   9.517   6.164   7.757
   56POPC   GL1 1036   9.967   6.050   7.572
   56POPC   GL2 1037   0.116   5.696   7.485
   56POPC   C1A 1038   0.045   6.111   7.145
   56POPC   D2A 1039   9.926   5.904   6.771
   56POPC   C3A 1040   9.572   6.063   6.521
   56POPC   C4A 1041   9.797   5.998   6.161
   56POPC   C1B 1042   9.722   5.730   7.243
   56POPC   C2B 1043   9.535   5.572   6.862
   56POPC   C3B 1044   9.676   5.563   6.432
   56POPC   C4B 1045   9.428   5.648   6.048
   57POPC   NC3 1046   8.129   9.583   8.031
   57POPC   PO4 1047   8.624   0.045   7.908
   57POPC   GL1 1048   8.260   9.890   7.623
   57POPC   GL2 1049   8.338   9.515   7.577
   57POPC   C1A 1050   7.891   0.012   7.314
   57POPC   D2A 1051   7.750   9.836   6.899
   57POPC   C3A 1052   7.816   9.943   6.458
   57POPC   C4A 1053   8.129   9.850   6.137
   57POPC   C1B 1054   8.049   9.524   7.225
   57POPC   C2B 1055   8.143   9.511   6.777
   57POPC   C3B 1056   7.956   9.422   6.369
   57POPC   C4B 1057   8.062   9.383   5.910
   58POPC   NC3 1058   3.776   7.531   8.022
   58POPC   PO4 1059   3.654   6.958   8.051
   58POPC   GL1 1060   3.819   7.207   7.626
   58POPC   GL2 1061   3.623   7.512   7.497
   58POPC   C1A 1062   3.878   7.293   7.131
   58POPC   D2A 1063   3.627   7.482   6.797
   58POPC   C3A 1064   3.437   7.179   6.551
   58POPC   C4A 1065   3.517   7.014   6.158
   58POPC   C1B 1066   3.302   7.656   7.188
   58POPC   C2B 1067   3.149   7.695   6.743
   58POPC   C3B 1068   3.336   7.642   6.332
   58POPC   C4B 1069   3.740   7.538   6.164
   59POPC   NC3 1070   8.799   2.238   7.855
   59POPC   PO4 1071   9.006   1.618   8.006
   59POPC   GL1 1072   9.040   1.619   7.561
   59POPC   GL2 1073   8.736   1.799   7.539
   59POPC   C1A 1074   9.257   1.650   7.133
   59POPC   D2A 1075   9.446   1.972   6.842
   59POPC   C3A 1076   9.178   1.995   6.470
   59POPC   C4A 1077   9.004   1.684   6.229
   59POPC   C1B 1078   9.006   2.074   7.268
   59POPC   C2B 1079   8.956   2.233   6.862
   59POPC   C3B 1080   8.669   2.052   6.569
   59POPC   C4B 1081   8.515   1.751   6.293
   60POPC   NC3 1082   6.696   1.128   8.130
   60POPC   PO4 1083   6.067   0.799   8.146
   60POPC   GL1 1084   6.370   0.900   7.782
   60POPC   GL2 1085   6.610   1.168   7.627
   60POPC   C1A 1086   6.272   0.852   7.331
   60POPC   D2A 1087   6.377   0.985   6.910
   60POPC   C3A 1088   6.088   0.949   6.590
   60POPC   C4A 1089   6.253   0.935   6.191
   60POPC   C1B 1090   6.776   0.933   7.260
   60POPC   C2B 1091   6.874   1.055   6.839
   60POPC   C3B 1092   6.668   1.048   6.456
   60POPC   C4B 1093   6.519   1.377   6.196
   61POPC   NC3 1094   0.947   4.103   7.879
   61POPC   PO4 1095   0.993   4.689   8.109
   61POPC   GL1 1096   1.022   4.542   7.657
   61POPC   GL2 1097   1.282   4.325   7.529
   61POPC   C1A 1098   0.907   4.414   7.213
   61POPC   D2A 1099   0.927   4.606   6.842
   61POPC   C3A 1100   0.850   4.409   6.467
   61POPC   C4A 1101   1.009   4.434   6.029
   61POPC   C1B 1102   1.302   4.081   7.172
   61POPC   C2B 1103   1.215   4.159   6.742
   61POPC   C3B 1104   1.329   4.201   6.338
   61POPC   C4B 1105   1.337   3.967   5.963
   62POPC   NC3 1106   7.603   3.331   8.149
   62POPC   PO4 1107   7.110   3.797   7.984
   62POPC   GL1 1108   7.399   3.566   7.751
   62POPC   GL2 1109   7.171   3.295   7.632
   62POPC   C1A 1110   7.636   3.409   7.407
   62POPC   D2A 1111   7.577   3.137   7.061
   62POPC   C3A 1112   7.609   3.312   6.648
   62POPC   C4A 1113   7.548   3.333   6.262
   62POPC   C1B 1114   7.156   3.595   7.306
   62POPC   C2B 1115   7.314   3.607   6.918
   62POPC   C3B 1116   7.118   3.454   6.551
   62POPC   C4B 1117   7.123   3.594   6.139
   63POPC   NC3 1118   1.871   2.898   8.159
   63POPC   PO4 1119   2.451   3.274   8.152
   63POPC   GL1 1120   2.317   3.039   7.755
   63POPC   GL2 1121   2.085   2.745   7.719
   63POPC   C1A 1122   2.186   3.044   7.294
   63POPC   D2A 1123   2.125   3.203   6.884
   63POPC   C3A 1124   2.265   2.976   6.513
   63POPC   C4A 1125   2.161   2.932   6.079
   63POPC   C1B 1126   2.035   2.561   7.312
   63POPC   C2B 1127   1.910   2.736   6.900
   63POPC   C3B 1128   1.985   2.549   6.503
   63POPC   C4B 1129   1.807   2.578   6.098
   64POPC   NC3 1130   8.013   7.806   7.883
   64POPC   PO4 1131   8.226   8.392   8.245
   64POPC   GL1 1132   8.345   8.459   7.783
   64POPC   GL2 1133   8.313   8.112   7.601
   64POPC   C1A 1134   8.295   8.504   7.304
   64POPC   D2A 1135   8.389   8.172   7.030
   64POPC   C3A 1136   8.393   8.321   6.638
   64POPC   C4A 1137   8.388   8.153   6.251
   64POPC   C1B 1138   7.962   8.034   7.268
   64POPC   C2B 1139   7.886   7.813   6.875
   64POPC   C3B 1140   7.946   7.994   6.492
   64POPC   C4B 1141   8.009   7.879   6.079
   65POPC   NC3 1142   4.225   9.802   8.109
   65POPC   PO4 1143   4.738   9.305   8.152
   65POPC   GL1 1144   4.461   9.454   7.785
   65POPC   GL2 1145   4.404   9.819   7.640
   65POPC   C1A 1146   4.406   9.357   7.361
   65POPC   D2A 1147   4.462   9.638   7.007
   65POPC   C3A 1148   4.391   9.438   6.587
   65POPC   C4A 1149   4.610   9.302   6.212
   65POPC   C1B 1150   4.057   9.697   7.427
   65POPC   C2B 1151   3.957   9.758   6.999
   65POPC   C3B 1152   4.201   9.909   6.622
   65POPC   C4B 1153   4.073   9.795   6.176
   66POPC   NC3 1154   2.073   1.260   8.046
   66POPC   PO4 1155   1.582   0.849   8.105
   66POPC   GL1 1156   1.764   1.006   7.731
   66POPC   GL2 1157   2.123   0.982   7.611
   66POPC   C1A 1158   1.675   1.214   7.366
   66POPC   D2A 1159   1.776   1.057   6.979
   66POPC   C3A 1160   1.738   1.210   6.562
   66POPC   C4A 1161   2.007   1.118   6.221
   66POPC   C1B 1162   2.173   1.297   7.263
   66POPC   C2B 1163   2.149   1.375   6.808
   66POPC   C3B 1164   2.072   1.613   6.427
   66POPC   C4B 1165   1.985   1.618   5.977
   67POPC   NC3 1166   7.315   4.207   7.996
   67POPC   PO4 1167   7.456   4.787   7.978
   67POPC   GL1 1168   7.672   4.492   7.665
   67POPC   GL2 1169   7.714   4.083   7.683
   67POPC   C1A 1170   7.673   4.387   7.216
   67POPC   D2A 1171   7.691   4.151   6.830
   67POPC   C3A 1172   7.456   4.363   6.501
   67POPC   C4A 1173   7.413   4.561   6.094
   67POPC   C1B 1174   7.547   3.915   7.296
   67POPC   C2B 1175   7.210   4.095   7.005
   67POPC   C3B 1176   7.151   3.970   6.571
   67POPC   C4B 1177   7.526   3.814   6.438
   68POPC   NC3 1178   2.089   5.423   8.152
   68POPC   PO4 1179   2.245   4.810   8.160
   68POPC   GL1 1180   2.035   5.088   7.791
   68POPC   GL2 1181   1.713   5.036   7.654
   68POPC   C1A 1182   2.159   5.212   7.367
   68POPC   D2A 1183   2.068   5.363   6.961
   68POPC   C3A 1184   2.102   5.076   6.618
   68POPC   C4A 1185   2.215   4.885   6.244
   68POPC   C1B 1186   1.729   4.975   7.210
   68POPC   C2B 1187   1.612   5.114   6.802
   68POPC   C3B 1188   1.666   4.959   6.385
   68POPC   C4B 1189   1.798   4.706   6.023
   69POPC   NC3 1190   7.908   2.786   7.989
   69POPC   PO4 1191   8.442   2.443   8.031
   69POPC   GL1 1192   8.365   2.699   7.692
   69POPC   GL2 1193   8.188   3.019   7.640
   69POPC   C1A 1194   8.310   2.606   7.268
   69POPC   D2A 1195   8.444   2.471   6.859
   69POPC   C3A 1196   8.126   2.620   6.569
   69POPC   C4A 1197   7.896   2.538   6.205
   69POPC   C1B 1198   8.096   3.194   7.251
   69POPC   C2B 1199   8.028   3.099   6.820
   69POPC   C3B 1200   8.018   3.118   6.390
   69POPC   C4B 1201   8.281   2.892   6.143
   70POPC   NC3 1202   1.109   7.316   8.096
   70POPC   PO4 1203   1.662   6.803   8.122
   70POPC   GL1 1204   1.498   7.078   7.692
   70POPC   GL2 1205   1.221   7.366   7.618
   70POPC   C1A 1206   1.478   7.277   7.210
   70POPC   D2A 1207   1.214   7.146   6.852
   70POPC   C3A 1208   1.379   7.266   6.431
   70POPC   C4A 1209   1.769   7.230   6.212
   70POPC   C1B 1210   0.983   7.484   7.219
   70POPC   C2B 1211   0.952   7.560   6.761
   70POPC   C3B 1212   0.855   7.232   6.434
   70POPC   C4B 1213   0.990   7.276   5.995
   71POPC   NC3 1214   0.721   9.662   8.165
   71POPC   PO4 1215   1.293   9.254   8.079
   71POPC   GL1 1216   1.340   9.425   7.670
   71POPC   GL2 1217   1.013   9.593   7.676
   71POPC   C1A 1218   1.240   9.335   7.216
   71POPC   D2A 1219   0.967   9.162   6.873
   71POPC   C3A 1220   1.046   9.369   6.471
   71POPC   C4A 1221   0.934   9.299   6.051
   71POPC   C1B 1222   1.261   9.819   7.372
   71POPC   C2B 1223   1.271   9.900   6.955
   71POPC   C3B 1224   0.943   0.018   6.700
   71POPC   C4B 1225   0.882   9.886   6.312
   72POPC   NC3 1226   6.719   6.779   8.104
   72POPC   PO4 1227   6.204   6.912   7.737
   72POPC   GL1 1228   6.571   6.734   7.536
   72POPC   GL2 1229   6.841   6.528   7.667
   72POPC   C1A 1230   6.530   6.721   7.084
   72POPC   D2A 1231   6.728   6.793   6.716
   72POPC   C3A 1232   6.459   6.741   6.374
   72POPC   C4A 1233   6.305   6.718   5.936
   72POPC   C1B 1234   6.864   6.357   7.215
   72POPC   C2B 1235   6.767   6.251   6.750
   72POPC   C3B 1236   6.596   6.255   6.306
   72POPC   C4B 1237   6.594   6.256   5.842
   73POPC   NC3 1238   7.514   6.312   7.922
   73POPC   PO4 1239   7.174   6.854   7.973
   73POPC   GL1 1240   7.222   6.842   7.581
   73POPC   GL2 1241   7.583   6.743   7.619
   73POPC   C1A 1242   7.022   6.843   7.168
   73POPC   D2A 1243   7.177   6.564   6.835
   73POPC   C3A 1244   7.037   6.503   6.391
   73POPC   C4A 1245   6.831   6.663   6.040
   73POPC   C1B 1246   7.552   6.687   7.199
   73POPC   C2B 1247   7.761   6.740   6.827
   73POPC   C3B 1248   7.510   6.695   6.477
   73POPC   C4B 1249   7.488   6.292   6.240
   74POPC   NC3 1250   6.172   2.684   7.994
   74POPC   PO4 1251   6.672   2.339   8.210
   74POPC   GL1 1252   6.706   2.573   7.799
   74POPC   GL2 1253   6.794   2.935   7.793
   74POPC   C1A 1254   6.522   2.620   7.375
   74POPC   D2A 1255   6.484   2.377   6.973
   74POPC   C3A 1256   6.349   2.533   6.551
   74POPC   C4A 1257   6.032   2.650   6.227
   74POPC   C1B 1258   6.792   3.063   7.336
   74POPC   C2B 1259   6.641   2.895   6.929
   74POPC   C3B 1260   6.623   2.978   6.488
   74POPC   C4B 1261   6.713   2.751   6.129
   75POPC   NC3 1262   3.551   0.541   8.122
   75POPC   PO4 1263   3.887   1.111   8.099
   75POPC   GL1 1264   3.906   0.818   7.735
   75POPC   GL2 1265   3.735   0.498   7.655
   75POPC   C1A 1266   3.963   0.729   7.276
   75POPC   D2A 1267   3.603   0.685   6.982
   75POPC   C3A 1268   3.670   0.522   6.594
   75POPC   C4A 1269   3.739   0.659   6.194
   75POPC   C1B 1270   3.319   0.414   7.470
   75POPC   C2B 1271   3.183   0.387   7.042
   75POPC   C3B 1272   3.233   0.234   6.627
   75POPC   C4B 1273   3.236   0.519   6.279
   76POPC   NC3 1274   2.464   2.093   8.141
   76POPC   PO4 1275   2.993   2.477   8.258
   76POPC   GL1 1276   3.057   2.342   7.766
   76POPC   GL2 1277   2.808   2.066   7.739
   76POPC   C1A 1278   3.003   2.187   7.279
   76POPC   D2A 1279   2.711   2.087   6.900
   76POPC   C3A 1280   2.856   2.116   6.452
   76POPC   C4A 1281   2.873   2.111   5.984
   76POPC   C1B 1282   2.714   1.774   7.395
   76POPC   C2B 1283   2.502   1.642   7.035
   76POPC   C3B 1284   2.575   1.647   6.576
   76POPC   C4B 1285   2.852   1.650   6.189
   77POPC   NC3 1286   1.441   4.689   7.949
   77POPC   PO4 1287   1.418   5.287   7.973
   77POPC   GL1 1288   1.168   5.037   7.682
   77POPC   GL2 1289   1.003   5.334   7.619
   77POPC   C1A 1290   1.262   4.769   7.277
   77POPC   D2A 1291   1.449   4.608   6.887
   77POPC   C3A 1292   1.260   4.696   6.470
   77POPC   C4A 1293   1.254   4.881   6.044
   77POPC   C1B 1294   1.268   5.262   7.235
   77POPC   C2B 1295   1.112   5.070   6.854
   77POPC   C3B 1296   1.162   5.218   6.454
   77POPC   C4B 1297   1.416   5.363   6.136
   78POPC   NC3 1298   8.027   0.908   8.163
   78POPC   PO4 1299   8.010   1.554   8.185
   78POPC   GL1 1300   8.114   1.234   7.795
   78POPC   GL2 1301   8.413   1.217   7.687
   78POPC   C1A 1302   8.066   1.077   7.325
   78POPC   D2A 1303   8.312   1.082   6.915
   78POPC   C3A 1304   8.160   0.889   6.508
   78POPC   C4A 1305   7.930   0.961   6.075
   78POPC   C1B 1306   8.313   1.529   7.351
   78POPC   C2B 1307   7.988   1.502   7.001
   78POPC   C3B 1308   7.895   1.340   6.573
   78POPC   C4B 1309   8.210   1.346   6.231
   79POPC   NC3 1310   1.964   0.601   8.063
   79POPC   PO4 1311   1.957   9.964   8.078
   79POPC   GL1 1312   1.801   0.196   7.713
   79POPC   GL2 1313   1.619   0.518   7.712
   79POPC   C1A 1314   1.964   0.157   7.306
   79POPC   D2A 1315   2.201   0.218   6.942
   79POPC   C3A 1316   1.939   0.189   6.580
   79POPC   C4A 1317   2.068   0.219   6.182
   79POPC   C1B 1318   1.859   0.664   7.325
   79POPC   C2B 1319   2.158   0.737   6.948
   79POPC   C3B 1320   2.009   0.708   6.521
   79POPC   C4B 1321   1.686   0.532   6.247
   80POPC   NC3 1322   5.145   9.612   8.191
   80POPC   PO4 1323   4.626   0.083   8.064
   80POPC   GL1 1324   4.861   9.783   7.820
   80POPC   GL2 1325   5.141   9.908   7.701
   80POPC   C1A 1326   4.829   9.624   7.397
   80POPC   D2A 1327   5.009   9.687   6.997
   80POPC   C3A 1328   4.779   9.760   6.622
   80POPC   C4A 1329   4.601   9.820   6.215
   80POPC   C1B 1330   5.308   9.491   7.510
   80POPC   C2B 1331   5.290   9.283   7.092
   80POPC   C3B 1332   5.314   9.460   6.661
   80POPC   C4B 1333   5.072   9.524   6.272
   81POPC   NC3 1334   1.044   8.839   8.070
   81POPC   PO4 1335   1.547   8.390   8.020
   81POPC   GL1 1336   1.521   8.841   7.790
   81POPC   GL2 1337   1.190   8.953   7.611
   81POPC   C1A 1338   1.627   9.048   7.385
   81POPC   D2A 1339   1.360   8.837   7.065
   81POPC   C3A 1340   1.348   8.820   6.605
   81POPC   C4A 1341   1.395   9.069   6.203
   81POPC   C1B 1342   0.993   8.660   7.379
   81POPC   C2B 1343   0.882   8.593   6.974
   81POPC   C3B 1344   0.730   8.754   6.618
   81POPC   C4B 1345   0.963   8.798   6.261
   82POPC   NC3 1346   9.502   8.934   8.078
   82POPC   PO4 1347   9.963   8.468   8.153
   82POPC   GL1 1348   9.882   8.702   7.784
   82POPC   GL2 1349   9.565   8.515   7.771
   82POPC   C1A 1350   0.006   8.933   7.369
   82POPC   D2A 1351   9.959   9.207   6.975
   82POPC   C3A 1352   9.861   9.004   6.562
   82POPC   C4A 1353   9.846   8.762   6.121
   82POPC   C1B 1354   9.538   8.704   7.366
   82POPC   C2B 1355   9.672   8.721   6.942
   82POPC   C3B 1356   9.477   8.688   6.477
   82POPC   C4B 1357   9.464   9.099   6.168
   83POPC   NC3 1358   2.522   5.625   7.968
   83POPC   PO4 1359   1.926   5.777   8.376
   83POPC   GL1 1360   1.812   5.756   7.851
   83POPC   GL2 1361   2.087   5.605   7.668
   83POPC   C1A 1362   1.858   5.995   7.422
   83POPC   D2A 1363   2.161   6.076   7.057
   83POPC   C3A 1364   2.142   5.825   6.670
   83POPC   C4A 1365   1.806   5.980   6.399
   83POPC   C1B 1366   1.727   5.501   7.367
   83POPC   C2B 1367   1.653   5.632   6.916
   83POPC   C3B 1368   1.814   5.474   6.483
   83POPC   C4B 1369   2.254   5.441   6.290
   84POPC   NC3 1370   7.415   5.239   8.010
   84POPC   PO4 1371   7.501   5.857   7.903
   84POPC   GL1 1372   7.694   5.465   7.613
   84POPC   GL2 1373   7.718   5.064   7.618
   84POPC   C1A 1374   7.663   5.293   7.161
   84POPC   D2A 1375   7.668   5.357   6.688
   84POPC   C3A 1376   7.403   5.508   6.317
   84POPC   C4A 1377   7.455   5.393   5.854
   84POPC   C1B 1378   7.458   4.842   7.326
   84POPC   C2B 1379   7.410   4.693   6.904
   84POPC   C3B 1380   7.466   4.893   6.520
   84POPC   C4B 1381   7.714   5.117   6.235
   85POPC   NC3 1382   1.243   6.652   8.263
   85POPC   PO4 1383   0.702   7.078   8.169
   85POPC   GL1 1384   0.967   6.927   7.761
   85POPC   GL2 1385   1.221   6.652   7.771
   85POPC   C1A 1386   1.169   6.897   7.321
   85POPC   D2A 1387   1.205   6.620   6.944
   85POPC   C3A 1388   1.269   6.762   6.512
   85POPC   C4A 1389   1.117   6.534   6.159
   85POPC   C1B 1390   1.532   6.546   7.492
   85POPC   C2B 1391   1.632   6.394   7.108
   85POPC   C3B 1392   1.648   6.402   6.681
   85POPC   C4B 1393   1.604   6.475   6.269
   86POPC   NC3 1394   0.324   8.747   8.093
   86POPC   PO4 1395   0.363   9.352   8.062
   86POPC   GL1 1396   0.725   9.173   7.819
   86POPC   GL2 1397   0.648   8.823   7.704
   86POPC   C1A 1398   0.782   9.177   7.368
   86POPC   D2A 1399   0.467   9.234   7.050
   86POPC   C3A 1400   0.386   9.153   6.631
   86POPC   C4A 1401   0.543   9.062   6.242
   86POPC   C1B 1402   0.478   8.755   7.276
   86POPC   C2B 1403   0.200   8.753   6.903
   86POPC   C3B 1404   0.248   8.685   6.447
   86POPC   C4B 1405   0.471   8.577   6.105
   87POPC   NC3 1406   0.419   7.433   8.082
   87POPC   PO4 1407   9.896   7.014   8.123
   87POPC   GL1 1408   0.109   7.158   7.750
   87POPC   GL2 1409   0.024   7.517   7.677
   87POPC   C1A 1410   0.306   6.996   7.359
   87POPC   D2A 1411   0.165   6.844   6.952
   87POPC   C3A 1412   0.381   6.995   6.574
   87POPC   C4A 1413   0.351   7.241   6.215
   87POPC   C1B 1414   0.421   7.484   7.383
   87POPC   C2B 1415   0.481   7.362   6.930
   87POPC   C3B 1416   0.503   7.610   6.526
   87POPC   C4B 1417   0.839   7.739   6.251
   88POPC   NC3 1418   8.199   0.311   7.938
   88POPC   PO4 1419   7.637   0.657   8.121
   88POPC   GL1 1420   7.876   0.737   7.712
   88POPC   GL2 1421   8.231   0.691   7.592
   88POPC   C1A 1422   7.840   0.558   7.310
   88POPC   D2A 1423   8.113   0.573   6.944
   88POPC   C3A 1424   7.939   0.423   6.589
   88POPC   C4A 1425   7.763   0.489   6.194
   88POPC   C1B 1426   8.328   0.311   7.318
   88POPC   C2B 1427   8.254   0.015   6.960
   88POPC   C3B 1428   8.341   0.070   6.534
   88POPC   C4B 1429   8.271   0.396   6.205
   89POPC   NC3 1430   5.019   1.058   8.011
   89POPC   PO4 1431   5.424   1.575   8.159
   89POPC   GL1 1432   5.378   1.514   7.686
   89POPC   GL2 1433   5.041   1.420   7.659
   89POPC   C1A 1434   5.203   1.543   7.205
   89POPC   D2A 1435   4.801   1.454   6.905
   89POPC   C3A 1436   4.884   1.486   6.449
   89POPC   C4A 1437   5.342   1.392   6.342
   89POPC   C1B 1438   5.113   1.052   7.383
   89POPC   C2B 1439   4.900   0.958   7.034
   89POPC   C3B 1440   5.043   1.042   6.628
   89POPC   C4B 1441   5.011   0.989   6.215
   90POPC   NC3 1442   5.315   7.916   8.071
   90POPC   PO4 1443   4.856   8.436   8.223
   90POPC   GL1 1444   4.793   8.247   7.789
   90POPC   GL2 1445   5.158   8.257   7.702
   90POPC   C1A 1446   4.845   8.315   7.310
   90POPC   D2A 1447   5.152   8.386   6.963
   90POPC   C3A 1448   4.944   8.489   6.589
   90POPC   C4A 1449   4.741   8.244   6.294
   90POPC   C1B 1450   5.239   7.964   7.346
   90POPC   C2B 1451   5.033   7.758   7.007
   90POPC   C3B 1452   4.951   7.844   6.606
   90POPC   C4B 1453   5.233   8.098   6.423
   91POPC   NC3 1454   9.621   7.505   8.139
   91POPC   PO4 1455   9.236   7.078   8.034
   91POPC   GL1 1456   9.552   7.223   7.724
   91POPC   GL2 1457   9.452   7.517   7.647
   91POPC   C1A 1458   9.790   7.166   7.324
   91POPC   D2A 1459   9.637   6.944   6.943
   91POPC   C3A 1460   9.564   7.184   6.588
   91POPC   C4A 1461   9.850   7.106   6.241
   91POPC   C1B 1462   9.662   7.711   7.298
   91POPC   C2B 1463   9.935   7.628   6.959
   91POPC   C3B 1464   9.990   7.492   6.545
   91POPC   C4B 1465   9.658   7.587   6.256
   92POPC   NC3 1466   7.879   1.847   7.854
   92POPC   PO4 1467   7.606   2.437   7.944
   92POPC   GL1 1468   7.963   2.371   7.647
   92POPC   GL2 1469   8.297   2.166   7.631
   92POPC   C1A 1470   7.972   2.217   7.225
   92POPC   D2A 1471   7.727   1.976   6.941
   92POPC   C3A 1472   7.714   2.222   6.579
   92POPC   C4A 1473   7.669   2.067   6.192
   92POPC   C1B 1474   8.478   2.097   7.214
   92POPC   C2B 1475   8.249   1.931   6.860
   92POPC   C3B 1476   8.041   1.831   6.482
   92POPC   C4B 1477   8.216   2.156   6.245
   93POPC   NC3 1478   1.224   8.023   8.036
   93POPC   PO4 1479   0.706   8.492   8.091
   93POPC   GL1 1480   0.905   8.251   7.685
   93POPC   GL2 1481   0.974   7.867   7.600
   93POPC   C1A 1482   1.064   8.178   7.228
   93POPC   D2A 1483   0.906   8.072   6.831
   93POPC   C3A 1484   1.057   8.354   6.534
   93POPC   C4A 1485   1.351   8.281   6.247
   93POPC   C1B 1486   1.381   7.798   7.360
   93POPC   C2B 1487   1.441   7.806   6.905
   93POPC   C3B 1488   1.363   7.791   6.446
   93POPC   C4B 1489   1.638   7.889   6.086
   94POPC   NC3 1490   0.785   2.117   8.156
   94POPC   PO4 1491   1.390   1.806   8.185
   94POPC   GL1 1492   1.125   1.881   7.810
   94POPC   GL2 1493   1.123   2.251   7.761
   94POPC   C1A 1494   1.113   1.844   7.327
   94POPC   D2A 1495   0.984   1.714   6.871
   94POPC   C3A 1496   1.220   1.826   6.464
   94POPC   C4A 1497   1.038   1.964   6.054
   94POPC   C1B 1498   1.261   2.352   7.340
   94POPC   C2B 1499   1.173   2.201   6.916
   94POPC   C3B 1500   1.089   2.306   6.493
   94POPC   C4B 1501   1.404   2.289   6.175
   95POPC   NC3 1502   8.263   3.876   8.095
   95POPC   PO4 1503   8.049   3.223   8.089
   95POPC   GL1 1504   8.005   3.516   7.769
   95POPC   GL2 1505   8.364   3.530   7.725
   95POPC   C1A 1506   8.055   3.709   7.357
   95POPC   D2A 1507   7.841   3.622   6.982
   95POPC   C3A 1508   8.028   3.636   6.604
   95POPC   C4A 1509   7.946   3.639   6.226
   95POPC   C1B 1510   8.544   3.509   7.316
   95POPC   C2B 1511   8.374   3.493   6.932
   95POPC   C3B 1512   8.473   3.357   6.525
   95POPC   C4B 1513   8.372   3.430   6.098
   96POPC   NC3 1514   8.149   8.852   8.131
   96POPC   PO4 1515   7.865   8.259   7.866
   96POPC   GL1 1516   7.929   8.700   7.599
   96POPC   GL2 1517   8.167   9.012   7.665
   96POPC   C1A 1518   7.801   8.672   7.170
   96POPC   D2A 1519   7.908   8.361   6.856
   96POPC   C3A 1520   7.946   8.523   6.432
   96POPC   C4A 1521   7.654   8.665   6.098
   96POPC   C1B 1522   8.195   9.019   7.232
   96POPC   C2B 1523   8.218   8.790   6.860
   96POPC   C3B 1524   8.253   9.026   6.520
   96POPC   C4B 1525   8.047   8.960   6.170
   97POPC   NC3 1526   3.399   8.263   8.109
   97POPC   PO4 1527   3.341   7.607   7.896
   97POPC   GL1 1528   3.677   7.958   7.758
   97POPC   GL2 1529   3.620   8.330   7.675
   97POPC   C1A 1530   3.835   8.017   7.339
   97POPC   D2A 1531   3.653   7.953   6.964
   97POPC   C3A 1532   3.855   7.997   6.600
   97POPC   C4A 1533   3.638   8.042   6.257
   97POPC   C1B 1534   3.340   8.131   7.407
   97POPC   C2B 1535   3.182   8.127   7.007
   97POPC   C3B 1536   3.303   8.188   6.596
   97POPC   C4B 1537   3.230   8.333   6.172
   98POPC   NC3 1538   2.300   9.659   8.069
   98POPC   PO4 1539   2.941   9.955   8.106
   98POPC   GL1 1540   2.899   9.634   7.756
   98POPC   GL2 1541   2.562   9.512   7.652
   98POPC   C1A 1542   3.026   9.691   7.316
   98POPC   D2A 1543   2.790   9.611   6.949
   98POPC   C3A 1544   2.802   9.810   6.562
   98POPC   C4A 1545   2.462   9.931   6.300
   98POPC   C1B 1546   2.748   9.243   7.332
   98POPC   C2B 1547   2.928   9.108   6.927
   98POPC   C3B 1548   2.927   9.316   6.543
   98POPC   C4B 1549   2.614   9.436   6.237
   99POPC   NC3 1550   3.249   9.588   8.153
   99POPC   PO4 1551   3.925   9.370   8.063
   99POPC   GL1 1552   3.748   9.753   7.835
   99POPC   GL2 1553   3.413   9.674   7.685
   99POPC   C1A 1554   3.666   0.020   7.419
   99POPC   D2A 1555   3.462   9.934   7.009
   99POPC   C3A 1556   3.700   0.004   6.610
   99POPC   C4A 1557   3.601   0.181   6.214
   99POPC   C1B 1558   3.611   9.490   7.334
   99POPC   C2B 1559   3.541   9.414   6.907
   99POPC   C3B 1560   3.350   9.622   6.567
   99POPC   C4B 1561   3.554   9.695   6.181
  100POPC   NC3 1562   8.829   4.423   8.097
  100POPC   PO4 1563   9.458   4.582   8.274
  100POPC   GL1 1564   9.265   4.363   7.818
  100POPC   GL2 1565   8.921   4.236   7.635
  100POPC   C1A 1566   9.315   4.261   7.340
  100POPC   D2A 1567   9.315   4.101   6.919
  100POPC   C3A 1568   9.058   4.265   6.553
  100POPC   C4A 1569   9.137   4.364   6.099
  100POPC   C1B 1570   8.635   4.022   7.343
  100POPC   C2B 1571   8.728   3.858   6.938
  100POPC   C3B 1572   8.543   3.880   6.533
  100POPC   C4B 1573   8.732   4.078   6.164
  101POPC   NC3 1574   7.533   1.539   8.161
  101POPC   PO4 1575   7.124   2.015   8.259
  101POPC   GL1 1576   7.305   1.897   7.824
  101POPC   GL2 1577   7.247   2.223   7.661
  101POPC   C1A 1578   7.300   1.833   7.325
  101POPC   D2A 1579   7.171   1.729   6.870
  101POPC   C3A 1580   7.485   1.704   6.525
  101POPC   C4A 1581   7.280   1.694   6.114
  101POPC   C1B 1582   7.470   2.332   7.281
  101POPC   C2B 1583   7.287   2.235   6.888
  101POPC   C3B 1584   7.208   2.143   6.468
  101POPC   C4B 1585   7.336   2.480   6.222
  102POPC   NC3 1586   1.202   0.593   8.086
  102POPC   PO4 1587   0.996   0.013   8.015
  102POPC   GL1 1588   1.253   0.175   7.728
  102POPC   GL2 1589   1.045   0.463   7.625
  102POPC   C1A 1590   1.432   0.295   7.309
  102POPC   D2A 1591   1.175   0.410   6.972
  102POPC   C3A 1592   1.362   0.293   6.583
  102POPC   C4A 1593   1.329   0.152   6.172
  102POPC   C1B 1594   0.857   0.782   7.355
  102POPC   C2B 1595   0.746   0.713   6.934
  102POPC   C3B 1596   0.993   0.714   6.585
  102POPC   C4B 1597   0.918   0.777   6.162
  103POPC   NC3 1598   1.784   2.081   8.183
  103POPC   PO4 1599   2.290   1.660   8.107
  103POPC   GL1 1600   2.308   1.878   7.697
  103POPC   GL2 1601   2.120   2.179   7.727
  103POPC   C1A 1602   2.297   2.063   7.266
  103POPC   D2A 1603   2.084   1.979   6.882
  103POPC   C3A 1604   2.302   2.098   6.535
  103POPC   C4A 1605   2.418   1.919   6.172
  103POPC   C1B 1606   1.783   2.128   7.429
  103POPC   C2B 1607   1.677   2.298   7.025
  103POPC   C3B 1608   1.638   2.174   6.606
  103POPC   C4B 1609   1.885   2.076   6.225
  104POPC   NC3 1610   7.763   8.057   8.275
  104POPC   PO4 1611   7.185   8.470   8.158
  104POPC   GL1 1612   7.274   8.190   7.779
  104POPC   GL2 1613   7.490   8.353   7.498
  104POPC   C1A 1614   7.312   7.884   7.426
  104POPC   D2A 1615   7.494   8.078   7.038
  104POPC   C3A 1616   7.427   7.926   6.586
  104POPC   C4A 1617   7.241   7.838   6.201
  104POPC   C1B 1618   7.061   8.291   7.295
  104POPC   C2B 1619   7.060   8.225   6.845
  104POPC   C3B 1620   7.431   8.422   6.590
  104POPC   C4B 1621   7.148   8.335   6.280
  105POPC   NC3 1622   3.032   7.265   8.039
  105POPC   PO4 1623   3.053   7.957   8.153
  105POPC   GL1 1624   2.841   7.647   7.772
  105POPC   GL2 1625   3.025   7.426   7.545
  105POPC   C1A 1626   2.547   7.560   7.398
  105POPC   D2A 1627   2.378   7.521   6.977
  105POPC   C3A 1628   2.663   7.552   6.640
  105POPC   C4A 1629   2.564   7.522   6.209
  105POPC   C1B 1630   2.769   7.105   7.343
  105POPC   C2B 1631   2.640   7.074   6.903
  105POPC   C3B 1632   2.766   7.101   6.456
  105POPC   C4B 1633   3.066   7.224   6.207
  106POPC   NC3 1634   3.174   5.449   8.112
  106POPC   PO4 1635   2.847   5.938   8.016
  106POPC   GL1 1636   2.646   5.952   7.619
  106POPC   GL2 1637   2.406   6.164   7.546
  106POPC   C1A 1638   2.434   5.706   7.281
  106POPC   D2A 1639   2.530   5.529   6.869
  106POPC   C3A 1640   2.688   5.640   6.473
  106POPC   C4A 1641   3.028   5.446   6.235
  106POPC   C1B 1642   2.654   6.200   7.190
  106POPC   C2B 1643   2.597   6.064   6.779
  106POPC   C3B 1644   2.636   6.275   6.404
  106POPC   C4B 1645   2.782   6.006   6.145
  107POPC   NC3 1646   0.614   4.467   8.285
  107POPC   PO4 1647   0.179   3.906   8.122
  107POPC   GL1 1648   0.366   4.039   7.728
  107POPC   GL2 1649   0.182   4.261   7.518
  107POPC   C1A 1650   0.609   4.021   7.322
  107POPC   D2A 1651   0.792   3.949   6.925
  107POPC   C3A 1652   0.555   4.020   6.565
  107POPC   C4A 1653   0.392   3.930   6.186
  107POPC   C1B 1654   0.412   4.500   7.238
  107POPC   C2B 1655   0.456   4.429   6.846
  107POPC   C3B 1656   0.294   4.600   6.506
  107POPC   C4B 1657  10.000   4.599   6.174
  108POPC   NC3 1658   7.122   7.306   8.120
  108POPC   PO4 1659   7.714   7.536   8.170
  108POPC   GL1 1660   7.553   7.580   7.761
  108POPC   GL2 1661   7.484   7.263   7.679
  108POPC   C1A 1662   7.692   7.574   7.305
  108POPC   D2A 1663   7.410   7.558   6.919
  108POPC   C3A 1664   7.528   7.422   6.472
  108POPC   C4A 1665   7.640   7.532   6.024
  108POPC   C1B 1666   7.388   7.175   7.255
  108POPC   C2B 1667   7.370   7.051   6.828
  108POPC   C3B 1668   7.114   7.006   6.466
  108POPC   C4B 1669   7.143   7.198   6.101
  109POPC   NC3 1670   6.575   9.664   8.233
  109POPC   PO4 1671   6.220   9.873   7.737
  109POPC   GL1 1672   6.590   9.901   7.517
  109POPC   GL2 1673   6.679   9.591   7.692
  109POPC   C1A 1674   6.524   9.934   7.079
  109POPC   D2A 1675   6.615   0.098   6.714
  109POPC   C3A 1676   6.417   9.884   6.419
  109POPC   C4A 1677   6.296   9.847   5.998
  109POPC   C1B 1678   6.620   9.474   7.240
  109POPC   C2B 1679   6.793   9.593   6.819
  109POPC   C3B 1680   6.769   9.524   6.394
  109POPC   C4B 1681   6.478   9.397   6.145
  110POPC   NC3 1682   3.821   3.013   7.965
  110POPC   PO4 1683   4.381   2.757   8.091
  110POPC   GL1 1684   4.329   2.565   7.669
  110POPC   GL2 1685   3.995   2.570   7.661
  110POPC   C1A 1686   4.358   2.535   7.173
  110POPC   D2A 1687   4.441   2.378   6.726
  110POPC   C3A 1688   4.449   2.676   6.348
  110POPC   C4A 1689   4.778   2.849   6.047
  110POPC   C1B 1690   3.867   2.668   7.236
  110POPC   C2B 1691   4.003   2.691   6.779
  110POPC   C3B 1692   3.990   2.907   6.359
  110POPC   C4B 1693   3.860   3.252   6.056
  111POPC   NC3 1694   1.590   9.672   8.043
  111POPC   PO4 1695   2.190   9.211   8.060
  111POPC   GL1 1696   1.926   9.438   7.738
  111POPC   GL2 1697   2.086   9.748   7.613
  111POPC   C1A 1698   1.725   9.564   7.313
  111POPC   D2A 1699   1.791   9.835   6.924
  111POPC   C3A 1700   1.553   9.815   6.496
  111POPC   C4A 1701   1.726   9.863   6.031
  111POPC   C1B 1702   2.341   9.753   7.220
  111POPC   C2B 1703   2.304   9.743   6.765
  111POPC   C3B 1704   2.036   9.693   6.407
  111POPC   C4B 1705   2.161   9.529   6.008
  112POPC   NC3 1706   9.491   8.204   8.194
  112POPC   PO4 1707   0.015   7.771   8.141
  112POPC   GL1 1708   9.925   8.089   7.812
  112POPC   GL2 1709   9.615   7.981   7.758
  112POPC   C1A 1710   9.944   8.363   7.415
  112POPC   D2A 1711   9.894   8.174   7.006
  112POPC   C3A 1712   9.880   8.401   6.624
  112POPC   C4A 1713   9.868   8.249   6.213
  112POPC   C1B 1714   9.454   8.178   7.396
  112POPC   C2B 1715   9.363   8.101   6.980
  112POPC   C3B 1716   9.550   8.008   6.580
  112POPC   C4B 1717   9.360   8.135   6.179
  113POPC   NC3 1718   0.076   9.713   8.016
  113POPC   PO4 1719   0.537   0.053   8.358
  113POPC   GL1 1720   0.506   9.942   7.820
  113POPC   GL2 1721   0.494   9.624   7.663
  113POPC   C1A 1722   0.756   9.981   7.405
  113POPC   D2A 1723   0.828   9.641   7.100
  113POPC   C3A 1724   0.640   9.595   6.687
  113POPC   C4A 1725   0.477   9.584   6.259
  113POPC   C1B 1726   0.186   9.527   7.359
  113POPC   C2B 1727   0.211   9.684   6.947
  113POPC   C3B 1728   0.043   9.531   6.564
  113POPC   C4B 1729   0.094   9.245   6.198
  114POPC   NC3 1730   3.651   8.970   8.118
  114POPC   PO4 1731   3.087   8.582   8.020
  114POPC   GL1 1732   3.355   8.769   7.705
  114POPC   GL2 1733   3.438   9.146   7.699
  114POPC   C1A 1734   3.467   8.610   7.282
  114POPC   D2A 1735   3.641   8.449   6.890
  114POPC   C3A 1736   3.596   8.615   6.449
  114POPC   C4A 1737   3.422   8.805   6.052
  114POPC   C1B 1738   3.302   9.094   7.276
  114POPC   C2B 1739   3.412   8.919   6.867
  114POPC   C3B 1740   3.398   9.106   6.471
  114POPC   C4B 1741   3.718   9.224   6.215
  115POPC   NC3 1742   3.387   2.705   8.347
  115POPC   PO4 1743   3.443   3.297   8.030
  115POPC   GL1 1744   3.240   2.929   7.775
  115POPC   GL2 1745   3.497   2.725   7.660
  115POPC   C1A 1746   3.091   2.679   7.353
  115POPC   D2A 1747   2.916   2.569   6.918
  115POPC   C3A 1748   3.128   2.619   6.499
  115POPC   C4A 1749   3.134   2.583   6.051
  115POPC   C1B 1750   3.468   2.994   7.263
  115POPC   C2B 1751   3.555   2.976   6.798
  115POPC   C3B 1752   3.480   3.007   6.347
  115POPC   C4B 1753   3.465   2.968   5.872
  116POPC   NC3 1754   3.199   3.687   8.065
  116POPC   PO4 1755   2.659   4.123   8.022
  116POPC   GL1 1756   2.791   3.705   7.751
  116POPC   GL2 1757   2.796   3.311   7.797
  116POPC   C1A 1758   2.974   3.456   7.352
  116POPC   D2A 1759   3.031   3.199   6.950
  116POPC   C3A 1760   2.982   3.455   6.523
  116POPC   C4A 1761   3.082   3.602   6.080
  116POPC   C1B 1762   2.463   3.447   7.464
  116POPC   C2B 1763   2.556   3.444   7.017
  116POPC   C3B 1764   2.451   3.463   6.574
  116POPC   C4B 1765   2.554   3.274   6.182
  117POPC   NC3 1766   5.678   1.987   8.115
  117POPC   PO4 1767   6.246   1.562   8.107
  117POPC   GL1 1768   5.897   1.657   7.783
  117POPC   GL2 1769   5.961   2.029   7.686
  117POPC   C1A 1770   5.752   1.707   7.322
  117POPC   D2A 1771   5.872   1.831   6.864
  117POPC   C3A 1772   5.692   1.750   6.464
  117POPC   C4A 1773   5.785   1.747   6.025
  117POPC   C1B 1774   6.023   2.157   7.251
  117POPC   C2B 1775   5.991   2.314   6.849
  117POPC   C3B 1776   5.885   2.228   6.453
  117POPC   C4B 1777   5.572   2.191   6.143
  118POPC   NC3 1778   2.675   2.846   8.200
  118POPC   PO4 1779   2.117   2.439   8.157
  118POPC   GL1 1780   2.515   2.496   7.815
  118POPC   GL2 1781   2.751   2.764   7.719
  118POPC   C1A 1782   2.570   2.497   7.326
  118POPC   D2A 1783   2.347   2.458   6.911
  118POPC   C3A 1784   2.563   2.540   6.524
  118POPC   C4A 1785   2.650   2.756   6.126
  118POPC   C1B 1786   2.697   3.007   7.348
  118POPC   C2B 1787   2.564   2.934   6.934
  118POPC   C3B 1788   2.782   2.996   6.550
  118POPC   C4B 1789   3.028   3.087   6.150
  119POPC   NC3 1790   2.750   1.138   8.071
  119POPC   PO4 1791   3.104   1.684   8.010
  119POPC   GL1 1792   2.919   1.403   7.678
  119POPC   GL2 1793   2.512   1.379   7.693
  119POPC   C1A 1794   2.978   1.348   7.239
  119POPC   D2A 1795   2.982   1.590   6.881
  119POPC   C3A 1796   2.980   1.305   6.533
  119POPC   C4A 1797   2.911   0.911   6.333
  119POPC   C1B 1798   2.596   1.051   7.385
  119POPC   C2B 1799   2.624   1.144   6.914
  119POPC   C3B 1800   2.470   1.148   6.481
  119POPC   C4B 1801   2.428   1.381   6.105
  120POPC   NC3 1802   1.501   5.648   8.226
  120POPC   PO4 1803   1.192   6.196   8.159
  120POPC   GL1 1804   1.279   6.128   7.732
  120POPC   GL2 1805   1.335   5.758   7.678
  120POPC   C1A 1806   1.161   6.242   7.313
  120POPC   D2A 1807   1.316   6.060   6.913
  120POPC   C3A 1808   1.211   6.196   6.511
  120POPC   C4A 1809   1.396   6.056   6.102
  120POPC   C1B 1810   1.118   5.737   7.275
  120POPC   C2B 1811   1.160   5.581   6.848
  120POPC   C3B 1812   1.355   5.707   6.501
  120POPC   C4B 1813   1.014   5.760   6.273
  121POPC   NC3 1814   4.528   7.315   8.210
  121POPC   PO4 1815   5.116   7.487   8.046
  121POPC   GL1 1816   4.708   7.631   7.778
  121POPC   GL2 1817   4.382   7.424   7.725
  121POPC   C1A 1818   4.621   7.643   7.291
  121POPC   D2A 1819   4.552   7.518   6.827
  121POPC   C3A 1820   4.706   7.449   6.377
  121POPC   C4A 1821   4.755   7.374   5.907
  121POPC   C1B 1822   4.126   7.623   7.424
  121POPC   C2B 1823   4.128   7.755   6.981
  121POPC   C3B 1824   4.078   7.534   6.576
  121POPC   C4B 1825   3.958   7.131   6.390
  122POPC   NC3 1826   1.640   6.313   8.075
  122POPC   PO4 1827   2.219   5.982   8.001
  122POPC   GL1 1828   2.054   6.404   7.799
  122POPC   GL2 1829   2.003   6.793   7.728
  122POPC   C1A 1830   2.048   6.465   7.364
  122POPC   D2A 1831   2.069   6.587   6.931
  122POPC   C3A 1832   2.151   6.330   6.588
  122POPC   C4A 1833   2.210   6.457   6.178
  122POPC   C1B 1834   1.808   6.908   7.291
  122POPC   C2B 1835   1.663   6.895   6.849
  122POPC   C3B 1836   1.914   6.818   6.461
  122POPC   C4B 1837   1.871   6.770   5.974
  123POPC   NC3 1838   4.397   8.304   8.147
  123POPC   PO4 1839   4.221   7.648   8.156
  123POPC   GL1 1840   4.266   7.951   7.782
  123POPC   GL2 1841   4.111   8.287   7.729
  123POPC   C1A 1842   4.375   8.085   7.339
  123POPC   D2A 1843   4.593   8.057   6.911
  123POPC   C3A 1844   4.434   7.885   6.490
  123POPC   C4A 1845   4.569   7.855   6.028
  123POPC   C1B 1846   4.022   8.479   7.316
  123POPC   C2B 1847   4.122   8.276   6.944
  123POPC   C3B 1848   4.301   8.365   6.571
  123POPC   C4B 1849   4.026   8.372   6.288
  124POPC   NC3 1850   0.683   0.348   8.031
  124POPC   PO4 1851   0.017   0.162   8.158
  124POPC   GL1 1852   0.200   0.331   7.744
  124POPC   GL2 1853   0.425   0.651   7.694
  124POPC   C1A 1854   0.252   0.048   7.362
  124POPC   D2A 1855   0.513   0.123   6.965
  124POPC   C3A 1856   0.362   0.013   6.554
  124POPC   C4A 1857   0.022   9.951   6.283
  124POPC   C1B 1858   0.423   0.523   7.288
  124POPC   C2B 1859   0.229   0.618   6.898
  124POPC   C3B 1860   0.433   0.675   6.498
  124POPC   C4B 1861   0.704   0.353   6.366
  125POPC   NC3 1862   5.908   1.236   8.113
  125POPC   PO4 1863   5.374   0.746   8.070
  125POPC   GL1 1864   5.544   1.037   7.770
  125POPC   GL2 1865   5.884   0.971   7.678
  125POPC   C1A 1866   5.610   1.214   7.338
  125POPC   D2A 1867   5.406   1.148   6.960
  125POPC   C3A 1868   5.576   1.012   6.593
  125POPC   C4A 1869   5.504   0.904   6.181
  125POPC   C1B 1870   6.113   1.315   7.456
  125POPC   C2B 1871   6.101   1.407   7.017
  125POPC   C3B 1872   6.142   1.473   6.565
  125POPC   C4B 1873   5.866   1.286   6.254
  126POPC   NC3 1874   4.277   0.800   8.131
  126POPC   PO4 1875   3.860   0.259   8.358
  126POPC   GL1 1876   4.128   0.254   7.884
  126POPC   GL2 1877   4.319   0.529   7.693
  126POPC   C1A 1878   4.158   0.193   7.383
  126POPC   D2A 1879   3.921   0.272   7.014
  126POPC   C3A 1880   4.169   0.464   6.706
  126POPC   C4A 1881   4.120   0.302   6.306
  126POPC   C1B 1882   4.482   0.623   7.244
  126POPC   C2B 1883   4.693   0.531   6.853
  126POPC   C3B 1884   4.613   0.246   6.543
  126POPC   C4B 1885   4.644   0.409   6.180
  127POPC   NC3 1886   9.745   4.950   8.185
  127POPC   PO4 1887   0.368   4.856   8.370
  127POPC   GL1 1888   0.166   4.944   7.912
  127POPC   GL2 1889   0.017   5.273   7.846
  127POPC   C1A 1890   0.073   4.834   7.437
  127POPC   D2A 1891   0.106   4.819   6.978
  127POPC   C3A 1892   9.823   4.818   6.653
  127POPC   C4A 1893   9.704   5.061   6.322
  127POPC   C1B 1894   9.803   5.278   7.451
  127POPC   C2B 1895   9.657   5.106   7.061
  127POPC   C3B 1896   9.362   5.096   6.726
  127POPC   C4B 1897   9.231   5.316   6.387
  128POPC   NC3 1898   9.647   9.996   8.391
  128POPC   PO4 1899   9.370   9.403   8.086
  128POPC   GL1 1900   9.637   9.585   7.790
  128POPC   GL2 1901   9.899   9.307   7.753
  128POPC   C1A 1902   9.755   9.814   7.399
  128POPC   D2A 1903   9.711   9.671   6.980
  128POPC   C3A 1904   9.630   9.919   6.618
  128POPC   C4A 1905   9.309   9.794   6.337
  128POPC   C1B 1906   9.611   9.257   7.395
  128POPC   C2B 1907   9.452   9.207   6.989
  128POPC   C3B 1908   9.522   9.397   6.582
  128POPC   C4B 1909   9.704   9.555   6.173
  129POPC   NC3 1910   2.610   8.011   7.997
  129POPC   PO4 1911   2.290   8.522   8.289
  129POPC   GL1 1912   2.648   8.506   7.753
  129POPC   GL2 1913   2.928   8.252   7.682
  129POPC   C1A 1914   2.625   8.366   7.254
  129POPC   D2A 1915   2.324   8.324   6.854
  129POPC   C3A 1916   2.428   8.440   6.403
  129POPC   C4A 1917   2.760   8.520   6.130
  129POPC   C1B 1918   2.874   7.936   7.368
  129POPC   C2B 1919   2.695   7.942   6.971
  129POPC   C3B 1920   2.797   8.188   6.639
  129POPC   C4B 1921   2.917   7.938   6.308
  130POPC   NC3 1922   9.023   9.781   7.872
  130POPC   PO4 1923   8.526   9.324   8.100
  130POPC   GL1 1924   8.798   9.309   7.728
  130POPC   GL2 1925   9.160   9.355   7.639
  130POPC   C1A 1926   8.768   9.373   7.299
  130POPC   D2A 1927   8.979   9.390   6.918
  130POPC   C3A 1928   8.697   9.283   6.592
  130POPC   C4A 1929   8.449   9.563   6.374
  130POPC   C1B 1930   9.276   9.638   7.277
  130POPC   C2B 1931   9.185   9.894   6.899
  130POPC   C3B 1932   8.868   9.794   6.587
  130POPC   C4B 1933   8.913   9.525   6.174
  131POPC   NC3 1934   8.718   2.796   8.151
  131POPC   PO4 1935   9.247   2.315   7.932
  131POPC   GL1 1936   9.104   2.508   7.565
  131POPC   GL2 1937   8.881   2.774   7.671
  131POPC   C1A 1938   8.842   2.579   7.211
  131POPC   D2A 1939   8.989   2.834   6.898
  131POPC   C3A 1940   9.059   2.621   6.534
  131POPC   C4A 1941   9.363   2.430   6.284
  131POPC   C1B 1942   8.614   3.005   7.370
  131POPC   C2B 1943   8.501   2.994   6.955
  131POPC   C3B 1944   8.597   2.869   6.551
  131POPC   C4B 1945   8.572   2.495   6.355
  132POPC   NC3 1946   2.681   8.741   8.178
  132POPC   PO4 1947   3.211   9.134   8.189
  132POPC   GL1 1948   2.929   9.043   7.787
  132POPC   GL2 1949   2.557   9.012   7.755
  132POPC   C1A 1950   2.931   8.767   7.391
  132POPC   D2A 1951   3.028   8.590   6.974
  132POPC   C3A 1952   3.074   8.698   6.526
  132POPC   C4A 1953   2.974   8.995   6.165
  132POPC   C1B 1954   2.423   8.815   7.357
  132POPC   C2B 1955   2.541   8.769   6.932
  132POPC   C3B 1956   2.610   8.907   6.530
  132POPC   C4B 1957   2.441   8.971   6.127
  133POPC   NC3 1958   2.831   0.415   8.137
  133POPC   PO4 1959   2.348   0.884   8.059
  133POPC   GL1 1960   2.455   0.591   7.774
  133POPC   GL2 1961   2.823   0.626   7.646
  133POPC   C1A 1962   2.396   0.544   7.353
  133POPC   D2A 1963   2.739   0.665   7.088
  133POPC   C3A 1964   2.611   0.680   6.684
  133POPC   C4A 1965   2.458   0.671   6.277
  133POPC   C1B 1966   2.805   0.227   7.355
  133POPC   C2B 1967   2.721   0.194   6.873
  133POPC   C3B 1968   2.791   0.298   6.388
  133POPC   C4B 1969   3.011   0.157   5.986
  134POPC   NC3 1970   5.793   3.087   8.244
  134POPC   PO4 1971   5.779   2.444   8.048
  134POPC   GL1 1972   5.756   2.786   7.737
  134POPC   GL2 1973   6.006   2.572   7.534
  134POPC   C1A 1974   5.873   3.010   7.351
  134POPC   D2A 1975   6.135   2.760   7.055
  134POPC   C3A 1976   6.146   2.968   6.699
  134POPC   C4A 1977   5.848   3.071   6.411
  134POPC   C1B 1978   5.685   2.561   7.191
  134POPC   C2B 1979   5.674   2.687   6.726
  134POPC   C3B 1980   5.503   2.687   6.290
  134POPC   C4B 1981   5.282   2.879   5.923
  135POPC   NC3 1982   8.558   5.384   8.040
  135POPC   PO4 1983   7.880   5.284   8.061
  135POPC   GL1 1984   8.186   5.219   7.729
  135POPC   GL2 1985   8.248   4.861   7.649
  135POPC   C1A 1986   8.162   5.208   7.279
  135POPC   D2A 1987   8.029   5.032   6.873
  135POPC   C3A 1988   8.321   4.889   6.562
  135POPC   C4A 1989   8.209   5.044   6.197
  135POPC   C1B 1990   8.039   4.719   7.297
  135POPC   C2B 1991   8.080   4.522   6.878
  135POPC   C3B 1992   7.896   4.633   6.443
  135POPC   C4B 1993   7.867   4.720   5.966
  136POPC   NC3 1994   6.795   8.238   8.019
  136POPC   PO4 1995   6.723   7.591   8.040
  136POPC   GL1 1996   6.815   7.879   7.634
  136POPC   GL2 1997   6.601   8.208   7.555
  136POPC   C1A 1998   6.720   7.914   7.172
  136POPC   D2A 1999   6.639   7.695   6.807
  136POPC   C3A 2000   6.773   7.941   6.472
  136POPC   C4A 2001   6.448   7.966   6.192
  136POPC   C1B 2002   6.234   8.171   7.255
  136POPC   C2B 2003   6.079   8.089   6.833
  136POPC   C3B 2004   6.178   8.294   6.462
  136POPC   C4B 2005   6.617   8.423   6.454
  137POPC   NC3 2006   8.857   0.457   8.034
  137POPC   PO4 2007   9.401   0.001   8.006
  137POPC   GL1 2008   9.229   0.310   7.691
  137POPC   GL2 2009   8.906   0.306   7.560
  137POPC   C1A 2010   9.328   0.301   7.242
  137POPC   D2A 2011   9.110   0.443   6.869
  137POPC   C3A 2012   9.155   0.249   6.473
  137POPC   C4A 2013   9.225   0.160   6.018
  137POPC   C1B 2014   8.801   0.145   7.176
  137POPC   C2B 2015   8.597   0.389   6.873
  137POPC   C3B 2016   8.692   0.453   6.478
  137POPC   C4B 2017   8.782   0.474   6.056
  138POPC   NC3 2018   5.524   7.297   8.056
  138POPC   PO4 2019   6.074   7.186   8.330
  138POPC   GL1 2020   5.924   7.325   7.781
  138POPC   GL2 2021   6.024   7.647   7.684
  138POPC   C1A 2022   6.092   7.362   7.289
  138POPC   D2A 2023   5.958   7.587   6.914
  138POPC   C3A 2024   5.859   7.299   6.569
  138POPC   C4A 2025   6.155   7.127   6.240
  138POPC   C1B 2026   5.621   7.531   7.397
  138POPC   C2B 2027   5.460   7.454   6.933
  138POPC   C3B 2028   5.400   7.552   6.454
  138POPC   C4B 2029   5.368   7.361   6.004
  139POPC   NC3 2030   0.330   3.515   8.401
  139POPC   PO4 2031   0.939   3.690   8.101
  139POPC   GL1 2032   0.815   3.458   7.735
  139POPC   GL2 2033   0.528   3.588   7.581
  139POPC   C1A 2034   0.740   3.206   7.368
  139POPC   D2A 2035   0.535   3.489   7.068
  139POPC   C3A 2036   0.748   3.473   6.700
  139POPC   C4A 2037   0.665   3.530   6.300
  139POPC   C1B 2038   0.168   3.772   7.331
  139POPC   C2B 2039   0.239   3.951   6.955
  139POPC   C3B 2040   0.220   3.656   6.619
  139POPC   C4B 2041   0.186   3.408   6.274
  140POPC   NC3 2042   8.723   8.314   8.162
  140POPC   PO4 2043   9.224   7.794   8.157
  140POPC   GL1 2044   9.093   7.894   7.738
  140POPC   GL2 2045   9.121   8.242   7.787
  140POPC   C1A 2046   8.818   7.994   7.372
  140POPC   D2A 2047   8.888   7.859   6.953
  140POPC   C3A 2048   8.739   7.940   6.546
  140POPC   C4A 2049   8.848   7.962   6.104
  140POPC   C1B 2050   9.021   8.478   7.416
  140POPC   C2B 2051   8.848   8.388   7.006
  140POPC   C3B 2052   9.064   8.337   6.615
  140POPC   C4B 2053   8.916   8.444   6.222
  141POPC   NC3 2054   6.853   3.408   8.021
  141POPC   PO4 2055   6.203   3.143   8.061
  141POPC   GL1 2056   6.310   3.043   7.625
  141POPC   GL2 2057   6.507   3.349   7.635
  141POPC   C1A 2058   6.305   3.213   7.175
  141POPC   D2A 2059   6.470   3.379   6.789
  141POPC   C3A 2060   6.278   3.359   6.393
  141POPC   C4A 2061   6.277   3.062   6.035
  141POPC   C1B 2062   6.655   3.574   7.256
  141POPC   C2B 2063   6.799   3.749   6.855
  141POPC   C3B 2064   6.688   3.711   6.382
  141POPC   C4B 2065   6.771   3.897   5.930
  142POPC   NC3 2066   1.396   3.816   8.212
  142POPC   PO4 2067   1.461   3.130   8.130
  142POPC   GL1 2068   1.345   3.389   7.754
  142POPC   GL2 2069   1.285   3.761   7.696
  142POPC   C1A 2070   1.254   3.219   7.343
  142POPC   D2A 2071   1.061   3.134   6.953
  142POPC   C3A 2072   1.254   3.206   6.574
  142POPC   C4A 2073   1.009   3.175   6.229
  142POPC   C1B 2074   1.022   3.670   7.312
  142POPC   C2B 2075   1.219   3.626   6.892
  142POPC   C3B 2076   1.138   3.712   6.451
  142POPC   C4B 2077   0.893   3.979   6.201
  143POPC   NC3 2078   8.682   1.307   8.105
  143POPC   PO4 2079   8.443   0.715   8.047
  143POPC   GL1 2080   8.718   0.816   7.678
  143POPC   GL2 2081   9.024   0.946   7.751
  143POPC   C1A 2082   8.768   1.183   7.340
  143POPC   D2A 2083   8.718   1.508   7.004
  143POPC   C3A 2084   8.634   1.336   6.571
  143POPC   C4A 2085   8.701   1.305   6.106
  143POPC   C1B 2086   9.042   0.744   7.301
  143POPC   C2B 2087   8.827   0.876   6.890
  143POPC   C3B 2088   8.888   0.911   6.430
  143POPC   C4B 2089   9.197   1.149   6.242
  144POPC   NC3 2090   1.935   3.838   3.808
  144POPC   PO4 2091   1.972   3.112   3.951
  144POPC   GL1 2092   2.026   3.460   4.210
  144POPC   GL2 2093   1.680   3.587   4.238
  144POPC   C1A 2094   2.265   3.426   4.611
  144POPC   D2A 2095   2.367   3.595   5.030
  144POPC   C3A 2096   2.328   3.366   5.391
  144POPC   C4A 2097   2.237   3.393   5.818
  144POPC   C1B 2098   1.825   3.668   4.694
  144POPC   C2B 2099   1.894   3.393   5.062
  144POPC   C3B 2100   1.853   3.510   5.491
  144POPC   C4B 2101   1.791   3.697   5.896
  145POPC   NC3 2102   2.546   2.099   4.044
  145POPC   PO4 2103   2.574   1.514   3.752
  145POPC   GL1 2104   2.432   1.577   4.183
  145POPC   GL2 2105   2.750   1.750   4.332
  145POPC   C1A 2106   2.359   1.727   4.625
  145POPC   D2A 2107   2.692   1.641   4.919
  145POPC   C3A 2108   2.624   1.571   5.340
  145POPC   C4A 2109   2.515   1.708   5.729
  145POPC   C1B 2110   2.942   2.006   4.655
  145POPC   C2B 2111   3.043   2.014   5.098
  145POPC   C3B 2112   2.871   1.998   5.483
  145POPC   C4B 2113   3.039   1.649   5.708
  146POPC   NC3 2114   7.346   6.998   3.858
  146POPC   PO4 2115   7.681   6.581   4.125
  146POPC   GL1 2116   7.416   6.710   4.396
  146POPC   GL2 2117   7.094   6.897   4.295
  146POPC   C1A 2118   7.410   6.612   4.826
  146POPC   D2A 2119   7.299   6.822   5.199
  146POPC   C3A 2120   7.439   6.643   5.576
  146POPC   C4A 2121   7.336   6.726   6.001
  146POPC   C1B 2122   6.957   6.559   4.570
  146POPC   C2B 2123   6.957   6.453   5.032
  146POPC   C3B 2124   6.956   6.475   5.504
  146POPC   C4B 2125   7.124   6.276   5.879
  147POPC   NC3 2126   5.657   9.224   4.049
  147POPC   PO4 2127   5.412   8.609   3.977
  147POPC   GL1 2128   5.687   8.745   4.303
  147POPC   GL2 2129   5.990   8.867   4.436
  147POPC   C1A 2130   5.607   8.865   4.740
  147POPC   D2A 2131   5.845   9.043   5.059
  147POPC   C3A 2132   5.738   8.777   5.410
  147POPC   C4A 2133   5.536   8.852   5.812
  147POPC   C1B 2134   6.076   8.595   4.745
  147POPC   C2B 2135   6.208   8.684   5.108
  147POPC   C3B 2136   6.266   8.691   5.501
  147POPC   C4B 2137   6.025   8.761   5.829
  148POPC   NC3 2138   0.973   5.124   3.859
  148POPC   PO4 2139   1.575   5.327   4.014
  148POPC   GL1 2140   1.156   5.317   4.298
  148POPC   GL2 2141   1.227   4.990   4.427
  148POPC   C1A 2142   0.903   5.233   4.739
  148POPC   D2A 2143   0.970   5.024   5.163
  148POPC   C3A 2144   1.046   5.128   5.612
  148POPC   C4A 2145   0.911   5.331   6.014
  148POPC   C1B 2146   1.383   5.122   4.841
  148POPC   C2B 2147   1.476   5.052   5.274
  148POPC   C3B 2148   1.571   5.110   5.711
  148POPC   C4B 2149   1.881   5.223   6.029
  149POPC   NC3 2150   6.526   8.103   3.937
  149POPC   PO4 2151   6.134   8.584   4.051
  149POPC   GL1 2152   6.296   8.285   4.388
  149POPC   GL2 2153   6.435   7.918   4.410
  149POPC   C1A 2154   6.484   8.241   4.810
  149POPC   D2A 2155   6.297   8.203   5.224
  149POPC   C3A 2156   6.496   8.243   5.589
  149POPC   C4A 2157   6.332   8.383   5.952
  149POPC   C1B 2158   6.783   7.842   4.759
  149POPC   C2B 2159   6.782   8.024   5.169
  149POPC   C3B 2160   6.836   7.871   5.586
  149POPC   C4B 2161   6.841   8.121   5.952
  150POPC   NC3 2162   9.005   2.471   3.959
  150POPC   PO4 2163   8.931   3.102   3.930
  150POPC   GL1 2164   9.007   3.004   4.344
  150POPC   GL2 2165   9.084   2.654   4.423
  150POPC   C1A 2166   8.793   3.160   4.700
  150POPC   D2A 2167   8.663   2.983   5.093
  150POPC   C3A 2168   8.798   3.136   5.488
  150POPC   C4A 2169   8.440   3.097   5.721
  150POPC   C1B 2170   9.097   2.774   4.868
  150POPC   C2B 2171   8.951   2.535   5.224
  150POPC   C3B 2172   8.855   2.651   5.642
  150POPC   C4B 2173   8.931   2.619   6.043
  151POPC   NC3 2174   8.059   2.154   4.024
  151POPC   PO4 2175   8.671   2.186   4.140
  151POPC   GL1 2176   8.441   1.904   4.386
  151POPC   GL2 2177   8.097   1.981   4.492
  151POPC   C1A 2178   8.497   1.803   4.809
  151POPC   D2A 2179   8.637   1.764   5.222
  151POPC   C3A 2180   8.300   1.723   5.488
  151POPC   C4A 2181   8.198   1.774   5.903
  151POPC   C1B 2182   7.921   2.271   4.786
  151POPC   C2B 2183   8.044   2.079   5.148
  151POPC   C3B 2184   8.183   2.208   5.498
  151POPC   C4B 2185   7.970   2.227   5.818
  152POPC   NC3 2186   8.785   4.139   4.047
  152POPC   PO4 2187   8.969   4.755   3.909
  152POPC   GL1 2188   8.983   4.543   4.314
  152POPC   GL2 2189   9.100   4.228   4.407
  152POPC   C1A 2190   9.125   4.578   4.761
  152POPC   D2A 2191   9.314   4.594   5.172
  152POPC   C3A 2192   8.934   4.549   5.432
  152POPC   C4A 2193   8.695   4.463   5.827
  152POPC   C1B 2194   8.841   4.064   4.766
  152POPC   C2B 2195   8.699   4.003   5.209
  152POPC   C3B 2196   8.908   4.045   5.601
  152POPC   C4B 2197   9.127   3.890   5.918
  153POPC   NC3 2198   7.335   7.743   4.226
  153POPC   PO4 2199   7.645   7.302   3.706
  153POPC   GL1 2200   7.511   7.207   4.270
  153POPC   GL2 2201   7.609   7.475   4.569
  153POPC   C1A 2202   7.345   7.098   4.702
  153POPC   D2A 2203   7.537   7.278   5.053
  153POPC   C3A 2204   7.239   7.304   5.347
  153POPC   C4A 2205   7.457   7.146   5.704
  153POPC   C1B 2206   7.256   7.646   4.836
  153POPC   C2B 2207   7.248   7.831   5.203
  153POPC   C3B 2208   7.506   7.700   5.510
  153POPC   C4B 2209   7.198   7.574   5.778
  154POPC   NC3 2210   1.232   3.553   3.949
  154POPC   PO4 2211   0.619   3.701   3.836
  154POPC   GL1 2212   0.876   3.769   4.282
  154POPC   GL2 2213   1.168   3.527   4.433
  154POPC   C1A 2214   0.857   3.683   4.775
  154POPC   D2A 2215   1.008   3.446   5.154
  154POPC   C3A 2216   0.865   3.660   5.491
  154POPC   C4A 2217   0.947   3.591   5.894
  154POPC   C1B 2218   1.370   3.489   4.809
  154POPC   C2B 2219   1.499   3.677   5.182
  154POPC   C3B 2220   1.368   3.617   5.611
  154POPC   C4B 2221   1.399   3.460   6.086
  155POPC   NC3 2222   0.196   4.919   4.194
  155POPC   PO4 2223   0.787   4.645   3.864
  155POPC   GL1 2224   0.832   4.697   4.283
  155POPC   GL2 2225   0.684   5.013   4.343
  155POPC   C1A 2226   0.807   4.737   4.737
  155POPC   D2A 2227   0.485   4.962   5.024
  155POPC   C3A 2228   0.544   4.974   5.469
  155POPC   C4A 2229   0.293   4.730   5.769
  155POPC   C1B 2230   0.400   5.292   4.656
  155POPC   C2B 2231   0.098   5.365   5.031
  155POPC   C3B 2232   0.189   5.498   5.470
  155POPC   C4B 2233   0.403   5.316   5.834
  156POPC   NC3 2234   9.059   8.116   3.751
  156POPC   PO4 2235   8.592   7.740   3.847
  156POPC   GL1 2236   8.721   7.919   4.229
  156POPC   GL2 2237   9.055   7.871   4.223
  156POPC   C1A 2238   8.556   8.092   4.643
  156POPC   D2A 2239   8.418   8.300   5.053
  156POPC   C3A 2240   8.726   8.312   5.402
  156POPC   C4A 2241   8.584   8.334   5.823
  156POPC   C1B 2242   9.087   8.190   4.533
  156POPC   C2B 2243   9.326   8.297   4.897
  156POPC   C3B 2244   9.312   8.363   5.339
  156POPC   C4B 2245   9.104   8.257   5.747
  157POPC   NC3 2246   7.603   2.603   3.945
  157POPC   PO4 2247   7.017   2.253   3.929
  157POPC   GL1 2248   7.220   2.446   4.280
  157POPC   GL2 2249   7.269   2.815   4.257
  157POPC   C1A 2250   7.098   2.594   4.693
  157POPC   D2A 2251   6.964   2.501   5.121
  157POPC   C3A 2252   7.209   2.660   5.430
  157POPC   C4A 2253   7.158   2.798   5.842
  157POPC   C1B 2254   7.588   2.660   4.585
  157POPC   C2B 2255   7.576   2.647   5.021
  157POPC   C3B 2256   7.733   2.448   5.380
  157POPC   C4B 2257   7.541   2.470   5.771
  158POPC   NC3 2258   5.030   0.537   4.061
  158POPC   PO4 2259   5.096   9.923   4.012
  158POPC   GL1 2260   5.213   0.119   4.428
  158POPC   GL2 2261   5.272   0.506   4.513
  158POPC   C1A 2262   5.095   0.204   4.873
  158POPC   D2A 2263   5.302   0.475   5.208
  158POPC   C3A 2264   5.360   0.203   5.591
  158POPC   C4A 2265   5.508   0.205   6.066
  158POPC   C1B 2266   4.956   0.718   4.766
  158POPC   C2B 2267   4.791   0.542   5.135
  158POPC   C3B 2268   4.904   0.505   5.546
  158POPC   C4B 2269   4.709   0.753   5.828
  159POPC   NC3 2270   1.377   6.714   4.072
  159POPC   PO4 2271   0.864   6.227   3.914
  159POPC   GL1 2272   1.025   6.382   4.271
  159POPC   GL2 2273   1.350   6.362   4.461
  159POPC   C1A 2274   0.915   6.616   4.628
  159POPC   D2A 2275   0.980   6.835   5.012
  159POPC   C3A 2276   1.173   6.608   5.338
  159POPC   C4A 2277   0.961   6.693   5.721
  159POPC   C1B 2278   1.423   6.725   4.736
  159POPC   C2B 2279   1.515   6.942   5.111
  159POPC   C3B 2280   1.643   6.804   5.515
  159POPC   C4B 2281   1.447   6.451   5.757
  160POPC   NC3 2282   0.566   5.837   3.817
  160POPC   PO4 2283   0.492   5.156   3.888
  160POPC   GL1 2284   0.630   5.492   4.204
  160POPC   GL2 2285   0.347   5.680   4.290
  160POPC   C1A 2286   0.711   5.687   4.655
  160POPC   D2A 2287   0.598   5.512   5.092
  160POPC   C3A 2288   0.795   5.574   5.511
  160POPC   C4A 2289   0.666   5.771   5.917
  160POPC   C1B 2290   0.208   5.774   4.722
  160POPC   C2B 2291   0.360   6.006   5.072
  160POPC   C3B 2292   0.457   5.958   5.487
  160POPC   C4B 2293   0.190   5.916   5.839
  161POPC   NC3 2294   0.550   7.582   3.870
  161POPC   PO4 2295   0.074   7.079   3.873
  161POPC   GL1 2296   0.198   7.369   4.217
  161POPC   GL2 2297   0.542   7.262   4.262
  161POPC   C1A 2298   0.256   7.387   4.690
  161POPC   D2A 2299   0.215   7.604   5.099
  161POPC   C3A 2300   0.301   7.386   5.479
  161POPC   C4A 2301   0.530   7.549   5.860
  161POPC   C1B 2302   0.718   7.136   4.650
  161POPC   C2B 2303   0.651   7.287   5.070
  161POPC   C3B 2304   0.788   7.277   5.502
  161POPC   C4B 2305   0.583   7.033   5.805
  162POPC   NC3 2306   4.039   3.634   3.955
  162POPC   PO4 2307   4.256   4.130   4.040
  162POPC   GL1 2308   4.256   3.770   4.397
  162POPC   GL2 2309   4.386   3.426   4.303
  162POPC   C1A 2310   4.055   3.426   4.704
  162POPC   D2A 2311   4.064   3.360   5.185
  162POPC   C3A 2312   3.733   3.373   5.543
  162POPC   C4A 2313   3.559   3.653   5.888
  162POPC   C1B 2314   4.576   3.201   4.672
  162POPC   C2B 2315   4.474   3.078   5.088
  162POPC   C3B 2316   4.398   2.926   5.509
  162POPC   C4B 2317   4.292   3.007   5.943
  163POPC   NC3 2318   8.115   7.025   3.910
  163POPC   PO4 2319   7.760   7.590   4.120
  163POPC   GL1 2320   8.137   7.361   4.298
  163POPC   GL2 2321   8.405   7.568   4.417
  163POPC   C1A 2322   8.325   7.109   4.672
  163POPC   D2A 2323   8.431   6.946   5.096
  163POPC   C3A 2324   8.060   6.895   5.367
  163POPC   C4A 2325   7.955   7.144   5.719
  163POPC   C1B 2326   8.079   7.555   4.751
  163POPC   C2B 2327   8.077   7.328   5.103
  163POPC   C3B 2328   8.308   7.414   5.462
  163POPC   C4B 2329   7.996   7.646   5.646
  164POPC   NC3 2330   8.155   7.770   3.997
  164POPC   PO4 2331   7.539   8.106   3.953
  164POPC   GL1 2332   7.804   8.042   4.333
  164POPC   GL2 2333   8.124   8.222   4.269
  164POPC   C1A 2334   8.029   8.057   4.750
  164POPC   D2A 2335   8.001   7.891   5.177
  164POPC   C3A 2336   8.267   8.062   5.500
  164POPC   C4A 2337   8.445   7.852   5.829
  164POPC   C1B 2338   7.850   8.492   4.556
  164POPC   C2B 2339   7.915   8.498   5.006
  164POPC   C3B 2340   8.017   8.512   5.458
  164POPC   C4B 2341   8.073   8.402   5.936
  165POPC   NC3 2342   6.393   0.493   3.968
  165POPC   PO4 2343   6.090   1.044   4.100
  165POPC   GL1 2344   6.430   0.851   4.343
  165POPC   GL2 2345   6.685   0.582   4.365
  165POPC   C1A 2346   6.483   0.808   4.776
  165POPC   D2A 2347   6.208   0.614   5.048
  165POPC   C3A 2348   6.256   0.809   5.432
  165POPC   C4A 2349   6.286   0.622   5.801
  165POPC   C1B 2350   6.636   0.310   4.694
  165POPC   C2B 2351   6.558   0.172   5.092
  165POPC   C3B 2352   6.650   0.424   5.437
  165POPC   C4B 2353   6.559   0.199   5.774
  166POPC   NC3 2354   3.172   8.751   3.980
  166POPC   PO4 2355   3.799   8.968   4.042
  166POPC   GL1 2356   3.452   8.886   4.392
  166POPC   GL2 2357   3.346   9.189   4.596
  166POPC   C1A 2358   3.273   8.740   4.817
  166POPC   D2A 2359   3.351   9.059   5.138
  166POPC   C3A 2360   3.220   9.054   5.582
  166POPC   C4A 2361   3.329   9.311   5.930
  166POPC   C1B 2362   3.774   9.104   4.756
  166POPC   C2B 2363   3.863   8.889   5.122
  166POPC   C3B 2364   3.635   8.728   5.464
  166POPC   C4B 2365   3.713   9.058   5.708
  167POPC   NC3 2366   7.170   9.298   3.879
  167POPC   PO4 2367   6.931   9.928   3.943
  167POPC   GL1 2368   7.075   9.644   4.302
  167POPC   GL2 2369   7.427   9.539   4.281
  167POPC   C1A 2370   7.115   9.409   4.736
  167POPC   D2A 2371   7.328   9.304   5.138
  167POPC   C3A 2372   7.113   9.462   5.546
  167POPC   C4A 2373   7.145   9.550   6.036
  167POPC   C1B 2374   7.409   9.823   4.662
  167POPC   C2B 2375   7.584   9.750   5.076
  167POPC   C3B 2376   7.579   9.635   5.487
  167POPC   C4B 2377   7.332   9.918   5.717
  168POPC   NC3 2378   9.010   7.470   3.915
  168POPC   PO4 2379   8.550   7.071   4.064
  168POPC   GL1 2380   8.848   7.076   4.367
  168POPC   GL2 2381   8.909   7.408   4.396
  168POPC   C1A 2382   8.817   7.161   4.821
  168POPC   D2A 2383   8.787   7.331   5.227
  168POPC   C3A 2384   8.819   7.006   5.559
  168POPC   C4A 2385   9.039   7.137   5.952
  168POPC   C1B 2386   8.928   7.722   4.705
  168POPC   C2B 2387   8.949   7.989   5.072
  168POPC   C3B 2388   8.926   7.836   5.507
  168POPC   C4B 2389   8.763   7.487   5.725
  169POPC   NC3 2390   3.932   8.045   4.055
  169POPC   PO4 2391   3.266   7.855   3.881
  169POPC   GL1 2392   3.442   8.076   4.265
  169POPC   GL2 2393   3.630   8.416   4.269
  169POPC   C1A 2394   3.415   8.181   4.708
  169POPC   D2A 2395   3.265   7.989   5.088
  169POPC   C3A 2396   3.450   8.120   5.476
  169POPC   C4A 2397   3.370   7.908   5.864
  169POPC   C1B 2398   3.739   8.573   4.705
  169POPC   C2B 2399   3.852   8.373   5.119
  169POPC   C3B 2400   3.954   8.346   5.577
  169POPC   C4B 2401   3.660   8.376   5.888
  170POPC   NC3 2402   7.264   0.929   3.944
  170POPC   PO4 2403   7.391   1.565   3.947
  170POPC   GL1 2404   7.401   1.215   4.321
  170POPC   GL2 2405   7.730   1.229   4.479
  170POPC   C1A 2406   7.405   0.995   4.776
  170POPC   D2A 2407   7.487   1.218   5.190
  170POPC   C3A 2408   7.391   0.940   5.527
  170POPC   C4A 2409   6.997   0.799   5.680
  170POPC   C1B 2410   7.345   1.489   4.718
  170POPC   C2B 2411   7.096   1.543   5.067
  170POPC   C3B 2412   7.237   1.632   5.455
  170POPC   C4B 2413   7.452   1.405   5.726
  171POPC   NC3 2414   2.260   6.228   3.979
  171POPC   PO4 2415   1.617   6.325   4.053
  171POPC   GL1 2416   1.914   6.102   4.328
  171POPC   GL2 2417   1.883   5.745   4.292
  171POPC   C1A 2418   2.149   6.013   4.736
  171POPC   D2A 2419   1.977   5.944   5.182
  171POPC   C3A 2420   2.147   5.938   5.626
  171POPC   C4A 2421   2.263   5.922   6.103
  171POPC   C1B 2422   1.678   5.857   4.713
  171POPC   C2B 2423   1.459   5.943   5.108
  171POPC   C3B 2424   1.601   5.965   5.567
  171POPC   C4B 2425   1.761   5.711   5.949
  172POPC   NC3 2426   0.751   4.149   3.878
  172POPC   PO4 2427   1.444   3.900   3.746
  172POPC   GL1 2428   1.349   3.987   4.207
  172POPC   GL2 2429   1.114   4.245   4.230
  172POPC   C1A 2430   1.278   3.977   4.680
  172POPC   D2A 2431   1.100   3.953   5.126
  172POPC   C3A 2432   1.065   4.132   5.542
  172POPC   C4A 2433   0.652   4.040   5.756
  172POPC   C1B 2434   1.236   4.482   4.591
  172POPC   C2B 2435   1.261   4.624   5.015
  172POPC   C3B 2436   1.216   4.640   5.468
  172POPC   C4B 2437   1.439   4.445   5.794
  173POPC   NC3 2438   2.167   7.298   3.883
  173POPC   PO4 2439   2.430   6.646   3.899
  173POPC   GL1 2440   2.191   6.589   4.351
  173POPC   GL2 2441   1.818   6.618   4.405
  173POPC   C1A 2442   2.057   6.783   4.802
  173POPC   D2A 2443   2.005   7.054   5.188
  173POPC   C3A 2444   2.335   7.085   5.486
  173POPC   C4A 2445   2.316   6.743   5.743
  173POPC   C1B 2446   1.774   6.355   4.769
  173POPC   C2B 2447   1.700   6.404   5.196
  173POPC   C3B 2448   1.942   6.401   5.567
  173POPC   C4B 2449   1.862   6.208   5.940
  174POPC   NC3 2450   7.102   4.552   4.047
  174POPC   PO4 2451   7.462   4.012   4.023
  174POPC   GL1 2452   7.409   4.242   4.376
  174POPC   GL2 2453   7.664   4.058   4.501
  174POPC   C1A 2454   7.335   4.294   4.829
  174POPC   D2A 2455   7.416   4.165   5.256
  174POPC   C3A 2456   7.159   4.286   5.650
  174POPC   C4A 2457   7.245   4.087   6.072
  174POPC   C1B 2458   7.864   4.320   4.759
  174POPC   C2B 2459   7.903   4.436   5.168
  174POPC   C3B 2460   7.654   4.530   5.523
  174POPC   C4B 2461   7.632   4.143   5.719
  175POPC   NC3 2462   4.182   7.334   4.157
  175POPC   PO4 2463   3.959   6.779   4.132
  175POPC   GL1 2464   3.971   7.010   4.527
  175POPC   GL2 2465   3.941   7.384   4.613
  175POPC   C1A 2466   4.258   7.033   4.866
  175POPC   D2A 2467   4.499   7.210   5.239
  175POPC   C3A 2468   4.399   7.105   5.673
  175POPC   C4A 2469   4.348   6.941   6.091
  175POPC   C1B 2470   4.080   7.500   4.993
  175POPC   C2B 2471   4.040   7.417   5.402
  175POPC   C3B 2472   4.276   7.591   5.707
  175POPC   C4B 2473   4.268   7.441   6.112
  176POPC   NC3 2474   8.614   4.890   4.174
  176POPC   PO4 2475   8.213   5.359   3.746
  176POPC   GL1 2476   8.326   5.324   4.126
  176POPC   GL2 2477   8.105   5.041   4.197
  176POPC   C1A 2478   8.387   5.368   4.547
  176POPC   D2A 2479   8.340   5.237   4.955
  176POPC   C3A 2480   8.292   5.282   5.419
  176POPC   C4A 2481   8.422   5.351   5.863
  176POPC   C1B 2482   7.962   5.054   4.629
  176POPC   C2B 2483   7.958   4.949   5.086
  176POPC   C3B 2484   8.085   4.812   5.458
  176POPC   C4B 2485   8.325   4.817   5.761
  177POPC   NC3 2486   0.329   4.747   3.738
  177POPC   PO4 2487   0.276   4.129   4.018
  177POPC   GL1 2488   0.392   4.430   4.360
  177POPC   GL2 2489   0.640   4.220   4.411
  177POPC   C1A 2490   0.391   4.464   4.864
  177POPC   D2A 2491   0.754   4.548   5.197
  177POPC   C3A 2492   0.723   4.512   5.626
  177POPC   C4A 2493   0.518   4.417   6.086
  177POPC   C1B 2494   0.821   4.203   4.799
  177POPC   C2B 2495   0.617   4.065   5.206
  177POPC   C3B 2496   0.298   4.307   5.438
  177POPC   C4B 2497   0.124   4.206   5.861
  178POPC   NC3 2498   8.669   9.707   4.098
  178POPC   PO4 2499   9.289   9.436   3.876
  178POPC   GL1 2500   9.116   9.590   4.278
  178POPC   GL2 2501   9.097   9.958   4.380
  178POPC   C1A 2502   8.978   9.535   4.690
  178POPC   D2A 2503   9.144   9.401   5.063
  178POPC   C3A 2504   8.959   9.490   5.473
  178POPC   C4A 2505   9.042   9.207   5.799
  178POPC   C1B 2506   8.840   0.018   4.782
  178POPC   C2B 2507   8.964   9.938   5.231
  178POPC   C3B 2508   8.900   9.947   5.715
  178POPC   C4B 2509   8.706   9.999   6.158
  179POPC   NC3 2510   3.505   7.462   3.720
  179POPC   PO4 2511   4.106   7.669   3.809
  179POPC   GL1 2512   3.704   7.612   4.159
  179POPC   GL2 2513   3.645   7.296   4.227
  179POPC   C1A 2514   3.494   7.656   4.606
  179POPC   D2A 2515   3.366   7.495   5.021
  179POPC   C3A 2516   3.541   7.614   5.421
  179POPC   C4A 2517   3.405   7.385   5.814
  179POPC   C1B 2518   3.488   7.131   4.624
  179POPC   C2B 2519   3.714   7.128   5.014
  179POPC   C3B 2520   3.633   7.114   5.452
  179POPC   C4B 2521   3.902   7.167   5.840
  180POPC   NC3 2522   9.983   2.674   3.928
  180POPC   PO4 2523   0.114   3.281   4.272
  180POPC   GL1 2524   9.807   3.081   4.397
  180POPC   GL2 2525   9.526   2.895   4.332
  180POPC   C1A 2526   9.749   2.968   4.779
  180POPC   D2A 2527   9.553   3.063   5.082
  180POPC   C3A 2528   9.785   2.890   5.421
  180POPC   C4A 2529   9.619   3.067   5.769
  180POPC   C1B 2530   9.509   2.533   4.687
  180POPC   C2B 2531   9.479   2.542   5.133
  180POPC   C3B 2532   9.283   2.837   5.445
  180POPC   C4B 2533   9.377   2.598   5.801
  181POPC   NC3 2534   1.015   1.249   4.003
  181POPC   PO4 2535   0.888   0.669   3.682
  181POPC   GL1 2536   1.170   0.785   4.147
  181POPC   GL2 2537   1.427   1.028   4.316
  181POPC   C1A 2538   1.032   0.976   4.617
  181POPC   D2A 2539   1.202   1.262   4.940
  181POPC   C3A 2540   1.193   1.188   5.386
  181POPC   C4A 2541   1.187   1.090   5.824
  181POPC   C1B 2542   1.617   1.356   4.679
  181POPC   C2B 2543   1.621   1.512   5.159
  181POPC   C3B 2544   1.616   1.385   5.627
  181POPC   C4B 2545   1.548   1.361   6.104
  182POPC   NC3 2546   2.190   1.684   3.546
  182POPC   PO4 2547   1.935   1.823   4.122
  182POPC   GL1 2548   1.835   2.061   4.471
  182POPC   GL2 2549   1.685   2.354   4.352
  182POPC   C1A 2550   1.901   1.878   4.883
  182POPC   D2A 2551   2.301   1.922   5.097
  182POPC   C3A 2552   2.359   2.142   5.430
  182POPC   C4A 2553   2.137   2.052   5.776
  182POPC   C1B 2554   1.719   2.547   4.758
  182POPC   C2B 2555   1.924   2.335   5.135
  182POPC   C3B 2556   1.804   1.995   5.394
  182POPC   C4B 2557   1.669   2.246   5.735
  183POPC   NC3 2558   7.760   1.251   3.961
  183POPC   PO4 2559   8.362   1.573   3.744
  183POPC   GL1 2560   8.128   1.535   4.209
  183POPC   GL2 2561   8.275   1.250   4.365
  183POPC   C1A 2562   8.084   1.495   4.743
  183POPC   D2A 2563   8.219   1.332   5.192
  183POPC   C3A 2564   7.974   1.343   5.652
  183POPC   C4A 2565   7.780   1.563   6.073
  183POPC   C1B 2566   8.458   1.076   4.777
  183POPC   C2B 2567   8.456   0.883   5.208
  183POPC   C3B 2568   8.448   1.103   5.653
  183POPC   C4B 2569   8.441   0.875   6.084
  184POPC   NC3 2570   8.269   8.923   3.854
  184POPC   PO4 2571   7.602   9.101   3.873
  184POPC   GL1 2572   7.946   9.030   4.226
  184POPC   GL2 2573   8.191   8.759   4.308
  184POPC   C1A 2574   8.087   9.159   4.647
  184POPC   D2A 2575   7.857   9.304   5.008
  184POPC   C3A 2576   8.025   9.229   5.408
  184POPC   C4A 2577   7.832   8.958   5.707
  184POPC   C1B 2578   8.319   8.679   4.704
  184POPC   C2B 2579   8.270   8.870   5.086
  184POPC   C3B 2580   8.471   8.739   5.425
  184POPC   C4B 2581   8.307   8.809   5.775
  185POPC   NC3 2582   8.138   9.466   3.742
  185POPC   PO4 2583   8.364   0.097   4.000
  185POPC   GL1 2584   8.225   9.795   4.307
  185POPC   GL2 2585   7.966   9.542   4.251
  185POPC   C1A 2586   8.413   9.620   4.700
  185POPC   D2A 2587   8.631   9.583   5.072
  185POPC   C3A 2588   8.513   9.785   5.434
  185POPC   C4A 2589   8.505   9.645   5.860
  185POPC   C1B 2590   7.920   9.723   4.698
  185POPC   C2B 2591   8.094   9.734   5.146
  185POPC   C3B 2592   8.035   9.790   5.607
  185POPC   C4B 2593   7.830   0.108   5.862
  186POPC   NC3 2594   5.008   2.135   3.938
  186POPC   PO4 2595   5.170   1.435   4.093
  186POPC   GL1 2596   5.054   1.642   4.418
  186POPC   GL2 2597   5.168   1.972   4.381
  186POPC   C1A 2598   4.971   1.797   4.827
  186POPC   D2A 2599   5.175   1.870   5.229
  186POPC   C3A 2600   4.906   2.045   5.562
  186POPC   C4A 2601   4.825   1.958   6.003
  186POPC   C1B 2602   5.070   2.295   4.711
  186POPC   C2B 2603   4.941   2.373   5.134
  186POPC   C3B 2604   5.138   2.516   5.521
  186POPC   C4B 2605   5.155   2.364   5.930
  187POPC   NC3 2606   3.391   2.890   3.871
  187POPC   PO4 2607   4.031   3.167   3.998
  187POPC   GL1 2608   3.808   2.966   4.350
  187POPC   GL2 2609   3.517   2.719   4.379
  187POPC   C1A 2610   3.616   3.038   4.767
  187POPC   D2A 2611   3.300   2.739   4.945
  187POPC   C3A 2612   3.270   2.842   5.377
  187POPC   C4A 2613   2.979   2.862   5.682
  187POPC   C1B 2614   3.765   2.557   4.775
  187POPC   C2B 2615   3.631   2.495   5.255
  187POPC   C3B 2616   3.549   2.468   5.740
  187POPC   C4B 2617   3.654   2.550   6.199
  188POPC   NC3 2618   2.860   8.085   3.802
  188POPC   PO4 2619   2.267   7.832   3.917
  188POPC   GL1 2620   2.538   8.015   4.260
  188POPC   GL2 2621   2.869   8.217   4.281
  188POPC   C1A 2622   2.445   8.146   4.690
  188POPC   D2A 2623   2.212   8.038   5.077
  188POPC   C3A 2624   2.452   8.047   5.433
  188POPC   C4A 2625   2.513   8.398   5.696
  188POPC   C1B 2626   2.939   8.000   4.646
  188POPC   C2B 2627   2.865   8.287   4.982
  188POPC   C3B 2628   2.923   8.209   5.404
  188POPC   C4B 2629   2.909   8.110   5.824
  189POPC   NC3 2630   9.295   5.089   3.973
  189POPC   PO4 2631   9.959   5.317   4.173
  189POPC   GL1 2632   9.635   5.029   4.364
  189POPC   GL2 2633   9.507   4.698   4.281
  189POPC   C1A 2634   9.454   4.976   4.789
  189POPC   D2A 2635   9.617   5.128   5.143
  189POPC   C3A 2636   9.494   4.944   5.539
  189POPC   C4A 2637   9.423   5.170   5.924
  189POPC   C1B 2638   9.792   4.642   4.681
  189POPC   C2B 2639   9.925   4.633   5.121
  189POPC   C3B 2640   0.025   4.983   5.413
  189POPC   C4B 2641   9.909   5.030   5.849
  190POPC   NC3 2642   8.740   1.271   3.767
  190POPC   PO4 2643   9.332   1.456   3.968
  190POPC   GL1 2644   8.935   1.356   4.231
  190POPC   GL2 2645   8.712   1.040   4.223
  190POPC   C1A 2646   8.826   1.420   4.660
  190POPC   D2A 2647   9.049   1.494   5.047
  190POPC   C3A 2648   8.871   1.363   5.436
  190POPC   C4A 2649   9.117   1.402   5.803
  190POPC   C1B 2650   8.911   0.906   4.560
  190POPC   C2B 2651   8.942   0.984   4.990
  190POPC   C3B 2652   8.930   0.871   5.410
  190POPC   C4B 2653   8.900   0.926   5.852
  191POPC   NC3 2654   0.773   2.700   4.197
  191POPC   PO4 2655   1.363   2.425   3.969
  191POPC   GL1 2656   1.289   2.720   4.307
  191POPC   GL2 2657   1.343   3.055   4.128
  191POPC   C1A 2658   1.069   2.929   4.707
  191POPC   D2A 2659   0.958   2.933   5.164
  191POPC   C3A 2660   1.250   2.694   5.373
  191POPC   C4A 2661   1.556   2.744   5.689
  191POPC   C1B 2662   1.544   3.101   4.526
  191POPC   C2B 2663   1.492   3.021   4.977
  191POPC   C3B 2664   1.473   3.169   5.389
  191POPC   C4B 2665   1.173   3.133   5.736
  192POPC   NC3 2666   1.914   9.704   3.832
  192POPC   PO4 2667   1.349   9.713   4.106
  192POPC   GL1 2668   1.756   9.613   4.298
  192POPC   GL2 2669   2.094   9.811   4.290
  192POPC   C1A 2670   1.820   9.416   4.681
  192POPC   D2A 2671   1.927   9.511   5.091
  192POPC   C3A 2672   1.886   9.549   5.538
  192POPC   C4A 2673   1.655   9.373   5.868
  192POPC   C1B 2674   2.221   9.713   4.699
  192POPC   C2B 2675   2.386   9.910   5.031
  192POPC   C3B 2676   2.238   0.104   5.377
  192POPC   C4B 2677   2.148   9.969   5.757
  193POPC   NC3 2678   7.933   6.203   4.134
  193POPC   PO4 2679   8.347   6.628   3.781
  193POPC   GL1 2680   8.219   6.660   4.253
  193POPC   GL2 2681   7.944   6.909   4.390
  193POPC   C1A 2682   8.250   6.593   4.726
  193POPC   D2A 2683   8.373   6.453   5.181
  193POPC   C3A 2684   8.395   6.632   5.638
  193POPC   C4A 2685   8.323   6.425   6.036
  193POPC   C1B 2686   7.848   6.912   4.829
  193POPC   C2B 2687   7.856   6.525   5.079
  193POPC   C3B 2688   7.949   6.385   5.495
  193POPC   C4B 2689   7.874   6.654   5.838
  194POPC   NC3 2690   7.768   5.344   3.894
  194POPC   PO4 2691   7.502   4.733   3.957
  194POPC   GL1 2692   7.636   4.702   4.376
  194POPC   GL2 2693   7.296   4.853   4.429
  194POPC   C1A 2694   7.589   4.736   4.828
  194POPC   D2A 2695   7.450   5.064   5.100
  194POPC   C3A 2696   7.646   5.062   5.501
  194POPC   C4A 2697   7.941   5.213   5.786
  194POPC   C1B 2698   7.083   4.761   4.830
  194POPC   C2B 2699   7.210   4.642   5.259
  194POPC   C3B 2700   7.255   4.810   5.686
  194POPC   C4B 2701   7.208   5.043   6.113
  195POPC   NC3 2702   3.620   1.843   4.081
  195POPC   PO4 2703   3.688   2.508   3.923
  195POPC   GL1 2704   3.730   2.261   4.346
  195POPC   GL2 2705   3.363   2.184   4.366
  195POPC   C1A 2706   3.833   1.925   4.694
  195POPC   D2A 2707   4.004   1.718   5.091
  195POPC   C3A 2708   3.845   1.786   5.542
  195POPC   C4A 2709   3.962   1.603   5.975
  195POPC   C1B 2710   3.404   2.216   4.795
  195POPC   C2B 2711   3.564   2.007   5.146
  195POPC   C3B 2712   3.388   2.018   5.555
  195POPC   C4B 2713   3.482   1.788   5.921
  196POPC   NC3 2714   4.722   1.391   4.041
  196POPC   PO4 2715   4.023   1.566   3.967
  196POPC   GL1 2716   4.044   1.412   4.406
  196POPC   GL2 2717   4.082   1.076   4.330
  196POPC   C1A 2718   4.067   1.230   4.856
  196POPC   D2A 2719   3.939   1.258   5.320
  196POPC   C3A 2720   4.259   1.523   5.517
  196POPC   C4A 2721   4.660   1.594   5.653
  196POPC   C1B 2722   4.465   1.023   4.596
  196POPC   C2B 2723   4.561   0.988   5.042
  196POPC   C3B 2724   4.523   1.090   5.489
  196POPC   C4B 2725   4.156   1.135   5.794
  197POPC   NC3 2726   7.396   7.692   3.757
  197POPC   PO4 2727   6.901   7.939   4.135
  197POPC   GL1 2728   7.097   8.129   4.462
  197POPC   GL2 2729   7.371   8.360   4.389
  197POPC   C1A 2730   7.014   8.367   4.807
  197POPC   D2A 2731   7.217   8.560   5.140
  197POPC   C3A 2732   7.096   8.303   5.456
  197POPC   C4A 2733   7.288   8.083   5.753
  197POPC   C1B 2734   7.506   8.158   4.803
  197POPC   C2B 2735   7.594   8.192   5.261
  197POPC   C3B 2736   7.772   8.109   5.673
  197POPC   C4B 2737   7.617   8.175   6.134
  198POPC   NC3 2738   8.902   3.497   3.701
  198POPC   PO4 2739   9.322   3.835   4.079
  198POPC   GL1 2740   9.098   3.701   4.386
  198POPC   GL2 2741   8.863   3.497   4.248
  198POPC   C1A 2742   9.058   3.587   4.795
  198POPC   D2A 2743   9.098   3.306   5.105
  198POPC   C3A 2744   9.130   3.560   5.462
  198POPC   C4A 2745   9.188   3.367   5.861
  198POPC   C1B 2746   8.593   3.644   4.575
  198POPC   C2B 2747   8.597   3.536   5.022
  198POPC   C3B 2748   8.475   3.547   5.435
  198POPC   C4B 2749   8.722   3.581   5.771
  199POPC   NC3 2750   1.870   9.057   3.828
  199POPC   PO4 2751   2.348   9.479   3.971
  199POPC   GL1 2752   2.177   9.306   4.332
  199POPC   GL2 2753   2.118   8.973   4.283
  199POPC   C1A 2754   2.290   9.174   4.749
  199POPC   D2A 2755   2.114   8.886   5.040
  199POPC   C3A 2756   1.944   9.044   5.381
  199POPC   C4A 2757   2.109   9.089   5.762
  199POPC   C1B 2758   1.812   8.898   4.624
  199POPC   C2B 2759   1.578   8.840   5.019
  199POPC   C3B 2760   1.541   8.711   5.454
  199POPC   C4B 2761   1.688   8.861   5.826
  200POPC   NC3 2762   7.927   0.372   4.108
  200POPC   PO4 2763   7.675   0.846   3.753
  200POPC   GL1 2764   8.028   0.864   4.137
  200POPC   GL2 2765   8.336   0.633   4.259
  200POPC   C1A 2766   8.045   0.835   4.614
  200POPC   D2A 2767   7.901   0.972   5.010
  200POPC   C3A 2768   7.872   0.658   5.352
  200POPC   C4A 2769   8.043   0.565   5.768
  200POPC   C1B 2770   8.271   0.253   4.619
  200POPC   C2B 2771   8.397   0.135   5.027
  200POPC   C3B 2772   8.193   0.225   5.402
  200POPC   C4B 2773   8.371   0.138   5.793
  201POPC   NC3 2774   8.950   9.232   3.628
  201POPC   PO4 2775   8.419   9.313   4.073
  201POPC   GL1 2776   8.724   9.230   4.355
  201POPC   GL2 2777   9.050   9.093   4.193
  201POPC   C1A 2778   8.616   9.141   4.789
  201POPC   D2A 2779   8.756   9.098   5.213
  201POPC   C3A 2780   8.529   9.226   5.587
  201POPC   C4A 2781   8.524   9.167   6.064
  201POPC   C1B 2782   9.107   9.034   4.661
  201POPC   C2B 2783   9.078   8.746   5.033
  201POPC   C3B 2784   9.054   8.772   5.488
  201POPC   C4B 2785   8.802   8.772   5.831
  202POPC   NC3 2786   7.314   3.578   3.978
  202POPC   PO4 2787   7.616   3.047   3.818
  202POPC   GL1 2788   7.563   3.242   4.263
  202POPC   GL2 2789   7.487   3.559   4.434
  202POPC   C1A 2790   7.309   3.130   4.659
  202POPC   D2A 2791   7.144   2.983   5.036
  202POPC   C3A 2792   7.178   3.208   5.402
  202POPC   C4A 2793   7.324   3.267   5.809
  202POPC   C1B 2794   7.302   3.765   4.765
  202POPC   C2B 2795   7.220   3.687   5.196
  202POPC   C3B 2796   7.237   3.763   5.637
  202POPC   C4B 2797   7.565   3.699   5.920
  203POPC   NC3 2798   5.778   0.136   3.546
  203POPC   PO4 2799   5.504   0.493   4.075
  203POPC   GL1 2800   5.927   0.468   4.228
  203POPC   GL2 2801   5.940   0.734   4.453
  203POPC   C1A 2802   6.145   0.311   4.629
  203POPC   D2A 2803   6.061   0.076   5.028
  203POPC   C3A 2804   6.159   0.262   5.421
  203POPC   C4A 2805   5.966   0.221   5.799
  203POPC   C1B 2806   5.712   0.596   4.756
  203POPC   C2B 2807   5.716   0.790   5.101
  203POPC   C3B 2808   5.786   0.603   5.461
  203POPC   C4B 2809   5.553   0.614   5.780
  204POPC   NC3 2810   4.449   7.940   3.694
  204POPC   PO4 2811   4.154   7.748   4.326
  204POPC   GL1 2812   3.878   7.968   4.562
  204POPC   GL2 2813   4.068   8.249   4.509
  204POPC   C1A 2814   3.750   7.888   4.987
  204POPC   D2A 2815   4.012   7.912   5.333
  204POPC   C3A 2816   3.857   7.869   5.749
  204POPC   C4A 2817   4.088   7.910   6.113
  204POPC   C1B 2818   4.484   8.218   4.694
  204POPC   C2B 2819   4.595   8.279   5.128
  204POPC   C3B 2820   4.465   8.120   5.545
  204POPC   C4B 2821   4.371   8.341   5.919
  205POPC   NC3 2822   5.749   8.282   4.026
  205POPC   PO4 2823   6.155   7.767   3.952
  205POPC   GL1 2824   5.913   7.920   4.371
  205POPC   GL2 2825   5.751   8.282   4.505
  205POPC   C1A 2826   6.026   8.071   4.821
  205POPC   D2A 2827   5.799   8.335   5.129
  205POPC   C3A 2828   5.948   8.271   5.575
  205POPC   C4A 2829   6.013   7.977   5.936
  205POPC   C1B 2830   5.527   7.963   4.744
  205POPC   C2B 2831   5.386   8.001   5.173
  205POPC   C3B 2832   5.498   8.011   5.613
  205POPC   C4B 2833   5.525   7.874   6.050
  206POPC   NC3 2834   9.610   9.172   4.068
  206POPC   PO4 2835   0.009   8.675   3.916
  206POPC   GL1 2836   9.973   8.919   4.286
  206POPC   GL2 2837   9.701   8.719   4.364
  206POPC   C1A 2838   9.942   9.080   4.713
  206POPC   D2A 2839   0.219   9.143   5.062
  206POPC   C3A 2840   0.106   9.338   5.441
  206POPC   C4A 2841   9.828   9.245   5.780
  206POPC   C1B 2842   9.535   8.778   4.774
  206POPC   C2B 2843   9.562   8.821   5.226
  206POPC   C3B 2844   9.540   8.842   5.667
  206POPC   C4B 2845   9.289   8.672   5.987
  207POPC   NC3 2846   2.898   1.350   4.054
  207POPC   PO4 2847   2.323   1.009   3.965
  207POPC   GL1 2848   2.630   0.992   4.321
  207POPC   GL2 2849   2.747   1.279   4.526
  207POPC   C1A 2850   2.574   0.878   4.788
  207POPC   D2A 2851   2.721   1.127   5.090
  207POPC   C3A 2852   2.455   1.091   5.424
  207POPC   C4A 2853   2.493   0.938   5.847
  207POPC   C1B 2854   3.091   1.357   4.783
  207POPC   C2B 2855   3.235   1.124   5.104
  207POPC   C3B 2856   3.115   1.147   5.532
  207POPC   C4B 2857   2.896   1.211   5.921
  208POPC   NC3 2858   6.387   9.004   4.163
  208POPC   PO4 2859   6.935   8.897   3.848
  208POPC   GL1 2860   6.782   8.772   4.343
  208POPC   GL2 2861   6.685   9.133   4.571
  208POPC   C1A 2862   6.614   8.714   4.792
  208POPC   D2A 2863   6.694   8.524   5.193
  208POPC   C3A 2864   6.771   8.685   5.587
  208POPC   C4A 2865   6.771   8.623   6.030
  208POPC   C1B 2866   6.320   9.164   4.835
  208POPC   C2B 2867   6.374   9.150   5.253
  208POPC   C3B 2868   6.662   9.198   5.541
  208POPC   C4B 2869   6.481   8.996   5.866
  209POPC   NC3 2870   2.956   5.723   4.065
  209POPC   PO4 2871   2.294   5.751   3.948
  209POPC   GL1 2872   2.414   5.841   4.327
  209POPC   GL2 2873   2.680   6.084   4.354
  209POPC   C1A 2874   2.578   5.739   4.729
  209POPC   D2A 2875   2.545   5.995   5.098
  209POPC   C3A 2876   2.636   5.859   5.528
  209POPC   C4A 2877   2.692   5.593   5.892
  209POPC   C1B 2878   2.945   6.117   4.784
  209POPC   C2B 2879   3.077   5.964   5.253
  209POPC   C3B 2880   3.093   5.911   5.759
  209POPC   C4B 2881   3.263   5.909   6.237
  210POPC   NC3 2882   1.234   7.456   3.904
  210POPC   PO4 2883   0.944   6.864   4.005
  210POPC   GL1 2884   1.121   7.140   4.300
  210POPC   GL2 2885   0.985   7.503   4.348
  210POPC   C1A 2886   1.221   7.192   4.726
  210POPC   D2A 2887   1.152   7.302   5.157
  210POPC   C3A 2888   1.252   7.099   5.561
  210POPC   C4A 2889   1.388   6.935   5.984
  210POPC   C1B 2890   0.933   7.630   4.783
  210POPC   C2B 2891   1.181   7.812   5.134
  210POPC   C3B 2892   1.238   7.639   5.529
  210POPC   C4B 2893   1.462   7.460   5.879
  211POPC   NC3 2894   2.119   7.656   4.317
  211POPC   PO4 2895   1.684   7.312   3.925
  211POPC   GL1 2896   1.824   7.113   4.277
  211POPC   GL2 2897   2.163   7.094   4.366
  211POPC   C1A 2898   1.736   7.164   4.694
  211POPC   D2A 2899   1.571   7.485   4.947
  211POPC   C3A 2900   1.652   7.385   5.373
  211POPC   C4A 2901   1.894   7.214   5.712
  211POPC   C1B 2902   2.230   7.270   4.788
  211POPC   C2B 2903   2.056   7.554   5.061
  211POPC   C3B 2904   2.154   7.602   5.467
  211POPC   C4B 2905   2.520   7.608   5.695
  212POPC   NC3 2906   9.495   1.891   3.952
  212POPC   PO4 2907   9.585   2.484   4.061
  212POPC   GL1 2908   9.688   2.147   4.386
  212POPC   GL2 2909   9.884   1.814   4.330
  212POPC   C1A 2910   9.719   2.063   4.845
  212POPC   D2A 2911   9.830   2.129   5.278
  212POPC   C3A 2912   9.492   2.150   5.564
  212POPC   C4A 2913   9.304   2.010   5.957
  212POPC   C1B 2914   9.694   1.567   4.697
  212POPC   C2B 2915   9.528   1.642   5.148
  212POPC   C3B 2916   9.558   1.632   5.601
  212POPC   C4B 2917   9.858   1.778   5.897
  213POPC   NC3 2918   2.032   5.350   3.980
  213POPC   PO4 2919   2.463   4.868   4.042
  213POPC   GL1 2920   2.198   5.081   4.389
  213POPC   GL2 2921   1.818   5.067   4.379
  213POPC   C1A 2922   2.008   5.437   4.690
  213POPC   D2A 2923   1.690   5.482   5.058
  213POPC   C3A 2924   1.857   5.493   5.491
  213POPC   C4A 2925   2.231   5.457   5.762
  213POPC   C1B 2926   1.672   4.749   4.668
  213POPC   C2B 2927   1.792   4.619   5.074
  213POPC   C3B 2928   1.771   4.682   5.489
  213POPC   C4B 2929   2.082   4.958   5.662
  214POPC   NC3 2930   1.313   8.442   4.044
  214POPC   PO4 2931   0.927   7.862   3.952
  214POPC   GL1 2932   1.108   8.052   4.329
  214POPC   GL2 2933   1.498   8.098   4.362
  214POPC   C1A 2934   1.009   8.142   4.770
  214POPC   D2A 2935   0.712   7.993   5.132
  214POPC   C3A 2936   0.896   8.064   5.547
  214POPC   C4A 2937   1.168   7.933   5.917
  214POPC   C1B 2938   1.494   8.415   4.709
  214POPC   C2B 2939   1.303   8.368   5.127
  214POPC   C3B 2940   1.397   8.213   5.534
  214POPC   C4B 2941   1.678   8.344   5.851
  215POPC   NC3 2942   5.192   8.685   3.579
  215POPC   PO4 2943   4.799   8.968   4.015
  215POPC   GL1 2944   4.900   8.825   4.412
  215POPC   GL2 2945   5.201   8.754   4.424
  215POPC   C1A 2946   4.817   8.617   4.788
  215POPC   D2A 2947   4.742   8.803   5.169
  215POPC   C3A 2948   4.727   8.581   5.554
  215POPC   C4A 2949   4.846   8.614   5.967
  215POPC   C1B 2950   5.198   9.166   4.632
  215POPC   C2B 2951   5.084   9.205   5.066
  215POPC   C3B 2952   5.147   8.990   5.459
  215POPC   C4B 2953   5.081   9.050   5.886
  216POPC   NC3 2954   2.880   6.599   3.941
  216POPC   PO4 2955   3.330   7.080   3.931
  216POPC   GL1 2956   3.158   6.849   4.345
  216POPC   GL2 2957   2.889   6.554   4.465
  216POPC   C1A 2958   3.027   6.910   4.807
  216POPC   D2A 2959   2.717   6.651   5.108
  216POPC   C3A 2960   2.795   6.710   5.573
  216POPC   C4A 2961   3.132   6.900   5.815
  216POPC   C1B 2962   2.499   6.388   4.706
  216POPC   C2B 2963   2.230   6.401   5.076
  216POPC   C3B 2964   2.434   6.349   5.440
  216POPC   C4B 2965   2.528   6.283   5.830
  217POPC   NC3 2966   2.857   3.763   3.494
  217POPC   PO4 2967   2.847   4.115   4.072
  217POPC   GL1 2968   2.692   4.288   4.486
  217POPC   GL2 2969   2.518   4.622   4.496
  217POPC   C1A 2970   2.805   4.163   4.921
  217POPC   D2A 2971   3.100   4.023   5.275
  217POPC   C3A 2972   3.023   4.003   5.734
  217POPC   C4A 2973   2.847   4.127   6.158
  217POPC   C1B 2974   2.402   4.482   4.935
  217POPC   C2B 2975   2.440   4.152   5.277
  217POPC   C3B 2976   2.551   4.217   5.716
  217POPC   C4B 2977   2.443   4.648   5.836
  218POPC   NC3 2978   3.093   7.509   4.141
  218POPC   PO4 2979   2.494   7.449   4.192
  218POPC   GL1 2980   2.762   7.244   4.431
  218POPC   GL2 2981   2.649   6.946   4.255
  218POPC   C1A 2982   2.912   7.478   4.787
  218POPC   D2A 2983   2.781   7.774   5.117
  218POPC   C3A 2984   3.033   7.718   5.492
  218POPC   C4A 2985   2.968   7.611   5.917
  218POPC   C1B 2986   2.537   6.888   4.687
  218POPC   C2B 2987   2.635   7.154   5.070
  218POPC   C3B 2988   2.852   7.230   5.463
  218POPC   C4B 2989   2.696   7.157   5.867
  219POPC   NC3 2990   2.476   4.408   4.027
  219POPC   PO4 2991   1.865   4.079   4.184
  219POPC   GL1 2992   2.194   4.176   4.409
  219POPC   GL2 2993   2.049   4.436   4.578
  219POPC   C1A 2994   2.219   4.023   4.820
  219POPC   D2A 2995   1.979   3.908   5.186
  219POPC   C3A 2996   2.198   3.854   5.613
  219POPC   C4A 2997   2.193   3.883   6.107
  219POPC   C1B 2998   1.714   4.201   4.807
  219POPC   C2B 2999   1.517   4.207   5.220
  219POPC   C3B 3000   1.702   4.076   5.579
  219POPC   C4B 3001   2.059   4.332   5.715
  220POPC   NC3 3002   5.550   9.964   4.061
  220POPC   PO4 3003   6.213   0.078   3.871
  220POPC   GL1 3004   6.012   9.949   4.308
  220POPC   GL2 3005   5.779   9.686   4.396
  220POPC   C1A 3006   5.685   0.092   4.672
  220POPC   D2A 3007   5.524   0.018   5.095
  220POPC   C3A 3008   5.778   9.885   5.437
  220POPC   C4A 3009   5.828   9.721   5.840
  220POPC   C1B 3010   5.900   9.636   4.808
  220POPC   C2B 3011   6.036   9.516   5.194
  220POPC   C3B 3012   5.799   9.286   5.518
  220POPC   C4B 3013   5.466   9.354   5.787
  221POPC   NC3 3014   9.772   3.986   4.004
  221POPC   PO4 3015   9.955   4.601   3.969
  221POPC   GL1 3016   9.906   4.329   4.326
  221POPC   GL2 3017   9.594   4.196   4.418
  221POPC   C1A 3018   9.975   4.183   4.751
  221POPC   D2A 3019   9.700   4.132   5.083
  221POPC   C3A 3020   9.810   4.151   5.469
  221POPC   C4A 3021   9.829   4.553   5.638
  221POPC   C1B 3022   9.365   3.989   4.748
  221POPC   C2B 3023   9.215   4.059   5.198
  221POPC   C3B 3024   9.349   4.293   5.616
  221POPC   C4B 3025   9.614   4.193   5.987
  222POPC   NC3 3026   9.342   3.309   4.076
  222POPC   PO4 3027   9.925   3.390   3.807
  222POPC   GL1 3028   9.722   3.568   4.253
  222POPC   GL2 3029   9.929   3.772   4.461
  222POPC   C1A 3030   9.539   3.450   4.667
  222POPC   D2A 3031   9.521   3.621   5.063
  222POPC   C3A 3032   9.641   3.447   5.417
  222POPC   C4A 3033   9.565   3.762   5.718
  222POPC   C1B 3034   0.011   3.520   4.841
  222POPC   C2B 3035   0.055   3.218   5.127
  222POPC   C3B 3036   0.131   3.266   5.525
  222POPC   C4B 3037   9.936   3.453   5.836
  223POPC   NC3 3038   1.210   0.161   4.098
  223POPC   PO4 3039   0.708   0.622   4.198
  223POPC   GL1 3040   1.084   0.435   4.512
  223POPC   GL2 3041   1.458   0.452   4.431
  223POPC   C1A 3042   1.372   0.259   4.881
  223POPC   D2A 3043   1.161   0.221   5.242
  223POPC   C3A 3044   1.266   0.137   5.648
  223POPC   C4A 3045   0.906   0.253   5.907
  223POPC   C1B 3046   1.459   0.750   4.740
  223POPC   C2B 3047   1.202   0.737   5.086
  223POPC   C3B 3048   1.297   0.674   5.500
  223POPC   C4B 3049   1.301   0.579   5.911
  224POPC   NC3 3050   8.043   3.024   3.649
  224POPC   PO4 3051   8.493   3.477   3.896
  224POPC   GL1 3052   8.192   3.430   4.274
  224POPC   GL2 3053   7.950   3.707   4.246
  224POPC   C1A 3054   8.273   3.276   4.726
  224POPC   D2A 3055   8.088   3.474   5.105
  224POPC   C3A 3056   8.029   3.248   5.464
  224POPC   C4A 3057   7.921   3.238   5.896
  224POPC   C1B 3058   7.911   3.646   4.668
  224POPC   C2B 3059   7.748   3.864   5.007
  224POPC   C3B 3060   7.715   3.712   5.415
  224POPC   C4B 3061   8.037   3.696   5.720
  225POPC   NC3 3062   6.553   9.662   3.965
  225POPC   PO4 3063   6.061   9.322   4.240
  225POPC   GL1 3064   6.388   9.564   4.437
  225POPC   GL2 3065   6.544   9.933   4.378
  225POPC   C1A 3066   6.405   9.731   4.828
  225POPC   D2A 3067   6.596   9.638   5.184
  225POPC   C3A 3068   6.345   9.798   5.482
  225POPC   C4A 3069   6.236   9.436   5.701
  225POPC   C1B 3070   6.882   9.869   4.710
  225POPC   C2B 3071   7.080   9.803   5.110
  225POPC   C3B 3072   6.883   9.938   5.479
  225POPC   C4B 3073   6.718   9.663   5.788
  226POPC   NC3 3074   9.932   5.802   4.021
  226POPC   PO4 3075   9.374   5.512   3.792
  226POPC   GL1 3076   9.467   5.501   4.240
  226POPC   GL2 3077   9.488   5.823   4.311
  226POPC   C1A 3078   9.619   5.472   4.710
  226POPC   D2A 3079   9.632   5.668   5.149
  226POPC   C3A 3080   9.680   5.433   5.553
  226POPC   C4A 3081   9.901   5.513   5.951
  226POPC   C1B 3082   9.503   5.978   4.732
  226POPC   C2B 3083   9.872   6.104   4.957
  226POPC   C3B 3084   9.946   6.027   5.390
  226POPC   C4B 3085   9.656   5.925   5.684
  227POPC   NC3 3086   8.979   5.719   3.961
  227POPC   PO4 3087   9.224   6.348   3.913
  227POPC   GL1 3088   9.067   6.102   4.321
  227POPC   GL2 3089   8.833   5.824   4.432
  227POPC   C1A 3090   9.016   6.130   4.789
  227POPC   D2A 3091   9.119   5.811   5.105
  227POPC   C3A 3092   9.071   5.976   5.504
  227POPC   C4A 3093   9.206   6.064   5.897
  227POPC   C1B 3094   8.718   5.637   4.810
  227POPC   C2B 3095   8.739   5.441   5.190
  227POPC   C3B 3096   8.661   5.643   5.532
  227POPC   C4B 3097   8.788   5.800   5.893
  228POPC   NC3 3098   8.480   3.057   4.099
  228POPC   PO4 3099   8.070   2.595   3.841
  228POPC   GL1 3100   7.999   2.587   4.285
  228POPC   GL2 3101   7.959   2.937   4.263
  228POPC   C1A 3102   8.142   2.731   4.706
  228POPC   D2A 3103   8.058   2.832   5.149
  228POPC   C3A 3104   8.394   2.666   5.425
  228POPC   C4A 3105   8.422   2.485   5.866
  228POPC   C1B 3106   7.807   3.116   4.690
  228POPC   C2B 3107   7.630   3.177   5.114
  228POPC   C3B 3108   7.628   2.943   5.519
  228POPC   C4B 3109   7.989   2.749   5.731
  229POPC   NC3 3110   5.936   2.872   3.989
  229POPC   PO4 3111   5.328   3.093   4.155
  229POPC   GL1 3112   5.646   2.942   4.410
  229POPC   GL2 3113   5.652   2.607   4.335
  229POPC   C1A 3114   5.838   2.971   4.826
  229POPC   D2A 3115   6.137   2.910   5.144
  229POPC   C3A 3116   6.011   2.922   5.579
  229POPC   C4A 3117   5.764   3.084   5.925
  229POPC   C1B 3118   5.741   2.462   4.731
  229POPC   C2B 3119   6.000   2.423   5.061
  229POPC   C3B 3120   5.960   2.395   5.495
  229POPC   C4B 3121   5.695   2.573   5.816
  230POPC   NC3 3122   1.293   6.053   3.911
  230POPC   PO4 3123   0.968   5.600   3.805
  230POPC   GL1 3124   1.001   5.836   4.252
  230POPC   GL2 3125   1.360   5.823   4.337
  230POPC   C1A 3126   1.043   6.062   4.686
  230POPC   D2A 3127   0.863   5.973   5.080
  230POPC   C3A 3128   1.082   6.029   5.445
  230POPC   C4A 3129   0.989   6.163   5.832
  230POPC   C1B 3130   1.245   5.602   4.702
  230POPC   C2B 3131   1.134   5.519   5.102
  230POPC   C3B 3132   1.338   5.526   5.456
  230POPC   C4B 3133   1.218   5.689   5.811
  231POPC   NC3 3134   4.958   8.510   4.032
  231POPC   PO4 3135   5.439   7.926   4.064
  231POPC   GL1 3136   5.280   8.250   4.342
  231POPC   GL2 3137   4.935   8.257   4.449
  231POPC   C1A 3138   5.329   8.429   4.790
  231POPC   D2A 3139   5.097   8.435   5.193
  231POPC   C3A 3140   5.252   8.479   5.612
  231POPC   C4A 3141   5.151   8.214   5.946
  231POPC   C1B 3142   4.979   8.061   4.839
  231POPC   C2B 3143   4.878   7.873   5.242
  231POPC   C3B 3144   4.942   7.840   5.677
  231POPC   C4B 3145   5.045   7.739   6.115
  232POPC   NC3 3146   7.160   1.887   3.676
  232POPC   PO4 3147   7.606   2.130   4.088
  232POPC   GL1 3148   7.589   2.091   4.447
  232POPC   GL2 3149   7.658   1.724   4.390
  232POPC   C1A 3150   7.375   2.194   4.820
  232POPC   D2A 3151   7.430   2.059   5.230
  232POPC   C3A 3152   7.085   2.144   5.502
  232POPC   C4A 3153   7.032   2.135   5.972
  232POPC   C1B 3154   7.707   1.808   4.843
  232POPC   C2B 3155   7.797   1.626   5.216
  232POPC   C3B 3156   7.794   1.814   5.573
  232POPC   C4B 3157   7.480   1.972   5.749
  233POPC   NC3 3158   0.458   0.901   3.927
  233POPC   PO4 3159   0.685   1.583   3.923
  233POPC   GL1 3160   0.544   1.271   4.279
  233POPC   GL2 3161   0.189   1.174   4.280
  233POPC   C1A 3162   0.515   1.025   4.702
  233POPC   D2A 3163   0.777   1.025   5.103
  233POPC   C3A 3164   0.769   0.872   5.551
  233POPC   C4A 3165   0.669   1.138   5.923
  233POPC   C1B 3166   0.189   1.412   4.658
  233POPC   C2B 3167   0.460   1.424   5.023
  233POPC   C3B 3168   0.441   1.289   5.457
  233POPC   C4B 3169   0.257   1.436   5.856
  234POPC   NC3 3170   3.042   3.701   3.981
  234POPC   PO4 3171   2.438   3.942   3.646
  234POPC   GL1 3172   2.431   3.800   4.119
  234POPC   GL2 3173   2.574   3.447   4.175
  234POPC   C1A 3174   2.612   3.793   4.590
  234POPC   D2A 3175   2.860   3.658   5.000
  234POPC   C3A 3176   2.689   3.730   5.440
  234POPC   C4A 3177   2.618   3.741   5.909
  234POPC   C1B 3178   2.813   3.318   4.591
  234POPC   C2B 3179   3.094   3.207   4.974
  234POPC   C3B 3180   3.113   3.348   5.417
  234POPC   C4B 3181   2.806   3.324   5.735
  235POPC   NC3 3182   0.439   3.243   3.953
  235POPC   PO4 3183   0.448   2.542   3.891
  235POPC   GL1 3184   0.275   2.817   4.295
  235POPC   GL2 3185   9.980   2.602   4.445
  235POPC   C1A 3186   0.255   2.915   4.764
  235POPC   D2A 3187   0.443   2.858   5.174
  235POPC   C3A 3188   0.297   2.779   5.600
  235POPC   C4A 3189   0.155   3.009   5.971
  235POPC   C1B 3190   9.980   2.506   4.911
  235POPC   C2B 3191   0.307   2.329   5.180
  235POPC   C3B 3192   0.695   2.465   5.386
  235POPC   C4B 3193   0.825   2.759   5.674
  236POPC   NC3 3194   1.898   1.338   4.071
  236POPC   PO4 3195   1.677   0.658   4.041
  236POPC   GL1 3196   1.904   0.870   4.368
  236POPC   GL2 3197   2.206   0.760   4.452
  236POPC   C1A 3198   1.907   0.970   4.830
  236POPC   D2A 3199   1.639   0.997   5.168
  236POPC   C3A 3200   1.800   0.796   5.508
  236POPC   C4A 3201   1.669   0.918   5.884
  236POPC   C1B 3202   2.256   1.227   4.597
  236POPC   C2B 3203   2.199   1.424   5.011
  236POPC   C3B 3204   2.100   1.539   5.440
  236POPC   C4B 3205   2.071   1.189   5.730
  237POPC   NC3 3206   2.716   9.797   3.933
  237POPC   PO4 3207   3.103   9.202   4.139
  237POPC   GL1 3208   2.908   9.447   4.493
  237POPC   GL2 3209   2.610   9.620   4.404
  237POPC   C1A 3210   2.690   9.508   4.924
  237POPC   D2A 3211   2.376   9.346   5.232
  237POPC   C3A 3212   2.509   9.334   5.638
  237POPC   C4A 3213   2.859   9.348   5.796
  237POPC   C1B 3214   2.857   9.919   4.667
  237POPC   C2B 3215   2.904   9.961   5.110
  237POPC   C3B 3216   2.683   9.754   5.423
  237POPC   C4B 3217   2.632   9.803   5.851
  238POPC   NC3 3218   7.786   4.351   4.014
  238POPC   PO4 3219   8.468   4.474   3.971
  238POPC   GL1 3220   8.177   4.524   4.321
  238POPC   GL2 3221   8.173   4.158   4.397
  238POPC   C1A 3222   8.273   4.647   4.751
  238POPC   D2A 3223   8.604   4.470   4.997
  238POPC   C3A 3224   8.424   4.427   5.397
  238POPC   C4A 3225   8.093   4.350   5.706
  238POPC   C1B 3226   8.267   3.981   4.840
  238POPC   C2B 3227   8.184   3.973   5.292
  238POPC   C3B 3228   8.431   3.996   5.685
  238POPC   C4B 3229   8.262   3.987   6.078
  239POPC   NC3 3230   9.566   6.641   3.969
  239POPC   PO4 3231   9.936   6.177   4.282
  239POPC   GL1 3232   9.681   6.519   4.452
  239POPC   GL2 3233   9.851   6.865   4.328
  239POPC   C1A 3234   9.520   6.486   4.877
  239POPC   D2A 3235   9.448   6.197   5.223
  239POPC   C3A 3236   9.483   6.397   5.607
  239POPC   C4A 3237   9.496   6.400   6.085
  239POPC   C1B 3238   9.686   6.963   4.726
  239POPC   C2B 3239   9.713   6.893   5.150
  239POPC   C3B 3240   9.846   7.031   5.533
  239POPC   C4B 3241   9.711   6.805   5.856
  240POPC   NC3 3242   5.627   0.960   4.101
  240POPC   PO4 3243   5.890   1.499   3.734
  240POPC   GL1 3244   5.878   1.470   4.240
  240POPC   GL2 3245   5.576   1.425   4.351
  240POPC   C1A 3246   5.891   1.257   4.693
  240POPC   D2A 3247   6.101   1.160   5.077
  240POPC   C3A 3248   5.848   1.144   5.450
  240POPC   C4A 3249   5.900   0.960   5.838
  240POPC   C1B 3250   5.422   1.509   4.748
  240POPC   C2B 3251   5.655   1.509   5.109
  240POPC   C3B 3252   5.628   1.602   5.533
  240POPC   C4B 3253   5.530   1.325   5.864
  241POPC   NC3 3254   2.131   0.582   3.969
  241POPC   PO4 3255   1.712   0.166   3.621
  241POPC   GL1 3256   1.721   0.124   4.110
  241POPC   GL2 3257   1.954   0.318   4.333
  241POPC   C1A 3258   1.712   0.002   4.594
  241POPC   D2A 3259   1.868   0.016   5.010
  241POPC   C3A 3260   1.690   0.310   5.313
  241POPC   C4A 3261   1.738   0.331   5.770
  241POPC   C1B 3262   1.885   0.464   4.757
  241POPC   C2B 3263   2.119   0.601   5.125
  241POPC   C3B 3264   2.289   0.587   5.538
  241POPC   C4B 3265   2.090   0.661   5.940
  242POPC   NC3 3266   6.473   3.225   3.484
  242POPC   PO4 3267   6.273   3.399   4.042
  242POPC   GL1 3268   6.530   3.258   4.396
  242POPC   GL2 3269   6.911   3.222   4.346
  242POPC   C1A 3270   6.347   3.249   4.810
  242POPC   D2A 3271   6.158   3.425   5.177
  242POPC   C3A 3272   6.348   3.305   5.564
  242POPC   C4A 3273   6.363   3.572   5.943
  242POPC   C1B 3274   6.888   3.405   4.802
  242POPC   C2B 3275   6.730   3.509   5.237
  242POPC   C3B 3276   6.825   3.450   5.682
  242POPC   C4B 3277   6.749   3.262   6.076
  243POPC   NC3 3278   3.501   0.409   3.836
  243POPC   PO4 3279   3.199   0.999   3.947
  243POPC   GL1 3280   3.423   0.708   4.267
  243POPC   GL2 3281   3.639   0.405   4.304
  243POPC   C1A 3282   3.420   0.546   4.724
  243POPC   D2A 3283   3.361   0.140   4.962
  243POPC   C3A 3284   3.253   0.225   5.416
  243POPC   C4A 3285   3.400   0.447   5.795
  243POPC   C1B 3286   3.827   0.250   4.663
  243POPC   C2B 3287   3.773   0.422   5.065
  243POPC   C3B 3288   3.796   0.330   5.451
  243POPC   C4B 3289   3.919   0.343   5.847
  244POPC   NC3 3290   8.723   1.768   3.966
  244POPC   PO4 3291   9.187   2.133   3.728
  244POPC   GL1 3292   9.170   2.129   4.278
  244POPC   GL2 3293   8.982   1.846   4.392
  244POPC   C1A 3294   8.936   2.255   4.739
  244POPC   D2A 3295   8.556   2.254   5.085
  244POPC   C3A 3296   8.690   2.175   5.549
  244POPC   C4A 3297   8.785   2.135   6.037
  244POPC   C1B 3298   9.262   1.854   4.725
  244POPC   C2B 3299   9.217   2.048   5.135
  244POPC   C3B 3300   9.076   1.835   5.516
  244POPC   C4B 3301   8.707   1.706   5.786
  245POPC   NC3 3302   0.342   9.848   4.014
  245POPC   PO4 3303   0.737   9.350   3.882
  245POPC   GL1 3304   0.584   9.445   4.288
  245POPC   GL2 3305   0.314   9.285   4.445
  245POPC   C1A 3306   0.650   9.539   4.743
  245POPC   D2A 3307   0.522   9.568   5.165
  245POPC   C3A 3308   0.801   9.386   5.478
  245POPC   C4A 3309   0.495   9.330   5.799
  245POPC   C1B 3310   0.141   9.569   4.795
  245POPC   C2B 3311   0.101   9.869   5.137
  245POPC   C3B 3312   0.294   9.824   5.545
  245POPC   C4B 3313   0.124   9.658   5.892
  246POPC   NC3 3314   7.322   8.708   3.966
  246POPC   PO4 3315   6.774   9.289   4.120
  246POPC   GL1 3316   7.144   9.102   4.338
  246POPC   GL2 3317   7.460   9.020   4.369
  246POPC   C1A 3318   7.115   8.882   4.736
  246POPC   D2A 3319   6.906   8.992   5.124
  246POPC   C3A 3320   7.176   8.959   5.491
  246POPC   C4A 3321   7.011   9.073   5.901
  246POPC   C1B 3322   7.630   8.900   4.782
  246POPC   C2B 3323   7.644   8.864   5.237
  246POPC   C3B 3324   7.527   8.577   5.578
  246POPC   C4B 3325   7.225   8.587   5.850
  247POPC   NC3 3326   5.709   7.561   3.996
  247POPC   PO4 3327   6.129   7.051   4.000
  247POPC   GL1 3328   6.083   7.408   4.334
  247POPC   GL2 3329   5.784   7.294   4.439
  247POPC   C1A 3330   5.923   7.593   4.803
  247POPC   D2A 3331   5.880   7.825   5.243
  247POPC   C3A 3332   5.829   7.593   5.647
  247POPC   C4A 3333   5.854   7.496   6.090
  247POPC   C1B 3334   6.082   7.115   4.766
  247POPC   C2B 3335   6.202   7.292   5.205
  247POPC   C3B 3336   6.146   7.169   5.662
  247POPC   C4B 3337   5.780   7.012   5.910
  248POPC   NC3 3338   2.750   0.903   3.824
  248POPC   PO4 3339   2.581   0.246   3.930
  248POPC   GL1 3340   2.904   0.552   4.182
  248POPC   GL2 3341   3.111   0.307   4.387
  248POPC   C1A 3342   3.029   0.823   4.586
  248POPC   D2A 3343   3.043   0.647   5.043
  248POPC   C3A 3344   2.831   0.737   5.442
  248POPC   C4A 3345   2.901   0.645   5.888
  248POPC   C1B 3346   2.732   0.407   4.666
  248POPC   C2B 3347   2.598   0.390   5.113
  248POPC   C3B 3348   2.718   0.250   5.541
  248POPC   C4B 3349   2.509   0.305   5.930
  249POPC   NC3 3350   8.790   6.679   3.934
  249POPC   PO4 3351   8.592   6.071   4.067
  249POPC   GL1 3352   8.691   6.443   4.376
  249POPC   GL2 3353   9.069   6.608   4.352
  249POPC   C1A 3354   8.757   6.603   4.797
  249POPC   D2A 3355   9.060   6.546   5.123
  249POPC   C3A 3356   8.846   6.450   5.466
  249POPC   C4A 3357   8.767   6.305   5.860
  249POPC   C1B 3358   9.197   6.844   4.700
  249POPC   C2B 3359   9.221   7.037   5.125
  249POPC   C3B 3360   9.321   6.887   5.529
  249POPC   C4B 3361   9.125   6.652   5.852
  250POPC   NC3 3362   4.817   9.537   3.944
  250POPC   PO4 3363   5.497   9.574   3.801
  250POPC   GL1 3364   5.312   9.535   4.261
  250POPC   GL2 3365   4.995   9.591   4.401
  250POPC   C1A 3366   5.376   9.656   4.722
  250POPC   D2A 3367   5.511   9.495   5.130
  250POPC   C3A 3368   5.272   9.692   5.451
  250POPC   C4A 3369   5.279   9.801   5.890
  250POPC   C1B 3370   4.750   9.439   4.729
  250POPC   C2B 3371   4.866   9.676   5.072
  250POPC   C3B 3372   4.755   9.758   5.465
  250POPC   C4B 3373   4.870   9.511   5.808
  251POPC   NC3 3374   7.179   1.906   4.199
  251POPC   PO4 3375   6.515   1.853   3.916
  251POPC   GL1 3376   6.633   1.840   4.291
  251POPC   GL2 3377   6.311   1.734   4.405
  251POPC   C1A 3378   6.776   1.708   4.692
  251POPC   D2A 3379   6.866   1.998   5.031
  251POPC   C3A 3380   6.752   1.777   5.390
  251POPC   C4A 3381   6.828   1.676   5.822
  251POPC   C1B 3382   6.390   2.060   4.744
  251POPC   C2B 3383   6.368   2.091   5.219
  251POPC   C3B 3384   6.484   2.101   5.674
  251POPC   C4B 3385   6.362   1.813   6.020
  252POPC   NC3 3386   1.558   2.018   3.916
  252POPC   PO4 3387   1.440   1.430   4.024
  252POPC   GL1 3388   1.444   1.743   4.365
  252POPC   GL2 3389   1.256   2.047   4.326
  252POPC   C1A 3390   1.336   1.818   4.831
  252POPC   D2A 3391   1.064   1.682   5.212
  252POPC   C3A 3392   1.193   1.668   5.655
  252POPC   C4A 3393   1.511   1.828   5.949
  252POPC   C1B 3394   1.156   2.311   4.650
  252POPC   C2B 3395   1.004   2.185   5.051
  252POPC   C3B 3396   1.272   2.135   5.395
  252POPC   C4B 3397   1.163   2.356   5.741
  253POPC   NC3 3398   0.225   3.672   4.056
  253POPC   PO4 3399   0.873   3.287   4.106
  253POPC   GL1 3400   0.625   3.207   4.431
  253POPC   GL2 3401   0.474   3.538   4.485
  253POPC   C1A 3402   0.637   3.231   4.856
  253POPC   D2A 3403   0.489   3.494   5.170
  253POPC   C3A 3404   0.633   3.217   5.489
  253POPC   C4A 3405   0.642   3.169   5.902
  253POPC   C1B 3406   0.385   3.884   4.751
  253POPC   C2B 3407   0.147   3.900   5.141
  253POPC   C3B 3408   0.194   3.800   5.545
  253POPC   C4B 3409   0.424   3.592   5.822
  254POPC   NC3 3410   3.888   9.726   3.627
  254POPC   PO4 3411   4.360   9.419   3.849
  254POPC   GL1 3412   4.431   9.365   4.280
  254POPC   GL2 3413   4.499   9.711   4.353
  254POPC   C1A 3414   4.219   9.442   4.701
  254POPC   D2A 3415   4.339   9.595   5.132
  254POPC   C3A 3416   4.110   9.334   5.462
  254POPC   C4A 3417   3.827   9.532   5.781
  254POPC   C1B 3418   4.248   9.953   4.669
  254POPC   C2B 3419   4.037   9.999   5.081
  254POPC   C3B 3420   4.083   9.882   5.513
  254POPC   C4B 3421   4.374   9.625   5.782
  255POPC   NC3 3422   2.644   9.156   4.171
  255POPC   PO4 3423   2.703   8.531   3.904
  255POPC   GL1 3424   2.562   8.646   4.308
  255POPC   GL2 3425   2.904   8.777   4.428
  255POPC   C1A 3426   2.517   8.662   4.761
  255POPC   D2A 3427   2.425   8.501   5.168
  255POPC   C3A 3428   2.441   8.842   5.447
  255POPC   C4A 3429   2.751   8.861   5.737
  255POPC   C1B 3430   2.861   9.053   4.795
  255POPC   C2B 3431   2.829   9.091   5.222
  255POPC   C3B 3432   2.972   8.698   5.315
  255POPC   C4B 3433   3.184   8.534   5.695
  256POPC   NC3 3434   0.320   9.069   3.928
  256POPC   PO4 3435   0.940   8.719   4.068
  256POPC   GL1 3436   0.652   8.912   4.287
  256POPC   GL2 3437   0.409   8.669   4.262
  256POPC   C1A 3438   0.553   8.914   4.708
  256POPC   D2A 3439   0.727   9.113   5.033
  256POPC   C3A 3440   0.565   8.946   5.407
  256POPC   C4A 3441   0.752   8.883   5.806
  256POPC   C1B 3442   0.137   8.610   4.644
  256POPC   C2B 3443   0.246   8.635   5.082
  256POPC   C3B 3444   0.045   8.784   5.447
  256POPC   C4B 3445   0.225   8.912   5.819
  257POPC   NC3 3446   6.335   1.354   3.864
  257POPC   PO4 3447   6.785   0.770   3.910
  257POPC   GL1 3448   6.881   1.080   4.250
  257POPC   GL2 3449   6.618   1.322   4.289
  257POPC   C1A 3450   6.918   1.179   4.705
  257POPC   D2A 3451   7.011   1.034   5.144
  257POPC   C3A 3452   6.868   1.263   5.504
  257POPC   C4A 3453   6.546   1.077   5.786
  257POPC   C1B 3454   6.417   1.314   4.675
  257POPC   C2B 3455   6.580   1.381   5.085
  257POPC   C3B 3456   6.364   1.464   5.481
  257POPC   C4B 3457   6.114   1.411   5.827
  258POPC   NC3 3458   5.197   1.428   3.640
  258POPC   PO4 3459   4.803   0.918   3.902
  258POPC   GL1 3460   5.143   0.967   4.263
  258POPC   GL2 3461   4.931   1.111   4.421
  258POPC   C1A 3462   5.380   0.998   4.682
  258POPC   D2A 3463   5.324   1.131   5.100
  258POPC   C3A 3464   5.022   0.962   5.335
  258POPC   C4A 3465   5.173   0.961   5.742
  258POPC   C1B 3466   4.929   1.272   4.797
  258POPC   C2B 3467   4.857   1.435   5.192
  258POPC   C3B 3468   5.135   1.445   5.530
  258POPC   C4B 3469   5.030   1.441   5.959
  259POPC   NC3 3470   6.436   7.400   3.955
  259POPC   PO4 3471   7.077   7.367   3.987
  259POPC   GL1 3472   7.024   7.392   4.412
  259POPC   GL2 3473   6.716   7.493   4.369
  259POPC   C1A 3474   6.885   7.294   4.833
  259POPC   D2A 3475   6.787   7.528   5.197
  259POPC   C3A 3476   6.763   7.351   5.594
  259POPC   C4A 3477   6.989   6.962   5.665
  259POPC   C1B 3478   6.424   7.492   4.702
  259POPC   C2B 3479   6.356   7.746   5.048
  259POPC   C3B 3480   6.328   7.750   5.514
  259POPC   C4B 3481   6.333   7.548   5.930
  260POPC   NC3 3482   6.039   1.857   3.968
  260POPC   PO4 3483   6.065   2.421   4.079
  260POPC   GL1 3484   5.963   2.118   4.411
  260POPC   GL2 3485   5.675   1.936   4.363
  260POPC   C1A 3486   5.951   1.801   4.779
  260POPC   D2A 3487   5.849   1.957   5.204
  260POPC   C3A 3488   6.035   1.897   5.603
  260POPC   C4A 3489   6.048   2.197   5.965
  260POPC   C1B 3490   5.487   2.011   4.791
  260POPC   C2B 3491   5.464   2.281   5.154
  260POPC   C3B 3492   5.512   2.139   5.586
  260POPC   C4B 3493   5.307   1.847   5.846
  261POPC   NC3 3494   0.679   8.277   4.040
  261POPC   PO4 3495   0.168   7.840   3.908
  261POPC   GL1 3496   0.413   7.872   4.265
  261POPC   GL2 3497   0.266   8.190   4.365
  261POPC   C1A 3498   0.454   7.867   4.708
  261POPC   D2A 3499   0.218   8.116   5.034
  261POPC   C3A 3500   0.286   7.979   5.482
  261POPC   C4A 3501   0.501   8.054   5.888
  261POPC   C1B 3502   0.573   8.379   4.704
  261POPC   C2B 3503   0.732   8.499   5.128
  261POPC   C3B 3504   0.525   8.461   5.559
  261POPC   C4B 3505   0.126   8.393   5.793
  262POPC   NC3 3506   9.905   8.227   3.926
  262POPC   PO4 3507   9.381   7.798   3.804
  262POPC   GL1 3508   9.547   7.974   4.195
  262POPC   GL2 3509   9.862   7.853   4.309
  262POPC   C1A 3510   9.449   7.841   4.649
  262POPC   D2A 3511   9.663   7.914   5.057
  262POPC   C3A 3512   9.453   7.901   5.483
  262POPC   C4A 3513   9.717   7.871   5.851
  262POPC   C1B 3514   9.785   8.228   4.594
  262POPC   C2B 3515   9.804   8.413   5.001
  262POPC   C3B 3516   9.833   8.275   5.400
  262POPC   C4B 3517   9.615   8.354   5.774
  263POPC   NC3 3518   9.631   0.603   4.101
  263POPC   PO4 3519   0.054   0.124   3.763
  263POPC   GL1 3520   9.868   0.174   4.238
  263POPC   GL2 3521   9.548   0.240   4.466
  263POPC   C1A 3522   9.979   0.181   4.690
  263POPC   D2A 3523   9.793   0.315   5.099
  263POPC   C3A 3524   9.978   0.249   5.521
  263POPC   C4A 3525   0.047   0.393   5.976
  263POPC   C1B 3526   9.563   0.630   4.737
  263POPC   C2B 3527   9.359   0.701   5.112
  263POPC   C3B 3528   9.647   0.712   5.433
  263POPC   C4B 3529   9.590   0.475   5.792
  264POPC   NC3 3530   4.304   8.967   3.943
  264POPC   PO4 3531   4.563   8.353   3.844
  264POPC   GL1 3532   4.464   8.598   4.287
  264POPC   GL2 3533   4.115   8.737   4.380
  264POPC   C1A 3534   4.485   8.989   4.623
  264POPC   D2A 3535   4.342   9.095   5.049
  264POPC   C3A 3536   4.638   9.254   5.375
  264POPC   C4A 3537   4.601   9.059   5.760
  264POPC   C1B 3538   4.229   8.624   4.845
  264POPC   C2B 3539   4.275   8.633   5.297
  264POPC   C3B 3540   4.169   8.801   5.681
  264POPC   C4B 3541   3.926   8.780   6.053
  265POPC   NC3 3542   8.359   5.785   3.809
  265POPC   PO4 3543   7.760   5.794   3.978
  265POPC   GL1 3544   7.986   5.649   4.335
  265POPC   GL2 3545   8.283   5.843   4.383
  265POPC   C1A 3546   8.075   5.668   4.815
  265POPC   D2A 3547   8.219   5.757   5.252
  265POPC   C3A 3548   7.889   5.744   5.624
  265POPC   C4A 3549   7.486   5.890   5.898
  265POPC   C1B 3550   8.486   6.094   4.745
  265POPC   C2B 3551   8.656   6.037   5.178
  265POPC   C3B 3552   8.409   6.100   5.580
  265POPC   C4B 3553   8.294   5.842   5.936
  266POPC   NC3 3554   8.776   0.450   3.844
  266POPC   PO4 3555   9.346   0.258   4.014
  266POPC   GL1 3556   9.077   0.493   4.264
  266POPC   GL2 3557   8.734   0.334   4.353
  266POPC   C1A 3558   9.111   0.446   4.678
  266POPC   D2A 3559   9.323   0.175   4.939
  266POPC   C3A 3560   9.348   0.250   5.388
  266POPC   C4A 3561   9.108   0.491   5.662
  266POPC   C1B 3562   8.633   0.554   4.773
  266POPC   C2B 3563   8.878   0.446   5.121
  266POPC   C3B 3564   8.694   0.317   5.437
  266POPC   C4B 3565   8.526   0.608   5.651
  267POPC   NC3 3566   6.533   2.339   3.953
  267POPC   PO4 3567   6.261   2.847   3.655
  267POPC   GL1 3568   6.410   2.826   4.142
  267POPC   GL2 3569   6.736   2.716   4.303
  267POPC   C1A 3570   6.266   2.761   4.606
  267POPC   D2A 3571   6.487   2.533   4.944
  267POPC   C3A 3572   6.424   2.576   5.381
  267POPC   C4A 3573   6.321   2.598   5.817
  267POPC   C1B 3574   6.732   2.925   4.730
  267POPC   C2B 3575   6.642   3.016   5.175
  267POPC   C3B 3576   6.725   2.933   5.606
  267POPC   C4B 3577   6.798   2.493   5.706
  268POPC   NC3 3578   1.084   9.187   4.126
  268POPC   PO4 3579   1.579   9.397   3.705
  268POPC   GL1 3580   1.573   9.155   4.220
  268POPC   GL2 3581   1.375   8.828   4.359
  268POPC   C1A 3582   1.380   9.193   4.687
  268POPC   D2A 3583   1.217   9.308   5.068
  268POPC   C3A 3584   1.469   9.225   5.387
  268POPC   C4A 3585   1.229   9.088   5.705
  268POPC   C1B 3586   1.094   8.764   4.758
  268POPC   C2B 3587   1.098   8.837   5.221
  268POPC   C3B 3588   1.043   8.575   5.547
  268POPC   C4B 3589   1.264   8.628   5.904
  269POPC   NC3 3590   1.747   2.697   3.973
  269POPC   PO4 3591   2.357   2.482   3.880
  269POPC   GL1 3592   2.206   2.483   4.317
  269POPC   GL2 3593   2.040   2.795   4.365
  269POPC   C1A 3594   2.235   2.557   4.804
  269POPC   D2A 3595   2.365   2.641   5.267
  269POPC   C3A 3596   2.127   2.549   5.671
  269POPC   C4A 3597   2.286   2.410   6.100
  269POPC   C1B 3598   1.995   3.004   4.742
  269POPC   C2B 3599   1.931   2.869   5.157
  269POPC   C3B 3600   1.978   3.016   5.546
  269POPC   C4B 3601   1.767   3.189   5.867
  270POPC   NC3 3602   0.558   6.599   3.936
  270POPC   PO4 3603   0.184   6.095   3.734
  270POPC   GL1 3604   0.422   6.181   4.178
  270POPC   GL2 3605   0.286   6.533   4.365
  270POPC   C1A 3606   0.553   6.188   4.620
  270POPC   D2A 3607   0.545   6.494   4.973
  270POPC   C3A 3608   0.687   6.398   5.389
  270POPC   C4A 3609   0.529   6.368   5.822
  270POPC   C1B 3610   0.059   6.582   4.787
  270POPC   C2B 3611   0.053   6.507   5.235
  270POPC   C3B 3612   0.246   6.711   5.575
  270POPC   C4B 3613   0.194   6.787   6.018
  271POPC   NC3 3614   9.796   7.458   3.901
  271POPC   PO4 3615   9.254   7.002   3.977
  271POPC   GL1 3616   9.386   7.151   4.332
  271POPC   GL2 3617   9.417   7.487   4.249
  271POPC   C1A 3618   9.295   7.347   4.732
  271POPC   D2A 3619   9.256   7.585   5.106
  271POPC   C3A 3620   9.250   7.397   5.509
  271POPC   C4A 3621   9.517   7.273   5.859
  271POPC   C1B 3622   9.762   7.436   4.563
  271POPC   C2B 3623   9.743   7.397   5.022
  271POPC   C3B 3624   9.802   7.535   5.457
  271POPC   C4B 3625   9.999   7.427   5.875
  272POPC   NC3 3626   7.032   0.372   3.998
  272POPC   PO4 3627   7.563   0.653   4.220
  272POPC   GL1 3628   7.185   0.669   4.398
  272POPC   GL2 3629   7.113   0.280   4.485
  272POPC   C1A 3630   6.994   0.667   4.784
  272POPC   D2A 3631   7.037   0.302   5.023
  272POPC   C3A 3632   7.169   0.364   5.412
  272POPC   C4A 3633   7.042   0.321   5.838
  272POPC   C1B 3634   7.481   0.333   4.763
  272POPC   C2B 3635   7.842   0.190   4.994
  272POPC   C3B 3636   7.670   0.164   5.397
  272POPC   C4B 3637   7.533   0.482   5.729
  273POPC   NC3 3638   9.622   9.918   3.877
  273POPC   PO4 3639   0.012   9.412   4.058
  273POPC   GL1 3640   9.897   9.687   4.387
  273POPC   GL2 3641   9.582   9.730   4.345
  273POPC   C1A 3642   9.679   9.814   4.828
  273POPC   D2A 3643   9.470   9.768   5.217
  273POPC   C3A 3644   9.757   9.740   5.536
  273POPC   C4A 3645   9.707   9.988   5.893
  273POPC   C1B 3646   9.506   9.378   4.665
  273POPC   C2B 3647   9.676   9.310   5.093
  273POPC   C3B 3648   9.439   9.319   5.483
  273POPC   C4B 3649   9.321   9.641   5.823
  274POPC   NC3 3650   0.558   2.053   3.918
  274POPC   PO4 3651   0.514   2.418   4.447
  274POPC   GL1 3652   0.713   2.013   4.417
  274POPC   GL2 3653   0.428   1.777   4.351
  274POPC   C1A 3654   0.767   1.780   4.793
  274POPC   D2A 3655   0.571   1.880   5.212
  274POPC   C3A 3656   0.804   2.018   5.573
  274POPC   C4A 3657   0.685   2.325   5.940
  274POPC   C1B 3658   0.226   1.905   4.759
  274POPC   C2B 3659   0.029   1.679   5.088
  274POPC   C3B 3660   0.143   1.757   5.481
  274POPC   C4B 3661   0.259   2.151   5.677
  275POPC   NC3 3662   9.549   1.083   3.814
  275POPC   PO4 3663   8.968   0.874   3.822
  275POPC   GL1 3664   9.273   0.973   4.223
  275POPC   GL2 3665   9.657   1.070   4.311
  275POPC   C1A 3666   9.316   1.194   4.655
  275POPC   D2A 3667   9.590   1.152   5.008
  275POPC   C3A 3668   9.367   1.179   5.389
  275POPC   C4A 3669   9.395   0.973   5.785
  275POPC   C1B 3670   9.948   0.956   4.665
  275POPC   C2B 3671   0.101   1.059   5.087
  275POPC   C3B 3672   9.910   1.270   5.452
  275POPC   C4B 3673   9.799   1.250   5.903
  276POPC   NC3 3674   3.682   1.163   3.996
  276POPC   PO4 3675   3.213   1.660   4.158
  276POPC   GL1 3676   3.518   1.474   4.428
  276POPC   GL2 3677   3.338   1.193   4.390
  276POPC   C1A 3678   3.601   1.447   4.888
  276POPC   D2A 3679   3.440   1.543   5.318
  276POPC   C3A 3680   3.553   1.336   5.706
  276POPC   C4A 3681   3.319   1.380   6.147
  276POPC   C1B 3682   3.659   0.995   4.622
  276POPC   C2B 3683   3.687   0.912   5.025
  276POPC   C3B 3684   3.480   0.759   5.383
  276POPC   C4B 3685   3.763   0.818   5.709
  277POPC   NC3 3686   2.394   2.951   3.850
  277POPC   PO4 3687   3.035   3.216   3.928
  277POPC   GL1 3688   2.763   2.950   4.189
  277POPC   GL2 3689   2.775   2.579   4.161
  277POPC   C1A 3690   2.496   2.926   4.547
  277POPC   D2A 3691   2.735   2.819   4.921
  277POPC   C3A 3692   2.705   3.038   5.294
  277POPC   C4A 3693   2.471   2.950   5.679
  277POPC   C1B 3694   2.674   2.442   4.570
  277POPC   C2B 3695   2.648   2.305   4.986
  277POPC   C3B 3696   2.859   2.492   5.326
  277POPC   C4B 3697   2.646   2.466   5.711
  278POPC   NC3 3698   0.516   0.398   3.838
  278POPC   PO4 3699   9.964   0.886   3.917
  278POPC   GL1 3700   0.159   0.624   4.288
  278POPC   GL2 3701   0.355   0.275   4.310
  278POPC   C1A 3702   0.283   0.571   4.752
  278POPC   D2A 3703   0.430   0.654   5.182
  278POPC   C3A 3704   0.244   0.758   5.595
  278POPC   C4A 3705   0.501   0.608   5.959
  278POPC   C1B 3706   0.453   0.018   4.685
  278POPC   C2B 3707   0.556   0.126   5.123
  278POPC   C3B 3708   0.499   0.286   5.569
  278POPC   C4B 3709   0.437   0.073   6.005
  279POPC   NC3 3710   4.097   2.717   3.991
  279POPC   PO4 3711   4.578   2.287   3.953
  279POPC   GL1 3712   4.625   2.649   4.229
  279POPC   GL2 3713   4.396   2.909   4.322
  279POPC   C1A 3714   4.642   2.639   4.701
  279POPC   D2A 3715   4.392   2.577   5.072
  279POPC   C3A 3716   4.533   2.426   5.459
  279POPC   C4A 3717   4.620   2.407   5.871
  279POPC   C1B 3718   4.156   2.889   4.719
  279POPC   C2B 3719   3.968   2.864   5.151
  279POPC   C3B 3720   3.910   2.810   5.616
  279POPC   C4B 3721   4.112   2.546   5.958
  280POPC   NC3 3722   4.286   1.943   3.832
  280POPC   PO4 3723   4.873   1.737   3.754
  280POPC   GL1 3724   4.647   1.856   4.202
  280POPC   GL2 3725   4.680   2.172   4.426
  280POPC   C1A 3726   4.427   1.791   4.613
  280POPC   D2A 3727   4.551   2.086   4.950
  280POPC   C3A 3728   4.414   1.959   5.332
  280POPC   C4A 3729   4.332   1.983   5.766
  280POPC   C1B 3730   4.234   2.308   4.619
  280POPC   C2B 3731   4.037   2.228   5.061
  280POPC   C3B 3732   4.002   2.279   5.527
  280POPC   C4B 3733   3.865   2.113   5.975
  281POPC   NC3 3734   3.569   9.346   4.164
  281POPC   PO4 3735   3.525   9.943   3.795
  281POPC   GL1 3736   3.599   9.886   4.259
  281POPC   GL2 3737   3.308   9.767   4.438
  281POPC   C1A 3738   3.768   9.722   4.682
  281POPC   D2A 3739   3.798   9.520   5.081
  281POPC   C3A 3740   3.580   9.800   5.351
  281POPC   C4A 3741   3.585   9.974   5.753
  281POPC   C1B 3742   3.251   9.609   4.878
  281POPC   C2B 3743   3.131   9.515   5.307
  281POPC   C3B 3744   3.138   9.752   5.690
  281POPC   C4B 3745   3.051   9.680   6.145
  282POPC   NC3 3746   8.587   4.825   3.648
  282POPC   PO4 3747   8.860   5.285   4.075
  282POPC   GL1 3748   9.025   5.344   4.442
  282POPC   GL2 3749   9.097   5.014   4.454
  282POPC   C1A 3750   9.142   5.354   4.868
  282POPC   D2A 3751   9.107   5.086   5.225
  282POPC   C3A 3752   9.123   5.384   5.570
  282POPC   C4A 3753   8.939   5.333   5.986
  282POPC   C1B 3754   8.777   4.988   4.809
  282POPC   C2B 3755   8.606   4.914   5.235
  282POPC   C3B 3756   8.735   5.045   5.617
  282POPC   C4B 3757   8.682   4.906   6.110
  283POPC   NC3 3758   3.553   6.642   4.002
  283POPC   PO4 3759   3.074   6.176   4.043
  283POPC   GL1 3760   3.348   6.350   4.419
  283POPC   GL2 3761   3.617   6.612   4.491
  283POPC   C1A 3762   3.309   6.479   4.869
  283POPC   D2A 3763   3.153   6.468   5.290
  283POPC   C3A 3764   3.380   6.293   5.624
  283POPC   C4A 3765   3.490   6.357   6.099
  283POPC   C1B 3766   3.806   6.644   4.897
  283POPC   C2B 3767   3.662   6.612   5.327
  283POPC   C3B 3768   3.600   6.725   5.766
  283POPC   C4B 3769   3.898   6.670   6.143
  284POPC   NC3 3770   1.134   9.556   3.722
  284POPC   PO4 3771   0.781   0.045   3.966
  284POPC   GL1 3772   0.869   9.874   4.367
  284POPC   GL2 3773   1.070   9.563   4.486
  284POPC   C1A 3774   0.952   9.986   4.780
  284POPC   D2A 3775   0.986   9.752   5.131
  284POPC   C3A 3776   0.828   9.903   5.489
  284POPC   C4A 3777   0.785   9.742   5.851
  284POPC   C1B 3778   1.387   9.704   4.805
  284POPC   C2B 3779   1.479   9.770   5.252
  284POPC   C3B 3780   1.256   9.625   5.623
  284POPC   C4B 3781   1.271   9.656   6.073
  285POPC   NC3 3782   4.396   0.833   3.697
  285POPC   PO4 3783   3.834   0.720   3.925
  285POPC   GL1 3784   4.123   0.578   4.294
  285POPC   GL2 3785   4.503   0.652   4.253
  285POPC   C1A 3786   4.095   0.696   4.751
  285POPC   D2A 3787   4.270   0.524   5.150
  285POPC   C3A 3788   4.252   0.649   5.609
  285POPC   C4A 3789   4.247   0.746   6.094
  285POPC   C1B 3790   4.535   0.415   4.675
  285POPC   C2B 3791   4.564   0.100   5.041
  285POPC   C3B 3792   4.497   0.195   5.474
  285POPC   C4B 3793   4.361   0.125   5.881
  286POPC   NC3 3794   2.288   8.290   3.891
  286POPC   PO4 3795   1.717   8.663   4.004
  286POPC   GL1 3796   1.986   8.481   4.314
  286POPC   GL2 3797   2.032   8.148   4.359
  286POPC   C1A 3798   2.040   8.457   4.768
  286POPC   D2A 3799   1.833   8.402   5.156
  286POPC   C3A 3800   2.033   8.543   5.529
  286POPC   C4A 3801   2.130   8.603   5.973
  286POPC   C1B 3802   1.802   8.000   4.769
  286POPC   C2B 3803   1.673   7.915   5.192
  286POPC   C3B 3804   1.734   7.841   5.600
  286POPC   C4B 3805   2.075   8.059   5.759
  287W        W 3806   8.831   1.864   0.253
  288W        W 3807   4.603   0.968  10.785
  289W        W 3808   8.968   1.364   2.297
  290W        W 3809   0.006   7.991   1.693
  291W        W 3810   8.820   3.497   9.096
  292W        W 3811   7.138   7.403   9.525
  293W        W 3812   0.677   0.235   0.952
  294W        W 3813   3.505   7.657  11.168
  295W        W 3814   1.678   8.393   1.915
  296W        W 3815   8.582   1.744   3.313
  297W        W 3816   6.975   1.991  11.730
  298W        W 3817   2.176   0.750   8.903
  299W        W 3818   7.775   3.980   3.625
  300W        W 3819   4.614   3.686   8.893
  301W        W 3820   1.209   0.942   9.510
  302W        W 3821   5.655   6.377   2.471
  303W        W 3822   6.708   9.088  11.836
  304W        W 3823   8.700   2.674   2.453
  305W        W 3824   6.167   8.174   9.252
  306W        W 3825   4.613   6.794   9.461
  307W        W 3826   3.951   6.700   3.613
  308W        W 3827   5.160   4.661   0.956
  309W        W 3828   0.432   8.501   2.624
  310W        W 3829   7.253   6.025   1.988
  311W        W 3830   8.082   6.338  10.520
  312W        W 3831   4.471   1.863   0.424
  313W        W 3832   6.150   2.708  10.948
  314W        W 3833   2.710   3.254   3.529
  315W        W 3834   6.447   3.042  11.852
  316W        W 3835   7.021   6.940   2.792
  317W        W 3836   8.241   2.056   3.550
  318W        W 3837   5.493   0.539   1.683
  319W        W 3838   4.968   5.165  10.471
  320W        W 3839   2.703   4.682   9.505
  321W        W 3840   5.453   2.277  11.447
  322W        W 3841   2.232   9.332  10.389
  323W        W 3842   9.299   8.850   3.765
  324W        W 3843   3.651   0.503   3.268
  325W        W 3844   6.391   8.393   1.272
  326W        W 3845   8.743   4.495  11.088
  327W        W 3846   4.565   4.159  11.792
  328W        W 3847   9.505   0.689   9.529
  329W        W 3848   5.244   6.594  11.803
  330W        W 3849   8.689   2.250   3.317
  331W        W 3850   7.030   9.231   9.940
  332W        W 3851   3.322   4.634   0.904
  333W        W 3852   9.294   5.207   9.608
  334W        W 3853   5.763   7.941   3.638
  335W        W 3854   2.679   7.021   3.345
  336W        W 3855   2.641   6.650   9.562
  337W        W 3856   5.244   1.217   2.345
  338W        W 3857   1.395   2.105  10.575
  339W        W 3858   4.630   5.109   9.467
  340W        W 3859   0.437   5.929   1.692
  341W        W 3860   8.341   8.510   8.771
  342W        W 3861   6.900   2.811   0.157
  343W        W 3862   3.560   9.097   0.323
  344W        W 3863   4.088   1.840   9.452
  345W        W 3864   1.607   5.183   3.501
  346W        W 3865   0.349   3.419   2.134
  347W        W 3866   9.486   6.248   0.312
  348W        W 3867   3.117   4.755   8.684
  349W        W 3868   3.357   4.196   2.865
  350W        W 3869   2.880   0.459  11.526
  351W        W 3870   5.379   9.854   9.708
  352W        W 3871   7.997   2.401   0.532
  353W        W 3872   4.788   7.690   8.497
  354W        W 3873   4.693   0.923   0.707
  355W        W 3874   9.933   3.325  10.413
  356W        W 3875   9.363   0.632  10.026
  357W        W 3876   5.157   3.291   9.470
  358W        W 3877   7.334   3.570   9.709
  359W        W 3878   0.828   7.489   0.187
  360W        W 3879   3.075   4.134   1.797
  361W        W 3880   8.990   7.396  10.029
  362W        W 3881   0.311   0.847   8.830
  363W        W 3882   3.564   2.371  10.910
  364W        W 3883   4.595   5.221   3.092
  365W        W 3884   9.349   8.456   1.335
  366W        W 3885   1.400   3.570  11.543
  367W        W 3886   4.888   7.043   9.101
  368W        W 3887   0.130   1.106   8.408
  369W        W 3888   4.750   7.839   1.847
  370W        W 3889   9.437   9.643  11.244
  371W        W 3890   5.997   3.257   2.419
  372W        W 3891   5.546   1.731  10.780
  373W        W 3892   5.472   9.868   1.472
  374W        W 3893   2.301   4.009  11.453
  375W        W 3894   4.529   5.046   0.008
  376W        W 3895   2.652   2.168   9.275
  377W        W 3896   2.597   1.072   2.450
  378W        W 3897   6.033   8.071   1.078
  379W        W 3898   2.204   7.931  11.591
  380W        W 3899   4.591   6.181   0.278
  381W        W 3900   8.431   0.200   0.219
  382W        W 3901   3.716   3.368   2.729
  383W        W 3902   2.352   8.050   1.309
  384W        W 3903   3.967   6.363   1.307
  385W        W 3904   7.152   4.706  11.028
  386W        W 3905   9.641   2.361   9.683
  387W        W 3906   4.200   9.907   8.662
  388W        W 3907   6.908   1.475   2.731
  389W        W 3908   4.821   2.724   8.354
  390W        W 3909   3.548   8.097   9.831
  391W        W 3910   9.301   7.566   1.326
  392W        W 3911   1.166   7.334   1.484
  393W        W 3912   4.041   2.819   8.500
  394W        W 3913   2.393   1.565  11.293
  395W        W 3914   8.706   4.840   0.509
  396W        W 3915   2.565   2.699   8.726
  397W        W 3916   0.593   9.603  11.551
  398W        W 3917   7.940   9.864  11.387
  399W        W 3918   1.870   2.989   9.931
  400W        W 3919   5.256   2.679  11.205
  401W        W 3920   0.412   8.641  11.175
  402W        W 3921   5.085   5.657   8.788
  403W        W 3922   2.720   8.080   3.025
  404W        W 3923   0.394   3.234   1.110
  405W        W 3924   3.854   4.614  11.051
  406W        W 3925   1.675   0.462  10.584
  407W        W 3926   6.722   4.722   8.692
  408W        W 3927   4.804   2.401   1.085
  409W        W 3928   7.950   5.184   2.529
  410W        W 3929   4.088   6.157   0.182
  411W        W 3930   8.469   2.144   9.194
  412W        W 3931   6.001   7.368   3.599
  413W        W 3932   5.530   7.380  10.203
  414W        W 3933   2.736   6.668   9.022
  415W        W 3934   8.012   2.370   0.030
  416W        W 3935   3.300   3.184   9.475
  417W        W 3936   5.097   4.506   0.356
  418W        W 3937   8.786   1.731   1.294
  419W        W 3938   0.295   4.600   3.209
  420W        W 3939   1.909   5.365   2.711
  421W        W 3940   2.904   2.587   0.709
  422W        W 3941   3.705   4.015   8.997
  423W        W 3942   0.372   5.566   9.493
  424W        W 3943   4.222   2.789   2.649
  425W        W 3944   1.799   2.550   0.154
  426W        W 3945   5.515   0.075   9.272
  427W        W 3946   1.931   4.221   8.758
  428W        W 3947   2.786   7.635   3.289
  429W        W 3948   3.289   8.572   9.027
  430W        W 3949   6.545   5.140   8.440
  431W        W 3950   9.367   2.858   3.774
  432W        W 3951   9.800   7.792   0.708
  433W        W 3952   3.060   2.237   2.003
  434W        W 3953   0.468   7.440  11.813
  435W        W 3954   8.387   0.697   8.945
  436W        W 3955   4.957   3.568   0.327
  437W        W 3956   8.782   8.967  11.235
  438W        W 3957   4.154   9.929   3.227
  439W        W 3958   6.171   7.571   2.590
  440W        W 3959   3.568   3.666   1.214
  441W        W 3960   2.067   7.423   1.956
  442W        W 3961   6.177   1.405   1.868
  443W        W 3962   8.122   7.399   9.724
  444W        W 3963   9.673   2.872   0.875
  445W        W 3964   2.863   0.951   2.853
  446W        W 3965   8.049   5.612  11.483
  447W        W 3966   7.103   6.719   0.864
  448W        W 3967   9.184   7.423  11.503
  449W        W 3968   7.955   1.634   0.828
  450W        W 3969   6.872   9.496   0.156
  451W        W 3970   0.702   6.626   0.025
  452W        W 3971   4.253   2.082   0.871
  453W        W 3972   8.434   1.369   2.954
  454W        W 3973   2.268   8.055   2.295
  455W        W 3974   1.760   4.996   8.219
  456W        W 3975   9.878   3.575   3.240
  457W        W 3976   6.468   8.352  10.770
  458W        W 3977   4.030   6.182   0.801
  459W        W 3978   4.001   5.096   1.594
  460W        W 3979   8.486   4.662  10.107
  461W        W 3980   8.253   3.674   9.168
  462W        W 3981   3.309   2.025   0.865
  463W        W 3982   5.460   7.489  11.627
  464W        W 3983   0.845   4.579   9.140
  465W        W 3984   6.974   1.267  11.920
  466W        W 3985   0.537   4.436   0.889
  467W        W 3986   9.567   1.870   9.522
  468W        W 3987   8.971   7.056  10.437
  469W        W 3988   0.080   1.235   9.055
  470W        W 3989   5.156   3.501  11.864
  471W        W 3990   9.047   9.049   9.016
  472W        W 3991   3.232   7.388  11.495
  473W        W 3992   1.406   1.387  11.379
  474W        W 3993   1.792   6.055   3.305
  475W        W 3994   4.499   4.525   2.769
  476W        W 3995   9.409   7.708   9.969
  477W        W 3996   9.851   6.139   8.980
  478W        W 3997   6.605   2.106  10.338
  479W        W 3998   7.025   7.950  11.346
  480W        W 3999   7.546   2.611  11.956
  481W        W 4000   6.622   4.261   3.694
  482W        W 4001   7.253   5.627   2.640
  483W        W 4002   4.141   5.704   0.984
  484W        W 4003   0.532   2.717  10.755
  485W        W 4004   6.149   3.189   0.721
  486W        W 4005   8.574   1.068   0.063
  487W        W 4006   6.477   6.817   2.088
  488W        W 4007   6.616   9.794   0.897
  489W        W 4008   8.511   0.575  10.555
  490W        W 4009   0.749   8.417   8.933
  491W        W 4010   1.664   1.449   1.756
  492W        W 4011   5.521   6.656  11.320
  493W        W 4012   5.247   2.949   1.690
  494W        W 4013   6.698   9.986  10.004
  495W        W 4014   3.975   7.923   0.247
  496W        W 4015   4.139   1.754  11.599
  497W        W 4016   7.430   0.317   9.159
  498W        W 4017   6.901   4.126   9.341
  499W        W 4018   3.869   1.754   1.414
  500W        W 4019   2.301   4.619   8.666
  501W        W 4020   2.875   4.113  10.544
  502W        W 4021   5.483   5.179  11.812
  503W        W 4022   2.945   1.180   0.002
  504W        W 4023   9.520   5.096   9.161
  505W        W 4024   4.930   4.172  10.501
  506W        W 4025   4.188   1.491  10.754
  507W        W 4026   2.610   3.925   0.906
  508W        W 4027   3.744   8.803  11.960
  509W        W 4028   6.346   6.150   9.811
  510W        W 4029   9.745   4.616   3.212
  511W        W 4030   4.735   4.955   2.661
  512W        W 4031   2.967   0.783   0.382
  513W        W 4032   4.927   3.679   3.635
  514W        W 4033   8.367   3.881   1.776
  515W        W 4034   1.562   5.114   2.991
  516W        W 4035   2.955   1.392   2.259
  517W        W 4036   9.161   0.850   1.595
  518W        W 4037   2.496   5.274   0.684
  519W        W 4038   3.144   7.514   8.908
  520W        W 4039   3.306   2.088  11.902
  521W        W 4040   8.861   6.359   1.591
  522W        W 4041   0.400   5.426   1.675
  523W        W 4042   8.465   9.804  11.161
  524W        W 4043   3.269   0.974  10.884
  525W        W 4044   6.922   2.470   3.003
  526W        W 4045   4.555   5.489  10.556
  527W        W 4046   3.679   5.455   8.926
  528W        W 4047   1.368   1.748   3.524
  529W        W 4048   0.308   9.736  11.975
  530W        W 4049   5.060   2.912  10.199
  531W        W 4050   5.827   2.532   3.595
  532W        W 4051   9.530   9.754   8.864
  533W        W 4052   9.227   3.797   9.292
  534W        W 4053   7.416   7.156  11.905
  535W        W 4054   2.308   7.409   3.386
  536W        W 4055   1.261   6.461  11.419
  537W        W 4056   0.549   0.336   9.913
  538W        W 4057   1.283   5.377  11.734
  539W        W 4058   5.623   8.626   0.170
  540W        W 4059   4.174   3.900   8.305
  541W        W 4060   1.391   3.534   1.507
  542W        W 4061   1.442   8.645   3.573
  543W        W 4062   2.574   5.361   4.091
  544W        W 4063   2.703   2.654  10.767
  545W        W 4064   8.373   2.677   1.609
  546W        W 4065   6.124   6.350   1.346
  547W        W 4066   6.693   5.734   1.399
  548W        W 4067   4.982   9.587   1.761
  549W        W 4068   8.058   0.190  11.867
  550W        W 4069   7.954   9.676   0.993
  551W        W 4070   1.458   3.558  10.979
  552W        W 4071   1.692   3.298   1.949
  553W        W 4072   7.605   2.332   1.315
  554W        W 4073   7.095   5.553   2.154
  555W        W 4074   9.644   5.327   1.964
  556W        W 4075   1.691   2.768  11.693
  557W        W 4076   8.479   1.480   9.993
  558W        W 4077   3.672   8.846   2.144
  559W        W 4078   5.055   8.057   0.104
  560W        W 4079   7.626   4.618   1.318
  561W        W 4080   2.368   7.032   2.097
  562W        W 4081   7.051   0.661   0.767
  563W        W 4082   5.973   9.962  10.476
  564W        W 4083   8.003   5.148   9.093
  565W        W 4084   5.886   7.551   9.851
  566W        W 4085   0.959   9.506   1.912
  567W        W 4086   1.955   3.101   2.853
  568W        W 4087   9.472   3.384   9.686
  569W        W 4088   6.564   8.864   1.208
  570W        W 4089   7.744   6.172   2.054
  571W        W 4090   5.118   6.960   1.430
  572W        W 4091   0.410   0.829   9.833
  573W        W 4092   4.496   3.046   3.705
  574W        W 4093   1.373   6.137   2.531
  575W        W 4094   6.998   4.541   1.854
  576W        W 4095   9.572   2.951  11.043
  577W        W 4096   1.126   4.671   9.590
  578W        W 4097   0.352   9.582  11.079
  579W        W 4098   6.548   4.305   9.012
  580W        W 4099   4.313   1.127   2.435
  581W        W 4100   9.427   2.919   1.482
  582W        W 4101   9.733   9.342   1.267
  583W        W 4102   9.664   6.096  11.027
  584W        W 4103   0.236   0.462  11.766
  585W        W 4104   6.952   5.118  11.232
  586W        W 4105   4.954   2.346   2.139
  587W        W 4106   1.372   6.467   1.467
  588W        W 4107   5.800   0.189   9.928
  589W        W 4108   6.105   0.850   2.759
  590W        W 4109   5.106   3.134  11.490
  591W        W 4110   8.199   7.156  11.362
  592W        W 4111   1.695   4.535   2.727
  593W        W 4112   3.708   6.452   2.197
  594W        W 4113   2.271   2.408  11.053
  595W        W 4114   8.993   4.716   0.922
  596W        W 4115   6.425   5.213   4.096
  597W        W 4116   1.227   5.273   8.482
  598W        W 4117   3.594   7.315  10.350
  599W        W 4118   2.856   0.891   1.800
  600W        W 4119   8.407   2.242   2.482
  601W        W 4120   2.264   8.842   0.774
  602W        W 4121   9.966   6.203   1.908
  603W        W 4122   5.774   5.913   1.303
  604W        W 4123   6.963   3.823   3.265
  605W        W 4124   4.745   3.315   3.298
  606W        W 4125   4.278   2.715   1.909
  607W        W 4126   9.947   4.611  10.502
  608W        W 4127   3.288   5.543   0.890
  609W        W 4128   4.158   0.519   8.678
  610W        W 4129   0.333   4.165   2.924
  611W        W 4130   0.793   4.265  11.724
  612W        W 4131   1.658   2.285  11.437
  613W        W 4132   1.213   8.034  11.240
  614W        W 4133   4.008   0.287  10.905
  615W        W 4134   5.600   7.887   2.837
  616W        W 4135   0.195   0.048   2.222
  617W        W 4136   1.307   1.225   2.030
  618W        W 4137   2.143   3.735  10.414
  619W        W 4138   8.420   2.900   2.079
  620W        W 4139   5.544   5.674   3.295
  621W        W 4140   8.344   8.515  10.636
  622W        W 4141   6.441   2.535   3.301
  623W        W 4142   9.907   5.714   1.008
  624W        W 4143   6.691   1.767  11.066
  625W        W 4144   5.306   2.027   1.965
  626W        W 4145   5.879   6.021   9.937
  627W        W 4146   7.612   8.267   9.405
  628W        W 4147   2.385   5.864   9.221
  629W        W 4148   7.273   0.750  11.781
  630W        W 4149   4.946   4.054   1.989
  631W        W 4150   3.802   5.514   0.131
  632W        W 4151   7.865   4.988   2.985
  633W        W 4152   7.210   0.007  10.968
  634W        W 4153   6.118   6.884   3.201
  635W        W 4154   5.006   7.433  10.316
  636W        W 4155   0.740   7.394   0.696
  637W        W 4156   9.448   9.971  10.832
  638W        W 4157   7.984   1.186  10.106
  639W        W 4158   5.223   6.790   3.731
  640W        W 4159   4.745   3.789   9.883
  641W        W 4160   5.272   5.326   0.871
  642W        W 4161   7.440   1.258  11.034
  643W        W 4162   2.111   7.993   0.457
  644W        W 4163   9.836   1.497  10.487
  645W        W 4164   5.293   0.979   1.886
  646W        W 4165   2.901   8.346  10.852
  647W        W 4166   6.077   8.540  10.412
  648W        W 4167   9.980   9.363   9.557
  649W        W 4168   9.350   6.059   0.765
  650W        W 4169   7.043   0.919   1.214
  651W        W 4170   4.713   4.600   1.245
  652W        W 4171   8.335   2.067   2.980
  653W        W 4172   9.466   8.485   9.769
  654W        W 4173   1.758   3.687   0.247
  655W        W 4174   7.194   3.545  11.957
  656W        W 4175   6.962   0.415   0.323
  657W        W 4176   4.201   3.526  11.954
  658W        W 4177   9.304   3.506   0.316
  659W        W 4178   8.807   6.625   9.183
  660W        W 4179   3.669   5.435   1.247
  661W        W 4180   2.875   9.375   3.288
  662W        W 4181   9.757   1.893   9.012
  663W        W 4182   2.341   7.642  11.056
  664W        W 4183   6.943   5.144   4.028
  665W        W 4184   5.525   9.469   1.152
  666W        W 4185   9.195   3.283   1.793
  667W        W 4186   4.558   6.100   3.144
  668W        W 4187   0.308   7.098   9.744
  669W        W 4188   1.951   6.389   1.732
  670W        W 4189   2.044   0.382  10.966
  671W        W 4190   2.723   0.408   1.163
  672W        W 4191   3.827   2.895  11.250
  673W        W 4192   5.764   9.077   9.250
  674W        W 4193   5.540   7.182   0.424
  675W        W 4194   8.077   6.633  11.912
  676W        W 4195   6.078   7.568  10.332
  677W        W 4196   7.610   6.090   0.317
  678W        W 4197   3.063   1.330   3.584
  679W        W 4198   6.573   1.516   0.929
  680W        W 4199   3.613   3.344   3.766
  681W        W 4200   9.444   5.289   1.451
  682W        W 4201   3.619   0.705   1.342
  683W        W 4202   5.012   2.341   1.602
  684W        W 4203   5.671   7.118   3.165
  685W        W 4204   9.879   0.848  11.765
  686W        W 4205   5.242   7.503   0.102
  687W        W 4206   6.586   5.570   9.254
  688W        W 4207   2.296   9.116   0.324
  689W        W 4208   2.137   5.509  11.645
  690W        W 4209   8.809   9.072   2.822
  691W        W 4210   6.806   4.481  10.017
  692W        W 4211   4.025   9.310   2.804
  693W        W 4212   8.440   8.428   3.272
  694W        W 4213   2.251   7.548   2.418
  695W        W 4214   6.440   2.188  10.968
  696W        W 4215   4.243   1.429  10.239
  697W        W 4216   6.458   1.602   2.947
  698W        W 4217   4.667   0.750   1.185
  699W        W 4218   4.141   9.880   1.444
  700W        W 4219   5.445   7.037  11.933
  701W        W 4220   5.151   2.738  10.697
  702W        W 4221   0.071   9.544  11.544
  703W        W 4222   7.956   5.076   0.015
  704W        W 4223   4.252   5.109   2.651
  705W        W 4224   4.471   6.638   3.151
  706W        W 4225   3.910   3.925  10.334
  707W        W 4226   3.968   4.572   4.123
  708W        W 4227   0.836   9.898   9.734
  709W        W 4228   9.380   1.352   0.296
  710W        W 4229   9.793   3.772   0.672
  711W        W 4230   2.768   0.019  10.500
  712W        W 4231   3.100   4.872   8.190
  713W        W 4232   9.922   7.062   8.996
  714W        W 4233   2.371   8.395   9.071
  715W        W 4234   8.758   7.939   3.393
  716W        W 4235   4.214   3.851  11.569
  717W        W 4236   9.403   6.998  10.702
  718W        W 4237   5.669   6.453   1.114
  719W        W 4238   3.375   5.399   0.392
  720W        W 4239   5.635   7.833  10.430
  721W        W 4240   9.007   7.432   2.372
  722W        W 4241   8.621   4.807   3.112
  723W        W 4242   9.814   1.414   3.051
  724W        W 4243   2.781   1.465  11.617
  725W        W 4244   7.689   3.148   3.286
  726W        W 4245   5.121   5.435   3.136
  727W        W 4246   4.438   0.101   2.413
  728W        W 4247   9.543   0.232   9.753
  729W        W 4248   9.747   2.418  10.861
  730W        W 4249   7.642   5.304  11.672
  731W        W 4250   3.127   6.918   1.194
  732W        W 4251   8.859   6.228   0.830
  733W        W 4252   5.127   2.034   1.192
  734W        W 4253   4.248   5.766   3.429
  735W        W 4254   6.685   1.199   3.157
  736W        W 4255   3.829   4.608   0.044
  737W        W 4256   8.398   3.804   2.306
  738W        W 4257   8.144   5.914   1.180
  739W        W 4258   4.481   2.578   1.450
  740W        W 4259   7.168   7.238   0.821
  741W        W 4260   3.874   3.667   9.873
  742W        W 4261   8.898   4.583   0.069
  743W        W 4262   3.551   7.872  10.311
  744W        W 4263   4.032   8.254   1.542
  745W        W 4264   8.980   8.346   2.106
  746W        W 4265   7.535   8.923  10.520
  747W        W 4266   9.072   4.193   0.859
  748W        W 4267   0.317   2.926   3.584
  749W        W 4268   4.767   2.749  11.366
  750W        W 4269   1.776   0.736   2.246
  751W        W 4270   7.799   1.253  10.626
  752W        W 4271   2.833   3.320   2.975
  753W        W 4272   4.137   0.920  11.012
  754W        W 4273   2.805   8.001   1.635
  755W        W 4274   3.631   4.462   9.307
  756W        W 4275   7.569   4.476   3.066
  757W        W 4276   7.884   4.647   0.321
  758W        W 4277   9.875   7.640   2.045
  759W        W 4278   8.384   4.562  11.482
  760W        W 4279   1.501   0.533   9.369
  761W        W 4280   5.137   2.743   2.696
  762W        W 4281   8.737   6.111  11.966
  763W        W 4282   0.074   5.639   9.060
  764W        W 4283   8.958   7.070   9.451
  765W        W 4284   3.331   9.251   1.373
  766W        W 4285   0.457   6.634   9.881
  767W        W 4286   4.595   5.752   2.221
  768W        W 4287   7.906   1.858   1.353
  769W        W 4288   3.223   3.567  11.924
  770W        W 4289   7.049   6.387   8.220
  771W        W 4290   2.334   2.128  10.096
  772W        W 4291   7.014   6.389   8.742
  773W        W 4292   5.040   9.892   9.279
  774W        W 4293   2.314   1.898  10.893
  775W        W 4294   8.854   6.183  10.605
  776W        W 4295   7.342   3.169   2.698
  777W        W 4296   5.198   3.889  10.135
  778W        W 4297   2.622   7.996  11.291
  779W        W 4298   5.923   2.245  11.011
  780W        W 4299   9.113   9.231  11.571
  781W        W 4300   7.188   6.514   3.976
  782W        W 4301   8.470   7.906  11.039
  783W        W 4302   9.919   1.230  10.054
  784W        W 4303   1.656   3.763   0.753
  785W        W 4304   0.940   8.819   3.556
  786W        W 4305   2.029   3.430   3.261
  787W        W 4306   9.540   8.083   2.013
  788W        W 4307   9.357   4.799  11.858
  789W        W 4308   3.102   3.718   0.894
  790W        W 4309   2.243   3.762   1.776
  791W        W 4310   8.363   8.752   0.268
  792W        W 4311   5.176   8.728  10.942
  793W        W 4312   6.176   9.894   0.368
  794W        W 4313   5.860   1.638   8.450
  795W        W 4314   2.763   4.386   2.144
  796W        W 4315   2.777   2.108   0.938
  797W        W 4316   0.337   6.090   3.192
  798W        W 4317   6.568   9.286   2.361
  799W        W 4318   9.608   7.506  11.787
  800W        W 4319   4.140   8.908   8.857
  801W        W 4320   2.910   0.420   9.333
  802W        W 4321   8.735   6.421  11.242
  803W        W 4322   2.738   3.623  10.560
  804W        W 4323   5.464   0.872  11.055
  805W        W 4324   5.640   1.671   2.334
  806W        W 4325   5.163   8.884  10.467
  807W        W 4326   1.410   0.262   8.932
  808W        W 4327   5.955   8.055   3.171
  809W        W 4328   6.979   2.557   9.850
  810W        W 4329   3.515   4.727   3.875
  811W        W 4330   3.850   1.354   8.767
  812W        W 4331   9.883   6.853   9.960
  813W        W 4332   3.929   8.044   9.000
  814W        W 4333   6.830   2.819  10.245
  815W        W 4334   1.760   5.674   9.561
  816W        W 4335   8.867   0.910   8.917
  817W        W 4336   0.479   1.694   9.858
  818W        W 4337   3.334   8.474  10.607
  819W        W 4338   4.753   7.532   2.327
  820W        W 4339   3.844   9.798  11.893
  821W        W 4340   2.698   3.676   0.045
  822W        W 4341   5.067   6.372   0.221
  823W        W 4342   3.501   0.657   2.299
  824W        W 4343   5.200   5.688   1.204
  825W        W 4344   8.294   4.309   2.352
  826W        W 4345   6.688   8.486   1.792
  827W        W 4346   3.392   9.380   8.589
  828W        W 4347   7.205   1.977   1.469
  829W        W 4348   3.750   9.015   1.644
  830W        W 4349   8.972   9.870  10.950
  831W        W 4350   3.161   8.319   3.145
  832W        W 4351   0.014   1.728   2.688
  833W        W 4352   6.765   5.987   8.937
  834W        W 4353   0.305   0.019  11.522
  835W        W 4354   4.859   1.826   1.797
  836W        W 4355   6.563   8.744  10.459
  837W        W 4356   1.177   0.378  10.735
  838W        W 4357   6.415   2.790  10.536
  839W        W 4358   2.800   9.230  10.643
  840W        W 4359   6.221   3.699   0.771
  841W        W 4360   0.431   1.360  11.265
  842W        W 4361   4.519   9.207   2.774
  843W        W 4362   6.399   9.301   2.840
  844W        W 4363   5.869   4.599  10.451
  845W        W 4364   9.627   1.758   0.089
  846W        W 4365   6.123   9.050  11.166
  847W        W 4366   2.235   3.855   8.972
  848W        W 4367   7.596   2.584  11.446
  849W        W 4368   2.708   6.865   2.854
  850W        W 4369   1.367   3.892   9.259
  851W        W 4370   0.859   2.915  11.508
  852W        W 4371   2.146   0.991   0.846
  853W        W 4372   6.182   5.946   1.680
  854W        W 4373   0.642   2.850   9.522
  855W        W 4374   4.214   2.762   9.464
  856W        W 4375   9.454   0.611   3.639
  857W        W 4376   7.959   7.378   0.414
  858W        W 4377   9.422   8.603  10.286
  859W        W 4378   5.261   5.495   0.207
  860W        W 4379   2.813   3.303   9.596
  861W        W 4380   8.652   3.444   3.266
  862W        W 4381   8.316   1.981   1.730
  863W        W 4382   3.910   8.517   3.819
  864W        W 4383   8.311   3.231  11.473
  865W        W 4384   9.553   3.018   0.269
  866W        W 4385   3.975   2.361  11.276
  867W        W 4386   8.034   6.006   9.559
  868W        W 4387   3.516   4.310   4.209
  869W        W 4388   7.403   4.797   0.408
  870W        W 4389   5.205   2.296   0.183
  871W        W 4390   3.856   7.868   9.492
  872W        W 4391   7.762   1.636  10.276
  873W        W 4392   0.957   9.263   9.527
  874W        W 4393   5.140   5.993   8.129
  875W        W 4394   9.480   1.560   9.951
  876W        W 4395   6.557   2.412   0.925
  877W        W 4396   7.066   6.550   1.357
  878W        W 4397   7.554   3.738   1.964
  879W        W 4398   9.076   9.788  10.418
  880W        W 4399   9.923   4.742   0.882
  881W        W 4400   2.173   9.594   2.175
  882W        W 4401   0.361   4.548   1.762
  883W        W 4402   7.291   2.169   3.225
  884W        W 4403   2.186   3.033  11.452
  885W        W 4404   7.827   3.637   9.523
  886W        W 4405   1.337   9.465   2.661
  887W        W 4406   6.376   6.043   4.161
  888W        W 4407   8.632   5.087  10.382
  889W        W 4408   9.024   4.291  10.637
  890W        W 4409   4.525   7.669  11.375
  891W        W 4410   6.486   1.172   2.689
  892W        W 4411   7.979   0.191   0.971
  893W        W 4412   8.374   3.652  10.202
  894W        W 4413   8.965   4.710  10.292
  895W        W 4414   3.182   6.682  10.905
  896W        W 4415   6.458   7.107   3.525
  897W        W 4416   9.273   2.578  10.818
  898W        W 4417   9.925   9.785   9.249
  899W        W 4418   0.677   4.652  10.895
  900W        W 4419   4.181   4.281  10.577
  901W        W 4420   4.728   2.312   9.010
  902W        W 4421   0.250   3.940   2.168
  903W        W 4422   7.101   2.793  10.699
  904W        W 4423   1.765   6.167   1.282
  905W        W 4424   0.199   5.533   8.463
  906W        W 4425   2.454   3.199   0.230
  907W        W 4426   4.799   6.627   1.978
  908W        W 4427   1.495   8.590   2.844
  909W        W 4428   5.149   0.954   3.353
  910W        W 4429   0.797   7.981   0.019
  911W        W 4430   9.286   7.558   2.828
  912W        W 4431   6.566   7.082   3.007
  913W        W 4432   5.023   3.989  11.981
  914W        W 4433   3.031   7.412   2.900
  915W        W 4434   6.890   2.985   2.854
  916W        W 4435   7.586   1.233   0.520
  917W        W 4436   7.690   9.973   0.362
  918W        W 4437   3.217   7.878   2.864
  919W        W 4438   4.222   6.806   1.420
  920W        W 4439   6.090   3.353   9.134
  921W        W 4440   2.595   8.715   2.401
  922W        W 4441   0.936   7.603  11.681
  923W        W 4442   5.052   8.893   9.071
  924W        W 4443   0.991   5.525  10.869
  925W        W 4444   4.430   4.075   1.991
  926W        W 4445   6.102   5.162   9.305
  927W        W 4446   3.822   9.927   1.024
  928W        W 4447   5.625   0.594   0.718
  929W        W 4448   0.618   7.512  10.863
  930W        W 4449   6.687   9.918   0.407
  931W        W 4450   6.723   0.291   3.626
  932W        W 4451   6.196   4.233   8.210
  933W        W 4452   6.485   4.613   0.468
  934W        W 4453   0.514   3.541  11.764
  935W        W 4454   2.616   0.748   0.782
  936W        W 4455   1.984   2.662   9.545
  937W        W 4456   0.185   0.575  10.745
  938W        W 4457   3.340   2.209   3.494
  939W        W 4458   5.742   2.066  10.438
  940W        W 4459   9.972   2.160  11.468
  941W        W 4460   9.793   1.436   8.658
  942W        W 4461   3.297   3.668  11.095
  943W        W 4462   1.242   3.795   1.960
  944W        W 4463   4.718   2.818   0.806
  945W        W 4464   5.006   9.806   1.289
  946W        W 4465   3.993   3.391  10.431
  947W        W 4466   2.579   3.342  11.629
  948W        W 4467   0.070   6.589   8.867
  949W        W 4468   3.309   1.359   9.911
  950W        W 4469   5.306   6.431   0.705
  951W        W 4470   9.359   2.614  11.364
  952W        W 4471   9.638   7.015   3.623
  953W        W 4472   1.690   2.199   2.420
  954W        W 4473   3.296   3.049   2.422
  955W        W 4474   5.778   1.842   2.808
  956W        W 4475   0.313   0.956   3.381
  957W        W 4476   4.769   5.535   2.725
  958W        W 4477   4.368   7.694   1.097
  959W        W 4478   6.211   7.247  11.388
  960W        W 4479   8.636   2.400   9.623
  961W        W 4480   1.401   9.337   9.798
  962W        W 4481   4.962   9.370  10.500
  963W        W 4482   5.840   0.904   1.759
  964W        W 4483   6.552   3.741   3.574
  965W        W 4484   2.650   0.843  10.625
  966W        W 4485   1.857   7.044   0.905
  967W        W 4486   3.135   7.042   2.586
  968W        W 4487   9.849   4.361   1.265
  969W        W 4488   8.497   4.644   1.439
  970W        W 4489   2.245   1.271  10.908
  971W        W 4490   5.849   5.040   1.343
  972W        W 4491   7.504   6.317   1.623
  973W        W 4492   0.740   5.784   3.208
  974W        W 4493   2.896   0.662  11.038
  975W        W 4494   4.141   1.360   1.622
  976W        W 4495   7.337   6.166   9.536
  977W        W 4496   9.017   6.215   2.694
  978W        W 4497   0.528   7.607   3.192
  979W        W 4498   9.780   0.314   2.174
  980W        W 4499   1.969   9.913   0.004
  981W        W 4500   2.220   5.098   1.858
  982W        W 4501   9.194   7.230   3.526
  983W        W 4502   5.752   6.689   2.867
  984W        W 4503   1.743   2.248   1.445
  985W        W 4504   1.656   5.183   1.105
  986W        W 4505   7.415   3.035  11.567
  987W        W 4506   9.403   5.729   1.154
  988W        W 4507   0.847   7.909   8.868
  989W        W 4508   1.766   5.199  11.781
  990W        W 4509   3.235   8.250   0.467
  991W        W 4510   3.041   7.862  11.025
  992W        W 4511   9.568   5.007  10.455
  993W        W 4512   1.852   8.195   2.917
  994W        W 4513   6.094   1.408   2.387
  995W        W 4514   3.350   3.875  11.537
  996W        W 4515   8.864   3.286  10.462
  997W        W 4516   2.921   2.879   3.213
  998W        W 4517   3.074   9.485   2.225
  999W        W 4518   2.776   1.221  10.962
 1000W        W 4519   1.311   3.325   9.288
 1001W        W 4520   7.031   7.954   0.247
 1002W        W 4521   2.400   8.952  11.358
 1003W        W 4522   3.057   6.581   9.885
 1004W        W 4523   6.675   1.281   1.757
 1005W        W 4524   6.978   4.240   2.274
 1006W        W 4525   9.874   8.278   0.854
 1007W        W 4526   5.064   3.711   8.626
 1008W        W 4527   2.099   1.774   0.388
 1009W        W 4528   4.288   8.429   8.912
 1010W        W 4529   7.858   1.737   3.775
 1011W        W 4530   0.615   0.729   1.196
 1012W        W 4531   6.024   8.541   8.924
 1013W        W 4532   3.105   8.559   2.634
 1014W        W 4533   3.014   1.881   0.472
 1015W        W 4534   9.352   7.937   0.037
 1016W        W 4535   9.977   8.430  11.557
 1017W        W 4536   5.669   8.089   1.841
 1018W        W 4537   1.264   4.043  11.470
 1019W        W 4538   9.114   5.200  10.320
 1020W        W 4539   1.268   0.216   2.606
 1021W        W 4540   2.380   6.665   1.751
 1022W        W 4541   4.167   1.871  11.115
 1023W        W 4542   3.971   8.032   3.469
 1024W        W 4543   8.454   1.186   0.547
 1025W        W 4544   9.823   4.580  11.827
 1026W        W 4545   5.687   0.751  11.934
 1027W        W 4546   3.997   5.043   8.824
 1028W        W 4547   6.517   4.673   2.900
 1029W        W 4548   6.002   5.240   3.794
 1030W        W 4549   8.937   6.471   9.668
 1031W        W 4550   9.044   8.559  11.008
 1032W        W 4551   2.721   2.719   0.225
 1033W        W 4552   9.445   4.723   2.804
 1034W        W 4553   8.626   6.055   1.257
 1035W        W 4554   3.057   6.887  11.464
 1036W        W 4555   7.970   2.767   2.991
 1037W        W 4556   2.179   4.528   1.326
 1038W        W 4557   5.535   3.208   0.060
 1039W        W 4558   5.542   2.288   0.553
 1040W        W 4559   9.828   5.235   0.936
 1041W        W 4560   1.200   5.543   3.224
 1042W        W 4561   6.037   3.531  11.398
 1043W        W 4562   2.244   2.864   9.128
 1044W        W 4563   5.492   4.397  10.733
 1045W        W 4564   4.676   8.213   8.645
 1046W        W 4565   0.762   8.575   1.778
 1047W        W 4566   8.710   9.927   2.014
 1048W        W 4567   1.329   9.981   0.826
 1049W        W 4568   3.558   2.025  11.342
 1050W        W 4569   5.608   5.179   3.172
 1051W        W 4570   4.147   8.597  11.218
 1052W        W 4571   6.786   9.382   1.910
 1053W        W 4572   3.470   2.626   0.617
 1054W        W 4573   0.199   4.286  11.488
 1055W        W 4574   5.175   8.001   2.089
 1056W        W 4575   7.520   7.519   2.338
 1057W        W 4576   7.890   0.633   0.757
 1058W        W 4577   4.218   4.238   2.427
 1059W        W 4578   4.254   3.689   1.703
 1060W        W 4579   4.196   9.812  10.745
 1061W        W 4580   7.902   2.956  10.252
 1062W        W 4581   3.200   9.075   9.790
 1063W        W 4582   6.940   6.932   3.314
 1064W        W 4583   8.257   6.403  11.035
 1065W        W 4584   9.450   4.117   0.543
 1066W        W 4585   5.327   4.375  10.256
 1067W        W 4586   6.992   9.498   0.643
 1068W        W 4587   3.838   9.283   2.341
 1069W        W 4588   3.605   1.812   8.656
 1070W        W 4589   9.786   3.837  11.057
 1071W        W 4590   4.857   5.408  11.877
 1072W        W 4591   6.979   8.601  10.775
 1073W        W 4592   9.666   3.846   0.161
 1074W        W 4593   4.170   2.704  10.913
 1075W        W 4594   1.224   6.726  10.563
 1076W        W 4595   0.965   3.263   0.435
 1077W        W 4596   1.761   8.465  11.810
 1078W        W 4597   1.286   9.746   9.539
 1079W        W 4598   5.631   9.003   0.936
 1080W        W 4599   0.200   7.292  11.152
 1081W        W 4600   0.272   5.915  11.812
 1082W        W 4601   7.579   4.683   1.835
 1083W        W 4602   9.802   5.626  11.805
 1084W        W 4603   4.474   2.267  11.610
 1085W        W 4604   8.264   4.650  11.015
 1086W        W 4605   3.555   5.982   2.899
 1087W        W 4606   4.147   6.910   9.639
 1088W        W 4607   5.255   0.581  11.433
 1089W        W 4608   1.032   1.553   1.739
 1090W        W 4609   5.399   1.207   9.233
 1091W        W 4610   6.769   8.379  11.180
 1092W        W 4611   1.858   2.289   9.910
 1093W        W 4612   8.908   5.688  10.451
 1094W        W 4613   7.117   3.567   0.878
 1095W        W 4614   9.451   8.391  10.753
 1096W        W 4615   8.051   5.003  11.490
 1097W        W 4616   5.550   0.653  10.053
 1098W        W 4617   2.477   3.635   3.188
 1099W        W 4618   7.626   3.895  10.836
 1100W        W 4619   6.112   4.662   9.503
 1101W        W 4620   9.334   9.501   0.912
 1102W        W 4621   4.696   8.661  10.461
 1103W        W 4622   6.990   8.036   2.707
 1104W        W 4623   9.781   7.365   1.084
 1105W        W 4624   6.967   5.350   0.239
 1106W        W 4625   0.663   6.628   2.166
 1107W        W 4626   3.658   2.473   2.705
 1108W        W 4627   7.521   1.576   1.515
 1109W        W 4628   1.888   9.562   3.337
 1110W        W 4629   3.642   8.480   1.764
 1111W        W 4630   3.701   4.210  10.763
 1112W        W 4631   3.729   8.897   2.660
 1113W        W 4632   6.552   6.578   3.233
 1114W        W 4633   8.923   6.503  11.727
 1115W        W 4634   0.429   8.459   9.362
 1116W        W 4635   3.136   9.859   2.625
 1117W        W 4636   0.538   0.457   3.333
 1118W        W 4637   1.177   8.863   0.329
 1119W        W 4638   8.533   5.458  10.774
 1120W        W 4639   6.058   5.495   3.317
 1121W        W 4640   3.700   9.608   8.924
 1122W        W 4641   0.829   8.918  11.439
 1123W        W 4642   4.236   0.656  10.583
 1124W        W 4643   2.136   6.511  11.446
 1125W        W 4644   0.978   4.999  10.479
 1126W        W 4645   6.467   8.224  11.538
 1127W        W 4646   3.806   5.970  10.760
 1128W        W 4647   9.802   4.061  11.706
 1129W        W 4648   0.659   7.583   2.707
 1130W        W 4649   3.178   7.383   0.868
 1131W        W 4650   0.044   5.399   2.923
 1132W        W 4651   1.439   2.955   0.182
 1133W        W 4652   3.674   5.965   0.445
 1134W        W 4653   8.538   8.951   8.983
 1135W        W 4654   9.759   6.538   9.288
 1136W        W 4655   9.107   5.729   2.831
 1137W        W 4656   8.478   2.748  11.468
 1138W        W 4657   6.917   4.964  10.181
 1139W        W 4658   1.651   3.501  10.512
 1140W        W 4659   8.608   3.972   0.880
 1141W        W 4660   7.440   9.453  11.742
 1142W        W 4661   0.344   2.613   9.929
 1143W        W 4662   5.594   7.111   1.185
 1144W        W 4663   8.848   1.320   3.281
 1145W        W 4664   9.948   0.064   8.796
 1146W        W 4665   4.906   3.358   1.527
 1147W        W 4666   4.811   3.146   4.101
 1148W        W 4667   3.048   6.192   2.164
 1149W        W 4668   7.966   3.898   1.422
 1150W        W 4669   3.126   3.343   2.030
 1151W        W 4670   0.636   9.788   2.219
 1152W        W 4671   1.357   9.320   2.182
 1153W        W 4672   1.169   4.609  10.822
 1154W        W 4673   2.233   9.236   3.537
 1155W        W 4674   4.773   3.700  10.379
 1156W        W 4675   2.149   7.120  10.386
 1157W        W 4676   6.263   6.439   2.408
 1158W        W 4677   1.134   7.162  10.315
 1159W        W 4678   6.935   9.496  11.649
 1160W        W 4679   8.564   7.602   9.868
 1161W        W 4680   2.775   7.896   2.142
 1162W        W 4681   6.166   3.275   1.381
 1163W        W 4682   3.040   9.272   1.776
 1164W        W 4683   4.921   2.249  10.806
 1165W        W 4684   8.927   6.672   1.167
 1166W        W 4685   1.215   6.151  11.015
 1167W        W 4686   6.468   2.629   9.557
 1168W        W 4687   1.793   5.208   9.168
 1169W        W 4688   3.219   5.152   2.351
 1170W        W 4689   6.864   7.165  11.895
 1171W        W 4690   7.434   9.875  11.413
 1172W        W 4691   0.692   6.077  10.213
 1173W        W 4692   6.068   9.997   2.654
 1174W        W 4693   9.274   3.661   0.821
 1175W        W 4694   7.574   7.606   0.145
 1176W        W 4695   3.035   2.856   1.382
 1177W        W 4696   0.748   2.627   0.775
 1178W        W 4697   3.781   6.711   8.810
 1179W        W 4698   5.536   4.551   0.623
 1180W        W 4699   3.890   4.031   0.832
 1181W        W 4700   4.563   8.133   0.292
 1182W        W 4701   9.893   9.148   0.299
 1183W        W 4702   1.950   8.693   3.040
 1184W        W 4703   8.894   3.954   3.210
 1185W        W 4704   7.668   1.471   2.939
 1186W        W 4705   4.626   3.991  11.316
 1187W        W 4706   4.875   2.192   2.611
 1188W        W 4707   3.637   3.405   2.203
 1189W        W 4708   3.219   3.224   3.439
 1190W        W 4709   9.751   1.481   3.574
 1191W        W 4710   0.359   9.457   9.225
 1192W        W 4711   2.640   0.588   2.576
 1193W        W 4712   3.139   7.589  11.958
 1194W        W 4713   2.611   6.200   1.664
 1195W        W 4714   7.315   8.978   9.602
 1196W        W 4715   5.569   8.335  10.280
 1197W        W 4716   6.901   4.649  11.485
 1198W        W 4717   8.517   3.506   0.161
 1199W        W 4718   4.488   8.296   2.735
 1200W        W 4719   3.738   8.273  11.924
 1201W        W 4720   7.135   8.657  11.832
 1202W        W 4721   7.848   9.242   8.698
 1203W        W 4722   2.086   6.483  10.006
 1204W        W 4723   3.723   8.103   0.645
 1205W        W 4724   1.644   4.640   1.285
 1206W        W 4725   1.795   1.686   8.546
 1207W        W 4726   5.213   3.217   2.457
 1208W        W 4727   3.712   6.448   7.867
 1209W        W 4728   5.066   8.055  10.137
 1210W        W 4729   9.606   3.308   0.662
 1211W        W 4730   8.228   5.331   1.905
 1212W        W 4731   1.261   0.774  10.370
 1213W        W 4732   8.764   6.463   3.461
 1214W        W 4733   8.789   3.802   9.923
 1215W        W 4734   9.420   8.030   1.013
 1216W        W 4735   6.451   6.009  11.979
 1217W        W 4736   4.155   4.894  11.374
 1218W        W 4737   0.421   6.210   2.693
 1219W        W 4738   3.597   4.071   0.261
 1220W        W 4739   0.847   2.597   9.110
 1221W        W 4740   8.641   7.469  11.887
 1222W        W 4741   8.418   1.382   1.021
 1223W        W 4742   6.070   0.014  11.368
 1224W        W 4743   2.740   9.691  10.875
 1225W        W 4744   9.094   4.219   9.055
 1226W        W 4745   9.261   7.409   8.691
 1227W        W 4746   6.307   1.731   0.270
 1228W        W 4747   6.658   1.665  10.052
 1229W        W 4748   1.033   4.168   0.191
 1230W        W 4749   2.714   0.397   1.694
 1231W        W 4750   1.855   1.297  11.896
 1232W        W 4751   8.506   7.095   2.533
 1233W        W 4752   1.448   1.798   1.483
 1234W        W 4753   8.571   4.955   1.840
 1235W        W 4754   0.437   2.957   2.336
 1236W        W 4755   9.844   8.017  11.291
 1237W        W 4756   3.509   6.319   0.785
 1238W        W 4757   5.014   0.262  11.838
 1239W        W 4758   7.864   4.529  11.369
 1240W        W 4759   4.166   7.022   0.475
 1241W        W 4760   9.062   2.389  10.393
 1242W        W 4761   6.468   9.785   2.413
 1243W        W 4762   7.464   1.923   1.030
 1244W        W 4763   0.106   2.438  10.467
 1245W        W 4764   2.190   2.383   2.499
 1246W        W 4765   5.778   6.521   9.967
 1247W        W 4766   7.533   8.832   1.391
 1248W        W 4767   2.744   1.666  10.681
 1249W        W 4768   0.699   2.589  10.302
 1250W        W 4769   9.022   1.707  10.844
 1251W        W 4770   4.952   7.043   2.348
 1252W        W 4771   5.737   6.463  11.746
 1253W        W 4772   9.069   5.519   0.313
 1254W        W 4773   7.009   7.658   1.626
 1255W        W 4774   4.578   6.784   8.385
 1256W        W 4775   5.513   3.420   8.950
 1257W        W 4776   8.887   4.955   9.384
 1258W        W 4777   7.406   0.315   1.914
 1259W        W 4778   5.644   8.918  11.063
 1260W        W 4779   3.067   6.049   2.689
 1261W        W 4780   1.659   6.745  11.971
 1262W        W 4781   7.600   3.562   2.479
 1263W        W 4782   2.044   7.835   3.257
 1264W        W 4783   9.225   6.710   3.549
 1265W        W 4784   3.180   8.979   2.295
 1266W        W 4785   8.751   8.442   0.357
 1267W        W 4786   2.596   0.874   1.307
 1268W        W 4787   4.776   8.753   2.692
 1269W        W 4788   3.970   8.027  10.969
 1270W        W 4789   2.724   6.228   9.286
 1271W        W 4790   5.391   6.024   9.051
 1272W        W 4791   0.366   8.994   9.488
 1273W        W 4792   9.107   0.963   9.374
 1274W        W 4793   7.606   6.243   3.732
 1275W        W 4794   3.860   3.893   2.158
 1276W        W 4795   0.418   5.134   2.605
 1277W        W 4796   8.947   8.481  10.478
 1278W        W 4797   9.830   0.429  11.469
 1279W        W 4798   2.756   1.296   8.874
 1280W        W 4799   2.692   8.828   9.102
 1281W        W 4800   8.655   9.435  11.462
 1282W        W 4801   8.810   0.411   9.058
 1283W        W 4802   5.580   3.191   0.567
 1284W        W 4803   8.043   7.136  10.842
 1285W        W 4804   6.212   4.601  10.854
 1286W        W 4805   9.703   8.152  10.228
 1287W        W 4806   3.056   9.098   2.792
 1288W        W 4807   1.426   1.776  11.027
 1289W        W 4808   0.395   3.366  11.285
 1290W        W 4809   9.753   1.250   0.966
 1291W        W 4810   6.899   0.439   1.302
 1292W        W 4811   2.027   5.187   3.191
 1293W        W 4812   2.157   2.289   0.435
 1294W        W 4813   4.323   9.426   8.467
 1295W        W 4814   0.235   1.522   3.370
 1296W        W 4815   1.861   5.210   9.727
 1297W        W 4816   9.979   5.062  10.754
 1298W        W 4817   6.950   2.085   1.043
 1299W        W 4818   2.168   6.560   9.056
 1300W        W 4819   3.891   4.209   2.937
 1301W        W 4820   3.776   2.137   9.038
 1302W        W 4821   0.654   7.177  10.444
 1303W        W 4822   7.465   7.160   0.399
 1304W        W 4823   8.103   3.310   9.903
 1305W        W 4824   0.237   2.918  10.350
 1306W        W 4825   5.252   0.715   2.494
 1307W        W 4826   8.966   0.176   0.937
 1308W        W 4827   3.798   8.542   9.050
 1309W        W 4828   7.143   4.008   1.794
 1310W        W 4829   2.808   1.781   1.949
 1311W        W 4830   8.372   7.111   3.037
 1312W        W 4831   7.355   9.811  10.529
 1313W        W 4832   3.751   0.546   2.747
 1314W        W 4833   9.386   0.605  11.687
 1315W        W 4834   3.159   4.895  11.632
 1316W        W 4835   4.706   3.167   8.070
 1317W        W 4836   3.272   4.198   3.765
 1318W        W 4837   6.967   3.682  10.090
 1319W        W 4838   6.425   8.996   9.921
 1320W        W 4839   0.006   6.490  10.896
 1321W        W 4840   5.096   2.749   9.715
 1322W        W 4841   8.008   8.553   3.555
 1323W        W 4842   6.916   3.313   2.438
 1324W        W 4843   3.894   7.165   3.784
 1325W        W 4844   1.739   9.646  10.463
 1326W        W 4845   6.678   1.687   1.426
 1327W        W 4846   2.164   7.521   8.851
 1328W        W 4847   4.954   9.029   0.412
 1329W        W 4848   9.844   0.399   0.589
 1330W        W 4849   8.891   7.656  11.166
 1331W        W 4850   5.628   9.820  11.506
 1332W        W 4851   5.056   3.026  11.999
 1333W        W 4852   7.573   0.697   3.272
 1334W        W 4853   3.990   3.247   1.854
 1335W        W 4854   7.364   3.077   0.079
 1336W        W 4855   0.716   0.548   9.002
 1337W        W 4856   2.545   1.332   9.352
 1338W        W 4857   9.256   1.461   9.493
 1339W        W 4858   0.830   1.806  11.735
 1340W        W 4859   7.052   9.717   9.731
 1341W        W 4860   0.271   9.910   9.597
 1342W        W 4861   6.075   8.012   9.721
 1343W        W 4862   3.266   8.979  10.745
 1344W        W 4863   1.576   0.783   1.348
 1345W        W 4864   8.517   3.586   2.774
 1346W        W 4865   1.396   7.038   9.025
 1347W        W 4866   0.699   7.521   2.197
 1348W        W 4867   8.487   3.624  11.194
 1349W        W 4868   3.478   5.494  11.711
 1350W        W 4869   2.293   3.211  10.133
 1351W        W 4870   0.847   6.365   1.415
 1352W        W 4871   3.531   5.757   9.785
 1353W        W 4872   8.932   1.373   2.798
 1354W        W 4873   2.644   8.494  11.301
 1355W        W 4874   1.837   9.277   2.428
 1356W        W 4875   4.516   2.374  10.054
 1357W        W 4876   7.847   3.200   2.785
 1358W        W 4877   2.257   3.797  10.937
 1359W        W 4878   1.422   9.286  11.982
 1360W        W 4879   7.346   7.958  11.844
 1361W        W 4880   4.687   1.422   0.189
 1362W        W 4881   7.442   8.432   1.669
 1363W        W 4882   4.057   2.861  10.415
 1364W        W 4883   5.676   4.165   1.568
 1365W        W 4884   3.683   0.374   0.742
 1366W        W 4885   1.721   0.001  10.831
 1367W        W 4886   9.001   7.002   8.903
 1368W        W 4887   0.984   4.101   8.983
 1369W        W 4888   9.424   0.407   0.902
 1370W        W 4889   6.520   8.011   2.528
 1371W        W 4890   2.155   0.370  10.452
 1372W        W 4891   5.227   8.970  11.402
 1373W        W 4892   2.912   3.921   8.425
 1374W        W 4893   1.838   5.412  10.786
 1375W        W 4894   2.277   3.517   1.316
 1376W        W 4895   4.376   4.014   0.644
 1377W        W 4896   4.065   6.036   3.041
 1378W        W 4897   9.098   4.988  11.229
 1379W        W 4898   1.927   7.044   8.985
 1380W        W 4899   6.580   5.500   2.312
 1381W        W 4900   8.554   3.749  11.690
 1382W        W 4901   6.990   1.885  10.608
 1383W        W 4902   5.805   2.633  11.328
 1384W        W 4903   7.437   8.179   2.939
 1385W        W 4904   6.257   6.120  10.299
 1386W        W 4905   6.484   5.741  11.045
 1387W        W 4906   3.068   2.158  11.437
 1388W        W 4907   4.321   7.592   3.203
 1389W        W 4908   7.697   4.649   0.805
 1390W        W 4909   6.681   4.180   1.663
 1391W        W 4910   4.021   2.289   1.817
 1392W        W 4911   4.763   9.574   2.497
 1393W        W 4912   0.965   1.224  10.391
 1394W        W 4913   4.466   7.427   1.908
 1395W        W 4914   4.930   7.975   3.949
 1396W        W 4915   9.383   9.700  11.772
 1397W        W 4916   4.682   2.310   0.612
 1398W        W 4917   5.346   3.428   1.829
 1399W        W 4918   1.210   0.977   0.483
 1400W        W 4919   8.259   5.618   2.545
 1401W        W 4920   0.013   0.199   1.730
 1402W        W 4921   3.610   6.893   2.485
 1403W        W 4922   1.336   4.611   0.323
 1404W        W 4923   2.966   4.650  10.531
 1405W        W 4924   8.708   7.243  11.416
 1406W        W 4925   0.736   2.109  11.106
 1407W        W 4926   1.087   3.101   3.128
 1408W        W 4927   1.034   8.404   9.357
 1409W        W 4928   1.861   7.066   2.325
 1410W        W 4929   4.597   4.166   9.092
 1411W        W 4930   6.081   7.118   0.884
 1412W        W 4931   9.226   5.213   2.793
 1413W        W 4932   4.162   6.369   9.524
 1414W        W 4933   2.472   1.687   1.129
 1415W        W 4934   4.291   3.755   9.617
 1416W        W 4935   5.883   9.466   2.991
 1417W        W 4936   8.457   6.573   1.361
 1418W        W 4937   1.408   7.091   9.890
 1419W        W 4938   3.106   9.509  10.027
 1420W        W 4939   4.159   0.391   9.192
 1421W        W 4940   3.295   1.120   1.312
 1422W        W 4941   3.142   6.547   9.389
 1423W        W 4942   8.909   4.638   9.788
 1424W        W 4943   2.207   0.140   0.437
 1425W        W 4944   3.239   1.745   2.674
 1426W        W 4945   0.359   4.003  11.868
 1427W        W 4946   5.433   5.709  10.259
 1428W        W 4947   8.863   7.948   0.220
 1429W        W 4948   2.583   9.978   1.366
 1430W        W 4949   5.533   4.032   3.347
 1431W        W 4950   3.529   0.874   0.841
 1432W        W 4951   0.093   3.119   3.164
 1433W        W 4952   5.510   1.209  10.667
 1434W        W 4953   7.789   7.421   1.286
 1435W        W 4954   4.718   3.959   1.555
 1436W        W 4955   4.057   8.102   9.931
 1437W        W 4956   8.574   5.375   0.658
 1438W        W 4957   5.054   4.658  10.674
 1439W        W 4958   9.748   8.621   2.847
 1440W        W 4959   9.028   5.488  11.360
 1441W        W 4960   9.993   3.068  11.978
 1442W        W 4961   2.272   1.267   1.462
 1443W        W 4962   6.953   6.841  10.173
 1444W        W 4963   7.640   8.879   1.878
 1445W        W 4964   2.046   1.270   0.401
 1446W        W 4965   1.701   2.715   3.108
 1447W        W 4966   5.953   0.478   8.951
 1448W        W 4967   7.894   0.807   1.239
 1449W        W 4968   1.896   5.707   0.502
 1450W        W 4969   1.770   9.846   8.779
 1451W        W 4970   2.282   2.124   1.317
 1452W        W 4971   4.880   2.795   8.852
 1453W        W 4972   2.174   1.694   9.877
 1454W        W 4973   9.333   3.178   2.962
 1455W        W 4974   2.670   9.494   9.767
 1456W        W 4975   6.931   5.956   2.396
 1457W        W 4976   6.374   6.740  11.009
 1458W        W 4977   8.341   2.872   9.994
 1459W        W 4978   0.193   9.154   1.133
 1460W        W 4979   8.219   9.366   9.091
 1461W        W 4980   3.676   1.605   2.430
 1462W        W 4981   3.731   8.973   9.811
 1463W        W 4982   1.991   8.607   3.565
 1464W        W 4983   3.942   9.215   3.616
 1465W        W 4984   6.025   6.001   2.596
 1466W        W 4985   7.456   6.078   2.463
 1467W        W 4986   5.683   7.025   9.801
 1468W        W 4987   1.736   1.821  10.118
 1469W        W 4988   9.794   9.829   2.035
 1470W        W 4989   7.813   1.613  11.923
 1471W        W 4990   8.534   5.547   1.148
 1472W        W 4991   4.899   2.670   0.320
 1473W        W 4992   2.507   1.924   8.837
 1474W        W 4993   6.210   5.946   0.431
 1475W        W 4994   8.398   3.194   8.999
 1476W        W 4995   6.140   5.466   0.280
 1477W        W 4996   9.397   3.775   3.171
 1478W        W 4997   3.068   1.109   0.843
 1479W        W 4998   8.506   8.372   1.911
 1480W        W 4999   8.427   0.056   9.684
 1481W        W 5000   9.418   1.378  11.248
 1482W        W 5001   6.879   0.184   9.559
 1483W        W 5002   7.041   4.814   3.622
 1484W        W 5003   1.397   1.501   1.059
 1485W        W 5004   8.501   0.305  11.662
 1486W        W 5005   2.300   5.990  10.062
 1487W        W 5006   5.795   7.289  10.652
 1488W        W 5007   2.715   8.898   0.542
 1489W        W 5008   6.665   4.139   0.350
 1490W        W 5009   3.731   4.625   1.665
 1491W        W 5010   6.952   3.408   3.622
 1492W        W 5011   3.233   4.157   9.567
 1493W        W 5012   0.894   9.362   2.406
 1494W        W 5013   7.367   6.549   2.069
 1495W        W 5014   9.322   3.321   9.169
 1496W        W 5015   7.146   6.037   3.765
 1497W        W 5016   2.207   4.982  11.541
 1498W        W 5017   6.498   4.884  11.227
 1499W        W 5018   9.480   9.009   0.579
 1500W        W 5019   5.043   6.693   8.624
 1501W        W 5020   1.220   2.855   0.662
 1502W        W 5021   7.092   2.486   1.348
 1503W        W 5022   1.130   7.459   3.017
 1504W        W 5023   8.101   3.831   0.923
 1505W        W 5024   7.558   0.789  10.824
 1506W        W 5025   8.467   9.846   3.018
 1507W        W 5026   7.751   4.729   2.374
 1508W        W 5027   9.402   0.445  10.660
 1509W        W 5028   9.950   3.055   2.164
 1510W        W 5029   8.568   2.282  10.499
 1511W        W 5030   3.038   5.043   3.254
 1512W        W 5031   4.844   6.054   1.447
 1513W        W 5032   4.016   3.916   1.309
 1514W        W 5033   3.669   3.758   8.480
 1515W        W 5034   3.645   0.073   1.517
 1516W        W 5035   8.439   7.078  10.034
 1517W        W 5036   5.116   5.284   1.870
 1518W        W 5037   3.365   0.898   1.777
 1519W        W 5038   9.472   2.450   1.766
 1520W        W 5039   8.328   6.657   9.009
 1521W        W 5040   8.899   3.105   2.686
 1522W        W 5041   1.765   6.337   2.847
 1523W        W 5042   4.999   0.674  10.970
 1524W        W 5043   8.964   7.093   0.802
 1525W        W 5044   4.019   4.333   0.455
 1526W        W 5045   1.521   6.928   3.631
 1527W        W 5046   9.182   6.072   1.876
 1528W        W 5047   1.331   6.698   0.359
 1529W        W 5048   7.480   0.911   0.900
 1530W        W 5049   9.803   3.256   2.795
 1531W        W 5050   4.010   3.236  10.919
 1532W        W 5051   5.473   2.289   9.894
 1533W        W 5052   8.118   8.399   9.445
 1534W        W 5053   7.637   2.333   2.228
 1535W        W 5054   7.583   1.093   8.453
 1536W        W 5055   6.108   6.728   9.632
 1537W        W 5056   7.428   8.532   9.824
 1538W        W 5057   9.241   4.473  11.120
 1539W        W 5058   3.322   7.943   0.901
 1540W        W 5059   4.222   2.570   3.105
 1541W        W 5060   0.211   1.826  10.290
 1542W        W 5061   9.171   3.140   0.800
 1543W        W 5062   3.451   1.219  10.458
 1544W        W 5063   5.926   2.710  10.336
 1545W        W 5064   4.323   4.433   8.507
 1546W        W 5065   7.381   9.545   0.265
 1547W        W 5066   5.003   6.592  10.610
 1548W        W 5067   7.850   6.297   3.268
 1549W        W 5068   1.719   5.733   9.068
 1550W        W 5069   6.392   1.365  11.503
 1551W        W 5070   0.011   5.861   0.216
 1552W        W 5071   1.851   9.223   9.585
 1553W        W 5072   5.466   8.493  11.303
 1554W        W 5073   1.858   4.697  11.311
 1555W        W 5074   4.713   1.432   0.699
 1556W        W 5075   9.610   7.469   3.378
 1557W        W 5076   5.532   2.227   1.554
 1558W        W 5077   6.927   5.503   8.399
 1559W        W 5078   9.644   6.444   8.583
 1560W        W 5079   1.355   8.456   0.087
 1561W        W 5080   6.465   7.798   9.474
 1562W        W 5081   8.487   6.940   1.013
 1563W        W 5082   9.443   4.180   2.828
 1564W        W 5083   5.105   6.427  11.090
 1565W        W 5084   5.842   1.883   1.296
 1566W        W 5085   4.605   3.574   8.406
 1567W        W 5086   8.126   9.422  11.216
 1568W        W 5087   4.146   3.274   9.513
 1569W        W 5088   9.850   1.310  11.476
 1570W        W 5089   0.230   1.038   1.045
 1571W        W 5090   6.368   3.745   0.292
 1572W        W 5091   2.601   1.959  11.563
 1573W        W 5092   7.670   2.127  11.737
 1574W        W 5093   5.184   7.042   9.980
 1575W        W 5094   3.772   1.769   0.912
 1576W        W 5095   4.187   3.172  10.008
 1577W        W 5096   0.289   3.732  10.933
 1578W        W 5097   8.562   6.625   0.089
 1579W        W 5098   1.260   1.605  11.906
 1580W        W 5099   9.433   3.172   2.445
 1581W        W 5100   2.891   0.157  11.077
 1582W        W 5101   7.525   1.175  11.998
 1583W        W 5102   2.918   4.315   0.847
 1584W        W 5103   0.885   0.072   8.888
 1585W        W 5104   7.044   5.504   1.654
 1586W        W 5105   8.862   6.951   3.272
 1587W        W 5106   8.095   0.087  10.905
 1588W        W 5107   7.267   4.614  10.185
 1589W        W 5108   4.729   3.759   9.377
 1590W        W 5109   6.677   5.170   8.941
 1591W        W 5110   5.451   7.610   1.860
 1592W        W 5111   5.725   6.096  10.406
 1593W        W 5112   7.828   6.656  10.879
 1594W        W 5113   7.463   1.873   1.974
 1595W        W 5114   9.105   3.060   9.892
 1596W        W 5115   1.072   5.751   2.211
 1597W        W 5116   2.114   2.588   1.370
 1598W        W 5117   8.749   4.320   0.502
 1599W        W 5118   8.062   2.814   8.872
 1600W        W 5119   3.585   3.653   0.703
 1601W        W 5120   3.412   0.306  11.057
 1602W        W 5121   9.711   8.601   8.568
 1603W        W 5122   0.218   0.018   0.833
 1604W        W 5123   7.029   9.025  10.480
 1605W        W 5124   5.025   4.100   3.314
 1606W        W 5125   7.112   5.984  11.483
 1607W        W 5126   3.289   0.751  11.374
 1608W        W 5127   5.207   0.073  11.360
 1609W        W 5128   3.812   8.285  10.526
 1610W        W 5129   1.787   3.113   9.393
 1611W        W 5130   9.839   8.029  10.722
 1612W        W 5131   7.377   7.509   9.982
 1613W        W 5132   4.944   5.294   1.365
 1614W        W 5133   7.583   5.592  10.250
 1615W        W 5134   4.968   7.515  11.649
 1616W        W 5135   5.170   0.732  11.926
 1617W        W 5136   9.011   3.230   8.685
 1618W        W 5137   3.081   7.882  11.530
 1619W        W 5138   4.026   2.221  10.773
 1620W        W 5139   9.354   9.961   0.675
 1621W        W 5140   9.521   6.474   2.754
 1622W        W 5141   2.290   0.175   1.903
 1623W        W 5142   8.689   1.820  11.698
 1624W        W 5143   3.854   3.603   8.027
 1625W        W 5144   8.483   0.321   0.771
 1626W        W 5145   6.638   3.244  10.442
 1627W        W 5146   7.840   6.103  10.898
 1628W        W 5147   3.191   2.892   0.302
 1629W        W 5148   2.760   6.408  11.028
 1630W        W 5149   3.635   0.974   3.047
 1631W        W 5150   7.771   8.457  11.261
 1632W        W 5151   3.734   8.800  10.547
 1633W        W 5152   9.846   9.996  11.770
 1634W        W 5153   4.661   3.260  10.163
 1635W        W 5154   1.024   9.713   0.499
 1636W        W 5155   6.634   7.509   3.280
 1637W        W 5156   1.074   2.843  10.746
 1638W        W 5157   5.428   2.758   0.305
 1639W        W 5158   3.200   8.293  10.139
 1640W        W 5159   3.597   4.234  11.260
 1641W        W 5160   0.667   4.927   0.981
 1642W        W 5161   3.575   5.887   9.231
 1643W        W 5162   4.197   0.050   1.922
 1644W        W 5163   1.840   5.866   2.699
 1645W        W 5164   0.459   9.276   8.751
 1646W        W 5165   4.146   2.239   2.711
 1647W        W 5166   3.700   6.362  10.443
 1648W        W 5167   3.815   6.112  10.018
 1649W        W 5168   2.061   1.492   0.882
 1650W        W 5169   9.672   1.018   1.437
 1651W        W 5170   4.588   7.166   3.219
 1652W        W 5171   2.706   8.992   9.612
 1653W        W 5172   6.778   9.960   1.365
 1654W        W 5173   5.141   4.983   3.385
 1655W        W 5174   3.356   1.116   0.354
 1656W        W 5175   4.301   9.093  11.279
 1657W        W 5176   3.788   9.188   1.156
 1658W        W 5177   0.470   4.154   9.553
 1659W        W 5178   1.958   2.692   2.168
 1660W        W 5179   2.321   8.806   8.741
 1661W        W 5180   1.279   7.596   9.974
 1662W        W 5181   0.010   8.082   2.242
 1663W        W 5182   8.084   5.507   0.822
 1664W        W 5183   0.902   0.858   9.999
 1665W        W 5184   1.328   4.916  11.931
 1666W        W 5185   4.234   8.605   0.715
 1667W        W 5186   5.207   5.950   0.446
 1668W        W 5187   2.592   6.412  10.035
 1669W        W 5188   0.793   7.176   9.503
 1670W        W 5189   7.984   6.860   2.168
 1671W        W 5190   0.034   2.154   9.394
 1672W        W 5191   1.693   9.981   9.297
 1673W        W 5192   8.863   0.912   2.565
 1674W        W 5193   4.525   5.090   1.769
 1675W        W 5194   7.473   9.423   0.863
 1676W        W 5195   5.533   3.865  11.822
 1677W        W 5196   6.441   5.990   2.290
 1678W        W 5197   7.453   0.327   0.077
 1679W        W 5198   6.455   0.482   9.350
 1680W        W 5199   0.573   9.046  10.009
 1681W        W 5200   7.961   0.187   2.596
 1682W        W 5201   2.769   5.491   3.180
 1683W        W 5202   7.275   1.801   2.856
 1684W        W 5203   6.094   4.501   3.130
 1685W        W 5204   0.904   2.498   9.848
 1686W        W 5205   2.903   9.594   1.418
 1687W        W 5206   5.089   4.971   0.052
 1688W        W 5207   9.319   0.132   3.492
 1689W        W 5208   5.588   2.630   9.521
 1690W        W 5209   7.456   8.847  11.031
 1691W        W 5210   6.136   4.770   4.109
 1692W        W 5211   6.911   8.200  11.789
 1693W        W 5212   6.130   7.636  10.847
 1694W        W 5213   6.384   6.915   8.704
 1695W        W 5214   3.534   7.590   0.564
 1696W        W 5215   7.995   9.523   1.620
 1697W        W 5216   7.195   6.147  10.097
 1698W        W 5217   0.798   3.963   2.974
 1699W        W 5218   4.575   6.620   2.410
 1700W        W 5219   6.688   0.543  10.462
 1701W        W 5220   8.595   9.064   9.850
 1702W        W 5221   4.261   8.757   2.921
 1703W        W 5222   7.875   8.847   0.450
 1704W        W 5223   3.348   9.197   3.228
 1705W        W 5224   9.834   6.677  10.456
 1706W        W 5225   8.663   3.136  11.839
 1707W        W 5226   2.116   1.488   1.951
 1708W        W 5227   7.175   7.062  11.466
 1709W        W 5228   0.003   7.081   3.281
 1710W        W 5229   3.398   6.447   8.472
 1711W        W 5230   0.731   8.002  10.985
 1712W        W 5231   1.217   3.153  11.173
 1713W        W 5232   1.578   1.207   8.759
 1714W        W 5233   9.747   7.548   8.953
 1715W        W 5234   5.917   9.523  11.808
 1716W        W 5235   4.052   7.193  10.610
 1717W        W 5236   3.309   0.407  10.118
 1718W        W 5237   0.871   8.530   1.261
 1719W        W 5238   8.072   0.252  10.008
 1720W        W 5239   9.515   9.212   3.463
 1721W        W 5240   4.961   8.502  11.354
 1722W        W 5241   2.665   8.313  10.383
 1723W        W 5242   5.993   9.300   1.266
 1724W        W 5243   8.198   7.485   2.709
 1725W        W 5244   0.876   4.091   1.176
 1726W        W 5245   2.078   0.802   1.308
 1727W        W 5246   9.821   8.325   3.254
 1728W        W 5247   5.118   8.034   9.564
 1729W        W 5248   8.389   1.710   0.566
 1730W        W 5249   0.480   5.702   0.340
 1731W        W 5250   0.294   7.993   0.760
 1732W        W 5251   6.285   5.901   1.177
 1733W        W 5252   8.706   8.862  10.740
 1734W        W 5253   4.333   9.758   0.626
 1735W        W 5254   5.341   7.494  10.708
 1736W        W 5255   6.550   0.225   2.123
 1737W        W 5256   3.851   5.108  10.925
 1738W        W 5257   1.760   2.641   9.079
 1739W        W 5258   7.592   0.376  10.121
 1740W        W 5259   1.656   8.013  10.495
 1741W        W 5260   4.677   6.199   4.140
 1742W        W 5261   2.139   2.532  11.543
 1743W        W 5262   0.152   7.501   3.521
 1744W        W 5263   1.385   5.315   0.246
 1745W        W 5264   7.079   7.836   3.267
 1746W        W 5265   2.308   7.409  11.565
 1747W        W 5266   5.873   9.490   8.691
 1748W        W 5267   8.652   3.290   9.976
 1749W        W 5268   4.525   7.892  10.010
 1750W        W 5269   4.598   9.502   1.341
 1751W        W 5270   3.012   1.825   9.929
 1752W        W 5271   6.353   5.099   1.535
 1753W        W 5272   4.381   5.093  10.851
 1754W        W 5273   3.423   6.832   0.777
 1755W        W 5274   9.584   1.786  11.521
 1756W        W 5275   4.990   5.505   8.316
 1757W        W 5276   3.151   6.012   1.066
 1758W        W 5277   5.096   0.121   1.711
 1759W        W 5278   1.387   0.184   2.073
 1760W        W 5279   9.098   6.694   2.553
 1761W        W 5280   7.187   0.778   2.155
 1762W        W 5281   7.700   4.553   9.494
 1763W        W 5282   3.780   4.436  10.305
 1764W        W 5283   8.439   2.597   0.451
 1765W        W 5284   1.234   3.320   2.184
 1766W        W 5285   2.782   8.874   1.954
 1767W        W 5286   1.388   9.409  10.894
 1768W        W 5287   3.311   3.133   2.936
 1769W        W 5288   2.776   5.523   8.950
 1770W        W 5289   8.325   4.555   8.298
 1771W        W 5290   1.325   6.151   2.029
 1772W        W 5291   1.985   0.477   9.485
 1773W        W 5292   1.879   9.276  10.761
 1774W        W 5293   9.988   6.498   1.433
 1775W        W 5294   9.121   6.543   3.073
 1776W        W 5295   8.817   3.138  11.339
 1777W        W 5296   5.772   4.112   3.787
 1778W        W 5297   7.268   9.004   8.762
 1779W        W 5298   0.456   5.675   2.772
 1780W        W 5299   7.677   9.894   1.795
 1781W        W 5300   0.673   5.173   2.022
 1782W        W 5301   6.477   9.812   2.928
 1783W        W 5302   7.083   1.426   1.280
 1784W        W 5303   6.893   0.065  10.539
 1785W        W 5304   1.141   3.323  10.657
 1786W        W 5305   5.451   8.948   1.911
 1787W        W 5306   1.375   4.015   1.358
 1788W        W 5307   5.125   1.749   2.383
 1789W        W 5308   7.933   9.806   3.237
 1790W        W 5309   3.214   0.856   9.889
 1791W        W 5310   6.106   0.250   0.715
 1792W        W 5311   9.877   2.752   1.752
 1793W        W 5312   5.905   6.434   3.339
 1794W        W 5313   6.342   9.032   0.183
 1795W        W 5314   4.224   7.998   8.565
 1796W        W 5315   3.154   6.047   9.529
 1797W        W 5316   8.024   1.410   0.358
 1798W        W 5317   7.546   9.864   9.491
 1799W        W 5318   1.679   7.478   0.735
 1800W        W 5319   6.049   3.745  11.864
 1801W        W 5320   5.824   0.628   3.709
 1802W        W 5321   4.635   1.363   9.918
 1803W        W 5322   2.888   1.713  11.184
 1804W        W 5323   8.013   6.996   2.656
 1805W        W 5324   3.065   5.597   9.767
 1806W        W 5325   2.786   3.074   0.579
 1807W        W 5326   4.002   1.821   9.972
 1808W        W 5327   2.719   9.345   8.158
 1809W        W 5328   5.220   6.184   8.602
 1810W        W 5329   8.041   8.884  10.380
 1811W        W 5330   1.339   4.085  10.961
 1812W        W 5331   4.980   4.525   3.617
 1813W        W 5332   8.195   4.276   3.570
 1814W        W 5333   5.640   6.187   8.224
 1815W        W 5334   8.618   0.817  11.630
 1816W        W 5335   1.290   6.512   2.888
 1817W        W 5336   3.565   5.297  10.503
 1818W        W 5337   6.647   8.116   0.542
 1819W        W 5338   6.569   6.472   8.497
 1820W        W 5339   4.471   9.290  10.826
 1821W        W 5340   0.002   9.033   8.587
 1822W        W 5341   8.851   7.373   1.869
 1823W        W 5342   8.448   4.755   9.594
 1824W        W 5343   8.842   5.795  10.983
 1825W        W 5344   3.728   5.530   2.741
 1826W        W 5345   1.240   2.234  11.105
 1827W        W 5346   6.459   2.142   9.249
 1828W        W 5347   0.988   1.746   1.256
 1829W        W 5348   1.448   4.975  11.442
 1830W        W 5349   2.791   3.177   2.452
 1831W        W 5350   0.008   3.877   1.145
 1832W        W 5351   3.389   0.271   1.129
 1833W        W 5352   3.833   1.178   1.241
 1834W        W 5353   9.101   3.780   8.766
 1835W        W 5354   3.758   7.041   1.328
 1836W        W 5355   0.472   1.867   9.385
 1837W        W 5356   4.611   8.636   0.354
 1838W        W 5357   4.685   6.911   9.970
 1839W        W 5358   3.705   0.770  11.791
 1840W        W 5359   0.193   8.032   0.256
 1841W        W 5360   3.982   0.335   2.287
 1842W        W 5361   7.569   9.841   2.707
 1843W        W 5362   4.982   6.073   0.945
 1844W        W 5363   4.774   8.380  10.903
 1845W        W 5364   6.102   1.355  10.791
 1846W        W 5365   6.010   2.262   3.182
 1847W        W 5366   6.018   4.077   8.666
 1848W        W 5367   0.698   3.604  10.627
 1849W        W 5368   4.713   6.923   2.785
 1850W        W 5369   7.572   4.875   9.876
 1851W        W 5370   5.078   6.065  10.309
 1852W        W 5371   7.310   1.166  10.502
 1853W        W 5372   9.917   7.118   1.941
 1854W        W 5373   2.548   5.978  11.675
 1855W        W 5374   6.328   7.873   3.485
 1856W        W 5375   8.617   3.568   8.623
 1857W        W 5376   2.653   4.070   0.402
 1858W        W 5377   8.233   1.468  10.451
 1859W        W 5378   8.874   5.466   9.488
 1860W        W 5379   1.195   3.735   0.488
 1861W        W 5380   8.376   5.220   2.868
 1862W        W 5381   2.704   4.101   8.858
 1863W        W 5382   0.585   0.211   0.050
 1864W        W 5383   6.897   2.873   8.873
 1865W        W 5384   1.309   5.453   9.039
 1866W        W 5385   3.710   4.269   2.477
 1867W        W 5386   9.986   1.974  10.726
 1868W        W 5387   6.052   6.493   8.634
 1869W        W 5388   5.664   8.501   0.660
 1870W        W 5389   9.709   3.259   1.717
 1871W        W 5390   4.037   9.564   1.928
 1872W        W 5391   9.358   5.690  11.019
 1873W        W 5392   2.652   8.597   0.989
 1874W        W 5393   2.414   0.357   9.226
 1875W        W 5394   8.515   6.049   2.478
 1876W        W 5395   6.813   1.998   2.760
 1877W        W 5396   0.677   3.557   0.739
 1878W        W 5397   9.029   5.332  10.828
 1879W        W 5398   5.794   5.147  10.189
 1880W        W 5399   8.898   0.200   0.423
 1881W        W 5400   2.705   3.418   1.024
 1882W        W 5401   1.965   2.609  10.714
 1883W        W 5402   7.476   1.300   9.988
 1884W        W 5403   9.561   3.720   3.640
 1885W        W 5404   6.774   5.614   2.787
 1886W        W 5405   3.255   8.991   0.930
 1887W        W 5406   7.300   5.490  11.322
 1888W        W 5407   3.767   2.494   9.452
 1889W        W 5408   9.869   9.349  11.095
 1890W        W 5409   0.023   3.594  11.856
 1891W        W 5410   6.331   9.700   1.347
 1892W        W 5411   4.697   1.445  10.546
 1893W        W 5412   5.629   4.706   2.949
 1894W        W 5413   1.810   7.794   2.599
 1895W        W 5414   2.379   4.613   2.406
 1896W        W 5415   0.935   6.577  11.009
 1897W        W 5416   9.960   5.239  11.221
 1898W        W 5417   2.227   9.673   9.985
 1899W        W 5418   3.782   2.635   1.051
 1900W        W 5419   2.337   7.036   0.692
 1901W        W 5420   8.536   6.229   0.417
 1902W        W 5421   3.916   6.690   0.893
 1903W        W 5422   0.465   4.118   9.040
 1904W        W 5423   4.245   8.850  10.677
 1905W        W 5424   3.179   0.731   3.264
 1906W        W 5425   0.352   2.084   1.330
 1907W        W 5426   9.442   9.341  10.802
 1908W        W 5427   8.031   1.994   2.213
 1909W        W 5428   6.475   9.327   1.030
 1910W        W 5429   8.504   6.809  11.589
 1911W        W 5430   2.365   8.463   0.442
 1912W        W 5431   6.838   9.760   9.272
 1913W        W 5432   7.436   2.026  10.360
 1914W        W 5433   2.605   7.003  11.282
 1915W        W 5434   4.609   4.689   9.823
 1916W        W 5435   4.612   1.290   2.969
 1917W        W 5436   0.220   0.396   9.075
 1918W        W 5437   9.464   5.885  11.478
 1919W        W 5438   1.368   9.226   1.667
 1920W        W 5439   3.629   9.221  10.265
 1921W        W 5440   4.722   9.487   0.833
 1922W        W 5441   8.551   8.124  11.512
 1923W        W 5442   0.159   3.735   9.790
 1924W        W 5443   8.530   8.547   9.735
 1925W        W 5444   8.763   5.615  11.795
 1926W        W 5445   9.010   2.599   2.003
 1927W        W 5446   4.140   7.606   9.167
 1928W        W 5447   8.457   8.023  10.528
 1929W        W 5448   7.879   5.922   1.628
 1930W        W 5449   3.202   4.239   9.048
 1931W        W 5450   8.169   6.622   8.519
 1932W        W 5451   2.699   5.269   1.158
 1933W        W 5452   5.409   9.773   1.970
 1934W        W 5453   8.033   0.644   2.371
 1935W        W 5454   0.259   6.015   8.677
 1936W        W 5455   4.675   8.502   1.458
 1937W        W 5456   8.578   8.439   9.232
 1938W        W 5457   1.566   6.678   8.683
 1939W        W 5458   2.326   3.271   0.727
 1940W        W 5459   6.669   4.551  11.969
 1941W        W 5460   0.782   2.297   2.515
 1942W        W 5461   4.991   0.972   9.033
 1943W        W 5462   4.677   2.790   3.270
 1944W        W 5463   8.009   7.727   3.125
 1945W        W 5464   8.445   4.146   1.330
 1946W        W 5465   9.975   6.843   0.538
 1947W        W 5466   1.288   6.327   9.528
 1948W        W 5467   6.425   1.018   0.845
 1949W        W 5468   1.623   7.496   2.236
 1950W        W 5469   4.269   3.595   2.216
 1951W        W 5470   1.199   8.526   9.998
 1952W        W 5471   4.781   1.981   9.441
 1953W        W 5472   5.702   9.701  10.076
 1954W        W 5473   1.901   3.954   9.772
 1955W        W 5474   9.150   6.184  11.022
 1956W        W 5475   5.977   4.444   0.385
 1957W        W 5476   8.813   7.722   1.470
 1958W        W 5477   7.375   0.813   9.861
 1959W        W 5478   0.048   9.670   0.457
 1960W        W 5479   5.163   6.573   2.352
 1961W        W 5480   7.129   1.074   1.719
 1962W        W 5481   1.374   7.115   8.490
 1963W        W 5482   4.726   7.971   1.336
 1964W        W 5483   0.648   3.889  11.400
 1965W        W 5484   0.454   2.373  11.442
 1966W        W 5485   5.877   9.397  10.828
 1967W        W 5486   5.575   1.881   0.862
 1968W        W 5487   7.352   7.705   2.787
 1969W        W 5488   4.287   3.086   2.241
 1970W        W 5489   8.874   9.242   0.947
 1971W        W 5490   0.968   5.802   2.734
 1972W        W 5491   1.637   4.994   2.506
 1973W        W 5492   5.140   2.554   4.214
 1974W        W 5493   4.681   6.977   1.192
 1975W        W 5494   2.123   3.531  11.404
 1976W        W 5495   8.347   3.829   3.210
 1977W        W 5496   6.463   8.838   3.616
 1978W        W 5497   1.385   8.092   2.777
 1979W        W 5498   3.567   4.075   8.098
 1980W        W 5499   6.351   5.621   3.730
 1981W        W 5500   8.379   4.546   0.239
 1982W        W 5501   9.999   9.810  10.268
 1983W        W 5502   5.236   3.540   0.778
 1984W        W 5503   5.615   7.914   2.325
 1985W        W 5504   5.791   7.382   0.026
 1986W        W 5505   2.659   8.589   2.908
 1987W        W 5506   2.904   1.874   3.526
 1988W        W 5507   4.477   2.334  10.566
 1989W        W 5508   5.292   9.468   3.038
 1990W        W 5509   6.876   8.967   1.586
 1991W        W 5510   8.490   7.088  10.581
 1992W        W 5511   0.105   4.091   1.686
 1993W        W 5512   9.776   0.977   3.365
 1994W        W 5513   5.041   9.199   2.680
 1995W        W 5514   1.120   8.485  10.525
 1996W        W 5515   9.628   2.378   3.559
 1997W        W 5516   0.876   0.639   0.270
 1998W        W 5517   1.608   9.078   1.227
 1999W        W 5518   5.484   7.260   3.622
 2000W        W 5519   7.508   1.087   1.393
 2001W        W 5520   6.215   0.745   0.023
 2002W        W 5521   7.867   0.409  10.546
 2003W        W 5522   0.501   1.594   1.374
 2004W        W 5523   5.532   5.046  11.301
 2005W        W 5524   2.351   4.384   0.803
 2006W        W 5525   7.623   7.611  10.428
 2007W        W 5526   4.799   9.956   0.583
 2008W        W 5527   7.342   2.148   9.023
 2009W        W 5528   7.272   5.613   4.049
 2010W        W 5529   1.246   2.217   1.288
 2011W        W 5530   4.158   5.240   3.378
 2012W        W 5531   3.491   5.808   7.924
 2013W        W 5532   1.034   7.068   3.544
 2014W        W 5533   0.320   3.443   3.511
 2015W        W 5534   8.931   7.844  11.709
 2016W        W 5535   5.492   4.242  11.462
 2017W        W 5536   2.605   7.953  10.756
 2018W        W 5537   5.602   1.094   3.608
 2019W        W 5538   4.231   4.656   1.805
 2020W        W 5539   4.965   6.834   3.223
 2021W        W 5540   9.411   7.961  11.025
 2022W        W 5541   9.318   8.973  11.177
 2023W        W 5542   5.991   8.825   0.472
 2024W        W 5543   0.365   7.598   0.443
 2025W        W 5544   8.177   2.958   9.525
 2026W        W 5545   6.165   7.926   0.607
 2027W        W 5546   2.773   7.496  11.296
 2028W        W 5547   0.362   2.697   1.912
 2029W        W 5548   6.860   6.283  11.858
 2030W        W 5549   6.881   7.353   9.062
 2031W        W 5550   2.740   9.776   8.967
 2032W        W 5551   6.791   3.504   8.524
 2033W        W 5552   1.758   8.816   9.308
 2034W        W 5553   5.648   3.800   9.892
 2035W        W 5554   5.943   7.529   1.824
 2036W        W 5555   6.258   3.982   3.939
 2037W        W 5556   6.642   7.339   9.506
 2038W        W 5557   2.248   2.793   0.462
 2039W        W 5558   7.980   2.280   9.051
 2040W        W 5559   9.118   8.122   1.680
 2041W        W 5560   0.840   5.209  11.534
 2042W        W 5561   4.966   0.544   2.998
 2043W        W 5562   6.095   7.405   0.444
 2044W        W 5563   6.329   0.842  11.533
 2045W        W 5564   3.046   6.486   0.899
 2046W        W 5565   9.947   2.137   2.158
 2047W        W 5566   8.702   3.864   9.421
 2048W        W 5567   0.863   7.108  11.839
 2049W        W 5568   2.481   3.552   2.269
 2050W        W 5569   0.866   6.986   9.035
 2051W        W 5570   1.358   7.383   9.439
 2052W        W 5571   2.962   7.063   9.256
 2053W        W 5572   2.837   3.830   9.729
 2054W        W 5573   7.195   3.219   3.199
 2055W        W 5574   5.218   7.075  11.462
 2056W        W 5575   7.182   8.668   0.698
 2057W        W 5576   6.581   3.824   2.914
 2058W        W 5577   0.007   9.522   8.830
 2059W        W 5578   0.276   7.216   2.817
 2060W        W 5579   9.744   7.720   2.531
 2061W        W 5580   2.751   3.652   1.856
 2062W        W 5581   9.267   1.816   0.521
 2063W        W 5582   9.363   2.087  10.658
 2064W        W 5583   0.166   6.638   2.100
 2065W        W 5584   3.308   4.258   8.542
 2066W        W 5585   2.874   5.963  11.292
 2067W        W 5586   8.202   5.402   0.316
 2068W        W 5587   4.555   8.533   2.295
 2069W        W 5588   4.217   7.236  11.406
 2070W        W 5589   9.664   9.094   2.993
 2071W        W 5590   5.089   8.314   1.227
 2072W        W 5591   5.330   5.204   8.675
 2073W        W 5592   1.628   8.223   1.013
 2074W        W 5593   2.718   9.107   1.012
 2075W        W 5594   9.365   5.496   2.394
 2076W        W 5595   1.741   1.411   3.589
 2077W        W 5596   0.927   6.718   3.189
 2078W        W 5597   7.080   0.843   3.114
 2079W        W 5598   0.365   2.688   3.104
 2080W        W 5599   7.936   2.123   0.929
 2081W        W 5600   1.586   7.558   1.228
 2082W        W 5601   9.220   0.399   1.373
 2083W        W 5602   6.243   3.596   3.195
 2084W        W 5603   5.183   4.482   2.053
 2085W        W 5604   5.561   3.098   3.221
 2086W        W 5605   4.897   7.418   0.998
 2087W        W 5606   6.491   9.873   3.481
 2088W        W 5607   5.177   7.291   3.225
 2089W        W 5608   3.305   2.958  11.174
 2090W        W 5609   1.072   5.736   8.682
 2091W        W 5610   0.808   1.172   0.804
 2092W        W 5611   5.444   1.399  11.152
 2093W        W 5612   9.264   7.066   1.226
 2094W        W 5613   3.614   3.466   0.242
 2095W        W 5614   2.648   4.327   1.267
 2096W        W 5615   7.764   8.460   2.658
 2097W        W 5616   9.007   2.230  11.501
 2098W        W 5617   0.750   2.684   3.465
 2099W        W 5618   6.432   7.612   1.775
 2100W        W 5619   8.328   1.328   8.534
 2101W        W 5620   0.660   4.151   1.751
 2102W        W 5621   7.454   4.929  11.377
 2103W        W 5622   8.999   1.328  10.084
 2104W        W 5623   3.259   2.502   1.062
 2105W        W 5624   6.013   8.120  10.724
 2106W        W 5625   0.510   1.400   9.233
 2107W        W 5626   2.811   6.417  10.525
 2108W        W 5627   7.143   7.342   3.501
 2109W        W 5628   7.486   1.838   9.894
 2110W        W 5629   4.948   8.450   1.917
 2111W        W 5630   7.923   8.861   2.338
 2112W        W 5631   4.045   3.123   8.936
 2113W        W 5632   9.570   4.836  11.387
 2114W        W 5633   1.800   2.161  10.951
 2115W        W 5634   0.487   1.249  10.117
 2116W        W 5635   0.077   9.308   3.213
 2117W        W 5636   4.092   4.133  11.991
 2118W        W 5637   7.365   2.726   0.450
 2119W        W 5638   9.420   6.906  10.199
 2120W        W 5639   2.206   6.142   3.003
 2121W        W 5640   5.393   7.086   8.494
 2122W        W 5641   7.168   2.108   0.578
 2123W        W 5642   8.340   3.093   0.429
 2124W        W 5643   3.541   4.090   1.523
 2125W        W 5644   9.900   2.231   1.592
 2126W        W 5645   0.831   2.860   1.741
 2127W        W 5646   5.125   3.831  11.483
 2128W        W 5647   2.452   2.788   2.329
 2129W        W 5648   5.157   8.243   0.725
 2130W        W 5649   2.797   1.342   1.352
 2131W        W 5650   6.418   7.521   0.815
 2132W        W 5651   5.730   5.607  11.988
 2133W        W 5652   8.905   2.206  10.890
 2134W        W 5653   1.655   6.602   9.734
 2135W        W 5654   6.475   3.705  10.523
 2136W        W 5655   0.846   5.372   2.450
 2137W        W 5656   0.808   1.267  11.740
 2138W        W 5657   0.422   5.136   3.112
 2139W        W 5658   9.065   5.669   9.068
 2140W        W 5659   5.708   9.880  10.994
 2141W        W 5660   5.243   4.964   0.526
 2142W        W 5661   4.284   7.816   1.602
 2143W        W 5662   2.078   4.850   2.810
 2144W        W 5663   1.799   6.913   2.838
 2145W        W 5664   8.078   8.694   0.920
 2146W        W 5665   8.358   9.302   8.592
 2147W        W 5666   1.865   5.224  11.258
 2148W        W 5667   5.432   8.450   2.131
 2149W        W 5668   3.417   2.441   8.804
 2150W        W 5669   4.783   8.430   9.099
 2151W        W 5670   1.849   9.621  11.149
 2152W        W 5671   8.972   7.135   2.803
 2153W        W 5672   2.759   3.057  10.443
 2154W        W 5673   6.602   4.243   3.181
 2155W        W 5674   9.134   4.913   3.207
 2156W        W 5675   5.836   6.087   4.151
 2157W        W 5676   8.767   7.878   1.945
 2158W        W 5677   0.856   6.090   0.846
 2159W        W 5678   1.225   2.569  10.326
 2160W        W 5679   7.283   9.841   9.018
 2161W        W 5680   0.294   9.287   1.604
 2162W        W 5681   1.600   8.900  10.910
 2163W        W 5682   3.225   5.653   1.431
 2164W        W 5683   3.342   0.406   9.032
 2165W        W 5684   3.258   9.693   3.092
 2166W        W 5685   7.241   1.535   8.579
 2167W        W 5686   2.295   4.854   9.180
 2168W        W 5687   8.513   4.902   9.020
 2169W        W 5688   0.283   8.853   0.169
 2170W        W 5689   9.851   4.154   9.791
 2171W        W 5690   5.884   1.923   0.461
 2172W        W 5691   3.552   0.157   2.466
 2173W        W 5692   4.182   0.246   0.812
 2174W        W 5693   9.332   9.014   1.070
 2175W        W 5694   3.604   9.543   9.864
 2176W        W 5695   1.022   4.725  11.548
 2177W        W 5696   7.980   6.384   1.278
 2178W        W 5697   1.301   4.268  10.478
 2179W        W 5698   9.289   2.663   0.535
 2180W        W 5699   3.846   1.259   0.730
 2181W        W 5700   2.326   5.407   1.479
 2182W        W 5701   0.526   8.068   2.902
 2183W        W 5702   4.108   1.932   8.472
 2184W        W 5703   9.487   0.597   3.135
 2185W        W 5704   0.880   6.353   9.838
 2186W        W 5705   6.179   9.966  11.865
 2187W        W 5706   6.253   6.624  10.119
 2188W        W 5707   9.282   7.173   0.396
 2189W        W 5708   2.255   9.640   0.380
 2190W        W 5709   6.556   3.334   1.699
 2191W        W 5710   8.213   4.790   0.681
 2192W        W 5711   4.583   7.667   9.486
 2193W        W 5712   7.927   1.364   9.153
 2194W        W 5713   7.105   2.650  11.700
 2195W        W 5714   3.458   6.521   3.173
 2196W        W 5715   7.008   5.167   2.803
 2197W        W 5716   7.132   2.689  11.201
 2198W        W 5717   9.766   9.490   8.385
 2199W        W 5718   8.862   4.561   8.734
 2200W        W 5719   6.223   8.305   1.842
 2201W        W 5720   3.512   7.415   2.638
 2202W        W 5721   6.470   3.192   2.213
 2203W        W 5722   6.546   5.023   0.167
 2204W        W 5723   5.922   5.617  10.379
 2205W        W 5724   9.874   0.746   9.866
 2206W        W 5725   2.182   0.650   0.478
 2207W        W 5726   2.618   8.247  11.760
 2208W        W 5727   1.240   6.850   9.474
 2209W        W 5728   2.632   9.120   1.509
 2210W        W 5729   7.566   4.250  10.459
 2211W        W 5730   8.336   1.006   1.391
 2212W        W 5731   6.308   7.401  11.915
 2213W        W 5732   0.942   2.202   0.047
 2214W        W 5733   2.757   5.047   3.679
 2215W        W 5734   5.101   8.563  10.085
 2216W        W 5735   0.243   7.451   8.841
 2217W        W 5736   7.447   2.342   9.973
 2218W        W 5737   9.226   3.787   1.743
 2219W        W 5738   0.084   1.773   1.680
 2220W        W 5739   2.474   7.980   3.485
 2221W        W 5740   9.898   2.149   1.064
 2222W        W 5741   5.536   8.799  10.043
 2223W        W 5742   5.376   4.246   2.905
 2224W        W 5743   1.170   6.959  11.293
 2225W        W 5744   3.772   5.034   0.383
 2226W        W 5745   3.577   3.074  10.311
 2227W        W 5746   8.386   0.977   9.847
 2228W        W 5747   7.583   6.053   1.205
 2229W        W 5748   2.661   6.497  11.515
 2230W        W 5749   8.935   7.931   9.772
 2231W        W 5750   7.166   9.711   1.712
 2232W        W 5751   4.709   9.724  10.856
 2233W        W 5752   4.843   9.845   9.734
 2234W        W 5753   5.443   6.681   3.284
 2235W        W 5754   9.482   7.369   2.191
 2236W        W 5755   0.016   2.981   0.514
 2237W        W 5756   4.529   6.577  10.829
 2238W        W 5757   5.324   6.166  10.720
 2239W        W 5758   3.071   2.119   3.946
 2240W        W 5759   4.507   5.066   1.251
 2241W        W 5760   1.009   5.599   0.909
 2242W        W 5761   9.421   7.020  11.724
 2243W        W 5762   2.264   0.721  11.564
 2244W        W 5763   6.805   7.705   3.703
 2245W        W 5764   4.485   8.207  11.373
 2246W        W 5765   1.681   3.945  10.237
 2247W        W 5766   3.625   9.348  10.788
 2248W        W 5767   0.960   0.889  10.784
 2249W        W 5768   5.887   9.805   9.582
 2250W        W 5769   9.557   8.879   8.971
 2251W        W 5770   7.614   6.748   9.501
 2252W        W 5771   5.532   8.529   1.130
 2253W        W 5772   7.451   2.789   1.107
 2254W        W 5773   7.364   1.839   0.064
 2255W        W 5774   8.884   3.761   0.493
 2256W        W 5775   3.746   5.073   4.190
 2257W        W 5776   0.524   9.470   9.706
 2258W        W 5777   7.418   9.343  10.797
 2259W        W 5778   8.009   3.550   1.898
 2260W        W 5779   8.072   8.182  10.909
 2261W        W 5780   7.855   9.371  10.394
 2262W        W 5781   2.762   0.973  11.427
 2263W        W 5782   0.422   8.810   8.980
 2264W        W 5783   3.639   3.133   0.660
 2265W        W 5784   1.729   5.108   2.031
 2266W        W 5785   6.686   7.102   0.807
 2267W        W 5786   9.894   8.942   2.022
 2268W        W 5787   0.811   9.719   9.269
 2269W        W 5788   2.023   4.248  11.085
 2270W        W 5789   9.460   0.147  10.260
 2271W        W 5790   4.844   4.853   2.132
 2272W        W 5791   5.994   3.200   3.428
 2273W        W 5792   1.077   3.600   8.931
 2274W        W 5793   8.126   8.044   8.650
 2275W        W 5794   2.208   9.154  11.801
 2276W        W 5795   1.348   8.829   2.052
 2277W        W 5796   1.134   8.903   3.067
 2278W        W 5797   9.855   9.307   0.785
 2279W        W 5798   8.617   1.635  11.199
 2280W        W 5799   8.668   5.234   0.168
 2281W        W 5800   5.811   1.533  10.406
 2282W        W 5801   0.933   9.004  10.472
 2283W        W 5802   7.172   4.619   9.653
 2284W        W 5803   1.394   5.302   9.523
 2285W        W 5804   0.984   1.828  10.754
 2286W        W 5805   4.632   4.820   3.395
 2287W        W 5806   2.685   3.770   2.732
 2288W        W 5807   2.374   6.864  11.767
 2289W        W 5808   8.382   8.457   1.355
 2290W        W 5809   4.254   7.639   2.315
 2291W        W 5810   2.824   2.336  11.885
 2292W        W 5811   0.906   3.138   0.931
 2293W        W 5812   6.051   2.283   8.972
 2294W        W 5813   9.263   5.561  11.830
 2295W        W 5814   1.755   0.781  11.753
 2296W        W 5815   0.957   9.301   0.220
 2297W        W 5816   8.934   2.663   3.487
 2298W        W 5817   6.241   1.292   8.540
 2299W        W 5818   5.833   5.747   3.722
 2300W        W 5819   3.922   4.744   8.424
 2301W        W 5820   8.027   9.182   0.826
 2302W        W 5821   2.334   4.426   0.229
 2303W        W 5822   9.091   8.332   2.589
 2304W        W 5823   4.162   6.269  11.084
 2305W        W 5824   5.556   7.968  11.429
 2306W        W 5825   2.657   7.305  10.241
 2307W        W 5826   6.680   0.501   9.896
 2308W        W 5827   7.764   7.896   9.041
 2309W        W 5828   2.461   8.542   9.560
 2310W        W 5829   1.099   6.047   3.445
 2311W        W 5830   7.909   3.758  10.033
 2312W        W 5831   6.785   8.280  10.378
 2313W        W 5832   3.254   7.042  10.061
 2314W        W 5833   0.222   8.982   0.658
 2315W        W 5834   8.305   3.762   9.707
 2316W        W 5835   8.537   4.304   3.190
 2317W        W 5836   8.525   6.575  10.619
 2318W        W 5837   5.412   7.460   9.701
 2319W        W 5838   8.969   7.969   2.921
 2320W        W 5839   4.180   2.533  11.965
 2321W        W 5840   7.887   9.140  10.853
 2322W        W 5841   1.281   4.075   0.872
 2323W        W 5842   3.328   5.816   3.706
 2324W        W 5843   6.044   8.605  10.921
 2325W        W 5844   6.501   3.015   1.094
 2326W        W 5845   8.986   6.777   8.380
 2327W        W 5846   6.668   3.691  11.039
 2328W        W 5847   9.766   3.995   2.397
 2329W        W 5848   8.486   3.158  10.945
 2330W        W 5849   1.364   7.041   2.153
 2331W        W 5850   3.115   3.742   3.041
 2332W        W 5851   2.364   6.163  10.602
 2333W        W 5852   0.269   7.512   0.952
 2334W        W 5853   7.836   7.006   9.892
 2335W        W 5854   9.886   8.566  10.027
 2336W        W 5855   3.271   6.128  10.039
 2337W        W 5856   5.985   8.995  10.181
 2338W        W 5857   3.804   3.770  11.300
 2339W        W 5858   7.497   5.017   9.391
 2340W        W 5859   0.351   0.234   1.350
 2341W        W 5860   3.267   0.364   8.512
 2342W        W 5861   5.468   5.727   8.431
 2343W        W 5862   7.437   1.398   9.022
 2344W        W 5863   5.603   5.580   8.901
 2345W        W 5864   9.436   7.076   2.602
 2346W        W 5865   9.919   3.509   2.382
 2347W        W 5866   7.111   6.903   1.740
 2348W        W 5867   3.713   1.291  10.902
 2349W        W 5868   7.894   6.150  11.901
 2350W        W 5869   4.396   5.367  11.291
 2351W        W 5870   6.933   6.913   9.481
 2352W        W 5871   8.423   7.536   8.853
 2353W        W 5872   4.466   2.302  11.096
 2354W        W 5873   9.572   8.769   0.130
 2355W        W 5874   4.618   9.010   1.434
 2356W        W 5875   2.821   5.319   1.646
 2357W        W 5876   1.537   0.399  11.105
 2358W        W 5877   0.223   4.563   0.502
 2359W        W 5878   3.339   5.824   0.081
 2360W        W 5879   6.100   3.708   2.665
 2361W        W 5880   1.707   8.210   3.400
 2362W        W 5881   1.975   4.887  10.853
 2363W        W 5882   3.278   1.778   2.159
 2364W        W 5883   8.412   9.208  10.473
 2365W        W 5884   4.256   8.466   3.445
 2366W        W 5885   1.873   4.205   1.000
 2367W        W 5886   8.845   1.105   0.910
 2368W        W 5887   1.585   8.888   9.959
 2369W        W 5888   5.948   0.762   3.233
 2370W        W 5889   5.523   5.325  10.588
 2371W        W 5890   7.569   9.705   1.336
 2372W        W 5891   9.416   8.025   9.555
 2373W        W 5892   0.701   5.610  10.461
 2374W        W 5893   2.067   4.201   1.977
 2375W        W 5894   3.781   1.247  10.077
 2376W        W 5895   7.387   5.128  10.295
 2377W        W 5896   7.875   0.718   9.834
 2378W        W 5897   0.606   0.196   9.364
 2379W        W 5898   9.863   8.380   1.352
 2380W        W 5899   9.443   9.852   9.396
 2381W        W 5900   8.107   7.531  11.934
 2382W        W 5901   9.472   4.516   0.927
 2383W        W 5902   0.099   3.492   1.456
 2384W        W 5903   9.872   7.884   9.812
 2385W        W 5904   8.040   5.801   9.079
 2386W        W 5905   0.421   0.203  10.431
 2387W        W 5906   5.599   4.587   9.408
 2388W        W 5907   5.662   3.526  10.792
 2389W        W 5908   9.126   7.556   9.518
 2390W        W 5909   6.615   4.743   3.913
 2391W        W 5910   1.638   1.382   3.089
 2392W        W 5911   2.595   2.325   2.182
 2393W        W 5912   0.165   6.370  10.197
 2394W        W 5913   4.944   3.188   2.021
 2395W        W 5914   8.648   0.742   1.700
 2396W        W 5915   2.054   1.352   9.493
 2397W        W 5916   5.088   4.678   9.645
 2398W        W 5917   7.329   6.564   9.124
 2399W        W 5918   2.974   1.338  10.316
 2400W        W 5919   3.666   4.700  11.558
 2401W        W 5920   3.721   1.521   9.640
 2402W        W 5921   1.964   2.153  11.856
 2403W        W 5922   4.090   4.952   3.800
 2404W        W 5923   8.053   4.103  11.073
 2405W        W 5924   7.560   3.985   2.750
 2406W        W 5925   6.179   2.973  11.417
 2407W        W 5926   9.778   7.510  10.780
 2408W        W 5927   8.762   1.671   1.794
 2409W        W 5928   7.497   5.629   1.481
 2410W        W 5929   3.025   8.280   1.151
 2411W        W 5930   4.462   1.552   8.557
 2412W        W 5931   3.172   9.995   2.137
 2413W        W 5932   0.943   2.867   2.247
 2414W        W 5933   7.022   3.932   3.755
 2415W        W 5934   5.468   1.783   3.908
 2416W        W 5935   6.966   5.562  10.915
 2417W        W 5936   7.139   5.681   3.157
 2418W        W 5937   9.460   4.238   8.693
 2419W        W 5938   7.222   3.719   9.230
 2420W        W 5939   8.590   9.782   9.263
 2421W        W 5940   9.719   5.168   2.578
 2422W        W 5941   5.060   0.982  10.443
 2423W        W 5942   8.955   6.037   3.214
 2424W        W 5943   5.078   9.658   3.506
 2425W        W 5944   1.249   8.342   3.211
 2426W        W 5945   8.576   5.697   9.851
 2427W        W 5946   7.439   7.814   9.531
 2428W        W 5947   9.258   9.349  10.184
 2429W        W 5948   3.724   7.268  11.587
 2430W        W 5949   4.542   3.674   7.923
 2431W        W 5950   4.460   7.983   9.073
 2432W        W 5951   5.918   5.965   3.111
 2433W        W 5952   6.699   9.794   8.751
 2434W        W 5953   1.453   5.739  10.880
 2435W        W 5954   0.912   1.988   9.779
 2436W        W 5955   3.594   5.784  10.333
 2437W        W 5956   2.345   9.357   0.779
 2438W        W 5957   1.149   1.058   2.477
 2439W        W 5958   1.728   3.565   2.829
 2440W        W 5959   1.874   0.813  11.204
 2441W        W 5960   4.650   4.623   9.318
 2442W        W 5961   0.809   9.291   3.388
 2443W        W 5962   6.512   7.139   0.306
 2444W        W 5963   1.361   7.089   0.670
 2445W        W 5964   1.827   7.614  11.747
 2446W        W 5965   2.097   7.014  11.292
 2447W        W 5966   3.780   1.802   1.928
 2448W        W 5967   3.085   7.594   1.842
 2449W        W 5968   2.162   8.415  10.385
 2450W        W 5969   7.415   9.022   8.276
 2451W        W 5970   7.437   9.890  10.026
 2452W        W 5971   1.479   6.634  10.986
 2453W        W 5972   7.678   9.360   2.539
 2454W        W 5973   1.672   9.754   2.293
 2455W        W 5974   8.135   6.603   9.922
 2456W        W 5975   7.623   6.974   0.833
 2457W        W 5976   8.431   5.228   9.427
 2458W        W 5977   6.104   1.037   1.343
 2459W        W 5978   5.902   7.593   0.894
 2460W        W 5979   4.127   4.151   9.302
 2461W        W 5980   7.679   9.401   2.026
 2462W        W 5981   9.351   0.436   0.380
 2463W        W 5982   5.436   3.388   8.454
 2464W        W 5983   1.447   2.180  11.901
 2465W        W 5984   6.887   1.850   0.243
 2466W        W 5985   7.196   4.073   0.684
 2467W        W 5986   6.950   7.853   9.305
 2468W        W 5987   9.394   2.195   1.339
 2469W        W 5988   1.756   3.846  11.245
 2470W        W 5989   3.671   9.712  10.425
 2471W        W 5990   2.235   6.136   2.489
 2472W        W 5991   7.455   8.635   0.237
 2473W        W 5992   1.246   4.591   2.972
 2474W        W 5993   9.338   3.862  11.772
 2475W        W 5994   6.239   0.457   2.453
 2476W        W 5995   4.784   7.642   3.411
 2477W        W 5996   3.686   2.926   0.191
 2478W        W 5997   9.452   1.135  10.293
 2479W        W 5998   7.324   7.065   9.200
 2480W        W 5999   3.600   6.277   9.585
 2481W        W 6000   5.466   6.178   3.240
 2482W        W 6001   1.474   3.926   8.739
 2483W        W 6002   6.455   4.386  11.519
 2484W        W 6003   5.991   0.517   1.484
 2485W        W 6004   6.314   4.361   9.886
 2486W        W 6005   1.900   6.994   9.959
 2487W        W 6006   2.691   5.749   1.381
 2488W        W 6007   3.364   6.981   9.573
 2489W        W 6008   2.663   9.573  10.291
 2490W        W 6009   8.447   8.939   3.151
 2491W        W 6010   9.768   7.019   9.483
 2492W        W 6011   6.212   9.271   3.764
 2493W        W 6012   5.693   8.797   3.553
 2494W        W 6013   4.940   5.923  11.979
 2495W        W 6014   4.604   1.184   1.469
 2496W        W 6015   7.063   4.332   3.429
 2497W        W 6016   3.571   4.195   3.339
 2498W        W 6017   8.821   3.488   0.994
 2499W        W 6018   5.428   8.398   9.736
 2500W        W 6019   2.656   2.240   0.431
 2501W        W 6020   3.184   0.723  11.894
 2502W        W 6021   6.028   6.912   0.422
 2503W        W 6022   8.690   9.139   0.271
 2504W        W 6023   8.511   7.535   2.263
 2505W        W 6024   0.268   6.896  10.293
 2506W        W 6025   1.455   2.837   2.128
 2507W        W 6026   0.067   3.879   3.603
 2508W        W 6027   8.574   1.207   1.925
 2509W        W 6028   9.022   6.022   0.379
 2510W        W 6029   1.118   6.526   9.079
 2511W        W 6030   5.896   3.565   8.628
 2512W        W 6031   4.072   8.911   0.323
 2513W        W 6032   8.350   1.887   1.105
 2514W        W 6033   8.695   8.244  10.098
 2515W        W 6034   7.975   2.320   3.210
 2516W        W 6035   6.876   3.426   9.521
 2517W        W 6036   0.893   6.666   8.631
 2518W        W 6037   7.975   5.017   9.589
 2519W        W 6038   8.124   0.839  11.500
 2520W        W 6039   2.733   3.575   0.542
 2521W        W 6040   0.690   8.892   0.461
 2522W        W 6041   7.474   2.138  10.838
 2523W        W 6042   4.702   3.620   1.940
 2524W        W 6043   7.200   5.957   8.521
 2525W        W 6044   1.146   7.428   0.987
 2526W        W 6045   0.539   0.828  11.959
 2527W        W 6046   1.452   3.381   8.641
 2528W        W 6047   8.884   8.175   1.241
 2529W        W 6048   4.019   3.791   2.629
 2530W        W 6049   7.292   7.564   1.193
 2531W        W 6050   9.533   8.362  11.822
 2532W        W 6051   4.961   7.954   9.003
 2533W        W 6052   4.720   3.679   0.766
 2534W        W 6053   6.282   5.678  10.030
 2535W        W 6054   5.217   1.832  11.389
 2536W        W 6055   0.814   8.110   1.563
 2537W        W 6056   3.396   7.676   9.349
 2538W        W 6057   5.872   2.345   2.724
 2539W        W 6058   8.038   4.407  10.651
 2540W        W 6059   2.702   6.137   0.658
 2541W        W 6060   7.751   9.350   3.062
 2542W        W 6061   4.545   5.251   2.264
 2543W        W 6062   3.103   1.383   1.763
 2544W        W 6063   5.002   0.019   8.775
 2545W        W 6064   7.543   2.911  11.043
 2546W        W 6065   2.325   6.665  10.987
 2547W        W 6066   1.401   7.171  11.693
 2548W        W 6067   9.489   6.924   8.757
 2549W        W 6068   6.513   1.152   2.199
 2550W        W 6069   0.640   7.151  11.368
 2551W        W 6070   2.124   8.850  10.937
 2552W        W 6071   4.437   7.381   2.741
 2553W        W 6072   5.620   4.005  10.428
 2554W        W 6073   8.018   7.332  10.261
 2555W        W 6074   0.628   8.960   0.951
 2556W        W 6075   2.732   3.108   9.117
 2557W        W 6076   5.457   0.682   2.971
 2558W        W 6077   6.027   2.831   1.142
 2559W        W 6078   7.359   3.256   2.170
 2560W        W 6079   9.234   1.012   3.417
 2561W        W 6080   5.487   4.087   9.268
 2562W        W 6081   1.048   4.552   0.997
 2563W        W 6082   6.956   2.080   1.901
 2564W        W 6083   4.216   2.328   0.432
 2565W        W 6084   6.502   5.290   0.595
 2566W        W 6085   6.535   7.976   1.009
 2567W        W 6086   5.995   8.286   0.277
 2568W        W 6087   2.573   1.265   0.859
 2569W        W 6088   6.615   6.489   3.950
 2570W        W 6089   5.882   4.807   8.996
 2571W        W 6090   5.469   0.302   8.813
 2572W        W 6091   8.397   6.327  11.649
 2573W        W 6092   6.489   9.764  10.468
 2574W        W 6093   7.165   5.653   0.598
 2575W        W 6094   0.357   6.935  11.773
 2576W        W 6095   7.075   1.593   1.785
 2577W        W 6096   8.117   1.095   2.165
 2578W        W 6097   5.672   3.098   9.305
 2579W        W 6098   8.833   9.573   2.729
 2580W        W 6099   4.116   3.623   3.101
 2581W        W 6100   9.355   3.997  10.294
 2582W        W 6101   4.117   3.309  11.456
 2583W        W 6102   6.617   7.104   2.497
 2584W        W 6103   1.843   3.109   8.875
 2585W        W 6104   8.194   2.237  10.867
 2586W        W 6105   2.246   6.981   3.070
 2587W        W 6106   7.791   1.300  11.506
 2588W        W 6107   0.453   1.126   2.037
 2589W        W 6108   8.964   1.263  11.103
 2590W        W 6109   3.703   3.201   9.821
 2591W        W 6110   3.539   4.276   1.994
 2592W        W 6111   1.286   6.569  10.084
 2593W        W 6112   2.179   8.922   2.634
 2594W        W 6113   4.345   1.155   1.015
 2595W        W 6114   1.322   2.908   8.984
 2596W        W 6115   7.063   6.515   3.064
 2597W        W 6116   5.542   6.143  11.170
 2598W        W 6117   8.469   6.033   3.377
 2599W        W 6118   7.520   3.406  10.965
 2600W        W 6119   7.050   2.554   0.832
 2601W        W 6120   3.646   2.110   2.318
 2602W        W 6121   5.615   3.602   9.416
 2603W        W 6122   4.316   3.655  10.126
 2604W        W 6123   0.772   7.894   0.524
 2605W        W 6124   6.632   2.130   2.313
 2606W        W 6125   6.521   7.930  11.067
 2607W        W 6126   9.837   4.168  10.294
 2608W        W 6127   9.774   1.169   9.552
 2609W        W 6128   9.442   2.237   0.811
 2610W        W 6129   5.199   9.250   0.815
 2611W        W 6130   1.116   0.189   9.355
 2612W        W 6131   1.177   4.730   1.456
 2613W        W 6132   9.942   8.325   9.551
 2614W        W 6133   9.908   2.638  11.306
 2615W        W 6134   3.880   5.099   2.979
 2616W        W 6135   6.997   5.904   8.036
 2617W        W 6136   9.409   7.926  11.538
 2618W        W 6137   4.664   6.108   3.634
 2619W        W 6138   4.611   2.061   1.398
 2620W        W 6139   7.541   1.753   0.548
 2621W        W 6140   2.990   5.698  11.737
 2622W        W 6141   2.132   7.937   9.177
 2623W        W 6142   6.879   1.496   3.889
 2624W        W 6143   2.577   2.841  11.736
 2625W        W 6144   3.171   3.336   1.234
 2626W        W 6145   1.851   5.964   3.810
 2627W        W 6146   1.610   4.815   9.481
 2628W        W 6147   9.883   1.463   0.472
 2629W        W 6148   1.378   9.787  10.055
 2630W        W 6149   1.281   5.813   9.543
 2631W        W 6150   9.685   3.885   9.008
 2632W        W 6151   0.972   8.459   2.787
 2633W        W 6152   7.894   5.174  10.146
 2634W        W 6153   8.235   6.027   8.376
 2635W        W 6154   7.092   6.537   9.773
 2636W        W 6155   7.434   7.076   3.145
 2637W        W 6156   0.564   7.091   3.766
 2638W        W 6157   9.717   0.698  10.363
 2639W        W 6158   2.610   7.448   1.952
 2640W        W 6159   1.737   6.083   0.186
 2641W        W 6160   2.606   5.509  11.468
 2642W        W 6161   3.193   9.449   9.037
 2643W        W 6162   1.923   5.932  10.838
 2644W        W 6163   9.022   8.364   9.523
 2645W        W 6164   3.031   7.777   0.487
 2646W        W 6165   1.297   8.823   9.534
 2647W        W 6166   9.359   3.974  11.263
 2648W        W 6167   0.257   9.411  10.134
 2649W        W 6168   1.776   3.942  10.740
 2650W        W 6169   0.248   6.509   9.428
 2651W        W 6170   7.652   0.845  10.309
 2652W        W 6171   7.796   5.119   2.046
 2653W        W 6172   5.602   1.137   3.107
 2654W        W 6173   9.910   0.772   9.246
 2655W        W 6174   3.294   2.204   2.982
 2656W        W 6175   7.526   1.725   3.361
 2657W        W 6176   2.668   0.084   2.711
 2658W        W 6177   7.792   5.312   3.394
 2659W        W 6178   8.061   8.037  11.395
 2660W        W 6179   5.324   6.160   1.320
 2661W        W 6180   4.083   7.064   3.282
 2662W        W 6181   0.360   7.698   1.427
 2663W        W 6182   5.107   3.192   3.670
 2664W        W 6183   7.471   3.192   0.753
 2665W        W 6184   2.232   7.399   1.062
 2666W        W 6185   6.775   9.296   9.508
 2667W        W 6186   1.414   1.475   2.559
 2668W        W 6187   3.582   7.804  11.673
 2669W        W 6188   9.898   9.698   3.512
 2670W        W 6189   5.530   8.738   8.960
 2671W        W 6190   4.958   6.513  10.121
 2672W        W 6191   0.526   0.191   1.868
 2673W        W 6192   2.122   8.725   0.056
 2674W        W 6193   9.764   4.978   9.660
 2675W        W 6194   9.868   7.367   9.875
 2676W        W 6195   5.678   2.651   9.009
 2677W        W 6196   7.450   1.633  10.683
 2678W        W 6197   9.296   7.487  10.894
 2679W        W 6198   7.578   5.742   9.356
 2680W        W 6199   7.724   6.535   2.444
 2681W        W 6200   0.843   6.142   1.892
 2682W        W 6201   1.661   1.966   1.027
 2683W        W 6202   2.322   7.571  10.533
 2684W        W 6203   0.989   5.379  10.099
 2685W        W 6204   6.927   7.769  10.319
 2686W        W 6205   0.959   1.768   8.472
 2687W        W 6206   5.922   1.115   0.855
 2688W        W 6207   6.534   9.822   1.800
 2689W        W 6208   2.645   9.819  11.377
 2690W        W 6209   0.925   9.983  10.224
 2691W        W 6210   6.102   6.604   0.871
 2692W        W 6211   9.393   4.370  11.586
 2693W        W 6212   8.063   3.906  10.561
 2694W        W 6213   7.996   3.688   2.807
 2695W        W 6214   0.492   3.776   2.584
 2696W        W 6215   9.302   9.790   9.934
 2697W        W 6216   0.271   1.183  11.712
 2698W        W 6217   6.724   6.946  10.625
 2699W        W 6218   8.955   4.241  10.105
 2700W        W 6219   3.139   2.376  10.565
 2701W        W 6220   4.203   0.635  11.962
 2702W        W 6221   4.367   4.043   2.889
 2703W        W 6222   9.989   9.348  10.578
 2704W        W 6223   2.138   8.564   2.175
 2705W        W 6224   0.548   3.064   9.966
 2706W        W 6225   0.587   4.968   1.554
 2707W        W 6226   5.307   5.235  10.064
 2708W        W 6227   1.161   6.541   3.629
 2709W        W 6228   1.053   5.160   1.679
 2710W        W 6229   3.347   0.226   2.932
 2711W        W 6230   8.847   6.916   1.637
 2712W        W 6231   4.517   9.525  11.786
 2713W        W 6232   0.839   5.344   2.944
 2714W        W 6233   9.668   1.739   0.837
 2715W        W 6234   7.064   7.367   2.517
 2716W        W 6235   8.282   1.916  10.248
 2717W        W 6236   6.102   2.807   2.651
 2718W        W 6237   5.572   9.039   3.069
 2719W        W 6238   6.478   9.434   0.511
 2720W        W 6239   5.634   1.444   1.118
 2721W        W 6240   0.637   2.831   1.257
 2722W        W 6241   2.408   7.012   9.255
 2723W        W 6242   5.449   9.237   8.872
 2724W        W 6243   3.918   1.283  11.757
 2725W        W 6244   7.692   7.116  11.301
 2726W        W 6245   7.302   1.169   9.477
 2727W        W 6246   6.422   5.617  10.522
 2728W        W 6247   6.234   0.901   8.868
 2729W        W 6248   2.749   0.992   3.334
 2730W        W 6249   3.034   8.081   0.002
 2731W        W 6250   2.784   7.462  10.746
 2732W        W 6251   1.113   2.708   1.162
 2733W        W 6252   8.892   4.940   1.387
 2734W        W 6253   2.669   5.997   8.793
 2735W        W 6254   4.058   7.539  10.215
 2736W        W 6255   1.182   8.356   1.915
 2737W        W 6256   6.923   8.494   1.348
 2738W        W 6257   9.538   7.815   8.560
 2739W        W 6258   0.875   0.237   2.282
 2740W        W 6259   6.716   7.212   1.691
 2741W        W 6260   1.087   8.889  10.941
 2742W        W 6261   3.726   0.629   9.299
 2743W        W 6262   5.686   4.485   1.977
 2744W        W 6263   0.075   0.885  11.290
 2745W        W 6264   1.951   3.385  10.933
 2746W        W 6265   0.185   7.771  10.988
 2747W        W 6266   4.481   5.021  10.315
 2748W        W 6267   5.509   9.698  10.544
 2749W        W 6268   9.765   5.443   9.442
 2750W        W 6269   4.700   2.021   8.552
 2751W        W 6270   5.135   0.769   1.407
 2752W        W 6271   3.171   5.597   9.278
 2753W        W 6272   0.626   6.535   0.924
 2754W        W 6273   3.660   1.654   9.157
 2755W        W 6274   9.015   0.545   3.386
 2756W        W 6275   0.769   1.190   0.275
 2757W        W 6276   6.078   5.045  10.600
 2758W        W 6277   0.401   1.437   2.461
 2759W        W 6278   5.503   0.695  10.568
 2760W        W 6279   0.000   6.404   2.932
 2761W        W 6280   9.161   5.560   1.933
 2762W        W 6281   2.820   8.483   0.223
 2763W        W 6282   9.039   6.522   0.240
 2764W        W 6283   0.864   4.136  10.746
 2765W        W 6284   4.924   0.409   0.328
 2766W        W 6285   3.497   5.089   0.801
 2767W        W 6286   4.940   6.923  10.984
 2768W        W 6287   0.272   5.908  10.438
 2769W        W 6288   8.786   2.964   1.711
 2770W        W 6289   7.645   4.291  11.775
 2771W        W 6290   3.087   2.513  11.070
 2772W        W 6291   9.846   7.975  11.847
 2773W        W 6292   6.557   6.472   8.997
 2774W        W 6293   6.162   4.167  10.445
 2775W        W 6294   0.739   8.145  10.469
 2776W        W 6295   1.978   5.548   1.996
 2777W        W 6296   1.423   8.878  10.438
 2778W        W 6297   2.224   7.705   0.051
 2779W        W 6298   9.068   8.820   0.107
 2780W        W 6299   0.781   3.620   3.368
 2781W        W 6300   9.798   7.900   3.544
 2782W        W 6301   1.810   4.221   1.532
 2783W        W 6302   8.387   0.817   0.903
 2784W        W 6303   3.956   6.006   2.564
 2785W        W 6304   4.366   6.001   1.749
 2786W        W 6305   4.576   0.786   8.800
 2787W        W 6306   3.658   5.880   0.985
 2788W        W 6307   0.353   1.363   0.668
 2789W        W 6308   7.529   6.571   1.145
 2790W        W 6309   2.683   6.200   1.156
 2791W        W 6310   0.148   8.950   2.843
 2792W        W 6311   0.558   5.648   8.899
 2793W        W 6312   8.782   1.278   9.618
 2794W        W 6313   2.647   0.226   0.692
 2795W        W 6314   6.761   7.524   1.203
 2796W        W 6315   2.689   6.690   1.352
 2797W        W 6316   6.272   8.758   1.616
 2798W        W 6317   1.778   2.816   1.708
 2799W        W 6318   4.754   2.895   9.355
 2800W        W 6319   0.608   7.538   9.187
 2801W        W 6320   3.335   3.823  10.625
 2802W        W 6321   4.264   5.851  11.391
 2803W        W 6322   6.072   9.373   9.829
 2804W        W 6323   6.253   4.660   1.302
 2805W        W 6324   8.226   5.036   3.341
 2806W        W 6325   7.909   4.361   2.684
 2807W        W 6326   9.273   0.180  11.928
 2808W        W 6327   1.337   5.978   1.044
 2809W        W 6328   4.844   6.114   1.959
 2810W        W 6329   8.815   2.797   0.717
 2811W        W 6330   5.162   6.968   0.898
 2812W        W 6331   8.567   6.971   8.640
 2813W        W 6332   9.904   8.510  10.544
 2814W        W 6333   9.037   6.827  11.357
 2815W        W 6334   6.242   1.939   1.628
 2816W        W 6335   8.142   0.704   1.808
 2817W        W 6336   8.318   0.122  10.434
 2818W        W 6337   8.199   9.239   0.343
 2819W        W 6338   5.758   0.455   2.621
 2820W        W 6339   6.513   6.695   0.579
 2821W        W 6340   4.570   1.875  10.809
 2822W        W 6341   4.520   5.986   0.745
 2823W        W 6342   0.762   4.827   2.907
 2824W        W 6343   2.431   8.879  10.531
 2825W        W 6344   9.829   6.135  10.527
 2826W        W 6345   9.802   4.920   1.348
 2827W        W 6346   9.577   2.778   2.769
 2828W        W 6347   6.907   4.586  10.546
 2829W        W 6348   2.118   2.138   8.580
 2830W        W 6349   1.317   7.825   8.559
 2831W        W 6350   2.189   2.332   9.087
 2832W        W 6351   5.719   6.908  10.316
 2833W        W 6352   9.506   0.442   2.601
 2834W        W 6353   4.155   4.591   9.577
 2835W        W 6354   3.654   1.357   3.428
 2836W        W 6355   2.244   4.878   0.017
 2837W        W 6356   3.694   6.442   2.709
 2838W        W 6357   1.514   4.140   0.422
 2839W        W 6358   2.201   2.670   2.924
 2840W        W 6359   2.274   3.455   3.717
 2841W        W 6360   1.410   9.021   0.756
 2842W        W 6361   2.777   9.336   8.697
 2843W        W 6362   3.433   8.151  11.296
 2844W        W 6363   6.412   9.237   1.573
 2845W        W 6364   2.817   5.832   3.576
 2846W        W 6365   3.780   2.253  11.743
 2847W        W 6366   7.534   2.388   0.798
 2848W        W 6367   5.618   4.499   2.479
 2849W        W 6368   8.604   1.684   9.353
 2850W        W 6369   8.926   2.442   9.180
 2851W        W 6370   8.938   1.384   9.107
 2852W        W 6371   2.283   9.722   1.699
 2853W        W 6372   9.291   1.353   0.799
 2854W        W 6373   5.452   7.421   2.783
 2855W        W 6374   6.622   4.255   2.632
 2856W        W 6375   2.158   0.008   9.574
 2857W        W 6376   2.590   8.017   0.253
 2858W        W 6377   6.467   3.351   2.700
 2859W        W 6378   5.708   5.677   0.512
 2860W        W 6379   3.222   9.460  10.503
 2861W        W 6380   4.687   4.080   8.570
 2862W        W 6381   2.384   4.067   2.369
 2863W        W 6382   0.875   4.534   0.527
 2864W        W 6383   6.428   8.858   2.599
 2865W        W 6384   8.837   8.833   9.448
 2866W        W 6385   0.684   5.606  11.857
 2867W        W 6386   4.080   6.010   8.649
 2868W        W 6387   8.011   7.472   9.171
 2869W        W 6388   6.876   3.366   9.014
 2870W        W 6389   2.871   1.821  11.978
 2871W        W 6390   6.013   6.841   1.316
 2872W        W 6391   6.877   4.123  11.320
 2873W        W 6392   5.377   6.919   8.965
 2874W        W 6393   2.745   9.310  11.212
 2875W        W 6394   5.119   0.516   2.029
 2876W        W 6395   3.790   0.522  11.330
 2877W        W 6396   1.796   8.262   2.408
 2878W        W 6397   7.235   7.644  10.755
 2879W        W 6398   0.897   1.049   1.791
 2880W        W 6399   2.060   4.484   9.549
 2881W        W 6400   3.718   1.026  11.335
 2882W        W 6401   9.546   1.863   2.920
 2883W        W 6402   8.109   1.723   2.669
 2884W        W 6403   0.802   3.469   2.888
 2885W        W 6404   6.929   1.914   8.752
 2886W        W 6405   6.609   1.646  11.870
 2887W        W 6406   2.913   8.737  10.464
 2888W        W 6407   0.685   8.022   9.356
 2889W        W 6408   7.159   4.425  11.870
 2890W        W 6409   8.940   1.426   0.035
 2891W        W 6410   7.588   0.768   0.337
 2892W        W 6411   8.688   7.552   2.763
 2893W        W 6412   5.607   7.887  10.928
 2894W        W 6413   7.859   7.754   3.601
 2895W        W 6414   9.343   5.501   8.655
 2896W        W 6415   9.304   1.175   8.781
 2897W        W 6416   8.879   8.770   2.441
 2898W        W 6417   8.264   9.652  10.233
 2899W        W 6418   8.442   3.144   1.334
 2900W        W 6419   8.558   3.060   3.593
 2901W        W 6420   6.131   6.175   3.738
 2902W        W 6421   1.414   3.168   9.771
 2903W        W 6422   3.964   6.555   3.128
 2904W        W 6423   0.936   3.766   1.561
 2905W        W 6424   1.234   7.923   9.213
 2906W        W 6425   6.924   7.030   1.258
 2907W        W 6426   9.899   5.416   0.453
 2908W        W 6427   6.083   0.907   2.244
 2909W        W 6428   5.281   6.445   2.847
 2910W        W 6429   6.938   9.067   0.917
 2911W        W 6430   5.457   9.375   1.651
 2912W        W 6431   3.826   4.245   8.531
 2913W        W 6432   1.765   0.968   9.202
 2914W        W 6433   6.247   7.580   1.286
 2915W        W 6434   7.055   5.235   9.275
 2916W        W 6435   6.986   1.414  10.808
 2917W        W 6436   9.786   9.941   2.567
 2918W        W 6437   3.950   5.851   1.433
 2919W        W 6438   6.160   3.669  10.923
 2920W        W 6439   1.305   5.916  11.472
 2921W        W 6440   6.515   5.472  11.922
 2922W        W 6441   7.724   8.510  10.258
 2923W        W 6442   3.746   2.397   0.232
 2924W        W 6443   4.837   0.565   3.524
 2925W        W 6444   9.936   6.228   2.438
 2926W        W 6445   3.167   2.212   2.490
 2927W        W 6446   0.306   0.081  10.914
 2928W        W 6447   1.242   2.867   2.672
 2929W        W 6448   0.404   6.951   1.778
 2930W        W 6449   8.566   8.414  11.085
 2931W        W 6450   8.615   4.467   2.711
 2932W        W 6451   9.334   6.026  10.573
 2933W        W 6452   9.751   0.274   9.272
 2934W        W 6453   3.698   3.515   9.399
 2935W        W 6454   8.064   7.218   0.905
 2936W        W 6455   5.547   3.412  11.543
 2937W        W 6456   0.906   5.175   9.614
 2938W        W 6457   4.573   0.049  10.092
 2939W        W 6458   5.696   5.478   9.382
 2940W        W 6459   6.172   6.104   8.333
 2941W        W 6460   6.666   6.588   2.741
 2942W        W 6461   8.545   2.247  11.260
 2943W        W 6462   1.008   0.506   1.874
 2944W        W 6463   0.253   1.283   9.655
 2945W        W 6464   3.125   3.525   2.558
 2946W        W 6465   6.222   6.696   8.202
 2947W        W 6466   3.542   7.580   2.127
 2948W        W 6467   9.416   8.541   0.828
 2949W        W 6468   5.215   4.664   8.622
 2950W        W 6469   8.971   8.892   3.260
 2951W        W 6470   7.976   1.917   0.318
 2952W        W 6471   1.442   5.572   9.980
 2953W        W 6472   6.469   8.122   0.062
 2954W        W 6473   0.910   0.659   0.786
 2955W        W 6474   5.787   9.297   3.475
 2956W        W 6475   6.098   5.629   9.064
 2957W        W 6476   1.877   0.918   9.724
 2958W        W 6477   0.415   6.115   9.740
 2959W        W 6478   5.705   1.227   2.109
 2960W        W 6479   5.410   2.209  10.936
 2961W        W 6480   1.397   2.414   0.844
 2962W        W 6481   5.296   8.966  11.983
 2963W        W 6482   2.703   0.243   2.194
 2964W        W 6483   1.585   5.722   2.273
 2965W        W 6484   8.997   6.498   2.075
 2966W        W 6485   7.015   3.040   0.976
 2967W        W 6486   7.119   9.540  11.178
 2968W        W 6487   6.528   0.196  11.267
 2969W        W 6488   3.742   1.444   0.266
 2970W        W 6489   3.785   5.593   3.247
 2971W        W 6490   8.877   8.563  11.504
 2972W        W 6491   4.454   3.094  11.132
 2973W        W 6492   8.140   5.982   2.988
 2974W        W 6493   0.749   1.147   9.602
 2975W        W 6494   7.015   6.892   2.253
 2976W        W 6495   0.515   9.319   2.065
 2977W        W 6496   2.128   2.038  11.376
 2978W        W 6497   2.639   2.445  11.390
 2979W        W 6498   7.141   4.220  10.842
 2980W        W 6499   7.899   7.085  11.775
 2981W        W 6500   5.995   4.117  11.475
 2982W        W 6501   8.764   1.826   8.881
 2983W        W 6502   1.686   1.818   2.808
 2984W        W 6503   0.246   1.160   0.221
 2985W        W 6504   7.429   3.576   3.493
 2986W        W 6505   1.479   1.247  10.463
 2987W        W 6506   6.606   3.842   8.175
 2988W        W 6507   6.065   8.791   1.099
 2989W        W 6508   8.373   7.635  11.480
 2990W        W 6509   0.257   4.679   1.273
 2991W        W 6510   9.059   1.663   3.587
 2992W        W 6511   4.218   1.080   8.553
 2993W        W 6512   0.441   9.340   2.647
 2994W        W 6513   5.766   1.822   1.835
 2995W        W 6514   7.259   9.442   9.360
 2996W        W 6515   9.757   9.390  10.070
 2997W        W 6516   1.319   5.420  11.241
 2998W        W 6517   2.332   7.175  10.863
 2999W        W 6518   9.666   6.495   0.729
 3000W        W 6519   5.615   9.874   2.862
 3001W        W 6520   4.919   4.278   9.948
 3002W        W 6521   8.434   9.555   9.741
 3003W        W 6522   0.816   3.351   1.896
 3004W        W 6523   0.340   4.821   2.184
 3005W        W 6524   6.590   6.003  11.489
 3006W        W 6525   2.231   7.205   0.141
 3007W        W 6526   3.982   7.683  11.332
 3008W        W 6527   6.079   1.702  11.710
 3009W        W 6528   7.630   6.599  10.390
 3010W        W 6529   7.599   4.194   1.643
 3011W        W 6530   3.271   1.988   9.033
 3012W        W 6531   2.366   5.160   9.574
 3013W        W 6532   9.997   6.263  11.378
 3014W        W 6533   2.175   8.222   0.009
 3015W        W 6534   0.302   9.815   2.640
 3016W        W 6535   9.749   7.357   2.908
 3017W        W 6536   2.733   3.180   8.585
 3018W        W 6537   8.660   6.446   8.660
 3019W        W 6538   0.022   4.887   2.874
 3020W        W 6539   1.306   2.454   0.335
 3021W        W 6540   1.799   5.017   0.253
 3022W        W 6541   3.879   8.019   1.989
 3023W        W 6542   3.230   1.490  10.848
 3024W        W 6543   1.218   4.957   9.171
 3025W        W 6544   7.553   6.725  11.625
 3026W        W 6545   7.309   3.180   9.269
 3027W        W 6546   0.872   5.232   8.887
 3028W        W 6547   2.599   3.652   9.296
 3029W        W 6548   7.257   3.973  11.669
 3030W        W 6549   9.595   1.931   1.866
 3031W        W 6550   0.519   7.080   3.271
 3032W        W 6551   3.070   5.266  11.997
 3033W        W 6552   5.412   7.448   0.857
 3034W        W 6553   4.182   1.788   3.006
 3035W        W 6554   7.457   7.374   1.678
 3036W        W 6555   5.707   2.161   2.258
 3037W        W 6556   1.977   5.249   0.719
 3038W        W 6557   5.736   0.954   8.959
 3039W        W 6558   2.471   2.130   3.508
 3040W        W 6559   5.569   2.728   1.359
 3041W        W 6560   2.265   0.548   2.242
 3042W        W 6561   2.647   7.354   8.946
 3043W        W 6562   4.548   9.958   1.071
 3044W        W 6563   5.200   5.021   2.858
 3045W        W 6564   7.473   5.335   2.992
 3046W        W 6565   2.688   7.812  10.267
 3047W        W 6566   6.465   0.432   8.837
 3048W        W 6567   9.196   9.735   8.440
 3049W        W 6568   9.997   1.723  11.204
 3050W        W 6569   9.930   8.830   3.388
 3051W        W 6570   7.024   4.729   3.112
 3052W        W 6571   5.591   7.867  11.938
 3053W        W 6572   7.769   8.768   9.482
 3054W        W 6573   3.511   9.316   1.964
 3055W        W 6574   8.676   4.966  10.881
 3056W        W 6575   8.732   9.457  10.171
 3057W        W 6576   8.494   4.148  10.284
 3058W        W 6577   0.301   4.626   9.127
 3059W        W 6578   9.095   9.326   0.477
 3060W        W 6579   8.849   5.125   9.887
 3061W        W 6580   1.907   0.377  11.472
 3062W        W 6581   7.570   9.105   9.153
 3063W        W 6582   7.237   0.372  11.332
 3064W        W 6583   2.133   9.929  11.503
 3065W        W 6584   4.663   6.925   0.689
 3066W        W 6585   2.779   5.981  10.257
 3067W        W 6586   6.926   1.772   3.219
 3068W        W 6587   5.256   7.020  10.515
 3069W        W 6588   8.141   9.336   2.316
 3070W        W 6589   0.519   9.969   3.511
 3071W        W 6590   8.378   7.515   1.761
 3072W        W 6591   8.985   9.823  11.467
 3073W        W 6592   4.353   8.260   1.143
 3074W        W 6593   9.129   1.830   2.598
 3075W        W 6594   1.407   7.636  11.479
 3076W        W 6595   8.368   1.176   3.421
 3077W        W 6596   3.220   0.229   3.431
 3078W        W 6597   8.389   9.328   2.760
 3079W        W 6598   7.432   7.836   1.934
 3080W        W 6599   8.228   2.657  10.488
 3081W        W 6600   6.914   1.553  11.467
 3082W        W 6601   2.220   9.896   2.894
 3083W        W 6602   9.317   7.791   9.095
 3084W        W 6603   9.856   3.271   9.348
 3085W        W 6604   8.011   5.503   9.483
 3086W        W 6605   7.931   4.365   2.021
 3087W        W 6606   6.039   2.325   9.492
 3088W        W 6607   9.494   2.258  11.721
 3089W        W 6608   0.953   9.274   0.737
 3090W        W 6609   2.066   2.415   3.338
 3091W        W 6610   2.538   6.359   0.014
 3092W        W 6611   5.532   6.495   9.515
 3093W        W 6612   7.647   0.305  11.598
 3094W        W 6613   8.321   0.236   9.203
 3095W        W 6614   4.221   3.273   8.195
 3096W        W 6615   5.436   9.761   8.846
 3097W        W 6616   0.268   9.115  11.339
 3098W        W 6617   6.352   1.980   1.120
 3099W        W 6618   1.370   4.417   9.195
 3100W        W 6619   2.277   0.366   1.440
 3101W        W 6620   7.019   4.985   8.282
 3102W        W 6621   4.066   9.347  10.526
 3103W        W 6622   3.731   6.098   8.263
 3104W        W 6623   1.376   8.993  11.352
 3105W        W 6624   6.013   1.035   9.895
 3106W        W 6625   1.853   7.906   1.994
 3107W        W 6626   0.203   6.793  11.305
 3108W        W 6627   4.220   7.036  10.151
 3109W        W 6628   7.030   5.212   3.302
 3110W        W 6629   7.102   6.035   1.497
 3111W        W 6630   1.830   8.470  10.751
 3112W        W 6631   7.523   9.430   9.798
 3113W        W 6632   6.161   4.295   1.694
 3114W        W 6633   4.313   9.421   2.341
 3115W        W 6634   7.167   5.907  10.577
 3116W        W 6635   3.378   6.396   1.822
 3117W        W 6636   3.975   2.501   2.285
 3118W        W 6637   0.331   8.118   8.941
 3119W        W 6638   0.748   6.669  10.325
 3120W        W 6639   1.184   4.573   3.508
 3121W        W 6640   0.812   9.996  10.716
 3122W        W 6641   1.149   7.809   1.320
 3123W        W 6642   7.790   0.709  11.878
 3124W        W 6643   9.488   8.965   9.924
 3125W        W 6644   3.318   8.955  11.740
 3126W        W 6645   3.132   2.791  10.186
 3127W        W 6646   9.435   4.516  10.381
 3128W        W 6647   5.227   2.005  10.472
 3129W        W 6648   9.048   5.140   8.935
 3130W        W 6649   4.004   9.819   2.387
 3131W        W 6650   5.720   7.579   1.371
 3132W        W 6651   0.529   5.668   2.149
 3133W        W 6652   4.659   7.856  11.855
 3134W        W 6653   5.091   1.156   9.871
 3135W        W 6654   4.066   9.455  11.577
 3136W        W 6655   7.436   5.217   2.405
 3137W        W 6656   4.568   2.804  10.369
 3138W        W 6657   2.456   6.538   3.215
 3139W        W 6658   0.249   9.735   1.823
 3140W        W 6659   7.820   7.931   2.718
 3141W        W 6660   1.381   2.174  10.034
 3142W        W 6661   8.545   8.468  11.889
 3143W        W 6662   3.559   4.548   0.465
 3144W        W 6663   1.706   6.626   3.262
 3145W        W 6664   8.283   7.944   2.519
 3146W        W 6665   9.238   6.071  11.901
 3147W        W 6666   9.266   0.993   2.916
 3148W        W 6667   0.345   7.805  10.498
 3149W        W 6668   1.903   2.409   0.925
 3150W        W 6669   3.576   2.577  10.343
 3151W        W 6670   6.192   2.681   0.692
 3152W        W 6671   7.510   5.367   9.010
 3153W        W 6672   9.824   7.087   0.073
 3154W        W 6673   7.929   1.650   1.825
 3155W        W 6674   2.900   8.626   9.912
 3156W        W 6675   4.980   1.395  11.384
 3157W        W 6676   4.642   6.517   1.495
 3158W        W 6677   5.645   6.817   0.755
 3159W        W 6678   5.949   0.300   9.427
 3160W        W 6679   2.201   7.936  10.202
 3161W        W 6680   0.018   4.181  10.787
 3162W        W 6681   9.891   3.425   0.297
 3163W        W 6682   8.029   5.803  10.476
 3164W        W 6683   4.701   6.323   9.387
 3165W        W 6684   8.556   0.561  11.205
 3166W        W 6685   8.952   5.714   0.802
 3167W        W 6686   6.111   6.643   9.109
 3168W        W 6687   1.292   3.099  11.684
 3169W        W 6688   4.267   5.513   1.902
 3170W        W 6689   4.112   1.368  11.252
 3171W        W 6690   9.202   4.574   0.481
 3172W        W 6691   4.836   0.899   2.200
 3173W        W 6692   6.993   2.265  10.926
 3174W        W 6693   4.886   1.601   1.339
 3175W        W 6694   5.231   0.242   0.735
 3176W        W 6695   2.140   4.953   3.639
 3177W        W 6696   3.308   6.583  11.786
 3178W        W 6697   4.649   1.748   2.747
 3179W        W 6698   3.593   1.127   9.154
 3180W        W 6699   3.545   4.595   8.128
 3181W        W 6700   2.803   3.797  11.029
 3182W        W 6701   2.585   4.295   9.807
 3183W        W 6702   1.317   2.683  11.339
 3184W        W 6703   3.251   0.803   9.385
 3185W        W 6704   6.086   5.614   4.163
 3186W        W 6705   0.843   6.997   0.371
 3187W        W 6706   1.571   3.053  10.826
 3188W        W 6707   9.270   8.411   0.355
 3189W        W 6708   6.924   5.104   2.317
 3190W        W 6709   5.427   7.097  11.009
 3191W        W 6710   6.021   9.515  11.312
 3192W        W 6711   8.154   2.727   2.491
 3193W        W 6712   5.238   9.976   0.296
 3194W        W 6713   6.896   9.812   2.169
 3195W        W 6714   5.211   5.096  10.919
 3196W        W 6715   3.838   8.963   3.169
 3197W        W 6716   9.381   3.441  11.086
 3198W        W 6717   4.446   7.108   2.311
 3199W        W 6718   0.436   6.439   1.716
 3200W        W 6719   5.439   4.529   3.390
 3201W        W 6720   0.814   1.041   9.072
 3202W        W 6721   5.070   1.445   3.154
 3203W        W 6722   6.597   9.218  11.345
 3204W        W 6723   1.753   4.255  11.544
 3205W        W 6724   8.343   7.080   0.021
 3206W        W 6725   4.541   6.448   9.844
 3207W        W 6726   6.664   3.850   9.706
 3208W        W 6727   8.606   1.055  10.310
 3209W        W 6728   3.376   2.582  11.927
 3210W        W 6729   0.412   9.702  10.564
 3211W        W 6730   1.373   5.986   3.010
 3212W        W 6731   7.323   4.382   9.217
 3213W        W 6732   5.184   1.495  10.374
 3214W        W 6733   3.642   4.972   9.178
 3215W        W 6734   8.545   4.259  11.850
 3216W        W 6735   4.350   4.290   1.441
 3217W        W 6736   9.510   1.894   3.418
 3218W        W 6737   3.089   3.783  10.183
 3219W        W 6738   6.439   6.249  11.056
 3220W        W 6739   5.266   7.733   3.584
 3221W        W 6740   0.415   4.330  10.523
 3222W        W 6741   1.386   0.317   1.581
 3223W        W 6742   1.229   2.392   2.267
 3224W        W 6743   9.958   1.719   9.857
 3225W        W 6744   1.754   7.491   9.768
 3226W        W 6745   2.381   3.348   2.730
 3227W        W 6746   5.219   3.628   3.213
 3228W        W 6747   0.517   2.162  10.051
 3229W        W 6748   1.623   1.026   2.702
 3230W        W 6749   7.546   4.786  11.885
 3231W        W 6750   6.545   7.658   0.340
 3232W        W 6751   6.596   4.699   3.402
 3233W        W 6752   6.829   9.256   3.125
 3234W        W 6753   2.078   9.192   3.047
 3235W        W 6754   0.462   6.404  11.130
 3236W        W 6755   4.258   3.082   3.142
 3237W        W 6756   2.223   5.612  11.115
 3238W        W 6757   5.688   3.593   2.201
 3239W        W 6758   9.002   0.985   0.360
 3240W        W 6759   3.131   7.110  10.542
 3241W        W 6760   4.293   4.616  11.849
 3242W        W 6761   0.715   8.296   0.835
 3243W        W 6762   0.896   7.639  10.451
 3244W        W 6763   0.882   1.549   2.691
 3245W        W 6764   4.293   2.366   8.674
 3246W        W 6765   0.110   0.696   1.437
 3247W        W 6766   0.370   1.828   0.435
 3248W        W 6767   0.290   5.592   3.376
 3249W        W 6768   4.711   1.250   3.502
 3250W        W 6769   9.499   6.622   1.187
 3251W        W 6770   6.937   0.173   1.791
 3252W        W 6771   4.182   1.602   2.534
 3253W        W 6772   5.062   5.894  11.109
 3254W        W 6773   6.647   8.188   9.045
 3255W        W 6774   8.087   9.101   1.875
 3256W        W 6775   4.354   6.185   9.040
 3257W        W 6776   7.103   1.723   9.224
 3258W        W 6777   8.906   3.996  11.053
 3259W        W 6778   2.958   6.510   3.299
 3260W        W 6779   6.031   4.341   9.109
 3261W        W 6780   1.637   3.583   9.578
 3262W        W 6781   9.822   9.536  11.992
 3263W        W 6782   6.915   7.696   0.736
 3264W        W 6783   9.850   6.873   2.851
 3265W        W 6784   2.008   0.836  10.711
 3266W        W 6785   4.152   2.009   2.226
 3267W        W 6786   6.903   7.797   8.795
 3268W        W 6787   9.397   0.724   9.027
 3269W        W 6788   0.611   4.675   9.577
 3270W        W 6789   6.646   6.029   3.721
 3271W        W 6790   8.600   5.765   2.917
 3272W        W 6791   8.467   1.351   2.439
 3273W        W 6792   9.240   2.687   1.048
 3274W        W 6793   5.956   6.105   0.854
 3275W        W 6794   1.964   1.712   1.367
 3276W        W 6795   7.874   9.790   2.294
 3277W        W 6796   6.985   6.962   0.403
 3278W        W 6797   9.346   0.045   2.270
 3279W        W 6798   0.455   0.370   0.512
 3280W        W 6799   3.648   0.748  10.310
 3281W        W 6800   2.352   0.711   3.535
 3282W        W 6801   8.572   4.136   8.461
 3283W        W 6802   6.500   4.658   1.770
 3284W        W 6803   2.486   5.528   8.492
 3285W        W 6804   7.579   2.239   0.300
 3286W        W 6805   0.753   3.977  10.280
 3287W        W 6806   3.649   1.530  11.369
 3288W        W 6807   4.863   7.180   8.580
 3289W        W 6808   1.244   6.273   8.648
 3290W        W 6809   9.540   5.024   0.551
 3291W        W 6810   4.643   2.727  11.872
 3292W        W 6811   8.065   6.499   9.431
 3293W        W 6812   1.825   3.243   1.434
 3294W        W 6813   7.686   9.864  11.860
 3295W        W 6814   7.049   4.891   0.033
 3296W        W 6815   7.578   8.399  11.751
 3297W        W 6816   9.962   0.953   0.602
 3298W        W 6817   6.334   5.358  11.389
 3299W        W 6818   5.152   4.651   9.136
 3300W        W 6819   4.127   4.123   3.377
 3301W        W 6820   4.485   3.180   1.768
 3302W        W 6821   9.941   9.459   2.735
 3303W        W 6822   7.051   8.138   1.762
 3304W        W 6823   7.682   3.096   9.643
 3305W        W 6824   0.832   9.753   0.012
 3306W        W 6825   3.520   3.817   2.551
 3307W        W 6826   5.447   7.829   8.979
 3308W        W 6827   5.904   9.648   1.684
 3309W        W 6828   3.964   2.738   0.573
 3310W        W 6829   5.058   3.292  10.535
 3311W        W 6830   6.580   6.989   4.257
 3312W        W 6831   8.072   8.604   1.802
 3313W        W 6832   3.884   0.286  11.798
 3314W        W 6833   0.332   0.452  11.242
 3315W        W 6834   7.940   1.358   1.254
 3316W        W 6835   0.170   1.720   0.982
 3317W        W 6836   3.530   8.883   3.601
 3318W        W 6837   3.851   6.273   3.837
 3319W        W 6838   6.357   0.118   9.667
 3320W        W 6839   8.054   6.405   0.382
 3321W        W 6840   6.390   4.776   9.092
 3322W        W 6841   0.807   4.825   2.392
 3323W        W 6842   2.875   2.362   3.241
 3324W        W 6843   5.444   1.473   9.677
 3325W        W 6844   6.724   5.647   4.096
 3326W        W 6845   8.450   7.950   2.997
 3327W        W 6846   9.873   9.913  11.265
 3328W        W 6847   2.207   1.044   2.151
 3329W        W 6848   2.394   6.897   9.965
 3330W        W 6849   9.008   3.554   2.928
 3331W        W 6850   7.475   3.734   1.449
 3332W        W 6851   1.048   6.617   1.828
 3333W        W 6852   6.004   2.731   9.805
 3334W        W 6853   8.876   1.454   0.537
 3335W        W 6854   9.037   9.641   2.279
 3336W        W 6855   4.695   7.045  10.498
 3337W        W 6856   3.906   5.861  11.768
 3338W        W 6857   6.042   3.189  10.512
 3339W        W 6858   9.825   8.822   9.505
 3340W        W 6859   9.248   0.860  10.893
 3341W        W 6860   5.623   8.355  11.763
 3342W        W 6861   0.649   8.651  10.718
 3343W        W 6862   7.366   9.091   0.487
 3344W        W 6863   1.156   5.083   1.062
 3345W        W 6864   4.623   1.793   9.004
 3346W        W 6865   2.051   2.664   8.644
 3347W        W 6866   5.669   5.205   0.326
 3348W        W 6867   1.254   6.275   0.086
 3349W        W 6868   5.569   9.315   9.755
 3350W        W 6869   1.745   0.880  10.247
 3351W        W 6870   6.538   2.134   0.023
 3352W        W 6871   2.275   9.899  11.000
 3353W        W 6872   5.814   9.066   0.028
 3354W        W 6873   0.162   1.539   3.917
 3355W        W 6874   3.754   3.762  11.841
 3356W        W 6875   2.217   6.016   1.976
 3357W        W 6876   8.122   7.090   8.847
 3358W        W 6877   4.883   4.057   0.468
 3359W        W 6878   5.138   6.840   0.378
 3360W        W 6879   7.977   5.474   1.355
 3361W        W 6880   6.146   5.613   0.788
 3362W        W 6881   1.002   4.166   9.500
 3363W        W 6882   3.373   0.361   9.575
 3364W        W 6883   6.385   8.717  11.448
 3365W        W 6884   8.438   2.666   9.202
 3366W        W 6885   9.456   0.256   8.831
 3367W        W 6886   7.763   5.127   1.026
 3368W        W 6887   7.940   7.564  11.175
 3369W        W 6888   3.511   6.104   1.422
 3370W        W 6889   0.813   1.707   8.955
 3371W        W 6890   6.809   7.488  11.293
 3372W        W 6891   0.864   9.756   0.986
 3373W        W 6892   4.085   3.070   0.934
 3374W        W 6893   7.855   8.230   9.850
 3375W        W 6894   1.912   7.119  11.753
 3376W        W 6895   0.181   7.885   9.366
 3377W        W 6896   5.394   4.240   9.756
 3378W        W 6897   7.463   5.690   3.557
 3379W        W 6898   8.216   4.250   0.616
 3380W        W 6899   0.956   2.303  11.539
 3381W        W 6900   4.797   6.445   0.660
 3382W        W 6901   4.688   0.869   2.683
 3383W        W 6902   6.398   7.518   9.909
 3384W        W 6903   3.684   0.475   1.848
 3385W        W 6904   9.768   6.729   2.380
 3386W        W 6905   4.787   0.397  11.390
 3387W        W 6906   7.424   8.345  10.885
 3388W        W 6907   3.749   9.995  11.406
 3389W        W 6908   0.544   3.699   1.217
 3390W        W 6909   3.169   5.907   0.569
 3391W        W 6910   7.858   8.157   1.780
 3392W        W 6911   3.961   5.898   9.560
 3393W        W 6912   9.268   5.500   3.270
 3394W        W 6913   8.552   7.433   0.830
 3395W        W 6914   9.565   5.241   0.087
 3396W        W 6915   8.158   0.726  10.246
 3397W        W 6916   2.767   4.440   8.468
 3398W        W 6917   0.473   0.864   0.584
 3399W        W 6918   6.933   6.469   3.555
 3400W        W 6919   9.565   3.365  11.897
 3401W        W 6920   9.213   8.188  10.099
 3402W        W 6921   3.090   4.367   0.383
 3403W        W 6922   4.709   6.619   3.604
 3404W        W 6923   3.705   0.710  10.830
 3405W        W 6924   9.691   1.779   1.340
 3406W        W 6925   9.831   0.253   1.223
 3407W        W 6926   2.653   0.786  11.889
 3408W        W 6927   5.097   6.303   3.841
 3409W        W 6928   8.953   9.915   9.581
 3410W        W 6929   5.748   0.130   1.803
 3411W        W 6930   4.988   9.371  11.922
 3412W        W 6931   0.353   7.960  11.771
 3413W        W 6932   7.814   6.704   9.012
 3414W        W 6933   4.577   7.921  10.919
 3415W        W 6934   8.658   0.329   3.101
 3416W        W 6935   3.053   3.331  11.431
 3417W        W 6936   2.246   6.074   0.919
 3418W        W 6937   9.037   0.764  10.402
 3419W        W 6938   8.405   9.351  11.898
 3420W        W 6939   5.222   1.913   8.509
 3421W        W 6940   0.788   8.070  11.511
 3422W        W 6941   7.914   3.394   1.315
 3423W        W 6942   2.193   4.334   2.807
 3424W        W 6943   8.044   4.615   9.866
 3425W        W 6944   3.755   8.886   0.757
 3426W        W 6945   0.452   4.208  11.050
 3427W        W 6946   5.004   2.094  11.771
 3428W        W 6947   5.010   9.994   2.224
 3429W        W 6948   4.314   8.966   3.384
 3430W        W 6949   0.267   8.789  10.333
 3431W        W 6950   2.577   4.705   2.876
 3432W        W 6951   3.156   2.244   9.472
 3433W        W 6952   6.292   3.019  10.107
 3434W        W 6953   1.437   2.134   3.190
 3435W        W 6954   2.497   2.629   9.519
 3436W        W 6955   6.592   1.743   1.941
 3437W        W 6956   2.804   5.959   0.188
 3438W        W 6957   7.394   2.656   9.582
 3439W        W 6958   3.595   4.608   8.815
 3440W        W 6959   8.436   2.659  10.955
 3441W        W 6960   0.351   5.954   0.775
 3442W        W 6961   1.247   8.059  11.764
 3443W        W 6962   9.259   3.794  10.751
 3444W        W 6963   9.578   1.726  10.920
 3445W        W 6964   1.441   3.071  10.300
 3446W        W 6965   7.152   5.040   8.789
 3447W        W 6966   1.306   9.367  10.344
 3448W        W 6967   6.405   0.981  10.613
 3449W        W 6968   3.135   8.987   9.288
 3450W        W 6969   6.247   1.804   8.761
 3451W        W 6970   3.750   8.519  10.080
 3452W        W 6971   3.741   7.897   2.494
 3453W        W 6972   1.790   1.785   9.580
 3454W        W 6973   8.082   3.078   1.697
 3455W        W 6974   6.086   1.854  10.735
 3456W        W 6975   5.966   3.401  10.024
 3457W        W 6976   6.025   9.502   9.185
 3458W        W 6977   6.041   4.204   1.201
 3459W        W 6978   9.535   5.337  10.042
 3460W        W 6979   6.390   0.198   1.135
 3461W        W 6980   0.442   9.340   0.322
 3462W        W 6981   7.890   3.227   9.183
 3463W        W 6982   1.724   2.689   2.605
 3464W        W 6983   6.901   2.358   9.140
 3465W        W 6984   3.143   9.966   9.243
 3466W        W 6985   3.468   9.418   3.669
 3467W        W 6986   5.264   6.950   2.826
 3468W        W 6987   1.844   3.790  11.741
 3469W        W 6988   8.172   1.478  10.972
 3470W        W 6989   5.058   3.549   8.133
 3471W        W 6990   0.885   3.167   3.619
 3472W        W 6991   8.724   9.346   1.445
 3473W        W 6992   5.278   4.607  11.138
 3474W        W 6993   4.967   7.646   9.852
 3475W        W 6994   7.918   2.253  10.392
 3476W        W 6995   6.009   4.786   1.742
 3477W        W 6996   1.545   4.321   9.677
 3478W        W 6997   6.177   6.388   2.915
 3479W        W 6998   5.517   3.495  10.285
 3480W        W 6999   5.354   2.967   8.737
 3481W        W 7000   7.585   8.465   2.163
 3482W        W 7001   3.675   3.477   8.898
 3483W        W 7002   3.281   4.623   3.437
 3484W        W 7003   4.613   3.599   2.872
 3485W        W 7004   3.474   7.919   0.181
 3486W        W 7005   6.956   4.669   2.629
 3487W        W 7006   2.249   4.570   3.270
 3488W        W 7007   8.474   3.359   1.832
 3489W        W 7008   4.250   7.512   0.266
 3490W        W 7009   0.257   5.405  10.538
 3491W        W 7010   2.343   0.172  10.023
 3492W        W 7011   1.329   2.341   9.045
 3493W        W 7012   7.349   6.145   3.304
 3494W        W 7013   2.686   7.036   0.292
 3495W        W 7014   3.742   5.309   3.733
 3496W        W 7015   2.733   6.884  10.764
 3497W        W 7016   1.739   8.965  11.747
 3498W        W 7017   4.122   8.575  11.732
 3499W        W 7018   5.539   2.907  11.651
 3500W        W 7019   5.437   0.442   0.265
 3501W        W 7020   0.381   4.178   1.289
 3502W        W 7021   9.674   6.078   8.225
 3503W        W 7022   4.442   7.031   8.819
 3504W        W 7023   8.900   9.475  11.941
 3505W        W 7024   6.109   5.121   0.913
 3506W        W 7025   9.046   2.677   2.923
 3507W        W 7026   2.750   3.279   1.511
 3508W        W 7027   5.717   7.083   1.899
 3509W        W 7028   5.151   7.767   3.076
 3510W        W 7029   4.154   7.478   9.709
 3511W        W 7030   3.531   6.870  11.264
 3512W        W 7031   0.893   2.770   0.274
 3513W        W 7032   1.368   1.859   9.294
 3514W        W 7033   4.219   5.550   2.931
 3515W        W 7034   9.382   7.247   9.178
 3516W        W 7035   5.171   9.999   3.135
 3517W        W 7036   6.563   6.727   1.586
 3518W        W 7037   2.107   4.783  10.353
 3519W        W 7038   3.389   0.303  11.621
 3520W        W 7039   3.534   9.414   0.770
 3521W        W 7040   5.554   1.953  11.832
 3522W        W 7041   8.512   6.866  11.063
 3523W        W 7042   8.775   0.067   2.635
 3524W        W 7043   7.293   0.119   1.416
 3525W        W 7044   2.000   8.370   9.402
 3526W        W 7045   1.993   1.400   2.688
 3527W        W 7046   4.429   7.066  10.951
 3528W        W 7047   5.151   1.393   0.416
 3529W        W 7048   9.930   8.455  11.044
 3530W        W 7049   0.015   0.390   2.687
 3531W        W 7050   6.257   6.482  11.891
 3532W        W 7051   2.870   7.778   1.063
 3533W        W 7052   5.630   0.698   2.166
 3534W        W 7053   0.346   6.051   9.203
 3535W        W 7054   1.807   9.506   1.439
 3536W        W 7055   5.016   6.977   8.142
 3537W        W 7056   9.505   8.462   9.269
 3538W        W 7057   6.703   4.491  11.019
 3539W        W 7058   0.995   0.761  11.719
 3540W        W 7059   7.154   6.490   0.397
 3541W        W 7060   8.963   3.571  11.941
 3542W        W 7061   2.328   1.193   9.895
 3543W        W 7062   1.299   8.270   1.424
 3544W        W 7063   9.368   8.559   1.832
 3545W        W 7064   5.516   3.843   8.246
 3546W        W 7065   9.900   0.241  10.494
 3547W        W 7066   8.227   4.774   2.668
 3548W        W 7067   8.984   8.234   0.755
 3549W        W 7068   6.129   0.728   0.522
 3550W        W 7069   5.484   5.066   9.169
 3551W        W 7070   5.849   6.945   8.756
 3552W        W 7071   0.764   7.860  10.017
 3553W        W 7072   6.599   5.623   3.279
 3554W        W 7073   0.350   3.961   0.788
 3555W        W 7074   2.186   1.675  11.756
 3556W        W 7075   5.148   1.607  11.869
 3557W        W 7076   7.856   6.789   3.103
 3558W        W 7077   0.925   1.471   9.948
 3559W        W 7078   0.638   9.818   1.494
 3560W        W 7079   4.322   9.093   9.700
 3561W        W 7080   7.826   3.226  11.330
 3562W        W 7081   6.968   3.768  10.612
 3563W        W 7082   6.945   8.462   0.282
 3564W        W 7083   6.927   1.106   9.883
 3565W        W 7084   1.733   2.633  10.277
 3566W        W 7085   0.950   9.490  11.197
 3567W        W 7086   6.534   7.992  10.010
 3568W        W 7087   6.976   9.653  10.228
 3569W        W 7088   1.831   8.883   1.859
 3570W        W 7089   1.139   5.031   3.252
 3571W        W 7090   9.844   6.039   0.634
 3572W        W 7091   8.669   2.949   3.118
 3573W        W 7092   4.557   7.392  10.019
 3574W        W 7093   4.644   7.008   1.696
 3575W        W 7094   4.520   9.130  10.338
 3576W        W 7095   9.312   7.185   1.722
 3577W        W 7096   8.705   4.472   9.258
 3578W        W 7097   9.803   8.830   1.023
 3579W        W 7098   9.230   0.312   9.336
 3580W        W 7099   1.327   1.160   9.984
 3581W        W 7100   8.072   8.716   9.887
 3582W        W 7101   7.714   6.214   9.194
 3583W        W 7102   4.290   8.360  10.791
 3584W        W 7103   1.772   6.139   0.749
 3585W        W 7104   1.677   0.680   8.755
 3586W        W 7105   4.182   7.858   2.777
 3587W        W 7106   6.712   9.317   3.610
 3588W        W 7107   6.466   0.892  10.122
 3589W        W 7108   4.888   8.172   3.447
 3590W        W 7109   5.253   7.461   2.309
 3591W        W 7110   5.764   7.450   8.732
 3592W        W 7111   1.756   2.033   8.940
 3593W        W 7112   2.769   0.888   9.568
 3594W        W 7113   5.029   7.302   0.529
 3595W        W 7114   9.921   9.795  10.782
 3596W        W 7115   3.276   5.151   9.501
 3597W        W 7116   1.526   9.906   1.296
 3598W        W 7117   0.453   1.708   2.939
 3599W        W 7118   7.273   9.086  11.450
 3600W        W 7119   1.939   0.303   8.999
 3601W        W 7120   7.330   5.217   3.707
 3602W        W 7121   9.559   9.669  10.439
 3603W        W 7122   4.732   0.729   1.713
 3604W        W 7123   7.002   1.285   2.190
 3605W        W 7124   1.801   5.709   1.046
 3606W        W 7125   2.298   1.206   3.438
 3607W        W 7126   6.568   4.891   0.934
 3608W        W 7127   9.543   0.111   3.014
 3609W        W 7128   5.543   8.333   2.622
 3610W        W 7129   1.339   7.623  11.993
 3611W        W 7130   6.644   3.388   0.788
 3612W        W 7131   4.731   1.121   9.446
 3613W        W 7132   2.625   2.183   1.699
 3614W        W 7133   0.590   3.144   3.205
 3615W        W 7134   8.550   8.919   1.193
 3616W        W 7135   6.156   1.255   3.343
 3617W        W 7136   5.188   7.449   4.005
 3618W        W 7137   6.113   4.775  11.520
 3619W        W 7138   2.316   9.880   0.864
 3620W        W 7139   2.409   2.466   0.852
 3621W        W 7140   7.237   2.560   3.560
 3622W        W 7141   5.578   6.599   2.025
 3623W        W 7142   4.761   2.223   3.484
 3624W        W 7143   1.831   9.988   1.742
 3625W        W 7144   6.615   8.263   9.558
 3626W        W 7145   1.344   4.167   2.633
 3627W        W 7146   6.420   3.153   8.773
 3628W        W 7147   3.209   5.572   2.797
 3629W        W 7148   5.373   5.842   3.972
 3630W        W 7149   9.616   5.125   3.120
 3631W        W 7150   5.495   9.031   0.453
 3632W        W 7151   3.627   2.091  10.451
 3633W        W 7152   6.887   7.320   9.969
 3634W        W 7153   3.066   9.470   0.961
 3635W        W 7154   3.350   3.664   9.745
 3636W        W 7155   5.610   9.954   0.996
 3637W        W 7156   8.901   5.983   9.526
 3638W        W 7157   8.599   5.731   0.281
 3639W        W 7158   7.612   3.268   1.727
 3640W        W 7159   5.212   5.804   1.693
 3641W        W 7160   7.857   0.048   9.022
 3642W        W 7161   0.486   9.204  10.522
 3643W        W 7162   1.540   5.066   1.573
 3644W        W 7163   8.360   8.833   2.656
 3645W        W 7164   4.287   0.710   0.486
 3646W        W 7165   5.178   9.360   2.199
 3647W        W 7166   4.677   3.658  11.749
 3648W        W 7167   4.497   1.882   9.861
 3649W        W 7168   8.834   2.230   2.819
 3650W        W 7169   5.367   7.610   8.470
 3651W        W 7170   0.429   1.854  11.435
 3652W        W 7171   1.874   9.045   8.864
 3653W        W 7172   0.395   7.025   0.822
 3654W        W 7173   4.224   3.318   2.683
 3655W        W 7174   8.108   3.725  11.938
 3656W        W 7175   6.809   2.344  11.384
 3657W        W 7176   0.952   2.360  10.710
 3658W        W 7177   2.897   2.765   3.705
 3659W        W 7178   6.100   9.951   2.114
 3660W        W 7179   6.768   4.644   1.338
 3661W        W 7180   6.564   8.809   3.091
 3662W        W 7181   8.112   9.224   9.977
 3663W        W 7182   3.128   7.544  10.235
 3664W        W 7183   9.658   2.824  11.712
 3665W        W 7184   9.643   4.701  10.893
 3666W        W 7185   6.062   9.909   3.188
 3667W        W 7186   1.769   8.051   1.473
 3668W        W 7187   3.561   6.604   9.978
 3669W        W 7188   1.833   1.726   2.313
 3670W        W 7189   0.698   5.965  10.893
 3671W        W 7190   7.163   0.246   3.214
 3672W        W 7191   1.613   7.458   1.728
 3673W        W 7192   4.639   8.751   8.676
 3674W        W 7193   2.285   7.059   2.588
 3675W        W 7194   7.657   7.880  10.889
 3676W        W 7195   1.295   0.430   1.081
 3677W        W 7196   0.566   0.848  11.451
 3678W        W 7197   3.210   4.660   2.064
 3679W        W 7198   7.127   5.303  11.752
 3680W        W 7199   5.167   7.846   1.063
 3681W        W 7200   4.520   0.173  10.594
 3682W        W 7201   4.963   3.100  11.003
 3683W        W 7202   8.422   9.902   1.053
 3684W        W 7203   1.664   4.480  10.812
 3685W        W 7204   8.401   0.435   2.697
 3686W        W 7205   4.021   3.388   1.350
 3687W        W 7206   0.426   1.765  10.921
 3688W        W 7207   5.121   5.702   2.178
 3689W        W 7208   6.799   5.552  11.431
 3690W        W 7209   5.580   2.613   1.886
 3691W        W 7210   0.790   4.345   9.923
 3692W        W 7211   3.000   8.812   1.352
 3693W        W 7212   9.052   9.935   9.026
 3694W        W 7213   2.225   4.459  11.699
 3695W        W 7214   6.292   9.101   9.424
 3696W        W 7215   9.342   5.716   9.539
 3697W        W 7216   8.050   6.242   8.820
 3698W        W 7217   4.254   7.541  10.929
 3699W        W 7218   8.307   6.593   3.263
 3700W        W 7219   7.424   4.021   8.851
 3701W        W 7220   7.807   2.696   9.305
 3702W        W 7221   0.395   4.843  10.522
 3703W        W 7222   3.079   8.415  11.587
 3704W        W 7223   2.239   7.405   9.948
 3705W        W 7224   7.969   7.901   1.305
 3706W        W 7225   2.185   1.902   2.622
 3707W        W 7226   6.175   5.240   9.803
 3708W        W 7227   2.357   0.262   3.243
 3709W        W 7228   0.377   6.407  11.677
 3710W        W 7229   4.789   9.567   3.056
 3711W        W 7230   2.592   0.451   0.245
 3712W        W 7231   3.862   4.639   2.173
 3713W        W 7232   2.279   5.211  10.609
 3714W        W 7233   5.401   1.094   0.831
 3715W        W 7234   9.289   2.055  10.053
 3716W        W 7235   2.272   0.898   9.381
 3717W        W 7236   1.792   8.688   0.832
 3718W        W 7237   7.237   6.832  10.621
 3719W        W 7238   4.079   8.548   2.036
 3720W        W 7239   2.847   4.630  11.036
 3721W        W 7240   4.730   5.614   1.715
 3722W        W 7241   1.725   8.779   2.407
 3723W        W 7242   0.268   8.274  10.263
 3724W        W 7243   6.672   6.690   0.101
 3725W        W 7244   6.597   5.077   9.451
 3726W        W 7245   0.437   2.102  11.890
 3727W        W 7246   7.575   8.925   2.811
 3728W        W 7247   3.682   0.054  10.021
 3729W        W 7248   2.246   6.401   1.315
 3730W        W 7249   5.458   3.648   0.295
 3731W        W 7250   3.590   5.033   1.976
 3732W        W 7251   1.149   4.283   1.711
 3733W        W 7252   5.968   8.448  11.392
 3734W        W 7253   8.748   8.557   2.892
 3735W        W 7254   0.929   7.950   2.061
 3736W        W 7255   3.254   9.927   9.768
 3737W        W 7256   7.486   6.981   2.601
 3738W        W 7257   4.838   5.267   0.386
 3739W        W 7258   2.724   8.422   3.409
 3740W        W 7259   5.481   9.460   0.163
 3741W        W 7260   2.369   4.604   1.879
 3742W        W 7261   3.544   9.257   9.426
 3743W        W 7262   5.661   3.990   2.525
 3744W        W 7263   8.876   9.743   0.669
 3745W        W 7264   3.905   2.625   8.976
 3746W        W 7265   6.008   2.786   1.645
 3747W        W 7266   9.059   0.493   2.838
 3748W        W 7267   1.245   8.280   8.815
 3749W        W 7268   6.786   1.237  10.357
 3750W        W 7269   5.108   8.541   8.700
 3751W        W 7270   9.424   4.662   1.924
 3752W        W 7271   9.774   9.789   0.941
 3753W        W 7272   4.962   0.308   1.228
 3754W        W 7273   0.371   5.551  11.023
 3755W        W 7274   8.097   4.138  11.626
 3756W        W 7275   0.372   4.663  10.054
 3757W        W 7276   2.236   8.417   2.664
 3758W        W 7277   3.972   1.865   0.447
 3759W        W 7278   3.802   2.766  11.726
 3760W        W 7279   1.193   2.120   1.802
 3761W        W 7280   6.352   4.116   9.430
 3762W        W 7281   6.264   6.067   8.842
 3763W        W 7282   5.992   9.436   0.306
 3764W        W 7283   4.912   1.155  11.823
 3765W        W 7284   5.932   5.287   1.842
 3766W        W 7285   2.797   5.963  10.776
 3767W        W 7286   1.327   2.386   2.779
 3768W        W 7287   2.261   0.030   2.402
 3769W        W 7288   7.186   9.122   0.014
 3770W        W 7289   6.908   4.932   0.542
 3771W        W 7290   6.913   5.309   0.880
 3772W        W 7291   9.058   3.883   1.254
 3773W        W 7292   4.206   0.929  11.518
 3774W        W 7293   6.873   8.799  11.426
 3775W        W 7294   6.698   9.025   8.793
 3776W        W 7295   4.564   0.262   8.906
 3777W        W 7296   8.443   8.051   9.646
 3778W        W 7297   8.929   4.395   1.303
 3779W        W 7298   1.802   9.592   2.836
 3780W        W 7299   2.701   9.259  11.722
 3781W        W 7300   2.263   9.506   9.463
 3782W        W 7301   8.011   7.879   0.335
 3783W        W 7302   6.939   4.739   9.164
 3784W        W 7303   0.112   0.136   0.219
 3785W        W 7304   7.600   5.619   1.991
 3786W        W 7305   4.540   0.824   3.185
 3787W        W 7306   4.273   1.848   1.728
 3788W        W 7307   7.201   1.342   3.114
 3789W        W 7308   2.330   9.874   3.582
 3790W        W 7309   6.843   2.868   3.362
 3791W        W 7310   0.066   7.616  11.536
 3792W        W 7311   4.946   1.458   8.809
 3793W        W 7312   7.543   7.106  10.299
 3794W        W 7313   4.792   8.987   0.970
 3795W        W 7314   2.390   0.795  11.072
 3796W        W 7315   5.061   3.106   0.537
 3797W        W 7316   5.614   5.953   9.509
 3798W        W 7317   3.220   9.898  10.780
 3799W        W 7318   1.629   2.370   1.939
 3800W        W 7319   2.246   4.022   1.318
 3801W        W 7320   0.831   8.912   2.170
 3802W        W 7321   2.130   3.169   2.314
 3803W        W 7322   6.078   2.649  11.815
 3804W        W 7323   9.711   4.570   0.425
 3805W        W 7324   1.511   4.505   0.801
 3806W        W 7325   5.175   4.119   2.439
 3807W        W 7326   8.937   7.535   0.502
 3808W        W 7327   3.262   6.626  10.395
 3809W        W 7328   4.539   2.263   1.862
 3810W        W 7329   2.824   1.456   2.748
 3811W        W 7330   5.669   4.332   8.394
 3812W        W 7331   8.336   9.052  11.471
 3813W        W 7332   8.183   1.890  11.282
 3814W        W 7333   0.373   0.716   2.915
 3815W        W 7334   5.780   5.561   2.834
 3816W        W 7335   4.792   4.333  10.976
 3817W        W 7336   1.864   2.273   2.898
 3818W        W 7337   4.416   2.810   0.356
 3819W        W 7338   8.199   3.854   8.676
 3820W        W 7339   1.272   0.616   2.305
 3821W        W 7340   2.039   7.441   2.901
 3822W        W 7341   3.426   4.688   2.534
 3823W        W 7342   7.824   9.522   0.521
 3824W        W 7343   7.616   0.771  11.373
 3825W        W 7344   5.436   8.160   3.229
 3826W        W 7345   1.326   4.416  11.825
 3827W        W 7346   9.509   1.256  10.773
 3828W        W 7347   3.968   7.497   1.889
 3829W        W 7348   6.241   0.381   3.457
 3830W        W 7349   4.693   7.470   1.454
 3831W        W 7350   3.507   3.308  10.806
 3832W        W 7351   7.902   3.950   2.338
 3833W        W 7352   2.414   2.002   0.060
 3834W        W 7353   7.312   7.015   9.829
 3835W        W 7354   3.622   2.017   9.522
 3836W        W 7355   9.300   1.340   1.308
 3837W        W 7356   5.389   9.236  10.752
 3838W        W 7357   3.627   6.419  10.961
 3839W        W 7358   2.261   3.653   0.385
 3840W        W 7359   1.271   0.359  11.534
 3841W        W 7360   3.783   3.265  11.822
 3842W        W 7361   0.425   9.490   0.811
 3843W        W 7362   2.289   3.107   9.614
 3844W        W 7363   4.264   5.968   3.931
 3845W        W 7364   1.386   5.512   2.701
 3846W        W 7365   9.999   1.278  10.957
 3847W        W 7366   6.605   6.642   1.084
 3848W        W 7367   4.545   8.789   1.876
 3849W        W 7368   5.870   4.093  10.879
 3850W        W 7369   1.753   5.719  11.304
 3851W        W 7370   0.874   1.912   2.165
 3852W        W 7371   0.804   7.107   2.855
 3853W        W 7372   6.568   5.147   3.095
 3854W        W 7373   7.740   1.964   2.967
 3855W        W 7374   2.808   5.094   9.244
 3856W        W 7375   7.473   5.229   0.160
 3857W        W 7376   0.397   3.462  10.208
 3858W        W 7377   1.100   7.466   8.997
 3859W        W 7378   0.223   3.854  10.447
 3860W        W 7379   7.414   1.696  11.571
 3861W        W 7380   7.956   2.852   1.249
 3862W        W 7381   8.918   7.016  11.827
 3863W        W 7382   5.457   3.652   3.667
 3864W        W 7383   3.745   4.393   1.167
 3865W        W 7384   2.854   1.711   9.156
 3866W        W 7385   0.151   2.420   3.496
 3867W        W 7386   9.169   5.062   1.792
 3868W        W 7387   3.499   8.745   1.313
 3869W        W 7388   5.555   2.273   3.980
 3870W        W 7389   8.967   8.850   1.969
 3871W        W 7390   1.620   9.081   2.848
 3872W        W 7391   6.637   1.937   0.670
 3873W        W 7392   0.956   2.113  10.281
 3874W        W 7393   3.907   5.451   9.975
 3875W        W 7394   3.184   1.264  11.310
 3876W        W 7395   2.155   5.087   2.353
 3877W        W 7396   3.098   9.269   0.503
 3878W        W 7397   8.284   1.464  11.564
 3879W        W 7398   1.173   8.009   0.837
 3880W        W 7399   6.670   3.770   2.434
 3881W        W 7400   5.540   7.927   9.930
 3882W        W 7401   9.371   1.364  11.755
 3883W        W 7402   4.645   8.149  10.451
 3884W        W 7403   3.645   6.254  11.967
 3885W        W 7404   8.486   7.932   1.066
 3886W        W 7405   0.391   2.844  11.247
 3887W        W 7406   1.838   8.416   0.364
 3888W        W 7407   1.886   3.493  10.028
 3889W        W 7408   8.435   9.484   0.742
 3890W        W 7409   6.980   0.166   0.874
 3891W        W 7410   7.264   8.527   2.593
 3892W        W 7411   8.819   4.079   1.679
 3893W        W 7412   7.922   4.092   3.128
 3894W        W 7413   9.189   3.515  10.137
 3895W        W 7414   4.496   0.417   2.816
 3896W        W 7415   5.572   1.609   3.288
 3897W        W 7416   4.246   4.391   0.939
 3898W        W 7417   2.665   7.645   9.794
 3899W        W 7418   4.410   0.622   2.319
 3900W        W 7419   3.733   3.671   1.718
 3901W        W 7420   4.130   3.645   9.143
 3902W        W 7421   4.759   9.171  11.494
 3903W        W 7422   5.054   8.034  11.566
 3904W        W 7423   3.535   6.968   3.469
 3905W        W 7424   9.881   7.130  11.529
 3906W        W 7425   5.223   9.723   2.598
 3907W        W 7426   9.864   6.388   9.768
 3908W        W 7427   3.276   1.572   0.121
 3909W        W 7428   2.174   7.500   0.558
 3910W        W 7429   1.361   8.456  10.975
 3911W        W 7430   3.762   3.250   8.434
 3912W        W 7431   8.850   8.531   1.587
 3913W        W 7432   7.516   3.075  10.557
 3914W        W 7433   4.320   3.793  10.622
 3915W        W 7434   6.950   8.328   2.248
 3916W        W 7435   2.905   2.285   8.765
 3917W        W 7436   0.492   8.025   2.398
 3918W        W 7437   6.086   8.961   3.216
 3919W        W 7438   7.639   0.780   1.892
 3920W        W 7439   2.802   3.601   8.841
 3921W        W 7440   4.680   9.407   9.935
 3922W        W 7441   8.958   8.651   1.080
 3923W        W 7442   5.134   8.362  10.556
 3924W        W 7443   1.806   7.029   0.396
 3925W        W 7444   9.946   7.874   1.185
 3926W        W 7445   4.093   9.417  10.017
 3927W        W 7446   3.235   5.208   3.721
 3928W        W 7447   4.253   8.999   1.061
 3929W        W 7448   6.238   6.845   2.705
 3930W        W 7449   9.145   3.103  11.980
 3931W        W 7450   3.489   6.025   2.382
 3932W        W 7451   0.140   2.596  11.773
 3933W        W 7452   0.834   6.131   9.362
 3934W        W 7453   3.403   2.717   3.271
 3935W        W 7454   7.155   1.583  10.246
 3936W        W 7455   7.923   9.762   9.873
 3937W        W 7456   5.663   0.315  11.287
 3938W        W 7457   3.755   5.502   1.761
 3939W        W 7458   7.713   3.378  11.831
 3940W        W 7459   4.064   0.157   2.776
 3941W        W 7460   9.581   2.891   9.624
 3942W        W 7461   3.652   7.586   9.881
 3943W        W 7462   2.947   2.681   2.304
 3944W        W 7463   5.636   4.701  11.650
 3945W        W 7464   4.134   4.101  11.055
 3946W        W 7465   7.546   7.996  11.376
 3947W        W 7466   1.984   1.282  10.458
 3948W        W 7467   3.588   9.051   8.969
 3949W        W 7468   5.063   9.301   1.316
 3950W        W 7469   2.881   0.449   9.832
 3951W        W 7470   8.046   4.606  11.846
 3952W        W 7471   2.977   7.032   8.714
 3953W        W 7472   9.523   4.213  10.777
 3954W        W 7473   5.508   0.278  11.776
 3955W        W 7474   9.392   7.018   3.110
 3956W        W 7475   6.533   1.626  10.595
 3957W        W 7476   2.741   4.710   0.589
 3958W        W 7477   3.500   3.218   1.657
 3959W        W 7478   4.727   9.259   3.539
 3960W        W 7479   4.803   5.152   9.943
 3961W        W 7480   1.924   6.150  10.353
 3962W        W 7481   7.306   2.882   1.599
 3963W        W 7482   2.206   6.587   2.740
 3964W        W 7483   0.507   4.056   3.423
 3965W        W 7484   5.373   6.183   9.915
 3966W        W 7485   4.686   9.092   2.282
 3967W        W 7486   0.043   5.081   9.220
 3968W        W 7487   4.492   3.261   9.133
 3969W        W 7488   4.677   7.506   8.980
 3970W        W 7489   5.946   9.136   1.747
 3971W        W 7490   7.618   3.847   0.039
 3972W        W 7491   9.581   5.577   2.865
 3973W        W 7492   6.935   6.413   1.818
 3974W        W 7493   5.429   6.100  11.996
 3975W        W 7494   4.282   9.846   0.117
 3976W        W 7495   8.997   9.951   3.087
 3977W        W 7496   7.724   4.092   0.653
 3978W        W 7497   4.431   1.506   2.070
 3979W        W 7498   6.160   1.246   0.407
 3980W        W 7499   9.292   7.907   0.537
 3981W        W 7500   9.388   8.689   2.328
 3982W        W 7501   0.663   9.362   1.259
 3983W        W 7502   2.802   6.554   0.406
 3984W        W 7503   8.758   4.160   2.221
 3985W        W 7504   3.743   7.822   1.553
 3986W        W 7505   2.592   9.392   1.951
 3987W        W 7506   2.654   2.849   2.795
 3988W        W 7507   6.170   4.513   3.661
 3989W        W 7508   9.759   2.599   2.310
 3990W        W 7509   7.838   5.110   0.523
 3991W        W 7510   5.241   3.862   1.608
 3992W        W 7511   1.368   0.270  10.241
 3993W        W 7512   8.239   8.365   2.800
 3994W        W 7513   4.952   7.376   2.770
 3995W        W 7514   3.901   2.868   3.512
 3996W        W 7515   9.902   5.130  11.723
 3997W        W 7516   6.050   5.483  10.854
 3998W        W 7517   3.966   2.726   9.915
 3999W        W 7518   0.323   2.648   9.168
 4000W        W 7519   6.356   6.088   3.294
 4001W        W 7520   7.047   7.382   3.021
 4002W        W 7521   1.441   6.956   1.656
 4003W        W 7522   2.348   4.608  11.204
 4004W        W 7523   0.380   2.818   0.196
 4005W        W 7524   3.623   3.109   1.172
 4006W        W 7525   8.438   7.548   0.344
 4007W        W 7526   4.990   5.149   9.073
 4008W        W 7527   4.300   4.506   3.666
 4009W        W 7528   1.473   5.672   3.624
 4010W        W 7529   8.561   2.360   1.976
 4011W        W 7530   4.494   7.407   0.695
 4012W        W 7531   5.601   8.005   0.816
 4013W        W 7532   1.940   4.757   0.899
 4014W        W 7533   7.423   8.067   2.423
 4015W        W 7534   4.795   9.064   9.473
 4016W        W 7535   7.625   5.627  10.749
 4017W        W 7536   9.386   4.214   1.504
 4018W        W 7537   4.124   1.757   8.947
 4019W        W 7538   7.012   2.409   8.630
 4020W        W 7539   8.895   2.189   2.316
 4021W        W 7540   7.024   8.005   1.192
 4022W        W 7541   3.099   9.790   0.300
 4023W        W 7542   8.112   4.568   3.130
 4024W        W 7543   3.157   3.351  10.446
 4025W        W 7544   3.120   7.183  11.044
 4026W        W 7545   7.372   6.221  11.844
 4027W        W 7546   0.849   5.673  11.342
 4028W        W 7547   4.268   2.748  11.481
 4029W        W 7548   8.511   8.731  10.219
 4030W        W 7549   6.913   8.897   2.409
 4031W        W 7550   0.313   7.449   1.869
 4032W        W 7551   4.980   9.062   1.794
 4033W        W 7552   3.608   0.235  10.542
 4034W        W 7553   7.059   5.729   9.400
 4035W        W 7554   2.253   6.890   1.184
 4036W        W 7555   7.185   6.512   2.553
 4037W        W 7556   4.373   1.631   1.261
 4038W        W 7557   4.173   8.743   1.520
 4039W        W 7558   1.848   7.508   9.261
 4040W        W 7559   4.147   5.766   0.480
 4041W        W 7560   7.146   0.618   3.561
 4042W        W 7561   5.762   8.530   9.375
 4043W        W 7562   5.082   9.558  11.419
 4044W        W 7563   6.431   6.945  11.742
 4045W        W 7564   1.785   9.394   1.933
 4046W        W 7565   9.437   2.269   9.201
 4047W        W 7566   2.531   4.912   1.497
 4048W        W 7567   8.571   0.453  10.057
 4049W        W 7568   0.848   9.858   2.715
 4050W        W 7569   8.798   2.664  10.059
 4051W        W 7570   5.955   0.036   1.341
 4052W        W 7571   5.506   3.102  11.105
 4053W        W 7572   8.571   5.002   0.996
 4054W        W 7573   5.682   0.055   0.525
 4055W        W 7574   3.069   2.830   8.744
 4056W        W 7575   7.090   9.990   2.757
 4057W        W 7576   0.243   5.064   0.651
 4058W        W 7577   6.550   1.632   2.427
 4059W        W 7578   1.202   3.789  10.514
 4060W        W 7579   2.319   3.347   8.934
 4061W        W 7580   4.107   5.713   9.102
 4062W        W 7581   2.023   8.774   9.741
 4063W        W 7582   6.437   6.499   4.419
 4064W        W 7583   6.687   9.916  11.892
 4065W        W 7584   0.664   0.469  10.824
 4066W        W 7585   7.127   2.315   2.313
 4067W        W 7586   2.657   7.742  11.757
 4068W        W 7587   6.896   0.406  10.935
 4069W        W 7588   6.193   1.723  11.200
 4070W        W 7589   7.060   4.203   2.912
 4071W        W 7590   1.731   4.436  10.305
 4072W        W 7591   7.990   1.127   0.812
 4073W        W 7592   4.130   5.036   9.325
 4074W        W 7593   5.144   1.871   2.888
 4075W        W 7594   0.797   2.160   0.532
 4076W        W 7595   3.989   0.363   1.279
 4077W        W 7596   7.442   3.885  10.102
 4078W        W 7597   6.443   6.229   0.820
 4079W        W 7598   6.431   8.486  10.022
 4080W        W 7599   5.749   5.539   9.881
 4081W        W 7600   0.962   0.252   3.054
 4082W        W 7601   8.634   1.774   2.704
 4083W        W 7602   2.318   6.135  11.135
 4084W        W 7603   4.234   9.931  11.583
 4085W        W 7604   2.390   8.810   3.301
 4086W        W 7605   6.536   4.642   8.226
 4087W        W 7606   6.757   5.919   1.886
 4088W        W 7607   8.001   4.182   0.147
 4089W        W 7608   7.863   6.686   3.628
 4090W        W 7609   9.277   0.870   1.102
 4091W        W 7610   0.873   0.802   3.156
 4092W        W 7611   7.375   8.404   1.132
 4093W        W 7612   9.560   0.899  11.325
 4094W        W 7613   6.950   8.067  10.817
 4095W        W 7614   7.424   2.763   2.071
 4096W        W 7615   6.427   2.601   1.395
 4097W        W 7616   3.279   1.222   2.623
 4098W        W 7617   6.324   2.487  11.371
 4099W        W 7618   7.085   0.502   2.742
 4100W        W 7619   4.209   4.574   9.012
 4101W        W 7620   8.799   9.987  11.926
 4102W        W 7621   3.219   1.780  10.429
 4103W        W 7622   3.704   8.482  10.991
 4104W        W 7623   2.928   5.816   1.832
 4105W        W 7624   3.186   4.956   1.663
 4106W        W 7625   7.511   0.353   3.806
 4107W        W 7626   2.565   3.936  10.172
 4108W        W 7627   6.080   9.744   0.882
 4109W        W 7628   4.095   1.281   2.968
 4110W        W 7629   3.624   3.772   3.047
 4111W        W 7630   9.830   2.854   3.497
 4112W        W 7631   5.348   0.364   9.672
 4113W        W 7632   9.544   5.744   1.635
 4114W        W 7633   7.619   7.488   0.783
 4115W        W 7634   6.649   7.559   2.765
 4116W        W 7635   9.273   6.663   1.640
 4117W        W 7636   1.326   1.197   1.497
 4118W        W 7637   2.358   4.107   8.473
 4119W        W 7638   4.141   0.822   9.537
 4120W        W 7639   3.102   0.273   0.475
 4121W        W 7640   4.496   1.267   8.997
 4122W        W 7641   9.374   6.182   9.729
 4123W        W 7642   8.967   2.273   1.056
 4124W        W 7643   1.286   3.451   0.071
 4125W        W 7644   0.726   3.723   0.247
 4126W        W 7645   4.510   3.303  10.661
 4127W        W 7646   7.248   8.447  11.360
 4128W        W 7647   3.561   3.821   4.014
 4129W        W 7648   6.151   5.733  11.692
 4130W        W 7649   5.422   1.196   0.029
 4131W        W 7650   6.635   4.540   9.516
 4132W        W 7651   0.916   6.956   0.887
 4133W        W 7652   3.669   8.453   3.332
 4134W        W 7653   7.136   3.482   1.738
 4135W        W 7654   6.084   6.720  11.444
 4136W        W 7655   5.171   2.804   3.334
 4137W        W 7656   6.203   6.968  10.549
 4138W        W 7657   8.643   3.984   8.941
 4139W        W 7658   0.729   8.916   2.697
 4140W        W 7659   6.168   4.059   3.422
 4141W        W 7660   5.159   3.734   9.127
 4142W        W 7661   1.154   1.481   0.601
 4143W        W 7662   6.251   1.980   2.670
 4144W        W 7663   8.866   2.982   9.126
 4145W        W 7664   2.821   4.664   0.048
 4146W        W 7665   6.019   4.756   9.989
 4147W        W 7666   1.424   0.357   3.227
 4148W        W 7667   6.037   6.639   1.795
 4149W        W 7668   5.419   6.496  10.327
 4150W        W 7669   8.276   1.350   9.522
 4151W        W 7670   5.721   5.476   1.033
 4152W        W 7671   5.228   6.507   8.170
 4153W        W 7672   7.647   7.326   9.518
 4154W        W 7673   1.678   8.902   0.271
 4155W        W 7674   7.392   6.354  10.804
 4156W        W 7675   8.041   8.435  11.953
 4157W        W 7676   0.780   0.797   2.230
 4158W        W 7677   5.953   6.818   2.284
 4159W        W 7678   8.534   8.929   1.690
 4160W        W 7679   2.205   0.380   2.750
 4161W        W 7680   1.297   7.910   3.544
 4162W        W 7681   5.546   6.585   8.553
 4163W        W 7682   9.363   7.404  10.384
 4164W        W 7683   0.163   6.011  10.918
 4165W        W 7684   2.718   1.492   3.245
 4166W        W 7685   2.902   4.752   2.471
 4167W        W 7686   4.724   5.253   3.636
 4168W        W 7687   4.824   6.025   9.868
 4169W        W 7688   3.122   0.828  10.399
 4170W        W 7689   0.392   3.329   0.212
 4171W        W 7690   9.879   6.991  10.888
 4172W        W 7691   5.355   4.894   2.268
 4173W        W 7692   4.666   1.842  11.339
 4174W        W 7693   5.879   1.320   9.449
 4175W        W 7694   6.397   0.254  10.767
 4176W        W 7695   2.824   1.925   2.969
 4177W        W 7696   7.017   0.994   2.618
 4178W        W 7697   3.828   3.715  10.799
 4179W        W 7698   2.164   8.110   8.678
 4180W        W 7699   5.914   8.315   2.240
 4181W        W 7700   6.928   9.301   8.417
 4182W        W 7701   3.235   6.654   2.250
 4183W        W 7702   9.852   5.594  10.840
 4184W        W 7703   2.845   3.782  11.569
 4185W        W 7704   8.781   1.707  10.361
 4186W        W 7705   9.317   2.610   9.982
 4187W        W 7706   3.703   4.493   9.813
 4188W        W 7707   2.654   5.089   0.255
 4189W        W 7708   6.385   9.640   9.518
 4190W        W 7709   4.545   8.717  11.507
 4191W        W 7710   8.531   8.459   0.848
 4192W        W 7711   5.987   0.412  11.691
 4193W        W 7712   9.717   3.671  10.059
 4194W        W 7713   6.069   1.634   0.838
 4195W        W 7714   8.995   7.944   8.731
 4196W        W 7715   2.286   9.456  11.385
 4197W        W 7716   0.383   4.599   2.647
 4198W        W 7717   0.738   1.951   1.654
 4199W        W 7718   5.919   6.961  11.019
 4200W        W 7719   7.028   2.028  10.038
 4201W        W 7720   8.347   1.510   1.525
 4202W        W 7721   2.118   6.708   9.547
 4203W        W 7722   1.256   0.808   9.009
 4204W        W 7723   2.206   1.789   9.245
 4205W        W 7724   2.534   7.372   2.919
 4206W        W 7725   2.283   6.710   0.305
 4207W        W 7726   0.181   0.453   9.565
 4208W        W 7727   3.624   1.479   2.928
 4209W        W 7728   8.892   9.722   1.163
 4210W        W 7729   4.438   5.956  11.850
 4211W        W 7730   8.785   5.448   2.580
 4212W        W 7731   1.460   2.665   9.856
 4213W        W 7732   9.658   0.568   1.662
 4214W        W 7733   7.844   3.495   3.811
 4215W        W 7734   6.610   8.023   2.023
 4216W        W 7735   0.478   0.213   2.884
 4217W        W 7736   5.584   2.204   9.235
 4218W        W 7737   1.507   3.727   2.392
 4219W        W 7738   5.250   2.415   8.843
 4220W        W 7739   6.450   7.895  10.518
 4221W        W 7740   7.373   7.518  11.217
 4222W        W 7741   3.469   7.000   8.538
 4223W        W 7742   6.766   0.766  11.920
 4224W        W 7743   5.281   5.660  11.709
 4225W        W 7744   3.396   4.139   0.772
 4226W        W 7745   4.236   8.451  10.297
 4227W        W 7746   8.923   0.267  10.473
 4228W        W 7747   4.273   5.452   3.834
 4229W        W 7748   6.002   6.263   9.436
 4230W        W 7749   7.617   5.905   9.857
 4231W        W 7750   1.666   4.710   3.729
 4232W        W 7751   8.198   9.862   1.936
 4233W        W 7752   7.169   4.355   1.405
 4234W        W 7753   5.711   3.514   4.116
 4235W        W 7754   9.898   5.649   2.448
 4236W        W 7755   5.527   3.031  10.495
 4237W        W 7756   6.411   7.721  11.516
 4238W        W 7757   1.016   3.794   2.537
 4239W        W 7758   8.209   8.328  10.185
 4240W        W 7759   0.775   3.351   2.405
 4241W        W 7760   3.863   9.209   8.550
 4242W        W 7761   0.242   2.572   1.428
 4243W        W 7762   8.649   9.287   9.357
 4244W        W 7763   3.118   4.077   1.251
 4245W        W 7764   1.171   1.184   2.956
 4246W        W 7765   9.060   0.962  11.850
 4247W        W 7766   3.257   1.731   3.184
 4248W        W 7767   5.706   0.983   0.392
 4249W        W 7768   8.019   3.553  10.950
 4250W        W 7769   0.775   6.126   8.832
 4251W        W 7770   2.829   7.084   1.656
 4252W        W 7771   4.367   4.735   2.308
 4253W        W 7772   5.939   0.349   0.200
 4254W        W 7773   2.838   5.142   9.779
 4255W        W 7774   0.788   2.410   2.009
 4256W        W 7775   6.172   3.175   9.621
 4257W        W 7776   1.229   1.333  10.887
 4258W        W 7777   3.114   9.513   9.521
 4259W        W 7778   8.884   4.401   3.552
 4260W        W 7779   4.717   7.170  11.372
 4261W        W 7780   8.961   7.742   0.968
 4262W        W 7781   1.269   2.305   9.553
 4263W        W 7782   3.196   3.231   9.961
 4264W        W 7783   1.149   5.795  11.953
 4265W        W 7784   4.142   8.414   0.237
 4266W        W 7785   0.020   9.078   9.106
 4267W        W 7786   6.122   1.754   9.276
 4268W        W 7787   4.642   1.731   3.288
 4269W        W 7788   7.657   0.314  11.047
 4270W        W 7789   0.925   4.316  11.216
 4271W        W 7790   5.002   3.760   1.177
 4272W        W 7791   6.681   5.982   8.436
 4273W        W 7792   4.668   3.088   2.828
 4274W        W 7793   7.841   1.499   2.298
 4275W        W 7794   6.543   4.205   1.184
 4276W        W 7795   2.333   6.651  10.449
 4277W        W 7796   2.139   8.300   0.870
 4278W        W 7797   8.085   8.364   2.261
 4279W        W 7798   1.581   3.212   3.187
 4280W        W 7799   0.894   8.419   0.355
 4281W        W 7800   5.386   1.742   1.490
 4282W        W 7801   8.975   6.097  10.071
 4283W        W 7802   2.989   6.208  11.794
 4284W        W 7803   2.868   9.742  11.823
 4285W        W 7804   4.204   6.718   9.152
 4286W        W 7805   0.912   2.104   9.263
 4287W        W 7806   9.343   0.977   2.418
 4288W        W 7807   8.058   9.991   1.433
 4289W        W 7808   8.363   2.744  11.971
 4290W        W 7809   6.034   8.060   2.657
 4291W        W 7810   4.669   6.595   8.959
 4292W        W 7811   6.032   0.819   9.377
 4293W        W 7812   7.373   9.355  10.284
 4294W        W 7813   1.051   4.215   2.205
 4295W        W 7814   7.391   4.414   2.586
 4296W        W 7815   9.212   9.315   3.006
 4297W        W 7816   1.696   5.591   3.115
 4298W        W 7817   6.939   9.966  11.437
 4299W        W 7818   2.770   9.099  10.122
 4300W        W 7819   5.044   5.928   2.994
 4301W        W 7820   3.803   3.762   3.522
 4302W        W 7821   1.861   0.237   2.198
 4303W        W 7822   5.611   3.088   2.106
 4304W        W 7823   7.868   0.275   9.505
 4305W        W 7824   9.291   1.700   8.874
 4306W        W 7825   1.788   5.213  10.304
 4307W        W 7826   5.192   7.397   8.879
 4308W        W 7827   9.763   7.505   1.576
 4309W        W 7828   3.948   7.396   2.895
 4310W        W 7829   5.507   4.710   9.932
 4311W        W 7830   3.963   0.829   2.206
 4312W        W 7831   7.072   3.964   8.457
 4313W        W 7832   9.981   5.944   9.977
 4314W        W 7833   5.002   9.254   8.597
 4315W        W 7834   3.241   1.696   9.494
 4316W        W 7835   6.763   2.388   0.437
 4317W        W 7836   9.624   9.609   3.098
 4318W        W 7837   5.618   0.913   1.272
 4319W        W 7838   3.516   6.590   1.240
 4320W        W 7839   4.678   0.409   0.798
 4321W        W 7840   1.881   0.505   1.759
 4322W        W 7841   0.708   5.440   8.448
 4323W        W 7842   5.934   7.625  11.612
 4324W        W 7843   1.928   6.917   1.832
 4325W        W 7844   3.641   9.991   3.281
 4326W        W 7845   8.488   6.053  10.260
 4327W        W 7846   9.052   0.250   9.961
 4328W        W 7847   1.723   2.791   0.611
 4329W        W 7848   7.046   7.451   0.280
 4330W        W 7849   5.002   4.025   7.960
 4331W        W 7850   1.393   7.946   2.283
 4332W        W 7851   5.158   6.466   1.674
 4333W        W 7852   9.224   1.759   1.569
 4334W        W 7853   8.460   5.751   9.363
 4335W        W 7854   8.496   4.107  11.322
 4336W        W 7855   2.613   5.551  10.000
 4337W        W 7856   6.530   0.742  11.039
 4338W        W 7857   2.224   9.861   9.082
 4339W        W 7858   6.642   4.164  10.653
 4340W        W 7859   4.666   3.886   2.426
 4341W        W 7860   2.493   1.486   0.128
 4342W        W 7861   0.055   9.419   2.240
 4343W        W 7862   0.537   5.450   0.803
 4344W        W 7863   2.788   0.474   3.511
 4345W        W 7864   8.424   1.564   0.071
 4346W        W 7865   0.332   3.257  10.732
 4347W        W 7866   2.063   4.338   3.706
 4348W        W 7867   9.367   8.807  11.660
 4349W        W 7868   5.454   2.474  10.393
 4350W        W 7869   7.957   0.398   0.316
 4351W        W 7870   2.412   9.550   3.187
 4352W        W 7871   3.757   2.996   9.336
 4353W        W 7872   8.139   9.604  10.742
 4354W        W 7873   9.931   5.750  11.321
 4355W        W 7874   6.906   5.767  11.883
 4356W        W 7875   7.795   4.695  10.301
 4357W        W 7876   1.046   0.166   3.555
 4358W        W 7877   6.616   3.543  11.906
 4359W        W 7878   6.967   5.461  10.370
 4360W        W 7879   8.061   4.784   8.700
 4361W        W 7880   9.927   8.957  11.814
 4362W        W 7881   4.375   1.018   1.932
 4363W        W 7882   3.300   9.715   1.738
 4364W        W 7883   3.338   8.803  10.196
 4365W        W 7884   6.066   3.275   1.892
 4366W        W 7885   7.642   7.218   8.851
 4367W        W 7886   4.292   2.586   0.960
 4368W        W 7887   9.540   3.256   3.443
 4369W        W 7888   7.723   9.570   9.091
 4370W        W 7889   2.099   4.024   3.281
 4371W        W 7890   4.128   4.726   1.286
 4372W        W 7891   6.007   5.648   8.556
 4373W        W 7892   0.704   4.850   3.420
 4374W        W 7893   7.020   4.472   8.326
 4375W        W 7894   0.425   1.110   1.526
 4376W        W 7895   9.730   3.755  10.571
 4377W        W 7896   7.415   7.064   1.274
 4378W        W 7897   3.346   4.684  11.139
 4379W        W 7898   5.493   0.412   1.188
 4380W        W 7899   2.443   4.715  10.722
 4381W        W 7900   4.664   6.685   0.208
 4382W        W 7901   9.460   6.360   2.224
 4383W        W 7902   8.095   0.344  11.365
 4384W        W 7903   7.855   7.971  11.857
 4385W        W 7904   6.612   2.564  11.795
 4386W        W 7905   9.281   7.893   3.319
 4387W        W 7906   9.329   4.696   9.485
 4388W        W 7907   4.707   4.802   0.397
 4389W        W 7908   2.988   5.048   4.147
 4390W        W 7909   2.393   3.094   3.169
 4391W        W 7910   4.426   6.554   1.017
 4392W        W 7911   4.181   1.500   3.452
 4393W        W 7912   7.153   3.748   2.266
 4394W        W 7913   0.020   5.059  10.211
 4395W        W 7914   8.480   7.583   9.371
 4396W        W 7915   5.095   0.779   9.514
 4397W        W 7916   3.628   4.236  11.767
 4398W        W 7917   9.352   4.265   3.334
 4399W        W 7918   2.780   7.234  11.765
 4400W        W 7919   3.270   3.797   8.796
 4401W        W 7920   2.871   3.895   2.274
 4402W        W 7921   1.731   1.246  10.924
 4403W        W 7922   3.100   0.594   0.867
 4404W        W 7923   8.480   1.846  10.754
 4405W        W 7924   0.347   4.533  11.924
 4406W        W 7925   3.078   6.386   1.420
 4407W        W 7926   6.687   0.860   9.112
 4408W        W 7927   8.472   6.207   9.764
 4409W        W 7928   6.108   7.125  10.067
 4410W        W 7929   5.621   5.832   2.330
 4411W        W 7930   5.311   3.015   0.998
 4412W        W 7931   7.852   8.960  11.357
 4413W        W 7932   0.355   8.434   2.117
 4414W        W 7933   0.947   5.519   0.411
 4415W        W 7934   7.596   0.735   9.411
 4416W        W 7935   8.207   3.192   3.200
 4417W        W 7936   0.879   7.059   2.352
 4418W        W 7937   0.334   8.156  11.295
 4419W        W 7938   7.429   4.016   3.244
 4420W        W 7939   8.087   6.837  10.384
 4421W        W 7940   9.777   0.739   1.031
 4422W        W 7941   8.537   6.615   1.892
 4423W        W 7942   8.611   9.722  10.615
 4424W        W 7943   0.371   9.234  11.830
 4425W        W 7944   6.575   6.084   2.791
 4426W        W 7945   3.197   3.289   8.993
 4427W        W 7946   9.072   4.479   2.490
 4428W        W 7947   3.984   4.181   1.764
 4429W        W 7948   2.647   7.334   8.418
 4430W        W 7949   6.423   2.524  10.079
 4431W        W 7950   9.346   0.543   2.098
 4432W        W 7951   4.656   0.720  11.746
 4433W        W 7952   0.852   6.184  11.364
 4434W        W 7953   1.391   3.562  10.080
 4435W        W 7954   6.369   1.386   9.727
 4436W        W 7955   6.507   5.254  10.885
 4437W        W 7956   2.994   7.945   8.647
 4438W        W 7957   7.623   9.410  11.264
 4439W        W 7958   9.429   6.543  11.890
 4440W        W 7959   8.194   6.369   2.168
 4441W        W 7960   7.001   8.336   3.130
 4442W        W 7961   8.233   9.421   3.222
 4443W        W 7962   8.063   7.005   9.380
 4444W        W 7963   4.626   9.925   1.607
 4445W        W 7964   9.807   0.318  10.980
 4446W        W 7965   5.773   6.828   3.656
 4447W        W 7966   5.337   0.436   3.428
 4448W        W 7967   4.618   7.175   0.251
 4449W        W 7968   7.796   1.178   9.620
 4450W        W 7969   4.869   1.299   1.888
 4451W        W 7970   5.452   1.488   8.737
 4452W        W 7971   4.048   5.182   1.027
 4453W        W 7972   9.247   8.785   2.821
 4454W        W 7973   8.082   9.699   0.112
 4455W        W 7974   6.749   7.574  10.778
 4456W        W 7975   2.409   9.516   1.252
 4457W        W 7976   7.443   0.372   0.598
 4458W        W 7977   5.980   2.770   3.159
 4459W        W 7978   8.603   6.558   2.405
 4460W        W 7979   3.989   6.811  11.547
 4461W        W 7980   6.612   0.869   0.394
 4462W        W 7981   3.096   5.126  10.365
 4463W        W 7982   7.347   9.135   3.353
 4464W        W 7983   4.543   5.809  10.977
 4465W        W 7984   4.224   8.133   2.321
 4466W        W 7985   3.090   9.753   3.579
 4467W        W 7986   4.082   7.135  11.962
 4468W        W 7987   0.797   0.637   9.519
 4469W        W 7988   2.569   9.106   2.930
 4470W        W 7989   4.508   7.379  11.809
 4471W        W 7990   7.426   2.837  10.091
 4472W        W 7991   5.203   2.780   2.184
 4473W        W 7992   2.797   9.956   9.981
 4474W        W 7993   8.510   9.786   1.543
 4475W        W 7994   0.950   9.765   3.247
 4476W        W 7995   2.370   9.640  11.866
 4477W        W 7996   1.776   9.703   9.728
 4478W        W 7997   4.541   9.325   1.842
 4479W        W 7998   5.656   4.870  10.836
 4480W        W 7999   2.366   1.202  11.693
 4481W        W 8000   4.731   2.857   2.361
 4482W        W 8001   8.664   6.100   1.993
 4483W        W 8002   0.898   5.176   0.041
 4484W        W 8003   9.049   8.532   9.035
 4485W        W 8004   4.475   2.415   2.347
 4486W        W 8005   2.394   6.965   8.728
 4487W        W 8006   3.970   7.154   8.981
 4488W        W 8007   1.774   0.363   0.358
 4489W        W 8008   3.588   9.767   9.394
 4490W        W 8009   5.138   3.654   2.222
 4491W        W 8010   9.342   4.706   1.422
 4492W        W 8011   6.961   7.798   9.803
 4493W        W 8012   3.678   6.951   2.972
 4494W        W 8013   5.723   3.655   0.738
 4495W        W 8014   4.263   6.260   8.233
 4496W        W 8015   6.089   8.630  11.895
 4497W        W 8016   0.197   9.675   1.251
 4498W        W 8017   7.202   7.386   8.635
 4499W        W 8018   0.489   8.394   0.039
 4500W        W 8019   8.975   3.066   2.185
 4501W        W 8020   2.159   7.855   9.691
 4502W        W 8021   9.165   1.787   2.095
 4503W        W 8022   9.314   4.939   2.345
 4504W        W 8023   9.863   5.608  10.330
 4505W        W 8024   2.429   0.725   3.037
 4506W        W 8025   5.523   6.640  10.803
 4507W        W 8026   7.955   7.555   8.631
 4508W        W 8027   1.821   2.726  11.183
 4509W        W 8028   6.249   3.654   2.173
 4510W        W 8029   1.627   7.955   0.576
 4511W        W 8030   6.064   4.745   2.635
 4512W        W 8031   5.983   2.363   1.346
 4513W        W 8032   2.161   1.987   0.846
 4514W        W 8033   6.173   5.184   8.795
 4515W        W 8034   6.844   6.063   9.710
 4516W        W 8035   4.676   2.707  10.860
 4517W        W 8036   8.320   2.864   0.889
 4518W        W 8037   3.041   8.005   9.148
 4519W        W 8038   9.388   7.201   9.771
 4520W        W 8039   8.579   4.555  10.598
 4521W        W 8040   5.962   6.515  10.536
 4522W        W 8041   1.690   7.973   9.986
 4523W        W 8042   4.654   4.098   1.072
 4524W        W 8043   5.911   1.530   9.916
 4525W        W 8044   8.987   2.281   0.023
 4526W        W 8045   9.347   4.865   9.988
 4527W        W 8046   2.560   6.607   0.860
 4528W        W 8047   3.088   0.112   1.505
 4529W        W 8048   4.202   0.547   1.836
 4530W        W 8049   9.158   9.784   0.239
 4531W        W 8050   2.307   4.017   9.487
 4532W        W 8051   6.647   2.193   9.749
 4533W        W 8052   8.467   2.351   0.908
 4534W        W 8053   0.248   2.345  10.984
 4535W        W 8054   0.504   8.841   1.405
 4536W        W 8055   6.749   8.483   2.705
 4537W        W 8056   8.496   3.354   9.482
 4538W        W 8057   6.692   2.871  11.405
 4539W        W 8058   2.876   7.573   9.344
 4540W        W 8059   9.731   9.044   2.493
 4541W        W 8060   4.398   7.208   9.302
 4542W        W 8061   8.090   9.783   9.392
 4543W        W 8062   3.766   7.302   9.433
 4544W        W 8063   6.461   5.394   1.119
 4545W        W 8064   5.909   3.956   0.319
 4546W        W 8065   9.500   0.884   0.118
 4547W        W 8066   8.420   8.817   2.162
 4548W        W 8067   4.168   9.274   1.503
 4549W        W 8068   9.708   8.157   0.354
 4550W        W 8069   2.127   0.879   2.628
 4551W        W 8070   9.964   6.859   1.054
 4552W        W 8071   6.082   0.468   1.978
 4553W        W 8072   6.375   9.390   8.599
 4554W        W 8073   0.018   4.172   9.310
 4555W        W 8074   0.424   6.203   0.231
 4556W        W 8075   6.145   7.407   3.094
 4557W        W 8076   0.514   1.314   8.719
 4558W        W 8077   3.134   5.623  10.248
 4559W        W 8078   5.520   2.128   3.127
 4560W        W 8079   2.112   9.111   1.178
 4561W        W 8080   0.319   8.255  10.780
 4562W        W 8081   3.366   8.028   1.911
 4563W        W 8082   0.814   0.559   2.679
 4564W        W 8083   4.290   6.524   0.530
 4565W        W 8084   0.694   1.294   3.164
 4566W        W 8085   0.565   0.661   1.699
 4567W        W 8086   7.390   2.753   3.048
 4568W        W 8087   3.374   1.719   3.671
 4569W        W 8088   7.924   2.867  11.710
 4570W        W 8089   7.335   4.402  11.382
 4571W        W 8090   4.272   0.434  11.468
 4572W        W 8091   0.081   2.819   2.689
 4573W        W 8092   3.399   9.914   0.708
 4574W        W 8093   0.043   7.554   0.062
 4575W        W 8094   5.355   6.154   2.046
 4576W        W 8095   3.092   7.284   3.499
 4577W        W 8096   7.125   5.724   1.108
 4578W        W 8097   3.326   5.994  11.043
 4579W        W 8098   4.652   0.293   1.975
 4580W        W 8099   7.600   6.573   0.118
 4581W        W 8100   6.821   0.669   1.790
 4582W        W 8101   2.750   4.939   2.004
 4583W        W 8102   8.293   4.168   9.287
 4584W        W 8103   3.760   0.560   9.843
 4585W        W 8104   3.386   5.091   2.859
 4586W        W 8105   7.024   4.340   8.822
 4587W        W 8106   5.764   6.932   9.302
 4588W        W 8107   5.049   0.395   9.172
 4589W        W 8108   9.927   5.435   1.463
 4590W        W 8109   4.709   8.032   2.323
 4591W        W 8110   6.448   8.926   0.712
 4592W        W 8111   1.895   9.457   8.422
 4593W        W 8112   9.840   0.492   8.508
 4594W        W 8113   3.189   2.877  10.683
 4595W        W 8114   4.469   3.073   1.265
 4596W        W 8115   2.727   4.608   8.986
 4597W        W 8116   2.758   4.209  11.319
 4598W        W 8117   8.842   0.519   0.012
 4599W        W 8118   8.097   4.790   1.180
 4600W        W 8119   1.934   8.888  10.392
 4601W        W 8120   9.761   9.804   1.505
 4602W        W 8121   0.398   6.170   2.174
 4603W        W 8122   0.515   2.140  10.579
 4604W        W 8123   4.575   4.341   3.246
 4605W        W 8124   8.373   7.054   1.505
 4606W        W 8125   4.100   2.237   1.323
 4607W        W 8126   7.652   0.196   3.355
 4608W        W 8127   6.026   2.111   0.016
 4609W        W 8128   3.395   8.750   3.008
 4610W        W 8129   3.702   9.850  10.924
 4611W        W 8130   3.602   6.919  10.710
 4612W        W 8131   7.088   6.517  11.452
 4613W        W 8132   9.038   5.187   0.707
 4614W        W 8133   5.213   7.621  11.194
 4615W        W 8134   1.396   4.500  11.269
 4616W        W 8135   3.681   6.412  11.474
 4617W        W 8136   3.837   5.789   3.723
 4618W        W 8137   6.269   0.875   3.657
 4619W        W 8138   5.688   2.734   0.769
 4620W        W 8139   1.950   1.276  11.399
 4621W        W 8140   3.303   8.532   0.029
 4622W        W 8141   9.510   4.219   9.387
 4623W        W 8142   0.027   5.694   1.913
 4624W        W 8143   2.510   3.375  11.118
 4625W        W 8144   6.930   5.062  10.691
 4626W        W 8145   2.333   7.168   1.594
 4627W        W 8146   4.598   9.158   9.001
 4628W        W 8147   0.457   7.592   9.680
 4629W        W 8148   9.528   6.376  10.179
 4630W        W 8149   6.897   0.231   9.051
 4631W        W 8150   1.759   4.714   3.219
 4632W        W 8151   0.214   6.665   3.530
 4633W        W 8152   5.904   2.499   0.308
 4634W        W 8153   9.552   7.980   1.499
 4635W        W 8154   3.691   2.839  10.769
 4636W        W 8155   4.231   6.214  10.580
 4637W        W 8156   6.846   3.868   8.903
 4638W        W 8157   0.952   7.980   2.577
 4639W        W 8158   1.864   4.118   2.452
 4640W        W 8159   5.977   1.163  11.795
 4641W        W 8160   6.478   3.491  10.011
 4642W        W 8161   3.337   6.349   3.645
 4643W        W 8162   7.514   4.128   1.118
 4644W        W 8163   0.796   6.632   2.674
 4645W        W 8164   8.566   8.385   2.421
 4646W        W 8165   5.750   7.466  11.161
 4647W        W 8166   5.622   9.536   0.652
 4648W        W 8167   0.016   4.929   0.189
 4649W        W 8168   7.903   6.890   0.348
 4650W        W 8169   1.034   1.303   8.671
 4651W        W 8170   3.230   1.690  11.604
 4652W        W 8171   6.546   8.829  10.971
 4653W        W 8172   8.532   4.485   0.949
 4654W        W 8173   3.245   3.371   8.498
 4655W        W 8174   2.099   6.606   2.222
 4656W        W 8175   8.110   2.391  11.540
 4657W        W 8176   5.566   6.745   1.536
 4658W        W 8177   3.182   2.296  10.050
 4659W        W 8178   0.137   0.647   1.976
 4660W        W 8179   5.185   8.133  11.060
 4661W        W 8180   1.753   6.093   9.873
 4662W        W 8181   7.842   9.912  10.394
 4663W        W 8182   6.503   4.866   9.899
 4664W        W 8183   0.892   6.500   0.497
 4665W        W 8184   2.056   7.633   1.481
 4666W        W 8185   4.214   6.280   3.476
 4667W        W 8186   6.260   6.661   3.641
 4668W        W 8187   9.701   6.671  11.270
 4669W        W 8188   6.531   3.095   9.275
 4670W        W 8189   1.988   3.662   2.235
 4671W        W 8190   7.045   0.289   2.286
 4672W        W 8191   4.752   9.918  11.549
 4673W        W 8192   4.488   6.876  11.750
 4674W        W 8193   4.820   7.428  10.901
 4675W        W 8194   0.391   1.948   2.394
 4676W        W 8195   7.466   4.217   2.138
 4677W        W 8196   0.450   6.359  10.623
 4678W        W 8197   9.009   8.133  11.286
 4679W        W 8198   3.875   8.974  11.005
 4680W        W 8199   1.841   4.094   9.260
 4681W        W 8200   0.829   4.045   0.664
 4682W        W 8201   9.228   8.887  10.668
 4683W        W 8202   0.234   7.595   2.413
 4684W        W 8203   0.733   2.966   2.749
 4685W        W 8204   7.653   9.514   3.567
 4686W        W 8205   4.787   2.741   1.840
 4687W        W 8206   8.202   4.893  10.552
 4688W        W 8207   0.349   2.187   1.861
 4689W        W 8208   3.154   6.147   9.015
 4690W        W 8209   4.008   3.777   0.372
 4691W        W 8210   4.059   7.042   8.464
 4692W        W 8211   5.100   9.432   9.607
 4693W        W 8212   0.662   2.590  11.850
 4694W        W 8213   6.076   7.795   0.129
 4695W        W 8214   4.203   4.024   8.802
 4696W        W 8215   0.461   2.030   3.371
 4697W        W 8216   3.364   9.802  11.790
 4698W        W 8217   2.891   5.159   2.780
 4699W        W 8218   3.056   1.258   9.328
 4700W        W 8219   8.940   7.139  10.968
 4701W        W 8220   8.409   0.278   1.749
 4702W        W 8221   4.612   2.441   9.537
 4703W        W 8222   9.413   9.124   2.033
 4704W        W 8223   5.531   2.797  10.012
 4705W        W 8224   9.593   8.241   2.512
 4706W        W 8225   8.964   9.342   1.879
 4707W        W 8226   8.802   1.217   1.432
 4708W        W 8227   9.055   3.139   3.390
 4709W        W 8228   7.542   6.412   2.897
 4710W        W 8229   4.494   9.569  11.279
 4711W        W 8230   9.733   0.428   0.019
 4712W        W 8231   4.727   4.379   2.320
 4713W        W 8232   6.859   3.640   0.380
 4714W        W 8233   4.202   4.728   3.142
 4715W        W 8234   4.674   5.670   1.148
 4716W        W 8235   7.599   7.972   0.941
 4717W        W 8236   7.070   8.870   2.902
 4718W        W 8237   5.869   0.350  10.801
 4719W        W 8238   1.831   0.131   0.830
 4720W        W 8239   3.384   1.535   0.656
 4721W        W 8240   4.060   7.625  11.813
 4722W        W 8241   3.966   8.941   9.345
 4723W        W 8242   2.596   1.649  10.135
 4724W        W 8243   6.243   8.599   9.552
 4725W        W 8244   0.978   3.714  11.042
 4726W        W 8245   1.875   7.455  10.770
 4727W        W 8246   7.911   8.231   3.159
 4728W        W 8247   8.000   1.007   8.779
 4729W        W 8248   8.481   5.934   8.839
 4730W        W 8249   3.412   1.206  11.771
 4731W        W 8250   6.986   1.119   3.557
 4732W        W 8251   6.697   0.683   2.337
 4733W        W 8252   0.971   2.211   3.421
 4734W        W 8253   4.066   4.780  10.583
 4735W        W 8254   8.069   4.857   1.696
 4736W        W 8255   5.538   0.600   9.262
 4737W        W 8256   7.908   0.281   2.040
 4738W        W 8257   2.111   5.109   8.569
 4739W        W 8258   0.752   8.917  11.963
 4740W        W 8259   1.004   5.009  11.099
 4741W        W 8260   4.015   9.326   0.633
 4742W        W 8261   7.099   6.020   0.267
 4743W        W 8262   4.793   9.856   0.075
 4744W        W 8263   3.241   9.871  11.303
 4745W        W 8264   3.327   4.574  11.989
 4746W        W 8265   5.052   2.365   3.071
 4747W        W 8266   6.152   1.881   2.164
 4748W        W 8267   9.847   4.098   3.169
 4749W        W 8268   1.420   7.413   3.443
 4750W        W 8269   9.895   2.001   0.477
 4751W        W 8270   8.078   8.197   0.918
 4752W        W 8271   9.948   3.153  11.439
 4753W        W 8272   4.959   3.206   8.507
 4754W        W 8273   8.409   0.217   3.514
 4755W        W 8274   5.522   3.913   8.765
 4756W        W 8275   0.842   1.710   0.263
 4757W        W 8276   9.452   0.886   0.628
 4758W        W 8277   3.769   6.540   0.403
 4759W        W 8278   4.926   5.592  10.165
 4760W        W 8279   8.462   5.981  11.280
 4761W        W 8280   4.983   4.740  10.167
 4762W        W 8281   0.021   0.218   9.979
 4763W        W 8282   1.301   5.509   1.330
 4764W        W 8283   8.794   7.267   1.264
 4765W        W 8284   1.882   9.381   0.161
 4766W        W 8285   4.814   0.008   2.761
 4767W        W 8286   6.395   2.684   0.230
 4768W        W 8287   0.842   9.087   1.675
 4769W        W 8288   6.290   2.225   0.463
 4770W        W 8289   2.063   9.926   1.289
 4771W        W 8290   9.931   2.155  11.982
 4772W        W 8291   6.649   0.220   2.628
 4773W        W 8292   7.663   5.111   1.538
 4774W        W 8293   1.658   1.165   0.749
 4775W        W 8294   0.997   9.334  11.704
 4776W        W 8295   9.477   5.857  10.109
 4777W        W 8296   1.749   0.656   0.848
 4778W        W 8297   7.050   8.173   3.686
 4779W        W 8298   0.743   3.728   9.326
 4780W        W 8299   5.106   3.401   9.980
 4781W        W 8300   8.429   7.544   3.340
 4782W        W 8301   8.729   0.210   1.369
 4783W        W 8302   5.971   2.305   1.852
 4784W        W 8303   7.181   9.407   2.311
 4785W        W 8304   4.089   6.739   2.321
 4786W        W 8305   0.266   0.929   2.464
 4787W        W 8306   3.146   2.357   0.318
 4788W        W 8307   0.664   3.758   9.831
 4789W        W 8308   6.033   4.621   0.850
 4790W        W 8309   6.814   9.461   1.398
 4791W        W 8310   3.465   7.381   3.150
 4792W        W 8311   8.511   4.859  11.867
 4793W        W 8312   4.068   6.554  10.012
 4794W        W 8313   1.991   2.929   3.473
 4795W        W 8314   0.851   0.469  10.336
 4796W        W 8315   2.283   1.941   2.110
 4797W        W 8316   7.595   3.339  10.078
 4798W        W 8317   8.485   4.099  10.798
 4799W        W 8318   9.906   7.215   2.444
 4800W        W 8319   8.484   8.965   0.705
 4801W        W 8320   7.642   8.976  10.017
 4802W        W 8321   8.503   0.753   2.213
 4803W        W 8322   1.217   1.944   2.557
 4804W        W 8323   9.009   3.614  11.423
 4805W        W 8324   9.862   4.556   1.726
 4806W        W 8325   2.007   4.647   4.118
 4807W        W 8326   0.482   1.636   1.963
 4808W        W 8327   9.059   2.562   1.503
 4809W        W 8328   8.792   1.884   0.795
 4810W        W 8329   6.560   6.284   8.021
 4811W        W 8330   4.726   0.874   0.217
 4812W        W 8331   5.965   0.873  10.914
 4813W        W 8332   3.927   7.971   1.097
 4814W        W 8333   1.646   1.662   0.619
 4815W        W 8334   5.928   7.937   8.853
 4816W        W 8335   0.701   1.064   2.700
 4817W        W 8336   8.979   0.635   0.728
 4818W        W 8337   0.346   9.487   3.607
 4819W        W 8338   6.329   1.243   9.232
 4820W        W 8339   2.548   6.375   2.148
 4821W        W 8340   8.521   4.252   9.759
 4822W        W 8341   2.722   2.361   2.681
 4823W        W 8342   5.260   9.176   3.465
 4824W        W 8343   1.641   6.617   9.199
 4825W        W 8344   5.173   1.583   0.902
 4826W        W 8345   8.465   6.241   9.258
 4827W        W 8346   0.309   3.172   9.097
 4828W        W 8347   7.387   9.898   2.225
 4829W        W 8348   4.896   0.176  10.947
 4830W        W 8349   4.019   7.626   0.714
 4831W        W 8350   5.663   1.984   8.778
 4832W        W 8351   3.581   2.170   1.293
 4833W        W 8352   8.052   6.708   0.819
 4834W        W 8353   5.760   1.922   9.639
 4835W        W 8354   3.657   1.015   9.646
 4836W        W 8355   4.788   8.884  11.934
 4837W        W 8356   3.197   3.357   0.509
 4838W        W 8357   4.712   4.459   1.782
 4839W        W 8358   2.868   4.703  10.004
 4840W        W 8359   5.671   8.839  10.555
 4841W        W 8360   4.965   4.863   1.624
 4842W        W 8361   9.602   1.387   9.133
 4843W        W 8362   2.288   9.449   2.649
 4844W        W 8363   9.568   2.515   8.750
 4845W        W 8364   6.436   3.853  11.504
 4846W        W 8365   9.270   7.676   1.849
 4847W        W 8366   7.473   8.615   3.220
 4848W        W 8367   8.887   2.316   0.531
 4849W        W 8368   6.120   6.212  11.488
 4850W        W 8369   0.721   7.787   1.038
 4851W        W 8370   0.340   7.128   0.254
 4852W        W 8371   6.472   1.997  11.520
 4853W        W 8372   1.253   0.989   1.005
 4854W        W 8373   8.956   0.353   1.821
 4855W        W 8374   5.295   2.933   8.219
 4856W        W 8375   9.345   6.028   8.727
 4857W        W 8376   9.531   8.965   1.557
 4858W        W 8377   1.378   8.819   8.970
 4859W        W 8378   8.030   3.674  11.443
 4860W        W 8379   3.390   5.983  11.573
 4861W        W 8380   3.599   5.517   2.251
 4862W        W 8381   1.013   7.466  11.189
 4863W        W 8382   4.465   9.067   0.602
 4864W        W 8383   0.717   9.982  11.209
 4865W        W 8384   1.674   6.750  11.457
 4866W        W 8385   1.797   0.350   1.276
 4867W        W 8386   4.000   6.776  11.021
 4868W        W 8387   2.292   9.174   9.888
 4869W        W 8388   7.045   7.172  10.963
 4870W        W 8389   1.378   5.808   0.397
 4871W        W 8390   8.164   6.510   2.751
 4872W        W 8391   7.035   2.375  10.406
 4873W        W 8392   1.235   1.686   3.034
 4874W        W 8393   4.025   2.863   1.457
 4875W        W 8394   2.795   2.057  10.357
 4876W        W 8395   2.704   7.284   2.431
 4877W        W 8396   2.779   9.944   3.208
 4878W        W 8397   3.451   1.226   2.148
 4879W        W 8398   5.083   5.293  11.412
 4880W        W 8399   5.009   6.542   1.141
 4881W        W 8400   8.550   9.726   3.573
 4882W        W 8401   0.436   8.926   3.426
 4883W        W 8402   1.658   8.452  10.239
 4884W        W 8403   8.077   1.148  11.915
 4885W        W 8404   0.153   5.289   2.187
 4886W        W 8405   3.677   2.293   9.934
 4887W        W 8406   7.613   4.387  10.954
 4888W        W 8407   6.559   0.514   0.775
 4889W        W 8408   4.037   9.464  11.062
 4890W        W 8409   8.424   2.142   0.238
 4891W        W 8410   4.694   0.952  11.295
 4892W        W 8411   7.728   1.829   9.012
 4893W        W 8412   5.526   6.002   2.787
 4894W        W 8413   5.813   4.287  10.057
 4895W        W 8414   4.413   6.675  11.302
 4896W        W 8415   9.945   7.330   0.579
 4897W        W 8416   6.445   0.359   0.285
 4898W        W 8417   8.971   9.404   9.740
 4899W        W 8418   5.604   1.492  11.632
 4900W        W 8419   9.757   4.307   3.622
 4901W        W 8420   6.948   5.580   3.645
 4902W        W 8421   5.126   2.593  11.721
 4903W        W 8422   1.400   5.515   1.842
 4904W        W 8423   6.939   6.125  11.034
 4905W        W 8424   2.253   4.858   0.514
 4906W        W 8425   5.190   3.785   9.633
 4907W        W 8426   9.768   8.965  10.350
 4908W        W 8427   6.570   6.518  11.474
 4909W        W 8428   2.869   0.268   8.847
 4910W        W 8429   1.840   4.222   0.040
 4911W        W 8430   0.975   0.593  11.200
 4912W        W 8431   2.997   2.703   9.649
 4913W        W 8432   6.871   3.394   1.299
 4914W        W 8433   7.230   8.540  10.331
 4915W        W 8434   8.407   1.945   9.749
 4916W        W 8435   7.354   7.584   9.086
 4917W        W 8436   1.242   8.067   9.711
 4918W        W 8437   1.387   5.056   9.980
 4919W        W 8438   2.167   1.266   8.988
 4920W        W 8439   0.230   2.745   0.937
 4921W        W 8440   0.218   8.023   3.303
 4922W        W 8441   1.971   5.571   3.527
 4923W        W 8442   3.422   9.042  11.243
 4924W        W 8443   9.071   5.585   9.960
 4925W        W 8444   0.899   9.369   2.906
 4926W        W 8445   5.142   6.497   9.134
 4927W        W 8446   9.952   8.582   2.390
 4928W        W 8447   4.381   7.006   3.719
 4929W        W 8448   2.784   8.203   0.693
 4930W        W 8449   5.649   7.614   3.260
 4931W        W 8450   0.734   8.414   3.246
 4932W        W 8451   4.768   1.358   2.445
 4933W        W 8452   3.748   5.080   2.478
 4934W        W 8453   8.991   8.828   0.614
 4935W        W 8454   2.881   5.511   0.412
 4936W        W 8455   8.467   9.432   1.910
 4937W        W 8456   3.764   7.203   0.844
 4938W        W 8457   7.653   8.434   0.700
 4939W        W 8458   4.230   8.098  11.842
 4940W        W 8459   0.490   2.195   8.993
 4941W        W 8460   5.128   6.087   9.472
 4942W        W 8461   1.175   7.495   1.991
 4943W        W 8462   4.095   9.873   9.183
 4944W        W 8463   0.448   6.602   3.063
 4945W        W 8464   7.997   6.124  11.396
 4946W        W 8465   3.521   5.138  11.340
 4947W        W 8466   3.862   0.953   1.734
 4948W        W 8467   8.439   2.560   2.892
 4949W        W 8468   6.324   8.371   2.986
 4950W        W 8469   3.991   8.488   2.559
 4951W        W 8470   2.200   8.607   1.269
 4952W        W 8471   5.641   5.115   2.635
 4953W        W 8472   7.083   7.352   2.022
 4954W        W 8473   1.466   3.302   0.580
 4955W        W 8474   8.458   1.107  11.199
 4956W        W 8475   9.046   3.524   2.430
 4957W        W 8476   9.556   9.523   0.444
 4958W        W 8477   6.585   2.685   2.319
 4959W        W 8478   9.871   8.455   1.884
 4960W        W 8479   4.568   9.757   3.521
 4961W        W 8480   4.651   1.920   2.253
 4962W        W 8481   6.136   7.860   2.158
 4963W        W 8482   3.038   4.247  10.031
 4964W        W 8483   4.697   6.280   8.554
 4965W        W 8484   1.342   5.347  10.520
 4966W        W 8485   1.296   9.761   9.036
 4967W        W 8486   7.144   2.137   9.551
 4968W        W 8487   1.938   5.633  10.038
 4969W        W 8488   4.108   5.566  10.900
 4970W        W 8489   5.365   3.442   1.302
 4971W        W 8490   3.672   8.541   0.393
 4972W        W 8491   7.834   2.161   1.758
 4973W        W 8492   2.353   3.311  10.631
 4974W        W 8493   4.129   3.362   3.538
 4975W        W 8494   2.719   3.795   1.381
 4976W        W 8495   5.012   8.234   2.928
 4977W        W 8496   8.946   2.717  11.682
 4978W        W 8497   6.115   9.001   2.219
 4979W        W 8498   3.273   5.131  10.896
 4980W        W 8499   8.824   4.936   2.661
 4981W        W 8500   5.832   5.400  11.498
 4982W        W 8501   0.744   3.805   2.120
 4983W        W 8502   9.712   1.932  10.284
 4984W        W 8503   6.578   6.531   9.578
 4985W        W 8504   6.349   0.251  10.234
 4986W        W 8505   1.691   7.949   9.474
 4987W        W 8506   1.619   0.262  11.885
 4988W        W 8507   8.963   6.898   9.939
 4989W        W 8508   9.034   8.322  11.911
 4990W        W 8509   3.785   1.114   2.575
 4991W        W 8510   7.420   6.116   4.209
 4992W        W 8511   5.229   4.175   0.810
 4993W        W 8512   0.471   9.637   3.097
 4994W        W 8513   8.681   9.946  10.111
 4995W        W 8514   6.434   7.115   1.249
 4996W        W 8515   1.769   7.516   0.239
 4997W        W 8516   6.247   1.897   9.750
 4998W        W 8517   7.122   2.322   0.091
 4999W        W 8518   0.896   3.418  11.456
 5000W        W 8519   1.433   9.817   3.436
 5001W        W 8520   1.723   5.934   1.768
 5002W        W 8521   1.714   1.767   0.080
 5003W        W 8522   7.595   6.804   1.662
 5004W        W 8523   7.081   0.778  10.261
 5005W        W 8524   8.147   5.842   2.081
 5006W        W 8525   9.820   7.174  10.367
 5007W        W 8526   9.715   6.172   1.111
 5008W        W 8527   6.079   5.148   2.934
 5009W        W 8528   3.798   6.680   1.699
 5010W        W 8529   8.368   3.156  10.418
 5011W        W 8530   5.810   4.527  11.178
 5012W        W 8531   8.062   1.858   9.391
 5013W        W 8532   1.398   7.577  10.475
 5014W        W 8533   1.221   8.748   1.575
 5015W        W 8534   1.465   5.473   0.747
 5016W        W 8535   7.339   8.060  10.479
 5017W        W 8536   3.611   9.505  11.333
 5018W        W 8537   8.775   2.139  10.052
 5019W        W 8538   9.485   5.986   2.579
 5020W        W 8539   0.304   8.420   1.619
 5021W        W 8540   0.767   5.361   1.290
 5022W        W 8541   6.667   1.399   0.415
 5023W        W 8542   5.284   0.245   2.706
 5024W        W 8543   4.666   8.852  11.017
 5025W        W 8544   0.294   2.456   2.374
 5026W        W 8545   2.106   3.539   9.380
 5027W        W 8546   9.384   5.021   1.032
 5028W        W 8547   5.946   6.083   0.016
 5029W        W 8548   0.453   3.694   1.725
 5030W        W 8549   1.862   7.169   1.395
 5031W        W 8550   0.174   7.219   1.395
 5032W        W 8551   1.086   0.216  11.983
 5033W        W 8552   4.173   0.807   2.804
 5034W        W 8553   7.942   7.165   1.750
 5035W        W 8554   6.891   6.137   4.202
 5036W        W 8555   2.507   5.044   3.239
 5037W        W 8556   3.107   4.342   8.083
 5038W        W 8557   9.218   2.285   3.227
 5039W        W 8558   5.170   2.585   0.747
 5040W        W 8559   6.842   6.930   3.818
 5041W        W 8560   0.634   5.186  10.785
 5042W        W 8561   5.128   1.060   2.839
 5043W        W 8562   4.778   6.823   4.054
 5044W        W 8563   0.173   3.450   0.719
 5045W        W 8564   8.015   4.230  10.181
 5046W        W 8565   5.277   7.019   9.455
 5047W        W 8566   8.086   3.403   2.385
 5048W        W 8567   6.480   9.707  11.460
 5049W        W 8568   5.910   9.957   8.975
 5050W        W 8569   9.353   6.873   2.125
 5051W        W 8570   9.275   7.863   2.398
 5052W        W 8571   2.192   6.914   3.550
 5053W        W 8572   4.278   6.523   1.858
 5054W        W 8573   5.374   2.265   2.636
 5055W        W 8574   6.063   5.511   1.417
 5056W        W 8575   7.163   7.529  11.675
 5057W        W 8576   0.991   9.997   1.824
 5058W        W 8577   7.261   6.033   9.037
 5059W        W 8578   8.751   9.430   3.198
 5060W        W 8579   3.865   8.995  11.511
 5061W        W 8580   9.587   7.566   0.297
 5062W        W 8581   1.932   6.433  10.782
 5063W        W 8582   1.286   9.854  10.570
 5064W        W 8583   7.920   9.284   9.501
 5065W        W 8584   8.363   6.337   0.910
 5066W        W 8585   3.197   8.066   2.403
 5067W        W 8586   5.922   1.015  10.416
 5068W        W 8587   1.626   2.723   1.222
 5069W        W 8588   2.718   9.341   9.244
 5070W        W 8589   3.242   4.660   9.671
 5071W        W 8590   5.151   7.876   2.579
 5072W        W 8591   2.315   5.964   3.480
 5073W        W 8592   6.573   9.249  10.388
 5074W        W 8593   6.444   2.445   2.783
 5075W        W 8594   1.321   8.444   2.395
 5076W        W 8595   6.497   5.069   2.590
 5077W        W 8596   0.793   4.412   3.192
 5078W        W 8597   5.849   4.937   2.205
 5079W        W 8598   7.862   2.642   9.850
 5080W        W 8599   6.079   9.458  10.366
 5081W        W 8600   7.934   3.433  10.447
 5082W        W 8601   2.490   2.664   3.409
 5083W        W 8602   9.522   6.752   0.327
 5084W        W 8603   7.739   5.640   2.486
 5085W        W 8604   3.528   0.895   3.572
 5086W        W 8605   9.436   4.311   0.076
 5087W        W 8606   5.726   8.550   3.077
 5088W        W 8607   8.405   7.087   2.018
 5089W        W 8608   8.684   9.243   2.336
 5090W        W 8609   3.550   8.298   2.787
 5091W        W 8610   8.701   2.906   9.606
 5092W        W 8611   3.192   2.980   0.878
 5093W        W 8612   4.815   0.362   9.692
 5094W        W 8613   3.817   7.259  11.067
 5095W        W 8614   4.427   5.502  10.053
 5096W        W 8615   3.548   8.240   1.311
 5097W        W 8616   3.737   5.432   9.438
 5098W        W 8617   1.193   1.942   0.823
 5099W        W 8618   4.244   2.275   9.204
 5100W        W 8619   1.973   0.991   3.107
 5101W        W 8620   9.666   3.595  11.473
 5102W        W 8621   4.585   5.670   0.255
 5103W        W 8622   3.924   8.184  11.447
 5104W        W 8623   8.789   7.087   0.303
 5105W        W 8624   1.248   3.495   3.440
 5106W        W 8625   0.748   0.847   8.568
 5107W        W 8626   9.470   9.399   9.651
 5108W        W 8627   4.023   0.945   3.368
 5109W        W 8628   7.986   8.741   3.055
 5110W        W 8629   7.590   4.348   9.941
 5111W        W 8630   0.515   3.061   0.627
 5112W        W 8631   8.115   6.210   3.678
 5113W        W 8632   0.416   3.346   9.564
 5114W        W 8633   0.919   2.211   8.726
 5115W        W 8634   5.565   8.279   8.750
 5116W        W 8635   1.568   7.357   2.742
 5117W        W 8636   5.886   8.916   9.699
 5118W        W 8637   3.183   4.728   9.186
 5119W        W 8638   8.394   5.717   1.616
 5120W        W 8639   3.990   4.658   2.674
 5121W        W 8640   2.218   6.211   0.421
 5122W        W 8641   6.798   0.577  11.435
 5123W        W 8642   2.947   8.954   0.089
 5124W        W 8643   1.353   0.650   0.074
 5125W        W 8644   9.823   4.872   2.170
 5126W        W 8645   6.279   5.639   2.865
 5127W        W 8646   3.465   0.620   0.334
 5128W        W 8647   2.174   9.237   1.670
 5129W        W 8648   8.631   2.249   1.432
 5130W        W 8649   9.519   5.360  11.439
 5131W        W 8650   4.219   0.835   1.408
 5132W        W 8651   8.440   3.543   0.659
 5133W        W 8652   7.310   0.628   1.532
 5134W        W 8653   9.012   5.870   2.325
 5135W        W 8654   8.563   9.679   0.275
 5136W        W 8655   5.863   3.067   8.770
 5137W        W 8656   0.004   5.437   9.871
 5138W        W 8657   1.056   0.346   9.851
 5139W        W 8658   3.159   6.779   8.164
 5140W        W 8659   8.310   0.706   3.214
 5141W        W 8660   4.499   3.244   0.650
 5142W        W 8661   2.723   5.520  10.994
 5143W        W 8662   1.702   3.202  11.349
 5144W        W 8663   2.119   0.409  11.973
 5145W        W 8664   7.866   3.003   2.151
 5146W        W 8665   5.687   9.787   2.381
 5147W        W 8666   3.513   2.690   1.478
 5148W        W 8667   9.635   9.981   0.247
 5149W        W 8668   8.348   5.163   9.931
 5150W        W 8669   6.170   9.015  10.649
 5151W        W 8670   5.948   6.425  11.040
 5152W        W 8671   0.450   1.569  11.989
 5153W        W 8672   6.177   4.683   0.001
 5154W        W 8673   6.301   4.199   0.718
 5155W        W 8674   9.364   9.296   8.679
 5156W        W 8675   9.442   7.094  11.199
 5157W        W 8676   5.648   1.460   0.584
 5158W        W 8677   4.238   5.046   9.856
 5159W        W 8678   7.635   4.722   8.990
 5160W        W 8679   1.292   7.162   0.177
 5161W        W 8680   2.402   5.246   2.778
 5162W        W 8681   5.419   4.864  10.402
 5163W        W 8682   9.443   5.519   0.695
 5164W        W 8683   2.350   7.864   1.827
 5165W        W 8684   6.722   1.463   8.523
 5166W        W 8685   4.240   6.411   2.726
 5167W        W 8686   6.872   8.770  10.062
 5168W        W 8687   4.222   8.923   2.445
 5169W        W 8688   0.775   6.132  11.858
 5170W        W 8689   9.816   4.622  10.023
 5171W        W 8690   7.632   0.982   2.356
 5172W        W 8691   6.062   2.824   2.142
 5173W        W 8692   7.945   9.408  11.687
 5174W        W 8693   3.719   1.965   2.813
 5175W        W 8694   2.881   5.099  11.270
 5176W        W 8695   3.811   4.217   3.787
 5177W        W 8696   9.025   9.870   1.622
 5178W        W 8697   8.928   8.047  10.782
 5179W        W 8698   8.430   5.167   2.359
 5180W        W 8699   4.525   4.210   9.629
 5181W        W 8700   8.816   3.684   2.016
 5182W        W 8701   5.954   6.904  11.924
 5183W        W 8702   1.001   5.030   0.552
 5184W        W 8703   1.886   7.670  11.248
 5185W        W 8704   3.799   2.959   2.422
 5186W        W 8705   2.944   8.859   3.246
 5187W        W 8706   5.554   7.044   4.071
 5188W        W 8707   5.523   2.614   3.010
 5189W        W 8708   1.775   0.083   2.676
 5190W        W 8709   0.551   3.601   8.873
 5191W        W 8710   7.980   1.191   2.675
 5192W        W 8711   7.682   9.786  10.926
 5193W        W 8712   5.162   3.573   4.079
 5194W        W 8713   3.881   9.930   0.495
 5195W        W 8714   7.017   8.972   9.199
 5196W        W 8715   2.171   3.819   2.789
 5197W        W 8716   7.398   3.635   0.452
 5198W        W 8717   9.984   5.952   1.466
 5199W        W 8718   9.629   1.450   1.710
 5200W        W 8719   6.908   9.763   3.200
 5201W        W 8720   7.889   7.661   1.752
 5202W        W 8721   6.425   7.234  10.931
 5203W        W 8722   1.707   5.410   8.663
 5204W        W 8723   1.818   5.489   1.510
 5205W        W 8724   9.769   8.041   9.128
 5206W        W 8725   1.552   0.179   9.749
 5207W        W 8726   0.677   7.295   1.234
 5208W        W 8727   2.356   4.753   9.896
 5209W        W 8728   2.031   4.085   0.507
 5210W        W 8729   7.038   5.568   8.893
 5211W        W 8730   9.758   0.815  10.867
 5212W        W 8731   8.023   6.132  10.061
 5213W        W 8732   2.130   4.278  10.570
 5214W        W 8733   3.913   5.460  11.420
 5215W        W 8734   1.389   8.431   0.598
 5216W        W 8735   5.492   1.796  10.074
 5217W        W 8736   8.318   2.381  10.042
 5218W        W 8737   9.496   1.413   2.192
 5219W        W 8738   3.781   2.245   0.733
 5220W        W 8739   1.743   1.543   9.113
 5221W        W 8740   3.584   6.053   8.750
 5222W        W 8741   2.981   1.787   8.619
 5223W        W 8742   9.328   6.376  11.437
 5224W        W 8743   0.133   0.659   0.227
 5225W        W 8744   4.559   2.161   3.022
 5226W        W 8745   9.814   9.373   1.775
 5227W        W 8746   8.963   5.127  11.742
 5228W        W 8747   2.147   3.746   0.878
 5229W        W 8748   3.506   1.820  10.009
 5230W        W 8749   4.541   9.520   9.436
 5231W        W 8750   6.271   3.793   1.675
 5232W        W 8751   2.270   8.319   3.177
 5233W        W 8752   7.934   2.307   2.662
 5234W        W 8753   5.344   4.993   1.285
 5235W        W 8754   4.251   5.467   9.566
 5236W        W 8755   4.216   4.592  10.118
 5237W        W 8756   9.359   9.937   1.212
 5238W        W 8757   5.508   2.340   1.057
 5239W        W 8758   2.670   0.467  10.291
 5240W        W 8759   8.518   5.489  11.303
 5241W        W 8760   4.944   7.037  11.893
 5242W        W 8761   6.063   1.756   3.252
 5243W        W 8762   3.930   0.395   0.302
 5244W        W 8763   9.017   5.378   1.181
 5245W        W 8764   1.721   6.234  11.219
 5246W        W 8765   0.413   3.045  11.715
 5247W        W 8766   9.116   9.488   9.262
 5248W        W 8767   3.088   0.361   2.496
 5249W        W 8768   4.993   6.342   3.293
 5250W        W 8769   6.503   3.653   9.247
 5251W        W 8770   1.434   2.955   3.620
 5252W        W 8771   1.673   8.064  11.002
 5253W        W 8772   3.164   5.603  10.742
 5254W        W 8773   8.581   3.327   2.332
 5255W        W 8774   1.396   6.991   1.160
 5256W        W 8775   9.189   4.235   1.987
 5257W        W 8776   1.283   3.093   1.701
 5258W        W 8777   4.158   9.407   8.980
 5259W        W 8778   8.303   7.503   1.267
 5260W        W 8779   3.468   8.192   9.331
 5261W        W 8780   3.224   5.954   8.367
 5262W        W 8781   5.510   6.531   4.091
 5263W        W 8782   6.768   4.057  11.830
 5264W        W 8783   0.880   7.108   1.849
 5265W        W 8784   7.690   5.602   0.457
 5266W        W 8785   2.160   0.909   0.044
 5267W        W 8786   0.057   2.846  10.864
 5268W        W 8787   8.764   9.474   8.876
 5269W        W 8788   5.958   4.056   2.096
 5270W        W 8789   7.612   6.513   0.632
 5271W        W 8790   2.732   7.751   2.639
 5272W        W 8791   5.709   9.352   2.125
 5273W        W 8792   1.256   6.057  10.014
 5274W        W 8793   1.176   6.719  11.846
 5275W        W 8794   3.280   6.659   8.923
 5276W        W 8795   2.690   5.681   2.722
 5277W        W 8796   3.450   8.122   8.818
 5278W        W 8797   8.103   5.665  10.982
 5279W        W 8798   9.376   6.192   9.222
 5280W        W 8799   4.929   1.870   0.250
 5281W        W 8800   7.727   7.378   2.835
 5282W        W 8801   2.678   4.217  11.833
 5283W        W 8802   8.842   4.003   2.707
 5284W        W 8803   4.958   9.274  11.019
 5285W        W 8804   0.259   8.524   3.110
 5286W        W 8805   6.473   4.148   2.134
 5287W        W 8806   4.053   4.350  11.491
 5288W        W 8807   1.415   9.722   1.822
 5289W        W 8808   8.371   3.096   2.734
 5290W        W 8809   3.332   1.863   1.662
 5291W        W 8810   8.425   3.099   8.473
 5292W        W 8811   8.445   4.391   1.870
 5293W        W 8812   7.536   6.353   8.713
 5294W        W 8813   0.733   4.518   1.399
 5295W        W 8814   1.210   8.053  10.223
 5296W        W 8815   2.281   2.926  10.960
 5297W        W 8816   4.307   3.619  11.098
 5298W        W 8817   3.505   0.122   0.168
 5299W        W 8818   5.229   4.076  11.038
 5300W        W 8819   4.504   1.379  11.581
 5301W        W 8820   9.128   2.284   9.633
 5302W        W 8821   1.731   6.206   8.847
 5303W        W 8822   5.558   3.247   9.784
 5304W        W 8823   6.666   2.650  10.955
 5305W        W 8824   6.099   4.956   0.432
 5306W        W 8825   3.194   1.231   3.117
 5307W        W 8826   4.950   8.570   9.576
 5308W        W 8827   0.700   1.683  10.353
 5309W        W 8828   8.859   3.230   0.405
 5310W        W 8829   8.046   9.686   2.759
 5311W        W 8830   9.875   3.351  10.937
 5312W        W 8831   0.011   8.849   1.512
 5313W        W 8832   1.187   8.006  10.730
 5314W        W 8833   0.894   8.463  11.194
 5315W        W 8834   3.692   9.972   2.001
 5316W        W 8835   3.222   2.000  10.920
 5317W        W 8836   4.106   0.894   9.030
 5318W        W 8837   0.064   1.018  10.508
 5319W        W 8838   4.100   5.778  10.355
 5320W        W 8839   9.716   6.987   1.477
 5321W        W 8840   4.297   1.212   0.467
 5322W        W 8841   1.637   7.221  11.237
 5323W        W 8842   8.378   0.234   2.251
 5324W        W 8843   6.122   6.427   0.379
 5325W        W 8844   9.000   2.147   1.786
 5326W        W 8845   8.188   1.943  11.802
 5327W        W 8846   4.991   4.321  11.478
 5328W        W 8847   0.288   2.337   0.321
 5329W        W 8848   2.012   2.138   3.743
 5330W        W 8849   4.788   5.564   9.644
 5331W        W 8850   3.737   9.552   1.519
 5332W        W 8851   9.185   1.848  11.857
 5333W        W 8852   4.008   6.279   4.315
 5334W        W 8853   2.681   7.521   0.204
 5335W        W 8854   1.392   0.852  11.371
 5336W        W 8855   2.748   2.930  11.216
 5337W        W 8856   2.588   8.036   9.415
 5338W        W 8857   2.186   3.468  11.915
 5339W        W 8858   9.136   7.471   0.016
 5340W        W 8859   4.596   3.167  11.628
 5341W        W 8860   3.646   7.457   0.062
 5342W        W 8861   8.100   7.662  10.693
 5343W        W 8862   8.609   6.561  10.109
 5344W        W 8863   3.922   5.597   4.182
 5345W        W 8864   0.983   9.337   8.975
 5346W        W 8865   0.842   2.601  11.135
 5347W        W 8866   4.172   6.323  11.617
 5348W        W 8867   5.106   8.838   2.253
 5349W        W 8868   6.223   4.553   8.654
 5350W        W 8869   1.734   6.637  10.349
 5351W        W 8870   6.726   8.500   0.863
 5352W        W 8871   4.665   8.376  11.858
 5353W        W 8872   8.919   4.597   1.778
 5354W        W 8873   2.350   0.763   1.758
 5355W        W 8874   4.663   5.546   9.140
 5356W        W 8875   8.451   5.866   0.760
 5357W        W 8876   2.434   0.311  11.295
 5358W        W 8877   5.728   6.831   8.142
 5359W        W 8878   7.942   9.068   3.464
 5360W        W 8879   8.990   6.652  10.841
 5361W        W 8880   5.653   2.664  10.833
 5362W        W 8881   6.477   6.503  10.572
 5363W        W 8882   3.303   7.553  10.713
 5364W        W 8883   3.207   4.247   2.379
 5365W        W 8884   7.415   9.762   3.180
 5366W        W 8885   8.558   2.321  11.768
 5367W        W 8886   8.936   1.748   9.780
 5368W        W 8887   3.508   5.079   8.557
 5369W        W 8888   2.252   2.628   9.977
 5370W        W 8889   0.921   7.557   3.503
 5371W        W 8890   8.387   0.922   2.722
 5372W        W 8891   2.967   9.980   1.007
 5373W        W 8892   1.923   0.483   9.996
 5374W        W 8893   1.286   4.624   2.414
 5375W        W 8894   5.973   3.229  11.811
 5376W        W 8895   5.061   6.481   4.337
 5377W        W 8896   5.972   2.236   0.858
 5378W        W 8897   7.526   3.551   2.995
 5379W        W 8898   2.643   2.911   1.025
 5380W        W 8899   1.436   0.776   1.836
 5381W        W 8900   2.524   1.039   0.373
 5382W        W 8901   3.267   1.467   8.902
 5383W        W 8902   1.819   4.750   9.934
 5384W        W 8903   0.036   1.709  11.744
 5385W        W 8904   6.108   5.998  10.757
 5386W        W 8905   8.237   8.549  11.473
 5387W        W 8906   1.458   0.837  10.849
 5388W        W 8907   6.840   8.981   0.375
 5389W        W 8908   0.076   4.771  11.432
 5390W        W 8909   0.415   5.946  11.346
 5391W        W 8910   2.588   1.309   1.894
 5392W        W 8911   6.702   6.389  10.090
 5393W        W 8912   6.720   3.901   0.807
 5394W        W 8913   6.609   5.179   3.612
 5395W        W 8914   6.715   9.839  10.975
 5396W        W 8915   4.560   5.793   8.695
 5397W        W 8916   2.251   5.618   2.429
 5398W        W 8917   6.992   0.713   9.518
 5399W        W 8918   0.318   3.304   2.709
 5400W        W 8919   6.517   2.236   8.704
 5401W        W 8920   6.918   6.204   1.012
 5402W        W 8921   6.181   1.848  10.243
 5403W        W 8922   9.380   9.243   0.038
 5404W        W 8923   6.738   5.872  10.164
 5405W        W 8924   2.136   4.301  10.045
 5406W        W 8925   6.675   5.770   0.853
 5407W        W 8926   8.943   6.000  11.480
 5408W        W 8927   6.623   7.976   3.065
 5409W        W 8928   6.471   0.692   1.280
 5410W        W 8929   2.974   3.294  10.913
 5411W        W 8930   2.358   9.325  10.892
 5412W        W 8931   1.307   6.251   0.604
 5413W        W 8932   7.725   2.676   3.451
 5414W        W 8933   1.650   3.190   2.454
 5415W        W 8934   1.755   1.239   2.244
 5416W        W 8935   5.616   4.499   1.140
 5417W        W 8936   2.050   6.417  11.944
 5418W        W 8937   0.899   8.871   9.168
 5419W        W 8938   8.047   5.632   9.968
 5420W        W 8939   6.834   8.250   8.535
 5421W        W 8940   5.349   1.063  11.540
 5422W        W 8941   5.007   1.699   9.903
 5423W        W 8942   9.429   1.423   2.691
 5424W        W 8943   5.945   0.517  10.329
 5425W        W 8944   8.441   9.736   2.413
 5426W        W 8945   1.233   2.629   3.262
 5427W        W 8946   9.480   6.495  10.767
 5428W        W 8947   6.034   7.965  11.234
 5429W        W 8948   2.278   7.911   2.804
 5430W        W 8949   1.241   1.330   9.143
 5431W        W 8950   5.272   1.940   9.548
 5432W        W 8951   5.634   8.023   9.425
 5433W        W 8952   6.480   2.059   3.139
 5434W        W 8953   1.221   8.948   2.542
 5435W        W 8954   3.550   5.050   3.350
 5436W        W 8955   2.665   6.366   2.673
 5437W        W 8956   9.026   4.210   9.568
 5438W        W 8957   3.358   4.726  10.159
 5439W        W 8958   2.690   9.211   2.427
 5440W        W 8959   2.237   2.175   9.591
 5441W        W 8960   2.686   7.424   0.699
 5442W        W 8961   0.255   1.732   8.914
 5443W        W 8962   5.432   1.470   2.762
 5444W        W 8963   9.226   1.805   1.054
 5445W        W 8964   5.417   1.828   0.312
 5446W        W 8965   6.181   2.323  10.538
 5447W        W 8966   1.517   8.373   9.230
 5448W        W 8967   9.186   6.616   0.728
 5449W        W 8968   9.910   4.813   8.747
 5450W        W 8969   1.851   4.619   9.072
 5451W        W 8970   9.469   2.223   0.274
 5452W        W 8971   0.559   4.615  11.407
 5453W        W 8972   7.769   9.257   1.251
 5454W        W 8973   6.557   1.257  11.033
 5455W        W 8974   0.123   2.890   9.567
 5456W        W 8975   4.739   6.403   8.056
 5457W        W 8976   2.809   6.834  10.248
 5458W        W 8977   3.208   8.756   0.485
 5459W        W 8978   3.650   7.062   2.014
 5460W        W 8979   7.977   4.141   9.683
 5461W        W 8980   2.140   8.309   1.711
 5462W        W 8981   9.402   4.714   3.605
 5463W        W 8982   0.012   3.248   9.904
 5464W        W 8983   2.681   7.164   1.140
 5465W        W 8984   9.996   4.235   0.172
 5466W        W 8985   4.313   5.475  11.801
 5467W        W 8986   8.920   4.629  11.560
 5468W        W 8987   9.671   6.618   3.275
 5469W        W 8988   4.703   3.380   2.415
 5470W        W 8989   2.308   2.780   1.823
 5471W        W 8990   1.882   9.184   0.655
 5472W        W 8991   9.087   1.739  11.361
 5473W        W 8992   5.478   5.952   0.877
 5474W        W 8993   9.896   2.470   0.662
 5475W        W 8994   9.790   5.787   8.616
 5476W        W 8995   9.999   1.132   1.836
 5477W        W 8996   0.329   1.421  10.572
 5478W        W 8997   7.681   7.540  11.630
 5479W        W 8998   2.646   8.462   1.491
 5480W        W 8999   3.953   1.331   2.099
 5481W        W 9000   6.051   8.066  10.218
 5482W        W 9001   1.215   5.124   2.177
 5483W        W 9002   7.088   1.582   9.729
 5484W        W 9003   9.920   4.245   0.767
 5485W        W 9004   1.208   4.044  10.006
 5486W        W 9005   9.882   2.234   2.670
 5487W        W 9006   5.174   5.182   9.571
 5488W        W 9007   6.062   7.941   1.562
 5489W        W 9008   8.115   5.904   0.346
 5490W        W 9009   8.978   0.896   2.065
 5491W        W 9010   4.222   8.603   9.806
 5492W        W 9011   9.493   8.327   3.631
 5493W        W 9012   9.817   1.295  11.992
 5494W        W 9013   2.068   6.561   0.832
 5495W        W 9014   5.568   4.413   8.893
 5496W        W 9015   5.104   0.151  10.065
 5497W        W 9016   9.475   3.591   2.137
 5498W        W 9017   0.877   5.630   1.750
 5499W        W 9018   8.929   7.495   3.200
 5500W        W 9019   5.702   1.839  11.255
 5501W        W 9020   0.797   2.418   1.497
 5502W        W 9021   6.119   5.740   9.556
 5503W        W 9022   5.931   1.422   8.932
 5504W        W 9023   9.847   0.866   2.857
 5505W        W 9024   6.377   3.719   8.754
 5506W        W 9025   9.325   4.336   3.945
 5507W        W 9026   8.829   7.963   9.257
 5508W        W 9027   7.113   0.928   0.294
 5509W        W 9028   3.764   9.486   3.203
 5510W        W 9029   9.933   8.130   8.592
 5511W        W 9030   1.140   7.495   2.497
 5512W        W 9031   5.160   1.893   3.391
 5513W        W 9032   8.463   7.075   3.548
 5514W        W 9033   3.180   4.386  11.529
 5515W        W 9034   4.518   3.825   0.201
 5516W        W 9035   7.497   1.319   1.972
 5517W        W 9036   0.335   5.169   8.797
 5518W        W 9037   7.392   5.703   0.009
 5519W        W 9038   9.031   0.401  11.012
 5520W        W 9039   9.004   5.798   1.487
 5521W        W 9040   3.497   1.969   0.368
 5522W        W 9041   8.348   7.046   0.530
 5523W        W 9042   4.181   7.944  10.497
 5524W        W 9043   0.014   2.223   9.993
 5525W        W 9044   8.114   0.606  10.939
 5526W        W 9045   5.202   8.740   0.802
 5527W        W 9046   7.068   1.655   0.800
 5528W        W 9047   7.927   1.156   1.702
 5529W        W 9048   6.412   4.616  10.355
 5530W        W 9049   6.929   6.330   9.289
 5531W        W 9050   0.214   7.312  10.641
 5532W        W 9051   4.193   7.324   1.451
 5533W        W 9052   9.689   2.875  10.535
 5534W        W 9053   9.760   5.039   3.805
 5535W        W 9054   9.509   5.192  10.950
 5536W        W 9055   5.282   4.419  11.891
 5537W        W 9056   8.363   9.808  11.682
 5538W        W 9057   5.187   9.750   0.831
 5539W        W 9058   0.395   9.907   8.982
 5540W        W 9059   3.763   9.730   8.414
 5541W        W 9060   6.608   4.204   8.529
 5542W        W 9061   1.484   9.364   8.765
 5543W        W 9062   6.096   5.171  11.867
 5544W        W 9063   7.714   1.687  11.146
 5545W        W 9064   7.599   5.386   9.766
 5546W        W 9065   3.487   2.524  11.404
 5547W        W 9066   7.856   8.420   1.330
 5548W        W 9067   6.118   4.230   2.571
 5549W        W 9068   4.151   7.020   1.889
 5550W        W 9069   9.319   3.868   9.792
 5551W        W 9070   5.372   0.282  10.872
 5552W        W 9071   6.648   4.660   2.247
 5553W        W 9072   6.010   8.569   2.650
 5554W        W 9073   2.416   5.742   0.489
 5555W        W 9074   5.794   4.296  11.924
 5556W        W 9075   4.123   0.854  10.066
 5557W        W 9076   3.604   4.638   3.019
 5558W        W 9077   7.511   0.909   8.941
 5559W        W 9078   5.353   8.894   9.535
 5560W        W 9079   1.366   9.877   2.952
 5561W        W 9080   0.114   4.575   9.613
 5562W        W 9081   3.871   6.584   8.331
 5563W        W 9082   2.236   5.226  10.075
 5564W        W 9083   4.383   6.087   1.234
 5565W        W 9084   3.244   7.868   1.424
 5566W        W 9085   6.424   6.332   1.906
 5567W        W 9086   2.423   4.867   0.999
 5568W        W 9087   8.773   5.377   1.658
 5569W        W 9088   7.120   9.719   1.086
 5570W        W 9089   2.381   2.296  10.570
 5571W        W 9090   7.434   8.629   9.094
 5572W        W 9091   2.898   3.182   0.007
 5573W        W 9092   4.383   4.863   0.797
 5574W        W 9093   6.481   0.367  11.763
 5575W        W 9094   3.916   8.531   1.104
 5576W        W 9095   2.447   5.434   3.576
 5577W        W 9096   6.573   8.920   2.012
 5578W        W 9097   1.148   1.289   3.450
 5579W        W 9098   8.735   2.782  10.570
 5580W        W 9099   3.639   4.906   1.254
 5581W        W 9100   7.359   5.186  10.910
 5582W        W 9101   7.425   3.537  11.459
 5583W        W 9102   2.184   3.273   1.817
 5584W        W 9103   3.206   3.676   1.602
 5585W        W 9104   4.353   1.101  11.973
 5586W        W 9105   7.078   7.286  10.440
 5587W        W 9106   0.913   3.461  10.164
 5588W        W 9107   7.964   7.254   3.315
 5589W        W 9108   0.861   2.016   2.950
 5590W        W 9109   4.052   9.389   0.127
 5591W        W 9110   7.615   6.427   9.904
 5592W        W 9111   8.215   5.157  11.023
 5593W        W 9112   4.466   5.387   0.759
 5594W        W 9113   7.913   2.109   9.903
 5595W        W 9114   3.251   5.409   1.892
 5596W        W 9115   4.163   0.459   3.203
 5597W        W 9116   7.658   2.185   3.592
 5598W        W 9117   8.108   0.254   3.090
 5599W        W 9118   7.364   0.327   9.667
 5600W        W 9119   8.832   3.515   1.519
 5601W        W 9120   8.436   1.224   9.046
 5602W        W 9121   4.913   5.637   0.704
 5603W        W 9122   5.768   3.680   1.700
 5604W        W 9123   9.417   3.326  10.585
 5605W        W 9124   6.483   2.628   9.036
 5606W        W 9125   1.438   7.627  10.974
 5607W        W 9126   4.792   4.844  11.077
 5608W        W 9127   4.298   9.051  11.826
 5609W        W 9128   9.449   2.897   2.014
 5610W        W 9129   5.520   5.413   1.520
 5611W        W 9130   2.786   5.688   0.879
 5612W        W 9131   1.152   2.833   9.475
 5613W        W 9132   4.663   5.011  11.536
 5614W        W 9133   5.542   9.313   2.606
 5615W        W 9134   9.001   8.652   9.944
 5616W        W 9135   3.698   1.754  11.861
 5617W        W 9136   6.984   3.895   1.282
 5618W        W 9137   4.671   8.537   3.142
 5619W        W 9138   6.609   1.175   1.287
 5620W        W 9139   5.286   8.352   9.196
 5621W        W 9140   6.079   2.806   9.270
 5622W        W 9141   9.302   6.742   9.245
 5623W        W 9142   3.082   8.479   2.123
 5624W        W 9143   7.063   1.788   2.327
 5625W        W 9144   5.735   7.087  11.502
 5626W        W 9145   5.851   8.660   1.893
 5627W        W 9146   7.596   8.907   0.901
 5628W        W 9147   6.096   8.478   3.455
 5629W        W 9148   5.911   8.458   9.916
 5630W        W 9149   1.726   3.588   9.049
 5631W        W 9150   9.025   1.830   3.092
 5632W        W 9151   1.053   1.949   3.868
 5633W        W 9152   9.034   0.824  11.347
 5634W        W 9153   0.965   3.781  11.805
 5635W        W 9154   7.318   0.384  10.586
 5636W        W 9155   2.332   8.770   1.747
 5637W        W 9156   5.758   6.073   8.708
 5638W        W 9157   1.155   9.794   2.299
 5639W        W 9158   7.280   8.123   9.014
 5640W        W 9159   4.264   7.489   8.663
 5641W        W 9160   9.037   8.971   1.478
 5642W        W 9161   0.272   5.179   1.190
 5643W        W 9162   0.457   9.860  10.065
 5644W        W 9163   5.231   3.532  11.083
 5645W        W 9164   0.860   4.371   2.663
 5646W        W 9165   1.898   2.176  10.438
 5647W        W 9166   7.135   5.150   9.768
 5648W        W 9167   1.363   6.999   3.139
 5649W        W 9168   2.954   4.602   3.866
 5650W        W 9169   5.990   3.686  10.432
 5651W        W 9170   7.431   4.750  10.633
 5652W        W 9171   7.995   3.051  10.786
 5653W        W 9172   1.261   0.887   8.499
 5654W        W 9173   6.740   8.770   9.577
 5655W        W 9174   6.751   7.708  11.885
 5656W        W 9175   3.763   2.353   3.192
 5657W        W 9176   4.040   0.367  10.230
 5658W        W 9177   2.132   2.315   1.806
 5659W        W 9178   1.746   2.244   9.397
 5660W        W 9179   4.728   5.665   3.343
 5661W        W 9180   3.038   0.864   2.308
 5662W        W 9181   6.991   9.079  11.000
 5663W        W 9182   4.929   2.836   1.315
 5664W        W 9183   1.905   6.745   3.926
 5665W        W 9184   3.343   2.719   9.238
 5666W        W 9185   5.043   9.525   0.407
 5667W        W 9186   1.343   1.705   9.798
 5668W        W 9187   4.503   5.020   8.969
 5669W        W 9188   1.606   9.971  11.441
 5670W        W 9189   0.532   4.223   0.293
 5671W        W 9190   7.258   9.251   1.298
 5672W        W 9191   9.817   2.609   9.258
 5673W        W 9192   0.819   5.874   1.305
 5674W        W 9193   1.439   9.428   0.466
 5675W        W 9194   0.142   6.423   0.845
 5676W        W 9195   9.392   8.278   2.986
 5677W        W 9196   3.807   2.887   2.964
 5678W        W 9197   1.125   6.505   1.016
 5679W        W 9198   9.426   8.248   8.804
 5680W        W 9199   3.762   2.793   1.914
 5681W        W 9200   5.446   4.153   0.306
 5682W        W 9201   7.887   8.385   8.983
 5683W        W 9202   9.427   6.686   9.737
 5684W        W 9203   1.710   1.694  10.615
 5685W        W 9204   2.899   4.768   1.156
 5686W        W 9205   0.786   7.606   1.679
 5687W        W 9206   9.555   4.451   2.361
 5688W        W 9207   3.830   4.629   3.478
 5689W        W 9208   8.009   3.732   0.432
 5690W        W 9209   5.198   7.783   0.538
 5691W        W 9210   5.105   7.763   4.420
 5692W        W 9211   5.228   3.765  10.629
 5693W        W 9212   6.211   7.247   2.192
 5694W        W 9213   7.781   0.399   1.548
 5695W        W 9214   0.859   6.182   2.412
 5696W        W 9215   6.823   4.435   0.827
 5697W        W 9216   3.295   4.528   1.409
 5698W        W 9217   9.450   0.125   1.767
 5699W        W 9218   2.692   5.983   9.734
 5700W        W 9219   2.757   4.605   3.374
 5701W        W 9220   9.690   8.876  10.844
 5702W        W 9221   0.845   5.800   9.790
 5703W        W 9222   5.090   5.659  10.655
 5704W        W 9223   5.264   5.682   9.779
 5705W        W 9224   6.663   5.729   0.352
 5706W        W 9225   1.471   4.837  10.459
 5707W        W 9226   6.927   2.589   1.891
 5708W        W 9227   1.104   9.600   1.422
 5709W        W 9228   7.541   0.454   2.388
 5710W        W 9229   1.791   8.591  11.277
 5711W        W 9230   1.411   9.496  11.427
 5712W        W 9231   7.892   0.550   9.028
 5713W        W 9232   1.873   9.609   0.933
 5714W        W 9233   6.075   5.328   2.461
 5715W        W 9234   1.971   0.977   8.460
 5716W        W 9235   1.730   1.750  11.565
 5717W        W 9236   4.298   9.436   3.226
 5718W        W 9237   2.483   1.276  10.445
 5719W        W 9238   3.202   5.179   1.223
 5720W        W 9239   5.962   9.049   2.724
 5721W        W 9240   6.617   6.235   1.434
 5722W        W 9241   1.924   3.083  10.463
 5723W        W 9242   2.254   8.985   9.329
 5724W        W 9243   5.026   9.423   9.098
 5725W        W 9244   6.193   9.821  10.026
 5726W        W 9245   7.121   6.077   2.838
 5727W        W 9246   2.855   4.567   1.667
 5728W        W 9247   6.025   5.055  11.117
 5729W        W 9248   3.238   2.849   1.893
 5730W        W 9249   0.429   6.953   8.702
 5731W        W 9250   7.136   4.002   0.173
 5732W        W 9251   5.151   6.154  11.547
 5733W        W 9252   7.090   8.410   9.411
 5734W        W 9253   9.803   9.796   9.773
 5735W        W 9254   7.546   6.327  11.310
 5736W        W 9255   1.911   0.538   3.345
 5737W        W 9256   8.853   7.526  10.665
 5738W        W 9257   3.234   6.295   0.263
 5739W        W 9258   1.276   6.017   9.085
 5740W        W 9259   5.525   9.414  11.196
 5741W        W 9260   1.552   1.315   9.541
 5742W        W 9261   0.443   6.462   8.514
 5743W        W 9262   9.528   4.021   1.052
 5744W        W 9263   3.318   6.881   1.659
 5745W        W 9264   5.143   3.195   2.961
 5746W        W 9265   5.022   0.442  10.502
 5747W        W 9266   8.321   2.652   3.386
 5748W        W 9267   3.176   6.395  11.332
 5749W        W 9268   3.191   6.034   3.246
 5750W        W 9269   4.987   3.278   8.997
 5751W        W 9270   3.709   4.008   9.537
 5752W        W 9271   7.923   1.057  11.082
 5753W        W 9272   7.002   9.412   8.925
 5754W        W 9273   6.498   0.910   9.612
 5755W        W 9274   8.893   0.832   9.878
 5756W        W 9275   6.139   7.226   9.549
 5757W        W 9276   6.199   1.521   1.330
 5758W        W 9277   8.458   3.981   0.268
 5759W        W 9278   3.484   8.030  10.812
 5760W        W 9279   3.162   6.952   3.102
 5761W        W 9280   1.087   4.046   3.410
 5762W        W 9281   1.731   4.079   2.942
 5763W        W 9282   2.696   5.504  10.492
 5764W        W 9283   1.374   7.907   1.773
 5765W        W 9284   4.630   2.270   0.105
 5766W        W 9285   7.503   1.418   0.986
 5767W        W 9286   3.591   8.357   2.266
 5768W        W 9287   5.480   0.221   2.234
 5769W        W 9288   2.710   8.240   2.519
 5770W        W 9289   7.697   6.817   8.522
 5771W        W 9290   6.819   2.232   3.468
 5772W        W 9291   1.341   8.481  11.491
 5773W        W 9292   2.583   7.581   1.439
 5774W        W 9293   2.741   8.844  10.953
 5775W        W 9294   9.593   5.877   2.108
 5776W        W 9295   5.989   1.373   2.876
 5777W        W 9296   5.908   8.429   1.450
 5778W        W 9297   0.422   6.772   1.305
 5779W        W 9298   3.866   0.163   9.547
 5780W        W 9299   4.319   6.196   2.242
 5781W        W 9300   9.960   6.422   0.251
 5782W        W 9301   4.645   8.385   9.995
 5783W        W 9302   9.022   9.394  11.103
 5784W        W 9303   2.351   3.623   9.816
 5785W        W 9304   3.278   5.506   3.297
 5786W        W 9305   4.624   8.174   9.534
 5787W        W 9306   6.828   5.150   1.346
 5788W        W 9307   4.300   6.005   9.926
 5789W        W 9308   8.336   5.335  11.789
 5790W        W 9309   5.723   8.870  11.573
 5791W        W 9310   2.731   0.934  10.086
 5792W        W 9311   9.173   6.516   8.798
 5793W        W 9312   6.661   6.254   0.366
 5794W        W 9313   6.515   1.621   3.465
 5795W        W 9314   4.208   4.781   0.328
 5796W        W 9315   6.975   8.765   3.382
 5797W        W 9316   6.467   6.071   9.329
 5798W        W 9317   4.883   2.673   3.758
 5799W        W 9318   6.610   8.005   1.512
 5800W        W 9319   0.174   4.635  10.964
 5801W        W 9320   0.312   4.155  10.042
 5802W        W 9321   4.590   1.413  11.058
 5803W        W 9322   3.588   8.577  11.514
 5804W        W 9323   5.608   2.459  11.898
 5805W        W 9324   5.651   6.471   9.026
 5806W        W 9325   5.497   3.923   1.152
 5807W        W 9326   4.859   4.153   2.832
 5808W        W 9327   0.935   0.198   0.502
 5809W        W 9328   4.463   5.944   2.674
 5810W        W 9329   4.493   3.607   1.238
 5811W        W 9330   0.813   9.475  10.162
 5812W        W 9331   9.303   9.768   2.716
 5813W        W 9332   1.445   0.669   9.884
 5814W        W 9333   3.230   9.938  10.280
 5815W        W 9334   9.470   8.425  11.299
 5816W        W 9335   7.050   3.297  10.760
 5817W        W 9336   9.853   6.133   3.354
 5818W        W 9337   8.522   1.824   2.206
 5819W        W 9338   4.200   1.560   0.089
 5820W        W 9339   3.677   7.588   8.929
 5821W        W 9340   1.247   1.680  10.311
 5822W        W 9341   9.250   3.987   2.402
 5823W        W 9342   7.304   5.253   1.205
 5824W        W 9343   5.409   2.741   3.812
 5825W        W 9344   7.142   6.721  11.928
 5826W        W 9345   2.668   9.929   9.466
 5827W        W 9346   4.656   2.593   2.802
 5828W        W 9347   6.939   3.153  11.757
 5829W        W 9348   1.805   3.744   1.269
 5830W        W 9349   0.855   6.235   2.995
 5831W        W 9350   4.125   9.060   1.973
 5832W        W 9351   6.397   0.004   9.149
 5833W        W 9352   9.738   3.759   9.495
 5834W        W 9353   2.587   8.360   1.998
 5835W        W 9354   4.076   8.930  10.183
 5836W        W 9355   4.183   6.928   2.789
 5837W        W 9356   3.166   4.203  10.971
 5838W        W 9357   0.400   3.134   1.643
 5839W        W 9358   1.773   8.155   3.908
 5840W        W 9359   1.030   2.948  10.039
 5841W        W 9360   7.049   3.219  11.252
 5842W        W 9361   0.894   6.016   0.346
 5843W        W 9362   3.150   3.849   0.399
 5844W        W 9363   0.952   1.115  11.261
 5845W        W 9364   0.863   7.062  10.889
 5846W        W 9365   6.696   6.991  11.311
 5847W        W 9366   6.521   3.350  11.426
 5848W        W 9367   3.448   2.580   2.263
 5849W        W 9368   9.016   4.447   3.011
 5850W        W 9369   8.462   7.401  10.988
 5851W        W 9370   8.269   8.846  11.020
 5852W        W 9371   0.183   8.925  10.830
 5853W        W 9372   4.768   3.488  11.280
 5854W        W 9373   3.759   7.083   9.918
 5855W        W 9374   3.790   5.955  11.266
 5856W        W 9375   5.685   5.938  11.598
 5857W        W 9376   1.231   8.863  11.813
 5858W        W 9377   1.265   1.908  11.493
 5859W        W 9378   2.822   7.092   9.766
 5860W        W 9379   4.666   4.133   3.709
 5861W        W 9380   6.069   9.481   2.490
 5862W        W 9381   8.945   4.114  11.561
 5863W        W 9382   3.471   2.753   9.797
 5864W        W 9383   7.917   3.600   3.314
 5865W        W 9384   0.957   7.657   9.572
 5866W        W 9385   4.743   1.936  10.313
 5867W        W 9386   8.666   6.737   2.867
 5868W        W 9387   3.105   0.635   1.412
 5869W        W 9388   4.574   2.850   9.849
 5870W        W 9389   5.039   0.670  10.031
 5871W        W 9390   7.377   6.774  11.104
 5872W        W 9391   4.454   8.253   1.857
 5873W        W 9392   9.915   6.651  11.755
 5874W        W 9393   1.343   1.708   8.805
 5875W        W 9394   4.240   6.528   8.678
 5876W        W 9395   9.107   3.960   3.657
 5877W        W 9396   2.791   2.648   1.798
 5878W        W 9397   0.835   2.522   2.974
 5879W        W 9398   6.005   3.244   2.923
 5880W        W 9399   6.905   6.853   8.943
 5881W        W 9400   9.833   5.964   9.468
 5882W        W 9401   7.409   8.032   9.989
 5883W        W 9402   9.967   1.965   3.680
 5884W        W 9403   0.301   7.427  10.148
 5885W        W 9404   4.662   6.212  11.299
 5886W        W 9405   4.131   3.577   0.848
 5887W        W 9406   3.100   0.382  10.636
 5888W        W 9407   6.809   1.272   9.414
 5889W        W 9408   5.289   2.346   3.540
 5890W        W 9409   5.587   4.734   0.156
 5891W        W 9410   1.854   0.016  10.151
 5892W        W 9411   5.102   4.595   2.589
 5893W        W 9412   7.334   2.667   9.072
 5894W        W 9413   2.872   0.434   3.006
 5895W        W 9414   0.314   8.940   2.364
 5896W        W 9415   7.926   6.907   1.281
 5897W        W 9416   0.862   1.387   2.209
 5898W        W 9417   0.918   8.467  11.787
 5899W        W 9418   7.295   1.193  11.524
 5900W        W 9419   9.074   6.553  10.335
 5901W        W 9420   2.659   9.734   2.338
 5902W        W 9421   2.652   3.124   1.978
 5903W        W 9422   7.165   5.659   9.917
 5904W        W 9423   3.883   4.737   0.805
 5905W        W 9424   2.383   0.639   9.807
 5906W        W 9425   0.392   0.888   9.326
 5907W        W 9426   0.867   1.232   1.300
 5908W        W 9427   4.010   9.453   9.491
 5909W        W 9428   7.547   8.121   0.296
 5910W        W 9429   2.390   5.120  11.097
 5911W        W 9430   0.243   0.656   8.167
 5912W        W 9431   9.857   2.730  10.036
 5913W        W 9432   6.455   5.508   1.809
 5914W        W 9433   5.019   1.532   9.341
 5915W        W 9434   1.343   0.491   0.572
 5916W        W 9435   0.011   1.626   9.365
 5917W        W 9436   0.557   6.537   9.012
 5918W        W 9437   5.138   4.813  11.573
 5919W        W 9438   7.208   4.857   1.513
 5920W        W 9439   6.456   8.620   8.604
 5921W        W 9440   8.143   2.370   9.529
 5922W        W 9441   1.634   7.128  10.383
 5923W        W 9442   6.250   9.459   2.011
 5924W        W 9443   3.123   8.953   8.726
 5925W        W 9444   5.578   8.062   1.324
 5926W        W 9445   5.781   4.148   0.776
 5927W        W 9446   2.772   9.569   2.818
 5928W        W 9447   1.246   5.973   1.561
 5929W        W 9448   1.849   3.320   0.926
 5930W        W 9449   8.574   6.265   2.945
 5931W        W 9450   3.420   5.261   9.985
 5932W        W 9451   8.908   6.146   9.023
 5933W        W 9452   8.108   4.644   9.215
 5934W        W 9453   8.846   2.749   0.195
 5935W        W 9454   6.250   2.137   3.593
 5936W        W 9455   0.526   5.180  10.171
 5937W        W 9456   3.605   8.720   8.580
 5938W        W 9457   5.539   5.363   2.169
 5939W        W 9458   1.619   4.264   3.422
 5940W        W 9459   9.542   6.994   0.799
 5941W        W 9460   1.366   9.487   0.990
 5942W        W 9461   7.600   5.615   0.956
 5943W        W 9462   0.868   3.282   1.403
 5944W        W 9463   9.208   9.631   3.413
 5945W        W 9464   1.270   6.960   2.650
 5946W        W 9465   3.058   4.190   3.288
 5947W        W 9466   3.561   2.965   8.807
 5948W        W 9467   5.257   1.259   1.463
 5949W        W 9468   4.434   0.246   0.369
 5950W        W 9469   2.245   5.639   3.067
 5951W        W 9470   9.016   8.378   3.304
 5952W        W 9471   6.197   9.122  11.680
 5953W        W 9472   7.128   8.719   1.966
 5954W        W 9473   1.397   4.705   1.923
 5955W        W 9474   3.290   7.095  11.898
 5956W        W 9475   5.974   2.264  10.020
 5957W        W 9476   3.081   7.401   1.361
 5958W        W 9477   1.808   6.522   0.399
 5959W        W 9478   4.198   2.129   3.377
 5960W        W 9479   1.073   0.749   1.425
 5961W        W 9480   8.289   0.643  11.975
 5962W        W 9481   4.022   5.062  11.869
 5963W        W 9482   2.690   5.538   9.451
 5964W        W 9483   4.735   4.462   0.747
 5965W        W 9484   5.697   6.270   1.650
 5966W        W 9485   7.499   0.986   2.848
 5967W        W 9486   1.610   7.464   8.811
 5968W        W 9487   1.889   9.131  11.292
 5969W        W 9488   8.475   8.022   0.556
 5970W        W 9489   3.703   6.121   3.372
 5971W        W 9490   6.670   2.861   0.635
 5972W        W 9491   5.650   2.646   2.392
 5973W        W 9492   4.401   2.748   8.996
 5974W        W 9493   6.600   8.345   3.453
 5975W        W 9494   4.171   6.630   0.045
 5976W        W 9495   3.233   5.674   8.784
 5977W        W 9496   2.600   1.782   9.612
 5978W        W 9497   0.373   2.225   2.863
 5979W        W 9498   5.142   1.936   9.031
 5980W        W 9499   1.864   7.566  10.266
 5981W        W 9500   9.989   1.602   2.152
 5982W        W 9501   3.297   9.893   8.746
 5983W        W 9502   5.879   4.157   9.577
 5984W        W 9503   2.070   6.413   3.549
 5985W        W 9504   5.326   1.517   1.936
 5986W        W 9505   4.595   1.806  11.858
 5987W        W 9506   8.609   0.863   9.380
 5988W        W 9507   0.641   9.122  10.993
 5989W        W 9508   2.740   2.162  10.937
 5990W        W 9509   9.162   4.824  10.740
 5991W        W 9510   5.015   7.864  10.642
 5992W        W 9511   9.420   5.522  10.541
 5993W        W 9512   0.726   3.089  10.453
 5994W        W 9513   5.580   1.688   9.210
 5995W        W 9514   3.222   8.601  11.124
 5996W        W 9515   1.489   5.033  10.930
 5997W        W 9516   9.764   6.142  11.842
 5998W        W 9517   4.893   7.170   3.645
 5999W        W 9518   7.994   0.495   3.586
 6000W        W 9519   3.323   4.301  10.447
 6001W        W 9520   4.474   3.094   8.613
 6002W        W 9521   6.398   9.504  11.975
 6003W        W 9522   2.732   2.255   9.793
 6004W        W 9523   3.111   7.562   2.372
 6005W        W 9524   5.155   8.506  11.816
 6006W        W 9525   9.810   8.862  11.332
 6007W        W 9526   7.641   3.997  11.341
 6008W        W 9527   4.492   4.133  10.195
 6009W        W 9528   6.974   8.298   9.911
 6010W        W 9529   9.777   3.425   1.092
 6011W        W 9530   3.700   9.807   2.812
 6012W        W 9531   8.856   3.818  10.443
 6013W        W 9532   0.038   5.029   3.395
 6014W        W 9533   4.840   9.027   3.124
 6015W        W 9534   8.974   0.346  11.528
 6016W        W 9535   2.673   2.942   9.941
 6017W        W 9536   9.077   3.039  10.887
 6018W        W 9537   9.359   2.294   2.727
 6019W        W 9538   1.423   1.016   3.765
 6020W        W 9539   0.374   8.873   1.879
 6021W        W 9540   9.382   2.258   2.215
 6022W        W 9541   3.671   0.727   8.778
 6023W        W 9542   0.421   2.669   8.668
 6024W        W 9543   8.793   0.694   1.215
 6025W        W 9544   6.212   7.113   1.706
 6026W        W 9545   6.472   2.850   1.840
 6027W        W 9546   8.292   0.537   9.621
 6028W        W 9547   7.184   9.959   0.453
 6029W        W 9548   4.948   2.276  11.306
 6030W        W 9549   4.076   5.287  10.462
 6031W        W 9550   5.313   8.220   3.701
 6032W        W 9551   7.972   6.084   2.527
 6033W        W 9552   9.724   6.648   1.863
 6034W        W 9553   7.854   8.617  10.774
 6035W        W 9554   5.673   6.181   0.442
 6036W        W 9555   5.045   1.713  10.910
 6037W        W 9556   7.075   2.817   2.418
 6038W        W 9557   9.764   4.338  11.233
 6039W        W 9558   7.944   5.800   3.446
 6040W        W 9559   6.762   6.418   2.283
 6041W        W 9560   2.592   8.173   9.902
 6042W        W 9561   4.288   5.482   1.412
 6043W        W 9562   4.329   6.500   3.922
 6044W        W 9563   3.787   1.606  10.434
 6045W        W 9564   3.119   7.130   2.079
 6046W        W 9565   2.577   7.867   8.934
 6047W        W 9566   4.726   8.481   0.865
 6048W        W 9567   2.952   1.619   0.927
 6049W        W 9568   4.067   3.241   0.381
 6050W        W 9569   3.526   2.311   1.829
 6051W        W 9570   0.259   8.598   1.027
 6052W        W 9571   1.219   8.025   0.294
 6053W        W 9572   4.540   4.521  11.418
 6054W        W 9573   2.099   2.878   0.956
 6055W        W 9574   9.964   5.908   2.885
 6056W        W 9575   0.861   4.518  10.396
 6057W        W 9576   4.999   4.217   9.418
 6058W        W 9577   3.289   8.845   1.797
 6059W        W 9578   0.410   8.154   1.223
 6060W        W 9579   2.180   5.903   1.458
 6061W        W 9580   0.936   1.604   9.449
 6062W        W 9581   1.417   2.157   8.561
 6063W        W 9582   4.439   8.716   9.341
 6064W        W 9583   5.617   3.187   3.739
 6065W        W 9584   0.800   8.773   9.651
 6066W        W 9585   0.790   8.298   9.789
 6067W        W 9586   8.712   8.960  11.785
 6068W        W 9587   0.372   3.671   3.078
 6069W        W 9588   4.680   3.787   4.087
 6070W        W 9589   5.662   2.632   8.502
 6071W        W 9590   0.532   9.858   0.442
 6072W        W 9591   2.413   1.733   1.631
 6073W        W 9592   6.503   5.597   8.726
 6074W        W 9593   0.040   4.400   2.192
 6075W        W 9594   0.341   8.082   9.800
 6076W        W 9595   6.923   3.082   1.974
 6077W        W 9596   3.059   7.992   9.674
 6078W        W 9597   8.081   0.898   0.360
 6079W        W 9598   7.093   0.281  10.113
 6080W        W 9599   5.589   3.524   2.722
 6081W        W 9600   7.821   2.828   0.740
 6082W        W 9601   2.239   6.204   9.589
 6083W        W 9602   6.672   3.036   9.788
 6084W        W 9603   5.697   3.173   1.565
 6085W        W 9604   0.564   4.353   2.222
 6086W        W 9605   6.543   7.348  10.368
 6087W        W 9606   0.300   5.060   9.713
 6088W        W 9607   9.834   2.609   0.180
 6089W        W 9608   3.746   4.979   9.676
 6090W        W 9609   7.771   2.673   1.690
 6091W        W 9610   3.282   7.807   3.369
 6092W        W 9611   9.138   1.318   1.816
 6093W        W 9612   8.016   7.391   2.220
 6094W        W 9613   9.348   1.082   9.808
 6095W        W 9614   7.928   1.842  10.705
 6096W        W 9615   5.240   2.849   9.213
 6097W        W 9616   3.151   0.468   1.955
 6098W        W 9617   1.489   0.884   3.269
 6099W        W 9618   1.340   9.382   3.196
 6100W        W 9619   5.092   3.686   2.721
 6101W        W 9620   5.706   9.905   0.051
 6102W        W 9621   1.374   1.738   2.092
 6103W        W 9622   6.694   5.485   9.772
 6104W        W 9623   3.755   1.848   3.323
 6105W        W 9624   9.809   5.307   8.784
 6106W        W 9625   2.377   2.190   3.006
 6107W        W 9626   6.602   7.557   2.254
 6108W        W 9627   2.132   8.198  11.176
 6109W        W 9628   5.978   5.816  11.211
 6110W        W 9629   8.100   8.939  11.892
 6111W        W 9630   2.770   9.868   1.841
 6112W        W 9631   0.108   7.388   9.355
 6113W        W 9632   1.887   8.507   8.896
 6114W        W 9633   3.602   1.388   1.666
 6115W        W 9634   0.216   3.804   0.324
 6116W        W 9635   2.573   4.150   3.128
 6117W        W 9636   4.810   4.545   8.311
 6118W        W 9637   1.803   6.679   1.303
 6119W        W 9638   1.510   1.329   0.266
 6120W        W 9639   8.125   2.331   1.349
 6121W        W 9640   6.171   9.041   8.916
 6122W        W 9641   6.730   3.740   1.936
 6123W        W 9642   3.790   5.479   0.679
 6124W        W 9643   5.160   9.625  10.101
 6125W        W 9644   1.484   6.229  10.590
 6126W        W 9645   4.461   8.069   3.195
 6127W        W 9646   0.445   5.069  11.229
 6128W        W 9647   7.955   9.974   3.722
 6129W        W 9648   6.919   3.642  11.512
 6130W        W 9649   6.290   4.179  11.994
 6131W        W 9650   7.994   4.307   1.058
 6132W        W 9651   5.932   1.278  11.278
 6133W        W 9652   4.783   6.388   2.803
 6134W        W 9653   5.629   8.917   1.434
 6135W        W 9654   0.423   6.658   0.457
 6136W        W 9655   1.159   6.580   2.318
 6137W        W 9656   9.605   1.852   2.411
 6138W        W 9657   7.345   6.097   0.757
 6139W        W 9658   3.978   1.084  10.522
 6140W        W 9659   0.876   5.594   9.297
 6141W        W 9660   9.989   1.986   3.154
 6142W        W 9661   0.553   5.091   9.260
 6143W        W 9662   1.724   3.285  11.870
 6144W        W 9663   5.192   5.601   9.277
 6145W        W 9664   5.982   3.641   3.672
 6146W        W 9665   8.816   5.320   3.096
 6147W        W 9666   1.852   4.552   0.425
 6148W        W 9667   2.583   8.756  11.808
 6149W        W 9668   6.665   0.251   3.131
 6150W        W 9669   7.424   3.578  10.497
 6151W        W 9670   9.402   2.763   3.265
 6152W        W 9671   8.893   3.500  10.926
 6153W        W 9672   1.700   8.073  11.508
 6154W        W 9673   7.552   0.334   2.882
 6155W        W 9674   6.503   8.685   9.127
 6156W        W 9675   1.086   9.077   1.200
 6157W        W 9676   9.973   4.308   8.825
 6158W        W 9677   8.010   6.670  11.395
 6159W        W 9678   0.435   5.007  11.771
 6160W        W 9679   1.876   4.616   2.248
 6161W        W 9680   9.971   2.866   8.844
 6162W        W 9681   0.569   0.881  10.458
 6163W        W 9682   4.584   9.762   2.073
 6164W        W 9683   6.277   1.347  10.247
 6165W        W 9684   9.327   2.637   0.024
 6166W        W 9685   1.067   9.873  11.568
 6167W        W 9686   6.453   0.313   1.630
 6168W        W 9687   6.488   5.155  10.336
 6169W        W 9688   9.489   3.641   2.686
 6170W        W 9689   6.424   2.969   3.039
 6171W        W 9690   6.963   1.161   0.765
 6172W        W 9691   6.654   6.035  10.636
 6173W        W 9692   3.085   4.630   2.945
 6174W        W 9693   2.628   9.947   0.228
 6175W        W 9694   1.955   7.831   0.992
 6176W        W 9695   1.235   9.935  11.076
 6177W        W 9696   9.372   7.479   0.806
 6178W        W 9697   3.291   0.727   2.768
 6179W        W 9698   1.891   1.011   1.747
 6180W        W 9699   7.124   3.231  10.253
 6181W        W 9700   8.892   2.642  11.169
 6182W        W 9701   4.472   0.361   1.435
 6183W        W 9702   7.075   4.161  10.324
 6184W        W 9703   5.044   8.379   2.449
 6185W        W 9704   3.509   7.376   1.638
 6186W        W 9705   0.393   6.849  10.814
 6187W        W 9706   4.984   7.380   1.873
 6188W        W 9707   1.759   6.155   9.366
 6189W        W 9708   3.232   6.291   7.980
 6190W        W 9709   0.458   0.950  10.953
 6191W        W 9710   1.918   1.675  11.091
 6192W        W 9711   9.558   9.515   2.358
 6193W        W 9712   9.605   9.357   9.168
 6194W        W 9713   9.313   3.135  11.488
 6195W        W 9714   7.307   5.152   1.913
 6196W        W 9715   3.550   3.572  10.233
 6197W        W 9716   0.794   2.186   1.051
 6198W        W 9717   8.895   5.170   2.182
 6199W        W 9718   7.539   7.226  10.807
 6200W        W 9719   3.418   5.483   4.115
 6201W        W 9720   8.606   5.428   8.990
 6202W        W 9721   4.720   6.376  11.804
 6203W        W 9722   2.039   5.011   1.365
 6204W        W 9723   4.596   9.725   8.969
 6205W        W 9724   7.073   3.661   2.785
 6206W        W 9725   4.595   0.637   9.312
 6207W        W 9726   1.353   1.110  11.825
 6208W        W 9727   7.328   0.641   8.537
 6209W        W 9728   1.809   1.344   9.985
 6210W        W 9729   8.539   9.319  10.952
 6211W        W 9730   2.191   1.748  10.419
 6212W        W 9731   8.535   7.105   9.159
 6213W        W 9732   8.455   3.594  10.685
 6214W        W 9733   2.302   9.329   8.945
 6215W        W 9734   2.662   2.490   1.300
 6216W        W 9735   1.664   3.758   3.319
 6217W        W 9736   4.697   7.821   2.812
 6218W        W 9737   5.172   7.953   1.588
 6219W        W 9738   3.335   3.063  11.772
 6220W        W 9739   5.660   1.026   2.592
 6221W        W 9740   3.713   7.853   3.027
 6222W        W 9741   1.798   6.189   2.231
 6223W        W 9742   7.800   2.201  11.198
 6224W        W 9743   4.538   0.070   9.379
 6225W        W 9744   3.577   3.332  11.367
 6226W        W 9745   8.267   8.021   3.515
 6227W        W 9746   1.574   7.746   3.090
 6228W        W 9747   3.452   7.119   9.065
 6229W        W 9748   0.868   0.286   1.421
 6230W        W 9749   5.717   5.054   9.648
 6231W        W 9750   8.020   8.879   9.024
 6232W        W 9751   5.173   4.181   8.417
 6233W        W 9752   6.145   7.263   9.034
 6234W        W 9753   3.110   2.325   1.509
 6235W        W 9754   7.174   1.444   0.347
 6236W        W 9755   2.899   6.618   1.856
 6237W        W 9756   7.929   0.688   2.864
 6238W        W 9757   4.821   5.701   3.887
 6239W        W 9758   2.322   3.034   1.389
 6240W        W 9759   5.461   4.024   2.029
 6241W        W 9760   8.468   7.541  10.352
 6242W        W 9761   7.526   7.583   3.258
 6243W        W 9762   2.698   6.042   3.100
 6244W        W 9763   4.584   0.826   9.814
 6245W        W 9764   5.245   9.803  11.827
 6246W        W 9765   0.382   6.974   9.234
 6247W        W 9766   6.472   3.687   1.217
 6248W        W 9767   6.164   4.966   3.396
 6249W        W 9768   6.599   4.041  10.166
 6250W        W 9769   5.658   8.842   2.364
 6251W        W 9770   0.706   1.715   0.822
 6252W        W 9771   2.532   0.366  10.791
 6253W        W 9772   4.872   3.269   1.022
 6254W        W 9773   0.867   4.852  10.001
 6255W        W 9774   3.150   8.388   1.623
 6256W        W 9775   0.825   3.187   9.163
 6257W        W 9776   6.161   4.544   2.167
 6258W        W 9777   5.665   0.939   8.453
 6259W        W 9778   9.396   4.365   9.888
 6260W        W 9779   1.908   0.940   3.661
 6261W        W 9780   4.704   8.748   3.584
 6262W        W 9781   9.984   8.465   0.059
 6263W        W 9782   7.602   5.840  11.562
 6264W        W 9783   2.547   1.736   0.611
 6265W        W 9784   6.936   2.810   9.390
 6266W        W 9785   9.448   8.705   3.282
 6267W        W 9786   9.906   4.396   2.736
 6268W        W 9787   1.014   8.320   3.663
 6269W        W 9788   0.424   5.658  10.025
 6270W        W 9789   4.833   7.225   9.600
 6271W        W 9790   9.340   1.451   3.201
 6272W        W 9791   2.522   4.234  10.882
 6273W        W 9792   9.443   6.058   3.073
 6274W        W 9793   4.146   2.271   9.723
 6275W        W 9794   3.525   5.045  11.951
 6276W        W 9795   3.153   6.555   2.760
 6277W        W 9796   3.563   5.985   4.137
 6278W        W 9797   0.355   8.597   9.845
 6279W        W 9798   3.149   9.399  11.519
 6280W        W 9799   4.548   3.817   3.324
 6281W        W 9800   9.251   9.435   1.422
 6282W        W 9801   8.256   1.015  10.686
 6283W        W 9802   0.379   8.727  11.672
 6284W        W 9803   3.241   6.110  10.551
 6285W        W 9804   4.082   5.096   2.100
 6286W        W 9805   7.392   5.912  11.070
 6287W        W 9806   7.922   2.824   0.238
 6288W        W 9807   7.258   9.210   1.819
 6289W        W 9808   1.866   6.940  10.817
 6290W        W 9809   4.229   1.899  10.427
 6291W        W 9810   6.486   3.231   0.320
 6292W        W 9811   8.177   9.918   0.576
 6293W        W 9812   1.728   0.868   0.333
 6294W        W 9813   9.523   0.984   1.933
 6295W        W 9814   5.511   9.546   9.301
 6296W        W 9815   4.547   7.594  10.492
 6297W        W 9816   0.452   7.956   1.898
 6298W        W 9817   5.943   6.189   2.089
 6299W        W 9818   6.616   0.704   2.860
 6300W        W 9819   2.252   9.856  10.480
 6301W        W 9820   3.170   5.533  11.278
 6302W        W 9821   7.649   2.189   9.463
 6303W        W 9822   9.661   4.101   1.920
 6304W        W 9823   3.161   8.460   8.517
 6305W        W 9824   7.267   3.543   8.725
 6306W        W 9825   8.369   5.162   1.428
 6307W        W 9826   8.303   9.810   8.843
 6308W        W 9827   1.382   3.171   1.127
 6309W        W 9828   5.574   7.387   9.216
 6310W        W 9829   7.772   3.292   0.341
 6311W        W 9830   3.152   4.084  11.953
 6312W        W 9831   6.342   5.061   2.084
 6313W        W 9832   8.283   9.373   1.228
 6314W        W 9833   8.295   8.910   9.451
 6315W        W 9834   9.880   1.261   2.522
 6316W        W 9835   7.171   3.089   9.757
 6317W        W 9836   7.912   1.095   3.195
 6318W        W 9837   1.856   9.517  11.671
 6319W        W 9838   2.084   8.312   9.898
 6320W        W 9839   5.086   4.191   8.910
 6321W        W 9840   4.233   1.591   0.784
 6322W        W 9841   2.657   5.098  11.752
 6323W        W 9842   1.691   2.154   0.514
 6324W        W 9843   0.861   4.678   1.900
 6325W        W 9844   7.403   9.489   8.615
 6326W        W 9845   9.313   1.631  10.425
 6327W        W 9846   8.289   0.475   1.289
 6328W        W 9847   1.190   2.633  11.854
 6329W        W 9848   9.070   1.904   9.296
 6330W        W 9849   1.620   2.445   3.545
 6331W        W 9850   2.743   3.435  10.087
 6332W        W 9851   3.442   5.889   1.893
 6333W        W 9852   8.906   7.829  10.280
 6334W        W 9853   6.033   2.187   8.450
 6335W        W 9854   7.200   1.775  11.100
 6336W        W 9855   6.844   9.553   2.687
 6337W        W 9856   5.580   8.398  10.808
 6338W        W 9857   2.902   1.387   0.456
 6339W        W 9858   5.210   9.746  10.954
 6340W        W 9859   0.270   8.521   8.577
 6341W        W 9860   4.355   9.723   2.782
 6342W        W 9861   3.518   9.662   2.353
 6343W        W 9862   0.146   3.792  11.416
 6344W        W 9863   8.863   6.974   2.190
 6345W        W 9864   4.168   1.288   9.751
 6346W        W 9865   7.401   6.649   3.434
 6347W        W 9866   1.288   1.921   0.323
 6348W        W 9867   6.580   9.490   9.950
 6349W        W 9868   4.965   2.222   9.860
 6350W        W 9869   4.874   6.066   8.998
 6351W        W 9870   7.522   0.439   1.095
 6352W        W 9871   8.774   0.872   3.068
 6353W        W 9872   8.069   6.655   1.712
 6354W        W 9873   1.412   9.261   9.277
 6355W        W 9874   1.654   5.738  10.424
 6356W        W 9875   6.846   6.078   3.254
 6357W        W 9876   2.985   5.258   8.557
 6358W        W 9877   6.525   3.155  10.946
 6359W        W 9878   5.515   0.200  10.376
 6360W        W 9879   1.256   3.368   2.704
 6361W        W 9880   5.119   2.060   0.682
 6362W        W 9881   3.242   6.788   0.296
 6363W        W 9882   1.731   3.795   1.800
 6364W        W 9883   0.357   5.683   1.233
 6365W        W 9884   4.550   1.022  10.291
 6366W        W 9885   7.372   5.207   0.692
 6367W        W 9886   1.103   3.622   1.056
 6368W        W 9887   3.432   8.485   0.874
 6369W        W 9888   4.361   2.564   3.591
 6370W        W 9889   2.257   0.837  10.264
 6371W        W 9890   3.077   7.987  10.524
 6372W        W 9891   9.855   8.657   0.526
 6373W        W 9892   2.860   6.746  11.924
 6374W        W 9893   6.160   0.556   9.834
 6375W        W 9894   8.754   0.875  10.853
 6376W        W 9895   8.085   2.499   2.049
 6377W        W 9896   2.523   0.159  11.778
 6378W        W 9897   9.724   2.572   1.268
 6379W        W 9898   2.922   6.957   0.725
 6380W        W 9899   2.282   1.681   3.055
 6381W        W 9900   8.983   3.457   9.593
 6382W        W 9901   0.661   6.361   3.474
 6383W        W 9902   6.045   9.239   0.765
 6384W        W 9903   6.464   9.369  10.879
 6385W        W 9904   5.215   4.087   3.796
 6386W        W 9905   0.027   2.330   8.863
 6387W        W 9906   4.032   8.286   3.016
 6388W        W 9907   0.274   6.711   2.591
 6389W        W 9908   2.181   5.350   0.240
 6390W        W 9909   4.891   6.692  11.456
 6391W        W 9910   0.025   1.384   1.369
 6392W        W 9911   8.007   3.307   0.811
 6393W        W 9912   5.540   1.191  10.121
 6394W        W 9913   8.412   5.997  10.762
 6395W        W 9914   8.595   5.004  11.381
 6396W        W 9915   6.984   6.406  10.510
 6397W        W 9916   8.097   7.707   0.810
 6398W        W 9917   4.797   4.594  11.901
 6399W        W 9918   4.055   1.343   9.263
 6400W        W 9919   7.366   2.357   1.777
 6401W        W 9920   2.433   7.857   0.825
 6402W        W 9921   5.107   2.381   9.356
 6403W        W 9922   8.098   0.904   9.325
 6404W        W 9923   7.148   0.847  11.171
 6405W        W 9924   1.751   0.560   2.864
 6406W        W 9925   0.854   1.711   3.416
 6407W        W 9926   6.611   8.599  11.896
 6408W        W 9927   9.331   8.942   9.436
 6409W        W 9928   3.012   0.221  11.975
 6410W        W 9929   1.556   6.587   1.969
 6411W        W 9930   7.580   1.625   9.459
 6412W        W 9931   1.165   5.039   2.694
 6413W        W 9932   8.688   6.673   0.620
 6414W        W 9933   2.333   2.800  10.443
 6415W        W 9934   9.196   2.892  10.390
 6416W        W 9935   0.945   6.867   1.390
 6417W        W 9936   5.794   0.810  11.437
 6418W        W 9937   4.022   0.753   0.929
 6419W        W 9938   7.417   8.956   2.327
 6420W        W 9939   3.181   9.380   0.018
 6421W        W 9940   1.616   6.268  11.722
 6422W        W 9941   3.116   3.721   9.286
 6423W        W 9942   6.887   6.628  10.984
 6424W        W 9943   2.327   2.493   0.011
 6425W        W 9944   9.778   4.634   9.224
 6426W        W 9945   2.424   8.697  10.055
 6427W        W 9946   4.504   4.350   0.267
 6428W        W 9947   1.273   3.781   2.996
 6429W        W 9948   9.404   2.141  11.175
 6430W        W 9949   5.978   2.978   0.265
 6431W        W 9950   5.634   5.777  10.791
 6432W        W 9951   0.750   3.149  10.996
 6433W        W 9952   2.731   9.679   0.650
 6434W        W 9953   8.384   4.416   8.840
 6435W        W 9954   7.617   6.089  10.397
 6436W        W 9955   0.730   8.598  10.202
 6437W        W 9956   3.159   2.662   2.779
 6438W        W 9957   9.408   0.159  11.331
 6439W        W 9958   2.699   9.416   0.211
 6440W        W 9959   8.251   1.703   8.936
 6441W        W 9960   5.995   3.192  11.010
 6442W        W 9961   9.518   5.750   0.239
 6443W        W 9962   0.006   0.490   3.217
 6444W        W 9963   7.589   1.895   2.478
 6445W        W 9964   8.162   3.216  11.973
 6446W        W 9965   1.613   8.432   9.722
 6447W        W 9966   7.982   1.616   9.829
 6448W        W 9967   1.152   5.827  10.458
 6449W        W 9968   8.420   5.535  10.297
 6450W        W 9969   8.316   5.858  11.844
 6451W        W 9970   9.593   2.416  10.353
 6452W        W 9971   4.657   0.167   3.228
 6453W        W 9972   8.614   5.604   2.115
 6454W        W 9973   8.899   0.443   2.329
 6455W        W 9974   2.891   1.854   1.398
 6456W        W 9975   1.937   3.216   0.371
 6457W        W 9976   3.176   7.452   9.741
 6458W        W 9977   2.102   2.943  11.957
 6459W        W 9978   4.026   4.352   8.070
 6460W        W 9979   5.747   2.019   3.567
 6461W        W 9980   9.556   3.138  10.117
 6462W        W 9981   8.784   1.307  11.573
 6463W        W 9982   0.386   6.203   1.245
 6464W        W 9983   1.224   7.570   0.506
 6465W        W 9984   0.969   6.286  10.583
 6466W        W 9985   8.054   4.389   1.539
 6467W        W 9986   2.413   1.211   2.921
 6468W        W 9987   0.904   1.633  11.244
 6469W        W 9988   0.035   8.194   2.764
 6470W        W 9989   1.504   4.980   0.658
 6471W        W 9990   3.499   9.344   2.757
 6472W        W 9991   7.408   2.315   2.743
 6473W        W 9992   1.550   4.224   2.056
 6474W        W 9993   3.577   7.565   1.145
 6475W        W 9994   9.121   5.018   0.238
 6476W        W 9995   6.916   0.908  10.734
 6477W        W 9996   4.244   9.845   9.739
 6478W        W 9997   3.704   1.811  10.896
 6479W        W 9998   0.761   6.658   9.451
 6480W        W 9999   6.516   9.414   9.079
 6481W        W10000   2.606   4.987  10.304
 6482W        W10001   5.701   5.783   1.817
 6483W        W10002   2.828   8.380   8.881
 6484W        W10003   4.234   7.085   0.989
 6485W        W10004   6.470   2.341   1.889
 6486W        W10005   8.288   8.006   9.136
 6487W        W10006   5.958   2.178  11.528
 6488W        W10007   8.323   4.065   2.776
 6489W        W10008   5.222   7.460   1.403
 6490W        W10009   3.106   5.677   2.307
 6491W        W10010   1.833   7.176   3.293
 6492W        W10011   9.376   9.624   1.883
 6493W        W10012   5.215   6.932   1.925
 6494W        W10013   0.217   5.394   0.038
 6495W        W10014   8.561   0.685   0.418
 6496W        W10015   0.106   5.015   1.747
 6497W        W10016   7.820   1.486   8.656
 6498W        W10017   7.161   8.160   0.705
 6499W        W10018   9.190   6.209   1.231
 6500W        W10019   0.360   8.419   3.631
 6501W        W10020   8.129   7.825  10.058
 6502W        W10021   2.365   7.516   9.366
 6503W        W10022   3.233   5.192   8.981
 6504W        W10023   5.990   7.672   9.317
 6505W        W10024   2.931   8.896  11.435
 6506W        W10025   2.984   5.138   0.758
 6507W        W10026   5.111   0.692   0.904
 6508W        W10027   2.269   3.969  11.984
 6509W        W10028   5.637   4.974   0.863
 6510W        W10029   0.902   9.487  10.681
 6511W        W10030   7.493   1.242   3.511
 6512W        W10031   2.305   4.346   9.105
 6513W        W10032   5.012   9.917  10.502
 6514W        W10033   9.855   7.678  10.303
 6515W        W10034   5.814   1.545   0.112
 6516W        W10035   4.943   2.429  10.330
 6517W        W10036   5.942   3.839   9.108
 6518W        W10037   6.794   1.066  11.482
 6519W        W10038   7.623   3.651   0.942
 6520W        W10039   6.205   0.380   2.954
 6521W        W10040   4.242   8.084   0.678
 6522W        W10041   9.972   3.012   1.318
 6523W        W10042   2.683   0.810   9.068
 6524W        W10043   2.649   5.900   2.274
 6525W        W10044   5.674   7.683   0.427
 6526W        W10045   2.572   5.546  11.990
 6527W        W10046   6.206   9.806  10.917
 6528W        W10047   7.499   8.096   3.436
 6529W        W10048   9.328   4.668   8.958
 6530W        W10049   5.483   6.994   2.371
 6531W        W10050   1.682   7.971   8.941
 6532W        W10051   7.641   5.834   8.774
 6533W        W10052   5.468   9.332  11.681
 6534W        W10053   9.367   7.895  10.519
 6535W        W10054   8.970   4.069   0.090
 6536W        W10055   1.681   8.227   8.490
 6537W        W10056   8.083   8.899   1.392
 6538W        W10057   1.418   3.933  11.957
 6539W        W10058   4.733   4.575   8.815
 6540W        W10059   2.948   8.457   9.406
 6541W        W10060   2.773   4.187   9.344
 6542W        W10061   1.477   2.553  10.799
 6543W        W10062   2.252   5.661   9.659
 6544W        W10063   1.780   4.690  11.838
 6545W        W10064   8.023   2.772  11.217
 6546W        W10065   3.882   0.949   0.252
 6547W        W10066   3.703   3.301   3.254
 6548W        W10067   9.645   7.579   9.464
 6549W        W10068   5.609   6.224   3.708
 6550W        W10069   8.505   6.762   9.586
 6551W        W10070   7.730   6.094   8.330
 6552W        W10071   2.231   0.432   0.941
 6553W        W10072   3.182   9.439  11.010
 6554W        W10073   9.798   0.786   2.337
 6555W        W10074   4.514   0.242  11.872
 6556W        W10075   3.641   9.330  11.829
 6557W        W10076   7.380   3.278   1.259
 6558W        W10077   8.590   3.930   3.634
 6559W        W10078   0.060   9.014   9.912
 6560W        W10079   4.638   5.893   8.188
 6561W        W10080   1.846   9.497   9.148
 6562W        W10081   2.855   2.613   9.157
 6563W        W10082   3.655   7.073   0.378
 6564W        W10083   5.299   5.569   2.668
 6565W        W10084   7.761   5.334  11.173
 6566W        W10085   7.511   7.061   2.094
 6567W        W10086   5.092   6.084   2.503
 6568W        W10087   7.181   3.770  11.083
 6569W        W10088   9.931   3.664   1.902
 6570W        W10089   4.574   0.526  10.219
 6571W        W10090   5.605   3.020   2.712
 6572W        W10091   2.707   2.530  10.236
 6573W        W10092   9.620   9.281  11.562
 6574W        W10093   5.230   5.425   3.653
 6575W        W10094   9.646   7.547  11.270
 6576W        W10095   6.800   5.065   1.836
 6577W        W10096   7.632   2.755   2.562
 6578W        W10097   8.783   0.418   9.568
 6579W        W10098   7.480   7.969   1.448
 6580W        W10099   2.406   8.440  10.828
 6581W        W10100   4.782   3.801  10.875
 6582W        W10101   6.465   1.179  11.981
 6583W        W10102   7.188   9.867  11.924
 6584W        W10103   3.597   5.601   8.424
 6585W        W10104   5.194   0.870   0.422
 6586W        W10105   5.149   8.065   8.531
 6587W        W10106   0.731   0.338  11.581
 6588W        W10107   4.806   6.155  10.745
 6589W        W10108   9.776   5.602   3.343
 6590W        W10109   6.040   0.648   1.012
 6591W        W10110   0.376   7.105   2.270
 6592W        W10111   4.609   3.254   0.140
 6593W        W10112   5.038   5.253   2.389
 6594W        W10113   6.298   9.443   3.302
 6595W        W10114   2.479   5.574   1.926
 6596W        W10115   1.285   2.596   1.640
 6597W        W10116   4.206   3.023  11.926
 6598W        W10117   4.759   5.720  11.485
 6599W        W10118   7.464   4.913   3.315
 6600W        W10119   6.825   2.918   1.477
 6601W        W10120   7.419   4.873   2.775
 6602W        W10121   5.494   8.160   0.332
 6603W        W10122   4.072   4.148   9.888
 6604W        W10123   4.536   9.634  10.388
 6605W        W10124   1.822   9.320  10.089
 6606W        W10125   9.562   6.248   1.591
 6607W        W10126   8.899   7.479   9.064
 6608W        W10127   2.559   4.144   1.743
 6609W        W10128   2.773   4.278   2.663
 6610W        W10129   3.345   3.808   2.078
 6611W        W10130   3.945   0.252   3.627
 6612W        W10131   5.460   5.594  11.225
 6613W        W10132   9.215   2.695   2.442
 6614W        W10133   5.635   3.810  11.239
 6615W        W10134   4.854   0.419   2.457
 6616W        W10135   5.743   1.371   1.600
 6617W        W10136   2.787   5.077  10.768
 6618W        W10137   0.338   8.471   0.526
 6619W        W10138   1.829   1.913   1.836
 6620W        W10139   7.298   2.190  11.367
 6621W        W10140   7.022   4.477   0.358
 6622W        W10141   0.774   6.679  11.503
 6623W        W10142   4.463   5.904   9.453
 6624W        W10143   1.454   9.775  11.894
 6625W        W10144   4.946   1.159   1.076
 6626W        W10145   1.671   5.721  11.828
 6627W        W10146   0.527   2.343   9.530
 6628W        W10147   8.590   0.189  10.863
 6629W        W10148   5.579   9.739   3.337
 6630W        W10149   0.800   7.358   9.984
 6631W        W10150   0.738   1.362  10.837
 6632W        W10151   4.160   2.046   0.011
 6633W        W10152   8.353   5.535   3.290
 6634W        W10153   7.379   1.401   2.521
 6635W        W10154   7.264   4.745   2.229
 6636W        W10155   4.592   4.562  10.491
 6637W        W10156   3.952   7.250   2.390
 6638W        W10157   5.400   8.473   1.626
 6639W        W10158   7.867   8.064  10.450
 6640W        W10159   4.149   3.526   8.646
 6641W        W10160   0.927   6.876   9.894
 6642W        W10161   7.884   6.081   0.775
 6643W        W10162   1.699   9.031   3.350
 6644W        W10163   3.805   7.634  10.698
 6645W        W10164   5.049   6.598   9.642
 6646W        W10165   5.045   1.191  10.913
 6647W        W10166   7.029   7.814   2.241
 6648W        W10167   9.979   8.525   9.043
 6649W        W10168   1.679   3.412   3.690
 6650W        W10169   3.872   7.520   3.392
 6651W        W10170   6.962   8.565   8.911
 6652W        W10171   6.042   8.100  11.751
 6653W        W10172   5.889   4.035   2.990
 6654W        W10173   4.848   5.051   0.867
 6655W        W10174   0.206   3.698   9.259
 6656W        W10175   5.133   8.556   0.320
 6657W        W10176   0.540   7.661  11.347
 6658W        W10177   4.562   9.434   0.281
 6659W        W10178   1.362   7.148  10.816
 6660W        W10179   2.331   9.699   8.590
 6661W        W10180   4.710   1.879   0.924
 6662W        W10181   5.947   3.462   0.306
 6663W        W10182   4.528   4.181   8.078
 6664W        W10183   5.567   0.954   9.646
 6665W        W10184   8.295   6.205   1.665
 6666W        W10185   8.401   3.642   1.283
 6667W        W10186   1.635   6.625   2.462
 6668W        W10187   0.342   2.204   0.812
 6669W        W10188   4.805   5.378  10.993
 6670W        W10189   1.265   0.683   2.842
 6671W        W10190   9.189   9.188   2.494
 6672W        W10191   6.697   2.184   1.470
 6673W        W10192   1.700   8.009   0.056
 6674W        W10193   5.949   3.706   1.218
 6675W        W10194   2.104   7.996  10.715
 6676W        W10195   1.794   1.236   1.257
 6677W        W10196   8.099   8.370   0.452
 6678W        W10197   0.741   5.343   3.449
 6679W        W10198   2.291   5.584   1.013
 6680W        W10199   6.345   4.130  11.075
 6681W        W10200   5.869   7.164   2.695
 6682W        W10201   0.421   0.458   2.378
 6683W        W10202   1.080   9.019   9.998
 6684W        W10203   3.379   9.755   1.220
 6685W        W10204   6.659   0.727   3.380
 6686W        W10205   4.114   9.872  10.245
 6687W        W10206   4.589   5.947  10.334
 6688W        W10207   0.646   7.987   3.550
 6689W        W10208   2.549   4.445  10.305
 6690W        W10209   6.083   5.689   2.126
 6691W        W10210   6.168   2.669   8.626
 6692W        W10211   3.538   4.757  10.644
 6693W        W10212   0.965   7.931   3.120
 6694W        W10213   7.959   5.505   2.951
 6695W        W10214   3.705   6.800  11.961
 6696W        W10215   2.821   1.349   9.790
 6697W        W10216   7.178   4.796   0.986
 6698W        W10217   6.664   1.750   9.505
 6699W        W10218   7.045   3.185   0.477
 6700W        W10219   6.483   6.935   9.253
 6701W        W10220   7.005   0.318  11.814
 6702W        W10221   7.611   5.885   2.945
 6703W        W10222   0.206   0.610  10.233
 6704W        W10223   3.523   4.061  10.025
 6705ION    NA+10224   4.485   0.507  11.001
 6706ION    NA+10225   7.906   4.243   8.802
 6707ION    NA+10226   6.220   8.429   0.748
 6708ION    NA+10227   3.383   1.620   1.214
 6709ION    NA+10228   3.870   6.188   1.798
 6710ION    NA+10229   2.196   5.689  10.474
 6711ION    NA+10230   4.481   6.596  10.328
 6712ION    NA+10231   6.665   5.056  11.676
 6713ION    NA+10232   9.505   3.025   8.723
 6714ION    NA+10233   4.733   8.887   9.943
 6715ION    NA+10234   6.106   3.680   9.588
 6716ION    NA+10235   4.730   7.877   0.735
 6717ION    NA+10236   7.889   5.618  11.978
 6718ION    NA+10237   0.849   3.191  11.947
 6719ION    NA+10238   0.047   9.968   3.067
 6720ION    NA+10239   7.602   8.913  11.807
 6721ION    NA+10240   1.738   7.047   9.470
 6722ION    NA+10241   4.051   2.353  10.268
 6723ION    NA+10242   3.785   0.174   8.816
 6724ION    NA+10243   3.788   8.490   9.568
 6725ION    NA+10244   6.949   1.251   8.920
 6726ION    NA+10245   3.602   5.547  10.996
 6727ION    NA+10246   7.472   4.041   9.563
 6728ION    NA+10247   5.492   9.257  10.254
 6729ION    NA+10248   6.940   9.493  10.693
 6730ION    NA+10249   3.165   0.953   8.912
 6731ION    NA+10250   0.306   5.470  11.531
 6732ION    NA+10251   9.316   3.429   1.322
 6733ION    NA+10252   8.094   1.654   3.197
 6734ION    NA+10253   2.554   5.075   8.802
 6735ION    NA+10254   6.350   0.870   1.772
 6736ION    NA+10255   8.627   1.363  10.744
 6737ION    NA+10256   5.302   8.765   2.710
 6738ION    NA+10257   1.884   4.692   1.741
 6739ION    NA+10258   7.276   9.362   2.865
 6740ION    NA+10259   1.772   9.807   0.456
 6741ION    NA+10260   7.858   7.891   2.217
 6742ION    NA+10261   2.747   6.787   2.349
 6743ION    NA+10262   1.568   6.631   0.832
 6744ION    NA+10263   1.360   8.646   1.097
 6745ION    NA+10264   2.173   5.884   0.014
 6746ION    NA+10265   8.218   4.768   2.161
 6747ION    NA+10266   8.918   9.003  10.292
 6748ION    NA+10267   8.395   7.963  11.985
 6749ION    NA+10268   8.385   7.994   1.577
 6750ION    NA+10269   6.019   6.614   4.085
 6751ION    NA+10270   4.177   9.539   1.064
 6752ION    NA+10271   0.914   3.280   9.661
 6753ION    NA+10272   1.360   0.530   3.723
 6754ION    NA+10273   4.113   5.545   2.391
 6755ION    NA+10274   8.707   2.733   1.205
 6756ION    NA+10275   6.432   8.464   2.277
 6757ION    NA+10276   7.796   4.861  10.975
 6758ION    NA+10277   4.223   5.290   0.323
 6759ION    NA+10278   0.563   4.868   0.287
 6760ION    NA+10279   1.824   0.041   3.185
 6761ION    NA+10280   3.817   4.950  10.175
 6762ION    NA+10281   9.693   7.867   3.017
 6763ION    NA+10282   5.139   5.907   3.517
 6764ION    NA+10283   3.566   9.601   0.275
 6765ION    NA+10284   0.363   0.405   8.597
 6766ION    NA+10285   8.781   7.935   2.439
 6767ION    NA+10286   3.847   6.317   9.124
 6768ION    NA+10287   4.294   0.381   9.765
 6769ION    NA+10288   7.970   7.855   9.523
 6770ION    NA+10289   2.731   1.880   2.450
 6771ION    NA+10290   3.040   2.702  11.566
 6772ION    NA+10291   7.505   2.541  10.487
 6773ION    NA+10292   2.128   5.828   8.801
 6774ION    NA+10293   5.362   4.568   1.577
 6775ION    NA+10294   6.540   6.964   9.844
 6776ION    CL-10295   8.649   4.682   2.250
 6777ION    CL-10296   0.251   1.219   2.908
 6778ION    CL-10297   5.116   8.803   1.345
 6779ION    CL-10298   6.133   0.493  11.208
 6780ION    CL-10299   5.003   4.585   3.089
 6781ION    CL-10300   6.143   3.891   9.978
 6782ION    CL-10301   1.136   3.664   9.652
 6783ION    CL-10302   2.277   5.413   8.957
 6784ION    CL-10303   3.956   5.854   2.091
 6785ION    CL-10304   1.839   1.843   3.311
 6786ION    CL-10305   6.432   8.550   0.373
 6787ION    CL-10306   4.152   8.284   9.395
 6788ION    CL-10307   4.500   1.558   9.448
 6789ION    CL-10308   2.697   5.337   2.330
 6790ION    CL-10309   0.867   4.660   0.035
 6791ION    CL-10310   7.014   1.048   8.489
 6792ION    CL-10311   7.775   4.111   9.222
 6793ION    CL-10312   4.746   7.672   0.334
 6794ION    CL-10313   2.205   8.511  11.573
 6795ION    CL-10314   4.089   6.697  10.519
 6796ION    CL-10315   2.246   9.075   2.158
 6797ION    CL-10316   7.726   9.212   0.115
 6798ION    CL-10317   9.368   2.824   9.117
 6799ION    CL-10318   5.125   4.273   1.323
 6800ION    CL-10319   1.403   0.022   0.328
 6801ION    CL-10320   8.992   3.086   1.268
 6802ION    CL-10321   3.301   3.712   3.585
 6803ION    CL-10322   5.755   7.436   2.288
 6804ION    CL-10323   3.209   4.906   0.371
 6805ION    CL-10324   0.223   0.529   0.934
 6806ION    CL-10325   6.178   2.371   2.326
 6807ION    CL-10326   4.846   5.038   8.571
 6808ION    CL-10327   9.026   1.241  10.589
 6809ION    CL-10328   7.506   4.322   0.260
 6810ION    CL-10329   7.793   5.163  10.647
 6811ION    CL-10330   5.600   6.641   0.234
 6812ION    CL-10331   1.022   8.702   0.800
 6813ION    CL-10332   0.827   8.412   2.291
 6814ION    CL-10333   6.646   1.582   9.023
 6815ION    CL-10334   1.286   4.563  10.063
 6816ION    CL-10335   0.104   7.714   2.914
 6817ION    CL-10336   4.349   4.585  10.959
 6818ION    CL-10337   4.434   0.080  11.129
 6819ION    CL-10338   3.367   8.591   9.700
 6820ION    CL-10339   3.146   7.284   0.367
 6821ION    CL-10340   2.049   6.019  11.604
 6822ION    CL-10341   2.450   1.541   2.368
 6823ION    CL-10342   5.516   4.947   1.781
 6824ION    CL-10343   8.273   7.936   2.023
 6825ION    CL-10344   7.103   4.117   9.813
 6826ION    CL-10345   9.807   0.919   8.777
 6827ION    CL-10346   5.195   8.668   3.136
 6828ION    CL-10347   5.761   3.250   1.050
 6829ION    CL-10348   6.723   3.391   3.149
 6830ION    CL-10349   7.525   9.945   0.866
 6831ION    CL-10350   8.943   9.315  10.611
 6832ION    CL-10351   8.496   9.202   3.575
 6833ION    CL-10352   3.717   6.701   9.319
 6834ION    CL-10353   9.987   3.788   2.790
 6835ION    CL-10354   6.379   7.751   8.965
 6836ION    CL-10355   4.654   3.326   9.647
 6837ION    CL-10356   5.123   9.111  10.022
 6838ION    CL-10357   5.722   0.280   3.122
 6839ION    CL-10358   5.743   3.580   3.214
 6840ION    CL-10359   5.081   7.575   9.331
 6841ION    CL-10360   9.568   5.723   9.081
 6842ION    CL-10361   9.857   2.529   3.099
 6843ION    CL-10362   2.711   4.652  11.541
 6844ION    CL-10363   7.816   2.559  10.803
 6845ION    CL-10364   1.700   8.593   1.400
 6846ION    CL-10365   9.631   3.731   1.468
  10.00000  10.00000  12.00000
