Protein in INSANE! Membrane UpperLeaflet>POPC=1.0 LowerLeaflet>POPC=1.0
12676
    1AU     AUC    1   6.212   5.422   7.168  0.0183 -0.0278  0.0684
    1AU     AUC    2   6.150   5.126   7.131  0.0474 -0.0276  0.0155
    1AU     AUC    3   5.960   5.300   7.310 -0.0260  0.1114  0.0597
    1AU     AUC    4   6.427   5.549   7.018  0.0538 -0.0168 -0.0397
    1AU     AUC    5   6.266   5.720   7.227  0.0053  0.0447 -0.0095
    1AU     AUC    6   6.431   5.502   7.336 -0.0396  0.0111 -0.0572
    1AU     AUC    7   6.279   5.233   7.382  0.1149 -0.0008  0.0235
    1AU     AUC    8   6.116   5.618   6.950  0.0454 -0.0338  0.0054
    1AU     AUC    9   5.966   5.377   7.010  0.0207  0.0348  0.0559
    1AU     AUC   10   5.955   5.608   7.214 -0.0465 -0.0459 -0.0135
    1AU     AUC   11   6.143   5.521   7.463  0.0715  0.0253  0.0364
    1AU     AUC   12   6.267   5.312   6.899  0.0063  0.0627  0.0305
    1AU     AUC   13   6.446   5.275   7.116 -0.0142  0.1059 -0.0021
    1AU     AUC   14   6.124   4.845   7.086 -0.0970  0.1179 -0.0520
    1AU     AUC   15   5.938   4.993   7.274  0.0295  0.0657  0.0095
    1AU     AUC   16   5.753   5.159   7.439 -0.0300 -0.0442 -0.0902
    1AU     AUC   17   6.654   5.690   6.866  0.0959 -0.0024  0.0233
    1AU     AUC   18   6.489   5.845   7.078 -0.0249  0.1026 -0.0130
    1AU     AUC   19   6.303   6.010   7.287  0.0450  0.0773 -0.1007
    1AU     AUC   20   6.677   5.543   7.529  0.1498  0.0084 -0.0204
    1AU     AUC   21   6.523   5.285   7.576 -0.0025  0.0071  0.0122
    1AU     AUC   22   6.361   5.060   7.636  0.0447  0.0172  0.0541
    1AU     AUC   23   6.058   5.827   6.731 -0.0390  0.0284  0.0344
    1AU     AUC   24   5.897   5.536   6.767 -0.0781 -0.0169  0.0759
    1AU     AUC   25   5.729   5.300   6.844  0.0398 -0.0438  0.0307
    1AU     AUC   26   5.719   5.794   7.223 -0.0100  0.1133 -0.0566
    1AU     AUC   27   5.896   5.711   7.494 -0.1153  0.0029 -0.1286
    1AU     AUC   28   6.066   5.615   7.738  0.0581 -0.1055 -0.0604
    1AU     AUC   29   6.302   5.211   6.608 -0.0013  0.0134 -0.0107
    1AU     AUC   30   6.505   5.147   6.844 -0.0063  0.1345 -0.0041
    1AU     AUC   31   6.692   5.089   7.078  0.0763  0.0495 -0.0323
    1AU     AUC   32   5.717   5.467   7.360  0.0817  0.0169 -0.0214
    1AU     AUC   33   5.897   5.397   7.585 -0.0360  0.0057 -0.0306
    1AU     AUC   34   6.209   5.023   6.859 -0.0127 -0.0785 -0.0595
    1AU     AUC   35   6.411   4.947   7.078 -0.0534  0.0273  0.0091
    1AU     AUC   36   6.012   5.897   7.276  0.0313 -0.0675 -0.0976
    1AU     AUC   37   6.180   5.832   7.514  0.0041  0.0434  0.0745
    1AU     AUC   38   6.493   5.444   6.731 -0.0926 -0.0035  0.0595
    1AU     AUC   39   6.676   5.392   6.982  0.0657 -0.1146  0.0566
    1AU     AUC   40   6.232   4.932   7.366  0.0245  0.0690  0.0196
    1AU     AUC   41   6.039   5.103   7.535 -0.1502  0.0130  0.0095
    1AU     AUC   42   6.684   5.647   7.207  0.0780  0.0206  0.0654
    1AU     AUC   43   6.493   5.792   7.412  0.0081 -0.0266 -0.0084
    1AU     AUC   44   5.921   5.062   6.943  0.0237 -0.0473  0.0084
    1AU     AUC   45   5.728   5.229   7.166  0.0030  0.0308  0.0279
    1AU     AUC   46   6.372   5.748   6.790  0.0294  0.0218  0.0249
    1AU     AUC   47   6.184   5.917   7.011 -0.0008  0.0374  0.0193
    1AU     AUC   48   6.382   5.602   7.637 -0.0025  0.0013  0.0167
    1AU     AUC   49   6.212   5.325   7.681 -0.0111 -0.0496  0.0078
    1AU     AUC   50   5.888   5.793   6.975 -0.0273  0.0330 -0.0302
    1AU     AUC   51   5.705   5.550   7.046 -0.0331 -0.0105  0.0635
    1AU     AUC   52   6.692   5.335   7.312  0.0654  0.0294  0.0547
    1AU     AUC   53   6.532   5.056   7.338 -0.0213 -0.0184 -0.0344
    1AU     AUC   54   6.197   5.526   6.658 -0.0695 -0.0100 -0.0050
    1AU     AUC   55   6.008   5.261   6.733 -0.0693 -0.0367 -0.0520
    1AU    AUSL   56   5.639   5.483   7.563 -0.0018 -0.0578  0.0086
    1AU    AUSL   57   5.348   5.615   7.251 -0.0224  0.0724  0.0376
    1AU     AUL   58   5.191   5.563   7.538 -0.0486  0.0304 -0.0124
    1AU       S   59   4.954   5.389   7.168 -0.2778 -0.1252  0.0561
    1AU     LIG   60   4.699   5.326   7.337 -0.2254 -0.3251  0.0903
    1AU     LIG   61   4.424   5.512   7.496  0.1611  0.0940  0.1468
    1AU     LIG   62   3.955   5.347   7.455  0.0064  0.1542  0.1960
    1AU     LIG   63   3.770   5.182   7.796 -0.0274  0.3725 -0.1059
    1AU     LIG   64   3.696   4.762   7.936  0.1020 -0.1537  0.0712
    1AU     LIG   65   3.768   4.339   8.034  0.1435 -0.1146  0.0889
    1AU       S   66   5.178   5.715   7.933 -0.0806 -0.5539 -0.4547
    1AU     LIG   67   4.781   5.446   7.808  0.3283  0.2128  0.2233
    1AU     LIG   68   4.381   5.180   7.989 -0.0300  0.1186 -0.1900
    1AU     LIG   69   4.143   4.845   7.701 -0.0478 -0.2674  0.1418
    1AU     LIG   70   3.802   4.649   7.438 -0.3735  0.0322 -0.0020
    1AU     LIG   71   3.349   4.521   7.323 -0.0613 -0.0192  0.0687
    1AU     LIG   72   3.067   4.100   7.260 -0.1369 -0.3351 -0.2259
    1AU    AUSL   73   5.512   5.880   7.528 -0.0603  0.0994 -0.0041
    1AU    AUSL   74   5.863   5.843   7.775  0.0388  0.0626 -0.0373
    1AU     AUL   75   5.588   5.926   7.872 -0.0211 -0.0279 -0.0019
    1AU       S   76   5.160   5.986   7.747  0.3300 -0.1862 -0.1502
    1AU     LIG   77   4.855   5.843   7.362  0.1117  0.1198  0.0499
    1AU     LIG   78   4.461   5.861   7.154  0.0785  0.0414  0.0399
    1AU     LIG   79   4.101   5.716   7.162 -0.1502  0.2252  0.1803
    1AU     LIG   80   3.628   5.716   7.170 -0.0350  0.1375 -0.3640
    1AU     LIG   81   3.229   5.796   7.179  0.1232  0.0772 -0.0412
    1AU     LIG   82   2.823   5.710   7.049 -0.3278 -0.1157  0.2807
    1AU       S   83   5.630   6.384   7.806 -0.3441  0.2170  0.0225
    1AU     LIG   84   5.409   6.857   7.796 -0.0655 -0.0959  0.1993
    1AU     LIG   85   5.042   6.987   7.559  0.1807  0.1254  0.2655
    1AU     LIG   86   4.984   7.450   7.465 -0.0189 -0.1644  0.0053
    1AU     LIG   87   4.939   7.919   7.392  0.0783 -0.0736 -0.0636
    1AU     LIG   88   4.651   8.202   7.206  0.0992  0.1855  0.1050
    1AU     LIG   89   4.263   8.364   7.191 -0.0100 -0.1747 -0.1190
    1AU    AUSL   90   5.770   5.493   7.977 -0.0390  0.0230 -0.1186
    1AU    AUSL   91   5.673   5.101   7.747 -0.0402 -0.0923  0.0552
    1AU     AUL   92   5.517   5.408   7.857  0.1047 -0.0001  0.1528
    1AU       S   93   5.379   5.684   8.199 -0.3906  0.1012  0.2021
    1AU     LIG   94   5.268   5.237   8.267 -0.0672 -0.0755  0.0250
    1AU     LIG   95   5.134   4.922   8.107  0.3916  0.0968 -0.3904
    1AU     LIG   96   5.081   4.610   7.849  0.2746  0.2220 -0.0899
    1AU     LIG   97   5.045   4.533   7.423  0.0847 -0.0572  0.2203
    1AU     LIG   98   5.275   4.114   7.222 -0.0667 -0.5868 -0.0488
    1AU     LIG   99   5.448   3.760   7.258 -0.0631 -0.0425 -0.2591
    1AU       S  100   5.526   4.887   7.878  0.1233  0.2361 -0.2091
    1AU     LIG  101   5.521   4.511   8.142  0.3374 -0.0932  0.2382
    1AU     LIG  102   5.308   4.241   8.220  0.2496  0.2060  0.0522
    1AU     LIG  103   4.954   4.069   8.344 -0.1305  0.2055 -0.2075
    1AU     LIG  104   4.533   3.774   8.136  0.0315  0.3268  0.2150
    1AU     LIG  105   4.321   3.471   8.021 -0.0530  0.0472  0.0516
    1AU     LIG  106   4.112   3.263   7.687 -0.0068  0.1706  0.0306
    1AU    AUSL  107   6.313   4.682   6.950  0.0420  0.0675 -0.1288
    1AU    AUSL  108   6.690   4.749   7.204 -0.0839  0.0204  0.0232
    1AU     AUL  109   6.627   4.491   6.941 -0.0117 -0.0246  0.0366
    1AU       S  110   6.483   4.373   6.507 -0.2381 -0.4362 -0.1475
    1AU     LIG  111   6.676   3.999   6.468  0.1305 -0.0603 -0.0712
    1AU     LIG  112   7.051   3.747   6.433  0.1313 -0.0365  0.1814
    1AU     LIG  113   7.226   3.371   6.595 -0.4985 -0.1042  0.2720
    1AU     LIG  114   7.098   2.967   6.469  0.1447 -0.1349  0.1939
    1AU     LIG  115   6.826   2.719   6.660 -0.0466  0.2061  0.1005
    1AU     LIG  116   6.582   2.471   6.819 -0.3817  0.4360  0.2514
    1AU       S  117   6.765   4.240   7.332  0.2206 -0.2218  0.2421
    1AU     LIG  118   6.838   4.081   6.972 -0.1785  0.2565 -0.2407
    1AU     LIG  119   7.108   3.699   7.050 -0.0545 -0.1677  0.2535
    1AU     LIG  120   7.554   3.462   7.010 -0.2233 -0.1989 -0.1536
    1AU     LIG  121   7.851   3.206   7.093  0.1087 -0.0782  0.1478
    1AU     LIG  122   8.311   3.046   7.206 -0.0838 -0.0823  0.0374
    1AU     LIG  123   8.404   2.645   7.032  0.2984 -0.2310 -0.0181
    1AU    AUSL  124   6.383   4.821   6.551  0.0670  0.0226 -0.0149
    1AU    AUSL  125   5.968   4.712   6.724  0.0045  0.0102 -0.0190
    1AU     AUL  126   6.122   4.440   6.784  0.0116  0.0018  0.0484
    1AU       S  127   5.918   4.624   6.385 -0.1869 -0.0443 -0.6280
    1AU     LIG  128   5.633   4.238   6.459  0.0195 -0.3318  0.0500
    1AU     LIG  129   5.718   3.867   6.442 -0.1807  0.1131 -0.2975
    1AU     LIG  130   5.686   3.519   6.697  0.2002 -0.2584  0.2247
    1AU     LIG  131   5.536   3.298   7.016 -0.0205 -0.3940 -0.0136
    1AU     LIG  132   5.187   3.310   7.315 -0.1376  0.2230 -0.0162
    1AU     LIG  133   5.295   3.423   7.666 -0.1008  0.5376  0.0883
    1AU       S  134   6.475   4.667   6.273 -0.1662 -0.0838 -0.1507
    1AU     LIG  135   6.395   4.382   5.950  0.0573 -0.4690 -0.0861
    1AU     LIG  136   6.542   3.875   6.014  0.0031 -0.0349  0.1749
    1AU     LIG  137   6.580   3.481   6.206  0.1113 -0.4213  0.0342
    1AU     LIG  138   6.647   3.042   6.306  0.0702  0.5814  0.0577
    1AU     LIG  139   6.594   2.570   6.233 -0.1137  0.0860 -0.2995
    1AU     LIG  140   6.416   2.200   6.068  0.1193  0.0793 -0.4052
    1AU    AUSL  141   6.583   4.996   6.895 -0.0501  0.0706 -0.1116
    1AU    AUSL  142   6.663   5.126   6.498 -0.0592  0.0555  0.0848
    1AU     AUL  143   6.755   4.793   6.624 -0.0550  0.0061 -0.0116
    1AU       S  144   7.008   5.007   6.267 -0.6702 -0.1280 -0.3277
    1AU     LIG  145   7.006   4.566   6.291 -0.3671  0.0033 -0.1527
    1AU     LIG  146   7.073   4.274   6.584  0.1566 -0.1831 -0.1450
    1AU     LIG  147   7.355   4.301   6.958 -0.1496  0.1036  0.0085
    1AU     LIG  148   7.693   4.247   7.271  0.0627 -0.0637 -0.2667
    1AU     LIG  149   8.056   4.326   7.275  0.3824  0.2719  0.0684
    1AU     LIG  150   8.435   4.160   7.549  0.4262 -0.2521  0.3791
    1AU       S  151   6.383   4.641   6.467  0.1223  0.1881  0.5699
    1AU     LIG  152   6.096   4.175   6.287 -0.0769  0.2132 -0.0963
    1AU     LIG  153   6.224   3.754   6.418  0.2547 -0.2594  0.1569
    1AU     LIG  154   6.224   3.311   6.606 -0.0332  0.0582 -0.2683
    1AU     LIG  155   6.331   2.931   6.756 -0.3235  0.2024 -0.0153
    1AU     LIG  156   6.139   2.540   6.999  0.1765  0.0673  0.0071
    1AU     LIG  157   6.209   2.250   7.065  0.0552 -0.0284  0.0061
    1AU    AUSL  158   6.032   6.163   7.564 -0.0317  0.1376 -0.0858
    1AU    AUSL  159   6.265   5.931   7.863 -0.1205  0.0224 -0.0003
    1AU     AUL  160   6.021   6.082   7.917  0.1155 -0.0006 -0.0309
    1AU       S  161   5.770   6.516   7.795  0.2246  0.0969 -0.6985
    1AU     LIG  162   5.887   6.805   7.618  0.2409  0.1201 -0.1469
    1AU     LIG  163   6.082   7.045   7.278 -0.1253 -0.0076 -0.2341
    1AU     LIG  164   6.241   7.379   7.039 -0.0124  0.1220 -0.2582
    1AU     LIG  165   6.565   7.500   6.595 -0.0103  0.2582  0.0166
    1AU     LIG  166   6.482   7.136   6.260 -0.3309  0.0667  0.1553
    1AU     LIG  167   6.395   7.071   5.828 -0.0364 -0.1152  0.1272
    1AU       S  168   6.349   6.396   7.878 -0.0803  0.3241 -0.0326
    1AU     LIG  169   6.396   6.853   7.942 -0.0891 -0.1581  0.0373
    1AU     LIG  170   6.049   7.279   7.869 -0.1147  0.0826 -0.1304
    1AU     LIG  171   6.061   7.528   7.575  0.0128 -0.1721 -0.0487
    1AU     LIG  172   5.777   7.603   7.226 -0.0811  0.0799  0.0531
    1AU     LIG  173   5.284   7.678   7.145 -0.3512 -0.3961  0.0898
    1AU     LIG  174   4.984   7.868   6.828  0.1398  0.3164  0.0800
    1AU    AUSL  175   5.877   5.835   7.333  0.0323 -0.0239 -0.0261
    1AU    AUSL  176   6.138   6.305   7.188  0.0114 -0.0838 -0.0294
    1AU     AUL  177   6.011   6.339   7.468  0.0685 -0.0755  0.0180
    1AU       S  178   5.937   6.620   7.104  0.2669  0.0380 -0.1280
    1AU     LIG  179   5.765   7.006   6.959  0.1948 -0.2689  0.0444
    1AU     LIG  180   5.573   7.433   6.822 -0.0996  0.1874  0.0117
    1AU     LIG  181   5.589   7.817   6.736  0.2552  0.1511 -0.0092
    1AU     LIG  182   5.798   8.174   6.537  0.5533  0.3906 -0.0749
    1AU     LIG  183   6.122   8.133   6.362  0.2013  0.0990  0.0681
    1AU     LIG  184   6.342   8.066   5.892 -0.1097  0.0031 -0.0539
    1AU       S  185   5.592   6.347   7.609  0.0331  0.3274  0.1541
    1AU     LIG  186   5.373   6.674   7.341  0.0235  0.1427  0.3203
    1AU     LIG  187   4.987   6.768   7.133 -0.1959 -0.0054 -0.0188
    1AU     LIG  188   4.768   7.150   7.072 -0.3488 -0.3495  0.1368
    1AU     LIG  189   4.603   7.562   6.990  0.3131 -0.1077  0.0478
    1AU     LIG  190   4.377   8.006   6.833  0.1970  0.1215 -0.2799
    1AU     LIG  191   4.192   8.265   6.583 -0.4348  0.0724 -0.0960
    1AU    AUSL  192   6.703   5.481   6.725  0.0309 -0.0041  0.1007
    1AU    AUSL  193   6.384   5.421   6.410  0.0850  0.0406  0.0098
    1AU     AUL  194   6.733   5.385   6.313 -0.0210  0.0325 -0.0720
    1AU       S  195   7.130   5.182   6.389  0.1310 -0.4334 -0.0120
    1AU     LIG  196   7.484   5.470   6.188 -0.0797 -0.0133 -0.4264
    1AU     LIG  197   7.896   5.506   6.322 -0.2457 -0.3719 -0.1163
    1AU     LIG  198   8.342   5.492   6.356  0.0513 -0.3503  0.3124
    1AU     LIG  199   8.615   5.896   6.402 -0.3709  0.0858  0.1210
    1AU     LIG  200   8.929   5.955   6.688 -0.4261 -0.0938  0.0703
    1AU     LIG  201   8.969   6.214   7.010 -0.0463  0.2608 -0.0181
    1AU       S  202   6.558   5.761   6.006  0.2405 -0.0994  0.0528
    1AU     LIG  203   6.492   5.964   5.652 -0.0841 -0.1742  0.2249
    1AU     LIG  204   6.473   6.442   5.686 -0.2212 -0.1192 -0.5329
    1AU     LIG  205   6.721   6.751   5.937  0.1530  0.4922 -0.1180
    1AU     LIG  206   6.938   7.055   5.973  0.1779 -0.0124 -0.3105
    1AU     LIG  207   6.750   7.419   5.922  0.0482  0.0169  0.1383
    1AU     LIG  208   6.446   7.631   6.153  0.2053 -0.0541  0.0059
    1AU    AUSL  209   6.969   5.138   6.813 -0.0359 -0.1093  0.0019
    1AU    AUSL  210   7.044   5.609   6.942 -0.0244  0.0719  0.0140
    1AU     AUL  211   7.028   5.598   6.634 -0.0498 -0.0368  0.0180
    1AU       S  212   7.358   5.510   7.022  0.0814  0.1467  0.0067
    1AU     LIG  213   7.511   5.397   6.701  0.1769  0.2673 -0.4529
    1AU     LIG  214   7.789   5.111   6.651 -0.2142 -0.3556 -0.1554
    1AU     LIG  215   7.949   4.758   6.434  0.2819  0.0052 -0.1042
    1AU     LIG  216   7.887   4.540   6.030  0.0652 -0.0381  0.0479
    1AU     LIG  217   7.658   4.736   5.619 -0.5618  0.0677 -0.2618
    1AU     LIG  218   8.046   4.597   5.355 -0.0788  0.1057  0.0295
    1AU       S  219   7.055   5.116   6.636 -0.0986  0.1755  0.2277
    1AU     LIG  220   7.353   4.789   6.546  0.1701 -0.1415 -0.3222
    1AU     LIG  221   7.565   4.452   6.405  0.1069 -0.2263 -0.1788
    1AU     LIG  222   7.778   4.273   6.732 -0.1427 -0.2766 -0.1749
    1AU     LIG  223   8.078   3.992   6.910 -0.1716 -0.1389 -0.1407
    1AU     LIG  224   8.299   3.675   7.242 -0.2856 -0.1420  0.2916
    1AU     LIG  225   8.488   3.650   7.695 -0.1123 -0.3037  0.0419
    1AU    AUSL  226   6.273   4.745   7.744  0.0715  0.0399  0.0155
    1AU    AUSL  227   6.328   4.574   7.357 -0.1285 -0.0587  0.0023
    1AU     AUL  228   6.472   4.519   7.755 -0.0296  0.0846  0.0447
    1AU       S  229   6.506   4.228   7.371 -0.3351 -0.0540  0.0762
    1AU     LIG  230   6.527   3.794   7.347  0.3838 -0.0131 -0.1653
    1AU     LIG  231   6.496   3.351   7.291  0.0679  0.3644 -0.2492
    1AU     LIG  232   6.563   2.933   7.221  0.0866 -0.2604 -0.0902
    1AU     LIG  233   6.547   2.471   7.365 -0.5019  0.1615  0.1061
    1AU     LIG  234   6.874   2.158   7.290 -0.0005  0.6826 -0.3169
    1AU     LIG  235   6.824   1.681   7.348 -0.1981 -0.1141 -0.0868
    1AU       S  236   6.018   4.406   7.685  0.0487  0.2996  0.0152
    1AU     LIG  237   6.219   4.023   7.806 -0.4567 -0.4299  0.1953
    1AU     LIG  238   6.234   3.644   7.720 -0.0164  0.2774  0.0822
    1AU     LIG  239   6.350   3.220   7.730 -0.1542  0.0637  0.0929
    1AU     LIG  240   6.108   2.933   7.399 -0.0314 -0.3249 -0.2905
    1AU     LIG  241   5.741   2.610   7.283 -0.3403 -0.0660  0.2125
    1AU     LIG  242   5.695   2.459   6.828 -0.1483  0.1611  0.4615
    1AU    AUSL  243   5.943   4.581   7.217  0.0523 -0.0093 -0.0714
    1AU    AUSL  244   5.593   4.818   7.333 -0.0165 -0.0143  0.0137
    1AU     AUL  245   5.559   4.494   7.214 -0.0448  0.0512 -0.1405
    1AU       S  246   5.916   4.329   7.469  0.3699 -0.4395  0.0350
    1AU     LIG  247   6.049   4.038   7.330 -0.2674  0.2448  0.4202
    1AU     LIG  248   5.979   3.668   7.027 -0.1443  0.1531 -0.0833
    1AU     LIG  249   6.021   3.246   7.028  0.0538 -0.4765 -0.2195
    1AU     LIG  250   5.801   2.932   6.754 -0.1830 -0.4366  0.1756
    1AU     LIG  251   5.546   2.851   6.442  0.1354 -0.1978  0.1889
    1AU     LIG  252   5.510   2.443   6.309  0.0161  0.0884 -0.1214
    1AU       S  253   5.196   4.637   6.923 -0.0156 -0.1358 -0.1697
    1AU     LIG  254   4.756   4.507   6.905 -0.1062  0.0868 -0.1781
    1AU     LIG  255   4.625   4.122   6.892  0.4540  0.2385  0.0478
    1AU     LIG  256   4.264   3.868   7.010  0.0605  0.2907  0.1012
    1AU     LIG  257   3.918   3.761   7.227  0.1485  0.1706 -0.0855
    1AU     LIG  258   3.527   3.875   7.112 -0.1075  0.0402  0.3008
    1AU     LIG  259   3.351   4.044   6.693  0.0683  0.0119 -0.0572
    1AU    AUSL  260   5.950   4.906   7.515 -0.0633 -0.1006 -0.0513
    1AU    AUSL  261   6.058   5.082   7.924  0.0118 -0.0221  0.0212
    1AU     AUL  262   6.003   4.806   7.917 -0.0219  0.1252  0.0677
    1AU       S  263   5.650   5.013   8.139  0.3177  0.0136 -0.0320
    1AU     LIG  264   5.911   4.769   8.351  0.0418 -0.1233 -0.4491
    1AU     LIG  265   6.047   4.390   8.160 -0.0401 -0.0828  0.0955
    1AU     LIG  266   5.765   4.093   8.010  0.0036  0.3030 -0.0143
    1AU     LIG  267   5.690   3.870   7.663 -0.2518 -0.4032 -0.0786
    1AU     LIG  268   5.827   3.511   7.487 -0.0626 -0.1257 -0.1967
    1AU     LIG  269   5.588   3.079   7.480 -0.0208  0.0322 -0.1275
    1AU       S  270   5.800   4.479   7.658  0.1026  0.3851 -0.1644
    1AU     LIG  271   5.380   4.244   7.688 -0.0300 -0.2557  0.2726
    1AU     LIG  272   5.060   3.914   7.833 -0.0521 -0.1223  0.3935
    1AU     LIG  273   4.795   3.616   7.735 -0.3732 -0.5850 -0.1287
    1AU     LIG  274   4.711   3.300   7.513 -0.1279  0.2422  0.0904
    1AU     LIG  275   4.431   3.199   7.202  0.1288 -0.1300  0.1497
    1AU     LIG  276   4.347   2.765   7.054 -0.1381 -0.0292  0.0141
    1AU    AUSL  277   6.855   5.912   7.525 -0.0533  0.1023  0.0983
    1AU    AUSL  278   6.447   6.099   7.522  0.0137 -0.0495  0.0196
    1AU     AUL  279   6.789   6.044   7.792 -0.0068  0.0376 -0.0538
    1AU       S  280   6.461   6.325   7.634 -0.1556  0.2397 -0.4475
    1AU     LIG  281   6.407   6.631   7.444 -0.1474  0.0542  0.0514
    1AU     LIG  282   6.447   6.782   7.086 -0.0242 -0.1573  0.3315
    1AU     LIG  283   6.630   6.986   6.700 -0.1026 -0.1165  0.1240
    1AU     LIG  284   7.037   7.246   6.562  0.0081 -0.1699  0.0817
    1AU     LIG  285   7.417   7.354   6.385  0.2149 -0.1311  0.1921
    1AU     LIG  286   7.468   7.690   5.976  0.0583 -0.1262  0.2609
    1AU       S  287   7.077   6.228   7.447  0.2041  0.0465 -0.1062
    1AU     LIG  288   7.265   6.408   7.740 -0.0768 -0.0281  0.3034
    1AU     LIG  289   7.652   6.460   7.796  0.0227 -0.0030  0.1981
    1AU     LIG  290   8.020   6.592   8.050 -0.1066  0.1389  0.0766
    1AU     LIG  291   8.466   6.586   8.091  0.6129 -0.1355 -0.0078
    1AU     LIG  292   8.910   6.629   7.845  0.0980 -0.1324  0.1750
    1AU     LIG  293   8.917   6.550   7.353  0.0763 -0.1515 -0.0977
    1AU    AUSL  294   6.736   5.784   7.142  0.0033 -0.0402 -0.0653
    1AU    AUSL  295   7.028   5.538   7.375 -0.0014 -0.0105  0.1227
    1AU     AUL  296   7.094   5.793   7.268 -0.0837 -0.0977 -0.1060
    1AU       S  297   7.110   6.294   7.257 -0.0039  0.3912 -0.0453
    1AU     LIG  298   7.432   5.990   7.027 -0.0130  0.1060  0.2516
    1AU     LIG  299   7.636   5.874   6.729 -0.3542  0.0920  0.3406
    1AU     LIG  300   7.943   5.618   6.792 -0.4399  0.2036 -0.0832
    1AU     LIG  301   8.282   5.282   6.810 -0.0683  0.1468 -0.2063
    1AU     LIG  302   8.639   5.061   6.844  0.2922  0.0957  0.1725
    1AU     LIG  303   9.027   4.976   6.638 -0.0354 -0.1337  0.0135
    1AU       S  304   7.471   5.492   7.271 -0.2661  0.0846  0.1290
    1AU     LIG  305   7.871   5.188   7.208  0.2023  0.0194 -0.1894
    1AU     LIG  306   8.273   4.883   7.245  0.0557 -0.2810 -0.2657
    1AU     LIG  307   8.624   4.624   7.365  0.0163  0.2598  0.1208
    1AU     LIG  308   9.075   4.431   7.480  0.0451  0.2148  0.1390
    1AU     LIG  309   9.514   4.230   7.200  0.1357 -0.2302 -0.0246
    1AU     LIG  310   9.718   4.129   6.789  0.1866  0.0694 -0.0747
    1AU    AUSL  311   6.654   6.196   7.187  0.0427  0.0513 -0.0625
    1AU    AUSL  312   6.678   6.008   6.801 -0.0522 -0.0015 -0.0616
    1AU     AUL  313   6.933   6.063   6.929  0.0436  0.0189  0.0420
    1AU       S  314   6.741   6.397   6.688  0.3037 -0.2277  0.0749
    1AU     LIG  315   7.046   6.704   6.551  0.2141  0.0934  0.1642
    1AU     LIG  316   7.438   6.738   6.491  0.1311 -0.5504 -0.3683
    1AU     LIG  317   7.742   6.835   6.673 -0.0314 -0.0086  0.0016
    1AU     LIG  318   7.910   7.273   6.763 -0.3826  0.1796 -0.1297
    1AU     LIG  319   8.265   7.484   6.548 -0.1251 -0.3835  0.1088
    1AU     LIG  320   8.353   7.564   6.136  0.0369 -0.0702 -0.0944
    1AU       S  321   6.732   6.351   7.248 -0.2368  0.1683 -0.0554
    1AU     LIG  322   6.940   6.728   7.033  0.0722  0.0909  0.1239
    1AU     LIG  323   7.302   7.005   6.937 -0.0127 -0.1412  0.1636
    1AU     LIG  324   7.405   7.397   6.881 -0.0520  0.5026 -0.1708
    1AU     LIG  325   7.685   7.733   6.623 -0.0225 -0.2317 -0.1641
    1AU     LIG  326   8.107   8.003   6.503 -0.1595  0.1719 -0.4383
    1AU     LIG  327   8.534   7.901   6.469  0.2358 -0.1305 -0.5467
    1AU    AUSL  328   5.484   5.014   6.948 -0.0184 -0.0797  0.0454
    1AU    AUSL  329   5.431   5.196   7.357 -0.0822  0.0352 -0.0277
    1AU     AUL  330   5.319   4.890   7.301  0.0566 -0.0197 -0.0909
    1AU       S  331   5.210   4.909   6.816 -0.0362  0.1325  0.4450
    1AU     LIG  332   4.864   4.988   6.662 -0.3586 -0.0957  0.0569
    1AU     LIG  333   4.486   4.879   6.703 -0.0521  0.0275  0.0820
    1AU     LIG  334   4.109   4.657   7.014  0.0292 -0.2901 -0.3755
    1AU     LIG  335   4.223   4.291   7.268 -0.0906  0.0933 -0.1626
    1AU     LIG  336   4.233   3.986   7.519  0.0375 -0.0583  0.1868
    1AU     LIG  337   4.364   3.627   7.433 -0.0573  0.0387  0.1787
    1AU       S  338   5.176   5.316   7.151 -0.1390 -0.1730 -0.2346
    1AU     LIG  339   4.839   4.901   7.189 -0.1367 -0.2891  0.2413
    1AU     LIG  340   4.396   4.973   7.233 -0.1490 -0.3012  0.1544
    1AU     LIG  341   4.210   5.203   6.987 -0.4820  0.1749  0.0856
    1AU     LIG  342   3.891   5.253   6.991 -0.3586 -0.2494  0.2265
    1AU     LIG  343   3.573   5.037   7.114  0.0973  0.2854  0.0119
    1AU     LIG  344   3.262   4.837   6.814 -0.2160  0.1538 -0.0720
    1AU    AUSL  345   5.886   4.950   7.057 -0.0461 -0.0306  0.1425
    1AU    AUSL  346   5.720   5.033   6.601  0.0353  0.1046  0.0305
    1AU     AUL  347   5.669   4.703   6.797 -0.0839  0.0132  0.0182
    1AU       S  348   5.341   5.007   6.848  0.0223  0.0768  0.4328
    1AU     LIG  349   5.228   5.154   6.335  0.1345  0.0615 -0.1672
    1AU     LIG  350   5.003   5.255   5.848  0.0970 -0.0514  0.3084
    1AU     LIG  351   4.568   5.363   5.819  0.1545 -0.3401 -0.1477
    1AU     LIG  352   4.238   5.524   6.050 -0.1465 -0.2189 -0.3580
    1AU     LIG  353   4.056   5.884   6.263  0.0257  0.1945 -0.2543
    1AU     LIG  354   3.737   6.083   6.199 -0.0649 -0.4277 -0.2166
    1AU       S  355   5.720   4.766   6.302  0.0828  0.3540  0.0393
    1AU     LIG  356   5.301   4.644   6.350  0.0306  0.1086  0.3166
    1AU     LIG  357   5.083   4.296   6.490  0.2865  0.0283 -0.1505
    1AU     LIG  358   5.137   3.996   6.712  0.0841 -0.1506 -0.0343
    1AU     LIG  359   5.171   3.583   6.775 -0.2410 -0.4956 -0.1656
    1AU     LIG  360   4.997   3.151   6.932  0.1308  0.2174  0.2743
    1AU     LIG  361   4.858   2.865   7.179 -0.1350  0.0441 -0.3224
    1AU    AUSL  362   6.295   6.094   6.636 -0.0211  0.0438  0.0738
    1AU    AUSL  363   6.575   5.791   6.476  0.0007  0.1532  0.0434
    1AU     AUL  364   6.756   5.960   6.498  0.0892  0.0436 -0.0562
    1AU       S  365   6.471   5.943   6.138  0.2918  0.2643 -0.0367
    1AU     LIG  366   6.874   6.279   6.184 -0.1424  0.1698 -0.0575
    1AU     LIG  367   7.186   6.496   6.052  0.0916 -0.3484  0.1180
    1AU     LIG  368   7.541   6.600   6.033 -0.1272 -0.0038  0.1522
    1AU     LIG  369   7.729   6.975   6.112  0.0073 -0.0880 -0.3052
    1AU     LIG  370   7.816   7.333   6.034 -0.1458  0.3158  0.3045
    1AU     LIG  371   7.952   7.669   5.789 -0.1247  0.0068 -0.0202
    1AU       S  372   6.506   6.307   6.547  0.3022 -0.0380  0.3110
    1AU     LIG  373   6.291   6.689   6.544  0.2977  0.2746 -0.1042
    1AU     LIG  374   6.162   7.122   6.599 -0.1089  0.1031 -0.1932
    1AU     LIG  375   6.005   7.476   6.563 -0.1899  0.0873  0.0037
    1AU     LIG  376   6.076   7.787   6.814 -0.1142  0.1593  0.0239
    1AU     LIG  377   6.163   7.928   7.259  0.0334  0.1621 -0.3432
    1AU     LIG  378   5.889   8.002   7.620  0.4681 -0.0445  0.0340
    1AU    AUSL  379   6.336   5.984   7.045  0.0154  0.0653  0.0154
    1AU    AUSL  380   5.949   6.080   6.873 -0.0953  0.0156  0.0739
    1AU     AUL  381   6.227   6.337   6.878 -0.0361 -0.0312  0.0186
    1AU       S  382   5.835   6.519   6.868  0.2754 -0.2309  0.4450
    1AU     LIG  383   5.765   6.760   6.482  0.0176 -0.3268 -0.0253
    1AU     LIG  384   5.619   7.179   6.343  0.0620  0.1082 -0.3172
    1AU     LIG  385   5.686   7.695   6.286 -0.0771  0.2068 -0.4332
    1AU     LIG  386   5.251   7.938   6.395 -0.2820 -0.0918  0.1844
    1AU     LIG  387   5.190   8.319   6.456 -0.0864  0.0293 -0.1911
    1AU     LIG  388   4.973   8.728   6.479  0.3982 -0.0211 -0.1622
    1AU       S  389   6.658   6.400   6.754  0.0743  0.5022 -0.2214
    1AU     LIG  390   7.189   6.241   6.548  0.4090 -0.0387  0.0585
    1AU     LIG  391   7.535   6.253   6.396  0.1099  0.3060  0.2447
    1AU     LIG  392   7.849   6.029   6.261  0.2147 -0.2888  0.3052
    1AU     LIG  393   8.157   6.019   6.446  0.0792  0.0244  0.0945
    1AU     LIG  394   8.450   6.237   6.774 -0.0254 -0.0167 -0.0639
    1AU     LIG  395   8.419   6.364   7.191  0.2707 -0.4828 -0.0306
    1AU    AUSL  396   6.294   5.530   8.009  0.0551 -0.0184  0.0211
    1AU    AUSL  397   6.510   5.695   7.619  0.0459  0.1111 -0.0062
    1AU     AUL  398   6.462   5.819   8.101  0.0497  0.0806 -0.0074
    1AU       S  399   6.464   6.262   7.967  0.0403  0.0034 -0.2816
    1AU     LIG  400   6.809   6.528   7.873 -0.1384  0.0802  0.2781
    1AU     LIG  401   6.885   6.802   7.578 -0.0895  0.1091 -0.0995
    1AU     LIG  402   6.613   7.092   7.510  0.3889 -0.4729  0.1510
    1AU     LIG  403   6.511   7.540   7.405  0.0341 -0.1468 -0.2812
    1AU     LIG  404   6.515   7.782   7.045 -0.0930 -0.0720 -0.2808
    1AU     LIG  405   6.555   7.986   6.700  0.7010  0.2323 -0.0476
    1AU       S  406   6.562   5.396   8.305  0.5727 -0.2694  0.1595
    1AU     LIG  407   6.406   4.935   8.616 -0.0465 -0.1642  0.1799
    1AU     LIG  408   6.285   4.519   8.661  0.4295  0.1938 -0.4026
    1AU     LIG  409   6.214   4.071   8.493 -0.3403  0.0214 -0.3069
    1AU     LIG  410   6.107   3.622   8.237  0.0661 -0.1124  0.0340
    1AU     LIG  411   5.847   3.285   7.982  0.1134 -0.2740  0.2375
    1AU     LIG  412   5.453   3.053   7.970 -0.0840 -0.0507 -0.3626
    1AU    AUSL  413   6.738   5.514   7.900  0.0218  0.0406  0.0874
    1AU    AUSL  414   6.727   4.906   7.692  0.0058  0.0803  0.0211
    1AU     AUL  415   6.962   5.245   7.955 -0.1181  0.0266  0.0338
    1AU       S  416   6.664   5.295   8.264 -0.1031 -0.0158  0.4671
    1AU     LIG  417   6.971   5.001   8.380  0.1309 -0.0373  0.3972
    1AU     LIG  418   7.060   4.591   8.306 -0.0213 -0.1779  0.0144
    1AU     LIG  419   7.322   4.257   8.398  0.0421  0.0888  0.1095
    1AU     LIG  420   7.608   3.964   8.166 -0.2168 -0.0044 -0.0694
    1AU     LIG  421   7.629   3.563   7.870 -0.1361  0.2300  0.0118
    1AU     LIG  422   7.846   3.643   7.426 -0.0312  0.0245 -0.2685
    1AU       S  423   6.918   4.803   7.849 -0.1794  0.1830 -0.3242
    1AU     LIG  424   6.902   4.369   7.841 -0.2298 -0.0153  0.1200
    1AU     LIG  425   6.795   3.993   7.745  0.1583  0.0676 -0.0273
    1AU     LIG  426   6.755   3.589   7.760 -0.1247  0.0841  0.0392
    1AU     LIG  427   6.919   3.302   7.545 -0.0272 -0.0005  0.0517
    1AU     LIG  428   6.987   2.870   7.465  0.1444  0.1599 -0.0083
    1AU     LIG  429   7.180   2.450   7.512  0.1860 -0.1210  0.2465
    1AU    AUSL  430   6.451   5.182   7.846 -0.0783  0.0106 -0.0367
    1AU    AUSL  431   6.061   5.428   7.692 -0.0287 -0.0049 -0.0263
    1AU     AUL  432   6.111   5.250   8.131  0.0201 -0.0086 -0.0061
    1AU       S  433   5.578   4.947   7.812  0.0359  0.3164 -0.1902
    1AU     LIG  434   5.116   5.095   7.660  0.2407  0.0298  0.1777
    1AU     LIG  435   4.723   4.948   7.656  0.3109 -0.1365 -0.1114
    1AU     LIG  436   4.528   4.580   7.492 -0.3308  0.1255 -0.2068
    1AU     LIG  437   4.722   4.170   7.375 -0.2842  0.1059 -0.1416
    1AU     LIG  438   4.788   3.756   7.198 -0.4002 -0.0290  0.2695
    1AU     LIG  439   4.675   3.506   6.829 -0.2654  0.1547  0.0789
    1AU       S  440   6.546   5.106   8.163 -0.0310 -0.3176  0.3801
    1AU     LIG  441   6.519   4.749   8.184  0.3272 -0.0118 -0.0738
    1AU     LIG  442   6.545   4.253   8.130 -0.5601 -0.0409  0.1214
    1AU     LIG  443   6.575   3.799   8.225 -0.2758  0.0323  0.0510
    1AU     LIG  444   6.827   3.477   8.248 -0.1471  0.1911 -0.0981
    1AU     LIG  445   7.194   3.389   8.116 -0.1267 -0.4221 -0.2195
    1AU     LIG  446   7.322   3.015   7.876  0.1129 -0.2689 -0.0421
    1AU    AUSL  447   5.595   5.815   6.973 -0.0293  0.0558  0.0405
    1AU    AUSL  448   5.630   5.386   7.042  0.0283  0.1164  0.1425
    1AU     AUL  449   5.283   5.779   7.048 -0.0474  0.0234 -0.0579
    1AU       S  450   5.209   5.894   6.621  0.2304 -0.1069  0.3522
    1AU     LIG  451   4.888   5.500   6.449  0.0263 -0.3325  0.0115
    1AU     LIG  452   4.461   5.265   6.339  0.0297  0.1405 -0.1143
    1AU     LIG  453   4.063   5.242   6.476 -0.4228 -0.5013 -0.1459
    1AU     LIG  454   3.797   5.537   6.584  0.1057 -0.1657  0.1074
    1AU     LIG  455   3.408   5.404   6.811  0.3138 -0.1516  0.3447
    1AU     LIG  456   3.223   5.363   7.312  0.1019 -0.2775 -0.2134
    1AU       S  457   5.079   5.372   6.947 -0.2241  0.1655 -0.0907
    1AU     LIG  458   4.645   5.396   6.844 -0.0508  0.0060 -0.1603
    1AU     LIG  459   4.353   5.645   6.607  0.0309 -0.1424 -0.2050
    1AU     LIG  460   3.977   6.000   6.706  0.1231 -0.0891 -0.0045
    1AU     LIG  461   3.681   6.141   6.977 -0.3824 -0.2065 -0.0552
    1AU     LIG  462   3.366   6.163   7.408 -0.3333 -0.0226 -0.1510
    1AU     LIG  463   3.252   5.994   7.722  0.3233  0.2535 -0.0152
    1AU    AUSL  464   5.755   5.850   6.590  0.1020 -0.0109 -0.0529
    1AU    AUSL  465   5.685   6.169   7.205  0.0007  0.0910 -0.0873
    1AU     AUL  466   5.582   6.103   6.804 -0.0188 -0.0189 -0.0438
    1AU       S  467   5.322   5.992   6.460  0.0384  0.2704  0.2965
    1AU     LIG  468   5.390   6.447   6.325  0.0463  0.0759 -0.1362
    1AU     LIG  469   5.211   6.874   6.385 -0.0432  0.0860 -0.2126
    1AU     LIG  470   4.885   7.154   6.288  0.1368 -0.1339  0.3606
    1AU     LIG  471   4.508   7.251   6.025  0.0804  0.3177  0.2939
    1AU     LIG  472   4.123   7.409   5.792  0.0084 -0.2372  0.4069
    1AU     LIG  473   3.644   7.514   5.683  0.0886 -0.2484 -0.0942
    1AU       S  474   5.713   6.449   7.076 -0.2323 -0.0634  0.2907
    1AU     LIG  475   5.300   6.573   6.830 -0.4015  0.2758  0.1126
    1AU     LIG  476   4.890   6.653   6.672 -0.4257  0.1966 -0.1203
    1AU     LIG  477   4.483   6.722   7.072  0.2516  0.1122  0.2120
    1AU     LIG  478   4.054   6.724   7.032  0.1244 -0.2915  0.2361
    1AU     LIG  479   3.588   6.730   7.082  0.2192 -0.1163 -0.0362
    1AU     LIG  480   3.273   7.152   6.977 -0.2286  0.3183 -0.0109
    1AU    AUSL  481   5.459   5.517   6.683  0.0389  0.0595 -0.0352
    1AU    AUSL  482   6.005   5.664   6.323 -0.0726  0.0586 -0.0423
    1AU     AUL  483   5.660   5.690   6.338  0.0216  0.0742  0.1251
    1AU       S  484   5.883   5.602   5.927  0.0272 -0.2853  0.1151
    1AU     LIG  485   5.996   5.996   5.759 -0.2399 -0.0597  0.2279
    1AU     LIG  486   6.045   6.241   5.441 -0.0325  0.1234  0.0348
    1AU     LIG  487   6.408   6.364   5.161 -0.0590  0.3611 -0.3459
    1AU     LIG  488   6.752   6.138   5.079  0.1943 -0.0288  0.2277
    1AU     LIG  489   6.790   5.728   5.104 -0.1573  0.1078  0.0479
    1AU     LIG  490   6.591   5.399   5.188 -0.1104 -0.0431 -0.0172
    1AU       S  491   5.323   5.638   6.631 -0.3423  0.3021  0.0696
    1AU     LIG  492   5.227   5.616   6.129  0.1481 -0.0740  0.3279
    1AU     LIG  493   5.354   5.672   5.713  0.1664  0.0923 -0.0629
    1AU     LIG  494   5.691   5.697   5.446 -0.1706  0.2606 -0.0213
    1AU     LIG  495   5.806   5.691   5.079 -0.1947  0.1080 -0.2246
    1AU     LIG  496   5.589   5.822   4.734 -0.5799 -0.3040  0.2730
    1AU     LIG  497   5.499   5.679   4.395  0.1158 -0.0981  0.2294
    1AU    AUSL  498   6.975   5.030   7.301  0.0512  0.0056  0.0402
    1AU    AUSL  499   6.410   4.992   7.430  0.0341 -0.0301 -0.0544
    1AU     AUL  500   6.791   4.694   7.411  0.0129 -0.0323 -0.0281
    1AU       S  501   7.203   4.826   7.483  0.3359 -0.0524 -0.0628
    1AU     LIG  502   7.271   4.473   7.420  0.2562 -0.2681  0.4483
    1AU     LIG  503   7.199   4.024   7.389 -0.0593  0.1821  0.3449
    1AU     LIG  504   7.206   3.738   7.614  0.2714  0.0889 -0.0277
    1AU     LIG  505   7.388   3.347   7.489 -0.0041 -0.3041 -0.4461
    1AU     LIG  506   7.752   3.169   7.620 -0.1858 -0.0773  0.0681
    1AU     LIG  507   8.184   3.290   7.604 -0.1941  0.1395  0.3123
    1AU       S  508   6.404   4.392   7.335 -0.2459 -0.2079 -0.0452
    1AU     LIG  509   6.387   4.072   6.936  0.3670  0.1378 -0.1735
    1AU     LIG  510   6.533   3.627   6.799  0.1191 -0.0414 -0.0181
    1AU     LIG  511   6.797   3.243   6.812  0.0442 -0.2572 -0.1744
    1AU     LIG  512   7.184   3.134   7.034 -0.0115  0.1841 -0.1457
    1AU     LIG  513   7.508   2.826   7.302  0.3388  0.1373 -0.2554
    1AU     LIG  514   7.590   2.621   7.652  0.1658  0.0975  0.2999
    1AU    AUSL  515   6.744   5.309   7.548  0.0201  0.0190 -0.0526
    1AU    AUSL  516   6.770   5.328   7.124  0.0275 -0.0723 -0.0906
    1AU     AUL  517   7.087   5.282   7.500 -0.0584  0.0120  0.0113
    1AU       S  518   7.130   4.891   7.744 -0.7110  0.0456 -0.1560
    1AU     LIG  519   7.573   5.006   7.706  0.2698 -0.1214 -0.1491
    1AU     LIG  520   7.822   4.777   7.485  0.0366  0.0485 -0.2809
    1AU     LIG  521   8.146   4.589   7.664 -0.1195 -0.1726  0.3231
    1AU     LIG  522   8.431   4.489   7.915 -0.4174 -0.4278  0.0245
    1AU     LIG  523   8.865   4.504   7.984  0.1590  0.2281 -0.2113
    1AU     LIG  524   8.846   4.086   7.780 -0.2990  0.1045  0.1485
    1AU       S  525   7.335   5.292   7.126  0.0380 -0.2923  0.0479
    1AU     LIG  526   7.538   4.884   7.044  0.2824 -0.1996  0.3400
    1AU     LIG  527   7.853   4.722   6.944  0.4779 -0.1918  0.3599
    1AU     LIG  528   8.246   4.630   6.806 -0.2744 -0.1209  0.2496
    1AU     LIG  529   8.716   4.549   6.902  0.2601  0.2438  0.2628
    1AU     LIG  530   8.968   4.286   6.941  0.0717  0.0487 -0.4302
    1AU     LIG  531   9.237   4.127   6.532  0.1451 -0.0850  0.2778
    1AU    AUSL  532   6.035   5.210   6.304 -0.0654 -0.0780  0.0337
    1AU    AUSL  533   6.214   5.701   6.675  0.0746 -0.0615 -0.0640
    1AU     AUL  534   6.226   5.515   6.224  0.0948 -0.0017 -0.1132
    1AU       S  535   6.261   5.990   6.155 -0.0922 -0.1198  0.0556
    1AU     LIG  536   6.290   6.501   6.134  0.0892 -0.1108 -0.4910
    1AU     LIG  537   6.054   6.887   6.116  0.1269  0.0780 -0.1064
    1AU     LIG  538   5.978   7.346   6.061 -0.3712 -0.1672  0.0037
    1AU     LIG  539   5.894   7.828   5.850  0.3604  0.0303 -0.1078
    1AU     LIG  540   5.918   8.280   5.791  0.0976  0.4087 -0.4357
    1AU     LIG  541   5.674   8.589   5.593 -0.0840  0.1681 -0.2302
    1AU       S  542   5.910   5.254   5.989 -0.0127  0.2159 -0.1587
    1AU     LIG  543   6.046   5.005   5.786  0.1505  0.1355  0.1509
    1AU     LIG  544   6.079   4.604   5.561 -0.5351  0.0239  0.1842
    1AU     LIG  545   6.006   4.160   5.535 -0.3099  0.0347  0.1004
    1AU     LIG  546   5.944   3.947   5.878 -0.0923  0.1187  0.2803
    1AU     LIG  547   6.124   3.531   5.953 -0.0139 -0.2532 -0.2662
    1AU     LIG  548   5.870   3.097   5.814  0.2231 -0.0778 -0.0777
    1AU    AUSL  549   5.856   5.423   6.641 -0.1388  0.0223 -0.0415
    1AU    AUSL  550   6.146   5.114   6.690  0.0576 -0.0772  0.0430
    1AU     AUL  551   5.705   5.209   6.382 -0.0241 -0.0361  0.0220
    1AU       S  552   5.782   5.413   5.994 -0.0612 -0.4100 -0.2588
    1AU     LIG  553   5.525   4.983   5.858 -0.4132  0.5095  0.4122
    1AU     LIG  554   5.210   4.724   5.801  0.1194 -0.0816  0.1160
    1AU     LIG  555   4.914   4.490   6.017 -0.0139 -0.0250  0.0013
    1AU     LIG  556   4.573   4.497   6.413  0.2017  0.3046  0.0789
    1AU     LIG  557   4.207   4.254   6.663 -0.0634 -0.2399  0.1470
    1AU     LIG  558   3.895   3.968   6.659 -0.4208  0.3366 -0.1157
    1AU       S  559   5.992   4.767   6.222  0.2004  0.0834  0.2429
    1AU     LIG  560   5.749   4.436   5.942  0.3555  0.3557 -0.1174
    1AU     LIG  561   5.445   4.108   5.870  0.0140  0.1106 -0.0809
    1AU     LIG  562   5.281   3.866   6.078  0.2293 -0.1519  0.0843
    1AU     LIG  563   5.439   3.480   6.259  0.1931  0.0318  0.2738
    1AU     LIG  564   5.799   3.273   6.307 -0.1822  0.3896  0.0223
    1AU     LIG  565   6.060   2.886   6.300  0.1286 -0.0921 -0.0558
    2POPC   NC3  566   5.786   9.630   8.596 -0.1080 -0.1995 -0.1114
    2POPC   PO4  567   6.055   9.999   8.511 -0.2318 -0.1457 -0.0919
    2POPC   GL1  568   6.257  10.107   8.172 -0.0428  0.1860  0.0118
    2POPC   GL2  569   6.310  10.465   8.192  0.1358  0.1225 -0.0647
    2POPC   C1A  570   6.233   9.913   7.747 -0.1137 -0.1632 -0.1376
    2POPC   D2A  571   6.160   9.762   7.422 -0.1809 -0.0621 -0.0228
    2POPC   C3A  572   5.923  10.042   7.100 -0.4299  0.1734  0.3850
    2POPC   C4A  573   5.683  10.483   7.008  0.0552  0.1902 -0.1910
    2POPC   C1B  574   6.315  10.629   7.767  0.2993  0.0955  0.1403
    2POPC   C2B  575   6.258  10.833   7.294 -0.0884 -0.0340 -0.2851
    2POPC   C3B  576   6.126  11.018   6.938 -0.0126 -0.1531  0.1765
    2POPC   C4B  577   5.717  10.927   6.624  0.0495 -0.1842  0.0843
    3POPC   NC3  578   7.688   9.059   8.737 -0.0501 -0.0899 -0.0487
    3POPC   PO4  579   8.023   8.931   8.995  0.0710  0.3430 -0.2705
    3POPC   GL1  580   8.164   8.991   8.484  0.1170 -0.0118  0.0399
    3POPC   GL2  581   8.067   8.744   8.544  0.2861  0.0293  0.0549
    3POPC   C1A  582   7.983   9.296   8.127 -0.0542 -0.3643  0.0192
    3POPC   D2A  583   7.911   9.369   7.767 -0.0002 -0.0654  0.1255
    3POPC   C3A  584   7.578   9.692   7.533  0.1169  0.2244 -0.2099
    3POPC   C4A  585   7.284   9.757   7.399 -0.1327  0.1380 -0.2004
    3POPC   C1B  586   7.973   8.703   8.105  0.2003 -0.0154 -0.0247
    3POPC   C2B  587   8.055   8.750   7.612 -0.3008  0.1592  0.0931
    3POPC   C3B  588   8.133   8.755   7.187  0.0121  0.0309  0.3150
    3POPC   C4B  589   8.073   8.835   6.817  0.2708  0.3921 -0.4774
    4POPC   NC3  590   4.684   1.845   9.047 -0.0524  0.1751  0.3351
    4POPC   PO4  591   4.359   1.684   8.787  0.0764 -0.1239 -0.1959
    4POPC   GL1  592   4.352   1.834   8.384  0.1021 -0.2158 -0.1978
    4POPC   GL2  593   4.218   2.161   8.356 -0.3181 -0.0863 -0.2216
    4POPC   C1A  594   4.570   1.724   8.027  0.1480 -0.0724 -0.0146
    4POPC   D2A  595   4.747   1.944   7.637 -0.1789 -0.2941 -0.2641
    4POPC   C3A  596   5.175   1.738   7.479 -0.0712  0.3032 -0.0334
    4POPC   C4A  597   5.071   1.479   7.103 -0.0761  0.1648  0.2951
    4POPC   C1B  598   4.151   2.022   7.975 -0.0344 -0.1017  0.0445
    4POPC   C2B  599   4.211   2.048   7.564 -0.2455 -0.0845 -0.1709
    4POPC   C3B  600   4.380   2.051   7.090 -0.3125  0.1333  0.2145
    4POPC   C4B  601   4.665   2.127   6.658  0.0551 -0.0318 -0.0274
    5POPC   NC3  602   3.049   0.234   9.012 -0.1450 -0.0150 -0.0010
    5POPC   PO4  603   2.845   0.643   8.888 -0.1778 -0.0028 -0.0686
    5POPC   GL1  604   2.559   0.852   8.740 -0.0679  0.1810 -0.1015
    5POPC   GL2  605   2.363   0.570   8.437 -0.2546  0.0179 -0.0099
    5POPC   C1A  606   2.300   1.196   8.595  0.2221  0.0649  0.0292
    5POPC   D2A  607   2.010   1.305   8.708 -0.0682  0.1813  0.4436
    5POPC   C3A  608   1.706   1.195   8.483  0.1711  0.1807 -0.0306
    5POPC   C4A  609   1.306   1.081   8.170  0.1566 -0.2622  0.0333
    5POPC   C1B  610   2.564   0.785   8.153 -0.3364  0.0471  0.3850
    5POPC   C2B  611   2.669   0.757   7.759  0.1228 -0.1793  0.1326
    5POPC   C3B  612   2.767   0.891   7.312 -0.1648  0.1843 -0.2003
    5POPC   C4B  613   2.822   1.149   6.937 -0.0738  0.3627 -0.1060
    6POPC   NC3  614   6.833   6.107   8.407 -0.0341 -0.2357  0.2069
    6POPC   PO4  615   7.042   5.860   8.132  0.0161  0.0012 -0.1355
    6POPC   GL1  616   7.195   5.722   7.828 -0.1066 -0.1964  0.2823
    6POPC   GL2  617   7.397   5.547   7.867  0.0386 -0.0485 -0.2613
    6POPC   C1A  618   7.477   5.938   7.502  0.3545 -0.0393  0.1100
    6POPC   D2A  619   7.851   5.786   7.245 -0.1759 -0.0398 -0.0533
    6POPC   C3A  620   8.028   6.095   7.060 -0.2020  0.0523  0.2411
    6POPC   C4A  621   7.869   6.333   6.751  0.1752  0.2777  0.0751
    6POPC   C1B  622   7.861   5.692   7.782 -0.2225  0.3701  0.1049
    6POPC   C2B  623   8.314   5.795   7.569 -0.3442 -0.0725  0.1110
    6POPC   C3B  624   8.681   5.829   7.405 -0.0998  0.2722 -0.2399
    6POPC   C4B  625   9.103   5.938   7.477  0.0389 -0.0559  0.1311
    7POPC   NC3  626   2.771   9.950   9.671  0.1843  0.0346 -0.1014
    7POPC   PO4  627   2.326   9.821   9.760 -0.1395  0.1422  0.1434
    7POPC   GL1  628   2.426   9.784   9.383  0.0489  0.3546  0.2088
    7POPC   GL2  629   2.511   9.922   9.098  0.0568 -0.1509  0.1694
    7POPC   C1A  630   2.420   9.450   8.993  0.1579 -0.1227  0.4612
    7POPC   D2A  631   2.337   9.489   8.540 -0.2292 -0.1655  0.2550
    7POPC   C3A  632   2.439   9.194   8.213 -0.2088  0.0371 -0.0353
    7POPC   C4A  633   2.868   9.147   7.821 -0.1948 -0.2271 -0.0911
    7POPC   C1B  634   2.427   9.979   8.740  0.0347 -0.3148  0.0272
    7POPC   C2B  635   2.584  10.147   8.431  0.0628 -0.2466  0.2416
    7POPC   C3B  636   2.412  10.048   7.991 -0.0559 -0.2087  0.0943
    7POPC   C4B  637   2.243  10.004   7.585  0.0052 -0.0882 -0.0642
    8POPC   NC3  638   0.808   8.970   9.479 -0.2723  0.0587  0.1228
    8POPC   PO4  639   0.440   9.169   9.494 -0.0835 -0.3536  0.0072
    8POPC   GL1  640   0.299   9.211   9.110  0.1543  0.2832  0.0439
    8POPC   GL2  641  -0.020   9.099   8.990  0.0551  0.2882 -0.0249
    8POPC   C1A  642   0.426   9.181   8.714  0.3210 -0.1603 -0.2485
    8POPC   D2A  643   0.405   9.108   8.269  0.0477  0.0909 -0.2919
    8POPC   C3A  644   0.315   8.885   7.954 -0.0065 -0.1185 -0.2786
    8POPC   C4A  645   0.321   8.730   7.604  0.0747 -0.1217  0.0680
    8POPC   C1B  646  -0.050   9.069   8.554  0.2477  0.0749  0.1631
    8POPC   C2B  647  -0.020   9.356   8.171  0.0853  0.0256  0.1570
    8POPC   C3B  648   0.103   9.656   7.805 -0.0789  0.1696 -0.3537
    8POPC   C4B  649   0.197   9.805   7.410 -0.0094  0.1092 -0.0676
    9POPC   NC3  650   8.718   1.373   9.360 -0.0775  0.1059  0.0007
    9POPC   PO4  651   8.603   0.975   9.448  0.0765 -0.1219  0.2684
    9POPC   GL1  652   8.545   1.114   8.966  0.0803  0.2440  0.0223
    9POPC   GL2  653   8.421   0.839   8.717  0.0524  0.1019 -0.3208
    9POPC   C1A  654   8.294   1.297   8.538  0.1449 -0.0394  0.1359
    9POPC   D2A  655   8.386   1.187   8.123  0.1282 -0.1380 -0.0361
    9POPC   C3A  656   8.029   1.369   7.750 -0.1698 -0.1255 -0.0859
    9POPC   C4A  657   7.760   1.420   7.423  0.4436  0.1354  0.0699
    9POPC   C1B  658   8.688   0.724   8.369 -0.0781 -0.3221  0.0745
    9POPC   C2B  659   8.939   0.855   8.100  0.3358  0.0265  0.1398
    9POPC   C3B  660   8.872   0.955   7.718 -0.0562  0.0595  0.1038
    9POPC   C4B  661   9.077   1.255   7.577 -0.2119  0.0481 -0.1242
   10POPC   NC3  662   6.151   1.490   9.364  0.1207 -0.0153 -0.2003
   10POPC   PO4  663   6.422   1.791   9.561  0.0914  0.2092  0.1065
   10POPC   GL1  664   6.470   2.054   9.299 -0.1469  0.1389  0.0546
   10POPC   GL2  665   6.141   2.028   9.169  0.1543 -0.0473 -0.1365
   10POPC   C1A  666   6.747   2.026   8.988  0.2906 -0.0904  0.2465
   10POPC   D2A  667   6.873   1.791   8.660  0.2602  0.2481  0.1212
   10POPC   C3A  668   6.782   1.863   8.198  0.0498 -0.0231 -0.3444
   10POPC   C4A  669   6.658   1.966   7.756  0.0872 -0.0928 -0.2314
   10POPC   C1B  670   5.909   2.100   8.767 -0.0087  0.2460 -0.1780
   10POPC   C2B  671   5.913   2.252   8.350 -0.0732  0.4307 -0.1674
   10POPC   C3B  672   6.049   2.358   8.005 -0.0045  0.2673 -0.1400
   10POPC   C4B  673   5.875   2.682   7.813  0.0648  0.3286  0.4560
   11POPC   NC3  674   6.231   7.727   9.073 -0.0042  0.0422 -0.0802
   11POPC   PO4  675   6.474   7.423   8.778 -0.2410  0.0793 -0.0531
   11POPC   GL1  676   6.298   7.770   8.580  0.0173  0.2591  0.2552
   11POPC   GL2  677   6.464   8.049   8.350 -0.1589 -0.0654 -0.3815
   11POPC   C1A  678   6.030   7.830   8.204  0.0562 -0.3863 -0.2232
   11POPC   D2A  679   5.625   7.832   8.088 -0.1987 -0.1228 -0.0179
   11POPC   C3A  680   5.367   7.616   8.405  0.1039 -0.1483 -0.1986
   11POPC   C4A  681   4.984   7.370   8.513  0.2656 -0.2784 -0.0417
   11POPC   C1B  682   6.786   7.903   8.114 -0.2203 -0.0938 -0.1416
   11POPC   C2B  683   7.273   7.872   8.034 -0.3344  0.0717  0.0836
   11POPC   C3B  684   7.658   7.800   7.742 -0.0506  0.2117  0.1111
   11POPC   C4B  685   7.637   7.628   7.307  0.1578  0.1130 -0.0467
   12POPC   NC3  686   8.317   0.632   9.647 -0.0900 -0.0708 -0.2330
   12POPC   PO4  687   8.005   0.927   9.651  0.1764 -0.1621  0.0606
   12POPC   GL1  688   7.757   1.002   9.161  0.0786  0.1777  0.1604
   12POPC   GL2  689   7.727   0.703   8.997 -0.0462 -0.2392  0.2011
   12POPC   C1A  690   7.816   1.145   8.730  0.0547  0.0207  0.0842
   12POPC   D2A  691   7.823   1.103   8.286  0.0763  0.0301  0.0468
   12POPC   C3A  692   7.525   1.359   8.041 -0.1911 -0.1903 -0.1382
   12POPC   C4A  693   7.670   1.786   7.869  0.1184 -0.1010  0.1070
   12POPC   C1B  694   7.890   0.641   8.559  0.2870 -0.0160 -0.1881
   12POPC   C2B  695   7.831   0.525   8.234  0.0855  0.3063  0.1110
   12POPC   C3B  696   7.799   0.525   7.818 -0.1084 -0.1755 -0.2896
   12POPC   C4B  697   7.884   0.892   7.501 -0.1838  0.0977  0.0252
   13POPC   NC3  698   8.210   6.496   8.890  0.0014 -0.2331 -0.1591
   13POPC   PO4  699   7.863   6.295   8.966  0.0346  0.4237 -0.2476
   13POPC   GL1  700   7.777   6.264   8.530  0.0768 -0.1429  0.1681
   13POPC   GL2  701   7.939   6.050   8.337 -0.0049 -0.1372 -0.0784
   13POPC   C1A  702   7.627   6.604   8.369 -0.0903  0.0560 -0.1120
   13POPC   D2A  703   7.725   7.043   8.180 -0.0567 -0.1550 -0.1594
   13POPC   C3A  704   7.852   6.907   7.695 -0.1484 -0.0752  0.1718
   13POPC   C4A  705   7.921   6.724   7.195  0.0748 -0.1313 -0.1518
   13POPC   C1B  706   8.146   6.107   7.942  0.1678  0.0541 -0.1846
   13POPC   C2B  707   7.958   6.137   7.545  0.0480 -0.1972  0.1504
   13POPC   C3B  708   7.581   6.348   7.275 -0.2471  0.3094  0.1466
   13POPC   C4B  709   7.417   6.497   6.928 -0.2494  0.1788  0.1423
   14POPC   NC3  710   7.595   8.024   8.784  0.1358  0.0221  0.0043
   14POPC   PO4  711   7.261   8.269   8.575  0.0907  0.0306 -0.0370
   14POPC   GL1  712   7.055   8.310   8.187  0.1373 -0.0597  0.0182
   14POPC   GL2  713   6.785   8.513   8.211 -0.0061  0.0435  0.0537
   14POPC   C1A  714   7.176   8.267   7.726 -0.0304  0.0362 -0.2583
   14POPC   D2A  715   7.381   8.101   7.313  0.0703 -0.0232  0.2194
   14POPC   C3A  716   7.457   8.020   6.963 -0.0780  0.0675  0.1211
   14POPC   C4A  717   7.650   8.251   6.654 -0.0721  0.1332 -0.2157
   14POPC   C1B  718   6.762   8.544   7.781  0.3251 -0.0081 -0.0088
   14POPC   C2B  719   6.774   8.605   7.429  0.1737  0.0185  0.1848
   14POPC   C3B  720   6.803   8.651   6.998 -0.3317  0.1407 -0.0780
   14POPC   C4B  721   6.560   8.499   6.728  0.1484 -0.0308 -0.0666
   15POPC   NC3  722   7.353   2.889   9.822  0.0756  0.0085  0.1504
   15POPC   PO4  723   7.511   2.463   9.726  0.1360  0.0564 -0.1559
   15POPC   GL1  724   7.630   2.296   9.292  0.1240 -0.0522  0.1144
   15POPC   GL2  725   7.611   2.075   9.133 -0.0576 -0.0869 -0.3054
   15POPC   C1A  726   7.525   2.602   9.027 -0.0854  0.1871  0.0052
   15POPC   D2A  727   7.817   2.943   8.839 -0.2480  0.3147  0.1088
   15POPC   C3A  728   7.931   3.056   8.542 -0.1639  0.0173  0.0659
   15POPC   C4A  729   7.928   2.898   8.150 -0.0429  0.6974 -0.2052
   15POPC   C1B  730   7.767   2.103   8.731 -0.0721 -0.1280  0.3215
   15POPC   C2B  731   7.704   2.005   8.340 -0.0173 -0.2018 -0.1063
   15POPC   C3B  732   7.642   2.281   8.011 -0.0747 -0.0855 -0.0316
   15POPC   C4B  733   7.723   2.190   7.524 -0.1646 -0.3980 -0.3695
   16POPC   NC3  734   8.643   9.458   9.123 -0.0470  0.3394  0.0034
   16POPC   PO4  735   8.541   9.095   8.922  0.0219 -0.0314 -0.1618
   16POPC   GL1  736   8.462   9.352   8.632 -0.1926  0.1191 -0.0301
   16POPC   GL2  737   8.688   9.440   8.432 -0.1017 -0.5022  0.0515
   16POPC   C1A  738   8.239   9.636   8.536 -0.1742  0.0783 -0.0655
   16POPC   D2A  739   7.976   9.979   8.361 -0.0540 -0.1224  0.1773
   16POPC   C3A  740   7.813  10.291   8.609  0.0796  0.2425  0.1160
   16POPC   C4A  741   7.502  10.621   8.567 -0.1637 -0.1412  0.0424
   16POPC   C1B  742   8.601   9.151   8.175  0.0403 -0.2622  0.3520
   16POPC   C2B  743   8.339   9.151   7.786  0.0238 -0.2000 -0.0766
   16POPC   C3B  744   8.548   9.049   7.348  0.0625 -0.0815 -0.0646
   16POPC   C4B  745   8.605   9.048   6.863  0.1228  0.3232 -0.2034
   17POPC   NC3  746   7.409   8.700   8.867 -0.0424  0.1292  0.1449
   17POPC   PO4  747   7.076   8.730   8.755  0.4496 -0.3229 -0.2457
   17POPC   GL1  748   7.198   8.817   8.306 -0.0529 -0.2464  0.0499
   17POPC   GL2  749   7.553   8.785   8.378  0.2284 -0.2145  0.2595
   17POPC   C1A  750   7.139   8.840   7.868 -0.2850 -0.1968  0.1341
   17POPC   D2A  751   7.273   8.757   7.359  0.1209  0.1459 -0.1310
   17POPC   C3A  752   7.305   9.122   7.112  0.1146 -0.0319 -0.1111
   17POPC   C4A  753   6.898   9.117   6.787  0.0968 -0.2909  0.1381
   17POPC   C1B  754   7.539   8.492   7.967  0.2115 -0.2739  0.1541
   17POPC   C2B  755   7.634   8.523   7.557  0.3541 -0.0875 -0.0370
   17POPC   C3B  756   7.656   8.601   7.045  0.0629  0.0520 -0.1115
   17POPC   C4B  757   7.279   8.537   6.832  0.1969  0.1640 -0.2814
   18POPC   NC3  758   3.915   5.714   9.627 -0.1018  0.0938  0.1400
   18POPC   PO4  759   3.508   5.682   9.502  0.1763  0.0733  0.1543
   18POPC   GL1  760   3.400   5.309   9.148  0.1954 -0.1358 -0.3688
   18POPC   GL2  761   3.049   5.261   8.989  0.0247 -0.0919  0.3021
   18POPC   C1A  762   3.354   4.893   8.852 -0.0086  0.0995 -0.1595
   18POPC   D2A  763   3.392   4.494   8.951  0.2374 -0.1600  0.0398
   18POPC   C3A  764   3.091   4.208   8.698  0.2926  0.4477  0.0105
   18POPC   C4A  765   3.071   3.903   8.467  0.0539 -0.1829  0.0295
   18POPC   C1B  766   3.114   5.391   8.553 -0.1446  0.0519 -0.4353
   18POPC   C2B  767   3.057   5.585   8.057 -0.2364  0.0744  0.2359
   18POPC   C3B  768   3.249   5.309   7.828 -0.0674  0.1852  0.0287
   18POPC   C4B  769   3.235   4.847   7.645 -0.0045 -0.0994 -0.2406
   19POPC   NC3  770   3.957   4.764  10.348 -0.0616  0.3354 -0.2903
   19POPC   PO4  771   4.111   4.854  10.052  0.0053 -0.3068  0.0123
   19POPC   GL1  772   4.047   4.731   9.533  0.1491  0.1587  0.0080
   19POPC   GL2  773   4.364   4.749   9.354  0.0429  0.0478 -0.0946
   19POPC   C1A  774   3.918   4.790   9.093 -0.2080  0.0835 -0.0332
   19POPC   D2A  775   3.842   4.703   8.674 -0.2637  0.0816  0.3586
   19POPC   C3A  776   3.511   4.523   8.441 -0.0209 -0.2866  0.0454
   19POPC   C4A  777   3.182   4.651   8.168  0.1082  0.2435 -0.1293
   19POPC   C1B  778   4.392   4.439   8.967 -0.1903 -0.0035  0.1156
   19POPC   C2B  779   4.277   4.515   8.482 -0.2901 -0.0602  0.0332
   19POPC   C3B  780   4.131   4.651   8.244 -0.4985 -0.1772  0.0047
   19POPC   C4B  781   3.934   5.030   8.287 -0.1598  0.1906 -0.0074
   20POPC   NC3  782   0.340   8.115   9.438 -0.2459  0.1927 -0.0599
   20POPC   PO4  783   0.742   7.804   9.298 -0.0587  0.2027 -0.0158
   20POPC   GL1  784   0.720   7.797   8.870 -0.1919 -0.0954  0.1421
   20POPC   GL2  785   0.953   7.616   8.656 -0.1153 -0.0820 -0.6300
   20POPC   C1A  786   0.524   7.670   8.408  0.1283 -0.1190 -0.1475
   20POPC   D2A  787   0.142   7.683   8.243 -0.2266 -0.0984  0.1254
   20POPC   C3A  788   0.169   7.311   7.942  0.1179  0.0649  0.3898
   20POPC   C4A  789  -0.066   7.284   7.608  0.2499 -0.2167 -0.0854
   20POPC   C1B  790   1.079   7.580   8.182  0.0079 -0.1491 -0.1142
   20POPC   C2B  791   1.280   7.452   7.781  0.1786  0.1907 -0.1270
   20POPC   C3B  792   1.207   7.262   7.383 -0.2317 -0.0171  0.1459
   20POPC   C4B  793   1.084   7.157   7.000 -0.0147 -0.2318 -0.0307
   21POPC   NC3  794   8.360   4.077   9.852  0.0721  0.0573  0.1619
   21POPC   PO4  795   8.002   4.230   9.874 -0.0101 -0.2265 -0.0177
   21POPC   GL1  796   8.025   3.998   9.516  0.1176  0.2031  0.2824
   21POPC   GL2  797   8.126   3.649   9.634 -0.2303  0.4243  0.1439
   21POPC   C1A  798   7.699   3.806   9.345  0.3658 -0.2554 -0.1286
   21POPC   D2A  799   7.321   3.890   9.092 -0.1201 -0.0781 -0.1721
   21POPC   C3A  800   7.120   3.570   9.042  0.0285  0.1942 -0.1257
   21POPC   C4A  801   6.758   3.385   9.180  0.0610  0.3688 -0.1164
   21POPC   C1B  802   7.983   3.427   9.299  0.0137 -0.4519 -0.3871
   21POPC   C2B  803   7.736   3.513   8.963  0.1693  0.2439 -0.0002
   21POPC   C3B  804   7.726   3.491   8.397  0.0890  0.1021 -0.0126
   21POPC   C4B  805   8.069   3.516   8.045 -0.0453 -0.4011 -0.1510
   22POPC   NC3  806   8.722   7.252   9.182  0.0270 -0.0703 -0.0065
   22POPC   PO4  807   8.871   7.702   9.081  0.0874 -0.0159 -0.1486
   22POPC   GL1  808   9.103   7.729   8.770  0.0227 -0.0818 -0.3337
   22POPC   GL2  809   8.890   7.558   8.596  0.2137  0.0005 -0.0677
   22POPC   C1A  810   9.208   7.927   8.366  0.0770 -0.2158  0.2865
   22POPC   D2A  811   9.620   7.949   8.165  0.0274 -0.0557  0.0673
   22POPC   C3A  812   9.769   8.271   8.306 -0.3826 -0.2046 -0.0198
   22POPC   C4A  813   9.978   8.601   8.551 -0.1139 -0.0943  0.2323
   22POPC   C1B  814   9.049   7.216   8.335  0.0519  0.0428 -0.0460
   22POPC   C2B  815   9.041   7.139   7.939  0.2496  0.0145 -0.0179
   22POPC   C3B  816   8.923   7.083   7.497 -0.2574  0.1098 -0.2328
   22POPC   C4B  817   8.765   7.191   7.105 -0.0822 -0.0065  0.0466
   23POPC   NC3  818   8.196   0.771   9.203 -0.2271 -0.1886  0.0283
   23POPC   PO4  819   8.553   0.526   9.137 -0.2411 -0.1898  0.1524
   23POPC   GL1  820   8.873   0.670   8.819  0.0053  0.2843 -0.1152
   23POPC   GL2  821   9.020   1.016   8.805  0.2797 -0.0971 -0.2002
   23POPC   C1A  822   9.184   0.464   8.441 -0.1193  0.1682 -0.0977
   23POPC   D2A  823   9.353   0.313   8.124  0.1410 -0.1871 -0.1231
   23POPC   C3A  824   9.375   0.666   7.842 -0.0149 -0.3128  0.1092
   23POPC   C4A  825   9.254   0.828   7.443 -0.0861  0.0328  0.1166
   23POPC   C1B  826   8.768   1.201   8.507 -0.0760 -0.2671 -0.1738
   23POPC   C2B  827   8.911   1.342   8.084  0.1657 -0.1330  0.0337
   23POPC   C3B  828   8.837   1.604   7.827 -0.4815  0.0980 -0.0456
   23POPC   C4B  829   8.501   1.705   7.680  0.2102  0.2506  0.0476
   24POPC   NC3  830   0.097   6.357   9.236  0.0809 -0.2247  0.2197
   24POPC   PO4  831  -0.317   6.422   9.088 -0.2950 -0.0335  0.3030
   24POPC   GL1  832  -0.159   6.192   8.765  0.2808  0.3803  0.2290
   24POPC   GL2  833  -0.394   6.020   8.555 -0.0027 -0.3624  0.0760
   24POPC   C1A  834   0.152   6.251   8.368 -0.0061  0.0462  0.1158
   24POPC   D2A  835   0.141   6.400   8.037 -0.0181 -0.1651 -0.2158
   24POPC   C3A  836  -0.079   6.239   7.710 -0.1609 -0.1807 -0.2118
   24POPC   C4A  837  -0.289   6.363   7.279  0.0677 -0.0088  0.0523
   24POPC   C1B  838  -0.590   5.781   8.217 -0.0047 -0.1740  0.0486
   24POPC   C2B  839  -0.471   5.499   7.898  0.2015  0.0557 -0.1102
   24POPC   C3B  840  -0.598   5.425   7.534  0.0757 -0.1208  0.2060
   24POPC   C4B  841  -0.979   5.268   7.345  0.2426  0.0564 -0.0336
   25POPC   NC3  842   8.022  10.144   9.277 -0.1002  0.0704 -0.3383
   25POPC   PO4  843   8.252  10.517   9.358  0.2764 -0.0875 -0.0666
   25POPC   GL1  844   8.281  10.467   8.959 -0.2052 -0.0649  0.1531
   25POPC   GL2  845   8.133  10.709   8.832 -0.0732  0.1439 -0.2519
   25POPC   C1A  846   8.290  10.236   8.642  0.0640  0.0008 -0.1085
   25POPC   D2A  847   8.384  10.175   8.201  0.0498 -0.0017 -0.0262
   25POPC   C3A  848   8.580  10.370   7.858 -0.0455 -0.3756 -0.0085
   25POPC   C4A  849   8.608  10.182   7.445 -0.0555  0.1004  0.0270
   25POPC   C1B  850   8.237  10.630   8.399 -0.0307 -0.0663  0.0092
   25POPC   C2B  851   8.305  10.740   8.056 -0.0747  0.1696 -0.0397
   25POPC   C3B  852   8.317  11.141   7.766 -0.1733 -0.0474 -0.1340
   25POPC   C4B  853   8.376  11.463   7.469 -0.2849 -0.3457  0.0175
   26POPC   NC3  854   3.292   7.020   9.329  0.1098  0.3943 -0.0231
   26POPC   PO4  855   3.449   7.396   9.102 -0.0913  0.1671  0.0569
   26POPC   GL1  856   3.450   7.449   8.628  0.2351  0.0010  0.0138
   26POPC   GL2  857   3.771   7.368   8.394  0.0677 -0.1513 -0.2169
   26POPC   C1A  858   3.243   7.374   8.189  0.1850 -0.1427  0.1584
   26POPC   D2A  859   3.057   7.088   7.977 -0.3168 -0.0193  0.0938
   26POPC   C3A  860   3.206   6.706   7.793 -0.1523 -0.0767  0.0808
   26POPC   C4A  861   3.100   6.541   7.445 -0.1717  0.0753  0.2514
   26POPC   C1B  862   3.735   7.333   8.012  0.0224  0.0956 -0.0060
   26POPC   C2B  863   3.459   7.181   7.646 -0.2247 -0.0120 -0.4352
   26POPC   C3B  864   3.037   7.088   7.477  0.0712 -0.1452  0.3906
   26POPC   C4B  865   2.755   7.328   7.199 -0.0182  0.1433 -0.1134
   27POPC   NC3  866   1.330   5.567   9.911  0.2353 -0.2873 -0.2881
   27POPC   PO4  867   1.478   5.272   9.656  0.2954 -0.1162  0.0826
   27POPC   GL1  868   1.512   5.223   9.193  0.0705 -0.0009 -0.0937
   27POPC   GL2  869   1.251   5.101   9.045  0.0368  0.1392  0.2634
   27POPC   C1A  870   1.700   5.275   8.778  0.3144 -0.0863  0.2385
   27POPC   D2A  871   1.845   5.504   8.528 -0.3117  0.1759 -0.0554
   27POPC   C3A  872   2.006   5.428   8.112  0.1954  0.2680  0.2231
   27POPC   C4A  873   1.873   5.664   7.614 -0.0616 -0.4516  0.3694
   27POPC   C1B  874   1.301   5.015   8.596  0.1797 -0.4222 -0.0349
   27POPC   C2B  875   1.436   5.296   8.195  0.0713  0.2461 -0.0266
   27POPC   C3B  876   1.385   5.460   7.893  0.1887  0.3847  0.0166
   27POPC   C4B  877   1.399   5.781   7.568  0.1398  0.0289 -0.1069
   28POPC   NC3  878   9.791   8.762   9.550 -0.0293  0.0379  0.0340
   28POPC   PO4  879   9.441   8.925   9.196  0.0830  0.1278  0.1384
   28POPC   GL1  880   9.186   9.151   8.827 -0.1849 -0.0736 -0.3058
   28POPC   GL2  881   9.068   9.445   8.885 -0.0895 -0.2524  0.0437
   28POPC   C1A  882   9.040   9.068   8.440 -0.1403  0.0053  0.1693
   28POPC   D2A  883   9.322   8.874   8.142 -0.0876 -0.0316 -0.0305
   28POPC   C3A  884   9.307   8.863   7.651 -0.1931 -0.2577 -0.0576
   28POPC   C4A  885   9.029   8.861   7.337  0.0759 -0.0698 -0.1587
   28POPC   C1B  886   9.282   9.775   8.629 -0.0515  0.1869  0.0793
   28POPC   C2B  887   9.551   9.880   8.153 -0.0735  0.2541 -0.1915
   28POPC   C3B  888   9.428   9.795   7.692  0.1332 -0.0731  0.2959
   28POPC   C4B  889   9.067   9.749   7.562  0.1843 -0.1251  0.0082
   29POPC   NC3  890   4.582   9.684   8.559  0.0238  0.0176 -0.0026
   29POPC   PO4  891   4.434   9.291   8.608  0.2498 -0.1799 -0.0543
   29POPC   GL1  892   4.484   9.314   8.218  0.1610 -0.2735 -0.0766
   29POPC   GL2  893   4.554   9.115   7.998  0.2824 -0.1215 -0.2072
   29POPC   C1A  894   4.355   9.583   7.920  0.0362 -0.3281 -0.0464
   29POPC   D2A  895   4.397   9.590   7.499  0.1824 -0.1067  0.0597
   29POPC   C3A  896   4.510   9.132   7.355  0.0483  0.0775  0.0520
   29POPC   C4A  897   4.786   8.738   7.312  0.3590  0.3838 -0.2478
   29POPC   C1B  898   4.096   9.156   7.764 -0.3278 -0.0663  0.2649
   29POPC   C2B  899   3.853   9.549   7.675 -0.1315 -0.1707  0.0751
   29POPC   C3B  900   3.571   9.893   7.627 -0.2011 -0.2221 -0.2098
   29POPC   C4B  901   3.560  10.298   7.881  0.0343 -0.1624  0.2036
   30POPC   NC3  902   1.832   9.977   9.944 -0.1952  0.1670 -0.3984
   30POPC   PO4  903   1.893   9.744   9.650 -0.1097 -0.1131 -0.1154
   30POPC   GL1  904   1.841   9.673   9.281 -0.1826  0.1040 -0.1405
   30POPC   GL2  905   1.553   9.794   9.110 -0.1180  0.2645  0.0106
   30POPC   C1A  906   1.813   9.369   8.938 -0.1013  0.0328 -0.1981
   30POPC   D2A  907   1.858   9.217   8.539  0.0534  0.3162  0.0641
   30POPC   C3A  908   1.879   9.450   8.147 -0.3116 -0.1341  0.0879
   30POPC   C4A  909   2.255   9.531   7.891 -0.1922 -0.0859  0.2054
   30POPC   C1B  910   1.503   9.856   8.624  0.1065 -0.3038  0.0648
   30POPC   C2B  911   1.430   9.951   8.185  0.0851  0.2277  0.3017
   30POPC   C3B  912   1.429  10.214   7.944 -0.0663 -0.0277  0.0866
   30POPC   C4B  913   1.253  10.593   7.815 -0.5094 -0.0306  0.0385
   31POPC   NC3  914   9.237   3.339  10.446  0.3127 -0.2478  0.1012
   31POPC   PO4  915   9.251   3.185   9.968 -0.2781 -0.1062  0.2844
   31POPC   GL1  916   9.322   3.020   9.501 -0.0596  0.0943  0.2160
   31POPC   GL2  917   9.283   3.092   9.293  0.2780 -0.0369  0.1302
   31POPC   C1A  918   9.544   2.821   9.049 -0.0630  0.2812 -0.2004
   31POPC   D2A  919   9.985   2.713   9.006 -0.1291 -0.0146  0.1261
   31POPC   C3A  920  10.319   3.132   8.869 -0.2204 -0.0991  0.1198
   31POPC   C4A  921  10.618   3.089   8.547 -0.4539  0.0486  0.1850
   31POPC   C1B  922   9.250   3.371   9.079  0.2297 -0.2887  0.1882
   31POPC   C2B  923   9.062   3.543   8.761 -0.3295 -0.0309 -0.1958
   31POPC   C3B  924   8.972   3.829   8.527  0.0760 -0.1239  0.0174
   31POPC   C4B  925   8.893   4.317   8.514 -0.1617  0.1284  0.6875
   32POPC   NC3  926   8.492   2.192   9.372  0.1980 -0.2936 -0.1133
   32POPC   PO4  927   8.795   1.862   9.347 -0.2267 -0.2973  0.1591
   32POPC   GL1  928   8.655   1.878   8.958 -0.0848 -0.0221  0.2698
   32POPC   GL2  929   8.470   1.569   8.961 -0.1637 -0.0395 -0.1652
   32POPC   C1A  930   8.554   2.316   8.779 -0.0301 -0.3351 -0.0055
   32POPC   D2A  931   8.642   2.438   8.327  0.5675  0.0029 -0.0245
   32POPC   C3A  932   8.593   2.854   8.189 -0.4214  0.0609  0.0863
   32POPC   C4A  933   8.355   3.127   8.167  0.2019 -0.0074  0.2702
   32POPC   C1B  934   8.335   1.871   8.557 -0.4314  0.0917 -0.2385
   32POPC   C2B  935   8.180   2.247   8.458  0.3915  0.1433  0.0882
   32POPC   C3B  936   8.211   2.453   8.126  0.2997 -0.0870  0.0033
   32POPC   C4B  937   8.348   2.766   7.719  0.0386  0.3427 -0.2700
   33POPC   NC3  938   5.560   8.147   9.587 -0.0629  0.1794  0.2634
   33POPC   PO4  939   5.455   8.330   9.174  0.0538  0.2851 -0.1088
   33POPC   GL1  940   5.438   8.330   8.646  0.0758  0.2801  0.0729
   33POPC   GL2  941   5.328   8.611   8.418 -0.0928 -0.1491 -0.0052
   33POPC   C1A  942   5.146   8.065   8.315 -0.1308 -0.1399 -0.1133
   33POPC   D2A  943   5.039   7.994   7.892 -0.0058 -0.0319 -0.3424
   33POPC   C3A  944   4.976   8.375   7.693 -0.0157 -0.2559  0.3205
   33POPC   C4A  945   5.185   8.287   7.229  0.1085  0.1486  0.1207
   33POPC   C1B  946   4.981   8.493   8.175  0.1291  0.1525 -0.3361
   33POPC   C2B  947   4.581   8.616   7.962  0.0253 -0.0919 -0.0490
   33POPC   C3B  948   4.314   8.652   7.613 -0.0317  0.0496  0.1111
   33POPC   C4B  949   4.086   8.841   7.267 -0.1433  0.0329  0.0392
   34POPC   NC3  950   3.724   1.267   9.298  0.1195 -0.1531  0.0085
   34POPC   PO4  951   3.522   1.161   8.969  0.0334  0.3267  0.2891
   34POPC   GL1  952   3.349   0.965   8.715  0.1219 -0.2617  0.0546
   34POPC   GL2  953   3.266   1.229   8.531 -0.2000 -0.0269 -0.1742
   34POPC   C1A  954   3.521   0.799   8.293  0.0230  0.0525  0.1311
   34POPC   D2A  955   3.615   0.669   7.897  0.0869 -0.3772 -0.1902
   34POPC   C3A  956   3.735   0.434   7.693 -0.0539 -0.1416 -0.0167
   34POPC   C4A  957   3.600   0.099   7.368 -0.0075  0.1176  0.0391
   34POPC   C1B  958   3.507   1.261   8.022 -0.0095  0.2647  0.0314
   34POPC   C2B  959   3.795   1.176   7.699 -0.0058  0.0366 -0.0991
   34POPC   C3B  960   3.664   0.882   7.400 -0.0398 -0.2647 -0.4632
   34POPC   C4B  961   3.286   1.036   7.190  0.3019  0.3526  0.0469
   35POPC   NC3  962   5.418   6.191   8.774  0.1147  0.1857  0.0162
   35POPC   PO4  963   5.492   5.858   8.634 -0.0740 -0.0756  0.0239
   35POPC   GL1  964   5.217   6.108   8.292  0.0972 -0.1356  0.0449
   35POPC   GL2  965   5.351   6.417   8.157 -0.1503 -0.0026 -0.0971
   35POPC   C1A  966   4.792   6.171   8.128  0.1045  0.0384  0.2331
   35POPC   D2A  967   4.600   5.935   7.723 -0.0349 -0.2612 -0.2074
   35POPC   C3A  968   4.273   6.056   7.611  0.1359  0.0154  0.0178
   35POPC   C4A  969   3.881   6.052   7.483  0.2292 -0.1056  0.3603
   35POPC   C1B  970   5.073   6.454   7.803 -0.1601 -0.0411 -0.1000
   35POPC   C2B  971   4.831   6.444   7.433 -0.1422 -0.2890  0.3885
   35POPC   C3B  972   4.771   6.289   6.983  0.3768  0.0783 -0.2982
   35POPC   C4B  973   4.710   5.960   6.677 -0.1645  0.3151  0.2418
   36POPC   NC3  974   6.723   7.036   8.648  0.2943  0.0449  0.2996
   36POPC   PO4  975   6.999   7.424   8.741  0.1221  0.1686 -0.0027
   36POPC   GL1  976   6.947   7.390   8.220 -0.0333  0.1448  0.2693
   36POPC   GL2  977   6.778   7.128   8.114 -0.0763  0.2841 -0.2011
   36POPC   C1A  978   6.895   7.542   7.737 -0.3554  0.4049 -0.1157
   36POPC   D2A  979   7.030   7.812   7.590 -0.1080 -0.2469 -0.1120
   36POPC   C3A  980   7.114   7.670   7.220 -0.2548  0.0522  0.2354
   36POPC   C4A  981   7.002   7.763   6.843  0.1406  0.0223  0.0788
   36POPC   C1B  982   6.478   7.535   8.033  0.2488  0.2174 -0.0611
   36POPC   C2B  983   6.326   7.930   7.799  0.0690  0.0336 -0.2266
   36POPC   C3B  984   6.596   8.069   7.479  0.1377 -0.0535 -0.1710
   36POPC   C4B  985   6.820   8.197   7.132 -0.0314 -0.0707 -0.4829
   37POPC   NC3  986   5.268   1.270   9.062  0.1039  0.3134 -0.0803
   37POPC   PO4  987   5.313   1.647   9.035 -0.0554 -0.0631 -0.2939
   37POPC   GL1  988   5.122   1.689   8.661  0.2095 -0.2054  0.3525
   37POPC   GL2  989   4.916   2.009   8.607  0.5065  0.0125 -0.0012
   37POPC   C1A  990   5.049   1.617   8.269  0.0100  0.3498 -0.2926
   37POPC   D2A  991   5.011   1.456   7.830 -0.0830 -0.0163 -0.0986
   37POPC   C3A  992   4.961   1.172   7.470  0.2886 -0.3492  0.0035
   37POPC   C4A  993   5.136   0.968   7.113  0.2464 -0.5498 -0.1116
   37POPC   C1B  994   4.692   2.229   8.187 -0.2532  0.1974 -0.0007
   37POPC   C2B  995   4.515   2.346   7.878  0.2955  0.2344  0.4773
   37POPC   C3B  996   4.472   2.441   7.448  0.0191 -0.0492 -0.0056
   37POPC   C4B  997   4.726   2.417   7.099 -0.0195  0.0934  0.0484
   38POPC   NC3  998   1.387   6.668   9.340 -0.1127  0.3820 -0.0200
   38POPC   PO4  999   1.377   6.246   9.451  0.1619  0.0338 -0.0520
   38POPC   GL1 1000   1.260   5.994   9.112 -0.2294 -0.0366 -0.1411
   38POPC   GL2 1001   1.376   5.770   8.983  0.0219 -0.2621 -0.0505
   38POPC   C1A 1002   1.278   6.168   8.661 -0.0053 -0.0827  0.0656
   38POPC   D2A 1003   1.197   6.127   8.183  0.4633  0.0188 -0.1116
   38POPC   C3A 1004   1.118   6.359   7.800  0.3918  0.4057 -0.3881
   38POPC   C4A 1005   0.992   6.235   7.385 -0.0943 -0.2590 -0.0337
   38POPC   C1B 1006   1.397   5.705   8.614  0.2394  0.0804  0.0148
   38POPC   C2B 1007   1.611   5.783   8.219 -0.1013 -0.1958 -0.1222
   38POPC   C3B 1008   1.664   6.144   7.908  0.0254 -0.1054  0.0094
   38POPC   C4B 1009   1.914   6.534   7.854 -0.0251  0.0507  0.0391
   39POPC   NC3 1010   4.248   0.148   8.828  0.2489 -0.1122 -0.1598
   39POPC   PO4 1011   4.223  -0.343   8.683  0.2461  0.2735 -0.0968
   39POPC   GL1 1012   4.479  -0.217   8.409  0.0543 -0.5120 -0.0595
   39POPC   GL2 1013   4.318  -0.316   8.139  0.2134 -0.0071 -0.3176
   39POPC   C1A 1014   4.741  -0.141   8.040  0.1689  0.1208  0.0010
   39POPC   D2A 1015   4.522  -0.182   7.693  0.0072 -0.0273 -0.0047
   39POPC   C3A 1016   4.650  -0.203   7.277  0.0118 -0.4527 -0.1360
   39POPC   C4A 1017   4.439  -0.233   6.887 -0.3411  0.0775  0.2456
   39POPC   C1B 1018   3.977  -0.351   7.900 -0.2950  0.2373  0.0096
   39POPC   C2B 1019   4.002  -0.212   7.512 -0.0097 -0.0362  0.0810
   39POPC   C3B 1020   4.011  -0.457   7.158  0.0477 -0.2622  0.1458
   39POPC   C4B 1021   3.881  -0.686   6.740 -0.0838 -0.2189  0.0977
   40POPC   NC3 1022   5.382   0.123   8.778 -0.0681 -0.1452  0.2003
   40POPC   PO4 1023   5.508  -0.256   8.640 -0.0231  0.0395 -0.4228
   40POPC   GL1 1024   5.579  -0.376   8.209  0.1485  0.0762 -0.0713
   40POPC   GL2 1025   5.888  -0.571   8.122  0.1637  0.0134  0.0609
   40POPC   C1A 1026   5.363  -0.618   7.979  0.1773 -0.0137 -0.1508
   40POPC   D2A 1027   5.605  -0.970   8.114  0.0794 -0.0759 -0.1176
   40POPC   C3A 1028   5.952  -1.122   7.826  0.0285 -0.2574 -0.3075
   40POPC   C4A 1029   6.275  -1.409   7.616 -0.3170 -0.1437  0.2979
   40POPC   C1B 1030   5.825  -0.641   7.738  0.2937  0.3318  0.0992
   40POPC   C2B 1031   5.786  -0.847   7.267  0.0715  0.0320 -0.1010
   40POPC   C3B 1032   5.546  -0.993   6.879 -0.0117 -0.5117 -0.2310
   40POPC   C4B 1033   5.649  -1.181   6.543 -0.1268  0.0894  0.0408
   41POPC   NC3 1034   2.029   0.427   9.378 -0.2454  0.0605 -0.1795
   41POPC   PO4 1035   1.515   0.374   9.625  0.4625 -0.1096  0.2372
   41POPC   GL1 1036   1.495   0.243   9.211 -0.0356  0.0917  0.1724
   41POPC   GL2 1037   1.231   0.314   8.953  0.3348 -0.1068  0.0943
   41POPC   C1A 1038   1.573   0.004   8.845  0.3137 -0.1048 -0.2379
   41POPC   D2A 1039   1.645  -0.004   8.480 -0.1672 -0.1779  0.0248
   41POPC   C3A 1040   1.278   0.314   8.338  0.1908 -0.2486  0.0954
   41POPC   C4A 1041   1.096   0.648   8.123 -0.0829  0.1770 -0.0320
   41POPC   C1B 1042   1.440   0.675   8.683  0.1283 -0.1206  0.1208
   41POPC   C2B 1043   1.210   1.120   8.640  0.1159 -0.1850 -0.2185
   41POPC   C3B 1044   1.220   1.476   8.508  0.3941  0.1107  0.0807
   41POPC   C4B 1045   1.433   1.765   8.197 -0.0273 -0.2623 -0.3401
   42POPC   NC3 1046   1.260   8.069   9.380  0.0705  0.2406  0.2352
   42POPC   PO4 1047   1.103   8.564   9.407  0.0941 -0.0874 -0.0248
   42POPC   GL1 1048   1.224   8.472   8.973 -0.0310  0.0598  0.0431
   42POPC   GL2 1049   1.191   8.115   8.843 -0.4384 -0.2693  0.3006
   42POPC   C1A 1050   1.148   8.521   8.522 -0.0248  0.2304  0.2456
   42POPC   D2A 1051   1.314   8.585   8.020 -0.1414  0.0832  0.2012
   42POPC   C3A 1052   1.348   8.506   7.617 -0.2333  0.1959 -0.1363
   42POPC   C4A 1053   1.480   8.611   7.183  0.1419 -0.0596 -0.0798
   42POPC   C1B 1054   0.868   8.068   8.436  0.1272  0.1138  0.1734
   42POPC   C2B 1055   0.918   8.156   8.052 -0.0570 -0.2013 -0.4303
   42POPC   C3B 1056   0.932   7.834   7.673  0.0291  0.1055  0.4420
   42POPC   C4B 1057   1.066   7.668   7.200 -0.2901  0.0843  0.0460
   43POPC   NC3 1058   7.560   5.716   8.389 -0.0545  0.1343 -0.0336
   43POPC   PO4 1059   7.409   5.527   8.812 -0.2394 -0.0915  0.0918
   43POPC   GL1 1060   7.539   5.182   8.485  0.0334  0.0164 -0.1872
   43POPC   GL2 1061   7.827   4.941   8.553 -0.0081 -0.0094  0.0903
   43POPC   C1A 1062   7.482   4.926   8.171  0.3583 -0.0479  0.0391
   43POPC   D2A 1063   7.498   4.567   7.956  0.1322 -0.3029 -0.1143
   43POPC   C3A 1064   7.350   4.208   7.837  0.0515  0.1196  0.0869
   43POPC   C4A 1065   7.100   3.875   8.092 -0.2475  0.1480  0.0518
   43POPC   C1B 1066   7.928   4.647   8.880  0.0507  0.1100  0.0930
   43POPC   C2B 1067   7.961   4.218   9.056  0.0647 -0.0307 -0.0579
   43POPC   C3B 1068   8.286   4.005   9.082 -0.2659 -0.0643  0.0373
   43POPC   C4B 1069   8.423   3.653   9.111 -0.3437 -0.2530  0.0970
   44POPC   NC3 1070   8.118   3.397  10.121  0.1622 -0.0300 -0.0784
   44POPC   PO4 1071   7.713   3.133  10.016  0.1045 -0.2440 -0.1498
   44POPC   GL1 1072   7.716   3.144   9.566  0.0703 -0.0886  0.0085
   44POPC   GL2 1073   7.654   2.831   9.428  0.0651 -0.0999 -0.0156
   44POPC   C1A 1074   7.423   3.112   9.148 -0.4629 -0.0137  0.2167
   44POPC   D2A 1075   7.425   3.242   8.736 -0.0176 -0.1061  0.0580
   44POPC   C3A 1076   7.481   2.965   8.388 -0.0190 -0.1864  0.2050
   44POPC   C4A 1077   7.743   2.538   8.501  0.0534  0.0757  0.0177
   44POPC   C1B 1078   8.123   2.884   9.257 -0.1827  0.2235  0.2376
   44POPC   C2B 1079   8.272   3.116   8.984 -0.1057 -0.1928  0.2532
   44POPC   C3B 1080   8.253   3.479   8.663 -0.0351 -0.0823 -0.2275
   44POPC   C4B 1081   8.501   3.772   8.570  0.1338 -0.1461  0.0310
   45POPC   NC3 1082   0.736   6.063   9.381 -0.2459  0.0313  0.0875
   45POPC   PO4 1083   0.572   6.478   9.202 -0.2370  0.1778  0.1112
   45POPC   GL1 1084   0.610   6.311   8.813 -0.1907 -0.3292  0.1423
   45POPC   GL2 1085   0.358   6.144   8.882  0.1176  0.0440 -0.1555
   45POPC   C1A 1086   0.659   6.274   8.317 -0.3025  0.0745  0.0374
   45POPC   D2A 1087   0.672   6.508   7.971 -0.1092  0.1708 -0.0014
   45POPC   C3A 1088   0.480   6.431   7.621  0.1492 -0.1831 -0.0363
   45POPC   C4A 1089   0.128   6.583   7.355  0.2439 -0.3214  0.0120
   45POPC   C1B 1090   0.290   5.727   8.789 -0.2402  0.0161 -0.4349
   45POPC   C2B 1091  -0.016   5.706   8.545 -0.1539 -0.0057 -0.1621
   45POPC   C3B 1092  -0.112   5.907   8.109 -0.1836  0.1987 -0.1385
   45POPC   C4B 1093   0.275   5.957   7.882  0.2055 -0.0976 -0.0597
   46POPC   NC3 1094   8.674   8.248   9.622  0.0473 -0.0101 -0.0451
   46POPC   PO4 1095   8.715   8.174   9.110 -0.0172  0.1083 -0.0648
   46POPC   GL1 1096   8.872   8.204   8.722 -0.1460  0.2135  0.0599
   46POPC   GL2 1097   8.691   7.964   8.520  0.0521 -0.1684  0.3160
   46POPC   C1A 1098   9.241   8.484   8.470  0.5018 -0.1131 -0.2562
   46POPC   D2A 1099   9.298   8.382   8.067 -0.1137  0.3049 -0.2747
   46POPC   C3A 1100   9.155   7.948   7.862  0.3696  0.0353 -0.1951
   46POPC   C4A 1101   8.932   7.616   8.080 -0.3207  0.0687  0.1022
   46POPC   C1B 1102   8.748   8.102   8.054  0.0512 -0.1619  0.0296
   46POPC   C2B 1103   8.716   7.937   7.668  0.0122  0.1187 -0.3086
   46POPC   C3B 1104   8.738   8.000   7.320  0.1746 -0.3139 -0.0644
   46POPC   C4B 1105   8.580   8.116   6.943  0.1457  0.0334  0.2070
   47POPC   NC3 1106   6.760   0.972   9.188  0.1081  0.1593  0.2289
   47POPC   PO4 1107   6.757   0.524   9.018  0.2170  0.0130  0.3183
   47POPC   GL1 1108   6.870   0.415   8.680  0.0897  0.0649  0.0827
   47POPC   GL2 1109   6.651   0.439   8.514 -0.0191  0.0705 -0.2756
   47POPC   C1A 1110   7.102   0.507   8.378  0.2843  0.1584  0.2117
   47POPC   D2A 1111   7.363   0.304   7.931  0.0319  0.3149 -0.2398
   47POPC   C3A 1112   7.304   0.551   7.603  0.0450 -0.0629  0.1861
   47POPC   C4A 1113   7.217   0.804   7.136 -0.0194  0.4012  0.0679
   47POPC   C1B 1114   6.764   0.367   8.014 -0.4642  0.1137  0.2774
   47POPC   C2B 1115   6.799   0.278   7.588  0.0764  0.1399  0.2379
   47POPC   C3B 1116   6.833   0.366   7.124 -0.0544 -0.2538  0.1294
   47POPC   C4B 1117   6.657   0.290   6.721  0.2427 -0.3306  0.1535
   48POPC   NC3 1118   1.086   0.333   9.898  0.1376 -0.2416 -0.0454
   48POPC   PO4 1119   1.151   0.028   9.525 -0.2601  0.2290 -0.1456
   48POPC   GL1 1120   1.097  -0.142   9.195 -0.2095  0.2863 -0.0429
   48POPC   GL2 1121   0.884  -0.440   9.192  0.2616 -0.2507  0.0148
   48POPC   C1A 1122   1.080  -0.084   8.670 -0.0789  0.3297 -0.1379
   48POPC   D2A 1123   0.996  -0.102   8.219 -0.0692  0.1538 -0.4746
   48POPC   C3A 1124   0.830  -0.080   7.772 -0.1054 -0.0133 -0.0200
   48POPC   C4A 1125   0.876   0.014   7.274  0.0678 -0.0471  0.1144
   48POPC   C1B 1126   1.065  -0.637   8.858  0.2248  0.1518  0.3217
   48POPC   C2B 1127   1.042  -0.497   8.419 -0.5743 -0.0982 -0.4156
   48POPC   C3B 1128   1.017  -0.477   7.928  0.3150  0.2487  0.3201
   48POPC   C4B 1129   1.129  -0.458   7.478 -0.0365  0.0068 -0.0134
   49POPC   NC3 1130   2.279   4.497   9.437 -0.3028  0.0929  0.0233
   49POPC   PO4 1131   2.541   4.888   9.180  0.1474  0.0492  0.1220
   49POPC   GL1 1132   2.513   4.982   8.771 -0.1388  0.1786 -0.0139
   49POPC   GL2 1133   2.236   5.201   8.658  0.3047  0.1282  0.1715
   49POPC   C1A 1134   2.465   4.906   8.316  0.2263  0.0043 -0.0051
   49POPC   D2A 1135   2.187   4.843   8.012 -0.4082  0.0888 -0.0837
   49POPC   C3A 1136   2.374   4.888   7.580  0.1003  0.0891 -0.0440
   49POPC   C4A 1137   2.138   4.786   7.205 -0.1169  0.0178 -0.1034
   49POPC   C1B 1138   1.866   5.005   8.336 -0.1558 -0.0875 -0.1021
   49POPC   C2B 1139   1.702   4.968   7.929  0.0760  0.1376 -0.0579
   49POPC   C3B 1140   1.441   4.973   7.511 -0.0275 -0.2046 -0.2076
   49POPC   C4B 1141   1.413   5.369   7.200 -0.1792  0.0344 -0.3340
   50POPC   NC3 1142   9.704   1.385   9.683  0.0313 -0.0103  0.1406
   50POPC   PO4 1143  10.063   1.350   9.447  0.1635 -0.1558 -0.0652
   50POPC   GL1 1144   9.903   1.461   9.092 -0.2828  0.1914  0.1852
   50POPC   GL2 1145   9.632   1.585   9.188  0.2403  0.1526 -0.0114
   50POPC   C1A 1146  10.195   1.619   8.810  0.4181  0.3061  0.4423
   50POPC   D2A 1147  10.368   1.420   8.444  0.2040 -0.1184  0.0095
   50POPC   C3A 1148  10.122   1.063   8.227  0.2750  0.1847 -0.0532
   50POPC   C4A 1149   9.757   0.823   8.061 -0.1276 -0.2238  0.1598
   50POPC   C1B 1150   9.710   1.724   8.763 -0.1890  0.0922  0.4223
   50POPC   C2B 1151   9.921   1.812   8.480  0.1441  0.0891 -0.1980
   50POPC   C3B 1152  10.290   1.956   8.278 -0.3321 -0.0364 -0.0565
   50POPC   C4B 1153  10.442   2.157   7.868 -0.1526  0.2438  0.1692
   51POPC   NC3 1154   8.284   6.806   9.601 -0.0657 -0.3089 -0.1509
   51POPC   PO4 1155   8.134   6.964   9.215  0.1993  0.1559  0.3894
   51POPC   GL1 1156   8.042   6.912   8.675 -0.0588  0.0876  0.0678
   51POPC   GL2 1157   7.885   7.302   8.548 -0.1440  0.1692 -0.0925
   51POPC   C1A 1158   8.316   7.008   8.228  0.2560  0.1856  0.1630
   51POPC   D2A 1159   8.351   6.979   7.782 -0.0874  0.0023  0.1374
   51POPC   C3A 1160   8.480   6.905   7.325 -0.0278 -0.0352 -0.0125
   51POPC   C4A 1161   8.284   6.939   6.928  0.1765 -0.0033 -0.0046
   51POPC   C1B 1162   8.020   7.421   8.052 -0.0817 -0.1610 -0.1691
   51POPC   C2B 1163   8.132   7.693   7.681 -0.5622  0.0014  0.0161
   51POPC   C3B 1164   8.264   7.848   7.330 -0.0704 -0.1169  0.0209
   51POPC   C4B 1165   8.034   7.734   6.952 -0.1681  0.2617 -0.2171
   52POPC   NC3 1166   3.054   4.327   9.872 -0.1704  0.0637  0.1760
   52POPC   PO4 1167   2.752   4.525   9.512 -0.1426  0.0471 -0.1286
   52POPC   GL1 1168   2.656   4.464   9.013 -0.1955  0.0198  0.3760
   52POPC   GL2 1169   2.942   4.638   8.894  0.0276  0.4424 -0.1031
   52POPC   C1A 1170   2.761   4.508   8.479  0.2466  0.2127  0.0887
   52POPC   D2A 1171   2.704   4.584   8.014  0.0525  0.2709  0.0948
   52POPC   C3A 1172   2.810   4.576   7.614 -0.1156  0.2499  0.2346
   52POPC   C4A 1173   2.844   4.824   7.260 -0.0256  0.1349  0.1270
   52POPC   C1B 1174   2.971   4.905   8.562 -0.0135  0.1915  0.1076
   52POPC   C2B 1175   2.920   5.108   8.196 -0.0145 -0.0300  0.0621
   52POPC   C3B 1176   2.816   5.117   7.655 -0.1563  0.1504 -0.0118
   52POPC   C4B 1177   2.595   5.295   7.289  0.2907 -0.1730 -0.1320
   53POPC   NC3 1178   5.004   0.519   8.733  0.0401 -0.1268 -0.0469
   53POPC   PO4 1179   4.597   0.446   8.960 -0.2422  0.1912  0.4872
   53POPC   GL1 1180   4.550   0.348   8.527 -0.2281 -0.0767 -0.0265
   53POPC   GL2 1181   4.298   0.515   8.481 -0.2302  0.0412 -0.0159
   53POPC   C1A 1182   4.358   0.141   8.149  0.0557 -0.0457 -0.3565
   53POPC   D2A 1183   4.101   0.154   7.877  0.1038 -0.3701 -0.3296
   53POPC   C3A 1184   4.248   0.168   7.385  0.2218 -0.1884 -0.0131
   53POPC   C4A 1185   4.338   0.233   6.950  0.2107  0.0730  0.2913
   53POPC   C1B 1186   4.427   0.659   8.042  0.0949  0.0467 -0.2407
   53POPC   C2B 1187   4.155   0.693   7.608 -0.0724 -0.3424 -0.0664
   53POPC   C3B 1188   4.320   0.957   7.333 -0.1561 -0.2562 -0.2211
   53POPC   C4B 1189   4.612   1.068   7.050 -0.0181  0.4144  0.0001
   54POPC   NC3 1190   9.508   5.128   9.416  0.2694  0.1850 -0.2053
   54POPC   PO4 1191   9.069   5.013   9.499 -0.0213 -0.0147 -0.0961
   54POPC   GL1 1192   9.045   4.985   9.112 -0.1285  0.2845 -0.1020
   54POPC   GL2 1193   9.411   4.820   9.061 -0.3973  0.0188 -0.0122
   54POPC   C1A 1194   8.810   4.737   8.849 -0.1703 -0.0203 -0.0244
   54POPC   D2A 1195   8.673   4.741   8.419 -0.3154 -0.1625  0.3749
   54POPC   C3A 1196   8.231   4.736   8.309  0.3645 -0.1725 -0.0162
   54POPC   C4A 1197   7.982   4.784   8.040  0.2121  0.0135  0.2203
   54POPC   C1B 1198   9.235   4.405   8.872  0.1800 -0.0835  0.1164
   54POPC   C2B 1199   9.395   4.136   8.541 -0.0845 -0.1800  0.1763
   54POPC   C3B 1200   9.331   4.047   8.087  0.0622  0.1642  0.0179
   54POPC   C4B 1201   9.512   3.768   7.793  0.0633  0.0680 -0.0637
   55POPC   NC3 1202   2.958   1.228   8.905  0.2848 -0.1128  0.1799
   55POPC   PO4 1203   2.857   1.517   9.184  0.1313  0.2928 -0.3136
   55POPC   GL1 1204   2.727   1.646   8.773 -0.1466 -0.1688  0.0516
   55POPC   GL2 1205   2.877   1.907   8.824 -0.2155  0.1018  0.3458
   55POPC   C1A 1206   2.551   1.621   8.341 -0.2100 -0.2359 -0.0974
   55POPC   D2A 1207   2.339   1.330   8.034  0.0198  0.1021 -0.0758
   55POPC   C3A 1208   2.125   1.426   7.640  0.1445 -0.0580  0.0532
   55POPC   C4A 1209   2.304   1.354   7.169  0.0084 -0.3087 -0.2211
   55POPC   C1B 1210   3.004   1.865   8.417 -0.0692 -0.0287  0.1525
   55POPC   C2B 1211   3.143   1.592   8.144  0.0220 -0.2373  0.2802
   55POPC   C3B 1212   2.904   1.354   7.931 -0.3372 -0.2138  0.0229
   55POPC   C4B 1213   2.633   1.354   7.531  0.1405  0.1830 -0.2047
   56POPC   NC3 1214   8.344   8.556   8.987  0.0740 -0.2276  0.0689
   56POPC   PO4 1215   8.124   8.226   8.671 -0.0759 -0.1146  0.0004
   56POPC   GL1 1216   8.339   8.392   8.293 -0.1726 -0.0666 -0.1725
   56POPC   GL2 1217   8.607   8.704   8.397  0.4556  0.4012 -0.0616
   56POPC   C1A 1218   8.401   8.468   7.880 -0.3087  0.3420  0.0066
   56POPC   D2A 1219   8.434   8.370   7.415  0.1553  0.3152  0.1778
   56POPC   C3A 1220   8.696   8.562   7.147 -0.2145 -0.1343 -0.0434
   56POPC   C4A 1221   9.002   8.638   6.831 -0.3044  0.1055 -0.0557
   56POPC   C1B 1222   8.819   8.635   8.127 -0.0423  0.2847 -0.3622
   56POPC   C2B 1223   8.889   8.502   7.696 -0.1241 -0.3096  0.2377
   56POPC   C3B 1224   9.126   8.388   7.376 -0.2011 -0.0503 -0.1896
   56POPC   C4B 1225   9.250   8.262   6.973 -0.0798  0.0774 -0.1951
   57POPC   NC3 1226   0.889   4.244   9.435  0.1673  0.1854  0.0455
   57POPC   PO4 1227   1.252   4.306   9.471  0.0244  0.1827  0.5639
   57POPC   GL1 1228   1.072   4.151   9.022 -0.1206 -0.1252 -0.0397
   57POPC   GL2 1229   0.837   3.948   9.009  0.3237  0.1113 -0.0657
   57POPC   C1A 1230   1.317   4.089   8.689  0.3522  0.0668  0.1942
   57POPC   D2A 1231   1.754   4.194   8.569 -0.1248 -0.1301  0.0278
   57POPC   C3A 1232   2.090   3.933   8.339  0.1527  0.0090 -0.1957
   57POPC   C4A 1233   2.177   3.637   8.008 -0.3188 -0.0818 -0.1338
   57POPC   C1B 1234   0.808   4.147   8.599  0.2676  0.0904  0.0278
   57POPC   C2B 1235   0.840   4.311   8.206  0.3687  0.1811  0.1423
   57POPC   C3B 1236   0.962   4.792   8.068  0.0275  0.2818 -0.1145
   57POPC   C4B 1237   1.118   5.029   7.874 -0.1352  0.0671  0.1626
   58POPC   NC3 1238   3.801   2.520   9.382 -0.1669 -0.3233  0.2962
   58POPC   PO4 1239   3.580   2.980   9.401 -0.4723 -0.0719 -0.1856
   58POPC   GL1 1240   3.621   3.184   9.081 -0.0841  0.2626 -0.0487
   58POPC   GL2 1241   3.470   3.416   9.081 -0.1018  0.1241 -0.0085
   58POPC   C1A 1242   3.835   3.279   8.709 -0.0012 -0.2520  0.1082
   58POPC   D2A 1243   3.899   3.276   8.281 -0.2830 -0.0755 -0.1507
   58POPC   C3A 1244   3.793   3.485   8.026  0.3841  0.1763  0.2054
   58POPC   C4A 1245   3.786   3.814   7.821  0.0910 -0.2115  0.2542
   58POPC   C1B 1246   3.144   3.642   8.899 -0.0304 -0.0850  0.0785
   58POPC   C2B 1247   2.843   3.505   8.704  0.0924  0.2333 -0.0772
   58POPC   C3B 1248   2.544   3.445   8.431  0.4286  0.0323 -0.0669
   58POPC   C4B 1249   2.130   3.322   8.416 -0.0596  0.2318  0.0384
   59POPC   NC3 1250   0.490   4.561   9.407 -0.0945  0.0318  0.1601
   59POPC   PO4 1251   0.913   4.681   9.359  0.2006 -0.1429 -0.2472
   59POPC   GL1 1252   0.838   4.680   8.951  0.2340  0.2182  0.1319
   59POPC   GL2 1253   0.598   4.449   8.887 -0.0982  0.1867 -0.3406
   59POPC   C1A 1254   1.049   4.608   8.544  0.0328 -0.1000 -0.0268
   59POPC   D2A 1255   1.324   4.299   8.270  0.0877  0.0542  0.1182
   59POPC   C3A 1256   1.316   4.534   7.825 -0.1564 -0.1597  0.1045
   59POPC   C4A 1257   1.604   4.489   7.586 -0.0147  0.2553 -0.3089
   59POPC   C1B 1258   0.443   4.559   8.458  0.0032 -0.0536 -0.3107
   59POPC   C2B 1259   0.494   4.909   8.191  0.1043 -0.2438 -0.0051
   59POPC   C3B 1260   0.624   4.985   7.770 -0.2051  0.1848 -0.0353
   59POPC   C4B 1261   0.325   5.150   7.504 -0.0825  0.3477  0.2750
   60POPC   NC3 1262   2.899   8.452   9.419  0.0393 -0.2704  0.1958
   60POPC   PO4 1263   3.145   8.124   9.296 -0.2131 -0.1405 -0.0115
   60POPC   GL1 1264   3.006   8.301   8.897  0.1576  0.1645 -0.2959
   60POPC   GL2 1265   2.869   8.192   8.575  0.0583 -0.0410 -0.1424
   60POPC   C1A 1266   3.130   8.594   8.534  0.0258 -0.0866 -0.0564
   60POPC   D2A 1267   3.372   8.595   8.096  0.2466  0.0219  0.1021
   60POPC   C3A 1268   3.397   8.992   7.895  0.0750  0.0434 -0.2423
   60POPC   C4A 1269   3.644   9.070   7.449  0.0288  0.5635 -0.0213
   60POPC   C1B 1270   3.283   8.169   8.348 -0.2794  0.0654 -0.0886
   60POPC   C2B 1271   3.504   7.780   8.186  0.0152  0.1427 -0.2229
   60POPC   C3B 1272   3.494   7.750   7.853 -0.1876 -0.2132  0.0038
   60POPC   C4B 1273   3.588   7.927   7.517  0.0929  0.2137  0.1002
   61POPC   NC3 1274   5.809   0.819   9.030  0.2289 -0.1314 -0.0344
   61POPC   PO4 1275   5.435   0.875   8.754 -0.0818 -0.1287 -0.0085
   61POPC   GL1 1276   5.339   0.658   8.366  0.0700  0.0597  0.1964
   61POPC   GL2 1277   4.854   0.741   8.312 -0.2250 -0.1111  0.1317
   61POPC   C1A 1278   5.434   0.488   7.933  0.1042  0.1665  0.1470
   61POPC   D2A 1279   5.560   0.209   7.493 -0.0242 -0.0242  0.0344
   61POPC   C3A 1280   5.966   0.101   7.432 -0.2352  0.1031  0.1510
   61POPC   C4A 1281   6.383   0.037   7.323  0.0026 -0.1749  0.1329
   61POPC   C1B 1282   5.036   0.849   7.856 -0.0194  0.1747 -0.0432
   61POPC   C2B 1283   5.452   0.986   7.699 -0.2858 -0.1738  0.0231
   61POPC   C3B 1284   5.478   1.275   7.346 -0.1507  0.2912 -0.0332
   61POPC   C4B 1285   5.558   1.697   7.018  0.1001 -0.0704 -0.0858
   62POPC   NC3 1286   6.465   4.759   9.641  0.0547  0.0443 -0.0918
   62POPC   PO4 1287   6.440   4.394   9.944  0.3215 -0.0790  0.2271
   62POPC   GL1 1288   6.459   4.283   9.518 -0.0020 -0.2311 -0.0776
   62POPC   GL2 1289   6.679   4.482   9.278  0.0165 -0.0986  0.4009
   62POPC   C1A 1290   6.277   4.092   9.055 -0.3507 -0.3055  0.2268
   62POPC   D2A 1291   5.860   4.005   8.972 -0.4318  0.3588 -0.2123
   62POPC   C3A 1292   5.618   4.296   9.147  0.0247 -0.0578 -0.2183
   62POPC   C4A 1293   5.393   4.693   9.110  0.0278 -0.1300  0.2944
   62POPC   C1B 1294   7.063   4.322   9.002  0.1889  0.0476 -0.0083
   62POPC   C2B 1295   7.478   4.391   8.912 -0.0249  0.1133 -0.0452
   62POPC   C3B 1296   7.644   3.964   8.691 -0.2011  0.1039  0.0343
   62POPC   C4B 1297   8.022   3.927   8.679 -0.0575 -0.1217 -0.0343
   63POPC   NC3 1298  10.066  10.085   9.689  0.2166  0.0050 -0.3159
   63POPC   PO4 1299  10.495  10.107   9.672  0.0957 -0.1703  0.1734
   63POPC   GL1 1300  10.438  10.112   9.259 -0.1605  0.0933  0.1984
   63POPC   GL2 1301  10.304  10.431   9.249 -0.0746  0.0093  0.1049
   63POPC   C1A 1302  10.353  10.046   8.789 -0.0753 -0.0582  0.1000
   63POPC   D2A 1303  10.515  10.292   8.445  0.0983 -0.1571  0.0439
   63POPC   C3A 1304  10.378  10.254   8.139  0.0800 -0.3214  0.2224
   63POPC   C4A 1305  10.230  10.134   7.670 -0.0455 -0.0100  0.2157
   63POPC   C1B 1306  10.569  10.625   8.915 -0.2041 -0.3609  0.1299
   63POPC   C2B 1307  10.497  10.826   8.525 -0.1477  0.3960  0.2167
   63POPC   C3B 1308  10.445  10.971   8.090 -0.0855  0.0309 -0.0811
   63POPC   C4B 1309  10.246  11.181   7.719  0.0773 -0.1411  0.0751
   64POPC   NC3 1310   1.520   4.746   9.407 -0.1242  0.1306 -0.0464
   64POPC   PO4 1311   1.789   4.390   9.410  0.2046  0.1560 -0.0755
   64POPC   GL1 1312   1.885   4.560   9.055  0.0210  0.3291  0.2768
   64POPC   GL2 1313   2.162   4.617   8.945  0.1788  0.3967 -0.1948
   64POPC   C1A 1314   1.692   4.677   8.697  0.4960 -0.0486  0.0171
   64POPC   D2A 1315   1.496   4.721   8.300 -0.2514  0.1245 -0.2297
   64POPC   C3A 1316   1.723   4.472   8.045 -0.2009 -0.2340  0.2535
   64POPC   C4A 1317   1.898   4.147   7.885 -0.0856 -0.1490 -0.2456
   64POPC   C1B 1318   2.155   4.701   8.610 -0.3744  0.0104  0.0354
   64POPC   C2B 1319   2.309   4.389   8.285 -0.0953 -0.0055 -0.1410
   64POPC   C3B 1320   2.429   4.237   7.831 -0.0449 -0.0537  0.0636
   64POPC   C4B 1321   2.566   4.040   7.423 -0.2787  0.2395 -0.0185
   65POPC   NC3 1322   6.801   8.062   8.769  0.1127 -0.0793 -0.0968
   65POPC   PO4 1323   6.377   8.193   8.912  0.0963  0.1349 -0.4733
   65POPC   GL1 1324   6.034   8.232   8.636  0.2089  0.0617  0.2428
   65POPC   GL2 1325   6.192   8.456   8.390 -0.0189 -0.0607 -0.0351
   65POPC   C1A 1326   5.752   8.315   8.250 -0.2582 -0.0163 -0.2030
   65POPC   D2A 1327   5.539   8.326   7.766 -0.1740 -0.0542 -0.0787
   65POPC   C3A 1328   5.379   8.674   7.503 -0.1112  0.1637 -0.1002
   65POPC   C4A 1329   5.423   8.902   7.088  0.2929 -0.1172 -0.2615
   65POPC   C1B 1330   6.323   8.493   8.025  0.0689 -0.0789 -0.0050
   65POPC   C2B 1331   6.284   8.422   7.612  0.2111  0.0567  0.1866
   65POPC   C3B 1332   6.354   8.473   7.255 -0.0310  0.3589  0.2076
   65POPC   C4B 1333   6.075   8.454   6.855  0.2617  0.0086 -0.1554
   66POPC   NC3 1334   4.391   3.529   9.660  0.0440 -0.0716 -0.0873
   66POPC   PO4 1335   4.513   3.071   9.529 -0.0201  0.2115  0.1964
   66POPC   GL1 1336   4.577   3.283   9.223  0.0424  0.1031 -0.0875
   66POPC   GL2 1337   4.310   3.353   9.167  0.1540  0.3023 -0.0090
   66POPC   C1A 1338   4.789   3.348   8.917  0.2075 -0.0407 -0.2796
   66POPC   D2A 1339   4.797   3.537   8.533 -0.0185 -0.2268 -0.0756
   66POPC   C3A 1340   5.021   3.552   8.206 -0.1327 -0.3806  0.0264
   66POPC   C4A 1341   5.466   3.707   8.108  0.1787 -0.1748  0.1843
   66POPC   C1B 1342   4.322   3.180   8.790  0.2261 -0.1198 -0.1855
   66POPC   C2B 1343   4.371   3.146   8.390  0.1734 -0.0008  0.1890
   66POPC   C3B 1344   4.364   2.993   8.022  0.1768  0.2914  0.2451
   66POPC   C4B 1345   4.475   2.878   7.645 -0.0087  0.1078  0.1033
   67POPC   NC3 1346   9.671   7.893   9.486  0.0943 -0.0950 -0.0566
   67POPC   PO4 1347   9.714   8.323   9.324  0.0407 -0.0465 -0.1583
   67POPC   GL1 1348   9.911   8.123   8.967  0.1652 -0.1975  0.3666
   67POPC   GL2 1349   9.982   7.810   8.994  0.0856  0.3068  0.1749
   67POPC   C1A 1350   9.633   7.987   8.731  0.0454 -0.0933 -0.3637
   67POPC   D2A 1351   9.492   7.563   8.533 -0.2797  0.2001 -0.2570
   67POPC   C3A 1352   9.401   7.526   8.068 -0.3024  0.1434  0.1829
   67POPC   C4A 1353   9.183   7.481   7.642 -0.2065  0.0374 -0.1064
   67POPC   C1B 1354  10.229   7.933   8.611 -0.0316 -0.1729 -0.0747
   67POPC   C2B 1355  10.199   8.096   8.195 -0.0349  0.0143  0.0946
   67POPC   C3B 1356   9.848   8.189   7.824 -0.2861  0.0635 -0.1509
   67POPC   C4B 1357   9.506   8.378   7.639  0.1695 -0.0423  0.0407
   68POPC   NC3 1358   0.934   5.184   9.360 -0.0997 -0.1920 -0.4993
   68POPC   PO4 1359   0.635   5.607   9.396 -0.3792  0.3437 -0.1837
   68POPC   GL1 1360   0.747   5.397   8.978 -0.0060  0.0571  0.2801
   68POPC   GL2 1361   0.836   5.752   8.986 -0.0587  0.1952  0.0304
   68POPC   C1A 1362   0.955   5.360   8.643 -0.1638 -0.0012  0.4421
   68POPC   D2A 1363   0.945   5.391   8.175  0.0792 -0.1099  0.2734
   68POPC   C3A 1364   0.488   5.444   7.928 -0.3622 -0.1996 -0.2334
   68POPC   C4A 1365   0.086   5.428   8.080 -0.2309 -0.1599  0.0432
   68POPC   C1B 1366   0.822   5.846   8.516 -0.0480 -0.2464 -0.4100
   68POPC   C2B 1367   0.797   5.849   7.991 -0.1734  0.1127 -0.2635
   68POPC   C3B 1368   0.519   5.758   7.490  0.1650 -0.2321 -0.3942
   68POPC   C4B 1369   0.595   5.491   7.167 -0.3764  0.2433 -0.1712
   69POPC   NC3 1370   3.021   9.848   9.301  0.0341  0.0864  0.0755
   69POPC   PO4 1371   3.324  10.139   9.184 -0.0582  0.3370 -0.2489
   69POPC   GL1 1372   3.249  10.133   8.839 -0.2815 -0.1386  0.0549
   69POPC   GL2 1373   2.918  10.121   8.787  0.1003 -0.1909  0.0856
   69POPC   C1A 1374   3.499  10.197   8.403  0.1509  0.0146 -0.2605
   69POPC   D2A 1375   3.887  10.291   8.319  0.0256 -0.1343  0.0932
   69POPC   C3A 1376   3.867  10.705   8.274 -0.0593  0.1108 -0.0846
   69POPC   C4A 1377   3.995  11.189   8.102 -0.1218 -0.1246  0.0748
   69POPC   C1B 1378   3.000   9.929   8.430  0.3403  0.0233  0.1882
   69POPC   C2B 1379   3.007  10.175   8.044 -0.0112  0.0397  0.2645
   69POPC   C3B 1380   3.163  10.176   7.635 -0.1853 -0.1163 -0.3961
   69POPC   C4B 1381   3.109   9.825   7.365 -0.1436  0.0526 -0.0854
   70POPC   NC3 1382   7.378   4.327  10.013 -0.3596 -0.1694 -0.2173
   70POPC   PO4 1383   6.942   4.247   9.795 -0.1200 -0.3467 -0.0083
   70POPC   GL1 1384   6.928   4.029   9.444 -0.0517  0.1705  0.2649
   70POPC   GL2 1385   6.675   3.723   9.575  0.0203 -0.1144 -0.2178
   70POPC   C1A 1386   6.747   3.905   9.094 -0.0778  0.2725  0.1900
   70POPC   D2A 1387   6.686   3.591   8.673 -0.0067  0.0920 -0.1689
   70POPC   C3A 1388   6.196   3.600   8.694 -0.1637  0.2594 -0.1438
   70POPC   C4A 1389   5.778   3.756   8.556  0.0192  0.4200 -0.1258
   70POPC   C1B 1390   6.284   3.678   9.316 -0.3227 -0.2520 -0.0094
   70POPC   C2B 1391   5.972   3.508   9.151  0.0051 -0.0282 -0.2657
   70POPC   C3B 1392   5.698   3.276   9.018  0.0376  0.1770 -0.0500
   70POPC   C4B 1393   5.326   3.228   9.161  0.0099  0.0119  0.1267
   71POPC   NC3 1394   8.568   5.656   9.066 -0.1096 -0.1442  0.0382
   71POPC   PO4 1395   8.797   5.888   8.796  0.0908 -0.1236  0.0917
   71POPC   GL1 1396   8.743   5.537   8.434  0.2233 -0.1074  0.0386
   71POPC   GL2 1397   8.951   5.340   8.312  0.0094  0.1166 -0.3054
   71POPC   C1A 1398   8.449   5.208   8.234  0.2419 -0.1759 -0.0944
   71POPC   D2A 1399   8.443   4.978   7.771 -0.2677  0.4636  0.2424
   71POPC   C3A 1400   8.676   5.154   7.384  0.2751 -0.1068 -0.0467
   71POPC   C4A 1401   8.776   5.515   7.093  0.1413  0.1576 -0.1881
   71POPC   C1B 1402   8.965   5.104   7.973  0.1245 -0.2655 -0.0305
   71POPC   C2B 1403   9.009   4.885   7.636  0.0142 -0.0323 -0.0057
   71POPC   C3B 1404   9.069   4.848   7.157  0.1938 -0.1448  0.0980
   71POPC   C4B 1405   9.592   5.014   6.940  0.1941  0.0787  0.2176
   72POPC   NC3 1406   2.542   0.310   9.523 -0.0276 -0.2921 -0.1488
   72POPC   PO4 1407   2.683  -0.008   9.320  0.2295 -0.2427  0.0624
   72POPC   GL1 1408   2.347   0.104   9.084  0.1449 -0.1385  0.1124
   72POPC   GL2 1409   1.971  -0.158   9.043 -0.1117 -0.0797 -0.3440
   72POPC   C1A 1410   2.171   0.089   8.662 -0.0557  0.2425  0.0773
   72POPC   D2A 1411   2.253   0.205   8.173  0.0475 -0.1321 -0.0408
   72POPC   C3A 1412   2.458   0.304   7.808 -0.0558  0.1064 -0.0898
   72POPC   C4A 1413   2.764   0.410   7.416 -0.1740 -0.1418 -0.3065
   72POPC   C1B 1414   1.955  -0.429   8.749  0.0772 -0.1081 -0.0860
   72POPC   C2B 1415   2.037  -0.435   8.342 -0.0194 -0.1541  0.1232
   72POPC   C3B 1416   1.873  -0.440   7.899 -0.0393 -0.0992  0.1926
   72POPC   C4B 1417   1.535  -0.731   7.722  0.4070  0.6736  0.0454
   73POPC   NC3 1418   3.667   9.298   9.140 -0.2262  0.0263 -0.3091
   73POPC   PO4 1419   3.280   9.303   9.226  0.0486  0.3125  0.1143
   73POPC   GL1 1420   3.033   9.237   8.887  0.1663 -0.0143 -0.2149
   73POPC   GL2 1421   2.876   9.602   8.888  0.0181  0.0305 -0.0220
   73POPC   C1A 1422   2.799   8.963   8.621 -0.0024  0.3520 -0.2713
   73POPC   D2A 1423   2.566   8.631   8.508 -0.2139  0.2108  0.0518
   73POPC   C3A 1424   2.358   8.672   8.110  0.2395 -0.0643  0.2297
   73POPC   C4A 1425   2.339   8.805   7.733 -0.3299  0.1145 -0.1351
   73POPC   C1B 1426   2.845   9.461   8.501 -0.3509 -0.2480  0.1175
   73POPC   C2B 1427   2.690   9.650   8.135  0.0677 -0.1353  0.0414
   73POPC   C3B 1428   2.705   9.716   7.691 -0.1641 -0.0355 -0.2923
   73POPC   C4B 1429   2.383   9.699   7.267  0.0249 -0.0181 -0.0946
   74POPC   NC3 1430   5.840   2.864   9.817 -0.0611 -0.0185  0.1603
   74POPC   PO4 1431   5.917   2.444   9.685 -0.2541  0.0405  0.1169
   74POPC   GL1 1432   5.867   2.429   9.216  0.1570 -0.2716  0.0277
   74POPC   GL2 1433   5.606   2.300   9.153 -0.0405 -0.0277  0.0615
   74POPC   C1A 1434   6.208   2.464   8.890 -0.2362 -0.0861  0.3190
   74POPC   D2A 1435   6.332   2.549   8.464  0.0420  0.0367 -0.1250
   74POPC   C3A 1436   6.731   2.781   8.340 -0.0119 -0.0948  0.0218
   74POPC   C4A 1437   6.708   3.058   7.953 -0.5660  0.4374  0.3369
   74POPC   C1B 1438   5.411   2.188   8.728 -0.2069  0.4810 -0.0025
   74POPC   C2B 1439   5.475   1.973   8.437  0.0315 -0.0118 -0.2233
   74POPC   C3B 1440   5.577   1.617   8.388  0.0250 -0.2034  0.1382
   74POPC   C4B 1441   5.367   1.212   8.139 -0.0852  0.4849 -0.3124
   75POPC   NC3 1442   0.462   2.222   9.949  0.0264 -0.0518  0.2746
   75POPC   PO4 1443   0.683   1.978   9.580 -0.2724 -0.0980 -0.2835
   75POPC   GL1 1444   0.607   1.945   9.215  0.0138  0.1340 -0.0043
   75POPC   GL2 1445   0.824   1.652   9.040  0.3608 -0.2625 -0.4872
   75POPC   C1A 1446   0.696   2.269   8.964 -0.0462 -0.0799  0.2578
   75POPC   D2A 1447   1.080   2.647   8.812  0.0815  0.0824  0.0807
   75POPC   C3A 1448   1.102   2.716   8.413  0.0874  0.1387 -0.2429
   75POPC   C4A 1449   1.211   2.810   8.094 -0.0060 -0.1242 -0.0440
   75POPC   C1B 1450   0.906   1.881   8.740  0.2916  0.2614  0.3905
   75POPC   C2B 1451   0.943   1.851   8.329  0.1227  0.1975 -0.5993
   75POPC   C3B 1452   0.849   2.033   7.998 -0.1333  0.2479  0.0373
   75POPC   C4B 1453   0.600   2.200   7.702  0.1164 -0.1869  0.1995
   76POPC   NC3 1454   3.099   2.992   9.776  0.0104 -0.0287 -0.3343
   76POPC   PO4 1455   2.962   3.023   9.365 -0.0262  0.3287  0.1734
   76POPC   GL1 1456   3.082   3.131   8.996  0.0350  0.1028 -0.0684
   76POPC   GL2 1457   3.018   2.853   8.836  0.1065  0.0443 -0.0751
   76POPC   C1A 1458   3.412   3.086   8.630  0.0078 -0.0770  0.0689
   76POPC   D2A 1459   3.755   2.795   8.453 -0.0769 -0.0359 -0.1770
   76POPC   C3A 1460   3.874   2.879   8.018  0.2646 -0.1149  0.3061
   76POPC   C4A 1461   3.612   2.944   7.664  0.3809 -0.1384 -0.2537
   76POPC   C1B 1462   2.917   3.028   8.426  0.1212 -0.1354  0.1180
   76POPC   C2B 1463   3.285   3.168   8.033 -0.0347  0.1373 -0.0346
   76POPC   C3B 1464   3.150   3.166   7.562 -0.0894  0.1221  0.2681
   76POPC   C4B 1465   3.390   2.922   7.205  0.1319  0.0292 -0.1278
   77POPC   NC3 1466   0.062   8.633   9.452 -0.2131  0.2041  0.2966
   77POPC   PO4 1467   0.353   8.703   9.138  0.1296 -0.1088  0.0968
   77POPC   GL1 1468   0.218   8.726   8.752 -0.1373  0.3596 -0.1766
   77POPC   GL2 1469   0.534   8.525   8.607  0.0400  0.2149  0.0607
   77POPC   C1A 1470   0.098   8.665   8.351  0.1843  0.0166  0.0344
   77POPC   D2A 1471  -0.039   8.554   7.940  0.0772  0.0819 -0.3600
   77POPC   C3A 1472   0.092   8.301   7.656 -0.0629 -0.3546  0.0340
   77POPC   C4A 1473  -0.136   7.846   7.469  0.0929  0.0419 -0.1448
   77POPC   C1B 1474   0.674   8.710   8.317  0.1762 -0.0711  0.1766
   77POPC   C2B 1475   0.571   8.507   7.990 -0.0799  0.0261  0.2779
   77POPC   C3B 1476   0.586   8.261   7.615  0.1202 -0.0885  0.0713
   77POPC   C4B 1477   0.358   8.368   7.204 -0.0603 -0.2485 -0.0137
   78POPC   NC3 1478   3.210   6.043   9.440  0.1722 -0.0896 -0.1299
   78POPC   PO4 1479   3.380   6.521   9.457  0.1511  0.2748 -0.2358
   78POPC   GL1 1480   3.387   6.433   9.010  0.1298 -0.1318  0.1618
   78POPC   GL2 1481   3.224   6.603   8.911 -0.1568 -0.2616  0.3534
   78POPC   C1A 1482   3.072   6.182   8.628  0.1765  0.0317  0.2959
   78POPC   D2A 1483   2.838   5.978   8.335  0.1716 -0.0559 -0.0010
   78POPC   C3A 1484   2.836   6.142   7.906 -0.1668  0.0562 -0.3089
   78POPC   C4A 1485   2.854   6.125   7.459  0.0365 -0.0835 -0.0481
   78POPC   C1B 1486   3.376   6.533   8.494  0.0707  0.0803  0.0609
   78POPC   C2B 1487   3.349   6.245   8.167 -0.0566 -0.2087 -0.1832
   78POPC   C3B 1488   3.710   6.031   7.961  0.0383 -0.0250  0.1021
   78POPC   C4B 1489   4.091   5.642   7.885 -0.2398  0.4513 -0.0120
   79POPC   NC3 1490   2.545   2.653   9.147  0.2182 -0.1689 -0.1312
   79POPC   PO4 1491   2.901   2.417   9.026 -0.1081 -0.0477  0.1063
   79POPC   GL1 1492   3.058   2.325   8.602  0.0560 -0.1995 -0.2732
   79POPC   GL2 1493   3.327   2.271   8.569 -0.3822  0.1705  0.0775
   79POPC   C1A 1494   3.191   2.634   8.253 -0.0552  0.1804  0.2069
   79POPC   D2A 1495   3.376   2.521   7.819  0.2833 -0.0102  0.0337
   79POPC   C3A 1496   3.141   2.249   7.659 -0.0281 -0.0582  0.0550
   79POPC   C4A 1497   2.775   1.897   7.945  0.0484  0.4925 -0.0323
   79POPC   C1B 1498   3.361   2.053   8.101 -0.2644 -0.3913  0.3155
   79POPC   C2B 1499   3.245   1.777   7.698 -0.0390  0.1595  0.2450
   79POPC   C3B 1500   2.917   1.890   7.416 -0.0974  0.0656  0.1125
   79POPC   C4B 1501   2.795   1.947   7.032  0.0173  0.0424 -0.0564
   80POPC   NC3 1502   5.841   8.651   9.279 -0.0572 -0.0543  0.2237
   80POPC   PO4 1503   6.078   8.660   8.929  0.2471 -0.0160  0.2204
   80POPC   GL1 1504   5.896   8.821   8.550 -0.1817  0.4544 -0.0024
   80POPC   GL2 1505   5.952   9.201   8.410 -0.1773  0.3462  0.1810
   80POPC   C1A 1506   5.758   8.823   8.109  0.0485 -0.1826 -0.2263
   80POPC   D2A 1507   5.893   8.677   7.756  0.0823 -0.0583  0.0451
   80POPC   C3A 1508   5.830   8.439   7.372  0.3252 -0.0421 -0.0911
   80POPC   C4A 1509   5.623   8.124   7.077  0.3001 -0.2015  0.2061
   80POPC   C1B 1510   6.305   9.015   8.164  0.0660 -0.2498  0.1020
   80POPC   C2B 1511   6.621   9.026   7.897  0.0748 -0.0400 -0.1534
   80POPC   C3B 1512   6.751   9.128   7.544  0.0579  0.2144 -0.4265
   80POPC   C4B 1513   6.915   9.423   7.179  0.1548 -0.0433 -0.4382
   81POPC   NC3 1514   2.106   8.039   9.211 -0.0108  0.3068 -0.1566
   81POPC   PO4 1515   2.515   8.176   9.040 -0.1916 -0.2351  0.1741
   81POPC   GL1 1516   2.245   8.170   8.656 -0.2087 -0.2511  0.0626
   81POPC   GL2 1517   2.311   7.826   8.679  0.1779  0.0267  0.0229
   81POPC   C1A 1518   2.219   8.247   8.216 -0.1018  0.1099 -0.2016
   81POPC   D2A 1519   2.425   8.268   7.827  0.1076  0.2582 -0.0415
   81POPC   C3A 1520   2.754   8.571   7.617  0.0501  0.0465  0.1250
   81POPC   C4A 1521   2.765   8.892   7.332  0.0198 -0.1286  0.1571
   81POPC   C1B 1522   2.486   7.863   8.287  0.1132  0.5357  0.3927
   81POPC   C2B 1523   2.485   7.770   7.817  0.1522  0.1681 -0.1958
   81POPC   C3B 1524   2.664   7.815   7.485  0.0403 -0.0709 -0.2120
   81POPC   C4B 1525   3.049   7.972   7.407  0.0876 -0.2139  0.2755
   82POPC   NC3 1526   4.345   2.580   9.424  0.2258  0.0122  0.2855
   82POPC   PO4 1527   4.748   2.374   9.235 -0.2106 -0.3323  0.0752
   82POPC   GL1 1528   5.028   2.475   8.893  0.0014 -0.2931 -0.3327
   82POPC   GL2 1529   5.071   2.814   8.766  0.2193 -0.2325 -0.0173
   82POPC   C1A 1530   5.048   2.437   8.432 -0.1125  0.2601 -0.0563
   82POPC   D2A 1531   5.419   2.448   8.216 -0.1427 -0.0149  0.0122
   82POPC   C3A 1532   5.540   2.222   7.880 -0.3389  0.0447  0.0723
   82POPC   C4A 1533   5.691   1.994   7.536 -0.0196 -0.0253  0.2921
   82POPC   C1B 1534   4.916   3.081   8.463  0.4149 -0.0599  0.1759
   82POPC   C2B 1535   4.827   3.170   8.015 -0.0635 -0.0133  0.0226
   82POPC   C3B 1536   5.021   3.003   7.689 -0.0261  0.2579 -0.1205
   82POPC   C4B 1537   5.347   2.641   7.674 -0.1888 -0.1771 -0.0289
   83POPC   NC3 1538   4.296   1.194   8.957 -0.0881 -0.4209 -0.1282
   83POPC   PO4 1539   4.782   1.388   8.891  0.1753  0.0329  0.1055
   83POPC   GL1 1540   4.680   1.430   8.495 -0.1494  0.2522 -0.0250
   83POPC   GL2 1541   4.301   1.278   8.429 -0.1166  0.0093 -0.2750
   83POPC   C1A 1542   4.653   1.173   8.112 -0.1040 -0.2189  0.2204
   83POPC   D2A 1543   4.531   1.067   7.738 -0.1412 -0.1012  0.1346
   83POPC   C3A 1544   4.752   0.743   7.426  0.1071  0.2287  0.0781
   83POPC   C4A 1545   5.180   0.610   7.457  0.0855 -0.0888  0.0545
   83POPC   C1B 1546   4.171   1.423   7.955 -0.0772  0.1543 -0.0114
   83POPC   C2B 1547   4.329   1.498   7.558  0.0116  0.1241  0.0051
   83POPC   C3B 1548   4.700   1.562   7.367 -0.1524  0.0584 -0.1798
   83POPC   C4B 1549   4.891   1.929   7.072 -0.0476  0.2153  0.0301
   84POPC   NC3 1550   3.780   9.940   9.239 -0.2991  0.0721  0.2016
   84POPC   PO4 1551   3.988   9.614   8.877 -0.1275 -0.3598 -0.2274
   84POPC   GL1 1552   3.731   9.840   8.625 -0.3007  0.4180 -0.2415
   84POPC   GL2 1553   3.421   9.672   8.879  0.0339  0.1938  0.1263
   84POPC   C1A 1554   3.616   9.812   8.144 -0.0804 -0.0200 -0.0898
   84POPC   D2A 1555   3.206   9.715   7.947  0.0892 -0.2466 -0.1226
   84POPC   C3A 1556   3.335   9.469   7.769  0.0636 -0.0522  0.0112
   84POPC   C4A 1557   3.166   9.230   7.420  0.1540  0.0676 -0.1723
   84POPC   C1B 1558   3.345   9.475   8.504  0.3438 -0.1585  0.0459
   84POPC   C2B 1559   3.134   9.130   8.268 -0.3563 -0.3150  0.0951
   84POPC   C3B 1560   2.901   8.739   8.098  0.0681 -0.0775 -0.2701
   84POPC   C4B 1561   2.814   8.240   8.093  0.2504 -0.0084  0.0583
   85POPC   NC3 1562  10.129   7.640   9.428 -0.0235  0.0704  0.0837
   85POPC   PO4 1563   9.975   7.293   9.157  0.2017  0.1264  0.2954
   85POPC   GL1 1564   9.920   7.354   8.756  0.1712 -0.5882  0.1358
   85POPC   GL2 1565  10.219   7.347   8.669  0.1929 -0.1140 -0.0317
   85POPC   C1A 1566   9.929   7.632   8.372 -0.2892 -0.3415  0.1554
   85POPC   D2A 1567   9.991   7.629   7.937  0.0404 -0.0296  0.1143
   85POPC   C3A 1568   9.658   7.724   7.680  0.0255 -0.1633  0.1432
   85POPC   C4A 1569   9.290   7.952   7.419  0.2629 -0.1518  0.0449
   85POPC   C1B 1570  10.264   7.132   8.317  0.1249 -0.2940  0.1389
   85POPC   C2B 1571  10.563   6.841   8.334 -0.2230  0.1438 -0.0484
   85POPC   C3B 1572  10.940   6.792   8.521 -0.0795  0.0409 -0.1312
   85POPC   C4B 1573  11.332   6.664   8.384  0.1207  0.1765 -0.0734
   86POPC   NC3 1574   0.828   2.904   9.588 -0.0306  0.1520 -0.1778
   86POPC   PO4 1575   0.506   3.236   9.553 -0.0720 -0.0616  0.1345
   86POPC   GL1 1576   0.358   3.392   9.101 -0.1460 -0.1144  0.0917
   86POPC   GL2 1577   0.159   3.571   9.055 -0.2259 -0.4868  0.2712
   86POPC   C1A 1578   0.631   3.508   8.767 -0.1006  0.0647  0.0034
   86POPC   D2A 1579   0.582   3.551   8.460 -0.1886  0.1265  0.2002
   86POPC   C3A 1580   0.121   3.443   8.137  0.1450  0.1178  0.0243
   86POPC   C4A 1581  -0.329   3.577   7.953 -0.0655  0.2537  0.0767
   86POPC   C1B 1582   0.132   3.602   8.581 -0.2521  0.1424  0.3527
   86POPC   C2B 1583  -0.078   3.790   8.384  0.3354  0.0590  0.0923
   86POPC   C3B 1584   0.053   3.912   7.996  0.3975  0.1169  0.1750
   86POPC   C4B 1585   0.135   3.697   7.652 -0.0616  0.1648 -0.1832
   87POPC   NC3 1586   9.568   6.153   9.466 -0.1636 -0.2337  0.0211
   87POPC   PO4 1587   9.540   5.659   9.413  0.0222  0.2977  0.0189
   87POPC   GL1 1588   9.639   5.429   8.985  0.3279  0.2109  0.0995
   87POPC   GL2 1589   9.459   5.248   8.826 -0.1545 -0.1392 -0.0579
   87POPC   C1A 1590   9.812   5.394   8.559  0.2875  0.1931 -0.2032
   87POPC   D2A 1591   9.946   5.117   8.161  0.1622  0.3875 -0.0895
   87POPC   C3A 1592   9.934   4.723   8.309  0.0254 -0.1535 -0.0653
   87POPC   C4A 1593   9.727   4.433   8.280 -0.1423  0.1931 -0.2557
   87POPC   C1B 1594   9.354   4.989   8.578 -0.2063  0.0439  0.0127
   87POPC   C2B 1595   9.208   4.655   8.311  0.1045  0.1779 -0.0667
   87POPC   C3B 1596   9.335   4.563   7.863  0.1126 -0.2011 -0.2895
   87POPC   C4B 1597   9.584   4.308   7.792 -0.2553 -0.0669 -0.1736
   88POPC   NC3 1598   9.408   9.435   9.223 -0.1336  0.0982 -0.0079
   88POPC   PO4 1599   9.897   9.292   9.136  0.3155  0.2122 -0.1634
   88POPC   GL1 1600   9.635   9.380   8.804  0.0410  0.1978  0.1498
   88POPC   GL2 1601   9.728   9.074   8.745  0.1954  0.1623 -0.0011
   88POPC   C1A 1602   9.452   9.391   8.395  0.0804 -0.0872 -0.1800
   88POPC   D2A 1603   9.507   9.380   8.003 -0.1542  0.1801 -0.0673
   88POPC   C3A 1604   9.830   9.217   7.848  0.0647 -0.0683 -0.3575
   88POPC   C4A 1605  10.197   9.033   7.767  0.0830 -0.0091  0.1343
   88POPC   C1B 1606   9.776   8.993   8.262  0.1835 -0.0366  0.1199
   88POPC   C2B 1607   9.712   8.691   7.975  0.1095 -0.0176  0.1869
   88POPC   C3B 1608   9.873   8.687   7.571  0.0574  0.2480 -0.4680
   88POPC   C4B 1609  10.240   8.670   7.370  0.2293  0.1133  0.1550
   89POPC   NC3 1610   1.313   9.907   9.572  0.0186 -0.0975  0.1574
   89POPC   PO4 1611   1.410   9.540   9.511  0.0197 -0.2446  0.0382
   89POPC   GL1 1612   1.262   9.342   9.177 -0.0644 -0.1298 -0.1953
   89POPC   GL2 1613   1.299   9.002   9.129  0.1173  0.2031 -0.1053
   89POPC   C1A 1614   1.378   9.367   8.715 -0.3656  0.0126  0.1758
   89POPC   D2A 1615   1.386   9.480   8.318  0.1544 -0.5009  0.0277
   89POPC   C3A 1616   1.086   9.388   8.029 -0.0726 -0.2011  0.0168
   89POPC   C4A 1617   0.927   9.325   7.544 -0.1265 -0.0352 -0.2638
   89POPC   C1B 1618   1.643   8.826   8.892 -0.0065 -0.2095 -0.2538
   89POPC   C2B 1619   1.574   8.831   8.397 -0.2496  0.1632 -0.2291
   89POPC   C3B 1620   1.507   9.099   8.058  0.1300 -0.0166  0.2246
   89POPC   C4B 1621   1.354   9.046   7.575  0.2661 -0.1429  0.2910
   90POPC   NC3 1622   4.476   6.360   9.132 -0.0628  0.0417  0.1149
   90POPC   PO4 1623   4.788   6.679   8.953  0.3331  0.2531 -0.0056
   90POPC   GL1 1624   4.738   6.938   8.589 -0.1049 -0.2371  0.1742
   90POPC   GL2 1625   4.729   6.712   8.235 -0.4431  0.2603 -0.1512
   90POPC   C1A 1626   4.505   7.185   8.322  0.1914  0.0967  0.2090
   90POPC   D2A 1627   4.295   7.363   8.000  0.3309  0.2096  0.1371
   90POPC   C3A 1628   4.419   7.252   7.499  0.0292 -0.4159  0.0565
   90POPC   C4A 1629   4.219   7.272   7.109 -0.0785 -0.3734  0.2045
   90POPC   C1B 1630   4.559   6.733   7.814 -0.0897  0.1325  0.1924
   90POPC   C2B 1631   4.320   6.569   7.525  0.1709 -0.1818 -0.0496
   90POPC   C3B 1632   4.210   6.292   7.172  0.2631 -0.0562  0.1402
   90POPC   C4B 1633   4.343   6.263   6.782 -0.1626 -0.4574 -0.0158
   91POPC   NC3 1634   2.650   1.744   9.580  0.1553  0.3573 -0.1532
   91POPC   PO4 1635   2.285   1.619   9.445 -0.0727 -0.0939  0.0790
   91POPC   GL1 1636   2.403   1.852   9.048  0.2732  0.1024 -0.4595
   91POPC   GL2 1637   2.412   2.218   8.917  0.1848  0.2422 -0.0433
   91POPC   C1A 1638   2.219   1.792   8.639  0.1085 -0.0773  0.1624
   91POPC   D2A 1639   2.295   1.992   8.106 -0.1785  0.0205 -0.0322
   91POPC   C3A 1640   2.242   1.980   7.747  0.2477 -0.1432  0.2868
   91POPC   C4A 1641   2.371   1.863   7.361  0.0328 -0.1436 -0.0148
   91POPC   C1B 1642   2.550   2.190   8.494 -0.1218  0.1788  0.2465
   91POPC   C2B 1643   2.799   2.312   8.175 -0.0229 -0.1170  0.3603
   91POPC   C3B 1644   2.623   2.291   7.744  0.2023 -0.0865  0.0078
   91POPC   C4B 1645   2.623   2.368   7.427  0.1024 -0.1533 -0.3456
   92POPC   NC3 1646   7.537   1.105   9.583  0.4535 -0.1189  0.1153
   92POPC   PO4 1647   7.089   1.276   9.467  0.3475  0.1003 -0.1900
   92POPC   GL1 1648   7.051   1.392   8.972  0.3243  0.2543  0.1807
   92POPC   GL2 1649   6.679   1.456   8.935  0.0482  0.0722 -0.3788
   92POPC   C1A 1650   6.940   1.349   8.481  0.0364  0.0315  0.0978
   92POPC   D2A 1651   7.011   1.294   8.030 -0.2195  0.0851  0.3832
   92POPC   C3A 1652   7.242   1.566   7.667  0.4175 -0.0809 -0.2936
   92POPC   C4A 1653   7.295   1.857   7.361  0.1322 -0.0953 -0.4296
   92POPC   C1B 1654   6.418   1.716   8.772  0.1332  0.2102  0.1440
   92POPC   C2B 1655   6.410   2.071   8.479  0.1122  0.4079 -0.2227
   92POPC   C3B 1656   6.541   2.309   8.131  0.2489  0.2266  0.2050
   92POPC   C4B 1657   6.436   2.707   7.788  0.1246 -0.2829 -0.1296
   93POPC   NC3 1658   4.529   8.543   9.547 -0.1144 -0.0101  0.2811
   93POPC   PO4 1659   4.559   8.820   9.244 -0.0190 -0.0699  0.2912
   93POPC   GL1 1660   4.323   8.632   8.861  0.2459 -0.0054  0.2695
   93POPC   GL2 1661   4.017   8.853   8.661 -0.1064  0.2745 -0.2107
   93POPC   C1A 1662   4.290   8.484   8.414  0.1654 -0.1181 -0.0797
   93POPC   D2A 1663   4.121   8.324   8.032 -0.1106 -0.4893  0.3948
   93POPC   C3A 1664   3.714   8.218   7.972  0.1847 -0.0765 -0.0081
   93POPC   C4A 1665   3.245   8.198   7.777 -0.0651 -0.1938 -0.0530
   93POPC   C1B 1666   4.026   8.886   8.243  0.0905  0.4053 -0.1728
   93POPC   C2B 1667   3.796   8.724   7.895  0.0152 -0.1183 -0.0327
   93POPC   C3B 1668   3.480   8.618   7.546  0.0216  0.0677 -0.1926
   93POPC   C4B 1669   3.230   8.659   7.378  0.1087 -0.1823  0.0324
   94POPC   NC3 1670   4.664  10.196   8.901  0.2650  0.3620 -0.0453
   94POPC   PO4 1671   4.910  10.283   8.714  0.1717 -0.0884 -0.1307
   94POPC   GL1 1672   5.065  10.542   8.327  0.3035  0.0225  0.1360
   94POPC   GL2 1673   5.412  10.502   8.280  0.1439  0.2465 -0.2160
   94POPC   C1A 1674   4.914  10.678   8.052  0.0637 -0.0720  0.2500
   94POPC   D2A 1675   4.630  10.649   7.713  0.1332 -0.1695 -0.0080
   94POPC   C3A 1676   4.817  10.598   7.216  0.4081 -0.0208 -0.2162
   94POPC   C4A 1677   4.839  10.434   6.871 -0.0566 -0.0896 -0.0814
   94POPC   C1B 1678   5.301  10.253   7.971  0.1096  0.0482 -0.0989
   94POPC   C2B 1679   5.091  10.292   7.604 -0.3494 -0.1376 -0.2112
   94POPC   C3B 1680   5.217  10.208   7.186 -0.0314 -0.1623 -0.0561
   94POPC   C4B 1681   5.495   9.823   6.967  0.1987 -0.1258  0.1102
   95POPC   NC3 1682   8.590   3.534   9.829 -0.2593  0.0357  0.3941
   95POPC   PO4 1683   8.725   3.037   9.855 -0.0903 -0.1829 -0.0540
   95POPC   GL1 1684   8.830   2.944   9.504 -0.0916  0.5818  0.2968
   95POPC   GL2 1685   8.818   3.178   9.380 -0.4289 -0.1292 -0.0628
   95POPC   C1A 1686   8.563   2.757   9.091 -0.2747 -0.0590  0.1252
   95POPC   D2A 1687   8.641   2.801   8.662 -0.0060  0.0374  0.0080
   95POPC   C3A 1688   8.293   2.709   8.556  0.1647  0.0177 -0.2574
   95POPC   C4A 1689   8.037   2.462   8.973  0.1704 -0.0200  0.1820
   95POPC   C1B 1690   8.751   3.226   8.941 -0.0623 -0.0432 -0.0236
   95POPC   C2B 1691   8.639   3.296   8.473  0.0179 -0.2999 -0.2471
   95POPC   C3B 1692   8.689   3.526   8.138 -0.1275 -0.1186 -0.0227
   95POPC   C4B 1693   9.041   3.657   7.897  0.2200  0.2738  0.0308
   96POPC   NC3 1694   0.141   4.533   9.785 -0.2559  0.4275 -0.0748
   96POPC   PO4 1695   0.005   4.779   9.482  0.0957  0.0854 -0.3617
   96POPC   GL1 1696  -0.001   4.900   9.137 -0.2551  0.0877  0.2218
   96POPC   GL2 1697  -0.119   5.182   8.894  0.2391 -0.0716 -0.0216
   96POPC   C1A 1698   0.304   4.809   8.855  0.1097 -0.1403  0.0812
   96POPC   D2A 1699   0.666   5.000   8.647  0.0824 -0.0003 -0.2682
   96POPC   C3A 1700   0.423   5.353   8.511 -0.2110  0.0152 -0.2133
   96POPC   C4A 1701   0.377   5.779   8.322 -0.1792 -0.0415 -0.0903
   96POPC   C1B 1702   0.077   4.984   8.442  0.2546 -0.0105 -0.0571
   96POPC   C2B 1703   0.027   4.823   8.058  0.0132  0.1537  0.1678
   96POPC   C3B 1704  -0.113   4.977   7.715  0.1647 -0.0644 -0.1732
   96POPC   C4B 1705  -0.368   4.970   7.325 -0.0233 -0.0438 -0.0286
   97POPC   NC3 1706   9.094   0.956   9.253  0.0442 -0.0380 -0.0491
   97POPC   PO4 1707   9.543   1.063   9.309  0.0986 -0.2397 -0.0675
   97POPC   GL1 1708   9.510   1.107   8.869 -0.0973 -0.0027  0.0225
   97POPC   GL2 1709   9.783   1.083   8.656  0.0918 -0.2147  0.1573
   97POPC   C1A 1710   9.341   0.962   8.483 -0.3808  0.1325 -0.0163
   97POPC   D2A 1711   9.379   1.129   8.008  0.0194  0.1780 -0.0328
   97POPC   C3A 1712   9.350   1.553   7.952  0.0729  0.0392 -0.0032
   97POPC   C4A 1713   9.448   1.950   7.844  0.0546  0.2876 -0.0678
   97POPC   C1B 1714   9.598   1.377   8.408  0.1633  0.0696 -0.0024
   97POPC   C2B 1715   9.244   1.511   8.505 -0.2565 -0.0474  0.1942
   97POPC   C3B 1716   8.801   1.650   8.465  0.1535 -0.2178 -0.1608
   97POPC   C4B 1717   8.463   1.638   8.168  0.0573 -0.3673 -0.1137
   98POPC   NC3 1718   4.348   4.242   9.559 -0.2945 -0.0429  0.1082
   98POPC   PO4 1719   4.700   3.972   9.646 -0.1991  0.2155 -0.0828
   98POPC   GL1 1720   4.757   3.711   9.372 -0.1407 -0.0096 -0.1737
   98POPC   GL2 1721   4.497   3.835   9.202 -0.1717 -0.0996  0.1439
   98POPC   C1A 1722   5.081   3.643   9.232  0.2598  0.2056  0.2687
   98POPC   D2A 1723   5.504   3.709   9.252 -0.0433 -0.2785 -0.1467
   98POPC   C3A 1724   5.671   3.853   9.464 -0.2682 -0.3554 -0.0874
   98POPC   C4A 1725   5.971   4.261   9.454 -0.0507 -0.0032  0.1924
   98POPC   C1B 1726   4.408   3.676   8.826  0.1979 -0.1971  0.2534
   98POPC   C2B 1727   4.140   3.721   8.412  0.2098 -0.3606 -0.0677
   98POPC   C3B 1728   4.164   4.081   8.126 -0.4692 -0.0640  0.1446
   98POPC   C4B 1729   4.206   4.361   7.775  0.1439 -0.3352 -0.2403
   99POPC   NC3 1730   4.860   5.931   9.375  0.0511 -0.3655  0.0139
   99POPC   PO4 1731   4.946   6.173   8.993 -0.4154  0.1364 -0.0853
   99POPC   GL1 1732   4.582   5.886   8.921  0.1011 -0.2457 -0.0519
   99POPC   GL2 1733   4.839   5.664   8.982  0.1466  0.0692  0.2281
   99POPC   C1A 1734   4.239   5.683   8.820 -0.1716 -0.0881 -0.1852
   99POPC   D2A 1735   3.928   5.264   8.865 -0.2001 -0.1604  0.0299
   99POPC   C3A 1736   3.564   5.270   8.517 -0.1672 -0.2732 -0.2996
   99POPC   C4A 1737   3.424   5.043   8.344  0.0696  0.1857  0.1243
   99POPC   C1B 1738   4.706   5.435   8.643 -0.0365  0.0455 -0.0295
   99POPC   C2B 1739   4.792   5.205   8.296  0.0776 -0.1838  0.0164
   99POPC   C3B 1740   4.654   4.838   8.135 -0.0498 -0.0275  0.1326
   99POPC   C4B 1741   4.674   4.412   8.109  0.4349 -0.0699 -0.1350
  100POPC   NC3 1742   4.325   7.164   9.323  0.2183  0.0997  0.1657
  100POPC   PO4 1743   4.328   6.885   9.040  0.1305  0.3897 -0.0305
  100POPC   GL1 1744   4.285   6.717   8.711  0.2773  0.1963  0.2921
  100POPC   GL2 1745   4.011   6.703   8.681 -0.2005  0.0635 -0.0252
  100POPC   C1A 1746   4.262   6.538   8.266 -0.1876  0.0650 -0.0706
  100POPC   D2A 1747   4.200   6.259   8.028  0.0378  0.1257 -0.2568
  100POPC   C3A 1748   4.383   5.935   8.197 -0.0684 -0.0264  0.2535
  100POPC   C4A 1749   4.712   5.684   8.232 -0.0893  0.1668  0.0345
  100POPC   C1B 1750   4.066   6.981   8.339  0.0404 -0.2795 -0.0808
  100POPC   C2B 1751   4.089   6.955   7.836 -0.1193 -0.1069  0.0783
  100POPC   C3B 1752   3.887   6.825   7.564  0.4088 -0.0517 -0.3842
  100POPC   C4B 1753   3.625   6.502   7.548 -0.0436 -0.2374  0.0833
  101POPC   NC3 1754   9.908   0.775   9.127 -0.1415  0.1583  0.0463
  101POPC   PO4 1755   9.873   0.309   9.226  0.0563  0.0505 -0.2596
  101POPC   GL1 1756   9.962   0.103   8.888  0.0259  0.0871  0.1145
  101POPC   GL2 1757   9.887  -0.235   9.057 -0.1815  0.0005 -0.2150
  101POPC   C1A 1758   9.953  -0.112   8.435  0.1343 -0.1752  0.2316
  101POPC   D2A 1759   9.858  -0.080   7.951  0.1407  0.0347  0.3409
  101POPC   C3A 1760   9.459  -0.048   7.840 -0.1037  0.2422  0.1552
  101POPC   C4A 1761   9.056  -0.087   7.788 -0.1723  0.1572  0.0904
  101POPC   C1B 1762   9.865  -0.538   8.696  0.0808  0.0051 -0.1094
  101POPC   C2B 1763   9.896  -0.760   8.341 -0.1659  0.0348  0.0844
  101POPC   C3B 1764   9.939  -0.654   7.949 -0.3395  0.1529  0.0806
  101POPC   C4B 1765   9.892  -0.581   7.567  0.1121 -0.1388  0.2725
  102POPC   NC3 1766   8.454   7.797   8.878 -0.0426 -0.0567 -0.2081
  102POPC   PO4 1767   7.991   7.746   8.818 -0.0614 -0.0572  0.2320
  102POPC   GL1 1768   8.166   7.722   8.420  0.2559 -0.2002 -0.1303
  102POPC   GL2 1769   8.423   7.587   8.327  0.3647 -0.1878 -0.0561
  102POPC   C1A 1770   8.098   8.024   8.031  0.1942  0.1489 -0.0129
  102POPC   D2A 1771   7.994   8.258   7.762  0.1302  0.0630 -0.1452
  102POPC   C3A 1772   7.877   8.149   7.323 -0.1100  0.2302  0.2345
  102POPC   C4A 1773   8.097   8.266   6.915 -0.1016 -0.2012  0.3601
  102POPC   C1B 1774   8.532   7.434   7.890 -0.0390 -0.0042  0.1170
  102POPC   C2B 1775   8.605   7.488   7.417 -0.1111 -0.1540  0.0439
  102POPC   C3B 1776   9.015   7.628   7.172 -0.0702 -0.1626 -0.0572
  102POPC   C4B 1777   9.370   7.442   7.139  0.1306 -0.1549 -0.1148
  103POPC   NC3 1778   4.962   8.916   8.825  0.0706  0.2854 -0.3059
  103POPC   PO4 1779   4.986   9.250   8.633 -0.1984 -0.0462  0.2071
  103POPC   GL1 1780   5.026   9.233   8.236 -0.1152 -0.0780  0.0899
  103POPC   GL2 1781   4.941   9.564   8.155  0.2322  0.1828  0.0339
  103POPC   C1A 1782   5.291   8.962   7.952  0.0360 -0.2674  0.0766
  103POPC   D2A 1783   5.502   9.143   7.592 -0.0765 -0.4446  0.0250
  103POPC   C3A 1784   5.927   8.974   7.305 -0.0043 -0.0942 -0.0459
  103POPC   C4A 1785   5.933   8.918   6.871 -0.2551 -0.0407 -0.1110
  103POPC   C1B 1786   5.004   9.270   7.755 -0.1761  0.1441  0.0763
  103POPC   C2B 1787   5.040   9.171   7.385  0.1498  0.0140 -0.0836
  103POPC   C3B 1788   5.044   9.484   7.022  0.3653  0.1226  0.2957
  103POPC   C4B 1789   4.963   9.949   6.821  0.0638  0.1223  0.2495
  104POPC   NC3 1790   9.069   6.666   8.865  0.1110  0.2051  0.1480
  104POPC   PO4 1791   8.613   6.718   8.708  0.1981  0.0039 -0.1174
  104POPC   GL1 1792   8.951   6.720   8.371 -0.0856 -0.0361  0.0863
  104POPC   GL2 1793   9.360   6.857   8.425  0.0242 -0.1835  0.1140
  104POPC   C1A 1794   9.316   6.401   8.122  0.1399 -0.1582 -0.1354
  104POPC   D2A 1795   9.365   6.245   7.753 -0.0256  0.0666  0.0183
  104POPC   C3A 1796   9.642   6.022   7.729  0.1680  0.1203 -0.1735
  104POPC   C4A 1797   9.949   5.872   7.540 -0.0967  0.2317 -0.0104
  104POPC   C1B 1798   9.486   6.959   7.996  0.1893 -0.0453  0.2247
  104POPC   C2B 1799   9.367   6.849   7.530 -0.2245 -0.2801 -0.0309
  104POPC   C3B 1800   9.184   6.886   7.066 -0.1912  0.3467 -0.2063
  104POPC   C4B 1801   8.738   6.695   6.882 -0.2082  0.0263 -0.0921
  105POPC   NC3 1802  10.288   6.901   9.198 -0.0035  0.2528  0.0425
  105POPC   PO4 1803  10.377   7.157   9.425  0.1911 -0.3169 -0.4283
  105POPC   GL1 1804  10.495   7.462   9.065 -0.3374  0.1702  0.1089
  105POPC   GL2 1805  10.521   7.801   9.089  0.1303 -0.0804  0.0689
  105POPC   C1A 1806  10.677   7.244   8.616 -0.2174 -0.0189 -0.1044
  105POPC   D2A 1807  10.929   7.225   8.274  0.1330 -0.2059  0.0637
  105POPC   C3A 1808  11.007   7.427   7.805  0.1593 -0.4775  0.0030
  105POPC   C4A 1809  11.038   7.293   7.373 -0.1064 -0.0541 -0.0726
  105POPC   C1B 1810  10.712   8.086   8.656  0.0743  0.2357 -0.0711
  105POPC   C2B 1811  10.704   8.112   8.200 -0.0833 -0.1660 -0.1210
  105POPC   C3B 1812  10.613   7.848   7.752 -0.3114 -0.0342  0.1938
  105POPC   C4B 1813  10.879   7.853   7.329 -0.0639 -0.0191  0.1452
  106POPC   NC3 1814   1.595   2.702   9.994 -0.1302  0.0050  0.1396
  106POPC   PO4 1815   1.559   2.766   9.579 -0.1182  0.4090 -0.0482
  106POPC   GL1 1816   1.650   2.758   9.134 -0.0375 -0.2155 -0.1241
  106POPC   GL2 1817   1.561   2.602   8.999  0.1339 -0.2200  0.0110
  106POPC   C1A 1818   1.788   3.076   8.766  0.0816  0.1031 -0.1458
  106POPC   D2A 1819   1.660   3.103   8.287 -0.0149  0.0701  0.2066
  106POPC   C3A 1820   1.976   3.000   7.973 -0.3638  0.1178  0.1180
  106POPC   C4A 1821   2.078   3.207   7.741 -0.2587  0.2831  0.1317
  106POPC   C1B 1822   1.616   2.682   8.537  0.1848 -0.3348 -0.3381
  106POPC   C2B 1823   1.679   2.626   8.131 -0.1054  0.0332 -0.0056
  106POPC   C3B 1824   1.540   2.643   7.773  0.1602 -0.5250 -0.2405
  106POPC   C4B 1825   1.410   2.807   7.289 -0.0747 -0.0589 -0.0918
  107POPC   NC3 1826   3.172   7.829   8.857 -0.0232  0.1998 -0.1583
  107POPC   PO4 1827   2.738   7.748   8.924 -0.1360  0.1616 -0.1314
  107POPC   GL1 1828   2.787   7.485   8.549  0.0364  0.1344 -0.0671
  107POPC   GL2 1829   2.927   7.685   8.424 -0.3172  0.1774  0.0308
  107POPC   C1A 1830   2.660   7.394   8.120  0.1351 -0.2387 -0.1791
  107POPC   D2A 1831   2.632   7.262   7.689 -0.0851  0.2762 -0.1666
  107POPC   C3A 1832   2.317   7.260   7.393 -0.0674 -0.0876  0.0970
  107POPC   C4A 1833   2.194   7.378   7.023 -0.2365  0.2713  0.1721
  107POPC   C1B 1834   3.026   7.754   7.969  0.1080 -0.1659 -0.1037
  107POPC   C2B 1835   3.064   7.535   7.668  0.0975 -0.0370 -0.2530
  107POPC   C3B 1836   3.296   7.535   7.293  0.3900 -0.0023  0.0772
  107POPC   C4B 1837   3.525   7.888   6.946 -0.1270  0.1476  0.1714
  108POPC   NC3 1838   5.819   5.546   8.928 -0.2800 -0.0044  0.1514
  108POPC   PO4 1839   6.206   5.430   9.156  0.0432 -0.2505 -0.0844
  108POPC   GL1 1840   5.993   5.032   8.944  0.0797  0.1591  0.2386
  108POPC   GL2 1841   5.691   5.040   9.042 -0.0252 -0.0735  0.0715
  108POPC   C1A 1842   5.820   4.564   8.822  0.0379 -0.0645  0.0803
  108POPC   D2A 1843   5.731   4.266   8.519  0.0438 -0.1027  0.0020
  108POPC   C3A 1844   5.379   4.020   8.683  0.0369  0.4364 -0.3249
  108POPC   C4A 1845   5.330   3.631   8.773  0.1084  0.1751 -0.4039
  108POPC   C1B 1846   5.563   4.982   8.694 -0.0018 -0.0194  0.1320
  108POPC   C2B 1847   5.366   4.657   8.568  0.1319  0.0722 -0.1088
  108POPC   C3B 1848   5.122   4.368   8.883  0.3569  0.1945 -0.1856
  108POPC   C4B 1849   4.924   3.989   8.936  0.2261  0.0298  0.1028
  109POPC   NC3 1850   2.551   7.474   9.363 -0.2963 -0.1276  0.1879
  109POPC   PO4 1851   2.338   6.942   9.343 -0.2224 -0.3793  0.1255
  109POPC   GL1 1852   2.388   6.846   8.940  0.4228  0.3044 -0.1432
  109POPC   GL2 1853   2.512   6.582   8.909  0.0152 -0.2518  0.1126
  109POPC   C1A 1854   2.462   6.955   8.564 -0.2166 -0.0012  0.1219
  109POPC   D2A 1855   2.489   6.948   8.160 -0.1367  0.0362  0.1346
  109POPC   C3A 1856   2.255   6.892   7.796  0.1336  0.1230  0.2802
  109POPC   C4A 1857   1.998   6.924   7.415 -0.1950 -0.3025  0.5205
  109POPC   C1B 1858   2.795   6.571   8.638  0.0838 -0.0855  0.1035
  109POPC   C2B 1859   2.853   6.533   8.200  0.2588  0.1936 -0.0003
  109POPC   C3B 1860   2.688   6.722   7.780  0.1661  0.2941 -0.3310
  109POPC   C4B 1861   2.553   6.840   7.364  0.1914 -0.2809 -0.3725
  110POPC   NC3 1862   3.312   0.707   9.114 -0.0080 -0.2903  0.0525
  110POPC   PO4 1863   3.786   0.518   8.920  0.1251 -0.1032 -0.1121
  110POPC   GL1 1864   3.338   0.399   8.652 -0.0494  0.0449 -0.2077
  110POPC   GL2 1865   3.125   0.161   8.518 -0.0190 -0.2832 -0.1004
  110POPC   C1A 1866   3.068   0.641   8.336 -0.0968  0.0143  0.0058
  110POPC   D2A 1867   3.153   0.894   7.972  0.0971  0.2717  0.0258
  110POPC   C3A 1868   3.211   0.923   7.616 -0.2054  0.1584  0.0693
  110POPC   C4A 1869   3.357   1.333   7.582  0.0406 -0.1561  0.2212
  110POPC   C1B 1870   3.253   0.296   8.052 -0.0446  0.0632  0.1091
  110POPC   C2B 1871   3.235   0.356   7.681  0.1311 -0.2299 -0.4277
  110POPC   C3B 1872   3.246   0.439   7.346  0.2528  0.2544 -0.0250
  110POPC   C4B 1873   3.048   0.637   6.982 -0.1646 -0.1760  0.1546
  111POPC   NC3 1874   5.419   1.566   9.555 -0.2819 -0.4307 -0.5167
  111POPC   PO4 1875   5.711   1.248   9.333  0.5430 -0.3163  0.1411
  111POPC   GL1 1876   5.738   1.301   8.843  0.2570 -0.0926  0.2645
  111POPC   GL2 1877   5.904   1.095   8.548  0.2135  0.1204 -0.0080
  111POPC   C1A 1878   5.991   1.541   8.642  0.1478 -0.3881  0.0910
  111POPC   D2A 1879   5.977   1.784   8.258 -0.1137 -0.1901 -0.0308
  111POPC   C3A 1880   6.208   1.804   7.904 -0.1057  0.3264 -0.0539
  111POPC   C4A 1881   6.220   1.816   7.428 -0.0875  0.3044  0.0637
  111POPC   C1B 1882   5.802   0.987   8.045  0.0998  0.0120  0.1110
  111POPC   C2B 1883   5.730   1.392   7.788  0.0457 -0.2128  0.0603
  111POPC   C3B 1884   5.466   1.740   7.851 -0.1887  0.1418  0.1873
  111POPC   C4B 1885   5.089   2.024   7.926 -0.0555 -0.0896 -0.2903
  112POPC   NC3 1886   9.153   2.727   9.880  0.2344 -0.2398  0.0428
  112POPC   PO4 1887   8.991   2.428   9.656  0.3191 -0.3461  0.2321
  112POPC   GL1 1888   8.952   2.373   9.162 -0.0662 -0.3829  0.0860
  112POPC   GL2 1889   9.072   2.695   9.090 -0.0304 -0.0803  0.0672
  112POPC   C1A 1890   8.991   2.376   8.709 -0.1364 -0.0323 -0.4967
  112POPC   D2A 1891   9.155   2.451   8.265  0.0303 -0.3708 -0.0462
  112POPC   C3A 1892   9.146   2.760   8.237 -0.5077 -0.1524  0.0188
  112POPC   C4A 1893   9.094   2.958   7.856 -0.1648 -0.1109  0.0816
  112POPC   C1B 1894   9.179   2.954   8.754 -0.1926 -0.0162 -0.2262
  112POPC   C2B 1895   9.095   3.262   8.333 -0.0064  0.0976 -0.0289
  112POPC   C3B 1896   9.473   3.623   8.258 -0.0979  0.0152  0.1911
  112POPC   C4B 1897   9.796   3.962   8.255 -0.1155  0.0909  0.2605
  113POPC   NC3 1898   6.807   2.924  10.095  0.0826 -0.2476 -0.3744
  113POPC   PO4 1899   6.675   3.418   9.978  0.2387  0.3903 -0.2610
  113POPC   GL1 1900   6.677   3.177   9.653  0.0507  0.1866 -0.1592
  113POPC   GL2 1901   6.932   2.996   9.498 -0.1490  0.2335  0.2481
  113POPC   C1A 1902   6.319   3.099   9.437 -0.0127  0.1969  0.0502
  113POPC   D2A 1903   6.329   3.203   9.006 -0.1233  0.1112  0.0590
  113POPC   C3A 1904   6.609   3.138   8.694  0.0054  0.1001 -0.0611
  113POPC   C4A 1905   7.021   3.105   8.581 -0.0367 -0.1961 -0.0425
  113POPC   C1B 1906   6.992   2.875   9.004  0.0094 -0.2720  0.0189
  113POPC   C2B 1907   7.249   2.673   8.671 -0.2877 -0.3318  0.1157
  113POPC   C3B 1908   7.229   2.596   8.154 -0.1856 -0.0733 -0.1548
  113POPC   C4B 1909   6.967   2.599   7.917  0.2183  0.5197 -0.3180
  114POPC   NC3 1910   3.785   6.679   9.156 -0.1639  0.0381 -0.1065
  114POPC   PO4 1911   4.084   6.514   9.386 -0.1508 -0.0213  0.1368
  114POPC   GL1 1912   3.954   6.233   8.949 -0.3358 -0.0261 -0.0245
  114POPC   GL2 1913   4.131   6.154   8.661  0.2081  0.1079 -0.2037
  114POPC   C1A 1914   3.582   6.106   8.704  0.0656  0.1653 -0.1739
  114POPC   D2A 1915   3.392   5.836   8.434 -0.0866  0.1281 -0.1736
  114POPC   C3A 1916   3.521   5.586   8.136 -0.0406  0.0768  0.1595
  114POPC   C4A 1917   3.631   5.632   7.710 -0.0452  0.3754 -0.1253
  114POPC   C1B 1918   3.851   6.331   8.370 -0.3776  0.1248  0.1000
  114POPC   C2B 1919   3.710   6.580   8.073  0.1397 -0.0463 -0.1926
  114POPC   C3B 1920   3.509   6.946   8.271  0.2496  0.0320 -0.0445
  114POPC   C4B 1921   3.040   7.012   8.534  0.1356  0.2281  0.1253
  115POPC   NC3 1922   0.150   3.977   9.997 -0.1223 -0.1541 -0.0276
  115POPC   PO4 1923   0.465   4.132   9.683  0.0016  0.1567  0.1275
  115POPC   GL1 1924   0.234   4.074   9.232 -0.2536  0.2358  0.0675
  115POPC   GL2 1925   0.103   4.341   9.081 -0.2167 -0.2738  0.1612
  115POPC   C1A 1926   0.340   3.984   8.753  0.0609 -0.2134 -0.1489
  115POPC   D2A 1927   0.412   4.015   8.324 -0.1000 -0.0875  0.0398
  115POPC   C3A 1928   0.552   3.843   8.010 -0.3872  0.1325 -0.0177
  115POPC   C4A 1929   0.535   3.444   7.858  0.0446 -0.1708  0.2146
  115POPC   C1B 1930   0.054   4.397   8.693 -0.0026  0.2848 -0.0314
  115POPC   C2B 1931  -0.079   4.278   8.350  0.2416 -0.0077 -0.0693
  115POPC   C3B 1932  -0.229   4.299   7.964  0.0646  0.0110 -0.4130
  115POPC   C4B 1933  -0.338   4.026   7.659  0.1627  0.0172  0.0297
  116POPC   NC3 1934   0.295   0.264   9.612  0.1384  0.2985  0.1738
  116POPC   PO4 1935   0.688   0.094   9.794 -0.0600  0.0867  0.1564
  116POPC   GL1 1936   0.648   0.106   9.257 -0.1161 -0.0124 -0.1294
  116POPC   GL2 1937   0.748   0.259   9.013 -0.0890  0.1782 -0.1393
  116POPC   C1A 1938   0.496  -0.138   8.901  0.0660  0.0748 -0.1921
  116POPC   D2A 1939   0.591  -0.321   8.490  0.4269  0.1138  0.4658
  116POPC   C3A 1940   0.214  -0.574   8.347  0.1940 -0.0355 -0.0153
  116POPC   C4A 1941   0.093  -0.785   8.624 -0.1277  0.2636  0.1453
  116POPC   C1B 1942   0.682   0.259   8.611 -0.0692  0.0750  0.0827
  116POPC   C2B 1943   0.663   0.438   8.211  0.2784 -0.1459  0.1022
  116POPC   C3B 1944   0.447   0.255   7.900 -0.2751 -0.1668  0.1973
  116POPC   C4B 1945   0.356  -0.015   7.574  0.3962  0.0184 -0.3114
  117POPC   NC3 1946   2.011   3.855   9.455  0.0125  0.1737 -0.0044
  117POPC   PO4 1947   2.443   3.784   9.508 -0.2544  0.0591 -0.1853
  117POPC   GL1 1948   2.517   3.762   9.058 -0.0610  0.0876 -0.2879
  117POPC   GL2 1949   2.232   3.513   9.068 -0.1553 -0.0870  0.0766
  117POPC   C1A 1950   2.510   3.961   8.624 -0.2000 -0.2444  0.1742
  117POPC   D2A 1951   2.608   3.886   8.250  0.1043 -0.2192 -0.3914
  117POPC   C3A 1952   2.945   4.116   7.931  0.0656 -0.0442  0.2756
  117POPC   C4A 1953   3.349   4.267   7.753  0.1934  0.3536  0.0341
  117POPC   C1B 1954   1.947   3.620   8.790 -0.0099 -0.1945  0.1372
  117POPC   C2B 1955   1.638   3.678   8.484  0.0349 -0.0371 -0.0598
  117POPC   C3B 1956   1.713   3.571   8.016  0.1922 -0.0836 -0.2286
  117POPC   C4B 1957   1.513   3.596   7.610 -0.1023 -0.1421 -0.2538
  118POPC   NC3 1958   4.505   2.239   8.806  0.0632 -0.1307  0.1914
  118POPC   PO4 1959   4.207   2.417   9.009  0.2293 -0.2058  0.2054
  118POPC   GL1 1960   4.228   2.691   8.632  0.0227  0.1330 -0.0445
  118POPC   GL2 1961   4.600   2.604   8.500 -0.0177 -0.0446 -0.0488
  118POPC   C1A 1962   4.198   2.597   8.234 -0.2545  0.0195 -0.1948
  118POPC   D2A 1963   4.084   2.529   7.780 -0.3801  0.2140  0.3227
  118POPC   C3A 1964   4.009   2.815   7.434 -0.0449  0.1367  0.3030
  118POPC   C4A 1965   3.848   3.225   7.256  0.2857  0.0739 -0.1841
  118POPC   C1B 1966   4.792   2.696   8.033  0.0423  0.3925 -0.0208
  118POPC   C2B 1967   4.906   2.423   7.595 -0.0625  0.4092  0.1425
  118POPC   C3B 1968   5.310   2.262   7.306 -0.1537 -0.0632 -0.0519
  118POPC   C4B 1969   5.189   2.235   6.883 -0.4837  0.2456  0.0045
  119POPC   NC3 1970   2.009   2.048   9.327 -0.1443 -0.1437 -0.0470
  119POPC   PO4 1971   2.045   2.503   9.217  0.0721  0.0461  0.1974
  119POPC   GL1 1972   2.119   2.570   8.768  0.1161 -0.2314 -0.1772
  119POPC   GL2 1973   1.933   2.282   8.713 -0.3690  0.0267 -0.0917
  119POPC   C1A 1974   2.219   2.504   8.335  0.2326 -0.3680 -0.5782
  119POPC   D2A 1975   2.153   2.496   7.809  0.0982 -0.1026  0.1507
  119POPC   C3A 1976   1.883   2.757   7.426 -0.2439  0.0376 -0.0759
  119POPC   C4A 1977   1.821   2.574   7.018  0.3210  0.2127  0.0970
  119POPC   C1B 1978   1.795   2.117   8.343  0.4397  0.0623 -0.3510
  119POPC   C2B 1979   1.774   2.149   7.878  0.3908  0.0041 -0.0865
  119POPC   C3B 1980   1.570   2.320   7.391 -0.0904  0.1486  0.1269
  119POPC   C4B 1981   1.458   2.231   7.000  0.2925  0.0491 -0.0152
  120POPC   NC3 1982   5.349   5.279   9.874  0.2886 -0.1892  0.1026
  120POPC   PO4 1983   4.992   5.457   9.788  0.3043 -0.0748  0.2549
  120POPC   GL1 1984   5.070   5.377   9.382  0.0218 -0.0307 -0.2090
  120POPC   GL2 1985   4.749   5.159   9.395  0.1280 -0.3118  0.0676
  120POPC   C1A 1986   5.101   5.083   8.988 -0.2891 -0.3055 -0.0156
  120POPC   D2A 1987   4.938   4.856   8.596 -0.0534  0.0655 -0.0531
  120POPC   C3A 1988   4.760   4.521   8.613  0.2654 -0.1336  0.0952
  120POPC   C4A 1989   4.530   4.108   8.600 -0.1391  0.0795  0.0439
  120POPC   C1B 1990   4.599   4.948   8.956  0.1852  0.1570  0.4735
  120POPC   C2B 1991   4.325   5.105   8.648 -0.0461  0.1909  0.4145
  120POPC   C3B 1992   4.244   5.460   8.368 -0.1270 -0.0570 -0.2694
  120POPC   C4B 1993   3.883   5.743   8.469  0.0091 -0.2379  0.1363
  121POPC   NC3 1994   0.841   7.329   9.143  0.3512  0.5061 -0.3308
  121POPC   PO4 1995   1.313   7.181   9.071 -0.0619 -0.2521  0.0301
  121POPC   GL1 1996   1.367   7.287   8.612 -0.1131 -0.2645  0.0121
  121POPC   GL2 1997   1.560   6.987   8.492  0.0123  0.1755 -0.0005
  121POPC   C1A 1998   1.595   7.506   8.178 -0.1550  0.1841 -0.0087
  121POPC   D2A 1999   1.771   7.587   7.758 -0.4226  0.2379 -0.1627
  121POPC   C3A 2000   1.741   7.410   7.311 -0.1271 -0.1725 -0.3705
  121POPC   C4A 2001   1.497   7.544   6.960 -0.0623  0.1513  0.0157
  121POPC   C1B 2002   1.234   7.132   8.163 -0.0083  0.0037  0.1887
  121POPC   C2B 2003   0.968   7.010   7.877 -0.3825  0.0457  0.2561
  121POPC   C3B 2004   0.917   6.816   7.450  0.0095  0.0066 -0.0577
  121POPC   C4B 2005   0.658   6.721   7.048  0.0719 -0.2595 -0.2026
  122POPC   NC3 2006   3.659   7.803   9.368  0.1449  0.0149  0.0766
  122POPC   PO4 2007   4.028   7.572   9.284  0.4278 -0.2713 -0.3437
  122POPC   GL1 2008   3.925   7.709   8.809 -0.0670  0.1689  0.1415
  122POPC   GL2 2009   4.274   7.633   8.668  0.3311  0.4124 -0.2285
  122POPC   C1A 2010   3.909   8.213   8.640  0.1031 -0.4078  0.0686
  122POPC   D2A 2011   3.718   8.463   8.387 -0.4943 -0.0131 -0.3480
  122POPC   C3A 2012   3.569   8.921   8.388 -0.1632  0.0329 -0.1248
  122POPC   C4A 2013   3.793   9.266   8.088  0.3081 -0.2139  0.0024
  122POPC   C1B 2014   4.182   7.780   8.270 -0.1776  0.1812  0.3937
  122POPC   C2B 2015   3.978   7.720   7.826  0.0324 -0.2981 -0.0743
  122POPC   C3B 2016   3.928   7.391   7.559 -0.4182 -0.1957 -0.2387
  122POPC   C4B 2017   3.711   7.270   7.274  0.0620  0.0256 -0.2166
  123POPC   NC3 2018   6.833   9.129   8.963  0.0486 -0.0707 -0.2723
  123POPC   PO4 2019   7.213   9.200   8.926 -0.0635 -0.0817  0.3159
  123POPC   GL1 2020   7.257   9.262   8.516  0.2400 -0.0074 -0.1119
  123POPC   GL2 2021   7.357   9.523   8.431  0.1757 -0.4303  0.0067
  123POPC   C1A 2022   7.498   9.246   8.107 -0.0224 -0.4258 -0.3243
  123POPC   D2A 2023   7.646   8.976   7.748  0.1155  0.1347 -0.1497
  123POPC   C3A 2024   7.706   9.040   7.400  0.1820  0.2026 -0.2641
  123POPC   C4A 2025   8.089   9.201   7.298  0.0471 -0.4285 -0.1192
  123POPC   C1B 2026   7.681   9.742   8.046 -0.0730  0.0311 -0.0480
  123POPC   C2B 2027   7.703  10.107   7.696 -0.1538 -0.2018 -0.0160
  123POPC   C3B 2028   7.717  10.500   7.456 -0.1465 -0.1055 -0.2745
  123POPC   C4B 2029   8.067  10.761   7.378  0.1021  0.2315 -0.0489
  124POPC   NC3 2030   2.441   5.391   9.113  0.1078  0.1160  0.0042
  124POPC   PO4 2031   2.843   5.720   9.121 -0.2812 -0.2675  0.0934
  124POPC   GL1 2032   2.680   5.743   8.819  0.1503 -0.3581  0.1275
  124POPC   GL2 2033   2.636   6.075   8.790  0.2054 -0.1151 -0.2433
  124POPC   C1A 2034   2.639   5.493   8.472  0.3015  0.1671  0.1370
  124POPC   D2A 2035   2.540   5.543   8.099 -0.0019 -0.0767  0.1474
  124POPC   C3A 2036   2.303   5.377   7.697 -0.0206 -0.1486 -0.2353
  124POPC   C4A 2037   1.960   5.169   7.495  0.0315 -0.1142 -0.0452
  124POPC   C1B 2038   2.384   6.315   8.389  0.0668 -0.0459  0.0651
  124POPC   C2B 2039   2.401   6.357   7.921  0.2278 -0.0297 -0.1716
  124POPC   C3B 2040   2.338   6.388   7.477  0.3231 -0.3290  0.3117
  124POPC   C4B 2041   2.098   6.548   7.149 -0.0235  0.4460  0.1993
  125POPC   NC3 2042   4.972   8.082   9.134 -0.0200 -0.1787 -0.1689
  125POPC   PO4 2043   4.561   8.302   9.120  0.1432  0.1204 -0.0894
  125POPC   GL1 2044   4.501   8.167   8.726 -0.4912 -0.0041  0.1270
  125POPC   GL2 2045   4.791   7.922   8.592 -0.1289  0.3556 -0.2175
  125POPC   C1A 2046   4.581   8.142   8.181  0.0413  0.2534 -0.1569
  125POPC   D2A 2047   4.518   8.128   7.767 -0.2405 -0.1186  0.1264
  125POPC   C3A 2048   4.009   8.176   7.587 -0.0494 -0.2284  0.3634
  125POPC   C4A 2049   3.777   8.270   7.136  0.2438 -0.3227 -0.2102
  125POPC   C1B 2050   4.653   7.668   8.243 -0.0260 -0.2195  0.1751
  125POPC   C2B 2051   4.680   7.674   7.806 -0.0519 -0.0039 -0.3615
  125POPC   C3B 2052   4.383   7.773   7.468  0.2196 -0.1807  0.3616
  125POPC   C4B 2053   4.021   7.786   7.205 -0.0515 -0.0155  0.0954
  126POPC   NC3 2054   9.166   0.001   9.517 -0.0011  0.0469 -0.0793
  126POPC   PO4 2055   9.088   0.279   9.079 -0.1928 -0.4149  0.2028
  126POPC   GL1 2056   9.492   0.167   8.921 -0.2410 -0.1545  0.0164
  126POPC   GL2 2057   9.543  -0.065   8.690 -0.1912  0.1018 -0.0832
  126POPC   C1A 2058   9.717   0.418   8.539  0.1756  0.0379 -0.1729
  126POPC   D2A 2059  10.082   0.398   8.294 -0.0443  0.2706  0.1191
  126POPC   C3A 2060  10.047   0.360   7.886 -0.1273 -0.1918 -0.1455
  126POPC   C4A 2061  10.319   0.392   7.500  0.0020 -0.1176 -0.1394
  126POPC   C1B 2062   9.142  -0.097   8.481 -0.0829 -0.1281 -0.0109
  126POPC   C2B 2063   9.043  -0.435   8.212 -0.1187 -0.2304 -0.0124
  126POPC   C3B 2064   9.041  -0.829   8.077 -0.0064 -0.0878 -0.2000
  126POPC   C4B 2065   8.945  -1.122   7.653  0.0534 -0.1098  0.2107
  127POPC   NC3 2066   1.752   7.604   9.875 -0.0224 -0.0666  0.3626
  127POPC   PO4 2067   1.703   7.865   9.434 -0.0508  0.0527  0.1957
  127POPC   GL1 2068   1.737   7.846   8.937  0.0626  0.0250 -0.0264
  127POPC   GL2 2069   1.724   7.531   8.816 -0.1577 -0.2051 -0.0758
  127POPC   C1A 2070   1.879   7.940   8.487 -0.1426  0.0630  0.1999
  127POPC   D2A 2071   2.021   7.792   8.161  0.3811 -0.0963 -0.2109
  127POPC   C3A 2072   2.029   8.013   7.826  0.3075 -0.1986 -0.0849
  127POPC   C4A 2073   1.742   8.145   7.674  0.1311  0.1069  0.2788
  127POPC   C1B 2074   1.403   7.767   8.569  0.1529 -0.0551 -0.2317
  127POPC   C2B 2075   1.377   8.069   8.297 -0.3204 -0.0739  0.0584
  127POPC   C3B 2076   1.380   7.934   7.951  0.0525 -0.0223  0.0278
  127POPC   C4B 2077   1.462   7.860   7.427 -0.0249 -0.2465  0.2404
  128POPC   NC3 2078   5.873   0.101   8.449 -0.1919  0.0426 -0.0835
  128POPC   PO4 2079   5.708   0.446   8.686 -0.0455 -0.0193  0.0187
  128POPC   GL1 2080   5.862   0.538   8.178 -0.0328 -0.1653  0.0235
  128POPC   GL2 2081   5.873   0.197   7.950  0.2457  0.3503 -0.0713
  128POPC   C1A 2082   5.912   0.575   7.682  0.0275  0.4564  0.2015
  128POPC   D2A 2083   5.635   0.665   7.229 -0.2335  0.0697  0.0974
  128POPC   C3A 2084   5.342   0.448   6.947 -0.2192 -0.3248 -0.0045
  128POPC   C4A 2085   5.295   0.420   6.459 -0.2522 -0.0962 -0.1307
  128POPC   C1B 2086   5.844  -0.163   7.825 -0.3325 -0.1947  0.0237
  128POPC   C2B 2087   5.592  -0.288   7.483  0.0066 -0.1461  0.3660
  128POPC   C3B 2088   5.341  -0.598   7.415  0.2682  0.2030 -0.5171
  128POPC   C4B 2089   4.948  -0.511   7.735  0.1785 -0.1572  0.1659
  129POPC   NC3 2090   7.841   5.254   8.961 -0.0545  0.0024  0.3127
  129POPC   PO4 2091   8.133   5.416   9.046  0.0254 -0.0157 -0.2987
  129POPC   GL1 2092   8.259   5.601   8.654 -0.2425  0.0005  0.4323
  129POPC   GL2 2093   8.066   5.479   8.467 -0.0608  0.1302  0.0040
  129POPC   C1A 2094   8.388   5.715   8.184 -0.1048 -0.1419 -0.1116
  129POPC   D2A 2095   8.570   5.450   7.754 -0.1728  0.2527  0.3598
  129POPC   C3A 2096   8.982   5.488   7.631  0.0172  0.0489 -0.0639
  129POPC   C4A 2097   9.348   5.621   7.791  0.1949 -0.0103  0.2438
  129POPC   C1B 2098   7.943   5.247   8.134  0.1793 -0.1086  0.0026
  129POPC   C2B 2099   8.079   5.260   7.680 -0.1842 -0.0060  0.0211
  129POPC   C3B 2100   8.267   5.439   7.273 -0.1093 -0.0060 -0.2210
  129POPC   C4B 2101   8.372   5.755   6.946  0.0061 -0.2945  0.1475
  130POPC   NC3 2102   1.043   3.919   9.724 -0.0357 -0.0298  0.1003
  130POPC   PO4 2103   1.183   3.723   9.311  0.0541  0.2209 -0.0589
  130POPC   GL1 2104   1.248   3.636   8.898 -0.0192 -0.2939  0.3112
  130POPC   GL2 2105   1.474   3.425   8.865 -0.0796  0.2115 -0.2115
  130POPC   C1A 2106   1.048   3.717   8.500  0.2072  0.1764  0.2025
  130POPC   D2A 2107   1.251   3.756   8.048  0.3700  0.3746 -0.1375
  130POPC   C3A 2108   0.938   3.720   7.699 -0.2506  0.2008 -0.1896
  130POPC   C4A 2109   0.632   3.783   7.390 -0.0512 -0.0498  0.0721
  130POPC   C1B 2110   1.267   3.177   8.646  0.2078  0.1173  0.3771
  130POPC   C2B 2111   0.799   3.064   8.549  0.2825 -0.0103 -0.3607
  130POPC   C3B 2112   0.610   2.997   8.146  0.0004 -0.2035 -0.1291
  130POPC   C4B 2113   0.400   2.888   7.705 -0.2641  0.0430 -0.0558
  131POPC   NC3 2114   6.619   5.527   9.364 -0.0274  0.3945  0.2271
  131POPC   PO4 2115   6.866   5.115   9.475 -0.1425  0.2084  0.0353
  131POPC   GL1 2116   6.985   4.901   9.056  0.5312  0.2721  0.0549
  131POPC   GL2 2117   7.281   5.085   8.941 -0.0148 -0.0549 -0.1196
  131POPC   C1A 2118   6.750   4.585   8.708  0.0101  0.1676  0.1450
  131POPC   D2A 2119   6.691   4.141   8.583  0.0638 -0.1991 -0.0203
  131POPC   C3A 2120   7.019   3.963   8.661 -0.1154  0.0920 -0.3072
  131POPC   C4A 2121   7.249   3.652   8.535  0.0133  0.0221 -0.0431
  131POPC   C1B 2122   7.358   4.760   8.660  0.0563 -0.1193 -0.1540
  131POPC   C2B 2123   7.729   4.498   8.449  0.2262 -0.0137  0.0705
  131POPC   C3B 2124   7.933   4.307   8.059 -0.0805 -0.2929 -0.3533
  131POPC   C4B 2125   7.961   4.006   7.830  0.2068 -0.1408 -0.1840
  132POPC   NC3 2126   1.623   5.716   9.523 -0.2195 -0.2260  0.2613
  132POPC   PO4 2127   2.031   5.499   9.384 -0.0344 -0.0835 -0.1465
  132POPC   GL1 2128   1.942   5.731   9.029 -0.0136  0.1761  0.0345
  132POPC   GL2 2129   2.173   5.667   8.800  0.3833 -0.0173  0.0011
  132POPC   C1A 2130   1.774   5.980   8.711 -0.1014  0.0632 -0.1357
  132POPC   D2A 2131   1.909   6.212   8.405  0.1671  0.1072 -0.0875
  132POPC   C3A 2132   1.619   6.537   8.356 -0.0936 -0.1949 -0.1854
  132POPC   C4A 2133   1.414   6.694   8.046 -0.3339  0.0590 -0.2877
  132POPC   C1B 2134   2.236   5.851   8.408  0.0336  0.1178 -0.3564
  132POPC   C2B 2135   2.157   5.937   8.016  0.2329  0.1330 -0.0321
  132POPC   C3B 2136   2.424   5.859   7.694 -0.1926 -0.1232 -0.0954
  132POPC   C4B 2137   2.789   5.666   7.580  0.1049  0.1697  0.0601
  133POPC   NC3 2138   7.231   0.410   9.115 -0.1173 -0.3270  0.0382
  133POPC   PO4 2139   7.232   0.831   9.189  0.0743  0.2255 -0.1111
  133POPC   GL1 2140   7.185   0.853   8.792  0.2432 -0.1910  0.1420
  133POPC   GL2 2141   6.857   0.918   8.672 -0.2689  0.2634 -0.1652
  133POPC   C1A 2142   7.375   0.993   8.499  0.3234  0.2373  0.1246
  133POPC   D2A 2143   7.423   0.773   8.089  0.2212 -0.3657  0.3572
  133POPC   C3A 2144   7.353   1.072   7.645  0.1107  0.0941 -0.1854
  133POPC   C4A 2145   6.981   1.175   7.378  0.0570 -0.3806  0.1219
  133POPC   C1B 2146   6.853   0.880   8.222  0.0494 -0.1679 -0.2727
  133POPC   C2B 2147   6.817   0.828   7.771 -0.0991  0.0760  0.1206
  133POPC   C3B 2148   6.693   0.824   7.282  0.3623 -0.3207 -0.1321
  133POPC   C4B 2149   6.691   0.809   6.784 -0.2601 -0.0808  0.4356
  134POPC   NC3 2150   6.082   0.464   9.744 -0.2238 -0.1356  0.2064
  134POPC   PO4 2151   6.218   0.743   9.329  0.1011 -0.0848 -0.0959
  134POPC   GL1 2152   6.379   0.804   8.896 -0.0785 -0.0659  0.1595
  134POPC   GL2 2153   6.215   1.147   8.926  0.0359 -0.0617  0.3187
  134POPC   C1A 2154   6.232   0.736   8.520  0.0203 -0.0034  0.3086
  134POPC   D2A 2155   6.377   0.671   8.084 -0.3050  0.1929 -0.6032
  134POPC   C3A 2156   6.228   1.006   7.728  0.3541 -0.0449  0.1793
  134POPC   C4A 2157   6.001   0.994   7.344  0.1148  0.3840 -0.1689
  134POPC   C1B 2158   6.423   1.195   8.544  0.1282 -0.0391  0.0460
  134POPC   C2B 2159   6.528   1.477   8.148  0.3321  0.0634  0.1957
  134POPC   C3B 2160   6.616   1.407   7.728 -0.1195  0.3402  0.1813
  134POPC   C4B 2161   6.465   1.358   7.264  0.0854  0.1167  0.2398
  135POPC   NC3 2162   6.449   0.000   8.669 -0.0432 -0.0086 -0.0052
  135POPC   PO4 2163   6.694  -0.352   8.887 -0.1662  0.0154  0.4391
  135POPC   GL1 2164   6.681  -0.407   8.479 -0.2221  0.1331 -0.2137
  135POPC   GL2 2165   6.346  -0.669   8.399 -0.0201  0.1285 -0.1885
  135POPC   C1A 2166   6.692  -0.385   8.082 -0.2757 -0.1596  0.0924
  135POPC   D2A 2167   6.634  -0.145   7.754  0.2949  0.3140  0.2325
  135POPC   C3A 2168   6.689  -0.529   7.407 -0.1122 -0.0777 -0.0255
  135POPC   C4A 2169   7.010  -0.431   6.952 -0.1669 -0.0229 -0.2916
  135POPC   C1B 2170   6.283  -0.809   8.078  0.0652 -0.1148  0.0994
  135POPC   C2B 2171   6.409  -0.864   7.722 -0.2587 -0.1166 -0.0344
  135POPC   C3B 2172   6.322  -0.991   7.350  0.1493 -0.4616  0.0641
  135POPC   C4B 2173   6.464  -1.329   7.125  0.4663  0.2852 -0.0503
  136POPC   NC3 2174   7.369   6.488   8.945  0.1260  0.2583 -0.2235
  136POPC   PO4 2175   6.951   6.532   8.645  0.0545  0.1548 -0.2225
  136POPC   GL1 2176   7.134   6.826   8.366 -0.0893 -0.1279  0.2591
  136POPC   GL2 2177   7.334   7.155   8.408  0.1663 -0.0029 -0.1474
  136POPC   C1A 2178   7.388   6.866   7.891 -0.0226 -0.0537  0.1280
  136POPC   D2A 2179   7.420   6.830   7.441  0.0083 -0.0887 -0.0447
  136POPC   C3A 2180   7.645   7.102   7.252  0.5217  0.3976 -0.0433
  136POPC   C4A 2181   8.051   7.300   7.356 -0.0263  0.1584  0.3143
  136POPC   C1B 2182   7.413   7.391   8.037 -0.2821  0.0446  0.1664
  136POPC   C2B 2183   7.360   7.320   7.658  0.0831 -0.0674 -0.2488
  136POPC   C3B 2184   7.113   7.222   7.352  0.1067  0.1960  0.2228
  136POPC   C4B 2185   6.837   7.298   7.080  0.2284  0.2056 -0.1232
  137POPC   NC3 2186   9.962   2.255   9.839 -0.2554  0.0008 -0.0116
  137POPC   PO4 2187  10.423   2.539   9.650 -0.2286 -0.1889 -0.1614
  137POPC   GL1 2188  10.448   2.344   9.177 -0.2068  0.4305 -0.2524
  137POPC   GL2 2189  10.507   2.588   9.009 -0.1531 -0.3942  0.0683
  137POPC   C1A 2190  10.220   2.108   8.994  0.0556  0.0579  0.2715
  137POPC   D2A 2191   9.978   2.311   8.629 -0.0725 -0.3002 -0.0672
  137POPC   C3A 2192  10.141   2.442   8.153 -0.1521 -0.3345  0.1460
  137POPC   C4A 2193  10.264   2.727   7.772 -0.3362  0.1039 -0.1979
  137POPC   C1B 2194  10.879   2.690   8.680 -0.0407  0.2332 -0.0127
  137POPC   C2B 2195  11.127   2.305   8.401  0.2003  0.5532 -0.3022
  137POPC   C3B 2196  11.157   2.500   7.985 -0.0302 -0.2563  0.0679
  137POPC   C4B 2197  11.309   2.600   7.674  0.0876 -0.0207 -0.0842
  138POPC   NC3 2198   7.158   9.814   8.853  0.2732  0.0760 -0.0277
  138POPC   PO4 2199   7.250  10.152   9.059  0.1206  0.3025  0.1040
  138POPC   GL1 2200   7.091  10.324   8.647 -0.1505  0.0124 -0.2772
  138POPC   GL2 2201   7.348  10.033   8.459  0.0602 -0.0923  0.2005
  138POPC   C1A 2202   6.990  10.328   8.243 -0.0527 -0.1084  0.2220
  138POPC   D2A 2203   7.110  10.198   7.879 -0.0164 -0.0131  0.0843
  138POPC   C3A 2204   7.147   9.752   7.914 -0.2403  0.2670  0.1088
  138POPC   C4A 2205   7.230   9.321   7.609 -0.1923 -0.3361 -0.0124
  138POPC   C1B 2206   7.614  10.352   8.184  0.0861  0.1484  0.2642
  138POPC   C2B 2207   8.004  10.374   7.980 -0.0834  0.2006  0.0206
  138POPC   C3B 2208   8.156  10.258   7.576 -0.2189  0.1768  0.5696
  138POPC   C4B 2209   8.281  10.306   7.117  0.2334 -0.0421  0.0357
  139POPC   NC3 2210  10.164   3.223   9.650  0.0308 -0.3914  0.1890
  139POPC   PO4 2211  10.121   3.545  10.007 -0.1869  0.0021  0.1047
  139POPC   GL1 2212   9.915   3.638   9.534 -0.1210 -0.0657 -0.1207
  139POPC   GL2 2213   9.719   3.373   9.349 -0.1691 -0.1209 -0.2965
  139POPC   C1A 2214   9.996   3.803   9.117  0.2879 -0.1948  0.2618
  139POPC   D2A 2215  10.017   3.952   8.743  0.1649  0.2088 -0.1602
  139POPC   C3A 2216   9.829   4.396   8.736  0.3394  0.4508  0.1534
  139POPC   C4A 2217   9.815   4.915   8.728 -0.2950  0.1222 -0.2335
  139POPC   C1B 2218   9.820   3.275   8.966 -0.0805  0.0047 -0.4430
  139POPC   C2B 2219   9.568   3.245   8.628  0.0938  0.0695 -0.1245
  139POPC   C3B 2220   9.700   3.153   8.115  0.0425  0.1196  0.0520
  139POPC   C4B 2221   9.891   3.049   7.746  0.2716  0.0169 -0.0019
  140POPC   NC3 2222   1.971   1.204   9.634  0.0990  0.1126 -0.1267
  140POPC   PO4 2223   1.950   0.948   9.188 -0.1390 -0.2056  0.0187
  140POPC   GL1 2224   1.997   0.767   8.747 -0.0634  0.0465 -0.0909
  140POPC   GL2 2225   1.917   0.457   8.901 -0.2916  0.0685 -0.1560
  140POPC   C1A 2226   2.054   0.926   8.282  0.1627  0.2136  0.1666
  140POPC   D2A 2227   2.126   0.907   7.885  0.2676  0.1813  0.2248
  140POPC   C3A 2228   2.035   0.514   7.836 -0.2400  0.1194  0.1299
  140POPC   C4A 2229   1.770   0.217   7.996 -0.2142 -0.0977  0.3883
  140POPC   C1B 2230   1.859   0.460   8.430  0.4211 -0.2644  0.0945
  140POPC   C2B 2231   1.598   0.668   8.181 -0.1718 -0.0608  0.1129
  140POPC   C3B 2232   1.566   0.699   7.758 -0.0511  0.0493 -0.0370
  140POPC   C4B 2233   1.730   0.454   7.356 -0.0363 -0.3685  0.1609
  141POPC   NC3 2234   5.725   6.717   8.998 -0.2638 -0.0850 -0.2124
  141POPC   PO4 2235   6.023   6.501   8.714 -0.0181  0.0040 -0.0774
  141POPC   GL1 2236   5.599   6.678   8.528 -0.0351  0.0331  0.2018
  141POPC   GL2 2237   5.686   6.983   8.487  0.1984 -0.1590  0.1730
  141POPC   C1A 2238   5.187   6.887   8.306 -0.0870 -0.1286 -0.0294
  141POPC   D2A 2239   4.891   7.179   8.025 -0.0032 -0.0428  0.1980
  141POPC   C3A 2240   5.200   7.543   7.923 -0.2103 -0.2054 -0.1334
  141POPC   C4A 2241   5.427   7.835   7.585  0.0733  0.2302 -0.0763
  141POPC   C1B 2242   5.568   7.258   8.171  0.2319  0.1011  0.0297
  141POPC   C2B 2243   5.579   7.340   7.702 -0.0252 -0.0548 -0.0252
  141POPC   C3B 2244   5.385   7.207   7.237 -0.1590 -0.1027  0.1917
  141POPC   C4B 2245   5.203   7.120   6.849 -0.1402  0.0054 -0.1638
  142POPC   NC3 2246   0.916   1.535   9.529 -0.1400 -0.2216  0.2880
  142POPC   PO4 2247   1.261   1.642   9.288 -0.1898  0.2887  0.0770
  142POPC   GL1 2248   1.334   1.744   8.924 -0.1264  0.2285  0.0635
  142POPC   GL2 2249   1.570   1.929   9.038  0.0482 -0.1911  0.0992
  142POPC   C1A 2250   1.722   1.705   8.623 -0.4128  0.0976 -0.4236
  142POPC   D2A 2251   1.953   1.598   8.205 -0.1237 -0.4348  0.2040
  142POPC   C3A 2252   1.699   1.602   7.849 -0.0009 -0.0540  0.0414
  142POPC   C4A 2253   1.223   1.538   7.702  0.2528 -0.1353  0.0070
  142POPC   C1B 2254   1.376   2.180   8.708 -0.1350  0.0140 -0.0436
  142POPC   C2B 2255   1.288   2.268   8.291  0.0414  0.0653 -0.3103
  142POPC   C3B 2256   1.239   2.282   7.912 -0.0519  0.0317  0.3758
  142POPC   C4B 2257   1.220   2.022   7.506  0.1501  0.0980 -0.0771
  143POPC   NC3 2258   8.995   4.472   9.823  0.1131 -0.1588  0.2186
  143POPC   PO4 2259   8.839   4.007   9.744 -0.0639  0.3825 -0.3103
  143POPC   GL1 2260   8.642   4.211   9.465 -0.3696  0.1480  0.0922
  143POPC   GL2 2261   8.916   4.347   9.295 -0.3169 -0.0022  0.0845
  143POPC   C1A 2262   8.453   4.466   9.142 -0.1029  0.1530  0.2148
  143POPC   D2A 2263   8.319   4.380   8.749 -0.1161  0.0301  0.1923
  143POPC   C3A 2264   8.403   4.308   8.389  0.3620  0.1622  0.3636
  143POPC   C4A 2265   8.458   3.985   8.075  0.3474 -0.1425 -0.1959
  143POPC   C1B 2266   8.858   3.929   9.013 -0.0109  0.2437 -0.0790
  143POPC   C2B 2267   9.317   3.902   8.999 -0.2356 -0.4242 -0.1000
  143POPC   C3B 2268   9.617   3.715   8.752  0.2581 -0.0622  0.0554
  143POPC   C4B 2269   9.967   3.458   8.524  0.1769 -0.0678  0.0950
  144POPC   NC3 2270   5.302   2.461   9.466 -0.0096  0.1061 -0.1982
  144POPC   PO4 2271   5.361   2.753   9.801  0.0436 -0.0422  0.1327
  144POPC   GL1 2272   5.562   2.881   9.437  0.2611 -0.0109  0.1568
  144POPC   GL2 2273   5.495   2.763   9.064  0.3567 -0.1102 -0.2493
  144POPC   C1A 2274   5.966   2.882   9.163 -0.0788  0.1683 -0.1359
  144POPC   D2A 2275   6.151   2.926   8.690  0.0735  0.1120 -0.1057
  144POPC   C3A 2276   5.839   3.266   8.495 -0.0802  0.4531 -0.2441
  144POPC   C4A 2277   5.404   3.308   8.421  0.1402  0.0987 -0.3801
  144POPC   C1B 2278   5.656   2.608   8.701  0.1042  0.4757 -0.0373
  144POPC   C2B 2279   5.796   2.749   8.288  0.1314 -0.0733  0.1294
  144POPC   C3B 2280   6.153   2.885   8.178 -0.1403 -0.0774  0.1353
  144POPC   C4B 2281   6.343   3.224   8.298 -0.0794 -0.5140 -0.0628
  145POPC   NC3 2282   3.334   2.139   9.052 -0.0385  0.0740 -0.0183
  145POPC   PO4 2283   3.760   2.125   9.058  0.2967  0.0668 -0.1772
  145POPC   GL1 2284   3.838   2.317   8.676  0.1849 -0.0591 -0.1839
  145POPC   GL2 2285   3.820   1.955   8.559  0.2161 -0.0234  0.0038
  145POPC   C1A 2286   3.739   2.364   8.148  0.0561 -0.0489  0.0643
  145POPC   D2A 2287   3.729   2.218   7.663  0.2040  0.0290  0.1008
  145POPC   C3A 2288   3.563   1.993   7.370 -0.2601  0.1264  0.0670
  145POPC   C4A 2289   3.345   1.753   7.158  0.3664 -0.0372  0.3353
  145POPC   C1B 2290   3.775   1.750   8.186 -0.0472  0.0969 -0.1279
  145POPC   C2B 2291   3.737   1.725   7.850  0.2016  0.1277  0.2165
  145POPC   C3B 2292   3.935   1.699   7.450  0.1291 -0.0871 -0.1254
  145POPC   C4B 2293   3.702   1.391   7.189  0.4373  0.1739 -0.2735
  146POPC   NC3 2294   7.741   2.055   9.792 -0.3276  0.3044 -0.3062
  146POPC   PO4 2295   7.932   1.900   9.486  0.1054 -0.2312  0.1287
  146POPC   GL1 2296   7.858   1.587   9.121 -0.1562  0.1258  0.2459
  146POPC   GL2 2297   7.491   1.576   9.242  0.1488 -0.0660 -0.0806
  146POPC   C1A 2298   7.934   1.608   8.624  0.0674 -0.3402  0.1632
  146POPC   D2A 2299   7.950   1.612   8.221 -0.7073 -0.1416 -0.3481
  146POPC   C3A 2300   8.132   1.983   7.986 -0.1423 -0.0627 -0.3007
  146POPC   C4A 2301   8.531   2.166   7.849 -0.1931  0.0012  0.0829
  146POPC   C1B 2302   7.482   1.477   8.809 -0.0176 -0.2449 -0.0607
  146POPC   C2B 2303   7.423   1.601   8.449 -0.0399 -0.0962 -0.1899
  146POPC   C3B 2304   7.241   1.752   8.184 -0.3346  0.1595 -0.3671
  146POPC   C4B 2305   7.152   2.133   7.947 -0.2015 -0.1648  0.2737
  147POPC   NC3 2306   6.480   2.792  10.486  0.1305  0.0657  0.1296
  147POPC   PO4 2307   6.327   2.697  10.038  0.1106  0.1638  0.1325
  147POPC   GL1 2308   6.458   2.620   9.675  0.0053  0.3136  0.0868
  147POPC   GL2 2309   6.308   2.503   9.412  0.0655 -0.0688 -0.1476
  147POPC   C1A 2310   6.805   2.449   9.483 -0.1854  0.0976 -0.0858
  147POPC   D2A 2311   7.159   2.517   9.339 -0.0619 -0.1694 -0.3059
  147POPC   C3A 2312   7.100   2.325   9.036 -0.0417 -0.0673  0.1095
  147POPC   C4A 2313   7.216   1.868   8.968  0.1880  0.2974 -0.1167
  147POPC   C1B 2314   6.553   2.789   9.160 -0.0400 -0.2364 -0.0036
  147POPC   C2B 2315   6.690   2.593   8.792  0.2038 -0.0466 -0.0387
  147POPC   C3B 2316   6.890   2.301   8.552 -0.0729  0.1618  0.1983
  147POPC   C4B 2317   7.251   2.159   8.513 -0.0965  0.1027 -0.2197
  148POPC   NC3 2318   3.715   3.693   9.862  0.0221  0.0669 -0.0469
  148POPC   PO4 2319   4.024   3.885   9.625 -0.0534 -0.0485 -0.1842
  148POPC   GL1 2320   4.016   3.914   9.156 -0.1117  0.1159 -0.3443
  148POPC   GL2 2321   3.928   3.650   9.027 -0.3472 -0.1990  0.0838
  148POPC   C1A 2322   4.074   4.095   8.768 -0.3164  0.4228 -0.0788
  148POPC   D2A 2323   3.842   4.201   8.484 -0.0001 -0.2170 -0.1266
  148POPC   C3A 2324   3.546   4.031   8.285 -0.0661  0.0982  0.0779
  148POPC   C4A 2325   3.323   3.788   7.942  0.1103  0.1243  0.0531
  148POPC   C1B 2326   3.619   3.778   8.681 -0.0073 -0.0241  0.0489
  148POPC   C2B 2327   3.408   3.509   8.362  0.1218 -0.2547 -0.0862
  148POPC   C3B 2328   2.937   3.537   8.144  0.4065 -0.1408  0.2185
  148POPC   C4B 2329   2.544   3.286   7.916 -0.0121  0.1685 -0.0398
  149POPC   NC3 2330   9.125   1.981   9.800  0.0104  0.0570 -0.0733
  149POPC   PO4 2331   9.526   1.832   9.652 -0.2962 -0.2245 -0.0771
  149POPC   GL1 2332   9.340   1.953   9.300  0.0174 -0.1879 -0.2479
  149POPC   GL2 2333   9.628   2.060   9.111 -0.2210  0.1148  0.0192
  149POPC   C1A 2334   9.213   1.918   8.777  0.0207 -0.1391 -0.0685
  149POPC   D2A 2335   9.418   1.909   8.348  0.3238 -0.2931  0.1977
  149POPC   C3A 2336   9.739   2.221   8.197  0.0580 -0.0773  0.4010
  149POPC   C4A 2337   9.621   2.684   8.016  0.0248  0.2377  0.0417
  149POPC   C1B 2338   9.539   2.411   8.821  0.0243  0.4382  0.0204
  149POPC   C2B 2339   9.555   2.609   8.540 -0.4587  0.0326  0.0700
  149POPC   C3B 2340   9.882   2.859   8.523  0.0578 -0.1388  0.0077
  149POPC   C4B 2341  10.215   2.997   8.184 -0.4367 -0.1160 -0.0155
  150POPC   NC3 2342   0.983   0.548   9.375 -0.2566  0.1000 -0.0626
  150POPC   PO4 2343   0.980   1.040   9.472  0.1201 -0.1451  0.2852
  150POPC   GL1 2344   0.766   1.094   8.979 -0.1010 -0.0379  0.1659
  150POPC   GL2 2345   0.991   0.773   8.931  0.3919 -0.1605 -0.2112
  150POPC   C1A 2346   0.746   1.348   8.618  0.0790 -0.2472  0.2109
  150POPC   D2A 2347   0.447   1.669   8.328  0.0979  0.1326  0.0154
  150POPC   C3A 2348   0.413   2.088   8.260 -0.1433  0.0206 -0.0395
  150POPC   C4A 2349   0.291   2.515   8.102  0.0708  0.1066  0.0157
  150POPC   C1B 2350   0.713   0.803   8.561 -0.0467  0.0802  0.0377
  150POPC   C2B 2351   0.731   0.964   8.157  0.3870  0.2960  0.1695
  150POPC   C3B 2352   0.517   0.831   7.778  0.3830  0.1507 -0.1140
  150POPC   C4B 2353   0.249   0.813   7.376  0.2403  0.2443 -0.0282
  151POPC   NC3 2354   0.129   1.066   9.502 -0.0226 -0.0167  0.1568
  151POPC   PO4 2355   0.507   0.791   9.365  0.0537 -0.1435  0.1356
  151POPC   GL1 2356   0.260   0.878   8.933 -0.1216  0.1899 -0.2553
  151POPC   GL2 2357  -0.038   1.099   9.021  0.1033 -0.1194 -0.1073
  151POPC   C1A 2358   0.290   0.981   8.483  0.4284  0.1203 -0.2116
  151POPC   D2A 2359   0.263   1.149   8.097  0.2048 -0.0999  0.0855
  151POPC   C3A 2360  -0.067   1.606   7.928  0.0977 -0.1073  0.2270
  151POPC   C4A 2361  -0.477   1.719   7.986 -0.1013  0.0128  0.0285
  151POPC   C1B 2362   0.288   1.358   8.847 -0.2850  0.0232  0.2444
  151POPC   C2B 2363   0.391   1.820   8.802  0.0729  0.3020 -0.0723
  151POPC   C3B 2364   0.186   2.257   8.615  0.0906 -0.0731  0.1008
  151POPC   C4B 2365   0.089   2.684   8.505  0.1387 -0.0538 -0.0934
  152POPC   NC3 2366   9.698   6.038   8.979 -0.1736 -0.0914 -0.1077
  152POPC   PO4 2367   9.518   6.388   8.745  0.2548 -0.3933 -0.2500
  152POPC   GL1 2368   9.321   6.109   8.546  0.0393  0.1279 -0.0312
  152POPC   GL2 2369   9.283   5.736   8.821 -0.0996 -0.0368  0.1091
  152POPC   C1A 2370   9.133   5.926   8.194  0.1246  0.0883 -0.2485
  152POPC   D2A 2371   8.785   5.891   7.920 -0.4061 -0.3733 -0.2744
  152POPC   C3A 2372   8.654   6.235   7.610 -0.1038 -0.1377 -0.2378
  152POPC   C4A 2373   8.263   6.531   7.635 -0.1279  0.0384  0.4068
  152POPC   C1B 2374   9.378   5.565   8.418 -0.0014  0.3700 -0.0289
  152POPC   C2B 2375   9.421   5.317   8.166  0.0819  0.2427  0.1737
  152POPC   C3B 2376   9.472   5.103   7.802 -0.1526 -0.1504 -0.0973
  152POPC   C4B 2377   9.796   4.786   7.806 -0.1142 -0.1930 -0.0292
  153POPC   NC3 2378   8.681  10.315   9.278 -0.4215 -0.2752  0.1314
  153POPC   PO4 2379   8.847   9.918   9.259 -0.0007  0.0576 -0.1099
  153POPC   GL1 2380   8.874  10.063   8.923  0.0287 -0.4567  0.0315
  153POPC   GL2 2381   8.734  10.405   8.789  0.2818 -0.2423  0.1623
  153POPC   C1A 2382   8.638   9.919   8.525 -0.6322 -0.1968  0.1091
  153POPC   D2A 2383   8.563   9.756   7.977 -0.0226 -0.0604 -0.0646
  153POPC   C3A 2384   8.178   9.814   7.835 -0.2438  0.1901  0.3900
  153POPC   C4A 2385   8.047   9.742   7.388  0.0114 -0.1069  0.2657
  153POPC   C1B 2386   8.760  10.527   8.329  0.1038  0.0364 -0.3294
  153POPC   C2B 2387   8.900  10.722   7.951 -0.1517 -0.0987  0.0374
  153POPC   C3B 2388   9.118  10.653   7.573  0.1711 -0.3465 -0.1588
  153POPC   C4B 2389   9.507  10.678   7.465 -0.0989 -0.2485 -0.2077
  154POPC   NC3 2390   0.394   9.630   9.365  0.0372  0.0550 -0.0466
  154POPC   PO4 2391   0.854   9.475   9.489 -0.1217  0.0637 -0.2822
  154POPC   GL1 2392   0.761   9.356   9.095  0.1539 -0.0262 -0.2178
  154POPC   GL2 2393   0.554   9.650   8.900 -0.0063  0.2993 -0.1218
  154POPC   C1A 2394   0.940   9.169   8.747  0.3155 -0.2816  0.1735
  154POPC   D2A 2395   1.036   9.027   8.347 -0.1907  0.0578  0.3999
  154POPC   C3A 2396   0.876   8.920   7.928 -0.0219  0.0941  0.3829
  154POPC   C4A 2397   0.869   8.717   7.480 -0.3255  0.0682 -0.0935
  154POPC   C1B 2398   0.716   9.512   8.435  0.3387 -0.0462  0.0123
  154POPC   C2B 2399   0.590   9.436   8.006  0.1223 -0.0113  0.0147
  154POPC   C3B 2400   0.421   9.276   7.626 -0.5648 -0.0021 -0.1349
  154POPC   C4B 2401   0.135   9.294   7.410 -0.0514 -0.2166  0.1771
  155POPC   NC3 2402   2.340   6.420   9.370 -0.0139  0.3468 -0.0137
  155POPC   PO4 2403   1.880   6.687   9.407 -0.1835  0.2430  0.0637
  155POPC   GL1 2404   1.889   6.770   9.097 -0.4472  0.1398  0.2894
  155POPC   GL2 2405   1.732   6.981   8.981 -0.1915  0.1549 -0.0209
  155POPC   C1A 2406   2.039   6.638   8.687  0.2175 -0.0024 -0.0372
  155POPC   D2A 2407   2.040   6.724   8.262 -0.1259 -0.1764 -0.1663
  155POPC   C3A 2408   1.812   7.045   7.988  0.2120  0.2549 -0.1274
  155POPC   C4A 2409   1.483   6.949   7.691 -0.0172 -0.1332  0.2904
  155POPC   C1B 2410   2.009   7.165   8.655 -0.0932  0.3448  0.2998
  155POPC   C2B 2411   2.090   7.360   8.315 -0.0933  0.0689  0.0352
  155POPC   C3B 2412   2.168   7.408   7.926 -0.0363  0.2238  0.0107
  155POPC   C4B 2413   2.126   7.706   7.431  0.1014  0.1425 -0.1518
  156POPC   NC3 2414   9.696   7.007   9.415  0.1170  0.0104 -0.1353
  156POPC   PO4 2415   9.589   6.990   8.949 -0.1089  0.1319 -0.2482
  156POPC   GL1 2416   9.758   6.813   8.680  0.0304 -0.2280 -0.2675
  156POPC   GL2 2417  10.036   6.860   8.769 -0.1650  0.0952  0.0550
  156POPC   C1A 2418   9.796   7.051   8.362  0.5409 -0.0885 -0.2936
  156POPC   D2A 2419   9.934   7.056   7.940 -0.4133 -0.1782 -0.1666
  156POPC   C3A 2420  10.272   6.775   7.843  0.3371  0.1181 -0.2466
  156POPC   C4A 2421  10.747   6.885   7.787 -0.2049 -0.2594 -0.3144
  156POPC   C1B 2422  10.168   6.642   8.399  0.2655  0.1233  0.2710
  156POPC   C2B 2423   9.880   6.366   8.118  0.0997  0.4187  0.0781
  156POPC   C3B 2424   9.858   6.568   7.712 -0.2165 -0.3228  0.2341
  156POPC   C4B 2425  10.010   6.881   7.410 -0.0945  0.1667 -0.3043
  157POPC   NC3 2426   0.522   8.118   5.236  0.1609  0.0102  0.2300
  157POPC   PO4 2427   0.372   8.517   5.340  0.2757  0.2073 -0.0584
  157POPC   GL1 2428   0.172   8.489   5.780 -0.2404 -0.1955  0.0254
  157POPC   GL2 2429   0.241   8.759   5.914  0.1938 -0.1819  0.2141
  157POPC   C1A 2430   0.254   8.126   6.101  0.0232  0.1235  0.2018
  157POPC   D2A 2431   0.305   7.750   6.212 -0.3590 -0.1399 -0.0588
  157POPC   C3A 2432   0.302   7.734   6.736 -0.0794  0.1472  0.1181
  157POPC   C4A 2433   0.200   7.567   7.152 -0.0853  0.3559  0.1347
  157POPC   C1B 2434   0.098   8.665   6.326 -0.1662 -0.2129 -0.0911
  157POPC   C2B 2435   0.244   8.628   6.792 -0.2100  0.0014 -0.4003
  157POPC   C3B 2436   0.413   8.916   7.178 -0.1622  0.0785  0.1022
  157POPC   C4B 2437   0.559   9.370   7.129 -0.1363  0.0724 -0.2311
  158POPC   NC3 2438   4.210   0.951   4.581  0.1329 -0.1457 -0.0046
  158POPC   PO4 2439   4.230   1.207   5.020 -0.0030 -0.0985  0.1194
  158POPC   GL1 2440   4.617   1.083   5.388  0.2008 -0.2384  0.2400
  158POPC   GL2 2441   4.374   0.967   5.481 -0.1287  0.1620  0.1074
  158POPC   C1A 2442   4.762   1.263   5.680 -0.1834  0.1647  0.0708
  158POPC   D2A 2443   5.145   1.365   5.825  0.0506 -0.2220 -0.5479
  158POPC   C3A 2444   5.042   1.406   6.236  0.0381  0.0845  0.0323
  158POPC   C4A 2445   4.910   1.128   6.584 -0.1608 -0.0600  0.0064
  158POPC   C1B 2446   4.409   1.104   5.966 -0.3268 -0.1336 -0.0752
  158POPC   C2B 2447   4.470   1.340   6.328 -0.3976  0.0504  0.2025
  158POPC   C3B 2448   4.288   1.273   6.651 -0.2541  0.0056  0.1134
  158POPC   C4B 2449   4.216   1.454   7.050  0.2929 -0.0065  0.5406
  159POPC   NC3 2450   8.576  10.040   5.054  0.3048  0.1797 -0.0488
  159POPC   PO4 2451   8.874   9.817   5.310  0.1460  0.0681  0.0999
  159POPC   GL1 2452   8.564   9.689   5.466  0.2731 -0.3019  0.2537
  159POPC   GL2 2453   8.692   9.403   5.444  0.3141  0.2374 -0.0501
  159POPC   C1A 2454   8.424   9.651   5.911 -0.1461  0.1173 -0.2855
  159POPC   D2A 2455   8.366   9.908   6.180 -0.0257  0.2531  0.0439
  159POPC   C3A 2456   8.060  10.266   6.142 -0.0744 -0.1351  0.5331
  159POPC   C4A 2457   7.802  10.643   6.321 -0.2004  0.0396  0.1311
  159POPC   C1B 2458   8.465   9.136   5.754 -0.1567  0.2858 -0.0971
  159POPC   C2B 2459   8.083   8.801   5.782 -0.3365  0.1850 -0.0235
  159POPC   C3B 2460   7.828   8.504   5.925 -0.0938  0.0624  0.1684
  159POPC   C4B 2461   7.840   8.089   6.077 -0.0881  0.0704 -0.2707
  160POPC   NC3 2462   3.340   0.189   4.992 -0.1456 -0.0254  0.0387
  160POPC   PO4 2463   3.781  -0.070   4.948  0.3082  0.1381 -0.0085
  160POPC   GL1 2464   3.654   0.066   5.392 -0.0841 -0.2253 -0.0938
  160POPC   GL2 2465   3.292   0.115   5.468 -0.0205 -0.1287  0.1439
  160POPC   C1A 2466   3.651   0.138   5.765  0.1213  0.0510  0.1390
  160POPC   D2A 2467   3.736   0.369   6.048 -0.0519  0.1504  0.3923
  160POPC   C3A 2468   3.531   0.628   6.432  0.1575  0.0904  0.0241
  160POPC   C4A 2469   3.531   0.738   6.804  0.0127 -0.0217  0.4608
  160POPC   C1B 2470   3.292   0.592   5.800  0.0033  0.0636 -0.1566
  160POPC   C2B 2471   3.064   0.793   6.062  0.1190  0.0951  0.0078
  160POPC   C3B 2472   3.180   1.013   6.433  0.2237  0.0194 -0.1408
  160POPC   C4B 2473   3.317   1.362   6.724 -0.0392 -0.0614  0.0411
  161POPC   NC3 2474   6.580   1.059   5.215  0.0775  0.1842 -0.1019
  161POPC   PO4 2475   6.493   0.576   5.229 -0.0031 -0.0611  0.1140
  161POPC   GL1 2476   6.250   0.790   5.540 -0.1092  0.1632 -0.3341
  161POPC   GL2 2477   6.103   1.171   5.410 -0.3081  0.1912 -0.1236
  161POPC   C1A 2478   6.089   0.740   6.071  0.2150  0.2712  0.3063
  161POPC   D2A 2479   6.058   0.993   6.475 -0.2739 -0.2487  0.1677
  161POPC   C3A 2480   5.783   1.069   6.881  0.0723 -0.0035  0.1180
  161POPC   C4A 2481   6.011   1.413   7.125  0.1067  0.0676  0.0468
  161POPC   C1B 2482   6.060   1.518   5.625  0.1440  0.4583  0.2887
  161POPC   C2B 2483   6.106   1.693   6.034  0.1013  0.3269  0.0726
  161POPC   C3B 2484   6.065   1.725   6.407 -0.4533 -0.1422  0.1146
  161POPC   C4B 2485   6.139   1.885   6.763  0.2404 -0.0579  0.1786
  162POPC   NC3 2486   4.514   4.664   3.885  0.0634  0.1260  0.2362
  162POPC   PO4 2487   4.224   4.765   4.131  0.1392 -0.0220  0.2812
  162POPC   GL1 2488   4.067   4.756   4.511  0.0329  0.0659 -0.1265
  162POPC   GL2 2489   3.865   4.998   4.613  0.0736 -0.1402  0.1903
  162POPC   C1A 2490   4.411   4.672   4.874  0.1114  0.0767 -0.0769
  162POPC   D2A 2491   4.537   4.845   5.257  0.0323 -0.0579 -0.0792
  162POPC   C3A 2492   4.696   4.871   5.632  0.2466  0.0395  0.2230
  162POPC   C4A 2493   4.706   4.919   6.115 -0.0994  0.2143 -0.1819
  162POPC   C1B 2494   4.161   5.151   4.801  0.2507 -0.0046  0.2470
  162POPC   C2B 2495   4.397   5.228   5.080 -0.0751 -0.0501  0.0598
  162POPC   C3B 2496   4.807   5.317   5.360 -0.0856  0.1765  0.2367
  162POPC   C4B 2497   5.256   5.150   5.428 -0.1601 -0.1139 -0.2370
  163POPC   NC3 2498   1.258   8.203   4.943  0.1751 -0.0147 -0.0779
  163POPC   PO4 2499   0.987   8.216   5.319  0.0069  0.0436  0.0759
  163POPC   GL1 2500   0.838   8.424   5.610  0.1221  0.1006  0.1483
  163POPC   GL2 2501   0.574   8.242   5.744  0.0111  0.3627  0.5179
  163POPC   C1A 2502   0.714   8.692   5.974 -0.2550 -0.0339 -0.1885
  163POPC   D2A 2503   0.603   8.806   6.451  0.0119  0.1232 -0.0632
  163POPC   C3A 2504   0.578   9.190   6.659  0.0190  0.0353  0.0585
  163POPC   C4A 2505   0.354   9.553   6.727  0.3169  0.0396  0.1548
  163POPC   C1B 2506   0.725   8.017   6.069  0.1627 -0.0425 -0.0183
  163POPC   C2B 2507   0.599   8.043   6.468 -0.0675 -0.2062 -0.0389
  163POPC   C3B 2508   0.722   8.077   6.896  0.2260 -0.2666 -0.0495
  163POPC   C4B 2509   1.071   8.196   7.260  0.2292  0.3364 -0.2229
  164POPC   NC3 2510   7.210   6.239   4.072 -0.1691 -0.1255  0.1651
  164POPC   PO4 2511   6.687   6.310   3.986 -0.2998  0.1786 -0.1523
  164POPC   GL1 2512   6.896   6.144   4.418 -0.0745  0.2386  0.1968
  164POPC   GL2 2513   7.026   6.347   4.657 -0.0329  0.2794  0.0938
  164POPC   C1A 2514   6.984   5.729   4.657 -0.1425 -0.2852 -0.1683
  164POPC   D2A 2515   6.898   5.318   4.854 -0.1464 -0.1210  0.1718
  164POPC   C3A 2516   7.259   5.073   4.925 -0.1910  0.5603  0.0815
  164POPC   C4A 2517   7.715   5.056   4.951  0.0850 -0.1356  0.1219
  164POPC   C1B 2518   6.909   6.784   4.737 -0.1588 -0.1117  0.0406
  164POPC   C2B 2519   6.921   7.023   5.063 -0.1744  0.0474  0.1440
  164POPC   C3B 2520   6.587   7.306   5.329  0.3742  0.0159 -0.0555
  164POPC   C4B 2521   6.295   7.555   5.638 -0.1885 -0.0167  0.4201
  165POPC   NC3 2522   0.821   8.721   5.253 -0.2044 -0.1503  0.2261
  165POPC   PO4 2523   0.943   9.116   5.201 -0.0163 -0.1198  0.2323
  165POPC   GL1 2524   0.978   9.096   5.706 -0.0582  0.0442  0.1463
  165POPC   GL2 2525   0.885   9.388   5.921  0.0138  0.0297 -0.0524
  165POPC   C1A 2526   1.104   8.984   6.043  0.0140 -0.0990  0.0993
  165POPC   D2A 2527   1.065   9.066   6.590 -0.1654  0.1508 -0.0542
  165POPC   C3A 2528   1.468   9.235   6.938  0.0818  0.0375 -0.2698
  165POPC   C4A 2529   1.327   9.459   7.240  0.1311 -0.0155 -0.0300
  165POPC   C1B 2530   0.519   9.187   6.040 -0.1367  0.0707  0.1594
  165POPC   C2B 2531   0.288   9.178   6.198  0.1811 -0.0680 -0.0941
  165POPC   C3B 2532   0.063   9.102   6.595  0.0712 -0.0179 -0.0884
  165POPC   C4B 2533  -0.079   9.065   6.989 -0.4945 -0.0304 -0.0106
  166POPC   NC3 2534   3.827   7.303   4.238  0.1416  0.0462 -0.0426
  166POPC   PO4 2535   4.138   6.969   4.249  0.1213  0.0283 -0.1721
  166POPC   GL1 2536   4.411   6.950   4.576 -0.1311  0.0047 -0.0555
  166POPC   GL2 2537   4.686   6.638   4.679 -0.0469  0.2562  0.0217
  166POPC   C1A 2538   4.736   7.067   4.954  0.0873  0.2883 -0.1942
  166POPC   D2A 2539   4.930   7.149   5.285  0.0614 -0.0860 -0.0666
  166POPC   C3A 2540   5.226   7.451   5.272  0.0726  0.3980  0.3372
  166POPC   C4A 2541   5.411   7.810   4.998  0.2657 -0.0270 -0.0966
  166POPC   C1B 2542   4.952   6.578   4.911  0.0558 -0.2071  0.3144
  166POPC   C2B 2543   4.998   6.545   5.321 -0.3358 -0.0441 -0.1259
  166POPC   C3B 2544   4.892   6.355   5.712 -0.2692  0.3850 -0.1963
  166POPC   C4B 2545   5.108   6.211   6.020 -0.1304 -0.1547  0.1088
  167POPC   NC3 2546   5.972   4.020   3.988  0.2813  0.0155 -0.1847
  167POPC   PO4 2547   6.457   4.037   3.859  0.3870 -0.2025 -0.0569
  167POPC   GL1 2548   6.341   3.938   4.301 -0.3121  0.0179 -0.1618
  167POPC   GL2 2549   6.577   3.604   4.404 -0.0287  0.0312  0.0786
  167POPC   C1A 2550   6.197   4.062   4.715 -0.0779  0.0439  0.0323
  167POPC   D2A 2551   6.267   4.224   5.119  0.0715 -0.1649 -0.0682
  167POPC   C3A 2552   6.494   4.062   5.525 -0.1983  0.0536 -0.4309
  167POPC   C4A 2553   6.823   4.168   5.720 -0.1787  0.2921 -0.0761
  167POPC   C1B 2554   6.290   3.564   4.696 -0.0719  0.1561 -0.0041
  167POPC   C2B 2555   6.190   3.709   5.177 -0.1286 -0.0650 -0.2809
  167POPC   C3B 2556   6.003   3.589   5.487  0.0026 -0.1128  0.0421
  167POPC   C4B 2557   5.560   3.515   5.774  0.0853  0.1897  0.0717
  168POPC   NC3 2558   9.685   4.061   5.462  0.2429  0.0975 -0.1616
  168POPC   PO4 2559   9.454   3.754   5.421 -0.2283  0.2173  0.1455
  168POPC   GL1 2560   9.278   3.902   5.815  0.0750  0.0262  0.0633
  168POPC   GL2 2561   9.237   4.219   5.711  0.0939  0.1260  0.0038
  168POPC   C1A 2562   8.899   3.818   5.998  0.0687  0.1530 -0.0628
  168POPC   D2A 2563   8.786   3.704   6.412  0.0852  0.4056 -0.1979
  168POPC   C3A 2564   8.571   3.941   6.759  0.0259  0.0190  0.1844
  168POPC   C4A 2565   8.618   3.984   7.130  0.0906  0.0613  0.0210
  168POPC   C1B 2566   9.346   4.377   6.064 -0.3537 -0.2021 -0.0047
  168POPC   C2B 2567   9.121   4.555   6.481 -0.0369  0.0829  0.1509
  168POPC   C3B 2568   9.386   4.547   6.900 -0.0824  0.0803 -0.1524
  168POPC   C4B 2569   9.496   4.711   7.361  0.2560  0.0591 -0.1460
  169POPC   NC3 2570   9.209   4.329   4.279 -0.2886  0.2249 -0.2433
  169POPC   PO4 2571   9.150   4.392   4.752 -0.0661 -0.0541 -0.2484
  169POPC   GL1 2572   8.802   4.628   5.038 -0.2072 -0.1005  0.3506
  169POPC   GL2 2573   8.484   4.515   4.946  0.1872  0.0376 -0.0224
  169POPC   C1A 2574   8.556   4.760   5.371  0.4856 -0.0352 -0.0889
  169POPC   D2A 2575   8.696   4.920   5.756 -0.0795 -0.0461 -0.0285
  169POPC   C3A 2576   8.820   4.561   6.088  0.0303  0.0359  0.2512
  169POPC   C4A 2577   8.659   4.193   6.327  0.1073 -0.2490 -0.2118
  169POPC   C1B 2578   8.428   4.284   5.261  0.0235 -0.0995 -0.2805
  169POPC   C2B 2579   8.328   4.410   5.720  0.1327 -0.0158 -0.0509
  169POPC   C3B 2580   8.357   4.518   6.073  0.0939 -0.1965 -0.0951
  169POPC   C4B 2581   8.203   4.317   6.434 -0.1809 -0.0715  0.3337
  170POPC   NC3 2582   9.116   2.952   5.687 -0.1382 -0.0719  0.1832
  170POPC   PO4 2583   9.399   2.809   5.858 -0.0442 -0.1408 -0.2516
  170POPC   GL1 2584   9.416   3.048   6.205 -0.1530 -0.2707  0.0393
  170POPC   GL2 2585   9.599   2.815   6.415  0.0043  0.2428 -0.1465
  170POPC   C1A 2586   9.663   3.286   6.462 -0.2332  0.1161 -0.0148
  170POPC   D2A 2587   9.803   3.520   6.787 -0.0844 -0.1156 -0.1935
  170POPC   C3A 2588   9.537   3.759   7.068 -0.2641  0.1716 -0.2241
  170POPC   C4A 2589   9.234   3.765   7.366 -0.0531 -0.3546 -0.0467
  170POPC   C1B 2590   9.434   2.590   6.819  0.1757 -0.1172  0.1272
  170POPC   C2B 2591   9.122   2.700   7.174  0.2035 -0.4176  0.1508
  170POPC   C3B 2592   8.761   2.545   7.458  0.1356 -0.1220  0.2641
  170POPC   C4B 2593   8.842   2.549   7.872  0.1281 -0.1914 -0.0881
  171POPC   NC3 2594   1.834   3.940   5.362 -0.3879 -0.1101  0.3241
  171POPC   PO4 2595   1.969   4.342   5.390  0.1440 -0.0202  0.1959
  171POPC   GL1 2596   2.073   4.345   5.814  0.0159  0.0418  0.0395
  171POPC   GL2 2597   2.323   4.522   5.836 -0.0222  0.2166  0.1596
  171POPC   C1A 2598   2.195   4.019   6.156 -0.2216  0.1146 -0.1741
  171POPC   D2A 2599   2.543   3.820   6.353  0.1033  0.1866 -0.0394
  171POPC   C3A 2600   2.880   4.002   6.659  0.2715  0.2854  0.0905
  171POPC   C4A 2601   3.009   4.411   6.758  0.2396 -0.0787  0.1480
  171POPC   C1B 2602   2.319   4.546   6.246  0.0181  0.0064 -0.0954
  171POPC   C2B 2603   2.415   4.293   6.620 -0.1486  0.0244 -0.1038
  171POPC   C3B 2604   2.374   3.960   6.925  0.2055  0.2131  0.1821
  171POPC   C4B 2605   2.218   3.550   7.113  0.1514  0.4199 -0.1643
  172POPC   NC3 2606   6.743   1.689   4.878  0.2448 -0.0924  0.3367
  172POPC   PO4 2607   6.952   1.389   5.042  0.0878  0.1687 -0.0781
  172POPC   GL1 2608   6.962   1.283   5.452  0.3475  0.3123  0.1047
  172POPC   GL2 2609   7.197   1.324   5.649 -0.0037  0.0062  0.2889
  172POPC   C1A 2610   6.664   1.414   5.744  0.0909 -0.0800 -0.1783
  172POPC   D2A 2611   6.547   1.559   6.156 -0.1546 -0.0231  0.2686
  172POPC   C3A 2612   6.851   1.578   6.507 -0.0964  0.2526  0.2261
  172POPC   C4A 2613   7.058   1.711   6.912 -0.1680  0.3141  0.1147
  172POPC   C1B 2614   7.070   1.715   5.843 -0.2272  0.1855  0.1837
  172POPC   C2B 2615   6.852   1.997   6.187  0.2064  0.2373 -0.1229
  172POPC   C3B 2616   6.612   2.067   6.514 -0.0144 -0.0654  0.1594
  172POPC   C4B 2617   6.604   1.904   6.900 -0.3138 -0.4137 -0.0833
  173POPC   NC3 2618   0.337   1.633   5.971 -0.2021 -0.1605  0.4773
  173POPC   PO4 2619   0.247   1.208   5.730  0.0214 -0.2713 -0.0211
  173POPC   GL1 2620   0.563   1.052   6.031 -0.2349  0.0855 -0.0087
  173POPC   GL2 2621   0.951   0.982   6.089  0.1555  0.1574  0.0464
  173POPC   C1A 2622   0.547   0.871   6.468 -0.1776 -0.0801 -0.1525
  173POPC   D2A 2623   0.418   0.981   6.931 -0.0193 -0.2182 -0.0401
  173POPC   C3A 2624   0.439   1.303   7.208  0.1200 -0.3218 -0.2210
  173POPC   C4A 2625   0.207   1.343   7.587 -0.1835 -0.1446 -0.1423
  173POPC   C1B 2626   1.018   1.152   6.445 -0.0651  0.0883  0.1050
  173POPC   C2B 2627   1.257   1.252   6.880  0.0333  0.1508 -0.0999
  173POPC   C3B 2628   1.249   0.943   7.238  0.1130 -0.0156 -0.1502
  173POPC   C4B 2629   1.138   0.923   7.703 -0.0453  0.0774  0.1550
  174POPC   NC3 2630   4.279   0.126   5.089 -0.0993 -0.2345 -0.1705
  174POPC   PO4 2631   4.602   0.216   4.834 -0.1288  0.1052 -0.0223
  174POPC   GL1 2632   4.769   0.402   5.242  0.2404 -0.1457 -0.0303
  174POPC   GL2 2633   4.769   0.615   5.316  0.3068 -0.0120 -0.0134
  174POPC   C1A 2634   4.988   0.255   5.656 -0.1857  0.3920 -0.1041
  174POPC   D2A 2635   5.037   0.392   6.004  0.0460  0.4049  0.1284
  174POPC   C3A 2636   4.812   0.445   6.465  0.2227 -0.3267  0.1749
  174POPC   C4A 2637   4.870   0.591   6.835 -0.2954 -0.0929 -0.2141
  174POPC   C1B 2638   4.857   0.809   5.774 -0.1263  0.0669 -0.0399
  174POPC   C2B 2639   5.074   0.890   6.166  0.1942  0.0619  0.0354
  174POPC   C3B 2640   5.294   0.888   6.628  0.1307 -0.0320  0.2692
  174POPC   C4B 2641   5.386   1.317   6.741  0.0180 -0.0646  0.0579
  175POPC   NC3 2642   8.138   5.109   3.645  0.2037 -0.0772 -0.1096
  175POPC   PO4 2643   7.882   4.855   3.973 -0.0102 -0.2248 -0.1706
  175POPC   GL1 2644   7.537   4.755   4.425 -0.1803  0.0820 -0.0359
  175POPC   GL2 2645   7.274   4.981   4.365  0.1255  0.0353  0.3937
  175POPC   C1A 2646   7.439   4.570   4.838 -0.0250 -0.1560 -0.0062
  175POPC   D2A 2647   7.435   4.487   5.252  0.0982  0.0088  0.2383
  175POPC   C3A 2648   7.213   4.880   5.364 -0.1926 -0.0330  0.1002
  175POPC   C4A 2649   7.020   5.203   5.333  0.1392 -0.1322 -0.1801
  175POPC   C1B 2650   6.906   5.278   4.376 -0.0516 -0.0516  0.1169
  175POPC   C2B 2651   6.558   5.468   4.594  0.0727  0.0914 -0.0482
  175POPC   C3B 2652   6.188   5.363   4.885 -0.1766 -0.1346 -0.2649
  175POPC   C4B 2653   6.086   5.191   5.299  0.1756  0.0290 -0.1011
  176POPC   NC3 2654  10.222   9.790   5.562  0.1225 -0.0152 -0.2014
  176POPC   PO4 2655   9.816  10.079   5.345  0.0308 -0.3306 -0.2821
  176POPC   GL1 2656   9.729   9.947   5.804 -0.0294 -0.2805 -0.0450
  176POPC   GL2 2657   9.854   9.633   5.858  0.3212 -0.1584  0.0110
  176POPC   C1A 2658   9.646  10.027   6.161  0.0174 -0.1000 -0.1375
  176POPC   D2A 2659   9.671  10.300   6.533 -0.1127  0.1784 -0.0932
  176POPC   C3A 2660   9.801  10.013   6.793  0.2234  0.2284 -0.0470
  176POPC   C4A 2661   9.701   9.963   7.161  0.0330 -0.1996 -0.1780
  176POPC   C1B 2662   9.717   9.506   6.259  0.4272 -0.2615  0.2774
  176POPC   C2B 2663   9.486   9.649   6.681  0.0537  0.0107 -0.0135
  176POPC   C3B 2664   9.448   9.527   7.048  0.1370 -0.1896 -0.1367
  176POPC   C4B 2665   9.393   9.370   7.504 -0.0398  0.4115 -0.3269
  177POPC   NC3 2666  10.249   6.810   5.112  0.1235 -0.0075 -0.0172
  177POPC   PO4 2667   9.865   6.826   5.283 -0.4826  0.1007 -0.3148
  177POPC   GL1 2668   9.881   6.894   5.719  0.1011  0.2961 -0.0094
  177POPC   GL2 2669   9.987   7.247   5.826 -0.0928  0.1168  0.3402
  177POPC   C1A 2670  10.041   6.566   5.981 -0.1813 -0.0655 -0.1713
  177POPC   D2A 2671   9.947   6.082   5.998 -0.1522  0.2552 -0.0157
  177POPC   C3A 2672  10.148   5.769   6.371 -0.0196  0.1888  0.3993
  177POPC   C4A 2673  10.298   5.542   6.715  0.0364 -0.3978  0.0078
  177POPC   C1B 2674   9.716   7.072   6.162  0.0530 -0.0744 -0.3233
  177POPC   C2B 2675   9.514   6.874   6.398 -0.0142 -0.0341 -0.1793
  177POPC   C3B 2676   9.418   7.133   6.671  0.0310  0.1688 -0.1520
  177POPC   C4B 2677   9.058   7.339   6.746 -0.0129 -0.0028 -0.0923
  178POPC   NC3 2678   8.319   7.871   4.220  0.0824 -0.2945  0.0611
  178POPC   PO4 2679   7.891   7.731   4.194  0.0281  0.0868  0.0323
  178POPC   GL1 2680   7.617   7.638   4.536  0.0646  0.2222  0.0835
  178POPC   GL2 2681   7.495   8.010   4.648 -0.3762 -0.3257  0.1008
  178POPC   C1A 2682   7.688   7.476   4.902 -0.2497  0.2038 -0.1334
  178POPC   D2A 2683   7.737   7.004   5.041 -0.0765  0.5232 -0.2399
  178POPC   C3A 2684   7.454   6.779   5.379  0.2611 -0.2304 -0.1377
  178POPC   C4A 2685   7.131   6.806   5.637 -0.0623 -0.1669 -0.1637
  178POPC   C1B 2686   7.384   7.873   5.043  0.1073 -0.1971  0.1763
  178POPC   C2B 2687   7.028   7.620   5.066  0.1336  0.1599  0.0129
  178POPC   C3B 2688   6.705   7.377   4.829  0.2002  0.0811 -0.0226
  178POPC   C4B 2689   6.281   7.482   4.608 -0.0829 -0.0194  0.2114
  179POPC   NC3 2690   3.111   4.497   4.932 -0.0595 -0.4176  0.0575
  179POPC   PO4 2691   2.864   4.811   5.159 -0.1759 -0.0360  0.1937
  179POPC   GL1 2692   2.745   4.734   5.597 -0.2778 -0.1877 -0.1720
  179POPC   GL2 2693   2.908   5.029   5.668  0.3782 -0.0341 -0.1266
  179POPC   C1A 2694   2.747   4.728   6.035 -0.2089  0.0879  0.0728
  179POPC   D2A 2695   2.613   5.003   6.368  0.0588 -0.0894  0.1592
  179POPC   C3A 2696   2.438   4.736   6.818 -0.3634 -0.1490  0.2078
  179POPC   C4A 2697   2.566   4.400   7.114  0.1268  0.0927  0.1237
  179POPC   C1B 2698   2.782   5.252   6.018  0.0957 -0.0777  0.3347
  179POPC   C2B 2699   2.407   5.451   6.337 -0.0186 -0.0434 -0.0426
  179POPC   C3B 2700   2.091   5.581   6.556  0.1134  0.1848  0.1240
  179POPC   C4B 2701   1.895   5.291   6.979  0.0694  0.2992  0.1285
  180POPC   NC3 2702   9.538   5.665   4.823  0.1417 -0.0462 -0.1861
  180POPC   PO4 2703   9.504   5.166   4.714 -0.1539 -0.1386  0.0293
  180POPC   GL1 2704   9.274   5.090   5.051 -0.2763  0.0013 -0.3066
  180POPC   GL2 2705   9.362   4.700   5.235 -0.0013 -0.0877 -0.0038
  180POPC   C1A 2706   9.232   5.022   5.567  0.1878  0.0003 -0.3217
  180POPC   D2A 2707   9.139   4.889   5.987  0.0436 -0.2078 -0.3131
  180POPC   C3A 2708   8.953   5.259   6.268  0.0673 -0.2872  0.2293
  180POPC   C4A 2709   8.785   5.449   6.579  0.4083  0.1426  0.0147
  180POPC   C1B 2710   8.975   4.521   5.479 -0.0566 -0.0760  0.0064
  180POPC   C2B 2711   8.749   4.167   5.765 -0.2447 -0.2203  0.0096
  180POPC   C3B 2712   8.402   3.883   5.914 -0.1076  0.2823 -0.0345
  180POPC   C4B 2713   7.973   3.815   5.713  0.0295  0.0347 -0.2476
  181POPC   NC3 2714   3.984   4.238   4.661 -0.0521  0.1905  0.2487
  181POPC   PO4 2715   4.021   3.872   4.501  0.3607  0.0185 -0.0688
  181POPC   GL1 2716   4.158   3.841   5.016 -0.3292 -0.5799  0.0317
  181POPC   GL2 2717   4.113   3.524   5.137 -0.0805 -0.0176 -0.1900
  181POPC   C1A 2718   4.492   3.758   5.342 -0.2521  0.2006  0.0196
  181POPC   D2A 2719   4.677   3.567   5.774  0.2017  0.0442 -0.1142
  181POPC   C3A 2720   4.905   3.272   6.067  0.1992  0.0489  0.3429
  181POPC   C4A 2721   5.077   3.172   6.407 -0.2740 -0.3607 -0.2228
  181POPC   C1B 2722   4.448   3.298   5.464  0.1156  0.0579 -0.0758
  181POPC   C2B 2723   4.463   3.009   5.830 -0.2758 -0.2439  0.0438
  181POPC   C3B 2724   4.538   2.824   6.212  0.0510 -0.0991  0.0204
  181POPC   C4B 2725   4.349   2.622   6.593 -0.1800 -0.3349  0.1989
  182POPC   NC3 2726  10.110   7.621   5.279 -0.1181 -0.0631 -0.1134
  182POPC   PO4 2727  10.525   7.599   5.373  0.1653 -0.1508  0.2400
  182POPC   GL1 2728  10.399   7.524   5.811  0.1289 -0.1276 -0.1923
  182POPC   GL2 2729  10.636   7.367   5.923  0.0615 -0.0530 -0.0713
  182POPC   C1A 2730  10.159   7.624   6.150 -0.0569 -0.1583  0.0775
  182POPC   D2A 2731  10.160   7.747   6.599  0.0958 -0.1446 -0.2448
  182POPC   C3A 2732   9.865   8.029   6.736 -0.0214  0.1532  0.2512
  182POPC   C4A 2733   9.736   8.262   7.118 -0.2578  0.2584  0.2673
  182POPC   C1B 2734  10.590   7.271   6.327  0.4147  0.0992  0.0645
  182POPC   C2B 2735  10.352   7.327   6.727 -0.2485  0.1778  0.1174
  182POPC   C3B 2736  10.109   7.297   7.136  0.1297  0.1631 -0.2757
  182POPC   C4B 2737   9.779   7.310   7.435  0.1442  0.0981  0.1036
  183POPC   NC3 2738   2.591   6.300   5.145 -0.1268  0.0840 -0.1669
  183POPC   PO4 2739   2.768   5.904   4.984 -0.1008  0.1624  0.1725
  183POPC   GL1 2740   2.817   5.825   5.356 -0.2222 -0.1534  0.1443
  183POPC   GL2 2741   2.603   6.061   5.595 -0.0634 -0.1980  0.0710
  183POPC   C1A 2742   3.139   5.439   5.520  0.3634 -0.1264  0.0311
  183POPC   D2A 2743   3.343   5.234   5.843 -0.1572  0.0627  0.1122
  183POPC   C3A 2744   3.740   4.857   5.638  0.0390  0.1368 -0.0741
  183POPC   C4A 2745   4.038   4.943   5.264 -0.0801  0.1273 -0.0584
  183POPC   C1B 2746   2.786   6.326   5.749 -0.2444  0.0061 -0.0545
  183POPC   C2B 2747   2.997   6.614   6.037  0.0836  0.0931 -0.0425
  183POPC   C3B 2748   3.070   6.615   6.449 -0.0870  0.2239  0.0389
  183POPC   C4B 2749   3.010   6.729   6.839 -0.1103 -0.0469  0.0925
  184POPC   NC3 2750   3.391   9.878   4.335  0.2367 -0.2066  0.0135
  184POPC   PO4 2751   3.608   9.790   4.763 -0.2193  0.1200 -0.2025
  184POPC   GL1 2752   3.778   9.757   5.274  0.1040  0.0198  0.0600
  184POPC   GL2 2753   4.009  10.015   5.297  0.0336  0.2492 -0.0249
  184POPC   C1A 2754   3.710   9.959   5.695 -0.1371  0.0509 -0.0740
  184POPC   D2A 2755   3.648  10.023   6.133  0.0751  0.4374 -0.0660
  184POPC   C3A 2756   3.594  10.370   6.455  0.0138  0.4082  0.1893
  184POPC   C4A 2757   3.446  10.543   6.771  0.5254 -0.3177  0.1314
  184POPC   C1B 2758   4.159  10.241   5.693 -0.3074  0.3670  0.0759
  184POPC   C2B 2759   4.078  10.217   6.140 -0.2833  0.0884 -0.0829
  184POPC   C3B 2760   4.064  10.210   6.609 -0.0637  0.2555  0.1518
  184POPC   C4B 2761   3.874  10.308   6.940 -0.2426  0.0619  0.1199
  185POPC   NC3 2762   7.889   5.558   4.239  0.1012  0.2888 -0.1342
  185POPC   PO4 2763   8.147   5.959   4.195 -0.2548  0.1928 -0.1690
  185POPC   GL1 2764   8.024   5.859   4.640  0.1689  0.0740 -0.0773
  185POPC   GL2 2765   8.109   5.988   4.966 -0.0789  0.1531 -0.1009
  185POPC   C1A 2766   7.574   5.789   4.814 -0.1576 -0.0267 -0.0464
  185POPC   D2A 2767   7.263   5.579   5.069  0.2804  0.4789 -0.1205
  185POPC   C3A 2768   7.165   5.987   5.319 -0.0659 -0.1143  0.0796
  185POPC   C4A 2769   6.935   6.311   5.635 -0.1186  0.1299 -0.2098
  185POPC   C1B 2770   8.226   6.295   5.330 -0.0263  0.0284  0.2634
  185POPC   C2B 2771   8.381   6.334   5.704 -0.1220  0.0857 -0.2088
  185POPC   C3B 2772   8.510   6.250   6.071 -0.0078 -0.2746 -0.1155
  185POPC   C4B 2773   8.757   6.458   6.367  0.1647  0.1639  0.2076
  186POPC   NC3 2774   0.460   6.374   5.514 -0.1030  0.2543  0.3909
  186POPC   PO4 2775   0.548   5.879   5.506 -0.3337  0.0942  0.1169
  186POPC   GL1 2776   0.681   6.093   5.844  0.1497  0.0154  0.1231
  186POPC   GL2 2777   0.402   6.116   5.972 -0.0154  0.1762 -0.0760
  186POPC   C1A 2778   0.880   5.861   6.265  0.0773  0.0011  0.1033
  186POPC   D2A 2779   0.800   5.808   6.757  0.1842 -0.2701 -0.1706
  186POPC   C3A 2780   1.045   5.695   7.192 -0.0158  0.1266  0.3478
  186POPC   C4A 2781   0.921   5.489   7.656 -0.0765  0.0911  0.1647
  186POPC   C1B 2782   0.056   6.229   6.182 -0.1132  0.0076  0.0227
  186POPC   C2B 2783  -0.294   6.207   6.568  0.1997 -0.0014 -0.0842
  186POPC   C3B 2784  -0.499   6.575   6.874 -0.2129  0.2955 -0.0301
  186POPC   C4B 2785  -0.684   6.889   7.107 -0.2945  0.2135  0.1234
  187POPC   NC3 2786   0.025   3.283   5.664  0.0779  0.1251 -0.2189
  187POPC   PO4 2787  -0.010   2.993   5.954 -0.4073  0.2227 -0.0378
  187POPC   GL1 2788  -0.258   3.024   6.457 -0.1858  0.2008  0.1708
  187POPC   GL2 2789   0.057   2.920   6.551  0.1834  0.0657 -0.0528
  187POPC   C1A 2790  -0.516   2.989   6.821  0.1325  0.1415  0.3108
  187POPC   D2A 2791  -0.716   3.085   7.063  0.1682  0.2789  0.3133
  187POPC   C3A 2792  -0.763   2.870   7.325  0.1119 -0.1196  0.3227
  187POPC   C4A 2793  -0.474   2.588   7.553  0.4546 -0.1156 -0.0173
  187POPC   C1B 2794   0.340   2.658   6.781  0.1358  0.3817  0.1415
  187POPC   C2B 2795   0.578   2.298   6.749 -0.1402 -0.0778  0.2509
  187POPC   C3B 2796   0.698   1.967   7.103 -0.3468 -0.2303 -0.1801
  187POPC   C4B 2797   0.819   1.747   7.508 -0.1644 -0.1876 -0.1066
  188POPC   NC3 2798  10.137   4.121   5.697 -0.1048 -0.3230 -0.2521
  188POPC   PO4 2799  10.167   4.271   6.126  0.0794  0.0756 -0.2363
  188POPC   GL1 2800  10.411   4.644   6.232  0.1737  0.2101  0.1406
  188POPC   GL2 2801  10.687   4.805   6.006  0.0409  0.2908 -0.1245
  188POPC   C1A 2802  10.444   4.801   6.641  0.1058 -0.2253  0.4013
  188POPC   D2A 2803  10.220   5.052   6.890 -0.0426  0.0241  0.1729
  188POPC   C3A 2804  10.327   5.300   7.198  0.2697 -0.2273  0.1881
  188POPC   C4A 2805  10.299   5.494   7.564 -0.1965 -0.1779  0.0995
  188POPC   C1B 2806  10.860   4.880   6.385  0.1857  0.3536  0.2067
  188POPC   C2B 2807  11.120   4.884   6.687  0.0619 -0.0078  0.1395
  188POPC   C3B 2808  11.379   4.685   6.926  0.1025 -0.5441  0.1720
  188POPC   C4B 2809  11.496   4.551   7.363 -0.2467 -0.1288  0.0149
  189POPC   NC3 2810   0.439   7.167   5.455  0.0303  0.0960  0.1055
  189POPC   PO4 2811   0.371   6.804   5.300  0.1787  0.0620  0.0778
  189POPC   GL1 2812   0.199   6.851   5.793 -0.1887  0.0818  0.0290
  189POPC   GL2 2813   0.276   6.603   5.924  0.2150 -0.0076  0.1678
  189POPC   C1A 2814  -0.098   6.994   6.173  0.1313  0.0490  0.0305
  189POPC   D2A 2815  -0.185   6.707   6.497 -0.0222  0.2248 -0.1194
  189POPC   C3A 2816  -0.093   6.812   6.937  0.0604 -0.3947 -0.1322
  189POPC   C4A 2817   0.210   7.055   7.255  0.0295 -0.0586  0.1366
  189POPC   C1B 2818   0.305   6.733   6.307 -0.0748  0.2322  0.2188
  189POPC   C2B 2819   0.341   6.921   6.740  0.3087  0.1685 -0.1139
  189POPC   C3B 2820   0.569   7.202   6.884  0.0517  0.2620 -0.1718
  189POPC   C4B 2821   0.685   7.535   6.959 -0.0106  0.1660 -0.3828
  190POPC   NC3 2822   2.431   2.819   5.228  0.0616 -0.3950 -0.0706
  190POPC   PO4 2823   2.817   2.923   5.526 -0.2761 -0.4364 -0.0440
  190POPC   GL1 2824   2.829   3.201   5.856  0.1917 -0.0653 -0.2211
  190POPC   GL2 2825   3.155   3.224   5.949 -0.2152 -0.0617 -0.2436
  190POPC   C1A 2826   2.645   3.269   6.330  0.0757  0.1669  0.1298
  190POPC   D2A 2827   2.728   2.891   6.609 -0.1696 -0.1183 -0.1893
  190POPC   C3A 2828   2.568   2.490   6.568  0.2572 -0.1894 -0.0136
  190POPC   C4A 2829   2.522   2.307   6.981  0.0634  0.1527 -0.2140
  190POPC   C1B 2830   3.137   3.133   6.353 -0.1112 -0.1428  0.0254
  190POPC   C2B 2831   3.224   3.061   6.729 -0.0599  0.3052 -0.1966
  190POPC   C3B 2832   3.284   3.423   7.115  0.0025 -0.2168 -0.0012
  190POPC   C4B 2833   3.538   3.520   7.470  0.0017  0.0729 -0.1975
  191POPC   NC3 2834   6.253   8.925   4.105 -0.5816 -0.0499 -0.1465
  191POPC   PO4 2835   6.433   8.828   4.590  0.2670  0.2428  0.0286
  191POPC   GL1 2836   6.675   8.625   4.957 -0.0679  0.2199 -0.1889
  191POPC   GL2 2837   6.584   8.368   4.775  0.1749  0.1231 -0.2439
  191POPC   C1A 2838   6.862   8.615   5.372  0.2817 -0.2231  0.2043
  191POPC   D2A 2839   6.658   8.899   5.646 -0.0559  0.0338 -0.2066
  191POPC   C3A 2840   6.928   8.966   6.091 -0.1297  0.0465 -0.1019
  191POPC   C4A 2841   6.933   8.718   6.511 -0.0710 -0.1744  0.0536
  191POPC   C1B 2842   6.270   8.230   5.045 -0.3004 -0.1551  0.0046
  191POPC   C2B 2843   5.921   8.266   5.266  0.1585  0.0164 -0.0793
  191POPC   C3B 2844   5.571   8.142   5.456  0.2379 -0.0442  0.0882
  191POPC   C4B 2845   5.152   8.454   5.581 -0.0011  0.1795  0.5844
  192POPC   NC3 2846   4.339   9.068   4.889  0.3024  0.2075  0.2267
  192POPC   PO4 2847   4.674   8.959   5.111 -0.0006  0.2181  0.0844
  192POPC   GL1 2848   4.764   8.564   5.329  0.1711 -0.2825  0.0413
  192POPC   GL2 2849   4.604   8.628   5.617  0.0510 -0.2826  0.1622
  192POPC   C1A 2850   4.613   8.180   5.627 -0.2061  0.2547 -0.0005
  192POPC   D2A 2851   4.954   8.120   5.934  0.1683  0.1036 -0.1970
  192POPC   C3A 2852   5.410   8.177   5.989  0.0331 -0.3083  0.0957
  192POPC   C4A 2853   5.658   8.532   6.109 -0.2973 -0.1631 -0.1067
  192POPC   C1B 2854   4.451   8.898   5.955  0.2075  0.1193 -0.2968
  192POPC   C2B 2855   4.082   8.891   6.184  0.1111 -0.3069 -0.0978
  192POPC   C3B 2856   3.976   8.737   6.683 -0.0124 -0.1997  0.1426
  192POPC   C4B 2857   3.649   8.687   6.990  0.2759 -0.1902  0.0384
  193POPC   NC3 2858   6.856   1.473   4.345  0.0626  0.2472  0.1013
  193POPC   PO4 2859   6.989   1.981   4.478 -0.2083 -0.0124 -0.0079
  193POPC   GL1 2860   7.290   2.268   4.720  0.0489  0.0854  0.0194
  193POPC   GL2 2861   7.148   2.099   5.075 -0.0048 -0.1992  0.1321
  193POPC   C1A 2862   7.194   2.578   5.040  0.1764  0.0024  0.0327
  193POPC   D2A 2863   7.501   2.914   5.177  0.1186 -0.2021  0.0707
  193POPC   C3A 2864   7.334   3.318   5.352  0.3249  0.1056  0.2312
  193POPC   C4A 2865   7.012   3.265   5.585 -0.0942 -0.1138  0.2884
  193POPC   C1B 2866   7.108   2.310   5.477  0.2991 -0.1163 -0.1382
  193POPC   C2B 2867   7.313   2.466   5.703 -0.1636 -0.2757 -0.0038
  193POPC   C3B 2868   7.570   2.564   6.197  0.1786 -0.1601  0.1991
  193POPC   C4B 2869   7.435   2.690   6.673  0.1112 -0.0471 -0.0312
  194POPC   NC3 2870   8.652   5.600   4.653 -0.2279 -0.0132 -0.0876
  194POPC   PO4 2871   8.282   5.363   4.499 -0.1650  0.1783  0.1730
  194POPC   GL1 2872   8.201   5.422   4.878 -0.5507 -0.2562 -0.0045
  194POPC   GL2 2873   8.186   5.074   5.030  0.1836 -0.0429 -0.1259
  194POPC   C1A 2874   7.885   5.466   5.114 -0.0530 -0.1719  0.0825
  194POPC   D2A 2875   7.630   5.735   5.430 -0.2099 -0.0425  0.0113
  194POPC   C3A 2876   7.225   5.597   5.632 -0.0688  0.1586 -0.4339
  194POPC   C4A 2877   6.867   5.680   5.608  0.1005 -0.0597 -0.3425
  194POPC   C1B 2878   7.874   5.115   5.436  0.0006 -0.3866 -0.0964
  194POPC   C2B 2879   7.534   5.205   5.616  0.0997  0.4563 -0.2819
  194POPC   C3B 2880   7.247   4.908   5.824 -0.2187  0.2405 -0.3291
  194POPC   C4B 2881   7.358   4.542   5.999 -0.1195  0.0312 -0.0579
  195POPC   NC3 2882   8.393   2.973   5.190  0.4380 -0.0042  0.1248
  195POPC   PO4 2883   8.571   3.144   5.502 -0.1448  0.2395  0.1844
  195POPC   GL1 2884   8.652   3.311   5.907  0.3484  0.0405  0.2223
  195POPC   GL2 2885   8.847   3.048   6.137 -0.1469  0.1017 -0.2011
  195POPC   C1A 2886   8.374   3.427   6.186 -0.3849  0.0942 -0.1845
  195POPC   D2A 2887   8.203   3.825   6.383 -0.0197  0.1893 -0.0380
  195POPC   C3A 2888   7.806   3.725   6.597 -0.4192 -0.0870  0.0695
  195POPC   C4A 2889   7.440   3.869   6.710 -0.0286 -0.0780 -0.0278
  195POPC   C1B 2890   8.784   3.203   6.581 -0.0785  0.1941  0.2250
  195POPC   C2B 2891   8.737   2.990   6.954  0.5007  0.2831 -0.0558
  195POPC   C3B 2892   8.788   3.015   7.434 -0.0342  0.1843  0.0652
  195POPC   C4B 2893   8.639   3.194   7.763 -0.0076 -0.4926  0.4355
  196POPC   NC3 2894   6.159   0.306   4.957 -0.1099  0.1678 -0.1342
  196POPC   PO4 2895   6.070   0.822   4.992 -0.0614  0.4024 -0.1155
  196POPC   GL1 2896   5.761   0.526   5.270  0.0513 -0.2671  0.0925
  196POPC   GL2 2897   5.872   0.165   5.333 -0.0630 -0.1382 -0.0800
  196POPC   C1A 2898   5.789   0.552   5.665 -0.0893  0.1776  0.1804
  196POPC   D2A 2899   5.622   0.562   6.103  0.3762 -0.1289  0.0075
  196POPC   C3A 2900   5.594   0.989   6.246 -0.1300 -0.0135 -0.1827
  196POPC   C4A 2901   5.626   1.446   6.312  0.1743 -0.2035  0.0526
  196POPC   C1B 2902   5.844  -0.206   5.701  0.2808  0.2392  0.5145
  196POPC   C2B 2903   6.067  -0.229   6.138 -0.0652 -0.2623  0.1061
  196POPC   C3B 2904   6.247  -0.144   6.527  0.1965 -0.0174 -0.4589
  196POPC   C4B 2905   6.127   0.096   6.883  0.2703  0.2089  0.2681
  197POPC   NC3 2906   4.097   1.701   5.166 -0.0855 -0.1174  0.1508
  197POPC   PO4 2907   3.907   2.092   5.137 -0.0130  0.1101  0.1860
  197POPC   GL1 2908   4.060   2.348   5.504  0.1294 -0.0667 -0.1501
  197POPC   GL2 2909   4.197   2.671   5.468 -0.4043 -0.0157 -0.1753
  197POPC   C1A 2910   4.054   2.286   5.944  0.0909 -0.0691 -0.1826
  197POPC   D2A 2911   4.242   2.198   6.343 -0.1324  0.1338  0.0559
  197POPC   C3A 2912   4.259   1.841   6.627 -0.0154  0.1375  0.1312
  197POPC   C4A 2913   4.691   1.535   6.745  0.0043 -0.1816  0.1981
  197POPC   C1B 2914   4.497   2.468   5.791 -0.1245 -0.2364  0.0631
  197POPC   C2B 2915   4.664   2.347   6.172 -0.3563  0.1374  0.0695
  197POPC   C3B 2916   5.105   2.179   6.320  0.3767  0.0977 -0.0123
  197POPC   C4B 2917   5.172   1.773   6.670 -0.2993 -0.1799  0.1886
  198POPC   NC3 2918   2.547   9.988   5.243  0.2153  0.1535 -0.0649
  198POPC   PO4 2919   2.914  10.050   5.449 -0.3265 -0.0564 -0.2078
  198POPC   GL1 2920   3.176  10.087   5.809 -0.0575 -0.0216  0.3026
  198POPC   GL2 2921   3.285   9.751   5.655 -0.1956  0.1585 -0.2114
  198POPC   C1A 2922   3.138  10.067   6.214  0.2152  0.2260 -0.3314
  198POPC   D2A 2923   2.787   9.762   6.467  0.0654 -0.1367 -0.1186
  198POPC   C3A 2924   2.963   9.880   6.911  0.0280  0.2075  0.0984
  198POPC   C4A 2925   2.990  10.310   7.157 -0.0573  0.2703  0.2988
  198POPC   C1B 2926   3.564   9.547   5.956 -0.1279  0.1914 -0.2763
  198POPC   C2B 2927   3.831   9.290   6.384  0.2375  0.0670 -0.0051
  198POPC   C3B 2928   4.162   9.277   6.803  0.0139 -0.0821  0.2427
  198POPC   C4B 2929   4.031   9.376   7.257 -0.0045 -0.1896 -0.1158
  199POPC   NC3 2930   2.230   0.814   5.210  0.2162 -0.0996 -0.0287
  199POPC   PO4 2931   2.287   1.145   5.502 -0.0911  0.1295  0.1466
  199POPC   GL1 2932   2.232   1.000   5.879 -0.0791  0.0013 -0.0562
  199POPC   GL2 2933   2.133   1.198   5.987 -0.0534  0.0834  0.3109
  199POPC   C1A 2934   2.569   0.979   6.184 -0.0709 -0.1868 -0.0158
  199POPC   D2A 2935   2.739   0.827   6.586  0.0147  0.2621 -0.0231
  199POPC   C3A 2936   3.022   0.494   6.512  0.1904  0.1986 -0.0064
  199POPC   C4A 2937   3.161   0.289   6.227  0.0672 -0.0994  0.1672
  199POPC   C1B 2938   2.076   1.007   6.398 -0.2297 -0.1177 -0.0223
  199POPC   C2B 2939   2.318   0.893   6.914 -0.0426 -0.0193 -0.1880
  199POPC   C3B 2940   2.297   0.637   7.195 -0.2464 -0.0899  0.0176
  199POPC   C4B 2941   2.240   0.161   7.351 -0.0732 -0.1168  0.2002
  200POPC   NC3 2942  10.152   4.994   5.453  0.0208 -0.2259  0.2171
  200POPC   PO4 2943  10.287   4.649   5.753  0.0305  0.0251  0.0447
  200POPC   GL1 2944  10.170   5.000   6.002  0.1412  0.0627  0.2179
  200POPC   GL2 2945  10.051   4.976   6.353 -0.2035  0.3070 -0.0984
  200POPC   C1A 2946  10.501   5.258   6.311 -0.1527  0.0447 -0.1484
  200POPC   D2A 2947  10.746   5.217   6.788  0.0662  0.0421 -0.0574
  200POPC   C3A 2948  10.670   4.959   7.079  0.2765 -0.0362  0.0175
  200POPC   C4A 2949  10.383   4.617   7.172 -0.0645 -0.1371  0.0160
  200POPC   C1B 2950   9.857   5.282   6.608  0.2537  0.0017  0.0412
  200POPC   C2B 2951   9.909   5.499   7.089  0.2927  0.0368 -0.0653
  200POPC   C3B 2952   9.624   5.943   7.228  0.1594 -0.0284 -0.1891
  200POPC   C4B 2953   9.540   6.461   7.268  0.1598 -0.1547  0.2364
  201POPC   NC3 2954   8.424   4.891   4.608 -0.1775  0.0458 -0.1003
  201POPC   PO4 2955   8.644   5.168   4.822 -0.2019 -0.1928 -0.1905
  201POPC   GL1 2956   8.784   5.172   5.188  0.1796 -0.2804 -0.0165
  201POPC   GL2 2957   9.052   5.444   5.299 -0.0434 -0.3703  0.0956
  201POPC   C1A 2958   8.475   5.259   5.522 -0.1149  0.4846  0.0451
  201POPC   D2A 2959   8.179   4.918   5.756 -0.2850  0.0187  0.0891
  201POPC   C3A 2960   8.222   5.016   6.178  0.1538  0.0505  0.0272
  201POPC   C4A 2961   8.544   4.871   6.404  0.0706  0.3556 -0.1481
  201POPC   C1B 2962   8.988   5.391   5.804 -0.2378  0.2263 -0.2312
  201POPC   C2B 2963   8.704   5.705   5.971 -0.2664  0.0139 -0.0693
  201POPC   C3B 2964   8.244   5.825   5.980 -0.0292  0.1590  0.1668
  201POPC   C4B 2965   7.908   6.029   5.716 -0.2720  0.1665 -0.1336
  202POPC   NC3 2966   1.275   2.225   5.930  0.0274 -0.0260 -0.2018
  202POPC   PO4 2967   0.766   2.457   6.079  0.1469  0.1619 -0.0870
  202POPC   GL1 2968   0.652   2.713   6.397 -0.1710  0.0563  0.1864
  202POPC   GL2 2969   0.499   2.935   6.290  0.1406  0.0281  0.3266
  202POPC   C1A 2970   0.844   2.837   6.819  0.0627  0.1857 -0.3111
  202POPC   D2A 2971   0.638   2.875   7.118  0.1090 -0.0483 -0.0165
  202POPC   C3A 2972   0.180   2.984   7.134 -0.1335 -0.0645  0.0233
  202POPC   C4A 2973  -0.224   2.963   7.209  0.0236 -0.1144  0.0397
  202POPC   C1B 2974   0.480   3.132   6.678 -0.1047  0.1306 -0.1518
  202POPC   C2B 2975   0.766   3.378   6.823  0.0322 -0.1563  0.0158
  202POPC   C3B 2976   0.929   3.711   6.947 -0.1706  0.3490  0.0973
  202POPC   C4B 2977   1.181   3.820   7.258  0.2491 -0.2061  0.1577
  203POPC   NC3 2978   2.634   9.031   5.537  0.3045 -0.0532  0.1760
  203POPC   PO4 2979   2.273   8.823   5.567  0.0533  0.2480 -0.1514
  203POPC   GL1 2980   2.186   8.891   5.922 -0.2486  0.2491 -0.1841
  203POPC   GL2 2981   2.544   8.975   6.046  0.0039 -0.2673 -0.0404
  203POPC   C1A 2982   2.111   8.750   6.372 -0.2165 -0.1562 -0.1075
  203POPC   D2A 2983   2.320   8.938   6.724 -0.0364  0.0213 -0.0445
  203POPC   C3A 2984   2.727   8.805   6.838  0.1870 -0.0571  0.1781
  203POPC   C4A 2985   3.114   8.803   6.918 -0.0221  0.3877 -0.1633
  203POPC   C1B 2986   2.657   9.149   6.448 -0.0499  0.3746 -0.1754
  203POPC   C2B 2987   3.010   9.329   6.618 -0.1651 -0.0281  0.1128
  203POPC   C3B 2988   3.293   9.498   6.904  0.1980 -0.1613  0.1211
  203POPC   C4B 2989   3.540   9.546   7.269 -0.0387 -0.0223 -0.0983
  204POPC   NC3 2990   8.851   1.669   5.398 -0.0770 -0.1176  0.0214
  204POPC   PO4 2991   8.600   1.915   5.076  0.1559 -0.2576  0.0540
  204POPC   GL1 2992   8.415   1.800   5.540 -0.2048 -0.0304  0.0294
  204POPC   GL2 2993   8.441   1.463   5.591  0.3115 -0.2505  0.0242
  204POPC   C1A 2994   8.211   1.821   5.895 -0.0174 -0.1866  0.0587
  204POPC   D2A 2995   7.796   1.755   5.970 -0.2215  0.1618 -0.0511
  204POPC   C3A 2996   7.501   1.688   6.287  0.4105  0.0788  0.0558
  204POPC   C4A 2997   7.349   1.460   6.617  0.1329 -0.1099  0.0268
  204POPC   C1B 2998   8.457   1.469   5.960  0.0653  0.4468 -0.3045
  204POPC   C2B 2999   8.637   1.347   6.351 -0.2093 -0.0423 -0.2181
  204POPC   C3B 3000   9.008   1.392   6.590 -0.0190  0.0033  0.1806
  204POPC   C4B 3001   9.092   1.630   6.885  0.1424 -0.0134 -0.0330
  205POPC   NC3 3002   5.056   0.278   4.616 -0.1141 -0.2565 -0.0167
  205POPC   PO4 3003   5.411   0.076   4.861 -0.0252  0.0107  0.1704
  205POPC   GL1 3004   5.373  -0.106   5.325  0.0785  0.0594  0.1407
  205POPC   GL2 3005   5.130  -0.182   5.446 -0.1834  0.4320 -0.2439
  205POPC   C1A 3006   5.463   0.117   5.740 -0.0203 -0.2596 -0.0815
  205POPC   D2A 3007   5.592   0.012   6.128 -0.0473  0.5015  0.1448
  205POPC   C3A 3008   5.848   0.172   6.422  0.1668  0.1123 -0.2154
  205POPC   C4A 3009   6.211   0.484   6.478  0.1193 -0.0122  0.0139
  205POPC   C1B 3010   4.948  -0.140   5.907  0.0309  0.2283 -0.0389
  205POPC   C2B 3011   5.104  -0.147   6.332  0.0257  0.1431 -0.2092
  205POPC   C3B 3012   5.388  -0.146   6.586 -0.0396 -0.1409  0.1874
  205POPC   C4B 3013   5.771  -0.252   6.611  0.0492  0.0079 -0.2094
  206POPC   NC3 3014  10.045   9.735   4.988 -0.0736 -0.2508  0.4014
  206POPC   PO4 3015  10.303   9.365   5.322  0.3306 -0.1309 -0.1650
  206POPC   GL1 3016  10.201   9.259   5.689  0.0465  0.2153  0.1149
  206POPC   GL2 3017  10.356   9.523   5.934  0.0172 -0.0999  0.1061
  206POPC   C1A 3018  10.150   9.043   6.100 -0.3861 -0.0182 -0.0025
  206POPC   D2A 3019   9.899   8.794   6.469 -0.1061  0.1661  0.3978
  206POPC   C3A 3020   9.788   8.381   6.373  0.0479  0.0333 -0.1268
  206POPC   C4A 3021   9.356   8.204   6.470 -0.0585 -0.2726 -0.0269
  206POPC   C1B 3022  10.232   9.501   6.382  0.1651 -0.0433  0.4450
  206POPC   C2B 3023  10.001   9.448   6.717  0.1572  0.1944 -0.0551
  206POPC   C3B 3024   9.798   9.090   6.819  0.3038 -0.0957 -0.1240
  206POPC   C4B 3025   9.994   8.622   6.897 -0.2024  0.0206 -0.0720
  207POPC   NC3 3026   1.641   5.152   5.472 -0.2703 -0.0511  0.1527
  207POPC   PO4 3027   1.526   5.656   5.408  0.3035  0.0687  0.1812
  207POPC   GL1 3028   1.531   5.861   5.771  0.0671 -0.0481 -0.0570
  207POPC   GL2 3029   1.289   5.608   6.047 -0.3787 -0.1073  0.3745
  207POPC   C1A 3030   1.694   5.929   6.210  0.6127  0.0125  0.0970
  207POPC   D2A 3031   1.721   6.180   6.582 -0.3102 -0.1782  0.0768
  207POPC   C3A 3032   1.978   6.097   6.867  0.0292  0.0321  0.0737
  207POPC   C4A 3033   2.311   5.935   7.171  0.1503  0.1281 -0.1288
  207POPC   C1B 3034   1.327   5.645   6.469 -0.0252  0.1900 -0.0424
  207POPC   C2B 3035   1.549   5.657   6.839 -0.0893 -0.1039 -0.0563
  207POPC   C3B 3036   1.561   5.892   7.148  0.1236  0.0035 -0.0367
  207POPC   C4B 3037   1.851   6.162   7.465 -0.3880  0.1934 -0.1162
  208POPC   NC3 3038   8.319   6.266   4.566  0.0987 -0.3967 -0.1861
  208POPC   PO4 3039   8.646   6.087   4.778  0.2357  0.0916  0.0065
  208POPC   GL1 3040   8.659   6.170   5.218 -0.4950  0.2047 -0.2523
  208POPC   GL2 3041   8.953   6.382   5.322 -0.1321 -0.1355 -0.0484
  208POPC   C1A 3042   8.592   5.923   5.534  0.0906  0.0723 -0.2056
  208POPC   D2A 3043   8.197   5.666   5.473  0.0405 -0.0590 -0.0183
  208POPC   C3A 3044   8.057   5.377   5.846 -0.0931  0.1748 -0.2526
  208POPC   C4A 3045   7.723   5.038   6.066 -0.0940 -0.2135 -0.1276
  208POPC   C1B 3046   8.951   6.346   5.795  0.0180  0.0917  0.2335
  208POPC   C2B 3047   9.069   6.119   6.198 -0.1849 -0.1779 -0.0564
  208POPC   C3B 3048   9.148   5.705   6.267 -0.2415  0.0700  0.0241
  208POPC   C4B 3049   9.347   5.381   6.546 -0.0765 -0.0345 -0.1485
  209POPC   NC3 3050   6.832   9.710   4.710 -0.1180  0.0414 -0.0038
  209POPC   PO4 3051   6.976   9.305   4.595  0.1422 -0.1640 -0.0969
  209POPC   GL1 3052   6.951   9.412   5.086  0.1318 -0.0220 -0.0272
  209POPC   GL2 3053   7.039   9.729   5.188 -0.3219  0.3599  0.2011
  209POPC   C1A 3054   7.098   9.231   5.515  0.0309 -0.3952 -0.4907
  209POPC   D2A 3055   7.479   9.099   5.752 -0.2500 -0.2253 -0.2390
  209POPC   C3A 3056   7.489   8.837   6.041  0.1678  0.1932  0.2055
  209POPC   C4A 3057   7.355   8.525   6.309 -0.1032  0.1667  0.2900
  209POPC   C1B 3058   6.977   9.721   5.682 -0.1745 -0.2717 -0.1871
  209POPC   C2B 3059   6.912   9.484   5.976  0.3807  0.1373 -0.1915
  209POPC   C3B 3060   6.984   9.501   6.402 -0.0657  0.0184  0.2319
  209POPC   C4B 3061   7.241   9.488   6.691  0.0446  0.2535 -0.0519
  210POPC   NC3 3062   4.731   8.513   4.805 -0.1972 -0.3869  0.1570
  210POPC   PO4 3063   4.651   8.182   4.575 -0.1178 -0.2135 -0.1560
  210POPC   GL1 3064   4.865   7.917   4.874  0.0198  0.0708 -0.0092
  210POPC   GL2 3065   5.101   8.164   4.991  0.1415  0.0503 -0.3166
  210POPC   C1A 3066   4.697   7.612   5.235 -0.1138  0.0506 -0.0545
  210POPC   D2A 3067   4.789   7.465   5.665  0.3081 -0.1172  0.4352
  210POPC   C3A 3068   5.043   7.151   5.826 -0.2760 -0.0719  0.1062
  210POPC   C4A 3069   5.030   6.758   5.949  0.1273  0.0470 -0.2402
  210POPC   C1B 3070   5.047   7.978   5.357  0.1001 -0.3407  0.1173
  210POPC   C2B 3071   5.225   7.801   5.698  0.1235  0.0154 -0.1764
  210POPC   C3B 3072   4.981   7.650   6.090 -0.1683  0.1761 -0.1039
  210POPC   C4B 3073   4.639   7.554   6.379  0.0250  0.1848  0.1653
  211POPC   NC3 3074   1.094   5.765   5.585  0.3521  0.1836 -0.2811
  211POPC   PO4 3075   1.034   6.218   5.473  0.1804  0.0552  0.0530
  211POPC   GL1 3076   1.151   6.181   5.904 -0.1384 -0.3875  0.0549
  211POPC   GL2 3077   1.394   6.427   5.968  0.0987  0.1135  0.0231
  211POPC   C1A 3078   1.266   6.165   6.368 -0.4370  0.0903  0.1677
  211POPC   D2A 3079   1.189   6.222   6.792 -0.1354  0.0961 -0.0952
  211POPC   C3A 3080   1.098   6.687   6.810  0.0407  0.2194 -0.0689
  211POPC   C4A 3081   0.796   6.962   6.523  0.0493 -0.0138 -0.1688
  211POPC   C1B 3082   1.281   6.628   6.326 -0.1817 -0.2292 -0.1386
  211POPC   C2B 3083   1.545   6.710   6.626  0.1831  0.0769 -0.2483
  211POPC   C3B 3084   1.605   6.469   7.054  0.0673  0.0390  0.5031
  211POPC   C4B 3085   1.490   6.504   7.450 -0.3569  0.3666 -0.2213
  212POPC   NC3 3086   7.020   0.555   4.677  0.1029 -0.3381  0.0953
  212POPC   PO4 3087   6.919   0.757   5.005 -0.1705 -0.1497 -0.1040
  212POPC   GL1 3088   6.911   0.707   5.426  0.3105  0.1673 -0.0268
  212POPC   GL2 3089   6.837   0.413   5.578 -0.1989 -0.2957  0.1005
  212POPC   C1A 3090   6.825   0.961   5.820 -0.0273  0.2048 -0.1448
  212POPC   D2A 3091   6.962   1.266   6.163  0.0408  0.2877  0.0545
  212POPC   C3A 3092   7.079   0.982   6.529 -0.2135 -0.1948 -0.0020
  212POPC   C4A 3093   6.923   1.233   6.888  0.2600  0.1265  0.1191
  212POPC   C1B 3094   6.600   0.510   5.972  0.1516  0.0232 -0.1410
  212POPC   C2B 3095   6.647   0.864   6.266 -0.2787 -0.1185 -0.1368
  212POPC   C3B 3096   6.505   1.278   6.536  0.1766 -0.0850  0.1383
  212POPC   C4B 3097   6.402   1.497   6.734 -0.2310  0.2107  0.3595
  213POPC   NC3 3098   8.549   8.739   4.820  0.1666  0.2182  0.0042
  213POPC   PO4 3099   8.307   8.614   4.457 -0.1627 -0.0464  0.1217
  213POPC   GL1 3100   8.059   8.581   4.899 -0.1248  0.1100  0.3539
  213POPC   GL2 3101   8.123   8.584   5.267  0.1670  0.0765 -0.1618
  213POPC   C1A 3102   7.698   8.380   5.122 -0.0394 -0.1804  0.1996
  213POPC   D2A 3103   7.740   8.110   5.416  0.2348 -0.0881  0.2811
  213POPC   C3A 3104   8.198   7.988   5.455  0.1368 -0.2958  0.0454
  213POPC   C4A 3105   8.519   7.746   5.675  0.0113  0.0233  0.0686
  213POPC   C1B 3106   7.641   8.669   5.470  0.3135 -0.0479 -0.1868
  213POPC   C2B 3107   7.199   8.640   5.732 -0.2788  0.0999  0.0678
  213POPC   C3B 3108   6.964   8.394   6.089  0.0627  0.1393  0.2417
  213POPC   C4B 3109   6.651   8.160   6.313  0.1464  0.0473  0.1433
  214POPC   NC3 3110   7.555   1.347   5.064  0.0744  0.0794  0.1242
  214POPC   PO4 3111   7.380   1.597   5.287 -0.0082 -0.1018 -0.0124
  214POPC   GL1 3112   7.503   1.874   5.574  0.2202 -0.1617  0.1625
  214POPC   GL2 3113   7.661   2.184   5.504  0.1593  0.3078  0.0812
  214POPC   C1A 3114   7.410   2.125   6.021  0.1488 -0.3418 -0.2885
  214POPC   D2A 3115   7.189   1.986   6.527 -0.1287 -0.2893  0.1860
  214POPC   C3A 3116   7.089   2.274   6.787 -0.1154 -0.2279  0.3164
  214POPC   C4A 3117   7.013   2.559   7.051 -0.0048  0.4752  0.1321
  214POPC   C1B 3118   7.858   2.357   5.849  0.0874 -0.0577  0.0990
  214POPC   C2B 3119   7.909   2.180   6.265  0.2616  0.0106  0.5143
  214POPC   C3B 3120   7.649   2.242   6.674 -0.1878 -0.1796 -0.2633
  214POPC   C4B 3121   7.545   2.355   7.096  0.1026  0.1637  0.1618
  215POPC   NC3 3122   1.380   9.059   5.365 -0.0312 -0.4883 -0.0366
  215POPC   PO4 3123   1.386   8.666   5.261  0.1862  0.1164 -0.1063
  215POPC   GL1 3124   1.280   8.671   5.701  0.0228 -0.2555  0.0244
  215POPC   GL2 3125   1.590   8.833   5.840  0.2631  0.0977 -0.1301
  215POPC   C1A 3126   1.139   8.403   6.030 -0.1518  0.0062 -0.1085
  215POPC   D2A 3127   1.199   8.619   6.360 -0.0232  0.0682 -0.0015
  215POPC   C3A 3128   1.419   8.596   6.689 -0.0764 -0.1368 -0.0194
  215POPC   C4A 3129   1.882   8.543   6.798 -0.0577 -0.4011  0.0643
  215POPC   C1B 3130   1.646   8.869   6.314 -0.1018 -0.0951  0.0405
  215POPC   C2B 3131   1.832   9.103   6.666  0.3614 -0.1603  0.0577
  215POPC   C3B 3132   1.930   9.092   7.134  0.1741  0.0293 -0.0106
  215POPC   C4B 3133   2.340   9.198   7.387 -0.0376  0.0151  0.0279
  216POPC   NC3 3134   0.692   2.204   5.463 -0.1287 -0.4186  0.0217
  216POPC   PO4 3135   0.857   1.964   5.825 -0.0664  0.1354  0.3107
  216POPC   GL1 3136   1.133   1.836   6.222 -0.2926  0.0168 -0.1735
  216POPC   GL2 3137   1.108   2.139   6.365 -0.3957 -0.0746 -0.1492
  216POPC   C1A 3138   1.242   1.643   6.558 -0.0113 -0.0953  0.0709
  216POPC   D2A 3139   1.622   1.760   6.815  0.0511  0.4460  0.2357
  216POPC   C3A 3140   2.048   1.632   6.762  0.1622 -0.3214 -0.1120
  216POPC   C4A 3141   2.549   1.552   6.825 -0.2854  0.1590 -0.3777
  216POPC   C1B 3142   0.931   1.944   6.711 -0.1657  0.1253 -0.2588
  216POPC   C2B 3143   1.155   1.772   7.065  0.0214 -0.1152  0.4034
  216POPC   C3B 3144   1.487   1.626   7.278 -0.0583 -0.0803 -0.1473
  216POPC   C4B 3145   1.866   1.828   7.408  0.0138  0.2935 -0.1880
  217POPC   NC3 3146   3.488   0.736   5.166  0.0825  0.1812 -0.0364
  217POPC   PO4 3147   3.873   0.405   5.122  0.4874 -0.1808 -0.0801
  217POPC   GL1 3148   3.805   0.547   5.527 -0.0460 -0.0400  0.4123
  217POPC   GL2 3149   3.771   0.841   5.571 -0.0103 -0.0564  0.0757
  217POPC   C1A 3150   4.008   0.782   5.969 -0.2270  0.3577 -0.2784
  217POPC   D2A 3151   4.012   0.719   6.433 -0.2118  0.0412 -0.0097
  217POPC   C3A 3152   3.896   0.399   6.677  0.2657 -0.2466  0.0497
  217POPC   C4A 3153   3.891   0.458   7.100  0.1696  0.0690 -0.2632
  217POPC   C1B 3154   3.979   1.248   5.674  0.2080  0.2041 -0.3717
  217POPC   C2B 3155   3.601   1.466   5.886  0.0276 -0.0320 -0.1639
  217POPC   C3B 3156   3.531   1.498   6.285  0.0626 -0.0107  0.2676
  217POPC   C4B 3157   3.820   1.531   6.661 -0.0441  0.2142 -0.1325
  218POPC   NC3 3158   2.037   9.631   5.378  0.0398  0.2532 -0.1757
  218POPC   PO4 3159   2.514   9.474   5.312 -0.1052 -0.0341  0.0526
  218POPC   GL1 3160   2.701   9.609   5.702  0.0822 -0.0332  0.1383
  218POPC   GL2 3161   2.747   9.907   5.905 -0.1205 -0.4067  0.0433
  218POPC   C1A 3162   2.541   9.530   6.100 -0.0393 -0.2328  0.0156
  218POPC   D2A 3163   2.282   9.811   6.248  0.0921  0.0487 -0.0412
  218POPC   C3A 3164   2.221   9.924   6.691 -0.1178 -0.0223  0.0589
  218POPC   C4A 3165   2.051  10.087   7.107  0.2412  0.1744  0.1809
  218POPC   C1B 3166   3.039   9.570   6.079 -0.2228 -0.0325  0.1636
  218POPC   C2B 3167   3.387   9.606   6.416 -0.0740 -0.1824 -0.1979
  218POPC   C3B 3168   3.425   9.944   6.633  0.0485 -0.0174  0.2035
  218POPC   C4B 3169   3.486  10.003   7.134  0.1121  0.3120  0.2006
  219POPC   NC3 3170   3.925   5.225   4.160  0.0656 -0.0353 -0.0111
  219POPC   PO4 3171   4.100   5.696   4.084 -0.1273 -0.2272  0.2297
  219POPC   GL1 3172   4.217   5.955   4.475  0.2175 -0.0116  0.1575
  219POPC   GL2 3173   4.010   6.143   4.767 -0.0772  0.2716 -0.0306
  219POPC   C1A 3174   4.580   6.134   4.638 -0.0233 -0.1377 -0.1142
  219POPC   D2A 3175   5.041   6.214   4.463  0.2151 -0.1477 -0.2266
  219POPC   C3A 3176   5.251   6.644   4.532  0.1880 -0.0861  0.0725
  219POPC   C4A 3177   5.654   6.745   4.622 -0.1575 -0.1449 -0.0021
  219POPC   C1B 3178   4.112   6.061   5.240 -0.0984 -0.3975  0.1654
  219POPC   C2B 3179   4.328   6.243   5.642 -0.1073 -0.0873 -0.0123
  219POPC   C3B 3180   4.399   6.052   5.952  0.0655  0.0573  0.0389
  219POPC   C4B 3181   4.775   5.860   6.119  0.1782 -0.0270 -0.1434
  220POPC   NC3 3182   7.577   3.493   4.327  0.0746 -0.0793  0.1724
  220POPC   PO4 3183   7.316   3.181   4.222  0.0041 -0.1378  0.3599
  220POPC   GL1 3184   7.107   3.307   4.608 -0.2714 -0.0618 -0.1557
  220POPC   GL2 3185   6.773   3.160   4.642  0.0427  0.1519  0.0941
  220POPC   C1A 3186   6.950   3.526   4.909  0.0528 -0.5802  0.2615
  220POPC   D2A 3187   6.681   3.797   4.932  0.1512 -0.2239  0.2171
  220POPC   C3A 3188   6.677   4.186   4.724 -0.0552  0.2123  0.0201
  220POPC   C4A 3189   6.383   4.522   4.632  0.3915 -0.1496  0.0275
  220POPC   C1B 3190   6.892   2.950   5.016  0.0083  0.1245 -0.1028
  220POPC   C2B 3191   6.974   2.780   5.473 -0.0127 -0.2112  0.3000
  220POPC   C3B 3192   6.942   2.847   5.936 -0.1417  0.3049 -0.0626
  220POPC   C4B 3193   7.089   2.444   6.224 -0.0854 -0.0775  0.1315
  221POPC   NC3 3194   3.423   2.237   4.967 -0.3323  0.1362 -0.0717
  221POPC   PO4 3195   3.451   1.838   5.274 -0.1001 -0.1007  0.1287
  221POPC   GL1 3196   3.339   2.128   5.477  0.1406  0.1228 -0.3575
  221POPC   GL2 3197   3.494   2.386   5.505  0.2311  0.2688  0.4899
  221POPC   C1A 3198   3.279   2.327   5.941 -0.3224  0.0994  0.1221
  221POPC   D2A 3199   3.490   2.268   6.285  0.1107  0.1984  0.0478
  221POPC   C3A 3200   3.797   1.950   6.276  0.2170 -0.1978  0.0562
  221POPC   C4A 3201   4.013   1.480   6.200 -0.0851  0.0982 -0.2533
  221POPC   C1B 3202   3.756   2.598   5.709  0.1577 -0.0442 -0.0389
  221POPC   C2B 3203   4.055   2.825   5.983  0.0789  0.0194 -0.0091
  221POPC   C3B 3204   4.128   3.026   6.399  0.2019 -0.1421  0.0958
  221POPC   C4B 3205   4.466   3.355   6.318  0.0433  0.2019 -0.1756
  222POPC   NC3 3206   0.679   3.259   5.235 -0.0727 -0.1426 -0.1852
  222POPC   PO4 3207   0.478   3.120   5.702  0.0141  0.0664  0.0299
  222POPC   GL1 3208   0.269   3.355   6.138 -0.3077  0.1906  0.0428
  222POPC   GL2 3209   0.445   3.683   6.157 -0.1365 -0.3190 -0.2352
  222POPC   C1A 3210   0.126   3.489   6.441  0.1962 -0.0670 -0.0847
  222POPC   D2A 3211  -0.029   3.330   6.802 -0.0231 -0.0836  0.1877
  222POPC   C3A 3212  -0.168   3.447   7.222  0.1640 -0.1459 -0.0138
  222POPC   C4A 3213  -0.524   3.518   7.442 -0.1892 -0.1099  0.0724
  222POPC   C1B 3214   0.461   3.866   6.658 -0.0486  0.3505 -0.2201
  222POPC   C2B 3215   0.324   3.671   6.964 -0.0004 -0.1076  0.1332
  222POPC   C3B 3216   0.378   3.367   7.371  0.0906  0.3910  0.0363
  222POPC   C4B 3217   0.042   3.211   7.601  0.1529 -0.0836 -0.1802
  223POPC   NC3 3218   9.439   7.355   4.617  0.1161  0.0595 -0.0082
  223POPC   PO4 3219   9.086   7.460   4.803  0.0977  0.2430  0.0501
  223POPC   GL1 3220   9.048   7.411   5.275 -0.0115  0.2210 -0.0068
  223POPC   GL2 3221   8.719   7.391   5.366 -0.0062  0.2620  0.2191
  223POPC   C1A 3222   8.974   7.007   5.532 -0.1141  0.2669  0.0575
  223POPC   D2A 3223   8.647   6.694   5.605 -0.0855 -0.4715 -0.1314
  223POPC   C3A 3224   8.357   6.775   5.979  0.1792  0.1256  0.3492
  223POPC   C4A 3225   8.193   7.035   6.271 -0.1226 -0.1418  0.1460
  223POPC   C1B 3226   8.455   7.232   5.483  0.1022  0.0521  0.2469
  223POPC   C2B 3227   8.117   7.128   5.703 -0.1464 -0.1207 -0.0871
  223POPC   C3B 3228   7.719   7.156   5.590  0.2844 -0.0902 -0.0489
  223POPC   C4B 3229   7.378   7.219   5.802 -0.0271 -0.0533  0.1181
  224POPC   NC3 3230   0.073   5.704   5.223 -0.2496 -0.2737  0.2543
  224POPC   PO4 3231  -0.131   5.507   5.538  0.0085 -0.0711  0.1394
  224POPC   GL1 3232  -0.483   5.455   5.880  0.0386 -0.0945  0.1349
  224POPC   GL2 3233  -0.813   5.776   5.905 -0.2854  0.0207 -0.3015
  224POPC   C1A 3234  -0.813   5.228   6.067  0.1171 -0.0548 -0.2755
  224POPC   D2A 3235  -0.834   4.933   6.421  0.0235 -0.1557 -0.0269
  224POPC   C3A 3236  -0.639   4.569   6.505 -0.0264 -0.2009 -0.5131
  224POPC   C4A 3237  -0.306   4.547   6.746 -0.1473 -0.0685  0.1728
  224POPC   C1B 3238  -0.646   5.730   6.332  0.2687  0.1352  0.1710
  224POPC   C2B 3239  -0.528   5.779   6.687  0.2988 -0.0463  0.3816
  224POPC   C3B 3240  -0.213   5.969   7.023 -0.0682 -0.1807  0.1845
  224POPC   C4B 3241   0.128   5.971   7.321  0.3201  0.0577  0.0521
  225POPC   NC3 3242   3.914   3.076   4.704  0.1416  0.0691 -0.3499
  225POPC   PO4 3243   3.823   3.100   5.175  0.0580 -0.1220  0.2980
  225POPC   GL1 3244   3.824   3.141   5.576  0.0519 -0.1869 -0.1849
  225POPC   GL2 3245   3.620   3.414   5.778 -0.1772  0.1016 -0.0117
  225POPC   C1A 3246   4.077   3.309   5.874 -0.2346 -0.2929 -0.3456
  225POPC   D2A 3247   4.028   3.508   6.350  0.0908  0.0003  0.1176
  225POPC   C3A 3248   4.208   3.423   6.736  0.1243  0.1445 -0.1257
  225POPC   C4A 3249   4.577   3.037   6.689 -0.0569  0.1527 -0.1799
  225POPC   C1B 3250   3.666   3.204   6.174 -0.3690  0.1228 -0.0834
  225POPC   C2B 3251   3.653   2.961   6.575 -0.1428  0.5072 -0.2668
  225POPC   C3B 3252   3.799   2.788   6.938 -0.1412  0.0521 -0.1738
  225POPC   C4B 3253   4.028   2.411   7.154 -0.1124 -0.1274 -0.2536
  226POPC   NC3 3254   8.297   0.765   5.141 -0.0474 -0.0774 -0.0778
  226POPC   PO4 3255   8.126   1.197   5.302 -0.3648 -0.2246 -0.0777
  226POPC   GL1 3256   7.664   1.176   5.607  0.0061 -0.2196  0.0881
  226POPC   GL2 3257   7.746   0.837   5.599 -0.1954 -0.3019  0.0260
  226POPC   C1A 3258   7.475   1.132   5.997  0.1571  0.0843 -0.0737
  226POPC   D2A 3259   7.559   1.087   6.425  0.2315  0.0275 -0.2848
  226POPC   C3A 3260   7.476   0.668   6.563 -0.0119 -0.0946  0.1976
  226POPC   C4A 3261   7.128   0.507   6.721  0.2382 -0.1253  0.1400
  226POPC   C1B 3262   7.834   0.733   5.981  0.2528 -0.2649 -0.1605
  226POPC   C2B 3263   7.970   0.803   6.433 -0.3926 -0.1801  0.0422
  226POPC   C3B 3264   7.843   0.901   6.916 -0.1021  0.0962 -0.2035
  226POPC   C4B 3265   7.484   1.169   6.994  0.0990 -0.3054  0.0679
  227POPC   NC3 3266   9.589   8.518   5.233 -0.1273  0.0695  0.0287
  227POPC   PO4 3267   9.211   8.714   5.463  0.0859 -0.0239 -0.1713
  227POPC   GL1 3268   9.004   8.640   5.774  0.1565 -0.1543  0.1214
  227POPC   GL2 3269   8.827   8.821   5.737  0.2063 -0.0205  0.0844
  227POPC   C1A 3270   9.081   8.424   6.089 -0.3002  0.1076 -0.3263
  227POPC   D2A 3271   8.882   8.268   6.518  0.1882  0.2526 -0.0606
  227POPC   C3A 3272   8.950   7.831   6.728 -0.0242 -0.2520 -0.0982
  227POPC   C4A 3273   8.633   7.622   6.884 -0.4049 -0.0301 -0.0774
  227POPC   C1B 3274   8.510   8.673   6.058 -0.2237  0.0439  0.1964
  227POPC   C2B 3275   8.282   8.970   6.264  0.1264  0.0286  0.1681
  227POPC   C3B 3276   8.317   9.410   6.601  0.2389 -0.2362  0.0131
  227POPC   C4B 3277   8.308   9.450   6.997  0.1935  0.1897 -0.3267
  228POPC   NC3 3278   3.919   8.261   4.854  0.1051 -0.1187  0.1324
  228POPC   PO4 3279   4.188   8.570   4.733 -0.0837 -0.0907 -0.0380
  228POPC   GL1 3280   4.163   8.692   5.294 -0.0947  0.0619  0.5654
  228POPC   GL2 3281   4.238   8.348   5.361 -0.1018 -0.1693  0.0058
  228POPC   C1A 3282   4.043   8.784   5.641 -0.1674  0.0430 -0.1244
  228POPC   D2A 3283   4.085   9.276   5.850  0.0672 -0.2059 -0.0216
  228POPC   C3A 3284   4.445   9.359   6.235  0.0880  0.1863 -0.1149
  228POPC   C4A 3285   4.642   9.229   6.641 -0.2206  0.2599 -0.4867
  228POPC   C1B 3286   4.174   8.326   5.830  0.1044 -0.1998  0.2690
  228POPC   C2B 3287   4.414   8.484   6.206 -0.2293  0.2693  0.0756
  228POPC   C3B 3288   4.473   8.790   6.506  0.1474 -0.1377 -0.0610
  228POPC   C4B 3289   4.472   8.816   6.955  0.1728 -0.0751  0.4460
  229POPC   NC3 3290   4.793   3.141   4.273  0.1166  0.0214  0.3756
  229POPC   PO4 3291   4.335   3.191   4.229 -0.1167  0.1488 -0.0270
  229POPC   GL1 3292   4.465   3.191   4.635  0.1671  0.0840  0.2175
  229POPC   GL2 3293   4.312   3.400   4.710  0.2045  0.0542  0.2170
  229POPC   C1A 3294   4.859   3.132   4.957  0.3623  0.0105 -0.0484
  229POPC   D2A 3295   4.973   3.210   5.358 -0.1441  0.0962 -0.4412
  229POPC   C3A 3296   5.363   3.030   5.453 -0.3309  0.1637  0.1018
  229POPC   C4A 3297   5.615   2.793   5.406  0.1268 -0.1536 -0.2739
  229POPC   C1B 3298   4.610   3.603   4.862 -0.1975 -0.1505  0.0536
  229POPC   C2B 3299   4.933   3.585   5.132  0.0172 -0.0068 -0.1733
  229POPC   C3B 3300   5.341   3.695   5.079  0.0323 -0.1782  0.1396
  229POPC   C4B 3301   5.591   3.941   5.377 -0.1106 -0.0230  0.2696
  230POPC   NC3 3302   9.066   3.261   5.368 -0.2058  0.0279 -0.0091
  230POPC   PO4 3303   8.876   2.786   5.300  0.1484 -0.2222 -0.1839
  230POPC   GL1 3304   8.663   2.656   5.719  0.1871 -0.0507  0.0670
  230POPC   GL2 3305   8.428   2.350   5.752 -0.3675  0.0726  0.1210
  230POPC   C1A 3306   8.508   2.682   6.118 -0.1300 -0.0994  0.0693
  230POPC   D2A 3307   8.571   2.777   6.479 -0.0537  0.2414 -0.0790
  230POPC   C3A 3308   8.363   3.079   6.674 -0.0322 -0.1591  0.0824
  230POPC   C4A 3309   8.236   3.445   6.713  0.2343 -0.2521 -0.1794
  230POPC   C1B 3310   8.362   2.253   6.161 -0.1546  0.0165 -0.0251
  230POPC   C2B 3311   8.245   2.270   6.629 -0.1268  0.1288 -0.0191
  230POPC   C3B 3312   8.123   2.095   7.016 -0.0043 -0.1253 -0.1799
  230POPC   C4B 3313   8.179   2.117   7.481  0.0121 -0.3260  0.1891
  231POPC   NC3 3314   9.319   1.070   5.484 -0.0644  0.1163  0.0684
  231POPC   PO4 3315   9.517   0.609   5.568 -0.1265  0.3837  0.2211
  231POPC   GL1 3316   9.455   0.713   5.992  0.0591  0.0743  0.2951
  231POPC   GL2 3317   9.414   0.438   6.143  0.2481  0.1191 -0.0055
  231POPC   C1A 3318   9.205   0.872   6.291  0.1365  0.0148  0.1662
  231POPC   D2A 3319   9.029   0.893   6.710 -0.1174 -0.0328  0.1448
  231POPC   C3A 3320   8.758   0.581   6.779  0.2272 -0.2218  0.0413
  231POPC   C4A 3321   8.702   0.181   6.897 -0.0219 -0.0548 -0.1999
  231POPC   C1B 3322   9.143   0.067   6.225  0.0372  0.0096  0.1179
  231POPC   C2B 3323   9.241  -0.199   6.503  0.0069 -0.0805  0.0785
  231POPC   C3B 3324   9.331  -0.224   6.875  0.1903 -0.0536 -0.2178
  231POPC   C4B 3325   9.089  -0.092   7.235 -0.4181 -0.0674 -0.2038
  232POPC   NC3 3326   4.285   3.674   4.135  0.1568 -0.1866 -0.0122
  232POPC   PO4 3327   4.626   3.590   3.888 -0.2166 -0.1356 -0.1547
  232POPC   GL1 3328   4.707   3.772   4.333 -0.1852  0.1550 -0.0259
  232POPC   GL2 3329   4.473   3.978   4.581  0.0855  0.0496 -0.0429
  232POPC   C1A 3330   5.093   4.049   4.534 -0.0697  0.2684 -0.0357
  232POPC   D2A 3331   5.289   4.270   4.979 -0.2255  0.2108 -0.0042
  232POPC   C3A 3332   5.143   4.120   5.341  0.2011  0.4221  0.0338
  232POPC   C4A 3333   5.155   3.677   5.549  0.1752 -0.3522  0.0484
  232POPC   C1B 3334   4.774   4.188   4.897 -0.1083 -0.0124 -0.3625
  232POPC   C2B 3335   4.718   4.399   5.256  0.6822  0.0978 -0.1558
  232POPC   C3B 3336   4.703   4.188   5.580 -0.0579 -0.0556  0.3491
  232POPC   C4B 3337   4.630   4.042   6.022 -0.4987 -0.1800 -0.3870
  233POPC   NC3 3338   8.607  10.255   4.614  0.0755  0.2567  0.1761
  233POPC   PO4 3339   8.470  10.566   4.943 -0.2575 -0.3624  0.1710
  233POPC   GL1 3340   8.399  10.522   5.405  0.0959 -0.1356 -0.3999
  233POPC   GL2 3341   8.338  10.795   5.645 -0.2122  0.0969 -0.2444
  233POPC   C1A 3342   8.443  10.216   5.756  0.0738 -0.2704  0.1764
  233POPC   D2A 3343   8.625  10.329   6.248  0.0761 -0.1278 -0.1575
  233POPC   C3A 3344   8.305  10.128   6.596  0.1681  0.1430 -0.2363
  233POPC   C4A 3345   7.903  10.331   6.743 -0.0197 -0.0221 -0.0798
  233POPC   C1B 3346   8.236  10.744   6.023 -0.3548  0.1402 -0.1297
  233POPC   C2B 3347   8.280  10.691   6.485 -0.2443  0.1079 -0.2259
  233POPC   C3B 3348   7.972  10.771   6.906 -0.0363 -0.0437  0.1679
  233POPC   C4B 3349   7.519  10.771   7.007  0.2270 -0.2314  0.0589
  234POPC   NC3 3350   3.814   6.681   4.646 -0.6350  0.2495  0.0073
  234POPC   PO4 3351   3.899   7.151   4.689  0.1481  0.1551 -0.0025
  234POPC   GL1 3352   4.022   6.924   4.999 -0.2592  0.2180 -0.1798
  234POPC   GL2 3353   4.047   6.518   5.066  0.1685 -0.1208  0.0045
  234POPC   C1A 3354   4.015   6.920   5.423  0.4424 -0.1786 -0.0848
  234POPC   D2A 3355   4.156   6.883   5.808  0.1009  0.2393  0.1009
  234POPC   C3A 3356   4.088   7.065   6.218 -0.0864  0.2073  0.0482
  234POPC   C4A 3357   4.324   7.225   6.569  0.4854  0.2324  0.0013
  234POPC   C1B 3358   3.969   6.426   5.507  0.2694 -0.3340  0.2776
  234POPC   C2B 3359   3.999   6.453   5.968  0.2735  0.0134 -0.0524
  234POPC   C3B 3360   4.002   6.605   6.303  0.3680  0.2261  0.0277
  234POPC   C4B 3361   4.265   6.716   6.591 -0.4904  0.1856  0.3228
  235POPC   NC3 3362   5.583   6.104   3.700 -0.0247 -0.0654  0.2474
  235POPC   PO4 3363   5.739   6.529   3.648 -0.3043 -0.0781 -0.0802
  235POPC   GL1 3364   5.633   6.494   4.029 -0.2059  0.2080  0.1305
  235POPC   GL2 3365   5.884   6.561   4.261  0.1705  0.2065 -0.0876
  235POPC   C1A 3366   5.555   6.201   4.402  0.2365  0.1135 -0.1214
  235POPC   D2A 3367   5.384   6.275   4.796 -0.0547 -0.0309 -0.0237
  235POPC   C3A 3368   5.498   6.607   5.141  0.0553 -0.1206  0.0809
  235POPC   C4A 3369   5.363   6.554   5.682  0.0281 -0.2666  0.0690
  235POPC   C1B 3370   6.028   6.256   4.547 -0.1830  0.3238 -0.1640
  235POPC   C2B 3371   5.919   6.274   4.999  0.0604  0.2775  0.3035
  235POPC   C3B 3372   5.501   6.078   5.203 -0.2316 -0.3347  0.1337
  235POPC   C4B 3373   5.236   6.092   5.528 -0.2142  0.1930  0.2240
  236POPC   NC3 3374   9.858   2.169   5.932  0.0277 -0.0300  0.0557
  236POPC   PO4 3375   9.394   2.212   5.952  0.0294 -0.1702 -0.3726
  236POPC   GL1 3376   9.541   2.331   6.278  0.1219 -0.0944 -0.1241
  236POPC   GL2 3377   9.308   2.225   6.512  0.0728 -0.0294  0.0780
  236POPC   C1A 3378   9.898   2.190   6.640 -0.0115  0.2849 -0.1768
  236POPC   D2A 3379  10.052   1.908   6.964 -0.1456  0.0993 -0.0328
  236POPC   C3A 3380   9.848   1.426   7.001  0.0335 -0.2467 -0.1473
  236POPC   C4A 3381   9.587   1.172   7.298  0.1139 -0.2951  0.1673
  236POPC   C1B 3382   9.138   2.126   6.855  0.1957 -0.0499  0.0822
  236POPC   C2B 3383   9.065   2.071   7.303 -0.0211  0.2764 -0.3302
  236POPC   C3B 3384   8.999   2.115   7.725  0.0301 -0.2606 -0.0386
  236POPC   C4B 3385   8.895   2.011   8.170  0.1639 -0.0204  0.0108
  237POPC   NC3 3386   8.640   6.701   4.527 -0.3281 -0.0487 -0.0580
  237POPC   PO4 3387   8.310   6.946   4.578  0.1866  0.4550  0.4698
  237POPC   GL1 3388   8.212   7.045   4.962  0.2700 -0.1138 -0.2499
  237POPC   GL2 3389   8.246   7.349   5.075 -0.1372  0.0939  0.0714
  237POPC   C1A 3390   8.077   6.800   5.325  0.2786  0.0188 -0.3598
  237POPC   D2A 3391   7.960   6.645   5.672 -0.0378  0.3840 -0.2518
  237POPC   C3A 3392   8.036   6.405   6.069 -0.1851  0.1703  0.2351
  237POPC   C4A 3393   8.281   6.483   6.412 -0.0523 -0.1674 -0.5148
  237POPC   C1B 3394   7.988   7.510   5.296  0.0871 -0.0166 -0.3918
  237POPC   C2B 3395   7.555   7.620   5.459 -0.2174 -0.1401  0.0402
  237POPC   C3B 3396   7.193   7.833   5.548  0.0573 -0.1615  0.0473
  237POPC   C4B 3397   6.768   7.711   5.511 -0.0023 -0.1383  0.1697
  238POPC   NC3 3398   3.649   8.638   4.825  0.2591  0.4901  0.1386
  238POPC   PO4 3399   3.782   8.871   5.079  0.1091 -0.1615  0.3105
  238POPC   GL1 3400   3.491   8.967   5.348 -0.0640  0.1941 -0.0954
  238POPC   GL2 3401   3.102   8.856   5.330  0.2940 -0.0838  0.2279
  238POPC   C1A 3402   3.424   9.086   5.700 -0.0472 -0.2129 -0.1495
  238POPC   D2A 3403   3.316   9.007   6.145  0.1011 -0.0417 -0.0095
  238POPC   C3A 3404   3.484   9.070   6.551  0.1116 -0.2685  0.0112
  238POPC   C4A 3405   3.649   9.188   6.994  0.0860 -0.0250 -0.0295
  238POPC   C1B 3406   3.159   8.687   5.824 -0.0505 -0.1864  0.1016
  238POPC   C2B 3407   3.248   8.534   6.274 -0.6235 -0.2365 -0.3798
  238POPC   C3B 3408   2.924   8.420   6.677 -0.2419 -0.0401  0.2157
  238POPC   C4B 3409   2.823   8.403   7.142 -0.0212  0.2985 -0.0636
  239POPC   NC3 3410   1.800   7.250   5.423  0.2265 -0.4127  0.2731
  239POPC   PO4 3411   1.752   7.576   5.104  0.3475  0.3164 -0.3050
  239POPC   GL1 3412   1.681   7.741   5.543  0.0886  0.0878  0.3943
  239POPC   GL2 3413   2.006   7.694   5.774 -0.0625 -0.2038  0.1343
  239POPC   C1A 3414   1.538   7.813   5.958 -0.3873  0.0192  0.2164
  239POPC   D2A 3415   1.227   7.665   6.167  0.0480  0.0596 -0.0262
  239POPC   C3A 3416   1.158   7.989   6.538 -0.0201 -0.0446  0.0606
  239POPC   C4A 3417   1.405   8.062   6.907  0.1281 -0.1321  0.0245
  239POPC   C1B 3418   1.982   7.937   6.154  0.1441 -0.1057  0.1424
  239POPC   C2B 3419   2.152   8.237   6.463  0.3497  0.1980  0.0933
  239POPC   C3B 3420   2.389   8.425   6.757 -0.0154  0.0272 -0.1237
  239POPC   C4B 3421   2.306   8.649   7.200 -0.1864  0.1132  0.3132
  240POPC   NC3 3422   4.806   9.614   4.598 -0.1216 -0.3813  0.0559
  240POPC   PO4 3423   4.576   9.507   4.946  0.1185  0.1861 -0.0949
  240POPC   GL1 3424   4.258   9.577   5.259  0.0661 -0.1155  0.2103
  240POPC   GL2 3425   4.371   9.174   5.453  0.0862 -0.1348 -0.4641
  240POPC   C1A 3426   4.158   9.733   5.687 -0.3163  0.2312  0.1313
  240POPC   D2A 3427   4.076   9.734   6.185 -0.0623  0.0568 -0.3422
  240POPC   C3A 3428   4.387   9.706   6.555 -0.2518  0.0708 -0.3298
  240POPC   C4A 3429   4.518   9.610   6.983 -0.0867 -0.0250 -0.0421
  240POPC   C1B 3430   4.515   9.405   5.754 -0.0342  0.0988 -0.2832
  240POPC   C2B 3431   4.551   9.806   6.069 -0.2729  0.4189 -0.5406
  240POPC   C3B 3432   4.603  10.129   6.372  0.1069 -0.3369 -0.3246
  240POPC   C4B 3433   4.341  10.605   6.406 -0.1217 -0.0229 -0.1655
  241POPC   NC3 3434   1.973   1.588   5.618  0.2356 -0.1419 -0.1330
  241POPC   PO4 3435   1.573   1.295   5.542  0.0753  0.0469  0.2431
  241POPC   GL1 3436   1.580   1.369   5.947 -0.0603 -0.1563  0.1235
  241POPC   GL2 3437   1.542   1.091   6.062  0.0507 -0.0055  0.0951
  241POPC   C1A 3438   1.790   1.490   6.329  0.1105 -0.0872 -0.0367
  241POPC   D2A 3439   2.036   1.998   6.394 -0.0490 -0.1792  0.1086
  241POPC   C3A 3440   1.702   2.232   6.564  0.3596  0.0322  0.1823
  241POPC   C4A 3441   1.589   2.714   6.622 -0.3689 -0.3127 -0.1879
  241POPC   C1B 3442   1.584   1.063   6.547 -0.0129  0.2382 -0.0796
  241POPC   C2B 3443   1.757   1.046   6.975 -0.0387 -0.1380 -0.2493
  241POPC   C3B 3444   1.754   1.150   7.515 -0.2225 -0.3200 -0.1082
  241POPC   C4B 3445   1.702   1.142   7.927 -0.0576  0.0613  0.0833
  242POPC   NC3 3446   5.425   3.096   3.557  0.2767 -0.0850  0.1911
  242POPC   PO4 3447   5.719   3.308   3.495 -0.0151  0.0346 -0.0965
  242POPC   GL1 3448   5.943   3.211   3.941 -0.2789  0.0334 -0.4118
  242POPC   GL2 3449   6.271   3.119   4.091 -0.2550 -0.1733 -0.1847
  242POPC   C1A 3450   5.657   3.145   4.353 -0.0889  0.0417  0.1479
  242POPC   D2A 3451   5.703   2.934   4.700  0.0250 -0.1275 -0.1049
  242POPC   C3A 3452   5.410   2.689   4.962 -0.1056 -0.0007  0.1589
  242POPC   C4A 3453   5.109   2.692   5.192 -0.2428  0.2838  0.2935
  242POPC   C1B 3454   6.134   3.145   4.474 -0.1090  0.1700 -0.1312
  242POPC   C2B 3455   6.174   3.114   4.959 -0.1042  0.0076  0.1721
  242POPC   C3B 3456   6.517   3.258   5.209 -0.1383  0.0662 -0.2754
  242POPC   C4B 3457   6.538   3.533   5.623  0.0546 -0.1519  0.1245
  243POPC   NC3 3458   3.543   3.558   5.287 -0.1553  0.0128  0.0522
  243POPC   PO4 3459   3.293   3.222   5.465 -0.2738 -0.0123  0.0772
  243POPC   GL1 3460   3.337   2.780   5.717 -0.0466 -0.0898 -0.1022
  243POPC   GL2 3461   3.011   2.750   5.952  0.0717  0.2971 -0.2063
  243POPC   C1A 3462   3.461   2.735   6.128 -0.2428 -0.4435 -0.3538
  243POPC   D2A 3463   3.858   2.573   6.356  0.1091 -0.0146 -0.0767
  243POPC   C3A 3464   3.774   2.316   6.662  0.1812 -0.0319 -0.1960
  243POPC   C4A 3465   3.859   1.993   7.018 -0.2415  0.3459  0.1547
  243POPC   C1B 3466   3.188   2.617   6.470 -0.0114 -0.0649 -0.3579
  243POPC   C2B 3467   2.994   2.567   6.992 -0.2086 -0.1519  0.1363
  243POPC   C3B 3468   3.016   2.641   7.408  0.2297 -0.3540  0.0114
  243POPC   C4B 3469   2.838   2.767   7.753  0.0458 -0.1318  0.0464
  244POPC   NC3 3470   9.001   7.916   5.058 -0.1150 -0.3395 -0.0324
  244POPC   PO4 3471   9.286   8.158   5.109 -0.0115  0.2936  0.1951
  244POPC   GL1 3472   9.303   7.966   5.513 -0.0353 -0.1974  0.3565
  244POPC   GL2 3473   9.350   8.292   5.644  0.4108 -0.2994 -0.3477
  244POPC   C1A 3474   9.155   7.593   5.716  0.1762  0.1232  0.1047
  244POPC   D2A 3475   8.770   7.314   5.876 -0.4279 -0.2230  0.0996
  244POPC   C3A 3476   8.852   6.943   6.068  0.0865  0.0726  0.2706
  244POPC   C4A 3477   9.184   6.689   6.082 -0.1188 -0.1024  0.0485
  244POPC   C1B 3478   9.306   7.936   6.019 -0.0091 -0.2420 -0.2469
  244POPC   C2B 3479   9.226   7.762   6.324 -0.5213 -0.1147 -0.1116
  244POPC   C3B 3480   9.436   7.777   6.746  0.0226  0.3254 -0.0424
  244POPC   C4B 3481   9.767   7.706   7.092 -0.0591  0.1721  0.0869
  245POPC   NC3 3482   0.889   3.017   6.000  0.0773 -0.0799  0.2225
  245POPC   PO4 3483   1.257   2.756   5.912  0.0705 -0.0794  0.0366
  245POPC   GL1 3484   1.192   2.640   6.306 -0.1769 -0.0021  0.0257
  245POPC   GL2 3485   1.202   2.995   6.469 -0.0326  0.1347 -0.2106
  245POPC   C1A 3486   1.164   2.487   6.770 -0.0339 -0.1420  0.1240
  245POPC   D2A 3487   0.922   2.439   7.194 -0.1667 -0.0025  0.2447
  245POPC   C3A 3488   0.464   2.424   7.271 -0.1384  0.0881  0.1229
  245POPC   C4A 3489   0.056   2.465   7.358 -0.0776 -0.0615  0.0643
  245POPC   C1B 3490   1.360   3.174   6.916 -0.0533 -0.0641 -0.0563
  245POPC   C2B 3491   1.163   3.338   7.343 -0.0866 -0.1666 -0.2051
  245POPC   C3B 3492   0.944   3.113   7.707  0.0977 -0.3707 -0.0953
  245POPC   C4B 3493   1.114   3.316   8.152  0.1615  0.1305  0.1888
  246POPC   NC3 3494   7.039   8.707   4.606  0.3420  0.2233  0.1645
  246POPC   PO4 3495   7.131   8.273   4.373 -0.0831  0.1284 -0.1462
  246POPC   GL1 3496   7.068   8.238   4.826 -0.3321  0.0694 -0.0771
  246POPC   GL2 3497   7.255   8.362   4.996  0.0350  0.0886 -0.1760
  246POPC   C1A 3498   6.864   8.070   5.168 -0.1747 -0.0990  0.0244
  246POPC   D2A 3499   6.776   8.181   5.675 -0.0718 -0.0093  0.1752
  246POPC   C3A 3500   6.930   7.894   5.928 -0.0200  0.0040 -0.2131
  246POPC   C4A 3501   7.038   7.675   6.324 -0.1605  0.1115  0.0404
  246POPC   C1B 3502   7.275   8.312   5.421  0.0171  0.3610 -0.1535
  246POPC   C2B 3503   7.398   8.192   5.868 -0.0439  0.0583 -0.0456
  246POPC   C3B 3504   7.319   8.020   6.341  0.0546 -0.1952 -0.1899
  246POPC   C4B 3505   7.054   8.140   6.620 -0.1560 -0.1512 -0.0538
  247POPC   NC3 3506   0.814   9.548   5.365  0.0451  0.1771 -0.0786
  247POPC   PO4 3507   1.278   9.513   5.513  0.3925  0.0596 -0.2676
  247POPC   GL1 3508   1.406   9.501   5.895  0.0997 -0.3469 -0.0330
  247POPC   GL2 3509   1.316   9.736   6.085 -0.1612 -0.0034  0.4446
  247POPC   C1A 3510   1.522   9.399   6.419  0.1957  0.0911  0.0361
  247POPC   D2A 3511   1.876   9.585   6.595  0.0381  0.0920  0.3316
  247POPC   C3A 3512   1.908   9.568   7.029 -0.1813 -0.3112  0.2404
  247POPC   C4A 3513   1.910   9.513   7.419  0.0098  0.1101 -0.0599
  247POPC   C1B 3514   1.240   9.881   6.561 -0.0833 -0.2309 -0.0339
  247POPC   C2B 3515   1.220   9.972   7.024  0.0088  0.2035 -0.1349
  247POPC   C3B 3516   1.596   9.873   7.276 -0.2623 -0.1565  0.1355
  247POPC   C4B 3517   1.815  10.230   7.539  0.1293  0.3102  0.0890
  248POPC   NC3 3518   0.623   5.070   5.673 -0.3853  0.0049 -0.0175
  248POPC   PO4 3519   1.002   4.809   5.561 -0.0740 -0.0158  0.6057
  248POPC   GL1 3520   0.920   4.798   6.065  0.0656  0.3946  0.2341
  248POPC   GL2 3521   0.990   5.141   6.071  0.1597  0.0998 -0.2560
  248POPC   C1A 3522   1.122   4.556   6.426 -0.2745  0.1347 -0.1749
  248POPC   D2A 3523   1.445   4.428   6.740  0.0998 -0.0100 -0.0339
  248POPC   C3A 3524   1.526   4.151   7.088  0.1552 -0.0598 -0.2340
  248POPC   C4A 3525   1.407   4.071   7.654 -0.0337 -0.1478 -0.0028
  248POPC   C1B 3526   0.738   5.343   6.357  0.0150 -0.0129 -0.2084
  248POPC   C2B 3527   0.380   5.671   6.465 -0.1163 -0.2615  0.0073
  248POPC   C3B 3528   0.325   5.813   6.879 -0.1403  0.1127 -0.3211
  248POPC   C4B 3529   0.572   6.135   7.160 -0.1706 -0.0384  0.7607
  249POPC   NC3 3530   3.183   6.579   4.570 -0.2153 -0.2612  0.1378
  249POPC   PO4 3531   3.518   6.289   4.629  0.1975  0.0177  0.1245
  249POPC   GL1 3532   3.547   5.929   4.887 -0.2251 -0.2315  0.2055
  249POPC   GL2 3533   3.239   5.801   5.024 -0.2834  0.1511 -0.0855
  249POPC   C1A 3534   3.997   5.710   4.877  0.1506 -0.0024 -0.4411
  249POPC   D2A 3535   4.093   5.528   5.267 -0.0872 -0.0410  0.0259
  249POPC   C3A 3536   4.292   5.702   5.596  0.1675 -0.0368  0.0935
  249POPC   C4A 3537   4.776   5.782   5.637 -0.2628  0.0073 -0.1991
  249POPC   C1B 3538   3.535   5.676   5.342 -0.3030 -0.2718 -0.0865
  249POPC   C2B 3539   3.686   5.332   5.472  0.0975  0.3309  0.1513
  249POPC   C3B 3540   4.045   5.270   5.681  0.2498 -0.0116 -0.1817
  249POPC   C4B 3541   4.245   5.010   5.844 -0.0271 -0.0018  0.1072
  250POPC   NC3 3542   1.084   0.088   5.398 -0.1267 -0.1295 -0.2040
  250POPC   PO4 3543   1.326   0.128   5.744 -0.0388  0.3255 -0.0989
  250POPC   GL1 3544   1.164   0.331   6.163 -0.2764 -0.0547 -0.1873
  250POPC   GL2 3545   1.073  -0.001   6.236 -0.2187  0.2247  0.2326
  250POPC   C1A 3546   1.026   0.643   6.434 -0.0411 -0.4960 -0.2559
  250POPC   D2A 3547   0.916   0.860   6.882 -0.4147 -0.2685  0.1766
  250POPC   C3A 3548   0.737   0.794   7.306 -0.1799  0.1049  0.0393
  250POPC   C4A 3549   0.807   0.474   7.625  0.0136  0.2298  0.4167
  250POPC   C1B 3550   0.711   0.143   6.391  0.3594 -0.0663  0.1537
  250POPC   C2B 3551   0.323   0.376   6.482  0.0542  0.3470  0.0470
  250POPC   C3B 3552   0.248   0.441   6.925  0.0948  0.0015  0.2026
  250POPC   C4B 3553   0.449   0.325   7.232 -0.0302 -0.0337 -0.0074
  251POPC   NC3 3554   1.290   3.286   5.821 -0.1833 -0.3547 -0.0716
  251POPC   PO4 3555   0.903   3.408   5.627 -0.1089 -0.0425  0.0900
  251POPC   GL1 3556   0.855   3.499   6.020 -0.1641  0.0220 -0.1169
  251POPC   GL2 3557   0.810   3.344   6.335 -0.1103 -0.0105  0.0356
  251POPC   C1A 3558   0.884   3.860   6.347 -0.0061  0.0005  0.0758
  251POPC   D2A 3559   1.181   4.043   6.642  0.0822  0.1979 -0.2563
  251POPC   C3A 3560   1.019   4.194   7.015  0.4886 -0.1936  0.3038
  251POPC   C4A 3561   0.690   4.246   7.499 -0.1928  0.1009  0.1362
  251POPC   C1B 3562   1.158   3.521   6.554  0.1166  0.1738 -0.2429
  251POPC   C2B 3563   1.497   3.683   6.792  0.0405  0.0864  0.3576
  251POPC   C3B 3564   1.711   3.640   7.148  0.0140  0.2371 -0.4058
  251POPC   C4B 3565   1.902   3.919   7.430  0.0522 -0.0835 -0.1884
  252POPC   NC3 3566   3.767   6.628   4.154  0.0999  0.2146 -0.1661
  252POPC   PO4 3567   3.506   6.960   4.357 -0.1746  0.1310 -0.3297
  252POPC   GL1 3568   3.458   6.900   4.892  0.1824 -0.0159  0.0620
  252POPC   GL2 3569   3.517   6.595   5.059 -0.0062  0.1124 -0.2639
  252POPC   C1A 3570   3.541   6.970   5.373 -0.2535  0.1609 -0.1629
  252POPC   D2A 3571   3.694   7.046   5.822 -0.0012  0.0938 -0.0387
  252POPC   C3A 3572   3.525   7.009   6.215 -0.3974  0.0361  0.2013
  252POPC   C4A 3573   3.767   7.074   6.628 -0.5590  0.2076  0.1245
  252POPC   C1B 3574   3.621   6.193   5.290  0.0120  0.0715 -0.1730
  252POPC   C2B 3575   3.802   6.017   5.700 -0.0858  0.1172  0.0813
  252POPC   C3B 3576   3.778   5.594   5.924 -0.1460  0.1910  0.0729
  252POPC   C4B 3577   3.809   5.102   6.108  0.1159 -0.0839 -0.0893
  253POPC   NC3 3578   0.776   3.980   5.774 -0.0430  0.1744  0.2302
  253POPC   PO4 3579   0.714   4.447   5.787 -0.2134  0.0773  0.1059
  253POPC   GL1 3580   0.600   4.345   6.131  0.0367 -0.2420 -0.0421
  253POPC   GL2 3581   0.321   4.161   6.261 -0.1664  0.0136 -0.1706
  253POPC   C1A 3582   0.655   4.357   6.544 -0.0680 -0.0260  0.0671
  253POPC   D2A 3583   0.558   4.513   6.960  0.1963  0.3873  0.1138
  253POPC   C3A 3584   0.702   4.703   7.322  0.2599  0.0129  0.2173
  253POPC   C4A 3585   0.896   5.065   7.324  0.0537 -0.1034  0.1023
  253POPC   C1B 3586   0.146   4.251   6.726 -0.0551  0.3638  0.0051
  253POPC   C2B 3587   0.274   4.093   7.170 -0.1001 -0.0682 -0.2905
  253POPC   C3B 3588   0.214   4.226   7.641 -0.0063 -0.2464 -0.2353
  253POPC   C4B 3589   0.319   4.419   8.014 -0.0991 -0.1836  0.0614
  254POPC   NC3 3590   7.293   7.006   3.830  0.1196  0.2579 -0.1827
  254POPC   PO4 3591   7.569   6.666   3.919  0.2683 -0.1669  0.0190
  254POPC   GL1 3592   7.479   6.518   4.417 -0.0629 -0.1566  0.4045
  254POPC   GL2 3593   7.504   6.896   4.384 -0.0117 -0.0312 -0.3407
  254POPC   C1A 3594   7.618   6.318   4.813  0.1127  0.1522 -0.2579
  254POPC   D2A 3595   7.742   6.348   5.234 -0.2226 -0.1457  0.1665
  254POPC   C3A 3596   7.491   6.296   5.621  0.0196  0.1588  0.0086
  254POPC   C4A 3597   7.410   6.015   5.966 -0.2099 -0.2050  0.0043
  254POPC   C1B 3598   7.389   6.754   4.857 -0.0121 -0.1020 -0.0529
  254POPC   C2B 3599   7.116   6.508   5.148 -0.2223 -0.2632  0.0595
  254POPC   C3B 3600   6.751   6.691   5.378  0.2189 -0.0981  0.2511
  254POPC   C4B 3601   6.390   6.840   5.359  0.2253  0.3501  0.1795
  255POPC   NC3 3602   9.499   2.026   5.541  0.1652 -0.0422 -0.0231
  255POPC   PO4 3603   9.726   1.751   5.691 -0.1145  0.3999 -0.0570
  255POPC   GL1 3604   9.522   1.760   6.135  0.4554  0.0676  0.0572
  255POPC   GL2 3605   9.189   1.813   6.256  0.3514  0.0753  0.0914
  255POPC   C1A 3606   9.557   1.815   6.619 -0.2155  0.1961 -0.0902
  255POPC   D2A 3607   9.515   1.907   6.998  0.0492  0.0078  0.1873
  255POPC   C3A 3608   9.515   2.295   7.264 -0.1001  0.4532 -0.1147
  255POPC   C4A 3609   9.329   2.539   7.654 -0.0215 -0.2058  0.0441
  255POPC   C1B 3610   8.745   1.825   6.367  0.0962  0.1648 -0.1213
  255POPC   C2B 3611   8.286   1.806   6.488  0.1159  0.3659 -0.1265
  255POPC   C3B 3612   7.906   1.806   6.605  0.3393 -0.1285 -0.4170
  255POPC   C4B 3613   7.701   1.815   7.089 -0.0634 -0.0038 -0.3756
  256POPC   NC3 3614   2.979   8.089   5.029  0.0022  0.1802 -0.1685
  256POPC   PO4 3615   3.356   8.321   4.999  0.1368  0.0630 -0.0150
  256POPC   GL1 3616   3.394   8.476   5.460  0.3469 -0.1398 -0.1291
  256POPC   GL2 3617   3.670   8.488   5.454  0.1559  0.0579 -0.0225
  256POPC   C1A 3618   3.270   8.212   5.875  0.2706  0.0249 -0.0088
  256POPC   D2A 3619   3.445   8.020   6.211 -0.2169  0.0486  0.0595
  256POPC   C3A 3620   3.071   7.943   6.577 -0.2479  0.2704 -0.2479
  256POPC   C4A 3621   3.046   7.742   6.935  0.5881 -0.1174  0.1250
  256POPC   C1B 3622   3.742   8.508   5.927 -0.2362 -0.2476  0.2384
  256POPC   C2B 3623   3.741   8.449   6.316  0.0191  0.2085 -0.1337
  256POPC   C3B 3624   3.467   8.262   6.671  0.1115 -0.0832 -0.1187
  256POPC   C4B 3625   3.291   8.306   7.050 -0.3173  0.1549  0.1646
  257POPC   NC3 3626   7.023   4.546   3.492 -0.2079  0.0705  0.0160
  257POPC   PO4 3627   6.840   4.897   3.765 -0.0951  0.2668 -0.0865
  257POPC   GL1 3628   6.841   4.838   4.169 -0.2026  0.0234 -0.0349
  257POPC   GL2 3629   6.593   4.882   4.247  0.0927 -0.3492 -0.1463
  257POPC   C1A 3630   6.921   4.496   4.451 -0.0157  0.0639 -0.1552
  257POPC   D2A 3631   6.949   4.506   4.982  0.1934 -0.0416 -0.0006
  257POPC   C3A 3632   6.656   4.509   5.286  0.0349  0.0815 -0.2529
  257POPC   C4A 3633   6.757   4.651   5.802 -0.3884 -0.0949  0.0166
  257POPC   C1B 3634   6.640   4.931   4.667  0.2548 -0.1863 -0.0332
  257POPC   C2B 3635   6.411   4.853   5.085  0.0266 -0.2076 -0.1144
  257POPC   C3B 3636   6.528   4.965   5.496 -0.0440  0.2388 -0.2171
  257POPC   C4B 3637   6.863   5.202   5.814 -0.2965 -0.2672 -0.1698
  258POPC   NC3 3638   2.717   6.392   4.578 -0.0381  0.1085  0.1916
  258POPC   PO4 3639   2.822   6.740   4.898 -0.1551 -0.1225 -0.1106
  258POPC   GL1 3640   3.045   6.610   5.145 -0.2133 -0.0367  0.2609
  258POPC   GL2 3641   3.133   6.312   5.108 -0.0821  0.2944 -0.2739
  258POPC   C1A 3642   3.143   6.662   5.498 -0.3653 -0.1804  0.1353
  258POPC   D2A 3643   3.531   6.577   5.758  0.0789 -0.0336  0.0965
  258POPC   C3A 3644   3.458   6.528   6.142 -0.2095  0.0191  0.1437
  258POPC   C4A 3645   3.530   6.500   6.572 -0.0224 -0.1590 -0.3585
  258POPC   C1B 3646   3.221   6.066   5.499 -0.4504 -0.2600  0.0599
  258POPC   C2B 3647   3.384   5.864   5.833 -0.1993 -0.2640  0.5387
  258POPC   C3B 3648   3.434   5.689   6.245 -0.1146  0.0128 -0.0589
  258POPC   C4B 3649   3.384   5.916   6.696  0.1243  0.1033  0.2401
  259POPC   NC3 3650   2.494   5.204   5.029  0.1845 -0.0045  0.2816
  259POPC   PO4 3651   2.446   5.178   5.401 -0.1562  0.2042 -0.1726
  259POPC   GL1 3652   2.516   5.580   5.677 -0.2812 -0.0822  0.0906
  259POPC   GL2 3653   2.380   5.775   6.009 -0.2114 -0.1779 -0.1006
  259POPC   C1A 3654   2.899   5.736   5.846 -0.0529  0.1290 -0.0649
  259POPC   D2A 3655   2.828   5.704   6.217  0.1322  0.3083  0.2441
  259POPC   C3A 3656   2.981   5.422   6.550 -0.0001  0.1890  0.2197
  259POPC   C4A 3657   2.955   5.212   6.954  0.3042 -0.3833  0.3214
  259POPC   C1B 3658   2.228   6.024   6.301  0.3498  0.1219  0.1440
  259POPC   C2B 3659   2.515   5.983   6.696 -0.3012  0.1947 -0.1648
  259POPC   C3B 3660   2.897   6.113   6.691 -0.0405 -0.0904  0.0287
  259POPC   C4B 3661   3.170   6.296   6.987 -0.0210 -0.2687 -0.0836
  260POPC   NC3 3662   8.716   2.329   5.333  0.0914  0.1414 -0.0339
  260POPC   PO4 3663   8.889   2.086   5.646 -0.2679 -0.0107 -0.1973
  260POPC   GL1 3664   8.842   2.261   5.986  0.1912 -0.1240  0.2078
  260POPC   GL2 3665   9.041   2.532   6.094 -0.1677 -0.0421  0.3092
  260POPC   C1A 3666   8.767   2.309   6.449 -0.1530  0.0639 -0.1631
  260POPC   D2A 3667   8.821   2.489   6.840 -0.3759 -0.1181 -0.0163
  260POPC   C3A 3668   8.667   2.206   7.075 -0.2166 -0.1910 -0.2943
  260POPC   C4A 3669   8.649   1.856   6.992 -0.0961  0.3107 -0.2234
  260POPC   C1B 3670   9.079   2.677   6.457  0.0985 -0.1387  0.1595
  260POPC   C2B 3671   9.194   2.980   6.720  0.0707  0.0202  0.0869
  260POPC   C3B 3672   9.163   3.195   7.171 -0.2951  0.1044  0.0834
  260POPC   C4B 3673   9.321   3.348   7.619  0.1271  0.3395 -0.1583
  261POPC   NC3 3674   2.982   3.560   5.195  0.0930  0.2598 -0.1561
  261POPC   PO4 3675   3.273   3.959   5.293  0.1861 -0.2185 -0.0305
  261POPC   GL1 3676   3.136   4.240   5.720  0.0193 -0.1042 -0.3100
  261POPC   GL2 3677   3.265   4.596   5.859 -0.0475 -0.1606  0.3285
  261POPC   C1A 3678   3.299   4.096   6.187  0.1214 -0.2419 -0.1044
  261POPC   D2A 3679   3.616   3.841   6.255  0.0624 -0.2128  0.0396
  261POPC   C3A 3680   3.401   3.521   6.504 -0.1726  0.0342 -0.3225
  261POPC   C4A 3681   3.714   3.477   6.808 -0.0118  0.1202 -0.3175
  261POPC   C1B 3682   3.596   4.650   6.197 -0.2174 -0.3117 -0.2507
  261POPC   C2B 3683   3.678   4.440   6.535 -0.0760  0.1791  0.1072
  261POPC   C3B 3684   3.702   4.376   6.957  0.1043 -0.1992  0.0247
  261POPC   C4B 3685   3.736   4.183   7.485  0.1158  0.1425  0.0077
  262POPC   NC3 3686   5.309   4.115   3.405  0.1887 -0.0368 -0.0284
  262POPC   PO4 3687   5.507   4.160   3.809 -0.4406 -0.0453  0.0832
  262POPC   GL1 3688   5.524   4.260   4.221  0.2177  0.0323 -0.2597
  262POPC   GL2 3689   5.579   3.911   4.339  0.0143 -0.0338  0.0539
  262POPC   C1A 3690   5.431   4.673   4.535  0.0248  0.0418 -0.1986
  262POPC   D2A 3691   5.242   4.986   4.678 -0.1351 -0.1219  0.2103
  262POPC   C3A 3692   5.209   5.386   4.730  0.0636 -0.0500  0.1220
  262POPC   C4A 3693   4.912   5.789   4.690  0.2300 -0.2188  0.0793
  262POPC   C1B 3694   5.347   3.520   4.438 -0.1712 -0.1363  0.0483
  262POPC   C2B 3695   5.245   3.394   4.715  0.1723  0.4967  0.0548
  262POPC   C3B 3696   5.337   3.188   4.951 -0.1172  0.4296 -0.0594
  262POPC   C4B 3697   5.650   3.341   5.286 -0.3223  0.3386  0.1160
  263POPC   NC3 3698   4.144   9.854   4.859 -0.1997  0.3337 -0.0434
  263POPC   PO4 3699   4.578   9.992   4.793  0.1122 -0.0834 -0.0292
  263POPC   GL1 3700   4.523  10.006   5.204  0.3249  0.2702 -0.1578
  263POPC   GL2 3701   4.580  10.246   5.462 -0.2693 -0.0022  0.1514
  263POPC   C1A 3702   4.785   9.841   5.642 -0.1295 -0.1623  0.1544
  263POPC   D2A 3703   4.950   9.572   5.820  0.0865 -0.1268 -0.2303
  263POPC   C3A 3704   5.019   9.705   6.186 -0.2071  0.0207  0.0857
  263POPC   C4A 3705   5.236   9.593   6.531 -0.2891  0.0274 -0.2651
  263POPC   C1B 3706   4.540  10.473   5.862  0.0523  0.2498  0.2211
  263POPC   C2B 3707   4.546  10.866   6.014  0.0669 -0.0498 -0.0794
  263POPC   C3B 3708   4.503  11.163   6.395  0.2365  0.0631 -0.3635
  263POPC   C4B 3709   4.377  11.002   6.796  0.0462 -0.1143 -0.0479
  264POPC   NC3 3710   5.676   9.998   5.013 -0.2359 -0.1338  0.1330
  264POPC   PO4 3711   6.077  10.110   5.054  0.2443 -0.0628 -0.2235
  264POPC   GL1 3712   6.185   9.894   5.394 -0.0293 -0.0535 -0.1081
  264POPC   GL2 3713   6.021   9.531   5.339  0.1696 -0.0249 -0.3115
  264POPC   C1A 3714   6.327   9.885   5.732  0.2858 -0.1522 -0.0168
  264POPC   D2A 3715   6.363   9.628   6.075  0.0467 -0.5505 -0.0942
  264POPC   C3A 3716   6.405   9.639   6.468  0.0527  0.1570 -0.3998
  264POPC   C4A 3717   6.654   9.565   6.806  0.4232  0.0494  0.0674
  264POPC   C1B 3718   5.897   9.488   5.817  0.1583  0.0327 -0.0831
  264POPC   C2B 3719   5.947   9.268   6.147 -0.3604  0.1477  0.0624
  264POPC   C3B 3720   6.127   9.222   6.506 -0.2503  0.0338  0.0752
  264POPC   C4B 3721   6.456   8.982   6.591 -0.4098  0.1528 -0.0288
  265POPC   NC3 3722   2.359   2.935   5.722 -0.1291 -0.0635  0.1047
  265POPC   PO4 3723   2.072   3.025   5.546  0.3301  0.1766  0.4101
  265POPC   GL1 3724   1.843   3.073   5.856 -0.0132 -0.3215 -0.0856
  265POPC   GL2 3725   1.627   3.013   6.092  0.1093 -0.0213  0.0438
  265POPC   C1A 3726   2.091   3.099   6.311 -0.3143  0.1164  0.0833
  265POPC   D2A 3727   2.271   3.358   6.660 -0.1164 -0.0223 -0.2208
  265POPC   C3A 3728   2.512   3.211   6.970 -0.2793  0.1198 -0.0871
  265POPC   C4A 3729   2.818   3.074   7.134 -0.2774 -0.1116 -0.1121
  265POPC   C1B 3730   1.736   3.264   6.601 -0.1530 -0.1882  0.0496
  265POPC   C2B 3731   1.853   3.140   7.017 -0.0678 -0.0002 -0.1034
  265POPC   C3B 3732   1.682   3.206   7.446 -0.0145  0.0811  0.0823
  265POPC   C4B 3733   1.449   3.143   7.749  0.0264 -0.0178  0.0816
  266POPC   NC3 3734   9.507   6.659   4.999 -0.1267  0.1371  0.1587
  266POPC   PO4 3735   9.458   7.060   5.061 -0.0186 -0.0273  0.0642
  266POPC   GL1 3736   9.424   6.827   5.441  0.0038 -0.3156 -0.1401
  266POPC   GL2 3737   9.342   6.595   5.584  0.0732 -0.1066  0.2659
  266POPC   C1A 3738   9.400   7.075   5.793 -0.0683  0.0301 -0.4265
  266POPC   D2A 3739   9.221   7.227   6.190 -0.0354 -0.0768 -0.1859
  266POPC   C3A 3740   9.010   6.890   6.543  0.3197  0.2242  0.0193
  266POPC   C4A 3741   9.294   6.563   6.697  0.0715 -0.2046  0.0128
  266POPC   C1B 3742   9.524   6.363   5.896  0.0783  0.2193 -0.2569
  266POPC   C2B 3743   9.603   6.314   6.378  0.0868 -0.4560  0.1322
  266POPC   C3B 3744   9.415   6.110   6.803  0.1751 -0.0725  0.1581
  266POPC   C4B 3745   9.246   5.712   7.074  0.0760 -0.0961 -0.0691
  267POPC   NC3 3746   2.965   2.484   5.323  0.1694  0.0550 -0.1176
  267POPC   PO4 3747   2.607   2.477   5.508 -0.0186 -0.0734 -0.0985
  267POPC   GL1 3748   2.557   2.336   5.935  0.1375  0.4937  0.0955
  267POPC   GL2 3749   2.207   2.344   6.095 -0.0075 -0.2857  0.1585
  267POPC   C1A 3750   2.941   2.300   6.248  0.1355  0.3884 -0.2334
  267POPC   D2A 3751   2.926   2.175   6.633  0.1565  0.0556 -0.1918
  267POPC   C3A 3752   3.298   2.191   6.923 -0.1108 -0.0209 -0.2152
  267POPC   C4A 3753   3.495   2.464   7.207 -0.0866  0.3824 -0.0447
  267POPC   C1B 3754   2.026   2.620   6.502 -0.3201 -0.2231 -0.3988
  267POPC   C2B 3755   2.217   2.838   6.846 -0.1319 -0.0049 -0.2911
  267POPC   C3B 3756   2.427   2.780   7.209 -0.2765 -0.0573  0.0385
  267POPC   C4B 3757   2.386   2.832   7.522  0.0297 -0.1561 -0.0010
  268POPC   NC3 3758   3.025   7.069   4.549 -0.2308  0.0182 -0.1196
  268POPC   PO4 3759   2.654   7.342   4.764 -0.2353 -0.0299 -0.1490
  268POPC   GL1 3760   2.610   7.150   5.211 -0.1001 -0.0088  0.2330
  268POPC   GL2 3761   2.515   6.787   5.372 -0.1924  0.1344 -0.2967
  268POPC   C1A 3762   2.917   7.171   5.521  0.0873 -0.2535  0.5434
  268POPC   D2A 3763   3.142   7.099   5.819  0.0732 -0.0788  0.0528
  268POPC   C3A 3764   3.344   7.451   6.098  0.2544 -0.1188  0.4156
  268POPC   C4A 3765   3.804   7.468   6.251 -0.1232  0.3299  0.0517
  268POPC   C1B 3766   2.653   6.865   5.726  0.0228  0.3629  0.0840
  268POPC   C2B 3767   2.479   6.974   6.139  0.1822 -0.0619  0.0682
  268POPC   C3B 3768   2.418   7.163   6.454  0.1066  0.0034 -0.1538
  268POPC   C4B 3769   2.573   7.412   6.673  0.3575  0.0431 -0.0631
  269POPC   NC3 3770   4.032   2.343   4.695 -0.1891 -0.0455 -0.5443
  269POPC   PO4 3771   4.292   2.529   4.868 -0.0012 -0.0486  0.0169
  269POPC   GL1 3772   4.573   2.565   5.182 -0.1780  0.1363  0.0911
  269POPC   GL2 3773   4.668   2.775   5.474  0.0583 -0.1353  0.2539
  269POPC   C1A 3774   4.936   2.281   5.383 -0.2388  0.2513  0.0944
  269POPC   D2A 3775   5.143   2.346   5.782 -0.0985 -0.0686  0.1843
  269POPC   C3A 3776   5.442   2.618   5.835 -0.1728  0.0828 -0.1587
  269POPC   C4A 3777   5.384   3.030   5.946  0.0097  0.0002 -0.0297
  269POPC   C1B 3778   4.963   2.781   5.753 -0.2657 -0.0505 -0.1702
  269POPC   C2B 3779   5.030   2.695   6.257 -0.2867 -0.0585 -0.1927
  269POPC   C3B 3780   4.984   2.664   6.741  0.0838 -0.0139  0.0960
  269POPC   C4B 3781   5.318   2.781   7.061 -0.0193  0.3197 -0.1891
  270POPC   NC3 3782   7.731   4.359   4.151 -0.1381  0.0574 -0.1683
  270POPC   PO4 3783   7.501   3.993   4.227  0.2159  0.2891 -0.3567
  270POPC   GL1 3784   7.223   4.134   4.632  0.0061 -0.0442 -0.1261
  270POPC   GL2 3785   7.229   3.790   4.613  0.1173 -0.2227  0.1211
  270POPC   C1A 3786   7.067   4.058   5.029 -0.0755  0.2809  0.3191
  270POPC   D2A 3787   6.921   3.810   5.364 -0.0909 -0.0623  0.0644
  270POPC   C3A 3788   7.051   3.684   5.788 -0.0469  0.1976 -0.1341
  270POPC   C4A 3789   7.067   3.354   6.073 -0.1297  0.0623  0.0643
  270POPC   C1B 3790   7.452   3.745   4.994 -0.0679  0.0172  0.0708
  270POPC   C2B 3791   7.416   3.799   5.403 -0.0012  0.1208 -0.3277
  270POPC   C3B 3792   7.541   3.572   5.738 -0.0099 -0.2523  0.1708
  270POPC   C4B 3793   7.417   3.665   6.151  0.1549 -0.1310  0.3197
  271POPC   NC3 3794  10.060   8.149   4.597 -0.2162 -0.1865  0.0902
  271POPC   PO4 3795   9.852   8.010   5.055 -0.0412 -0.1436 -0.1456
  271POPC   GL1 3796   9.802   8.042   5.464 -0.2137 -0.2400  0.0631
  271POPC   GL2 3797   9.839   7.748   5.628  0.4238 -0.0585  0.2171
  271POPC   C1A 3798   9.884   8.169   5.866  0.0635 -0.3039  0.2708
  271POPC   D2A 3799  10.116   8.128   6.169  0.0147 -0.0576 -0.2519
  271POPC   C3A 3800  10.329   8.212   6.551  0.1760  0.0890  0.3086
  271POPC   C4A 3801  10.278   8.101   6.961  0.1760 -0.1243 -0.0040
  271POPC   C1B 3802   9.566   7.563   5.961  0.1670  0.3555  0.0144
  271POPC   C2B 3803   9.717   7.776   6.342 -0.2941 -0.0362  0.2278
  271POPC   C3B 3804   9.758   7.474   6.541 -0.2713 -0.0935 -0.1705
  271POPC   C4B 3805   9.892   7.116   6.729  0.1161  0.2256 -0.0599
  272POPC   NC3 3806   9.263   0.229   5.366 -0.0140 -0.1459  0.0627
  272POPC   PO4 3807   8.926   0.008   5.199 -0.0683  0.0140  0.0100
  272POPC   GL1 3808   8.912   0.046   5.665  0.0888  0.0185 -0.2535
  272POPC   GL2 3809   8.946  -0.294   5.810  0.0248  0.0188  0.0595
  272POPC   C1A 3810   8.811   0.355   5.919 -0.0097 -0.0254  0.2328
  272POPC   D2A 3811   8.803   0.491   6.313  0.4727  0.2547  0.2568
  272POPC   C3A 3812   9.229   0.365   6.628  0.0660 -0.0279  0.3898
  272POPC   C4A 3813   9.487   0.214   7.016 -0.1179  0.0149 -0.1579
  272POPC   C1B 3814   8.864  -0.428   6.244 -0.0961  0.0868 -0.0748
  272POPC   C2B 3815   8.799  -0.288   6.686 -0.0324  0.1320  0.1582
  272POPC   C3B 3816   8.612  -0.479   7.086 -0.0040  0.2396  0.3695
  272POPC   C4B 3817   8.579  -0.780   7.517 -0.2215  0.0133  0.2326
  273POPC   NC3 3818   1.992   5.836   5.606  0.0366  0.0234  0.0732
  273POPC   PO4 3819   2.007   5.437   5.389 -0.0287 -0.1032 -0.1571
  273POPC   GL1 3820   2.011   5.323   5.783  0.0819 -0.1656  0.2010
  273POPC   GL2 3821   2.276   5.124   5.918  0.5077  0.0871 -0.0340
  273POPC   C1A 3822   1.831   5.457   6.095 -0.0202 -0.4922 -0.0542
  273POPC   D2A 3823   1.779   5.229   6.482 -0.1790 -0.2390 -0.3235
  273POPC   C3A 3824   2.129   5.059   6.580 -0.0285  0.2305  0.0152
  273POPC   C4A 3825   2.441   5.198   6.786  0.2123  0.0172  0.3079
  273POPC   C1B 3826   1.927   4.893   6.113  0.1523  0.1073  0.2134
  273POPC   C2B 3827   1.520   4.799   6.327  0.1598 -0.0881 -0.1524
  273POPC   C3B 3828   1.195   5.084   6.499  0.2286 -0.2255  0.2079
  273POPC   C4B 3829   1.061   5.298   6.858 -0.2284  0.0504  0.0303
  274POPC   NC3 3830   5.121   2.129   4.290 -0.1219  0.0125  0.1670
  274POPC   PO4 3831   5.517   2.008   4.382 -0.3578  0.0512 -0.3471
  274POPC   GL1 3832   5.436   1.981   4.771  0.2457 -0.3661 -0.1179
  274POPC   GL2 3833   5.617   2.198   4.834 -0.1671 -0.0468  0.0247
  274POPC   C1A 3834   5.463   1.806   5.119 -0.1952  0.1295 -0.2426
  274POPC   D2A 3835   5.252   1.815   5.508 -0.3070  0.1804  0.1585
  274POPC   C3A 3836   4.823   1.859   5.710  0.0440 -0.1130  0.0901
  274POPC   C4A 3837   4.484   2.012   5.573 -0.3409  0.0738 -0.1858
  274POPC   C1B 3838   5.709   2.318   5.238  0.2543 -0.0177  0.1930
  274POPC   C2B 3839   5.606   2.155   5.599 -0.0133 -0.5802 -0.2013
  274POPC   C3B 3840   5.700   2.025   6.062 -0.1332  0.2748  0.2602
  274POPC   C4B 3841   5.618   2.000   6.414  0.1400  0.1371 -0.3011
  275POPC   NC3 3842   0.201  10.218   5.598 -0.0541  0.5900  0.0225
  275POPC   PO4 3843   0.420   9.871   5.745  0.0873 -0.2684  0.1739
  275POPC   GL1 3844   0.510   9.668   6.138 -0.0089  0.1440 -0.2996
  275POPC   GL2 3845   0.697   9.970   6.174  0.2617 -0.0014 -0.1138
  275POPC   C1A 3846   0.917   9.532   6.392  0.2553  0.1111 -0.0450
  275POPC   D2A 3847   1.000   9.517   6.808  0.1467 -0.0115 -0.2033
  275POPC   C3A 3848   0.964   9.115   7.125 -0.2312 -0.0104  0.1460
  275POPC   C4A 3849   1.007   8.635   6.926 -0.1035 -0.1406  0.0941
  275POPC   C1B 3850   0.757   9.986   6.595 -0.1459  0.0304  0.5000
  275POPC   C2B 3851   0.647   9.847   7.052  0.1251  0.0365  0.2070
  275POPC   C3B 3852   0.669   9.785   7.584  0.3459  0.0653  0.1363
  275POPC   C4B 3853   0.457   9.950   7.943  0.1960  0.3308 -0.1523
  276POPC   NC3 3854   2.755   0.194   5.680  0.0296 -0.0837 -0.0193
  276POPC   PO4 3855   2.384   0.061   5.492 -0.0628 -0.1407 -0.1147
  276POPC   GL1 3856   2.385   0.103   5.988  0.1403  0.1944 -0.1527
  276POPC   GL2 3857   2.532   0.359   6.179 -0.1297 -0.1008 -0.1129
  276POPC   C1A 3858   2.516  -0.082   6.343  0.0177  0.0639 -0.0125
  276POPC   D2A 3859   2.774  -0.031   6.696 -0.1210 -0.0354 -0.0620
  276POPC   C3A 3860   2.540  -0.214   7.040 -0.0674 -0.0439  0.0276
  276POPC   C4A 3861   2.673  -0.101   7.513  0.2821 -0.0323  0.0791
  276POPC   C1B 3862   2.276   0.552   6.520 -0.0405 -0.3104  0.2892
  276POPC   C2B 3863   1.901   0.522   6.816  0.0010  0.2707 -0.2512
  276POPC   C3B 3864   1.646   0.111   6.940  0.1004 -0.2366  0.3508
  276POPC   C4B 3865   1.675  -0.331   6.791  0.1592 -0.0090  0.2042
  277POPC   NC3 3866   2.135   2.474   5.639 -0.1589 -0.1347  0.0972
  277POPC   PO4 3867   2.147   2.071   5.677  0.0758  0.2295  0.1187
  277POPC   GL1 3868   2.385   1.868   5.841 -0.1995  0.2000  0.1824
  277POPC   GL2 3869   2.207   1.709   6.029  0.2490 -0.1336  0.0165
  277POPC   C1A 3870   2.499   2.018   6.299 -0.0017  0.2565  0.3691
  277POPC   D2A 3871   2.486   1.984   6.642  0.3311 -0.3006  0.1610
  277POPC   C3A 3872   2.043   2.141   6.846  0.0651 -0.0098  0.1176
  277POPC   C4A 3873   2.114   2.297   7.353 -0.0024 -0.0500  0.2296
  277POPC   C1B 3874   2.397   1.518   6.375 -0.1549 -0.0294  0.1756
  277POPC   C2B 3875   2.812   1.415   6.449  0.3491  0.0071 -0.3136
  277POPC   C3B 3876   3.105   1.716   6.474 -0.0487  0.1690  0.0038
  277POPC   C4B 3877   3.467   1.879   6.654  0.1017 -0.2170  0.3182
  278POPC   NC3 3878   6.109   9.075   4.949  0.2979  0.1334  0.3755
  278POPC   PO4 3879   5.687   8.964   4.887 -0.2810  0.1920  0.1652
  278POPC   GL1 3880   5.484   9.008   5.329  0.4202 -0.1736  0.0086
  278POPC   GL2 3881   5.803   9.150   5.476  0.2815 -0.0194  0.0922
  278POPC   C1A 3882   5.272   8.942   5.581  0.0766 -0.1955 -0.1660
  278POPC   D2A 3883   4.950   9.061   5.821 -0.0797  0.0789  0.0294
  278POPC   C3A 3884   4.992   9.225   6.213 -0.2687  0.0797 -0.1490
  278POPC   C4A 3885   5.183   9.128   6.645 -0.2137  0.1722  0.0178
  278POPC   C1B 3886   6.049   8.840   5.783 -0.2368 -0.0267  0.3604
  278POPC   C2B 3887   6.152   8.757   6.238  0.0434  0.3012 -0.1072
  278POPC   C3B 3888   5.913   8.788   6.424  0.2282  0.4022 -0.1826
  278POPC   C4B 3889   5.582   8.624   6.671  0.0371  0.1300  0.2832
  279POPC   NC3 3890   8.879   9.096   5.031  0.0222  0.5170 -0.2352
  279POPC   PO4 3891   9.425   9.073   5.177 -0.1680 -0.1198 -0.3922
  279POPC   GL1 3892   9.139   9.193   5.482  0.1541  0.0091 -0.1041
  279POPC   GL2 3893   9.265   9.573   5.556  0.0487  0.0285 -0.0705
  279POPC   C1A 3894   8.895   9.469   5.876 -0.1472  0.0016  0.1872
  279POPC   D2A 3895   8.709   9.402   6.279 -0.3600 -0.0222  0.0328
  279POPC   C3A 3896   8.810   9.581   6.668 -0.2316  0.1541  0.2431
  279POPC   C4A 3897   8.913   9.468   7.154 -0.0415 -0.2983  0.0206
  279POPC   C1B 3898   9.386   9.608   5.906 -0.1149  0.1756  0.1915
  279POPC   C2B 3899   9.233   9.469   6.294 -0.0503 -0.0566 -0.2063
  279POPC   C3B 3900   9.145   9.152   6.642  0.0139 -0.0367  0.0804
  279POPC   C4B 3901   9.214   9.124   6.970 -0.3995  0.4258 -0.3779
  280POPC   NC3 3902   6.842   8.065   4.044  0.3312 -0.0500  0.2618
  280POPC   PO4 3903   6.380   7.921   3.814  0.1606  0.0065  0.3257
  280POPC   GL1 3904   6.433   8.000   4.307 -0.1874 -0.2755 -0.0752
  280POPC   GL2 3905   6.234   8.160   4.471 -0.0072  0.0063 -0.2465
  280POPC   C1A 3906   6.570   7.870   4.681  0.0336  0.2264 -0.2649
  280POPC   D2A 3907   6.483   7.767   5.114  0.2139  0.3753 -0.0458
  280POPC   C3A 3908   6.419   8.007   5.432  0.2247 -0.0219 -0.1050
  280POPC   C4A 3909   6.290   8.500   5.519 -0.0986  0.0556 -0.0668
  280POPC   C1B 3910   6.055   7.869   4.813 -0.0198 -0.2878  0.0396
  280POPC   C2B 3911   6.009   7.768   5.228  0.2595  0.0341  0.1694
  280POPC   C3B 3912   5.625   7.584   5.443 -0.0485  0.0613 -0.1634
  280POPC   C4B 3913   5.540   7.441   5.893  0.0031  0.0242 -0.1343
  281POPC   NC3 3914   2.650   1.490   5.339 -0.3605  0.0674 -0.1479
  281POPC   PO4 3915   2.782   0.951   5.294  0.1119  0.2775  0.1307
  281POPC   GL1 3916   2.806   1.192   5.699  0.3832 -0.0476  0.1574
  281POPC   GL2 3917   2.611   1.318   5.846  0.0918  0.0577 -0.4104
  281POPC   C1A 3918   3.136   1.279   6.022 -0.0518 -0.1216  0.1090
  281POPC   D2A 3919   3.530   1.028   6.030 -0.1790  0.2888 -0.1959
  281POPC   C3A 3920   3.690   1.083   6.538 -0.0688  0.2019 -0.2376
  281POPC   C4A 3921   3.929   1.009   6.959  0.0621  0.1872 -0.0734
  281POPC   C1B 3922   2.824   1.656   5.978 -0.0718  0.3218  0.0898
  281POPC   C2B 3923   3.289   1.834   6.011  0.0050 -0.4636  0.1183
  281POPC   C3B 3924   3.650   2.004   5.811  0.3135  0.0251  0.1705
  281POPC   C4B 3925   3.972   1.723   5.748 -0.1587 -0.1267  0.0838
  282POPC   NC3 3926   6.490   1.835   4.396 -0.4082  0.1060  0.2095
  282POPC   PO4 3927   6.315   1.591   4.649 -0.2587 -0.2111 -0.0295
  282POPC   GL1 3928   6.314   1.922   4.860  0.3916  0.0871  0.4566
  282POPC   GL2 3929   5.979   1.838   4.930  0.0122  0.0892  0.2249
  282POPC   C1A 3930   6.214   2.195   5.108 -0.1139  0.0167 -0.0662
  282POPC   D2A 3931   6.163   2.491   5.563  0.0143 -0.1799  0.0466
  282POPC   C3A 3932   6.505   2.617   5.782 -0.2651  0.0043  0.1437
  282POPC   C4A 3933   6.809   2.373   5.821 -0.1176 -0.0905  0.3135
  282POPC   C1B 3934   5.965   1.893   5.367 -0.3403 -0.1591  0.0894
  282POPC   C2B 3935   6.079   2.083   5.737 -0.1661 -0.1156 -0.1480
  282POPC   C3B 3936   5.938   2.450   6.100 -0.1565  0.0028  0.1704
  282POPC   C4B 3937   6.108   2.276   6.463  0.2797  0.2822  0.0869
  283POPC   NC3 3938   1.194   4.316   5.532 -0.2174 -0.3421 -0.2118
  283POPC   PO4 3939   1.275   3.787   5.768 -0.1615  0.0057 -0.0888
  283POPC   GL1 3940   1.388   3.865   6.203 -0.3885  0.0434  0.2314
  283POPC   GL2 3941   1.580   3.524   6.154  0.1898  0.0220  0.0414
  283POPC   C1A 3942   1.589   4.233   6.299 -0.1139  0.0227  0.0807
  283POPC   D2A 3943   1.851   4.435   6.372  0.1739 -0.2363  0.0262
  283POPC   C3A 3944   1.889   4.658   6.741  0.0475 -0.0023  0.0042
  283POPC   C4A 3945   1.563   4.911   6.835  0.5037  0.0549  0.0431
  283POPC   C1B 3946   1.916   3.681   6.427 -0.2695  0.2036 -0.0039
  283POPC   C2B 3947   1.945   4.041   6.719 -0.2097  0.0732 -0.1507
  283POPC   C3B 3948   1.995   4.243   7.071 -0.1502 -0.0621 -0.1295
  283POPC   C4B 3949   2.120   4.404   7.440 -0.1444  0.1965 -0.2190
  284POPC   NC3 3950   4.465   5.645   3.721 -0.2242 -0.5413  0.4396
  284POPC   PO4 3951   4.502   5.216   3.818 -0.1014  0.0720  0.2073
  284POPC   GL1 3952   4.436   5.416   4.197 -0.1304 -0.2701  0.0893
  284POPC   GL2 3953   4.367   5.152   4.387  0.1141 -0.1147  0.4426
  284POPC   C1A 3954   4.467   5.559   4.619  0.1070 -0.1407 -0.1306
  284POPC   D2A 3955   4.515   5.783   5.048  0.1458 -0.2850 -0.0051
  284POPC   C3A 3956   4.510   6.336   5.095  0.1245  0.1889 -0.1413
  284POPC   C4A 3957   4.497   6.705   5.220  0.2447 -0.1320  0.0481
  284POPC   C1B 3958   4.721   5.086   4.687  0.0967 -0.2580  0.0919
  284POPC   C2B 3959   4.954   4.978   5.050 -0.4768  0.0593 -0.0490
  284POPC   C3B 3960   5.414   4.751   5.079  0.1417 -0.2281  0.1764
  284POPC   C4B 3961   5.725   4.862   5.306  0.1238  0.2223 -0.1438
  285POPC   NC3 3962   0.763   6.515   5.190  0.0494  0.3801 -0.0517
  285POPC   PO4 3963   1.223   6.470   5.079 -0.2066 -0.1758  0.1530
  285POPC   GL1 3964   1.205   6.688   5.493 -0.2594 -0.1572 -0.0450
  285POPC   GL2 3965   1.456   6.841   5.612  0.3220 -0.2754  0.4359
  285POPC   C1A 3966   1.175   6.942   5.931  0.4185 -0.2066  0.0175
  285POPC   D2A 3967   1.185   7.148   6.299  0.2671  0.1432 -0.2832
  285POPC   C3A 3968   1.471   7.197   6.609  0.1479 -0.1914 -0.2366
  285POPC   C4A 3969   1.514   6.981   7.110 -0.1035  0.2510  0.0239
  285POPC   C1B 3970   1.725   6.792   5.962 -0.1085 -0.0869 -0.0676
  285POPC   C2B 3971   1.962   6.991   6.271 -0.0746 -0.1208  0.0730
  285POPC   C3B 3972   1.969   7.000   6.731  0.0378  0.1798  0.0102
  285POPC   C4B 3973   2.384   6.905   6.960 -0.2043  0.1141  0.1071
  286POPC   NC3 3974   5.283   6.909   3.852 -0.1158  0.4097  0.0691
  286POPC   PO4 3975   5.094   7.218   4.049 -0.0141  0.1126 -0.0834
  286POPC   GL1 3976   4.992   7.117   4.480  0.0261 -0.1763 -0.1322
  286POPC   GL2 3977   4.913   7.386   4.667  0.1818  0.0426 -0.0418
  286POPC   C1A 3978   5.239   7.008   4.852 -0.0881 -0.1471 -0.1401
  286POPC   D2A 3979   5.550   7.184   5.038  0.2134  0.0968  0.0789
  286POPC   C3A 3980   5.465   7.029   5.493 -0.0932  0.3519  0.0457
  286POPC   C4A 3981   5.578   6.970   5.904  0.1167  0.1049 -0.0484
  286POPC   C1B 3982   5.344   7.487   4.615 -0.2134  0.0244  0.0574
  286POPC   C2B 3983   5.855   7.232   4.603 -0.0370  0.0731 -0.0569
  286POPC   C3B 3984   6.038   7.309   5.046  0.0695  0.2472  0.0931
  286POPC   C4B 3985   5.977   7.228   5.565  0.0890 -0.0003  0.0466
  287POPC   NC3 3986   4.926   5.485   4.055 -0.2844 -0.0556 -0.0442
  287POPC   PO4 3987   5.191   5.168   4.028  0.1431 -0.1883  0.1207
  287POPC   GL1 3988   5.643   5.134   4.237 -0.0969 -0.3545  0.0562
  287POPC   GL2 3989   5.803   4.996   4.101  0.1036  0.1230 -0.1912
  287POPC   C1A 3990   5.763   5.226   4.680 -0.3775 -0.0456 -0.3425
  287POPC   D2A 3991   5.584   5.242   5.104 -0.0091 -0.5188  0.0177
  287POPC   C3A 3992   5.214   5.633   5.212 -0.0248  0.1243  0.0225
  287POPC   C4A 3993   4.931   6.079   5.120 -0.4731  0.0726  0.0370
  287POPC   C1B 3994   5.853   4.597   4.331  0.1456 -0.1124 -0.1656
  287POPC   C2B 3995   5.809   4.314   4.605 -0.0381  0.1103 -0.0151
  287POPC   C3B 3996   5.806   3.803   4.844 -0.0295  0.0246  0.2838
  287POPC   C4B 3997   5.828   3.414   4.805 -0.0001  0.2370  0.1257
  288POPC   NC3 3998   4.555   7.238   4.228  0.0565 -0.1370  0.1568
  288POPC   PO4 3999   4.415   7.556   4.568 -0.0009 -0.1921 -0.0766
  288POPC   GL1 4000   4.306   7.345   5.027 -0.0540  0.0634 -0.0186
  288POPC   GL2 4001   4.082   7.446   5.263 -0.3683 -0.0890 -0.0021
  288POPC   C1A 4002   4.412   7.175   5.413 -0.1817 -0.1693  0.2799
  288POPC   D2A 4003   4.635   6.803   5.666  0.1904 -0.3242 -0.2457
  288POPC   C3A 4004   4.527   6.666   6.110 -0.1383 -0.1151 -0.2131
  288POPC   C4A 4005   4.664   6.343   6.339  0.2608  0.0502  0.0262
  288POPC   C1B 4006   4.225   7.837   5.566  0.0677 -0.3030 -0.0860
  288POPC   C2B 4007   4.397   7.843   5.946  0.0817 -0.1253  0.1139
  288POPC   C3B 4008   4.688   8.073   6.358  0.0941  0.2447  0.1180
  288POPC   C4B 4009   4.702   8.327   6.658 -0.2205  0.2322 -0.2419
  289POPC   NC3 4010   8.151   2.144   5.229 -0.0389 -0.0968  0.0607
  289POPC   PO4 4011   8.274   2.522   5.030  0.1025 -0.1857  0.0931
  289POPC   GL1 4012   8.120   2.601   5.449 -0.2300  0.5438  0.0332
  289POPC   GL2 4013   8.240   2.906   5.740  0.0217 -0.0857 -0.0497
  289POPC   C1A 4014   7.710   2.757   5.629  0.0307 -0.0730 -0.1449
  289POPC   D2A 4015   7.427   2.994   5.685  0.1704  0.0888  0.1227
  289POPC   C3A 4016   7.497   3.138   6.109  0.1507 -0.1243 -0.1251
  289POPC   C4A 4017   7.703   3.191   6.463  0.0382 -0.4026 -0.2403
  289POPC   C1B 4018   8.019   2.914   6.038  0.0329  0.2803  0.1926
  289POPC   C2B 4019   7.974   2.738   6.429 -0.0002 -0.0184  0.0202
  289POPC   C3B 4020   7.908   2.677   6.906  0.0241  0.0587 -0.0480
  289POPC   C4B 4021   8.001   2.577   7.322  0.2716  0.0526  0.2063
  290POPC   NC3 4022   9.991   3.329   5.242  0.0792  0.1397  0.1357
  290POPC   PO4 4023  10.004   3.643   5.462 -0.1226 -0.1058  0.1268
  290POPC   GL1 4024   9.753   3.625   5.838  0.2029 -0.1621  0.1888
  290POPC   GL2 4025   9.735   3.984   6.072 -0.1567 -0.3266 -0.0150
  290POPC   C1A 4026   9.983   3.684   6.306  0.0701  0.1632  0.2705
  290POPC   D2A 4027  10.172   3.837   6.610 -0.2308  0.1399  0.4416
  290POPC   C3A 4028  10.087   4.038   7.121 -0.0749 -0.2542  0.0706
  290POPC   C4A 4029   9.913   4.445   7.410 -0.0209 -0.1482 -0.1196
  290POPC   C1B 4030   9.449   3.681   6.287 -0.3709 -0.1015  0.0258
  290POPC   C2B 4031   9.217   3.480   6.541  0.4930 -0.0593  0.2143
  290POPC   C3B 4032   8.950   3.680   6.895  0.1988 -0.2607  0.3640
  290POPC   C4B 4033   8.763   3.483   7.256  0.0227 -0.0751 -0.0767
  291POPC   NC3 4034   1.544   0.046   5.263  0.0444  0.1502 -0.0366
  291POPC   PO4 4035   1.599   0.478   5.461  0.1871 -0.2041  0.2449
  291POPC   GL1 4036   1.739   0.486   5.887  0.0082  0.2535  0.0063
  291POPC   GL2 4037   1.904   0.724   6.048  0.2890 -0.1799 -0.0861
  291POPC   C1A 4038   1.952   0.259   6.156  0.2333 -0.0387  0.1733
  291POPC   D2A 4039   2.039   0.006   6.484  0.2199 -0.0609  0.0510
  291POPC   C3A 4040   2.290   0.160   6.833  0.3005  0.2576 -0.1169
  291POPC   C4A 4041   2.641   0.350   6.951 -0.3490  0.2698 -0.2005
  291POPC   C1B 4042   1.589   0.567   6.314  0.1552  0.0897 -0.1172
  291POPC   C2B 4043   1.357   0.676   6.814 -0.0828  0.1133 -0.0372
  291POPC   C3B 4044   1.188   0.429   7.218 -0.1567  0.0081 -0.3857
  291POPC   C4B 4045   1.385   0.027   7.353  0.2336 -0.0218  0.0887
  292POPC   NC3 4046   5.048   1.121   4.416  0.1696  0.1370 -0.0305
  292POPC   PO4 4047   5.547   1.000   4.556 -0.0596  0.0657  0.2220
  292POPC   GL1 4048   5.508   1.013   5.045 -0.2069 -0.0968 -0.4554
  292POPC   GL2 4049   5.538   1.384   5.323  0.1149 -0.1677 -0.1492
  292POPC   C1A 4050   5.356   0.842   5.440 -0.0245  0.1738 -0.1168
  292POPC   D2A 4051   5.391   0.963   5.763  0.2992  0.0189  0.0320
  292POPC   C3A 4052   5.773   1.019   5.786 -0.3408 -0.0602 -0.0357
  292POPC   C4A 4053   6.214   1.222   5.994  0.3031  0.1089 -0.1510
  292POPC   C1B 4054   5.586   1.547   5.809  0.2439 -0.3864 -0.2479
  292POPC   C2B 4055   5.247   1.817   6.066  0.1351  0.0809  0.0227
  292POPC   C3B 4056   4.742   1.806   6.237 -0.1895 -0.0725 -0.2564
  292POPC   C4B 4057   4.434   1.658   5.989 -0.1966 -0.0685 -0.0079
  293POPC   NC3 4058   1.966   8.051   5.284 -0.0161 -0.1647 -0.0588
  293POPC   PO4 4059   2.229   8.439   5.225  0.1911  0.1081  0.1099
  293POPC   GL1 4060   2.001   8.377   5.687 -0.3692 -0.0529  0.0953
  293POPC   GL2 4061   2.254   8.131   5.709 -0.0027 -0.2986 -0.0664
  293POPC   C1A 4062   1.692   8.360   5.983  0.3103  0.1965 -0.4166
  293POPC   D2A 4063   1.646   8.173   6.398 -0.0058 -0.0367  0.0649
  293POPC   C3A 4064   1.592   7.683   6.474 -0.2301 -0.1168  0.0265
  293POPC   C4A 4065   1.772   7.416   6.142 -0.1833 -0.4325 -0.1622
  293POPC   C1B 4066   2.503   7.964   6.034  0.2207  0.0091 -0.3698
  293POPC   C2B 4067   2.518   7.921   6.485 -0.1903  0.0223 -0.1054
  293POPC   C3B 4068   2.580   7.976   6.981 -0.0863 -0.0488 -0.2336
  293POPC   C4B 4069   2.335   8.145   7.335 -0.0568 -0.1056 -0.0020
  294POPC   NC3 4070   0.108   0.776   5.990  0.0495  0.2327  0.1890
  294POPC   PO4 4071   0.180   0.278   5.860  0.2654 -0.0190 -0.0833
  294POPC   GL1 4072   0.285  -0.033   6.147  0.2489  0.1237  0.1036
  294POPC   GL2 4073   0.048  -0.276   6.068 -0.5092 -0.0735 -0.0106
  294POPC   C1A 4074   0.318  -0.124   6.534  0.0101  0.0275  0.2600
  294POPC   D2A 4075   0.288  -0.064   6.953  0.1509 -0.1079 -0.0703
  294POPC   C3A 4076  -0.097  -0.093   7.170  0.4607  0.0708  0.1229
  294POPC   C4A 4077  -0.457   0.028   7.439 -0.2069 -0.1053 -0.0381
  294POPC   C1B 4078  -0.168  -0.346   6.438 -0.5463 -0.3301 -0.0974
  294POPC   C2B 4079  -0.030  -0.484   6.887 -0.2229 -0.1175  0.1212
  294POPC   C3B 4080  -0.236  -0.784   7.219  0.0479  0.3823  0.1850
  294POPC   C4B 4081  -0.411  -1.098   7.371  0.0406  0.1162  0.0227
  295POPC   NC3 4082   0.624   7.189   4.994 -0.2413 -0.3803  0.0826
  295POPC   PO4 4083   0.837   6.978   5.205 -0.0022  0.2922 -0.1322
  295POPC   GL1 4084   0.695   6.778   5.651 -0.0246  0.2844 -0.0308
  295POPC   GL2 4085   0.841   6.570   5.808  0.1334  0.3733  0.3208
  295POPC   C1A 4086   0.652   7.015   6.044 -0.0514  0.0083  0.1414
  295POPC   D2A 4087   0.739   7.466   6.142 -0.2721  0.2570  0.2232
  295POPC   C3A 4088   0.795   7.481   6.522  0.0191  0.0067 -0.0156
  295POPC   C4A 4089   1.109   7.506   6.648  0.0499 -0.1326  0.0681
  295POPC   C1B 4090   0.861   6.536   6.119  0.0502 -0.1402  0.0967
  295POPC   C2B 4091   0.748   6.406   6.406 -0.1515 -0.0585  0.1163
  295POPC   C3B 4092   0.365   6.371   6.709  0.1341 -0.0846  0.1173
  295POPC   C4B 4093   0.072   6.339   6.925 -0.0451 -0.0311  0.2115
  296POPC   NC3 4094   6.466   7.484   3.672  0.1614 -0.0212 -0.1314
  296POPC   PO4 4095   6.253   7.163   3.971 -0.1705 -0.0245 -0.1487
  296POPC   GL1 4096   6.228   7.013   4.360  0.2907 -0.0492 -0.0483
  296POPC   GL2 4097   6.579   6.989   4.443  0.4200  0.1587  0.1742
  296POPC   C1A 4098   6.336   6.867   4.835  0.1869  0.2038 -0.1399
  296POPC   D2A 4099   6.000   6.784   5.073  0.1488 -0.0963 -0.0595
  296POPC   C3A 4100   5.927   6.690   5.526  0.0628  0.0566  0.2499
  296POPC   C4A 4101   5.881   6.510   5.856 -0.0249  0.0982 -0.2131
  296POPC   C1B 4102   6.945   7.186   4.409 -0.0477 -0.1524  0.1013
  296POPC   C2B 4103   7.268   7.281   4.701 -0.2418  0.1133  0.1096
  296POPC   C3B 4104   7.360   7.219   5.196  0.4348 -0.0078  0.0816
  296POPC   C4B 4105   7.042   7.284   5.467  0.0855 -0.1657 -0.2089
  297POPC   NC3 4106   5.384   5.133   3.610 -0.1844 -0.0415  0.0434
  297POPC   PO4 4107   5.730   5.396   3.763  0.0172 -0.1422 -0.1040
  297POPC   GL1 4108   5.967   5.676   4.088  0.0870  0.3410 -0.0491
  297POPC   GL2 4109   6.131   5.406   4.185 -0.2153  0.4883  0.0900
  297POPC   C1A 4110   6.035   5.706   4.558 -0.2028  0.1199  0.1927
  297POPC   D2A 4111   6.344   5.828   4.899  0.0987 -0.1861 -0.2042
  297POPC   C3A 4112   6.196   5.708   5.356 -0.0363  0.3088  0.2345
  297POPC   C4A 4113   6.404   5.420   5.650 -0.2941 -0.3019 -0.1184
  297POPC   C1B 4114   6.143   5.026   4.496 -0.0517 -0.2520  0.2109
  297POPC   C2B 4115   5.952   4.754   4.877 -0.1751 -0.1761  0.0678
  297POPC   C3B 4116   5.784   4.379   5.125  0.0373 -0.0960 -0.0737
  297POPC   C4B 4117   5.547   4.436   5.463  0.0181  0.2811  0.3340
  298POPC   NC3 4118   5.288   9.285   4.963 -0.0583  0.1272  0.0725
  298POPC   PO4 4119   5.683   9.503   4.982 -0.2208  0.2945  0.1417
  298POPC   GL1 4120   5.460   9.570   5.371 -0.2326 -0.1550  0.1281
  298POPC   GL2 4121   5.508   9.756   5.453 -0.2138 -0.0895 -0.1449
  298POPC   C1A 4122   5.377   9.369   5.738 -0.3538 -0.2721  0.1862
  298POPC   D2A 4123   5.496   9.077   6.068 -0.1306  0.2761 -0.0213
  298POPC   C3A 4124   5.220   8.733   6.056 -0.1944  0.1936  0.1154
  298POPC   C4A 4125   4.860   8.547   6.031  0.0510 -0.1212 -0.0160
  298POPC   C1B 4126   5.422   9.856   5.906  0.3599  0.0433 -0.0556
  298POPC   C2B 4127   5.627   9.682   6.258  0.2007 -0.1050 -0.1767
  298POPC   C3B 4128   5.889   9.617   6.607 -0.0881  0.1828 -0.2019
  298POPC   C4B 4129   6.154   9.603   6.935 -0.1700 -0.2520  0.0551
  299POPC   NC3 4130   3.368   4.912   4.985  0.1124  0.0935  0.0219
  299POPC   PO4 4131   3.596   4.546   4.876 -0.1357  0.0316  0.0320
  299POPC   GL1 4132   3.927   4.417   5.190 -0.0128 -0.0622 -0.1804
  299POPC   GL2 4133   3.842   4.380   5.565 -0.1706  0.3297 -0.2623
  299POPC   C1A 4134   4.295   4.525   5.565  0.1472 -0.1798  0.2140
  299POPC   D2A 4135   4.387   4.503   5.990 -0.0130 -0.4177  0.0482
  299POPC   C3A 4136   4.060   4.752   6.326 -0.1627  0.0264  0.0799
  299POPC   C4A 4137   3.773   4.892   6.663 -0.0115 -0.0682 -0.3833
  299POPC   C1B 4138   3.913   4.315   6.066  0.1649 -0.0723  0.0081
  299POPC   C2B 4139   4.109   3.985   6.214  0.0007 -0.2215  0.0975
  299POPC   C3B 4140   4.417   3.855   6.481 -0.1174  0.1733  0.0716
  299POPC   C4B 4141   4.840   3.644   6.394 -0.1333  0.2108  0.5314
  300POPC   NC3 4142   0.032   8.859   5.462 -0.0846 -0.0785 -0.0335
  300POPC   PO4 4143  -0.212   8.551   5.385  0.0127 -0.0313  0.1874
  300POPC   GL1 4144  -0.615   8.863   5.553 -0.1753  0.0484  0.1222
  300POPC   GL2 4145  -0.646   9.198   5.640 -0.0648 -0.2445 -0.0205
  300POPC   C1A 4146  -0.712   8.637   6.000  0.4120  0.4366  0.1125
  300POPC   D2A 4147  -0.915   8.787   6.291  0.4138 -0.0727  0.0928
  300POPC   C3A 4148  -0.851   8.644   6.717 -0.1704  0.1204 -0.0569
  300POPC   C4A 4149  -0.859   8.686   7.182 -0.1817 -0.3401 -0.1197
  300POPC   C1B 4150  -0.973   9.096   5.927  0.1632 -0.1461  0.0610
  300POPC   C2B 4151  -1.301   9.044   6.129  0.4473  0.0724  0.1413
  300POPC   C3B 4152  -1.561   8.827   6.430  0.2436  0.2561  0.0455
  300POPC   C4B 4153  -1.825   8.588   6.671  0.2721  0.1909  0.2660
  301POPC   NC3 4154   2.249   7.645   4.910 -0.2378 -0.0288  0.1977
  301POPC   PO4 4155   2.237   7.571   5.326  0.0380  0.2940 -0.1340
  301POPC   GL1 4156   2.388   7.437   5.591 -0.0203  0.1945  0.0375
  301POPC   GL2 4157   2.189   7.114   5.734 -0.1790  0.0781 -0.1333
  301POPC   C1A 4158   2.742   7.408   5.957 -0.2700  0.2713  0.1152
  301POPC   D2A 4159   2.928   7.165   6.246  0.0900 -0.2076 -0.1598
  301POPC   C3A 4160   3.058   7.379   6.568  0.2787 -0.0655  0.1176
  301POPC   C4A 4161   3.488   7.444   6.650  0.0933 -0.2942  0.0335
  301POPC   C1B 4162   2.296   7.476   6.126 -0.5265  0.1060  0.1514
  301POPC   C2B 4163   2.104   7.550   6.498  0.2555 -0.0286  0.1050
  301POPC   C3B 4164   1.989   7.869   6.829  0.2993 -0.1581 -0.3641
  301POPC   C4B 4165   1.883   8.139   7.115 -0.1743 -0.1663 -0.0616
  302POPC   NC3 4166   6.014   2.233   3.658  0.1951 -0.0196 -0.0473
  302POPC   PO4 4167   6.318   2.097   3.931  0.0697 -0.1790 -0.0403
  302POPC   GL1 4168   6.354   2.347   4.458  0.3457 -0.0807  0.0743
  302POPC   GL2 4169   6.070   2.213   4.573 -0.0335  0.1386  0.0648
  302POPC   C1A 4170   6.424   2.673   4.809 -0.1335 -0.1709 -0.2147
  302POPC   D2A 4171   6.544   2.630   5.214  0.0317  0.0461  0.0715
  302POPC   C3A 4172   6.599   2.246   5.420 -0.1665  0.0814 -0.0115
  302POPC   C4A 4173   6.546   1.891   5.688 -0.1118 -0.1361 -0.0489
  302POPC   C1B 4174   6.017   2.476   4.760 -0.0799 -0.2408  0.0788
  302POPC   C2B 4175   6.036   2.720   5.153 -0.2722  0.3942  0.0382
  302POPC   C3B 4176   6.244   2.991   5.468 -0.0487 -0.1046 -0.0191
  302POPC   C4B 4177   6.464   3.092   5.888  0.0534 -0.1659 -0.0437
  303POPC   NC3 4178   7.519  10.270   4.950  0.2418  0.3224 -0.4213
  303POPC   PO4 4179   7.153  10.495   5.150  0.0430 -0.2410 -0.0462
  303POPC   GL1 4180   6.837  10.239   5.350 -0.2738  0.2641 -0.0911
  303POPC   GL2 4181   6.665  10.048   5.115  0.0684 -0.1305 -0.1238
  303POPC   C1A 4182   6.793  10.179   5.773 -0.2505 -0.2096  0.1077
  303POPC   D2A 4183   6.868   9.975   6.189  0.0113 -0.0416 -0.2491
  303POPC   C3A 4184   6.716  10.037   6.563  0.0557  0.0954  0.1034
  303POPC   C4A 4185   6.531  10.037   6.978 -0.0367 -0.0145  0.0282
  303POPC   C1B 4186   6.597   9.662   5.369  0.1230  0.2720 -0.2660
  303POPC   C2B 4187   6.348   9.356   5.685 -0.0542 -0.1306 -0.0369
  303POPC   C3B 4188   6.478   9.115   6.099  0.1689 -0.1932 -0.0957
  303POPC   C4B 4189   6.548   8.645   6.002  0.0290  0.2061  0.0043
  304POPC   NC3 4190   2.334   4.067   5.117  0.0201 -0.1409 -0.2022
  304POPC   PO4 4191   2.505   3.728   5.060 -0.5077 -0.0313 -0.1618
  304POPC   GL1 4192   2.720   3.837   5.505 -0.0050  0.1321  0.0057
  304POPC   GL2 4193   2.649   3.663   5.859 -0.1772  0.2123 -0.0846
  304POPC   C1A 4194   2.639   4.189   5.921 -0.2379  0.1132 -0.0958
  304POPC   D2A 4195   2.815   4.306   6.268 -0.3630  0.0858  0.2788
  304POPC   C3A 4196   3.149   4.708   6.365  0.0595 -0.1576  0.0689
  304POPC   C4A 4197   3.378   5.124   6.403  0.2995 -0.1008  0.1154
  304POPC   C1B 4198   3.032   3.656   6.193  0.3590  0.1380 -0.1862
  304POPC   C2B 4199   2.899   3.524   6.697  0.1319  0.0054  0.1170
  304POPC   C3B 4200   2.854   3.645   7.129  0.2081 -0.0304  0.0818
  304POPC   C4B 4201   2.830   3.583   7.561  0.1200  0.3737 -0.0924
  305POPC   NC3 4202  10.020   1.458   6.091  0.3309 -0.0673  0.0696
  305POPC   PO4 4203  10.391   1.311   6.246 -0.2282  0.1196 -0.1363
  305POPC   GL1 4204  10.737   1.338   6.468  0.1777  0.2965 -0.3074
  305POPC   GL2 4205  10.712   1.729   6.695 -0.1407 -0.2037 -0.0590
  305POPC   C1A 4206  11.092   1.429   6.846  0.2359 -0.0460  0.2634
  305POPC   D2A 4207  11.263   1.328   7.243  0.0245  0.0682 -0.2087
  305POPC   C3A 4208  11.093   1.245   7.667  0.2769  0.3192  0.0061
  305POPC   C4A 4209  11.235   1.417   8.109 -0.0005 -0.1368 -0.0633
  305POPC   C1B 4210  10.364   1.491   6.974 -0.2625 -0.2112 -0.1312
  305POPC   C2B 4211  10.095   1.644   7.372 -0.2087 -0.0324  0.0755
  305POPC   C3B 4212   9.712   1.652   7.462  0.0466  0.1911 -0.3088
  305POPC   C4B 4213   9.301   1.669   7.371  0.0246  0.2535 -0.4215
  306POPC   NC3 4214   7.780   9.464   4.849  0.0359 -0.0779  0.1285
  306POPC   PO4 4215   7.346   9.722   4.821  0.1401  0.1167 -0.1401
  306POPC   GL1 4216   7.497   9.853   5.229 -0.1537  0.0045 -0.2757
  306POPC   GL2 4217   7.375  10.015   5.387  0.2753  0.1533  0.1448
  306POPC   C1A 4218   7.504   9.591   5.598 -0.0546  0.1865 -0.0439
  306POPC   D2A 4219   7.479   9.557   6.067  0.1181  0.0144 -0.2103
  306POPC   C3A 4220   7.347   9.219   6.297 -0.0961  0.1590 -0.3945
  306POPC   C4A 4221   7.465   8.915   6.642  0.1275  0.1044 -0.0544
  306POPC   C1B 4222   7.531  10.067   5.801  0.1160  0.1869 -0.0201
  306POPC   C2B 4223   7.578  10.048   6.252  0.1171  0.2916 -0.0489
  306POPC   C3B 4224   7.437   9.967   6.645 -0.0404 -0.1086  0.0952
  306POPC   C4B 4225   7.600  10.041   7.145 -0.0602 -0.0582 -0.0183
  307POPC   NC3 4226   3.134   7.718   4.772 -0.0287  0.1289 -0.1156
  307POPC   PO4 4227   3.455   7.852   4.841 -0.1077 -0.1194 -0.0392
  307POPC   GL1 4228   3.292   7.755   5.274  0.1491 -0.1351 -0.0967
  307POPC   GL2 4229   3.368   7.973   5.442  0.0288  0.2135 -0.0614
  307POPC   C1A 4230   3.041   7.647   5.632  0.1843 -0.2063  0.4422
  307POPC   D2A 4231   3.019   7.809   6.082 -0.1901 -0.0403 -0.0641
  307POPC   C3A 4232   2.832   8.318   6.096  0.2332  0.1270  0.1546
  307POPC   C4A 4233   2.675   8.598   6.309 -0.0634 -0.2263 -0.0731
  307POPC   C1B 4234   3.753   7.958   5.735  0.1015 -0.0325  0.0165
  307POPC   C2B 4235   3.936   7.999   6.171  0.1692  0.0273  0.0745
  307POPC   C3B 4236   3.859   7.942   6.551 -0.2409 -0.0124 -0.1721
  307POPC   C4B 4237   4.011   7.555   6.732  0.1334 -0.1913 -0.0839
  308POPC   NC3 4238   1.728   6.335   4.890  0.0254  0.0922 -0.1570
  308POPC   PO4 4239   2.146   6.204   5.196  0.1992 -0.0447 -0.0876
  308POPC   GL1 4240   2.142   6.347   5.558  0.0031 -0.2746  0.3609
  308POPC   GL2 4241   1.857   6.298   5.838 -0.0095  0.0357  0.3878
  308POPC   C1A 4242   2.263   6.626   5.882  0.2017  0.0239  0.0491
  308POPC   D2A 4243   2.450   6.481   6.206  0.1828 -0.2534 -0.1479
  308POPC   C3A 4244   2.682   6.158   6.186  0.0901  0.0111  0.0860
  308POPC   C4A 4245   3.109   6.165   6.124 -0.0868  0.0381  0.1590
  308POPC   C1B 4246   1.933   6.425   6.214  0.2151  0.0418  0.1748
  308POPC   C2B 4247   2.169   6.529   6.596 -0.1549  0.0453 -0.2115
  308POPC   C3B 4248   2.538   6.492   6.713 -0.0681 -0.0504  0.0170
  308POPC   C4B 4249   2.591   6.371   7.065  0.0370 -0.2654 -0.1297
  309POPC   NC3 4250   8.575   1.344   5.149 -0.2734 -0.2978 -0.0676
  309POPC   PO4 4251   8.805   1.009   5.442  0.0298  0.1939  0.1728
  309POPC   GL1 4252   8.523   1.017   5.703  0.1436  0.1533  0.1741
  309POPC   GL2 4253   8.159   1.052   5.795 -0.0635 -0.0962  0.2219
  309POPC   C1A 4254   8.478   0.878   6.102 -0.1330  0.2480 -0.1142
  309POPC   D2A 4255   8.474   0.926   6.566  0.3660  0.0026 -0.0199
  309POPC   C3A 4256   8.562   1.320   6.895 -0.0105  0.1743 -0.0857
  309POPC   C4A 4257   8.658   1.473   7.290 -0.2700 -0.1997  0.1173
  309POPC   C1B 4258   8.021   1.284   6.056 -0.0287  0.1943  0.0525
  309POPC   C2B 4259   8.015   1.337   6.506  0.2302  0.0495 -0.0915
  309POPC   C3B 4260   8.080   1.361   6.995  0.0810  0.1796  0.1065
  309POPC   C4B 4261   8.139   1.642   7.274 -0.1347 -0.0963 -0.4787
  310POPC   NC3 4262   1.809   8.811   5.429 -0.1018  0.0269 -0.1848
  310POPC   PO4 4263   1.776   9.318   5.620  0.0003  0.2566  0.1327
  310POPC   GL1 4264   1.853   9.285   6.030 -0.0165 -0.3489  0.0203
  310POPC   GL2 4265   1.886   9.629   6.048  0.1775 -0.0875 -0.0774
  310POPC   C1A 4266   2.149   9.273   6.326 -0.2107 -0.1508 -0.1312
  310POPC   D2A 4267   2.355   9.459   6.637 -0.0568  0.0624 -0.1116
  310POPC   C3A 4268   2.590   9.329   6.954  0.1192  0.0962  0.0034
  310POPC   C4A 4269   2.843   9.444   7.183  0.0455  0.1840  0.0187
  310POPC   C1B 4270   1.703  10.026   6.147  0.0740 -0.3121  0.0854
  310POPC   C2B 4271   1.505  10.399   6.431 -0.1135 -0.1866 -0.2834
  310POPC   C3B 4272   1.175  10.460   6.706  0.2308  0.2283 -0.0327
  310POPC   C4B 4273   0.768  10.733   6.846  0.0452  0.2224 -0.2515
  311POPC   NC3 4274   9.865   2.676   6.035 -0.2363 -0.2636  0.0426
  311POPC   PO4 4275  10.204   2.461   5.782 -0.2363  0.1228 -0.1712
  311POPC   GL1 4276  10.284   2.547   6.283  0.3423 -0.0664  0.0974
  311POPC   GL2 4277  10.516   2.416   6.357  0.0632 -0.3394  0.2313
  311POPC   C1A 4278  10.147   2.575   6.759 -0.2000  0.1583  0.0402
  311POPC   D2A 4279   9.888   2.537   7.071  0.0347 -0.2007  0.2000
  311POPC   C3A 4280   9.978   2.141   7.331 -0.2889 -0.2082  0.1298
  311POPC   C4A 4281  10.005   2.068   7.742  0.1740 -0.0413  0.2666
  311POPC   C1B 4282  10.396   2.155   6.694 -0.1357 -0.0545  0.0631
  311POPC   C2B 4283  10.499   1.998   7.079  0.1531  0.2278 -0.0672
  311POPC   C3B 4284  10.615   1.804   7.401 -0.2024 -0.0745  0.0452
  311POPC   C4B 4285  10.803   1.743   7.829  0.1580 -0.3500 -0.1736
  312POPC   NC3 4286   7.980   8.153   4.544 -0.3676 -0.1765  0.3710
  312POPC   PO4 4287   8.506   8.211   4.661  0.0986 -0.0077 -0.2686
  312POPC   GL1 4288   8.609   8.338   5.158 -0.2910 -0.0397  0.1677
  312POPC   GL2 4289   8.886   8.404   5.353 -0.0365  0.2708 -0.0212
  312POPC   C1A 4290   8.472   8.430   5.599 -0.1504 -0.4059  0.0447
  312POPC   D2A 4291   8.384   8.234   5.973 -0.3482  0.1245  0.1075
  312POPC   C3A 4292   8.123   8.425   6.295 -0.1647  0.0080  0.0513
  312POPC   C4A 4293   7.869   8.761   6.359  0.2851 -0.1629 -0.0115
  312POPC   C1B 4294   8.893   8.126   5.728 -0.0575 -0.0111  0.1389
  312POPC   C2B 4295   8.806   7.822   6.054 -0.0043 -0.1234 -0.0823
  312POPC   C3B 4296   8.759   7.481   6.378 -0.1746  0.3507 -0.1922
  312POPC   C4B 4297   8.618   7.133   6.474 -0.1704 -0.2276 -0.1754
  313POPC   NC3 4298   8.548   3.857   4.387  0.1507 -0.4678 -0.1135
  313POPC   PO4 4299   8.638   3.638   4.641 -0.0438  0.2025 -0.1244
  313POPC   GL1 4300   8.267   3.716   4.994  0.3521 -0.0264  0.1950
  313POPC   GL2 4301   8.170   3.398   5.002  0.0841  0.1118 -0.0654
  313POPC   C1A 4302   7.912   3.939   5.215  0.1618  0.0145  0.1167
  313POPC   D2A 4303   7.731   4.202   5.572  0.3094 -0.0735  0.3043
  313POPC   C3A 4304   7.408   4.056   5.838 -0.1783 -0.0891 -0.1279
  313POPC   C4A 4305   7.086   4.114   6.093 -0.1050  0.1537  0.1376
  313POPC   C1B 4306   7.929   3.443   5.360 -0.2104 -0.1043  0.2650
  313POPC   C2B 4307   7.950   3.310   5.738 -0.0993 -0.1232 -0.0539
  313POPC   C3B 4308   7.882   3.574   6.093 -0.2648  0.0853  0.1074
  313POPC   C4B 4309   7.771   4.046   6.199 -0.0448  0.2571 -0.1324
  314POPC   NC3 4310   7.957   0.215   4.909 -0.1049 -0.0367  0.1062
  314POPC   PO4 4311   7.910   0.334   5.248 -0.0205 -0.1088 -0.2663
  314POPC   GL1 4312   7.557   0.408   5.496 -0.1834 -0.0208  0.1539
  314POPC   GL2 4313   7.399   0.192   5.608 -0.2591 -0.0065  0.2434
  314POPC   C1A 4314   7.298   0.661   5.812  0.0353  0.0693  0.1360
  314POPC   D2A 4315   7.101   0.563   6.238 -0.1609 -0.0160  0.0050
  314POPC   C3A 4316   6.902   0.192   6.211 -0.1723  0.0610 -0.0930
  314POPC   C4A 4317   6.547   0.081   6.221 -0.3664  0.0419 -0.0283
  314POPC   C1B 4318   7.429   0.185   6.034  0.1051 -0.1568  0.0368
  314POPC   C2B 4319   7.376   0.159   6.504  0.0900  0.0944 -0.1641
  314POPC   C3B 4320   7.245   0.030   6.874 -0.0826  0.0183 -0.1045
  314POPC   C4B 4321   7.255   0.053   7.361  0.3405 -0.0882  0.0378
  315POPC   NC3 4322   9.880   0.467   5.868  0.1386 -0.0609  0.0282
  315POPC   PO4 4323  10.069   0.062   5.755  0.0660 -0.0560 -0.0606
  315POPC   GL1 4324  10.111   0.096   6.214 -0.1734 -0.2009 -0.0812
  315POPC   GL2 4325  10.101   0.470   6.256  0.0171  0.0025  0.1485
  315POPC   C1A 4326  10.236   0.119   6.678  0.4843 -0.3084  0.1007
  315POPC   D2A 4327  10.015   0.289   6.982  0.1645  0.0981  0.0083
  315POPC   C3A 4328   9.891   0.590   7.210 -0.1652 -0.0566 -0.2663
  315POPC   C4A 4329   9.778   0.759   7.531  0.0519 -0.2571  0.0681
  315POPC   C1B 4330  10.107   0.640   6.648 -0.0003 -0.0041  0.1191
  315POPC   C2B 4331  10.162   0.960   6.941 -0.3323  0.0020  0.0997
  315POPC   C3B 4332  10.098   1.105   7.289 -0.1552 -0.0954 -0.2596
  315POPC   C4B 4333   9.918   1.234   7.757 -0.0018 -0.1318 -0.0323
  316POPC   NC3 4334   9.073   1.621   5.835  0.1165 -0.1595  0.0465
  316POPC   PO4 4335   9.464   1.369   5.885  0.3546 -0.0450  0.0196
  316POPC   GL1 4336   9.460   1.324   6.379 -0.1786  0.0790  0.2063
  316POPC   GL2 4337   9.802   1.202   6.465  0.0967 -0.1568  0.1352
  316POPC   C1A 4338   9.446   1.229   6.772 -0.0596  0.0391 -0.1806
  316POPC   D2A 4339   9.146   1.192   7.115  0.0488 -0.0320  0.0025
  316POPC   C3A 4340   8.757   0.944   7.222 -0.0159 -0.1368 -0.0213
  316POPC   C4A 4341   8.336   0.776   7.065  0.0920 -0.2697  0.1601
  316POPC   C1B 4342   9.627   0.808   6.509 -0.1485 -0.0439  0.1955
  316POPC   C2B 4343   9.490   0.746   6.975  0.0422 -0.0773 -0.3721
  316POPC   C3B 4344   9.061   0.506   7.149 -0.2197 -0.2415  0.2222
  316POPC   C4B 4345   8.578   0.497   7.355  0.2056 -0.0826  0.5605
  317POPC   NC3 4346   7.963   9.043   4.592  0.0913 -0.1340  0.0952
  317POPC   PO4 4347   8.227   9.091   4.893 -0.1881 -0.0526 -0.5378
  317POPC   GL1 4348   8.198   9.233   5.280 -0.1258 -0.0575  0.0469
  317POPC   GL2 4349   7.890   9.193   5.415 -0.1959  0.1046 -0.1984
  317POPC   C1A 4350   8.047   9.675   5.526 -0.1257 -0.0077 -0.1664
  317POPC   D2A 4351   7.907   9.773   5.949 -0.0868  0.0023 -0.0702
  317POPC   C3A 4352   7.985   9.709   6.385 -0.0002 -0.0826 -0.2073
  317POPC   C4A 4353   7.925   9.793   6.792 -0.0661 -0.0467 -0.1816
  317POPC   C1B 4354   7.962   9.272   5.912  0.0974  0.2412 -0.2700
  317POPC   C2B 4355   7.847   9.251   6.280 -0.1938  0.3774 -0.0537
  317POPC   C3B 4356   7.838   9.271   6.798 -0.0145 -0.2109  0.3398
  317POPC   C4B 4357   7.637   9.531   7.096 -0.0729  0.2724 -0.1271
  318POPC   NC3 4358   1.828   8.847   9.839 -0.2205  0.3901 -0.5169
  318POPC   PO4 4359   2.196   8.792   9.543  0.2135  0.0791 -0.1025
  318POPC   GL1 4360   2.126   8.919   9.186 -0.0342 -0.1624 -0.0468
  318POPC   GL2 4361   2.041   8.559   9.014  0.3799 -0.1920 -0.0455
  318POPC   C1A 4362   2.223   8.975   8.785 -0.5842 -0.0270  0.0162
  318POPC   D2A 4363   2.034   8.687   8.491  0.0655 -0.4138 -0.2314
  318POPC   C3A 4364   1.953   8.962   8.084  0.0386  0.0744 -0.1858
  318POPC   C4A 4365   1.972   9.079   7.743 -0.0146 -0.2001  0.0094
  318POPC   C1B 4366   1.675   8.344   8.685 -0.2183  0.2656  0.1554
  318POPC   C2B 4367   1.739   8.364   8.216 -0.0182  0.0050 -0.0224
  318POPC   C3B 4368   1.868   8.526   7.952  0.1065 -0.1246 -0.1369
  318POPC   C4B 4369   1.917   8.664   7.513 -0.2145 -0.0643 -0.0507
  319W        W 4370   9.977   6.338   0.564  0.1270  0.0411 -0.0575
  320W        W 4371   3.972   1.960  12.327 -0.1625 -0.0241  0.3552
  321W        W 4372   6.414   5.666  12.467  0.0913  0.2846 -0.0874
  322W        W 4373   1.147   1.634  13.030 -0.0388  0.0832 -0.0679
  323W        W 4374   5.999   7.898   9.619  0.3447 -0.0163 -0.4157
  324W        W 4375   2.721   6.938   3.314  0.0202 -0.1965 -0.1631
  325W        W 4376   5.967   5.310   1.192  0.0718  0.2217  0.0738
  326W        W 4377   3.145   2.731  11.308  0.0132  0.0916  0.1490
  327W        W 4378   9.336   4.399   2.212 -0.1394  0.1606  0.1045
  328W        W 4379   8.094   9.839   3.258 -0.0887 -0.0702 -0.1462
  329W        W 4380   6.099   1.153  13.363  0.0091  0.1935 -0.0365
  330W        W 4381   3.954   5.191   1.821  0.4360  0.1526  0.0637
  331W        W 4382   4.912   2.411   1.697  0.0565  0.1073  0.0488
  332W        W 4383   1.511   0.698   4.622  0.2241  0.0973 -0.0119
  333W        W 4384   2.818   9.391   3.753 -0.0827  0.0543 -0.0250
  334W        W 4385   5.172   2.247   3.083 -0.0448  0.2664 -0.0257
  335W        W 4386   1.355   0.186   1.208 -0.0884  0.0662 -0.0546
  336W        W 4387   6.725   1.998  12.816 -0.0064  0.2479 -0.0903
  337W        W 4388   3.738   8.890   2.816 -0.2553 -0.1152  0.1000
  338W        W 4389   5.281   0.624   0.261 -0.0071  0.1300  0.0965
  339W        W 4390   1.225   0.709  11.363 -0.1894  0.3328 -0.2722
  340W        W 4391   0.925   6.709   1.857 -0.0048  0.0709 -0.0218
  341W        W 4392   1.327   4.556   2.629  0.0749 -0.1881 -0.1517
  342W        W 4393   3.401   1.691   4.800 -0.0135 -0.2374  0.1652
  343W        W 4394   4.634   1.780   3.086 -0.2212  0.2565 -0.1931
  344W        W 4395   1.588   6.352   5.404  0.4364  0.0961  0.4640
  345W        W 4396   5.829   9.787   3.219  0.3326 -0.0943  0.0889
  346W        W 4397   3.384   4.934  12.113  0.1858  0.1408 -0.0075
  347W        W 4398   0.679   4.707  11.736  0.1963  0.1660 -0.1066
  348W        W 4399   7.749   3.585  11.530 -0.4121 -0.1666  0.2346
  349W        W 4400   2.939   3.915  12.843  0.1939 -0.0435 -0.0968
  350W        W 4401   0.056   3.628   3.081  0.1042  0.3025  0.6359
  351W        W 4402   1.960   9.843  12.741 -0.1619  0.0000  0.0280
  352W        W 4403   9.636   1.419   0.697  0.3171 -0.1222 -0.1218
  353W        W 4404   4.259   7.129   1.415  0.0842  0.2396 -0.0861
  354W        W 4405   1.919   8.339   9.589 -0.1049 -0.4590  0.0375
  355W        W 4406   6.236   0.622   1.814 -0.0955 -0.1345  0.0570
  356W        W 4407   1.441   0.966  12.587 -0.0950  0.0622  0.1618
  357W        W 4408   2.253   6.749   0.309  0.0213  0.1492 -0.1875
  358W        W 4409   4.141   2.615  11.437 -0.1314  0.2553 -0.0045
  359W        W 4410   2.841   3.521   9.364 -0.0140  0.1316 -0.3908
  360W        W 4411   3.293   3.559  12.753  0.0428  0.2136  0.1757
  361W        W 4412   8.666   6.241   3.088  0.0537 -0.1209 -0.2058
  362W        W 4413   7.384   0.686  12.107  0.2653 -0.1351 -0.0183
  363W        W 4414   4.622   9.158   1.340  0.1200 -0.1662  0.0557
  364W        W 4415   5.380   9.019   0.849 -0.2519  0.0718  0.1346
  365W        W 4416   7.051   5.944   0.987 -0.3223 -0.1228 -0.5218
  366W        W 4417  10.148   0.983  12.586 -0.3468 -0.0108  0.1095
  367W        W 4418   1.263   6.488   4.037 -0.1986 -0.0576  0.1250
  368W        W 4419   8.966   0.085  12.777  0.0737 -0.1773  0.0178
  369W        W 4420   5.856   1.210  12.888 -0.3220 -0.0711  0.4219
  370W        W 4421   5.959   7.212   1.760 -0.2284 -0.1836  0.0611
  371W        W 4422   8.018   4.591   0.355  0.0274 -0.1599 -0.0437
  372W        W 4423   2.580   8.451   4.672  0.1342 -0.0382 -0.2345
  373W        W 4424   1.706   3.494  12.297 -0.0541 -0.0509  0.1210
  374W        W 4425   6.752   4.706  12.414 -0.0979  0.2021 -0.2488
  375W        W 4426   8.435   5.925   2.273  0.0940  0.1856  0.4121
  376W        W 4427   4.772   6.275   1.472  0.1324  0.2407  0.1565
  377W        W 4428   4.419   1.858   0.440 -0.1796 -0.1574 -0.0493
  378W        W 4429  10.179   5.292  12.402 -0.0990 -0.0331 -0.0949
  379W        W 4430   6.333   8.939  11.682 -0.0062 -0.0353 -0.0938
  380W        W 4431   5.880   2.311   4.154 -0.1926  0.2916  0.1812
  381W        W 4432   9.791   7.951  12.577  0.0797 -0.0175  0.1673
  382W        W 4433   2.571   1.497   1.733 -0.0780  0.1965 -0.1480
  383W        W 4434   1.993   3.568   0.206  0.0280 -0.0984  0.0485
  384W        W 4435   8.661   7.515  10.370 -0.2366  0.1425  0.0029
  385W        W 4436   7.328   4.700  12.735  0.5221 -0.0532 -0.0956
  386W        W 4437   9.835   7.585   1.442 -0.1706 -0.1551 -0.0447
  387W        W 4438   2.315   4.137  10.736  0.1162  0.0192  0.3919
  388W        W 4439   2.551   9.889  10.606  0.0669  0.1491 -0.0828
  389W        W 4440   2.855   9.237   4.976 -0.1068 -0.0935 -0.0564
  390W        W 4441   2.958   4.805   1.560  0.1511 -0.2195 -0.1887
  391W        W 4442   5.147   9.692   4.271  0.0329  0.3711  0.0675
  392W        W 4443   8.938   4.997  12.052 -0.0241 -0.0883 -0.4272
  393W        W 4444   3.583   6.365  11.286 -0.1372  0.1522  0.2351
  394W        W 4445   3.270   6.004   3.649  0.1806  0.0317 -0.2291
  395W        W 4446   7.890   5.754   3.737  0.0247 -0.1936 -0.2635
  396W        W 4447   7.287   6.107   8.589  0.1517  0.1489 -0.0742
  397W        W 4448   4.899   1.954   0.623  0.0666  0.0743  0.0759
  398W        W 4449   2.358   5.648   9.816  0.1447 -0.0404  0.2773
  399W        W 4450   2.613   1.625  12.854  0.0276 -0.5058 -0.0245
  400W        W 4451   7.854   5.995  10.235  0.0263 -0.1690 -0.4585
  401W        W 4452   9.246   5.192   0.498  0.3195  0.0037 -0.2477
  402W        W 4453   8.008   5.582   2.498  0.1605 -0.4440  0.0110
  403W        W 4454   4.663   7.558   2.963 -0.3288  0.0723 -0.5138
  404W        W 4455   7.545   8.516   4.634  0.4464 -0.2301 -0.0192
  405W        W 4456   2.649   9.970  13.478  0.3596  0.1900 -0.0317
  406W        W 4457   0.607  10.148   3.997  0.1756 -0.1118 -0.0041
  407W        W 4458   4.137   6.233   4.003  0.1600  0.0456 -0.0013
  408W        W 4459   3.926   0.740   1.263 -0.0415 -0.0979  0.0456
  409W        W 4460   5.429   1.148   4.098 -0.1720 -0.1358 -0.1166
  410W        W 4461   5.897   6.346   0.777  0.2160  0.0049  0.2757
  411W        W 4462   6.073   3.889  13.124 -0.2028 -0.2009 -0.1189
  412W        W 4463   2.921   7.099   3.745 -0.0724 -0.0250 -0.0447
  413W        W 4464   8.563   3.734   0.273 -0.0781  0.0225  0.0204
  414W        W 4465   3.009   1.411   5.015 -0.2664 -0.0196  0.1410
  415W        W 4466   0.784   1.376   0.595 -0.1128 -0.3307 -0.1626
  416W        W 4467   7.551   0.850   2.770 -0.1402  0.1545  0.1178
  417W        W 4468   8.525   0.792  12.977 -0.1281  0.0244  0.0050
  418W        W 4469   5.781   5.336   2.728  0.1099  0.0482 -0.0475
  419W        W 4470   7.516   6.171   1.793 -0.0530  0.2220 -0.4392
  420W        W 4471   8.583   2.226   2.652 -0.1280  0.1172 -0.1632
  421W        W 4472   8.926   9.888  12.673 -0.0119  0.1843 -0.0984
  422W        W 4473   9.422   6.419   0.642  0.2021 -0.0287  0.2323
  423W        W 4474   0.468   1.684   3.142 -0.1352  0.0495 -0.0154
  424W        W 4475   9.547   8.337  12.250  0.1171 -0.0180  0.2842
  425W        W 4476   1.760   4.576   2.968 -0.0479  0.1137 -0.0532
  426W        W 4477   2.663   8.714   8.971  0.0236 -0.1280  0.1372
  427W        W 4478   5.162   1.280   0.092  0.3518  0.0450 -0.1021
  428W        W 4479   6.775   9.438   3.023  0.0700  0.5259  0.1241
  429W        W 4480   8.994   0.161  10.440  0.1661 -0.3084  0.0381
  430W        W 4481   7.820   0.336   2.948 -0.0386 -0.1979 -0.1387
  431W        W 4482   9.913   5.859  11.649  0.1567  0.2076 -0.1162
  432W        W 4483   4.768   5.276  10.629 -0.1394  0.0765  0.1268
  433W        W 4484   8.871   5.510  12.000 -0.1303 -0.1313 -0.1320
  434W        W 4485   3.321   9.214   1.068 -0.1066  0.0541 -0.0511
  435W        W 4486   9.862   3.025   2.541 -0.0142 -0.1383 -0.0614
  436W        W 4487   9.858   6.978   2.266  0.2244 -0.2706 -0.0330
  437W        W 4488   6.479   3.291   1.293  0.1109 -0.0997  0.1011
  438W        W 4489   6.721   7.595   9.145 -0.1222  0.3825 -0.1752
  439W        W 4490   7.302   5.541  11.204 -0.1018  0.1241  0.0296
  440W        W 4491   2.258   9.376   5.715  0.0462 -0.1119  0.0151
  441W        W 4492   3.521   0.710  12.998 -0.0962  0.0266 -0.1072
  442W        W 4493   5.021   2.910  11.960 -0.1089  0.1434 -0.0866
  443W        W 4494   1.416   9.223  12.890  0.0426  0.1291  0.1848
  444W        W 4495   8.007   8.543  10.965 -0.1123 -0.2594  0.1828
  445W        W 4496   0.064   7.721   1.487 -0.1971  0.0623  0.2424
  446W        W 4497   9.736   8.856   3.358 -0.1351 -0.4214 -0.0746
  447W        W 4498   6.692   0.108   0.537  0.0666  0.1649  0.0650
  448W        W 4499   8.330   7.206   0.650 -0.2198  0.2377 -0.0872
  449W        W 4500   5.072   3.910   3.987  0.1561 -0.0654 -0.1201
  450W        W 4501   6.280   2.631   3.467  0.1482  0.0506  0.2325
  451W        W 4502   5.471   7.858   9.171  0.0626 -0.1449  0.0234
  452W        W 4503   2.736   8.786   2.901  0.0123 -0.2539 -0.2921
  453W        W 4504   7.149   9.153   3.250  0.0301 -0.0856  0.1180
  454W        W 4505   5.205   6.231   2.792  0.2837  0.3243  0.0345
  455W        W 4506   7.374   9.995  13.045 -0.0951  0.1684  0.1306
  456W        W 4507   9.906   5.594   1.015  0.0188  0.2927  0.0396
  457W        W 4508   9.387   9.626   0.867  0.2220 -0.1141 -0.4714
  458W        W 4509   8.981   9.496  11.244 -0.1253 -0.0822  0.1860
  459W        W 4510   1.246   2.373  11.013 -0.0602  0.2864 -0.0905
  460W        W 4511   1.032   0.133   3.985 -0.0674 -0.0876  0.0130
  461W        W 4512   2.123   1.771   5.221 -0.2508 -0.0719  0.0761
  462W        W 4513   9.563   3.208  12.153  0.1089 -0.2437 -0.0811
  463W        W 4514   2.656   7.896   3.176  0.2123  0.2948 -0.0629
  464W        W 4515   5.303   9.709   1.369 -0.2321  0.1937 -0.2867
  465W        W 4516   8.303   6.787  10.593 -0.3645  0.3343  0.3737
  466W        W 4517   8.563   8.727   9.395  0.1189  0.1197  0.1570
  467W        W 4518   7.872   5.753  12.679 -0.0775 -0.1675  0.1975
  468W        W 4519   1.692   2.448   4.110 -0.2709  0.0713 -0.0297
  469W        W 4520   7.155   5.534   0.625  0.4941 -0.4202  0.1313
  470W        W 4521   7.602   4.804   0.107  0.1602  0.1126  0.0824
  471W        W 4522   0.521   3.313  12.264 -0.2685  0.0344 -0.2872
  472W        W 4523   7.972   0.247  12.863 -0.0060  0.3619 -0.1104
  473W        W 4524   5.009   8.293  11.294  0.0298  0.0650 -0.3399
  474W        W 4525   6.802   4.468   1.980  0.2436  0.0315 -0.1595
  475W        W 4526   6.423   8.556  11.338 -0.2380  0.2864 -0.0087
  476W        W 4527   2.156   9.886   4.828  0.0895 -0.0097  0.0452
  477W        W 4528   2.629   9.840   0.441  0.0531  0.3094  0.0771
  478W        W 4529   0.246   6.250   0.586  0.0269  0.0247 -0.1107
  479W        W 4530   5.828   2.726   3.739  0.0516 -0.1842 -0.0406
  480W        W 4531  10.093   3.100  10.280  0.1609  0.0668  0.0100
  481W        W 4532   7.183   2.133   0.653  0.1677 -0.2051  0.2112
  482W        W 4533   0.298   0.753   0.349 -0.0075 -0.2188  0.3964
  483W        W 4534   1.521  10.101   2.794  0.1011 -0.0650  0.0824
  484W        W 4535   6.217   1.878   2.026 -0.1478  0.2471 -0.4833
  485W        W 4536   5.726   7.516  10.197  0.1369  0.0242  0.0919
  486W        W 4537   6.040   5.139  13.386 -0.0712 -0.1621 -0.2348
  487W        W 4538   5.174   4.578   2.493  0.0140  0.3160 -0.2345
  488W        W 4539   8.191   1.982   9.047  0.0636 -0.3598 -0.0464
  489W        W 4540  10.278   2.074   2.293 -0.0068  0.1687 -0.2786
  490W        W 4541   4.939   9.074   2.249 -0.0464 -0.1033 -0.2963
  491W        W 4542   5.216   7.817  13.262 -0.2976 -0.0277  0.1390
  492W        W 4543   1.735   8.396  12.948  0.2865  0.2216  0.0429
  493W        W 4544   0.530   8.867  12.057  0.0677 -0.2986  0.0236
  494W        W 4545   4.437   6.542  12.056  0.1280 -0.2102 -0.0467
  495W        W 4546   2.909   9.145   2.548  0.0389  0.0910  0.0589
  496W        W 4547   8.580   8.861   2.254 -0.1472 -0.0457  0.0603
  497W        W 4548   5.784   6.664   1.211 -0.2395  0.1279  0.0198
  498W        W 4549   1.470   0.438  10.392  0.0941 -0.0073  0.1610
  499W        W 4550   2.793   7.007   0.353 -0.0882 -0.0003  0.0859
  500W        W 4551   6.725   0.729   1.919 -0.3335  0.2639  0.2199
  501W        W 4552   4.089   8.513   2.297 -0.2174 -0.2126  0.0726
  502W        W 4553   0.658   6.139  10.233  0.0389  0.1688  0.0859
  503W        W 4554   1.838   4.716  11.299 -0.0185  0.0742 -0.0956
  504W        W 4555   6.483   5.785   2.798  0.1357  0.2164  0.0782
  505W        W 4556   4.925   2.572  13.035  0.2297  0.1707  0.1580
  506W        W 4557   4.942   0.176  13.134 -0.2267 -0.1338  0.0806
  507W        W 4558   4.600   4.740  13.360 -0.0674 -0.3000  0.1562
  508W        W 4559   4.161   3.897  13.273 -0.1072  0.1509 -0.2987
  509W        W 4560   4.736   1.630  12.933  0.1100 -0.0102 -0.1658
  510W        W 4561   5.184  10.114  12.802  0.2914  0.1473  0.2488
  511W        W 4562   1.474   8.546   2.161 -0.3458 -0.1280 -0.1788
  512W        W 4563   6.603   9.518   9.265 -0.2476 -0.2561 -0.2751
  513W        W 4564   0.234   2.595  13.580 -0.0189 -0.1506 -0.1053
  514W        W 4565   5.096   3.242  12.365  0.0337  0.0649  0.1705
  515W        W 4566   1.066   1.543   1.099  0.0201 -0.2340  0.1153
  516W        W 4567   1.751   1.346   3.967 -0.2688  0.2716  0.0423
  517W        W 4568   1.742   0.789   5.098  0.1535 -0.1521  0.3223
  518W        W 4569   0.762   6.444   4.214  0.4145 -0.1823  0.1129
  519W        W 4570   7.218   4.473   1.368 -0.0732 -0.1080  0.0799
  520W        W 4571   1.618   9.510   1.607  0.3774  0.0740  0.0497
  521W        W 4572   5.355   5.760   3.976 -0.0723  0.2213 -0.1429
  522W        W 4573   9.481   4.217   0.489 -0.2874 -0.0615  0.0232
  523W        W 4574   7.677   0.091   9.063 -0.3113  0.0428  0.0591
  524W        W 4575   2.675   4.741  10.049 -0.0245  0.1650 -0.4891
  525W        W 4576   1.223   1.979  13.464 -0.1978  0.2436 -0.3681
  526W        W 4577  10.044   1.629   3.739 -0.3628 -0.2015 -0.1610
  527W        W 4578   9.222   9.507   4.997  0.1962 -0.0910 -0.0126
  528W        W 4579   2.772   1.879   2.806 -0.0649 -0.0283 -0.1343
  529W        W 4580   8.481   8.698  11.089  0.0079 -0.1653  0.0199
  530W        W 4581   2.831   4.597   2.209 -0.0106  0.2522 -0.1386
  531W        W 4582   3.099   3.055  13.525  0.2771 -0.1609 -0.1259
  532W        W 4583   7.769   6.784  13.405  0.0022  0.2657 -0.1973
  533W        W 4584   7.634   3.120   2.813  0.0247 -0.6246  0.2073
  534W        W 4585   9.814   9.583   1.760  0.1050  0.0527 -0.1634
  535W        W 4586   8.695   3.927   3.651  0.1030  0.2580  0.2522
  536W        W 4587   4.267   0.036   3.448 -0.2011 -0.4491  0.2463
  537W        W 4588   8.563   0.675   2.693  0.2274 -0.0990  0.3098
  538W        W 4589   9.100   8.958  11.329 -0.0302  0.0084  0.2685
  539W        W 4590   6.880   5.486   2.154  0.1662 -0.2333  0.0603
  540W        W 4591   0.810   4.105  11.837  0.1061  0.1742 -0.1056
  541W        W 4592   7.623   0.575  10.021  0.0596 -0.1304 -0.1251
  542W        W 4593   2.793   8.859  13.528  0.0558  0.0490 -0.1564
  543W        W 4594   3.060   9.937   1.774 -0.1851 -0.0957  0.0029
  544W        W 4595   9.399   7.882  13.439 -0.3173  0.0352  0.0516
  545W        W 4596   1.922   5.430   9.896  0.1954  0.1169 -0.0535
  546W        W 4597   9.074   1.486  12.829 -0.1410  0.2687 -0.2474
  547W        W 4598   2.559   1.491  12.318 -0.1653 -0.0414  0.0759
  548W        W 4599   4.862   2.631  13.516 -0.1233 -0.0114 -0.1740
  549W        W 4600   7.867   4.080  12.197 -0.1446 -0.2337  0.0261
  550W        W 4601   1.387   4.986   2.131  0.1756 -0.1279  0.1312
  551W        W 4602   5.889   9.530  11.578 -0.0890 -0.2388  0.0026
  552W        W 4603   6.074   7.146   2.211  0.3299 -0.3647 -0.0128
  553W        W 4604   1.283   6.009  11.544  0.0368 -0.1569  0.0961
  554W        W 4605   8.052   8.017  13.113 -0.0308  0.0382 -0.0389
  555W        W 4606   0.553  10.063   3.160 -0.0469 -0.0294 -0.0747
  556W        W 4607   9.505   0.351   4.548  0.3884 -0.0184 -0.0666
  557W        W 4608   4.844   1.678   4.033  0.1927  0.1667  0.0750
  558W        W 4609   3.967  10.191  10.151  0.3033  0.0319 -0.0018
  559W        W 4610   5.974   7.155   0.065  0.1770  0.1039  0.6336
  560W        W 4611   1.017   1.074  12.792  0.1158 -0.0091 -0.0402
  561W        W 4612   3.443   7.395   4.617 -0.0918  0.1229  0.0050
  562W        W 4613   6.915   0.276  10.993 -0.0787 -0.1004  0.0090
  563W        W 4614   2.455  10.190  12.649  0.2636 -0.0126  0.0710
  564W        W 4615   4.573   3.189   0.782  0.3058  0.1725  0.1429
  565W        W 4616   7.569  10.099  12.114  0.2793  0.0396  0.0120
  566W        W 4617  10.294   3.753  12.535  0.2740  0.0003 -0.1588
  567W        W 4618   4.696   3.921   0.246  0.1523  0.0673  0.0611
  568W        W 4619   5.462   8.928   3.119 -0.0810  0.0598  0.1250
  569W        W 4620   0.876   9.709   1.497  0.0308 -0.4183  0.1451
  570W        W 4621   4.495   1.605   4.815 -0.0475  0.1251 -0.1159
  571W        W 4622   6.430   7.623   9.559 -0.2839  0.0345 -0.0660
  572W        W 4623   3.711   9.820   2.705 -0.3883 -0.4255  0.0787
  573W        W 4624   8.168   8.125  11.835 -0.0049 -0.0179 -0.2674
  574W        W 4625   5.093   4.060  12.951 -0.2887 -0.1673 -0.2267
  575W        W 4626   7.311   8.506  11.815  0.0679  0.1305  0.0025
  576W        W 4627   6.722   6.060   9.995 -0.0019 -0.2537 -0.1120
  577W        W 4628   4.016   2.353   0.906  0.0294  0.1110 -0.2698
  578W        W 4629   8.467   0.893  10.051  0.2103  0.0035  0.0950
  579W        W 4630   2.924   1.848   0.370 -0.3151 -0.0831  0.0968
  580W        W 4631   5.197   9.303   9.709 -0.1360 -0.1492  0.1438
  581W        W 4632   9.121   6.325   2.612 -0.2086  0.1434  0.1274
  582W        W 4633   4.401   3.558   2.039  0.1114  0.0578 -0.2028
  583W        W 4634   6.970   1.055  11.784  0.3655 -0.0996  0.0879
  584W        W 4635   3.210   6.636   0.395  0.0134  0.0559 -0.1364
  585W        W 4636   2.715   9.949   2.141 -0.1263  0.0588  0.1019
  586W        W 4637   1.808   8.347  12.356  0.0969  0.2009  0.3879
  587W        W 4638   1.923   5.015   4.098 -0.0933 -0.1137 -0.2728
  588W        W 4639   6.444   9.857  13.515  0.1384 -0.0475 -0.0435
  589W        W 4640   0.497   3.626   1.413  0.0846  0.0411  0.0144
  590W        W 4641   9.453   0.546   5.006 -0.2173 -0.0124  0.1127
  591W        W 4642   6.074   5.535   2.391 -0.3107 -0.0904  0.2051
  592W        W 4643   3.745   5.638   4.434  0.1687  0.3937 -0.2264
  593W        W 4644   8.348   1.222   4.241 -0.1718 -0.0782  0.1625
  594W        W 4645   7.779   0.683  10.514  0.4111  0.1760  0.1735
  595W        W 4646   5.517   2.041  13.317  0.1089  0.3660 -0.0127
  596W        W 4647   7.081   4.852   1.695 -0.2444  0.0268  0.1099
  597W        W 4648   7.734   2.118  11.729  0.2426  0.2612 -0.0415
  598W        W 4649   1.348   1.701   4.801 -0.0866 -0.1079 -0.0986
  599W        W 4650   9.627   0.920  10.657 -0.0968 -0.1400  0.0248
  600W        W 4651   4.714   8.900  10.081  0.1749  0.1918  0.0213
  601W        W 4652   9.143   5.946   9.658  0.3204  0.2928 -0.0180
  602W        W 4653   1.040   7.468   2.387  0.1064 -0.1246  0.1106
  603W        W 4654   4.857   0.030  12.506 -0.1208 -0.1708 -0.3122
  604W        W 4655   7.910   7.181   1.140  0.3287 -0.0427 -0.0448
  605W        W 4656   7.740   7.207   3.977 -0.0064  0.0368  0.0029
  606W        W 4657   2.419   5.641  12.054 -0.1495 -0.0320  0.0596
  607W        W 4658   1.202   6.705   0.834 -0.1652 -0.0284  0.0405
  608W        W 4659   9.719   7.283   5.417 -0.1420  0.1441 -0.1122
  609W        W 4660  10.243   6.509   5.548  0.0423 -0.2960 -0.1827
  610W        W 4661   9.268   0.536  10.548 -0.1176  0.1725  0.0386
  611W        W 4662   1.687   4.378  13.039 -0.0816  0.0615  0.1618
  612W        W 4663   6.433   0.999  11.414  0.2232 -0.1354  0.1839
  613W        W 4664   0.702   3.581   3.057 -0.1416  0.0718 -0.0547
  614W        W 4665   2.622   3.995   2.195 -0.1548  0.2549  0.0078
  615W        W 4666   8.528   5.159  11.673 -0.0282  0.0241 -0.6785
  616W        W 4667   9.844   6.746   1.803  0.1194 -0.2717  0.1761
  617W        W 4668   1.978   4.062   4.391 -0.1686  0.0824 -0.2328
  618W        W 4669   7.864   3.497  12.674  0.0376 -0.0810 -0.2344
  619W        W 4670   2.535   1.202   9.659 -0.3281 -0.3158  0.0464
  620W        W 4671   2.706   6.386  11.669 -0.2897 -0.0619  0.1837
  621W        W 4672   9.463   2.460   1.428  0.2056 -0.1142 -0.0514
  622W        W 4673   3.078   6.989  11.968  0.1359 -0.3273 -0.0486
  623W        W 4674   6.913   8.756  10.471 -0.1164  0.1593 -0.0423
  624W        W 4675   9.331   5.084   3.707  0.2656  0.1415  0.0663
  625W        W 4676   5.613   5.361  11.849 -0.1820  0.0812  0.0080
  626W        W 4677   5.481   8.759  10.375 -0.0228  0.0795 -0.0100
  627W        W 4678   1.965   7.746  10.363  0.0049  0.0498 -0.0475
  628W        W 4679   8.254   0.416  11.673  0.2956  0.1045 -0.0151
  629W        W 4680   5.778   3.258   2.653  0.0209  0.2202 -0.2889
  630W        W 4681  10.246   4.024  10.751  0.0033 -0.2159 -0.0851
  631W        W 4682   6.460   4.519   3.589  0.0865 -0.1779 -0.1661
  632W        W 4683   6.029   7.634   4.198  0.0177  0.3753 -0.1806
  633W        W 4684   1.540   2.504   2.697  0.0005 -0.1986  0.0869
  634W        W 4685   6.088   0.310  12.149  0.0454 -0.1832 -0.3185
  635W        W 4686   9.885   9.310  12.317 -0.2658  0.2025 -0.0868
  636W        W 4687   0.833   9.731   0.670 -0.2592  0.1802  0.1690
  637W        W 4688   1.137   3.135  12.928  0.1078 -0.5714 -0.0261
  638W        W 4689   0.083   4.365  10.444 -0.0481 -0.1795  0.0089
  639W        W 4690   4.945  10.108   1.869 -0.0265 -0.0068  0.0891
  640W        W 4691   3.151   9.369  10.439  0.0891  0.0757 -0.3337
  641W        W 4692   9.122   3.716  10.933 -0.2953 -0.3325  0.1916
  642W        W 4693   0.261   6.701   9.592  0.4298  0.0461  0.0585
  643W        W 4694  10.264   0.568   9.547 -0.1851  0.0027 -0.0212
  644W        W 4695   0.966   8.807   3.954 -0.0529 -0.1604  0.0432
  645W        W 4696   9.625   3.818   9.903  0.1378 -0.0975 -0.2495
  646W        W 4697   9.124   0.673   3.395  0.0862 -0.2353  0.0433
  647W        W 4698   4.950   5.857   0.345 -0.1307 -0.2068 -0.2282
  648W        W 4699   5.737   4.826  11.613 -0.2828  0.2882 -0.2917
  649W        W 4700   8.337   8.711   9.854  0.0481 -0.2204  0.2243
  650W        W 4701   5.038   9.373   1.686 -0.0610  0.2509  0.0196
  651W        W 4702   6.283   8.052  12.922 -0.1280 -0.1223 -0.1613
  652W        W 4703   8.430   2.549  12.915 -0.1517  0.0670 -0.1261
  653W        W 4704   8.472   1.764  11.763  0.2226  0.1296 -0.1942
  654W        W 4705   6.859   8.085  12.591  0.0428 -0.0781 -0.1660
  655W        W 4706   7.784   2.412   2.386 -0.0371 -0.2970  0.4305
  656W        W 4707   9.832   3.377  11.297  0.1402  0.2837 -0.1485
  657W        W 4708   1.957   9.530   4.597  0.3421  0.1020  0.1733
  658W        W 4709   9.957   1.219   1.316  0.1066 -0.1279 -0.1204
  659W        W 4710   6.447   1.474  11.492 -0.1917 -0.0789  0.3895
  660W        W 4711   0.776   6.988   4.479 -0.2280  0.2204 -0.0324
  661W        W 4712   7.436   5.969   9.085  0.0488  0.1126  0.1840
  662W        W 4713   9.856   9.141   1.349 -0.2125  0.1495 -0.0570
  663W        W 4714   2.643   0.525  12.220 -0.1454 -0.2751  0.0691
  664W        W 4715   8.172   3.632  13.503 -0.1396 -0.0912 -0.2910
  665W        W 4716   2.593   9.435  10.328 -0.0392  0.2913  0.2503
  666W        W 4717   4.514   0.311  12.280  0.0535 -0.0031  0.0444
  667W        W 4718   6.199   3.925   9.775  0.4127  0.0665  0.2570
  668W        W 4719   0.622   1.161   3.193 -0.1602  0.0796 -0.0320
  669W        W 4720   8.157   6.314   3.115 -0.3109  0.1805 -0.0497
  670W        W 4721   0.385   9.893  10.639 -0.2868 -0.0777  0.0102
  671W        W 4722   3.785   7.142   9.394 -0.2055 -0.0560 -0.0651
  672W        W 4723   2.183   8.405   0.266 -0.2357  0.1433  0.2621
  673W        W 4724   1.427   3.048  12.027 -0.0642 -0.0488 -0.2712
  674W        W 4725  10.245   0.263  10.903 -0.1289  0.1032 -0.1421
  675W        W 4726   6.274   8.576   2.838 -0.0568  0.2092 -0.0875
  676W        W 4727   0.616   3.255   1.727 -0.0661  0.1509 -0.1647
  677W        W 4728   4.945   4.428  13.206 -0.0484 -0.0444 -0.2610
  678W        W 4729   4.085   3.315   3.822 -0.0162  0.1518 -0.2091
  679W        W 4730   0.648   2.532   4.516  0.3358 -0.3811  0.1311
  680W        W 4731   6.766   2.344   0.957  0.0766  0.0312  0.2381
  681W        W 4732   6.767   5.999  13.108  0.1691 -0.0378  0.3747
  682W        W 4733   4.211   7.924  10.075 -0.1044  0.1073  0.2066
  683W        W 4734   1.784   9.175  10.907  0.0845  0.0769 -0.1459
  684W        W 4735   5.776   5.837  11.038  0.0890 -0.3247  0.1405
  685W        W 4736   8.044   0.220   9.837  0.0157  0.3136 -0.0123
  686W        W 4737   8.088   7.055  12.988  0.1725  0.0544 -0.0053
  687W        W 4738   5.009  10.200   2.682 -0.1955 -0.0474 -0.1203
  688W        W 4739   5.282   7.004  13.521  0.0279  0.0653  0.0111
  689W        W 4740   1.471   9.714  12.852  0.3117  0.2820 -0.1152
  690W        W 4741   0.974   9.562  13.108 -0.3204 -0.2798  0.3639
  691W        W 4742   9.317   2.804  11.975  0.1538 -0.3538 -0.0570
  692W        W 4743   6.312   9.467   3.786  0.2998  0.1894  0.1882
  693W        W 4744  10.251   6.213  11.861 -0.0847  0.0157 -0.2372
  694W        W 4745  10.083   0.347   3.574 -0.0657 -0.1100 -0.2982
  695W        W 4746   0.543   7.029  12.735  0.2665  0.0944  0.0034
  696W        W 4747   1.635   1.583  13.206  0.0131 -0.2578 -0.0442
  697W        W 4748   8.265   0.586   1.669 -0.0824  0.1606  0.0333
  698W        W 4749   2.468   6.463  10.747 -0.0203  0.0065 -0.3127
  699W        W 4750   3.766   3.489   0.347 -0.1348 -0.2017 -0.1077
  700W        W 4751   0.606   0.773   3.523 -0.1544  0.0434  0.3428
  701W        W 4752   1.413   8.591  12.114 -0.0596  0.0678 -0.1497
  702W        W 4753   7.660   9.232  10.192 -0.0728  0.2020  0.3111
  703W        W 4754   6.474   4.008   0.209  0.1727  0.2815 -0.2424
  704W        W 4755   3.936   6.307   1.769 -0.2083 -0.1434  0.3783
  705W        W 4756   9.640   6.108   0.142  0.2252  0.3879  0.0619
  706W        W 4757   3.021   8.850   1.214 -0.3070 -0.0166  0.2446
  707W        W 4758   3.360   6.373   2.323 -0.1306  0.1060 -0.0870
  708W        W 4759   1.500   8.319   9.809  0.3631  0.3613  0.1041
  709W        W 4760   7.372   7.909   1.503 -0.2374  0.0419 -0.0608
  710W        W 4761   7.329   7.420   4.161 -0.1146  0.1779  0.1439
  711W        W 4762   7.306   3.460  10.836 -0.0155 -0.1958 -0.1584
  712W        W 4763   3.288   2.338  10.359 -0.0932 -0.0153 -0.0858
  713W        W 4764   2.536   3.172   2.007 -0.0872  0.1093 -0.2609
  714W        W 4765   9.322   0.408  12.613  0.0154 -0.1937 -0.2389
  715W        W 4766   5.431   7.812   2.663 -0.2428  0.2900  0.1270
  716W        W 4767   5.289   6.448   1.449 -0.0182 -0.1971  0.0607
  717W        W 4768   8.434   5.357   1.529 -0.1553 -0.1009  0.4276
  718W        W 4769   8.960   2.120   4.213 -0.1964  0.0081 -0.2467
  719W        W 4770   2.211   2.437  13.312  0.1970 -0.3144 -0.0751
  720W        W 4771   8.775   9.364   2.123  0.3236  0.0977 -0.0577
  721W        W 4772   5.117   6.535   8.630 -0.0952 -0.1898  0.0438
  722W        W 4773   5.374   2.580   3.484  0.1017  0.1901 -0.0368
  723W        W 4774   2.648   5.637  11.047 -0.3225  0.0882  0.0314
  724W        W 4775   5.242   7.348  10.062 -0.1063 -0.1739  0.1801
  725W        W 4776   9.824   4.507   0.782 -0.0844  0.1259  0.2374
  726W        W 4777   9.855   4.005   0.969 -0.0537 -0.0006 -0.0675
  727W        W 4778   6.760   0.584   4.196  0.2450  0.0348  0.0912
  728W        W 4779  10.127   5.302  11.424 -0.2285  0.2849  0.1422
  729W        W 4780   2.041   4.037   0.519 -0.2000  0.0388 -0.1453
  730W        W 4781   8.611   3.108  13.586 -0.1086  0.1806 -0.0994
  731W        W 4782   9.778   4.300   9.273 -0.1624  0.2974 -0.4821
  732W        W 4783   2.807   5.367   9.980  0.1329 -0.2980  0.4027
  733W        W 4784   0.512   5.240   4.248  0.0819  0.1650  0.0052
  734W        W 4785   7.657   0.926   3.773  0.1196  0.1808  0.0912
  735W        W 4786   2.869   1.508   2.101  0.2485  0.1030 -0.2448
  736W        W 4787   5.280   8.268  13.559 -0.0319  0.0146  0.1424
  737W        W 4788   9.830   5.116   1.725  0.0765  0.0108  0.5388
  738W        W 4789   9.168   4.812  11.454  0.0807  0.0940  0.2982
  739W        W 4790   2.112   7.238   1.705  0.2336 -0.5537  0.0418
  740W        W 4791   2.800   4.149   4.385 -0.0824 -0.3288  0.2013
  741W        W 4792   2.371   0.796   9.549  0.1646  0.4018 -0.1909
  742W        W 4793  10.094   7.319   4.428  0.3585  0.0874 -0.1708
  743W        W 4794   7.022   0.903   9.812  0.0281 -0.0834 -0.0883
  744W        W 4795   0.257   5.898   9.399 -0.1249  0.0302 -0.1685
  745W        W 4796   7.847   1.203   2.923  0.0712  0.0589  0.2401
  746W        W 4797   9.732   9.231   9.612 -0.0685 -0.2746  0.2926
  747W        W 4798   4.432   4.268   0.506  0.0364  0.0293 -0.0793
  748W        W 4799   2.150   6.203   8.913 -0.1391 -0.1325  0.0103
  749W        W 4800   5.437   8.767   4.500 -0.0548 -0.0158 -0.2579
  750W        W 4801   2.538   7.553   0.549 -0.0320  0.0711 -0.0097
  751W        W 4802   2.347   7.111   0.663 -0.1468  0.2538  0.1328
  752W        W 4803   9.957   3.762   3.819 -0.3431  0.2327 -0.0819
  753W        W 4804  10.029   1.445   0.276 -0.3828 -0.1551  0.0684
  754W        W 4805   5.245   5.027  10.580 -0.1455 -0.0148  0.0040
  755W        W 4806   6.864   4.079  10.743  0.2925  0.1623 -0.1762
  756W        W 4807   5.028   7.603   9.169  0.2362 -0.0948 -0.1310
  757W        W 4808   9.758   5.984   4.516  0.1634 -0.0107 -0.2229
  758W        W 4809   2.994   1.143   9.857 -0.1237 -0.0399 -0.0011
  759W        W 4810   9.649   8.303  11.764 -0.2419  0.2137 -0.1645
  760W        W 4811   7.055   0.812   0.810 -0.2489  0.2873  0.1339
  761W        W 4812   5.479  10.136   3.376 -0.0688  0.2068  0.2615
  762W        W 4813   6.075  10.198   8.964 -0.0332  0.1063  0.2223
  763W        W 4814   6.597   6.275  12.184 -0.0037 -0.2894  0.1056
  764W        W 4815   8.082   1.661   1.886 -0.1165 -0.2168  0.2234
  765W        W 4816   9.744   0.806   4.489  0.0737  0.3137 -0.2159
  766W        W 4817   6.976   7.309  11.034  0.2681 -0.0825 -0.3490
  767W        W 4818   9.815   7.166   2.730  0.1169 -0.1286  0.0587
  768W        W 4819   2.437   9.950  11.093 -0.1946  0.1821  0.1843
  769W        W 4820   4.040   7.184  12.974  0.2826  0.1901 -0.0824
  770W        W 4821   3.603   3.991   5.769 -0.1231 -0.1397  0.1976
  771W        W 4822   7.018   4.278   2.840  0.0639 -0.0500 -0.1720
  772W        W 4823   1.040   0.273  11.704 -0.0466  0.2942  0.0512
  773W        W 4824   5.350   0.036   1.027  0.0949 -0.0907 -0.3355
  774W        W 4825   8.498   7.744  11.093 -0.1040  0.0992  0.4108
  775W        W 4826   3.641   4.711   9.872  0.1957 -0.1163 -0.1013
  776W        W 4827   8.945   6.619  12.871  0.1635  0.1839  0.2555
  777W        W 4828   9.314   0.341   1.275 -0.2938 -0.0600  0.1177
  778W        W 4829   5.859   0.045   4.633 -0.1758  0.4221  0.0631
  779W        W 4830   1.463   6.678   1.771 -0.1078 -0.0774 -0.2286
  780W        W 4831   9.601   4.897   3.373  0.1681  0.6197 -0.1751
  781W        W 4832   9.694   0.071   9.616  0.1465 -0.0706  0.2620
  782W        W 4833   3.671   3.828   0.761 -0.1409  0.1346 -0.4681
  783W        W 4834   5.111   5.448  11.342 -0.2315  0.1691 -0.3368
  784W        W 4835   5.042   3.665  12.124  0.1335  0.0886 -0.2272
  785W        W 4836   0.961   1.910   2.961 -0.0673 -0.2440  0.0159
  786W        W 4837   4.998   8.725  12.582  0.1421 -0.2583 -0.0797
  787W        W 4838   9.233   8.671  12.064 -0.2078  0.0192 -0.1818
  788W        W 4839   5.666  10.150  10.799  0.1654 -0.0832  0.0627
  789W        W 4840   6.098   3.148  13.588  0.2735 -0.0296 -0.2679
  790W        W 4841   8.045   1.848  12.218  0.0847  0.0389 -0.3073
  791W        W 4842   6.582   5.893   2.274  0.1328 -0.2661  0.0712
  792W        W 4843   0.294   3.304   3.348  0.1155  0.2700 -0.0684
  793W        W 4844   4.585   2.290   0.742 -0.3208 -0.0743  0.2551
  794W        W 4845   1.910   1.355  12.457  0.0445  0.1476  0.2614
  795W        W 4846   9.524   7.584   5.063  0.1933  0.1069  0.0833
  796W        W 4847   0.008   0.640  13.093 -0.0042 -0.4533 -0.1292
  797W        W 4848   3.468   7.153  12.650  0.1216  0.5362 -0.1476
  798W        W 4849   5.587   5.334  12.859 -0.0066 -0.1606  0.4918
  799W        W 4850   7.952   9.570  12.480 -0.2315  0.0183 -0.0925
  800W        W 4851   3.958   3.376   3.325 -0.3620  0.0030 -0.5376
  801W        W 4852   6.686   1.997   0.463  0.1422  0.0098 -0.1197
  802W        W 4853   0.272   4.940   0.198  0.0322 -0.3801  0.1111
  803W        W 4854   4.147   8.020   4.426 -0.1895  0.1843  0.2329
  804W        W 4855   0.857   0.514   5.186  0.1066 -0.0805 -0.3074
  805W        W 4856   9.341   0.989   9.742  0.0070  0.1296  0.4454
  806W        W 4857   3.012   7.843  10.238 -0.2882 -0.1908  0.1408
  807W        W 4858   7.133   9.382  10.124  0.2041  0.1318  0.0174
  808W        W 4859   8.455   5.109   2.820  0.0072 -0.1121  0.0525
  809W        W 4860   8.514   7.763   4.941 -0.0241  0.2418 -0.2384
  810W        W 4861   4.645   5.051  11.516 -0.2969  0.1114  0.0401
  811W        W 4862   5.491   3.949   2.850  0.0135 -0.0055 -0.0223
  812W        W 4863   4.845   5.243   3.047  0.0390  0.0318 -0.6136
  813W        W 4864   6.442   0.023  13.444 -0.0261 -0.0931 -0.2709
  814W        W 4865  10.285   9.960  11.414 -0.1131  0.0020  0.3103
  815W        W 4866  10.184   1.838   3.235 -0.1047 -0.1360 -0.0523
  816W        W 4867   9.487   2.436   9.407  0.4591 -0.2481  0.0876
  817W        W 4868   2.939   6.645   1.406  0.0061 -0.1042  0.1346
  818W        W 4869   4.936   8.684   4.299 -0.0903 -0.2911 -0.0430
  819W        W 4870   9.973   6.284   3.764 -0.1966 -0.2404 -0.0006
  820W        W 4871   5.510   6.686   9.574  0.1095 -0.0271 -0.0178
  821W        W 4872   9.080   2.918   0.195 -0.0970  0.3223  0.4272
  822W        W 4873   1.406   0.066   3.610 -0.1089  0.1468 -0.3892
  823W        W 4874   6.252   9.687   8.960  0.0671  0.1593  0.0878
  824W        W 4875   7.548   1.929   4.448 -0.0574 -0.0783 -0.0630
  825W        W 4876   1.522   9.648   4.170  0.1087  0.1406  0.0702
  826W        W 4877   1.609   3.409   4.872 -0.1158  0.2330 -0.2389
  827W        W 4878   0.823   7.637   9.821 -0.0179  0.0985 -0.2089
  828W        W 4879   4.014   6.250  12.431 -0.0856  0.0836  0.2210
  829W        W 4880   2.820   2.592   3.623  0.2195 -0.2701 -0.0919
  830W        W 4881   8.002   4.115  11.689 -0.0712  0.4103  0.2823
  831W        W 4882   9.474   4.884  13.071 -0.0392 -0.4018 -0.1172
  832W        W 4883   8.120   5.446  13.197 -0.2452  0.1958  0.1143
  833W        W 4884   4.556   7.492   3.465  0.2796  0.1302 -0.2258
  834W        W 4885   1.620   4.095   1.925  0.2395  0.2114  0.3050
  835W        W 4886   7.649   9.894   8.910 -0.2010  0.1718  0.0088
  836W        W 4887   4.847   6.754  12.459 -0.2501  0.0085  0.1813
  837W        W 4888   8.927   9.065   9.237  0.0552  0.0491 -0.0513
  838W        W 4889   2.231   8.931   0.782  0.1318 -0.3694 -0.0449
  839W        W 4890   5.386   0.960   1.121 -0.3114  0.0928  0.0858
  840W        W 4891   1.193   4.871   9.748 -0.0352 -0.1228 -0.1057
  841W        W 4892   9.662   2.325   3.118  0.1429 -0.2906  0.2776
  842W        W 4893   2.969   6.625   2.835 -0.2127  0.0136  0.1232
  843W        W 4894  10.051   8.427  12.234 -0.1311  0.5416 -0.2214
  844W        W 4895   1.273   7.234  11.429 -0.1001 -0.0319  0.0271
  845W        W 4896   1.415   4.744  11.677  0.3687  0.1118  0.0868
  846W        W 4897   7.381   0.178   1.976 -0.2563 -0.1913 -0.0344
  847W        W 4898   0.985   4.814   4.677  0.2259 -0.1808 -0.2442
  848W        W 4899   0.769   6.075  13.053 -0.1991  0.0086  0.0122
  849W        W 4900   0.916   0.464   5.667 -0.0149 -0.2283  0.1309
  850W        W 4901   9.512   7.851  10.877  0.1548 -0.1579  0.0972
  851W        W 4902   2.107   6.359  11.492 -0.1094 -0.4096  0.1099
  852W        W 4903   8.662   0.642   4.718  0.2569  0.2702  0.2731
  853W        W 4904   5.358   0.758  11.727 -0.0151 -0.0000 -0.0676
  854W        W 4905   8.753   1.331  10.306 -0.2185 -0.1624 -0.2893
  855W        W 4906   1.404   5.080   4.055  0.0814 -0.0174 -0.2162
  856W        W 4907   5.071   8.149  12.563 -0.0545 -0.0104 -0.1345
  857W        W 4908   1.132   3.128   4.960 -0.1913 -0.0039 -0.0860
  858W        W 4909   4.746   2.146   2.113  0.1055 -0.2549  0.0991
  859W        W 4910   9.157   6.420  12.437 -0.1701 -0.0165 -0.1290
  860W        W 4911   1.186   1.083   4.564 -0.2658 -0.0107 -0.1960
  861W        W 4912   9.033   4.079   1.877 -0.2308  0.1397 -0.0596
  862W        W 4913   6.731   1.739   0.017 -0.1309 -0.2736  0.3054
  863W        W 4914   1.057   8.138  13.581 -0.1124  0.0236  0.1309
  864W        W 4915   7.922   0.136   5.737  0.3012  0.1591  0.1992
  865W        W 4916   8.673   1.045  13.407  0.1396 -0.2855  0.1484
  866W        W 4917   6.682   6.624  10.340 -0.0653  0.0962 -0.3459
  867W        W 4918   7.454   9.378   3.885 -0.0531  0.0017 -0.1621
  868W        W 4919   9.831   0.654   0.395 -0.1861  0.3118 -0.0967
  869W        W 4920   9.777   9.738   9.314 -0.2494  0.0235 -0.0956
  870W        W 4921   1.339   9.413  10.983  0.0946  0.0560  0.2034
  871W        W 4922   6.883   9.211   9.526 -0.0308 -0.0375 -0.0855
  872W        W 4923   4.645   8.668   2.031 -0.0343 -0.2491  0.1591
  873W        W 4924   3.396   7.395   9.718  0.0905 -0.1357  0.1890
  874W        W 4925   8.928   9.389   0.237  0.0885 -0.2587 -0.0817
  875W        W 4926   2.554   1.207   0.780 -0.1136 -0.2591 -0.0191
  876W        W 4927   9.808   5.247   9.826  0.1517 -0.0861  0.1381
  877W        W 4928   0.747   6.786   2.795 -0.1790 -0.0214 -0.3205
  878W        W 4929   8.240   9.236   2.188  0.0628 -0.1203 -0.5292
  879W        W 4930   6.951   0.267   0.918 -0.0422  0.1074 -0.1560
  880W        W 4931   4.950   1.902   1.736  0.3505 -0.1262  0.1808
  881W        W 4932   3.367   4.775   2.434  0.0755 -0.0395  0.3472
  882W        W 4933   1.943   4.927   2.471  0.0863 -0.0478  0.1626
  883W        W 4934   6.414   2.578   1.949 -0.2522  0.1496 -0.0332
  884W        W 4935   3.578   5.508   2.905 -0.3969 -0.2190 -0.2020
  885W        W 4936   8.042   4.330   0.779  0.1884 -0.0622  0.2440
  886W        W 4937   6.302   1.404   4.206 -0.2642 -0.1054  0.1138
  887W        W 4938   4.482   0.207   9.360  0.1180  0.1145 -0.0296
  888W        W 4939   0.238   6.466   2.924  0.0292  0.0181 -0.0180
  889W        W 4940   6.720   5.624  12.087 -0.0629  0.0063  0.1586
  890W        W 4941   7.342   5.744   3.895  0.1940 -0.2216 -0.4510
  891W        W 4942   1.580   0.312   2.553  0.1151  0.1789  0.1905
  892W        W 4943   6.536   6.202   1.437  0.1050 -0.2679 -0.0858
  893W        W 4944  10.219   9.016  13.271 -0.2099  0.0483  0.1136
  894W        W 4945   9.981   0.197   0.539  0.2374  0.2010  0.1362
  895W        W 4946   4.590   3.483  13.061 -0.2549  0.1135  0.0004
  896W        W 4947   6.002   9.616  12.089 -0.2785  0.0254  0.0330
  897W        W 4948   3.786   5.753   9.035  0.1364  0.2683 -0.0658
  898W        W 4949   7.723   2.314  10.269 -0.2391 -0.0783  0.2356
  899W        W 4950   1.316   3.546  11.791  0.1678 -0.2608 -0.1420
  900W        W 4951   2.464   4.154   9.849 -0.1110 -0.1710  0.2083
  901W        W 4952   9.878   2.778  11.957  0.1956  0.0565  0.1735
  902W        W 4953   2.876   6.307   2.373  0.0394 -0.0756  0.1635
  903W        W 4954   4.294   9.966   1.064  0.0730 -0.2746  0.1920
  904W        W 4955   8.717   9.019  13.328 -0.2465 -0.0072  0.2165
  905W        W 4956   6.990   6.645   3.713  0.1389  0.1056 -0.3812
  906W        W 4957   0.118   5.305   4.640  0.0472 -0.0067 -0.2477
  907W        W 4958   1.564   8.148   3.807 -0.0355  0.2246  0.0188
  908W        W 4959   6.695   9.471   8.698  0.3587 -0.0300 -0.0981
  909W        W 4960   4.381   2.566   9.979  0.2401 -0.0429 -0.0576
  910W        W 4961   1.774   4.350  11.670 -0.2034 -0.0438  0.0734
  911W        W 4962   5.573   0.452  10.436  0.0086 -0.2603  0.0236
  912W        W 4963   6.446   6.175   9.615 -0.1129  0.0678 -0.0182
  913W        W 4964  10.317   7.159   2.428 -0.0637  0.2509 -0.2097
  914W        W 4965   8.076   4.079  10.766  0.3978 -0.2579  0.2334
  915W        W 4966   1.113   4.298   6.054 -0.0031  0.4750  0.0692
  916W        W 4967   8.066   1.071  12.663  0.1014 -0.2192 -0.1458
  917W        W 4968   5.483   3.294   0.257  0.0538 -0.1021 -0.0613
  918W        W 4969  10.198   0.630   0.035 -0.0479 -0.3414  0.1058
  919W        W 4970   5.153   7.548  11.019 -0.2079  0.0912  0.3330
  920W        W 4971   4.930   5.974  11.473  0.3415 -0.0355 -0.1943
  921W        W 4972   9.614   6.626  10.180  0.0358  0.0996  0.1319
  922W        W 4973   5.770   3.944  10.700  0.0369 -0.0683 -0.0006
  923W        W 4974   5.351   9.090  12.541 -0.3220 -0.0361  0.0414
  924W        W 4975   3.825   9.537   3.423 -0.0163 -0.1571 -0.0618
  925W        W 4976   3.318  10.027   5.099  0.1585  0.1408  0.0015
  926W        W 4977   1.842   0.085  12.800  0.0002  0.1044  0.1987
  927W        W 4978   6.070   9.073   0.299 -0.1321  0.1497  0.2023
  928W        W 4979   0.567   5.203  13.029 -0.0232  0.0617  0.0162
  929W        W 4980   1.805   7.698  11.352 -0.2489 -0.2087  0.2673
  930W        W 4981   9.082   0.761  13.575 -0.1961 -0.0322 -0.0886
  931W        W 4982   8.775   5.989  10.021 -0.0191  0.2062 -0.0744
  932W        W 4983   3.576   4.662   4.404 -0.1516 -0.0428 -0.1651
  933W        W 4984   6.056   8.630   1.310  0.0890 -0.1163  0.0879
  934W        W 4985   0.586   2.386   3.724 -0.3039 -0.0655  0.1087
  935W        W 4986   1.655   4.723   1.830 -0.1677  0.2999 -0.1961
  936W        W 4987   7.554   9.283   3.023  0.1103  0.1030  0.3322
  937W        W 4988   3.700   3.619  12.990  0.2844 -0.0170 -0.1568
  938W        W 4989   2.088   6.408   4.585 -0.1163  0.0554 -0.0606
  939W        W 4990   8.045   7.482   0.315  0.0016  0.2337  0.3751
  940W        W 4991   8.491   8.527   1.122  0.0383  0.0859 -0.0170
  941W        W 4992  10.211   5.990   0.907  0.1807  0.0207 -0.2806
  942W        W 4993   5.644   8.096  12.500 -0.0970 -0.0600 -0.0606
  943W        W 4994   3.940   4.285   3.243 -0.3360 -0.2128 -0.0220
  944W        W 4995   0.707   8.335   9.075  0.3928  0.1364  0.2787
  945W        W 4996   1.628   3.541   2.190  0.0164 -0.1601 -0.3502
  946W        W 4997   6.494   2.673   2.498 -0.2302  0.1907  0.1870
  947W        W 4998   1.195   8.831   4.772  0.1613  0.0761 -0.0347
  948W        W 4999   2.039   2.494   1.568 -0.0027  0.1670  0.0138
  949W        W 5000   4.270   5.111  11.797 -0.1880  0.2563 -0.1450
  950W        W 5001   7.804   6.190  11.782  0.0993  0.3144 -0.0167
  951W        W 5002   3.562   0.126  12.141  0.1436 -0.1424 -0.1005
  952W        W 5003   1.916   2.102  13.061  0.0058 -0.3274  0.0154
  953W        W 5004   9.617   2.153  10.567  0.0133 -0.1523 -0.0295
  954W        W 5005   9.766   6.124   1.828 -0.0245  0.1202 -0.2293
  955W        W 5006   2.837   5.283  12.954  0.2398 -0.0840 -0.1382
  956W        W 5007   1.007   7.189   2.824  0.1010 -0.0162 -0.0355
  957W        W 5008   5.724   7.375  12.809  0.1170 -0.1269  0.2775
  958W        W 5009   0.918   3.967   1.291 -0.1702  0.0772 -0.0881
  959W        W 5010   6.993   8.534   3.964 -0.1456 -0.1984  0.4300
  960W        W 5011   7.060   5.526   8.470  0.0535  0.0572 -0.4963
  961W        W 5012   5.588   1.968  11.660  0.3223 -0.0541  0.2609
  962W        W 5013   1.490   1.211   4.941  0.0530 -0.0100  0.1509
  963W        W 5014   5.631   1.490  10.899 -0.1273 -0.2114 -0.1621
  964W        W 5015   0.048   8.232   0.195  0.1016  0.2408  0.2485
  965W        W 5016   9.911   8.760   3.947  0.3120 -0.2444 -0.1894
  966W        W 5017   1.897   8.818  12.174 -0.3247  0.1011 -0.1106
  967W        W 5018   1.923   7.253  10.147  0.1162 -0.0454  0.2437
  968W        W 5019   7.837   6.578   3.388 -0.0263  0.1873  0.0944
  969W        W 5020  10.284   3.706   5.931 -0.0191  0.1760  0.1031
  970W        W 5021   0.912   1.699   1.578 -0.0825  0.2839 -0.1721
  971W        W 5022   8.858   6.740   3.331  0.4184  0.0738  0.0592
  972W        W 5023   7.128   2.942   0.265  0.2046 -0.2894 -0.3192
  973W        W 5024   3.683   9.556   2.249  0.0961 -0.0020  0.3556
  974W        W 5025   5.763   6.287  12.728 -0.1132 -0.0063 -0.0569
  975W        W 5026   4.739   1.611   0.081  0.3091  0.1905  0.2106
  976W        W 5027   7.680   8.116   3.764 -0.0366  0.0011  0.0159
  977W        W 5028   0.600   2.430  12.823  0.0003  0.3145 -0.1387
  978W        W 5029   7.192   7.330   9.213  0.1291  0.2373 -0.3401
  979W        W 5030   5.628   4.024  12.906 -0.1198  0.2178 -0.2164
  980W        W 5031   8.099   7.616   4.647  0.1382  0.1856 -0.0098
  981W        W 5032   8.498   9.051   1.728  0.0104  0.1952  0.0307
  982W        W 5033   4.688   3.175  11.263 -0.0859  0.1959  0.1397
  983W        W 5034   8.676   4.387   4.480  0.0498 -0.0912  0.4832
  984W        W 5035   0.095   2.485  10.192 -0.1020 -0.1920 -0.2103
  985W        W 5036   0.259   1.312  10.165 -0.0034  0.0081 -0.2211
  986W        W 5037   3.270   7.781   2.162  0.0867 -0.2564  0.4015
  987W        W 5038   4.361  10.040  12.600 -0.1676  0.1131 -0.0051
  988W        W 5039   5.333   7.368   3.611  0.2716 -0.3120 -0.2388
  989W        W 5040   5.716   0.279   1.992  0.1035  0.0455 -0.0592
  990W        W 5041   6.953   8.952   1.549  0.1902 -0.2719  0.4199
  991W        W 5042   5.649   1.884   3.858  0.0862  0.0808 -0.2035
  992W        W 5043   6.541   0.102   4.027  0.2775 -0.0519 -0.1163
  993W        W 5044   6.049   1.262  11.716  0.1786  0.1938  0.0599
  994W        W 5045   3.515   0.176   1.879  0.1131 -0.0018 -0.1009
  995W        W 5046   3.133   9.978  11.353 -0.0299 -0.1242  0.0099
  996W        W 5047   6.068   8.006   0.460  0.1471  0.1634  0.0111
  997W        W 5048  10.266   2.009   6.171  0.1436 -0.0551  0.0037
  998W        W 5049   2.223  10.125   3.518 -0.0524 -0.0245  0.2132
  999W        W 5050   3.395   4.476  13.245  0.3111 -0.1590  0.2777
 1000W        W 5051  10.264   7.202   1.579  0.4736  0.4053 -0.2357
 1001W        W 5052   1.788   2.627  12.182 -0.0284  0.4287  0.0973
 1002W        W 5053   4.913   2.101   1.222 -0.2962  0.1365  0.0609
 1003W        W 5054   9.266   5.840  10.141  0.2386 -0.0067  0.0069
 1004W        W 5055   1.046   4.021   2.832  0.1005  0.0685 -0.1368
 1005W        W 5056   3.245   5.761   4.195 -0.0158 -0.0157  0.1365
 1006W        W 5057   6.874   7.753  11.625  0.4101 -0.0528 -0.0825
 1007W        W 5058   9.439   1.692  13.158  0.0040  0.0797  0.0218
 1008W        W 5059   4.740   0.994  12.881  0.0132 -0.2010  0.2448
 1009W        W 5060   3.362   2.707  13.181 -0.0157 -0.3646  0.2074
 1010W        W 5061   2.230   3.851   1.078  0.1010  0.2382  0.0755
 1011W        W 5062   6.258   8.404  10.673  0.0850 -0.2571  0.0107
 1012W        W 5063   6.970   8.206  13.399 -0.0011  0.0315  0.1818
 1013W        W 5064   6.467   6.686   9.441  0.3634 -0.2146 -0.1597
 1014W        W 5065   5.277   0.619  11.267  0.4015  0.2002  0.2907
 1015W        W 5066   5.569   9.096  11.559  0.0708  0.1672  0.1785
 1016W        W 5067   5.583   8.906  11.074  0.1261 -0.1315  0.0229
 1017W        W 5068   8.167   2.350   1.622 -0.2484 -0.0350 -0.0461
 1018W        W 5069   4.924   4.289  10.001 -0.1675 -0.0465  0.0298
 1019W        W 5070   6.170   8.250   2.238 -0.1429 -0.2113 -0.0698
 1020W        W 5071   9.822   7.579  11.620 -0.0696  0.2256  0.0449
 1021W        W 5072   0.918  10.180  11.914  0.1386 -0.2376  0.1319
 1022W        W 5073   0.400   7.716   4.905 -0.2180 -0.3280  0.0558
 1023W        W 5074   0.770   9.861  11.607  0.2018 -0.1846  0.5628
 1024W        W 5075   4.925   7.275   1.126  0.0424  0.2677  0.0115
 1025W        W 5076   7.057   7.311  12.979 -0.2863  0.0516  0.0636
 1026W        W 5077   3.874   1.538  12.590  0.0403  0.0145 -0.0559
 1027W        W 5078   7.114  10.089   2.689 -0.3582  0.1067 -0.1720
 1028W        W 5079   1.202   6.566   2.787  0.0902  0.0533 -0.0773
 1029W        W 5080   7.855   1.238   3.416  0.0551  0.1800  0.0225
 1030W        W 5081   7.193   2.783   1.658 -0.0353  0.1355  0.1748
 1031W        W 5082   3.656   1.614   2.586 -0.6373  0.2004  0.2133
 1032W        W 5083   6.270   9.302  12.369  0.0993  0.2092 -0.1037
 1033W        W 5084   0.448   6.525   1.388 -0.0630  0.2389 -0.2416
 1034W        W 5085   9.737   3.008   1.239  0.1412 -0.2010 -0.0818
 1035W        W 5086   0.729   2.679   5.567 -0.2627 -0.2474 -0.2601
 1036W        W 5087   8.946   8.423   0.776 -0.1357 -0.2760  0.1759
 1037W        W 5088   2.096   8.375   1.106  0.2684 -0.0683  0.0192
 1038W        W 5089   7.617   0.789   0.810 -0.0200  0.3587 -0.0115
 1039W        W 5090   5.498   7.493   2.112 -0.2588  0.0460  0.0181
 1040W        W 5091   4.732   5.731   2.309 -0.1725 -0.1342  0.3160
 1041W        W 5092   7.062   1.081   1.369 -0.0991  0.0216 -0.0986
 1042W        W 5093   7.585   8.785   1.425 -0.6345  0.2305 -0.2173
 1043W        W 5094   9.993  10.104   1.727  0.1568  0.0346  0.0914
 1044W        W 5095   1.573   2.200   0.823 -0.1964 -0.0565 -0.1533
 1045W        W 5096   0.088   9.934   2.677 -0.1380  0.4802  0.0375
 1046W        W 5097   9.443   4.025  11.846  0.2521 -0.0076 -0.0596
 1047W        W 5098  10.318   3.786   0.930  0.2131 -0.0494 -0.0553
 1048W        W 5099   6.618   0.150  12.949 -0.2538  0.1457 -0.0671
 1049W        W 5100   3.529   8.416  12.850  0.2988 -0.2091  0.0846
 1050W        W 5101   5.989   6.809   2.713  0.0571  0.1036 -0.1088
 1051W        W 5102   3.501   3.950  11.536 -0.1438  0.2573 -0.0887
 1052W        W 5103   5.404   8.051  12.028  0.1440  0.1515 -0.1372
 1053W        W 5104   9.426   6.850   0.328 -0.1444 -0.1598  0.1452
 1054W        W 5105   2.961   8.395   1.013  0.0796  0.1673  0.0973
 1055W        W 5106   0.759   7.701   1.330  0.3896 -0.0036  0.2281
 1056W        W 5107   3.321   6.835   9.819 -0.1368 -0.2149 -0.0368
 1057W        W 5108   0.324   3.196  11.808  0.1097 -0.0376  0.0972
 1058W        W 5109   9.118   6.177   9.099 -0.2842  0.0801  0.2813
 1059W        W 5110   3.164   7.849   4.299  0.0037 -0.0332 -0.1397
 1060W        W 5111   6.599   9.334   0.056 -0.0811 -0.1418  0.1910
 1061W        W 5112   3.720   4.113   0.360 -0.1427 -0.4202  0.2292
 1062W        W 5113   9.934   7.164   3.285  0.0155  0.3485  0.1734
 1063W        W 5114   1.762   2.900   1.391 -0.0336 -0.0130 -0.1759
 1064W        W 5115   8.716   6.482  10.816 -0.2439 -0.0412  0.1299
 1065W        W 5116   7.618   1.598   2.064 -0.1281  0.0634 -0.1004
 1066W        W 5117   3.890   3.394   9.526 -0.0936  0.2516  0.0164
 1067W        W 5118   2.097   0.200   2.304  0.3169  0.1475  0.2307
 1068W        W 5119   3.137   4.444  12.727  0.2130 -0.0482 -0.2326
 1069W        W 5120   5.179   4.470  10.376  0.0024 -0.2622  0.0585
 1070W        W 5121   5.769   1.748   0.698 -0.0701 -0.1066 -0.0702
 1071W        W 5122   0.753   4.272   3.430 -0.1666  0.1630  0.1966
 1072W        W 5123   6.300   0.274   2.181 -0.2720 -0.1599  0.1483
 1073W        W 5124   0.008   2.941   2.475 -0.0715  0.3248  0.1509
 1074W        W 5125   0.376   6.575  13.100  0.3635 -0.1617 -0.1702
 1075W        W 5126   0.346   9.230   3.350 -0.0076  0.3023  0.4894
 1076W        W 5127   3.618   2.399  10.676  0.2828 -0.3864  0.2114
 1077W        W 5128   7.552   0.558   0.311  0.1722 -0.0094  0.0224
 1078W        W 5129   1.402   2.022   2.364 -0.0502  0.1811  0.2562
 1079W        W 5130   8.119   8.378   3.028 -0.2414  0.1582 -0.0106
 1080W        W 5131   8.828   9.977  11.791 -0.1944 -0.2269 -0.0268
 1081W        W 5132   0.685   6.131   1.634 -0.1897  0.3026  0.2828
 1082W        W 5133   2.196   6.199  10.389  0.0952 -0.1311  0.3192
 1083W        W 5134   4.256   0.205  11.489  0.1731  0.0165  0.1875
 1084W        W 5135   1.748   7.466   3.092 -0.1157  0.0871  0.0721
 1085W        W 5136   0.258   8.051  11.973  0.3341  0.1492  0.1572
 1086W        W 5137   9.365   1.258  11.009 -0.1584 -0.1022 -0.1443
 1087W        W 5138   2.893   3.700  10.429  0.1943 -0.1965  0.0432
 1088W        W 5139   3.542   2.160   9.609 -0.1183  0.1205  0.2005
 1089W        W 5140   4.900   3.285   3.525 -0.1006  0.0188 -0.0903
 1090W        W 5141   4.221   7.983   9.581  0.0666 -0.0282  0.0158
 1091W        W 5142   5.133   5.316  12.532 -0.0523 -0.1540 -0.0579
 1092W        W 5143   9.165   7.354  10.320 -0.0795  0.3028  0.3313
 1093W        W 5144   8.019   7.605   1.937 -0.3519  0.1267  0.2967
 1094W        W 5145   9.910  10.307  10.710 -0.1735  0.0335  0.0923
 1095W        W 5146   0.541   7.458  11.936 -0.1378 -0.1492  0.1404
 1096W        W 5147   3.086   4.335   1.379 -0.1133  0.1759  0.0519
 1097W        W 5148   6.880   5.504  12.819  0.0444  0.0216  0.3660
 1098W        W 5149   6.833   6.451   9.712  0.2658  0.0085  0.0915
 1099W        W 5150   0.582   6.668   3.307 -0.1158  0.0103  0.2122
 1100W        W 5151   4.461   6.620   2.370 -0.0668  0.1028  0.0728
 1101W        W 5152   3.455   2.285  12.483 -0.2242 -0.2219 -0.1010
 1102W        W 5153   6.490   0.411   0.188  0.1603 -0.0493  0.0777
 1103W        W 5154   1.562   0.600   0.414 -0.1768 -0.0171  0.0826
 1104W        W 5155   2.845   0.757  11.756 -0.1337 -0.5432 -0.1700
 1105W        W 5156   6.122   4.665   3.239 -0.1081  0.2257 -0.1776
 1106W        W 5157   6.092   9.543   0.033 -0.1408  0.3583 -0.3687
 1107W        W 5158   9.429   5.325   2.362  0.2091 -0.0068  0.2369
 1108W        W 5159   5.926   5.250  12.511  0.2960  0.1348  0.1159
 1109W        W 5160   5.841   9.632  10.663 -0.1972 -0.0409 -0.1072
 1110W        W 5161   5.658   0.171   1.517 -0.1832 -0.2466  0.0608
 1111W        W 5162   4.582   2.142   9.710 -0.2051  0.2207  0.1184
 1112W        W 5163   2.487   5.441  11.543  0.0349  0.2536  0.0001
 1113W        W 5164   5.903   8.595   4.045 -0.0344 -0.2798  0.2382
 1114W        W 5165   4.846   0.913  13.573  0.2533 -0.4247  0.1920
 1115W        W 5166   0.911   4.144   2.339  0.0567  0.2730  0.0365
 1116W        W 5167   0.556   8.440  10.733 -0.0318  0.1793 -0.0210
 1117W        W 5168   2.264  10.082  13.102 -0.1745  0.1570  0.2509
 1118W        W 5169   2.822   0.930   9.307  0.0698 -0.1482 -0.2063
 1119W        W 5170   4.869   1.068  10.012 -0.1569 -0.1397 -0.1176
 1120W        W 5171   1.151   8.609  13.567  0.1098  0.2016 -0.3002
 1121W        W 5172   9.935   8.654   1.570  0.1652  0.0518 -0.0851
 1122W        W 5173   7.548   4.326  11.002  0.2975 -0.0137 -0.0497
 1123W        W 5174   3.372   3.611  13.464  0.2349 -0.4688  0.1901
 1124W        W 5175   5.108   0.726   4.932 -0.0238 -0.1934 -0.0707
 1125W        W 5176   3.112   5.543   1.233 -0.0752  0.2573 -0.1418
 1126W        W 5177   0.952   3.087  11.262 -0.0299 -0.2229 -0.3031
 1127W        W 5178   3.714   3.007   0.517  0.2787  0.1433  0.0058
 1128W        W 5179   9.529   2.982  11.094 -0.0633  0.0530  0.1404
 1129W        W 5180   7.625   0.473   1.609 -0.1296  0.0024  0.2851
 1130W        W 5181   1.651   2.674   5.610 -0.2696  0.0949 -0.1931
 1131W        W 5182   1.348   5.071  12.609 -0.1212  0.1688 -0.3528
 1132W        W 5183   1.343   2.976   2.967  0.0910 -0.1745 -0.0458
 1133W        W 5184   6.643  10.041  12.600  0.0986  0.1005 -0.2612
 1134W        W 5185   7.585   4.823   9.193 -0.1949  0.1124  0.0459
 1135W        W 5186   8.189   7.883   3.097  0.1180 -0.2352  0.0210
 1136W        W 5187   3.366   3.255   4.885 -0.1136  0.1956  0.1432
 1137W        W 5188   8.627   5.413  13.275  0.3272 -0.3214  0.1252
 1138W        W 5189   0.407   4.992   0.659  0.0248  0.0718  0.2403
 1139W        W 5190   0.761   3.068   4.303  0.0289 -0.0468  0.3428
 1140W        W 5191   2.545   8.029   9.966  0.0997  0.1892 -0.0482
 1141W        W 5192   7.641   6.376   2.987 -0.0629 -0.2067  0.0123
 1142W        W 5193   0.825   7.079  11.700  0.1149 -0.0394  0.0677
 1143W        W 5194   5.229   5.054   2.690 -0.1445  0.1219 -0.1002
 1144W        W 5195   5.941   0.240  10.777 -0.0026 -0.1730  0.0339
 1145W        W 5196   1.913   8.975   2.442 -0.1265  0.0496 -0.2814
 1146W        W 5197   2.559   7.407   1.931 -0.3241  0.2370  0.0380
 1147W        W 5198   5.287   1.630  11.260 -0.0050 -0.0338  0.0537
 1148W        W 5199   3.800   4.852   3.887  0.3296 -0.3063 -0.1538
 1149W        W 5200   2.208   5.149   1.117 -0.2092  0.0734  0.0442
 1150W        W 5201   2.842   4.437   0.069  0.0550 -0.4084  0.2185
 1151W        W 5202   8.840   4.639   0.192  0.1478  0.0186  0.2900
 1152W        W 5203   6.579   4.380  12.004 -0.3136  0.0346 -0.1997
 1153W        W 5204   7.826   5.802   8.816 -0.0206 -0.2737 -0.3056
 1154W        W 5205   1.164   6.326  13.436  0.0282 -0.0774  0.0481
 1155W        W 5206   9.087   8.561  13.330  0.0165 -0.2769  0.1535
 1156W        W 5207   9.596   2.455  11.098  0.0093 -0.1628 -0.1395
 1157W        W 5208   2.149  10.241   9.501  0.0115  0.0408  0.2057
 1158W        W 5209   0.401   5.865   9.885 -0.0245  0.0692  0.0512
 1159W        W 5210   4.215   1.210  10.390 -0.1059 -0.1481  0.0070
 1160W        W 5211   3.444   1.364  13.326 -0.3368 -0.1060  0.4063
 1161W        W 5212   1.307   0.983   0.649 -0.1452 -0.0561  0.1399
 1162W        W 5213   2.559   1.518   2.490 -0.0440 -0.2361 -0.0744
 1163W        W 5214   5.094   1.785   3.347  0.2129  0.1596 -0.1311
 1164W        W 5215   7.000   3.732  12.128  0.1271  0.2983  0.3438
 1165W        W 5216   1.384   4.157   0.583 -0.2644  0.0572  0.0528
 1166W        W 5217   7.323   3.472   1.150 -0.0996 -0.1467 -0.2769
 1167W        W 5218  10.314   8.294   1.369 -0.1727 -0.2037  0.1256
 1168W        W 5219   3.326   7.882   9.783 -0.1308 -0.2222 -0.0548
 1169W        W 5220   8.024   4.627   4.805 -0.0098 -0.1080 -0.1985
 1170W        W 5221   4.300   3.221   2.578  0.2021 -0.1952  0.1385
 1171W        W 5222   0.272   9.194   1.917 -0.2791  0.0835  0.0591
 1172W        W 5223   0.583   6.599   0.385  0.0062 -0.1701  0.2607
 1173W        W 5224   0.271   7.079   9.918  0.1862  0.1501  0.1231
 1174W        W 5225   7.737   4.775   2.593 -0.0032 -0.5696 -0.1545
 1175W        W 5226   6.908   5.896  11.257  0.2991 -0.1062  0.0169
 1176W        W 5227   1.052  10.015   4.274  0.1964 -0.3998 -0.0563
 1177W        W 5228   6.710   5.412   8.866 -0.2473  0.1421  0.0727
 1178W        W 5229   1.846   4.027   1.360  0.1998 -0.3443  0.0683
 1179W        W 5230  10.112   9.777   1.350  0.0095 -0.2685 -0.0519
 1180W        W 5231   4.628   8.470   1.405 -0.2439 -0.3464  0.1297
 1181W        W 5232   0.341   2.258   0.498  0.0056 -0.0070 -0.0671
 1182W        W 5233   3.738   0.252  13.357  0.3574 -0.1165 -0.1294
 1183W        W 5234   0.664   8.971   4.836 -0.0670  0.1863  0.2360
 1184W        W 5235   5.154   6.073   1.046  0.1761  0.0206 -0.0356
 1185W        W 5236  10.056   8.596   5.872  0.2802 -0.1416  0.0777
 1186W        W 5237   7.620   9.373  10.685  0.3864 -0.1299 -0.0894
 1187W        W 5238   6.816   6.553  13.024  0.1285 -0.3502  0.0223
 1188W        W 5239   6.454  10.053  11.226  0.0771 -0.1710 -0.2382
 1189W        W 5240   9.016   4.661  10.859 -0.3210  0.0691  0.0152
 1190W        W 5241   0.808   2.461  11.847 -0.1402 -0.0101 -0.1881
 1191W        W 5242   6.172   6.045   0.280  0.2329 -0.1419  0.2760
 1192W        W 5243   4.552   4.020   2.821  0.2118  0.0039  0.2093
 1193W        W 5244  10.059   9.388  12.939 -0.1262 -0.1738 -0.1913
 1194W        W 5245   0.492   8.006   9.928 -0.1564  0.0642 -0.0066
 1195W        W 5246   1.578   6.487  12.644  0.1244 -0.0083  0.1853
 1196W        W 5247   0.620   5.237   2.484  0.1479 -0.0619 -0.1458
 1197W        W 5248   4.796   3.137  10.725 -0.2487  0.0686  0.0421
 1198W        W 5249   6.558   3.874  11.980 -0.1526  0.1101  0.2330
 1199W        W 5250   4.694   2.205   4.031  0.2251  0.1340 -0.0540
 1200W        W 5251   3.762   4.565  10.793  0.1340  0.0668 -0.2138
 1201W        W 5252   1.557   8.725  11.257 -0.3789  0.2656  0.0238
 1202W        W 5253   3.194   8.004   3.155 -0.3047 -0.4398 -0.0903
 1203W        W 5254   5.608   3.009   2.046  0.1459 -0.0960  0.0221
 1204W        W 5255   7.407   2.517  12.210 -0.0023  0.0439  0.0485
 1205W        W 5256   2.635   8.097  12.410  0.0149 -0.1973  0.1842
 1206W        W 5257   2.439   8.903   5.084 -0.0878  0.2860 -0.2689
 1207W        W 5258   2.996   8.221   9.860  0.3167  0.1723  0.1634
 1208W        W 5259   3.812   6.799  11.536 -0.1585  0.0816  0.2690
 1209W        W 5260   9.210   9.572   3.284  0.3513  0.1399 -0.2503
 1210W        W 5261   2.180   4.231   3.140  0.1031  0.2660  0.3424
 1211W        W 5262   2.163   8.607  12.535 -0.3320  0.3273 -0.1545
 1212W        W 5263   6.005   8.553   4.795 -0.1661 -0.0801  0.0862
 1213W        W 5264   5.848   7.875   2.993  0.1969  0.2450  0.1200
 1214W        W 5265   1.716   2.800   1.853 -0.3059  0.1156  0.0223
 1215W        W 5266   2.322   2.683   9.616 -0.2920  0.3668  0.1281
 1216W        W 5267   4.206   8.241  10.643 -0.1823  0.3407  0.2754
 1217W        W 5268   1.032   4.959   1.180 -0.1338  0.0728  0.1168
 1218W        W 5269   4.037  10.233   0.008 -0.1727  0.1870  0.0817
 1219W        W 5270   1.092   6.155   2.577  0.0937  0.2876  0.2193
 1220W        W 5271   3.085   3.759   4.389 -0.0024  0.0781  0.1692
 1221W        W 5272   1.031   6.898   3.259 -0.0908 -0.2190 -0.0770
 1222W        W 5273   5.725   4.326   3.221  0.2335 -0.0639  0.1236
 1223W        W 5274   4.750   7.039  13.258  0.3717  0.0706  0.1861
 1224W        W 5275   5.261   6.486  12.730 -0.2485  0.0435  0.2358
 1225W        W 5276   2.650   8.720   2.252  0.0095 -0.2433 -0.0512
 1226W        W 5277   9.014   1.038  11.839 -0.1681  0.0042 -0.4234
 1227W        W 5278   7.830   0.122  11.407 -0.1553  0.0434 -0.0608
 1228W        W 5279   7.749   3.783   0.240  0.2927  0.0668  0.0599
 1229W        W 5280   0.369   7.506  10.110  0.0928  0.1602  0.1984
 1230W        W 5281   2.546   0.958   1.753 -0.2611 -0.3868 -0.0851
 1231W        W 5282   0.245   8.264   2.345  0.3433 -0.1504  0.1776
 1232W        W 5283   1.115   8.135   2.158 -0.0399  0.1608 -0.1390
 1233W        W 5284   3.702   2.607  12.787 -0.0244  0.0459  0.2091
 1234W        W 5285   8.726   6.965  10.289  0.0471 -0.1136  0.1518
 1235W        W 5286   3.197   7.026  10.646 -0.0673  0.1533 -0.2128
 1236W        W 5287   3.873   0.182  11.134 -0.2976 -0.1130 -0.1582
 1237W        W 5288   2.073   6.939   3.735  0.2379  0.1122 -0.2722
 1238W        W 5289   1.968   6.553  13.477  0.0601 -0.4064  0.2301
 1239W        W 5290   1.168   7.318  13.188  0.0060  0.2126  0.0550
 1240W        W 5291   7.636   0.300  13.308 -0.0530 -0.2054 -0.1898
 1241W        W 5292   9.354  10.044   9.164 -0.0447  0.2510  0.0448
 1242W        W 5293   8.186   2.706   4.036 -0.0180 -0.2006  0.2900
 1243W        W 5294   7.789   0.271  10.935 -0.0046  0.4059 -0.1112
 1244W        W 5295   1.981   1.072   4.652 -0.0095 -0.1207 -0.2501
 1245W        W 5296   0.006   5.721  10.584 -0.2938 -0.3209 -0.1961
 1246W        W 5297   2.448   3.045   9.988 -0.2446  0.0985  0.0121
 1247W        W 5298   2.320   4.820   4.768 -0.1507  0.0023  0.3182
 1248W        W 5299   8.924   5.729   3.528 -0.1334 -0.2340  0.2592
 1249W        W 5300   6.946   9.345  13.198  0.1026 -0.2641  0.1975
 1250W        W 5301   4.702   7.661   0.797 -0.2666 -0.0037 -0.0922
 1251W        W 5302   4.453   6.517   3.245 -0.0191 -0.1618 -0.0942
 1252W        W 5303   3.650   3.487   1.318  0.0692 -0.2335  0.1546
 1253W        W 5304   2.970   3.502  10.917  0.0305  0.0315 -0.1826
 1254W        W 5305   9.405   4.189   1.052  0.0503  0.0147 -0.0037
 1255W        W 5306   6.469   5.874   3.777 -0.0657 -0.0989  0.2342
 1256W        W 5307   9.925   7.600   0.572  0.0857 -0.1277 -0.3194
 1257W        W 5308   2.212   3.621  12.159  0.0217  0.0975  0.0638
 1258W        W 5309   3.963   2.986  11.731  0.0762 -0.0634  0.2722
 1259W        W 5310   8.327   2.938   3.187 -0.2236  0.0331  0.0659
 1260W        W 5311   8.180   7.302   4.145 -0.1080 -0.6934  0.1626
 1261W        W 5312   2.575   0.516   5.371  0.1113  0.1967  0.0139
 1262W        W 5313   8.027   0.739   2.747 -0.4201  0.0984  0.0640
 1263W        W 5314   1.401   7.341   5.815  0.1131  0.0205 -0.4367
 1264W        W 5315   7.037   8.249   3.147 -0.0354 -0.0942  0.0671
 1265W        W 5316   3.544   7.195  11.906  0.1140  0.2233  0.2111
 1266W        W 5317   0.356   2.847   3.155  0.1674  0.1261 -0.1689
 1267W        W 5318   8.670   1.823   3.056  0.2136 -0.6959 -0.3063
 1268W        W 5319   3.674   1.368   0.634  0.1156 -0.1672 -0.1223
 1269W        W 5320   7.824   8.489   8.948 -0.0554 -0.2906  0.2621
 1270W        W 5321   9.128   0.730   4.512 -0.0167  0.2665 -0.1056
 1271W        W 5322   1.869   7.168  10.856  0.0387  0.0563 -0.1028
 1272W        W 5323   6.179   7.650  13.179 -0.1646 -0.2166  0.4426
 1273W        W 5324   2.479   3.730   3.761 -0.1740  0.1389 -0.1430
 1274W        W 5325   2.621   6.626   0.626  0.2381 -0.0267 -0.2563
 1275W        W 5326   5.106   2.022   3.793 -0.2616  0.1080  0.0818
 1276W        W 5327  10.186   1.839  10.759 -0.2414 -0.0578  0.0593
 1277W        W 5328   2.807   8.984   3.389 -0.0085  0.0723  0.0836
 1278W        W 5329   8.799   4.120   0.176 -0.0888  0.0260  0.0024
 1279W        W 5330   5.838   3.804   0.980 -0.1834  0.1093 -0.0295
 1280W        W 5331   1.684   2.347  11.713  0.1106  0.1064 -0.4127
 1281W        W 5332   7.941   5.146   9.419  0.1593 -0.0945  0.1586
 1282W        W 5333   3.498   5.001   2.929 -0.1053  0.1759  0.2464
 1283W        W 5334   5.245   9.744   2.021  0.2499 -0.2361  0.0927
 1284W        W 5335   7.772   5.679   2.963  0.2540 -0.0400  0.1391
 1285W        W 5336   1.112   8.295   3.898 -0.0241  0.0114 -0.2273
 1286W        W 5337   9.072   3.859  11.417 -0.2533  0.0521  0.1228
 1287W        W 5338   2.759   8.482   3.317  0.0347 -0.2566  0.0081
 1288W        W 5339   7.489   7.524   1.169  0.2173 -0.1268  0.1470
 1289W        W 5340  10.163   8.095   3.245 -0.0377 -0.3606  0.0384
 1290W        W 5341   9.553   6.561   4.030  0.1592 -0.1905 -0.0125
 1291W        W 5342   5.363   4.008  11.947  0.0698  0.1620 -0.1700
 1292W        W 5343   3.510   3.907   9.222  0.0754  0.0121 -0.0706
 1293W        W 5344   6.162   6.155   2.278 -0.0929  0.2088 -0.1861
 1294W        W 5345   9.612   3.359  10.761  0.3487 -0.1053  0.0900
 1295W        W 5346   4.689   4.414   2.507 -0.0828 -0.1369  0.0990
 1296W        W 5347   3.285   0.317   9.880 -0.0177 -0.0698  0.2094
 1297W        W 5348   3.068   6.725   0.860 -0.0931 -0.1715 -0.0486
 1298W        W 5349   5.498   2.957   3.044  0.0145 -0.4007 -0.2218
 1299W        W 5350   0.770   4.117   0.281  0.3134  0.2145  0.2818
 1300W        W 5351   6.788   6.299   2.651  0.0441  0.1675 -0.1011
 1301W        W 5352   5.777   3.446  12.554 -0.6400  0.1387  0.0323
 1302W        W 5353   0.165   0.391   3.348  0.1622 -0.0952  0.0725
 1303W        W 5354   9.729   6.158  10.379  0.1007 -0.0169  0.0103
 1304W        W 5355   3.089   4.723   3.243  0.1859 -0.0820  0.0719
 1305W        W 5356   8.138   1.030  11.431 -0.0702  0.2489  0.0756
 1306W        W 5357   6.182   0.942   3.796  0.1572  0.1102 -0.2816
 1307W        W 5358   5.883   6.545  12.246  0.0917 -0.0670 -0.0271
 1308W        W 5359   8.254   8.966   4.108  0.0522 -0.0511  0.0586
 1309W        W 5360   6.962   7.494   1.418  0.0235 -0.0929  0.3863
 1310W        W 5361   6.004   4.704   9.835 -0.1009 -0.0566 -0.0537
 1311W        W 5362   4.434   6.752  11.612 -0.0212  0.0706  0.0517
 1312W        W 5363   9.004  10.210   2.786  0.1536  0.2110  0.1046
 1313W        W 5364   9.182   1.413   2.500 -0.0225 -0.1351  0.2001
 1314W        W 5365   7.185   4.108   3.714  0.0584  0.2854  0.4431
 1315W        W 5366   9.060   1.394   4.953 -0.0171 -0.2463 -0.0212
 1316W        W 5367   3.292  10.141   0.442  0.0065 -0.3848  0.0914
 1317W        W 5368   2.186   8.428  11.322  0.0426  0.0736  0.2355
 1318W        W 5369  10.026   7.092   0.314  0.0139  0.3104 -0.0757
 1319W        W 5370   9.699   2.222  12.055 -0.0674 -0.3947  0.1059
 1320W        W 5371   1.651   6.149  10.747 -0.0472  0.0512 -0.2446
 1321W        W 5372   9.471   2.697   0.919  0.0091  0.1815  0.1363
 1322W        W 5373   3.625   1.954   0.867 -0.2916  0.1614  0.1480
 1323W        W 5374   1.210   5.991  11.022 -0.3616 -0.1302 -0.0314
 1324W        W 5375   2.107   3.423   3.605  0.1355 -0.2764  0.0547
 1325W        W 5376   8.009   4.506  12.041 -0.0797 -0.0648 -0.0071
 1326W        W 5377   1.074   5.352  12.222  0.0156 -0.2473  0.2364
 1327W        W 5378   4.381   2.454   3.649  0.2899  0.0370 -0.0738
 1328W        W 5379   2.951   7.278   0.803  0.0494 -0.0603 -0.1931
 1329W        W 5380   1.495   1.086   2.107 -0.2440 -0.2095  0.2032
 1330W        W 5381   9.380   5.531   3.806  0.3189 -0.1629 -0.1057
 1331W        W 5382   4.352   5.300   9.133 -0.0325  0.2919 -0.2556
 1332W        W 5383   0.303   1.577  12.556 -0.3020 -0.1040  0.0768
 1333W        W 5384   2.088   1.296   2.568 -0.0553  0.1892  0.4860
 1334W        W 5385   0.610   3.828  13.123 -0.0430 -0.1238 -0.0464
 1335W        W 5386   4.628   1.076   9.305 -0.2121  0.3665 -0.1213
 1336W        W 5387   6.815   4.946  11.878  0.2357 -0.0471 -0.1404
 1337W        W 5388   9.694   2.166  13.181 -0.1661 -0.1941 -0.2304
 1338W        W 5389   6.159   4.870  10.915 -0.1926 -0.1297 -0.1831
 1339W        W 5390   5.308   0.640   4.323 -0.2554 -0.0352  0.0529
 1340W        W 5391   0.342   8.246  12.784  0.1527 -0.2098  0.2135
 1341W        W 5392   6.493   4.831   2.855  0.0890  0.0994 -0.0313
 1342W        W 5393   7.910   2.730  12.178 -0.1096  0.1956 -0.1622
 1343W        W 5394   8.272  10.251  11.405  0.0896 -0.0641  0.0420
 1344W        W 5395   3.008   0.882   1.360 -0.1094  0.1485 -0.2278
 1345W        W 5396   8.173   3.148  13.336  0.2661 -0.3724  0.0584
 1346W        W 5397  10.138   1.528  12.523  0.2658  0.0770 -0.0958
 1347W        W 5398   6.188   1.731   1.493  0.0538 -0.0971  0.1062
 1348W        W 5399   7.366   7.349  12.596  0.3240  0.0559 -0.0815
 1349W        W 5400   1.548   9.499  11.982  0.1783  0.0124 -0.1247
 1350W        W 5401   3.689   8.154   2.939 -0.0790 -0.0476  0.1191
 1351W        W 5402   9.545   1.737   2.534 -0.0168 -0.0338  0.0505
 1352W        W 5403   5.042   1.399   1.781  0.0038  0.1335 -0.0420
 1353W        W 5404   0.201   1.662   3.557  0.1125  0.0940  0.1012
 1354W        W 5405   2.478   8.507  13.456  0.2391  0.5280  0.1976
 1355W        W 5406  10.301   4.530   5.253  0.0363 -0.1042 -0.2559
 1356W        W 5407   3.821   4.142  12.277  0.2647  0.2383 -0.1969
 1357W        W 5408   0.125   0.200   3.938  0.1683 -0.2210  0.2883
 1358W        W 5409   4.376   2.767   0.001  0.2983  0.3178  0.0361
 1359W        W 5410   8.654   2.415   3.907  0.0197 -0.1012  0.1464
 1360W        W 5411   6.160   6.158  10.104  0.0910 -0.0037 -0.0335
 1361W        W 5412  10.187   3.544  10.579 -0.0477  0.1760 -0.0475
 1362W        W 5413   3.005   5.872  12.134 -0.0979  0.0054 -0.2482
 1363W        W 5414   5.074   3.243   3.047  0.0637  0.3547 -0.0256
 1364W        W 5415   2.750   9.411   4.321  0.1412  0.0042  0.2495
 1365W        W 5416   1.100   7.349   3.810 -0.2778  0.1953  0.0419
 1366W        W 5417   3.362   0.290   3.132 -0.3137  0.1433  0.0501
 1367W        W 5418   5.093   9.408  11.694  0.0545  0.0146  0.1464
 1368W        W 5419   9.820   1.024   0.049  0.2896 -0.1299 -0.3452
 1369W        W 5420   9.669   7.903  12.050 -0.2364 -0.1543 -0.0918
 1370W        W 5421   0.032   2.271   3.056  0.1308 -0.1508  0.0205
 1371W        W 5422   6.856   6.642  13.508 -0.2464  0.3109 -0.0436
 1372W        W 5423   5.684   9.258   3.411  0.1740 -0.1352 -0.1907
 1373W        W 5424   4.569   3.579  12.395 -0.1088  0.2217  0.0283
 1374W        W 5425   3.702   0.234   2.721 -0.1533  0.1410  0.0477
 1375W        W 5426   0.466  10.243   4.974  0.0567  0.1058  0.3544
 1376W        W 5427   0.192   9.100  11.186  0.0398  0.2163  0.1709
 1377W        W 5428   0.127   1.542   4.009  0.2761  0.0971  0.0835
 1378W        W 5429   3.404   1.400   1.736 -0.3111 -0.2588 -0.1898
 1379W        W 5430   6.757   7.188  11.574  0.1497  0.3377 -0.1895
 1380W        W 5431   0.419   4.410   2.026 -0.1725  0.2350 -0.0856
 1381W        W 5432   5.153   1.193  13.167  0.1044  0.1843  0.2320
 1382W        W 5433   5.023   3.377   0.886  0.0156 -0.0862 -0.2189
 1383W        W 5434   4.389   4.053  10.085 -0.2431  0.1746  0.4783
 1384W        W 5435  10.113   4.338   3.741 -0.2276 -0.2071  0.1003
 1385W        W 5436   6.987   3.589  13.223  0.0980 -0.1158  0.0556
 1386W        W 5437   9.566   1.150   5.017 -0.1575  0.3509  0.1055
 1387W        W 5438   8.856   1.884  13.474  0.3124 -0.0359  0.2694
 1388W        W 5439   9.911   0.182  12.362  0.0724  0.1848  0.0960
 1389W        W 5440   6.653   3.936  12.944  0.2978 -0.1101 -0.0879
 1390W        W 5441   7.166   8.795   1.104  0.2443  0.2736 -0.2584
 1391W        W 5442   5.039   3.728   3.083  0.0515 -0.5517  0.1051
 1392W        W 5443   1.318   1.772   5.753  0.1847  0.2522  0.2074
 1393W        W 5444   2.009   5.699  11.279  0.1859  0.2914  0.1081
 1394W        W 5445   5.580   6.048   6.035 -0.1933 -0.0347 -0.0311
 1395W        W 5446   7.316   3.001   2.495  0.1393 -0.1870  0.1328
 1396W        W 5447   2.548   3.105   8.933  0.0931  0.0800  0.2994
 1397W        W 5448   2.766   3.385   9.848 -0.1877  0.0462  0.2008
 1398W        W 5449   2.600   9.005   4.583  0.2618  0.0503 -0.2554
 1399W        W 5450   9.759   5.913  13.092 -0.2252  0.0325  0.1063
 1400W        W 5451   8.612   7.050  12.099 -0.2256 -0.1013 -0.1659
 1401W        W 5452   1.790   6.739  11.365  0.0805 -0.0426 -0.1082
 1402W        W 5453   9.064   0.503   2.706  0.0407  0.0515  0.1841
 1403W        W 5454   4.671   0.632   1.507 -0.4027 -0.1834 -0.0578
 1404W        W 5455   1.029   2.373   0.870 -0.0103 -0.0150 -0.0295
 1405W        W 5456   6.330   4.798  11.894  0.2669 -0.0440  0.0576
 1406W        W 5457   5.372   7.991   0.402  0.4933  0.0775 -0.2183
 1407W        W 5458   0.236   1.695  13.065 -0.2184 -0.2418  0.1286
 1408W        W 5459   1.295   3.003   0.843  0.2788  0.1313  0.0711
 1409W        W 5460   1.490   7.897   3.037  0.1078  0.1704  0.0817
 1410W        W 5461   1.817   9.163  13.169 -0.2200 -0.0950 -0.0614
 1411W        W 5462   0.582   0.403   4.787  0.2468  0.0627 -0.0061
 1412W        W 5463   7.451   2.073   2.631  0.0740  0.4257  0.0817
 1413W        W 5464   8.021   0.204  10.498 -0.0294  0.1861  0.1547
 1414W        W 5465   2.902   6.654  13.543 -0.1156 -0.3290  0.0354
 1415W        W 5466   6.766   8.412  13.006 -0.2559 -0.0840 -0.2685
 1416W        W 5467   8.941   7.678  10.804 -0.2670  0.0719  0.4933
 1417W        W 5468   2.656   0.114   2.191 -0.0057  0.2101  0.1228
 1418W        W 5469   1.962   5.192  11.183  0.1692 -0.4456 -0.1277
 1419W        W 5470   2.584   3.750   0.621 -0.1050  0.0197  0.1414
 1420W        W 5471   6.028   2.855   2.140 -0.0667  0.0672 -0.0854
 1421W        W 5472   7.607   1.337  10.502 -0.0220 -0.5344  0.1077
 1422W        W 5473   6.069   0.822  12.063 -0.1390  0.4912 -0.0093
 1423W        W 5474   5.957   3.727   0.040 -0.0417  0.2009 -0.0146
 1424W        W 5475   8.654   5.797   0.452 -0.0073  0.0953 -0.2098
 1425W        W 5476   4.367   5.231   0.030 -0.2066  0.2840 -0.0701
 1426W        W 5477   6.270   3.850  10.850  0.1168  0.0659 -0.0224
 1427W        W 5478   3.153   1.083  13.071  0.2296  0.0837  0.0594
 1428W        W 5479   2.977   5.342   4.199  0.0122 -0.2461  0.0759
 1429W        W 5480   0.264   5.024   3.826 -0.1109  0.1738 -0.1624
 1430W        W 5481   4.336   7.982   4.950 -0.0015  0.0623 -0.1243
 1431W        W 5482   5.746   6.684  10.562  0.0835  0.0816 -0.1187
 1432W        W 5483   3.939   0.962   0.791  0.0734  0.0050 -0.1588
 1433W        W 5484   0.622   2.651  10.066  0.3634 -0.0503  0.2272
 1434W        W 5485   3.775   1.764   3.502 -0.3294  0.1337  0.2086
 1435W        W 5486   9.393   6.110  11.931 -0.0271  0.1584 -0.1603
 1436W        W 5487   6.445   3.635   3.330 -0.0828 -0.2162  0.1636
 1437W        W 5488   7.649   6.115  12.962  0.1403  0.1415 -0.6208
 1438W        W 5489   7.774   0.259   1.051 -0.0441 -0.1308 -0.3082
 1439W        W 5490   5.945   7.213   8.922 -0.0865 -0.0884 -0.0373
 1440W        W 5491   4.556   9.384  13.305 -0.3327  0.4055 -0.0354
 1441W        W 5492  10.148   9.754  10.713  0.1161 -0.1325  0.1500
 1442W        W 5493   7.950  10.226   2.587 -0.2457 -0.2357  0.2599
 1443W        W 5494   1.678   6.862   4.135 -0.0282  0.0277  0.1403
 1444W        W 5495   2.301  10.293  12.021  0.1122  0.2902 -0.1381
 1445W        W 5496   7.103   5.216   2.563 -0.4711  0.0341  0.0986
 1446W        W 5497   5.773   8.352   3.084 -0.3281 -0.0600  0.1628
 1447W        W 5498   6.984   2.422   0.325  0.1154  0.1677 -0.2053
 1448W        W 5499   5.258   9.723  10.867 -0.4089 -0.1980 -0.0340
 1449W        W 5500   7.668   8.862   5.002  0.0775 -0.0163  0.0590
 1450W        W 5501   8.761   6.187   8.380 -0.1018 -0.5613  0.0309
 1451W        W 5502   6.119   2.138  11.173  0.1077 -0.0244 -0.1161
 1452W        W 5503   3.053   8.331  11.626  0.0382  0.3893 -0.2544
 1453W        W 5504   8.703   1.310   3.016  0.0104  0.0447 -0.1118
 1454W        W 5505   0.103   7.667   3.467 -0.3716 -0.1896  0.2052
 1455W        W 5506   9.593   8.330   3.804  0.0977 -0.2207  0.2957
 1456W        W 5507   9.103   8.490   9.291 -0.1178 -0.0794 -0.0243
 1457W        W 5508   2.901   7.239   1.439  0.2375 -0.3117 -0.1448
 1458W        W 5509   9.534   1.732   4.334  0.2587  0.0920  0.0132
 1459W        W 5510   3.714   3.770   3.344 -0.0454  0.1012 -0.2999
 1460W        W 5511   5.142   0.153  11.424 -0.2734  0.0051 -0.1532
 1461W        W 5512   3.851   5.555   2.225  0.0553 -0.0575 -0.0036
 1462W        W 5513   5.186  10.267  10.615 -0.0467 -0.1711  0.1669
 1463W        W 5514   6.999   2.510  12.866 -0.0365 -0.0686 -0.3447
 1464W        W 5515   6.123   9.801  12.621  0.0590 -0.0318 -0.1091
 1465W        W 5516   2.353   5.502  13.355 -0.1227 -0.0367 -0.1310
 1466W        W 5517   3.714   4.405   1.742 -0.1370 -0.2725  0.1873
 1467W        W 5518  10.137   2.910   2.032 -0.0959  0.0931  0.0452
 1468W        W 5519   3.415   3.050  11.699 -0.2050 -0.0339 -0.2498
 1469W        W 5520   0.316   4.937  12.158 -0.1903 -0.1095 -0.2844
 1470W        W 5521   9.489   4.681   1.233 -0.0160 -0.2161 -0.1357
 1471W        W 5522   8.702   0.235   2.891  0.1082  0.0786 -0.2042
 1472W        W 5523   6.991   1.911   2.576 -0.1278 -0.2404  0.2824
 1473W        W 5524   9.463   4.686  10.641 -0.0637 -0.1190  0.1093
 1474W        W 5525   6.746   8.061   9.297 -0.5312 -0.1573  0.2145
 1475W        W 5526   0.112   6.255  12.298  0.0598 -0.0913 -0.2372
 1476W        W 5527   1.154   3.460   2.959  0.0154  0.1407 -0.2703
 1477W        W 5528   2.670   8.904   9.589 -0.2047  0.0633  0.1593
 1478W        W 5529   8.241   7.275  12.555 -0.1883  0.0567  0.0774
 1479W        W 5530   0.887  10.225   0.276  0.2593 -0.1411  0.0184
 1480W        W 5531   9.473   0.691  13.081  0.0498  0.2132  0.0811
 1481W        W 5532   8.860   5.566   4.104  0.0851  0.2465 -0.2047
 1482W        W 5533   9.957   9.533   0.058 -0.0671  0.1592 -0.0396
 1483W        W 5534   6.161   9.695   1.843  0.0293 -0.0476 -0.0384
 1484W        W 5535   8.396  10.321  11.984  0.4346 -0.3670 -0.0872
 1485W        W 5536   6.630   5.787   0.497 -0.0491 -0.0063  0.0418
 1486W        W 5537   1.826  10.174  12.332  0.0345 -0.0700 -0.3815
 1487W        W 5538   8.886   9.498   9.538  0.0398 -0.0199 -0.0094
 1488W        W 5539   3.635   7.703   2.509 -0.2610  0.1052  0.0150
 1489W        W 5540   5.129   9.248  13.431  0.2717 -0.1016 -0.1295
 1490W        W 5541   8.069  10.115   5.244  0.2595  0.0592 -0.0561
 1491W        W 5542   3.435   1.914   1.626 -0.1439 -0.1902 -0.2413
 1492W        W 5543   4.966   2.286   4.769 -0.2767 -0.0005 -0.2343
 1493W        W 5544   1.613   5.550   0.239  0.0975 -0.0646 -0.0109
 1494W        W 5545   4.427   2.028   5.083  0.0901 -0.2054  0.4071
 1495W        W 5546   7.494   2.460  12.690 -0.1081 -0.1565 -0.1750
 1496W        W 5547   2.444   8.817   0.342  0.2428 -0.4007  0.0414
 1497W        W 5548   3.725   1.744   9.939  0.1434 -0.1052  0.0614
 1498W        W 5549   8.881  10.309   1.925  0.2729  0.0987 -0.3144
 1499W        W 5550   7.219   1.791   3.120  0.1840  0.3132  0.1149
 1500W        W 5551   6.753   1.880   3.980  0.0010  0.2799  0.3510
 1501W        W 5552   3.995   1.093   0.279  0.1708  0.5132  0.1693
 1502W        W 5553   7.236   6.337   8.189  0.2788 -0.0141 -0.1076
 1503W        W 5554   0.952   7.062   8.725  0.1754 -0.1959 -0.0024
 1504W        W 5555   8.669   1.583   2.619 -0.1625 -0.2496 -0.0093
 1505W        W 5556   1.971  10.085   2.902 -0.1660  0.2409  0.2102
 1506W        W 5557   8.714   2.691   4.790  0.1115  0.1157 -0.4627
 1507W        W 5558   4.642   2.270   3.011 -0.0792 -0.0631 -0.3390
 1508W        W 5559   0.345   1.751   2.138 -0.5039  0.1039  0.2621
 1509W        W 5560   9.367   9.734   9.645 -0.2791  0.3745 -0.0044
 1510W        W 5561   2.824   8.662   4.301 -0.1029  0.1914 -0.0890
 1511W        W 5562   0.497   8.535   9.617 -0.3163 -0.0251 -0.3435
 1512W        W 5563   2.460   2.748  10.402  0.0164  0.0981  0.0822
 1513W        W 5564   9.422  10.143  12.624  0.1701 -0.1933 -0.1439
 1514W        W 5565   8.613   5.559  11.443 -0.2263 -0.2431 -0.2365
 1515W        W 5566   5.491   2.042   3.401 -0.0187 -0.2494 -0.2575
 1516W        W 5567   0.905   4.852  10.184 -0.2046  0.1687  0.1464
 1517W        W 5568   5.837   7.867   2.385 -0.1271 -0.0980 -0.1396
 1518W        W 5569   9.948   9.092   5.152 -0.2358  0.5980  0.2380
 1519W        W 5570   2.709   9.421   9.820  0.0772 -0.0262 -0.2016
 1520W        W 5571   7.856   6.490   9.796 -0.0934  0.0776  0.0649
 1521W        W 5572   9.783   5.560  12.577 -0.1150  0.1527 -0.0056
 1522W        W 5573   3.087   2.493  10.837 -0.3063  0.0125 -0.3340
 1523W        W 5574   6.070   4.916   2.630 -0.4561 -0.2247  0.1829
 1524W        W 5575   0.307   7.980   0.598 -0.0270 -0.2586 -0.0964
 1525W        W 5576   7.282   2.308   3.129 -0.1032  0.0355 -0.3481
 1526W        W 5577   1.563   2.955   4.096  0.1013 -0.0919  0.2293
 1527W        W 5578   2.844   2.079   2.276  0.1603  0.0394 -0.0662
 1528W        W 5579   1.365   0.640  11.857 -0.0461  0.1185  0.0605
 1529W        W 5580   6.900   6.859  12.113  0.1282  0.3065 -0.2076
 1530W        W 5581   2.881   4.020  13.361  0.0168  0.2149 -0.2249
 1531W        W 5582   2.918   7.770   2.787  0.1001  0.0648 -0.1716
 1532W        W 5583   8.310   1.456  11.188 -0.0783  0.0099  0.0328
 1533W        W 5584  10.021   2.590   2.931 -0.0858  0.0421 -0.2815
 1534W        W 5585   7.647   9.163  12.583  0.0886 -0.1867  0.1945
 1535W        W 5586   5.616   4.891   9.598 -0.0222  0.1694  0.1518
 1536W        W 5587   5.552   9.832  13.005  0.4089  0.0035  0.3850
 1537W        W 5588   8.820   3.257  10.792  0.1611  0.2024  0.2541
 1538W        W 5589   2.300   8.262  12.904  0.0960  0.2287  0.0153
 1539W        W 5590   4.709   2.141  13.034 -0.0032 -0.3112  0.0561
 1540W        W 5591   5.680   4.414   0.309  0.2741 -0.0156 -0.1136
 1541W        W 5592   0.820   4.711   0.794  0.1475  0.0457 -0.1956
 1542W        W 5593   9.341  10.234   0.986  0.3364 -0.1225 -0.1672
 1543W        W 5594   0.138   7.101   3.366  0.0060 -0.3398 -0.0720
 1544W        W 5595   1.707   3.758   0.900 -0.1788 -0.2548  0.3076
 1545W        W 5596   7.330   3.938   2.678  0.2329  0.0872  0.0480
 1546W        W 5597   0.951   0.056   0.880 -0.3894 -0.1267 -0.2230
 1547W        W 5598   8.696   0.916   1.764  0.1052 -0.0941  0.2825
 1548W        W 5599   5.409   3.657  11.056  0.1677  0.0986  0.0675
 1549W        W 5600   5.054   4.337   0.245 -0.1834  0.0299 -0.2387
 1550W        W 5601   5.352   5.831   9.622 -0.0130  0.2434  0.0636
 1551W        W 5602   6.116   0.246   5.847 -0.2308  0.0674 -0.1469
 1552W        W 5603   7.012   3.870  11.592  0.3186  0.0352  0.0557
 1553W        W 5604   8.969   9.514  12.020 -0.1840 -0.0533  0.0476
 1554W        W 5605   1.654   6.360   9.020 -0.3358  0.0563 -0.1072
 1555W        W 5606   3.235   6.278   4.117  0.1923 -0.0283  0.0031
 1556W        W 5607   1.147  10.038   1.842 -0.1275  0.0857 -0.3419
 1557W        W 5608   5.006   1.050  12.034 -0.2299  0.0432  0.2791
 1558W        W 5609   2.289   5.780   3.518  0.0332  0.1560  0.0409
 1559W        W 5610   0.488  10.201  12.145  0.3046  0.2279  0.3258
 1560W        W 5611   5.793   4.787   1.143 -0.3396 -0.0311  0.2673
 1561W        W 5612   3.150   4.942  12.672 -0.1177  0.2821 -0.2514
 1562W        W 5613   0.731  10.054  13.356 -0.1207 -0.0646  0.0412
 1563W        W 5614   3.958   3.889   1.278  0.0342 -0.3439 -0.0863
 1564W        W 5615   9.495   1.147  12.011 -0.0372 -0.1720  0.2947
 1565W        W 5616   4.741   5.701  10.934 -0.1344  0.0559 -0.2873
 1566W        W 5617   5.190   0.234   1.784 -0.0872  0.0428  0.0444
 1567W        W 5618   4.900   4.894  12.004  0.1533  0.0477  0.0281
 1568W        W 5619   0.617   8.648   3.136  0.2780  0.1345 -0.0685
 1569W        W 5620   4.791   4.814  10.596 -0.2040  0.1416 -0.0975
 1570W        W 5621   4.104   9.697   3.053  0.1519 -0.2767  0.1843
 1571W        W 5622   8.349   6.777   3.079  0.0243 -0.0699 -0.1806
 1572W        W 5623   0.041   5.449   0.862 -0.2294  0.0855 -0.1992
 1573W        W 5624   6.948   1.558  12.761 -0.0418 -0.1270  0.2073
 1574W        W 5625   6.025   2.542  12.532 -0.1444 -0.3385  0.1363
 1575W        W 5626   1.278   9.937  12.390  0.0227 -0.2126  0.0516
 1576W        W 5627   8.528   6.608   5.040  0.3068  0.2302  0.2322
 1577W        W 5628   6.596   4.995   1.154 -0.1290 -0.1551 -0.0645
 1578W        W 5629   6.570   5.548  10.184 -0.2878 -0.1632  0.0706
 1579W        W 5630   5.062   3.574  10.752 -0.2269  0.0920 -0.0035
 1580W        W 5631   9.362   1.960  13.584  0.1700 -0.1243 -0.1117
 1581W        W 5632   4.480   9.897  13.142  0.2887  0.1844 -0.0606
 1582W        W 5633   5.367   3.252   2.348  0.3042  0.0163 -0.1828
 1583W        W 5634   4.462   0.621  12.716 -0.1241 -0.1218 -0.0797
 1584W        W 5635   3.379   2.837  10.262 -0.1817  0.1120  0.2495
 1585W        W 5636   4.382   2.487  11.809  0.0841 -0.1539 -0.2588
 1586W        W 5637   6.579   3.966   2.976 -0.0767 -0.1738  0.0350
 1587W        W 5638   1.532   7.013   2.896 -0.1010 -0.0697  0.0579
 1588W        W 5639   6.767   6.586   1.615 -0.0701 -0.0121 -0.2811
 1589W        W 5640   9.579   8.203  10.130  0.0845 -0.0562  0.1373
 1590W        W 5641   4.476   9.388   3.047 -0.1140  0.0510 -0.4660
 1591W        W 5642   6.570   8.522  10.115 -0.2587  0.2111 -0.2544
 1592W        W 5643   2.552   2.405   0.343 -0.0160  0.1304  0.0383
 1593W        W 5644   0.341   2.198  13.195 -0.3756  0.1568  0.1838
 1594W        W 5645   3.699   5.357  12.012  0.0596  0.0235  0.1466
 1595W        W 5646   6.349   6.560   2.456 -0.0558 -0.2468  0.0680
 1596W        W 5647   7.052   9.321   0.229 -0.0534  0.1361 -0.0547
 1597W        W 5648   0.563   9.708  12.051  0.2573  0.0894 -0.1011
 1598W        W 5649   1.004   0.644   4.706  0.2309  0.0526  0.2431
 1599W        W 5650  10.005   3.344   0.366  0.1698 -0.2268 -0.0229
 1600W        W 5651   5.587   4.082  13.395 -0.2930  0.1570  0.0861
 1601W        W 5652   1.501   0.885   3.768  0.0759  0.0915 -0.0796
 1602W        W 5653   5.220   8.343   4.516  0.0903 -0.0396  0.1115
 1603W        W 5654   4.910   7.198   3.293 -0.1705 -0.0018  0.3245
 1604W        W 5655   8.213   7.266   1.538 -0.0828 -0.0154 -0.0573
 1605W        W 5656   8.863   5.521  10.279  0.2072 -0.0055 -0.0038
 1606W        W 5657   1.260   9.397   0.345 -0.1853  0.0710  0.0998
 1607W        W 5658   8.460   3.615   5.475  0.4018 -0.0887  0.0722
 1608W        W 5659   9.181   1.635  11.287  0.0685  0.0656  0.0315
 1609W        W 5660   5.233   0.594   0.748 -0.0384 -0.1118 -0.1497
 1610W        W 5661   0.904   1.525  10.442  0.2107 -0.2711 -0.1611
 1611W        W 5662   5.428   9.760   4.655 -0.0185 -0.0633 -0.0459
 1612W        W 5663   9.189   6.811   4.631 -0.1579  0.0082  0.1941
 1613W        W 5664   8.419   4.899   0.379  0.0405 -0.0349  0.0133
 1614W        W 5665   2.380   7.313   2.511 -0.0819  0.0974 -0.0143
 1615W        W 5666   1.421   1.552   3.047  0.1825 -0.0673  0.2972
 1616W        W 5667   9.986   9.256   3.734  0.0117  0.1684 -0.0151
 1617W        W 5668   7.742   8.337  11.620  0.0104  0.2202  0.0480
 1618W        W 5669   1.042   3.511   1.606 -0.0969  0.0820  0.0923
 1619W        W 5670   9.692   8.787  12.368 -0.0083 -0.3028 -0.1983
 1620W        W 5671   1.778   9.224   9.508 -0.6343 -0.0115 -0.0801
 1621W        W 5672   7.321   1.289  11.545  0.1502 -0.2272 -0.0485
 1622W        W 5673   5.379   0.070   9.453  0.1487  0.1908  0.0434
 1623W        W 5674   0.712   4.885  11.262 -0.1312 -0.0219  0.3383
 1624W        W 5675   5.519   7.550  12.320 -0.2597  0.1667  0.2971
 1625W        W 5676   9.461   7.117   1.390  0.0837 -0.0332 -0.2537
 1626W        W 5677   2.598   5.524   4.653  0.0210  0.2463 -0.0628
 1627W        W 5678   3.226   7.486  12.961 -0.1153  0.3520 -0.2087
 1628W        W 5679   4.942   5.025  11.047 -0.1155  0.0436  0.1145
 1629W        W 5680  10.096   0.544  10.020  0.3541 -0.2717 -0.0405
 1630W        W 5681   2.355   0.639  11.862  0.0975  0.0448 -0.0321
 1631W        W 5682  10.213   4.816   2.601 -0.0735  0.1287  0.1134
 1632W        W 5683  10.313   9.411   2.747  0.3669 -0.1150  0.2893
 1633W        W 5684   0.266   8.276  13.271  0.0258 -0.0501 -0.0046
 1634W        W 5685   9.033   5.230   3.222 -0.0052 -0.0606 -0.1402
 1635W        W 5686   3.810   8.942   0.827  0.0197  0.1815  0.0734
 1636W        W 5687   0.139   4.100  12.070  0.3830  0.1058 -0.0116
 1637W        W 5688   1.683   9.135   3.998  0.1651  0.1693 -0.3570
 1638W        W 5689   2.796   9.576  10.941 -0.0499  0.6217 -0.0320
 1639W        W 5690   9.312   0.156   4.117  0.2489 -0.1782 -0.1666
 1640W        W 5691   5.551   1.025  12.100 -0.1009 -0.3098  0.2190
 1641W        W 5692   2.879  10.233   2.617  0.2932 -0.3217  0.0779
 1642W        W 5693   4.479   6.055  12.338  0.2469 -0.2181 -0.0758
 1643W        W 5694   9.242   8.993  13.133 -0.0391 -0.1197  0.0981
 1644W        W 5695   2.686   7.944   9.417 -0.0849  0.1392  0.0244
 1645W        W 5696   9.231   8.650   4.272  0.0281  0.0665  0.0874
 1646W        W 5697   5.080   1.651  13.276  0.0929  0.0375 -0.1326
 1647W        W 5698   2.022   7.347   4.072  0.2663  0.1379 -0.0063
 1648W        W 5699   2.689   5.825   4.300 -0.1119  0.1218  0.0298
 1649W        W 5700   6.904   5.851   3.127  0.1214  0.0636 -0.2177
 1650W        W 5701   7.731   8.507   0.340  0.0441  0.1667  0.0702
 1651W        W 5702   2.648   1.397  11.224 -0.0843  0.1414  0.2115
 1652W        W 5703   2.302   2.412  12.730  0.0068 -0.0779 -0.0908
 1653W        W 5704   4.832   4.431  12.163 -0.2251  0.1136 -0.0120
 1654W        W 5705   5.800   6.304   2.707  0.0259  0.3318  0.3187
 1655W        W 5706   3.453   5.045   3.504 -0.3801 -0.0962 -0.2065
 1656W        W 5707   3.876   1.692   1.812 -0.1201  0.1220  0.1071
 1657W        W 5708   8.250   1.404  10.350  0.0596  0.1311 -0.2859
 1658W        W 5709   6.730   9.863  11.590 -0.3467  0.1294 -0.0667
 1659W        W 5710   4.127   4.392   1.464 -0.0008 -0.1183 -0.0653
 1660W        W 5711   1.878   8.800  10.371 -0.3522  0.2472 -0.0802
 1661W        W 5712   9.020   2.180   3.008 -0.2111 -0.1110 -0.0779
 1662W        W 5713   5.625   4.335  11.626  0.4552 -0.4632  0.1061
 1663W        W 5714   6.215   9.384  10.408  0.0897  0.1071 -0.1963
 1664W        W 5715   3.937   3.392   0.851  0.1629  0.1521 -0.0979
 1665W        W 5716   2.408   7.063  10.061 -0.1989 -0.1361  0.1863
 1666W        W 5717   4.965   7.426   9.642  0.0615 -0.1047  0.1391
 1667W        W 5718   6.065   1.155  10.721  0.1840  0.0617  0.1174
 1668W        W 5719   5.635   8.079   0.861 -0.1066 -0.0921 -0.4214
 1669W        W 5720   7.831   3.924  10.207 -0.0006 -0.0547 -0.0534
 1670W        W 5721   6.162  10.319   9.876  0.3086 -0.3804  0.2733
 1671W        W 5722   3.519   3.959   2.115 -0.1622 -0.0701 -0.3007
 1672W        W 5723   1.621   0.519   1.455  0.4389  0.0482 -0.0276
 1673W        W 5724   4.491   2.205  12.438 -0.0674 -0.0191 -0.2043
 1674W        W 5725   3.719   7.263  11.409  0.2760 -0.0132  0.0307
 1675W        W 5726   1.880   0.879   1.220 -0.0163  0.0126 -0.1528
 1676W        W 5727   5.179   3.310   3.965 -0.2443  0.0991  0.1831
 1677W        W 5728   3.265   9.096  13.570 -0.1308  0.2869 -0.2710
 1678W        W 5729   7.080   7.956  10.432 -0.1298  0.0872 -0.1185
 1679W        W 5730   1.315   6.599  11.561 -0.0579  0.0935  0.0153
 1680W        W 5731   8.851   7.598   1.240 -0.0719 -0.1334 -0.0312
 1681W        W 5732   4.221   2.105   3.285  0.2217 -0.0093 -0.0314
 1682W        W 5733   5.540   1.528   3.392 -0.1579  0.0985  0.0640
 1683W        W 5734   2.004   0.885   2.112  0.4132 -0.1172  0.3241
 1684W        W 5735   3.433   7.225   2.525  0.0179 -0.2494  0.0101
 1685W        W 5736   0.630   0.488   0.894  0.2455 -0.0123  0.0214
 1686W        W 5737   7.496   7.069   0.144  0.0367  0.0974  0.0032
 1687W        W 5738   2.547   3.345   5.430 -0.0210 -0.1140 -0.3331
 1688W        W 5739   9.834   4.861   5.050 -0.1078 -0.0325 -0.1341
 1689W        W 5740   7.572   0.662  12.960 -0.0591 -0.4247  0.0509
 1690W        W 5741   5.766   4.310   0.824 -0.1626  0.1532  0.0526
 1691W        W 5742   4.265   8.943  13.372 -0.2408 -0.0258 -0.0745
 1692W        W 5743   8.648   9.780   3.486  0.1702 -0.2003 -0.2385
 1693W        W 5744   3.069   6.427  12.076  0.0419  0.0167 -0.1453
 1694W        W 5745   3.246   1.513  12.856 -0.0926  0.2587 -0.3031
 1695W        W 5746   7.952   3.455  11.075 -0.1312 -0.5618  0.1923
 1696W        W 5747   2.504   5.518   1.042 -0.3457 -0.1172  0.0749
 1697W        W 5748   2.435   1.756   0.451 -0.0077 -0.1457  0.0113
 1698W        W 5749   2.448   0.584   2.109 -0.1801  0.0597 -0.1755
 1699W        W 5750   6.382   5.927   4.270  0.0139  0.1929  0.3486
 1700W        W 5751   0.229   9.552   2.306 -0.0579  0.2059 -0.3523
 1701W        W 5752   8.335   0.903  11.848 -0.2085  0.0990  0.0659
 1702W        W 5753   1.828   8.234   1.898  0.1806 -0.0544  0.1693
 1703W        W 5754   1.932   1.004  12.782  0.1663  0.2933  0.0470
 1704W        W 5755   8.590   4.886  12.625 -0.1375 -0.3390  0.1835
 1705W        W 5756   7.602   3.608   9.837 -0.0777 -0.3840 -0.0998
 1706W        W 5757   5.583   3.166  10.076  0.0090 -0.2479  0.3838
 1707W        W 5758   6.791   3.234   2.485 -0.1162  0.0119 -0.0292
 1708W        W 5759   4.082   5.784  12.842 -0.1817 -0.3051 -0.1295
 1709W        W 5760   6.252   8.572  13.077  0.1358 -0.3461  0.0761
 1710W        W 5761   7.181   4.141  12.687 -0.2084  0.0048 -0.1200
 1711W        W 5762   1.838   0.679   2.551 -0.1296 -0.1510  0.1021
 1712W        W 5763   4.590   5.785  12.992  0.0545 -0.1364 -0.2170
 1713W        W 5764   2.066  10.080  10.820  0.0404 -0.0137  0.2681
 1714W        W 5765   7.361   8.296   0.686 -0.0255  0.1113 -0.0759
 1715W        W 5766   5.699   3.849  11.610  0.0506  0.2653  0.0376
 1716W        W 5767   8.351   2.780  11.945  0.4515  0.0157  0.3378
 1717W        W 5768   4.966   1.537   9.888  0.2950 -0.0909  0.0433
 1718W        W 5769   8.205   6.035   9.750 -0.0286 -0.1245  0.0388
 1719W        W 5770   0.755   3.341  13.362  0.0654  0.0856  0.3261
 1720W        W 5771   2.932   2.574  11.797 -0.2218 -0.0774 -0.0183
 1721W        W 5772   0.475   2.235   2.427 -0.0482  0.0413 -0.1350
 1722W        W 5773   0.235  10.224  12.690 -0.1926  0.1267 -0.2187
 1723W        W 5774   3.430   9.505  13.345 -0.2017  0.1430  0.3394
 1724W        W 5775   2.836   0.716   4.350 -0.0281  0.1300  0.3478
 1725W        W 5776   8.878   8.492  12.849 -0.0127 -0.0762  0.0323
 1726W        W 5777   6.182   8.155  13.429 -0.1351 -0.1298  0.1712
 1727W        W 5778   0.326   5.337  12.467  0.0320 -0.1279  0.0619
 1728W        W 5779   0.941   8.391   2.497  0.0165  0.2896  0.0529
 1729W        W 5780   5.237   8.697  13.094 -0.1324 -0.1992 -0.1228
 1730W        W 5781   4.068   3.917   5.612  0.0072  0.2516 -0.3991
 1731W        W 5782   1.696   8.423  10.884  0.0498  0.1595 -0.0087
 1732W        W 5783   9.691   5.101  10.741 -0.0270 -0.3593  0.2642
 1733W        W 5784   8.929   4.912   2.765 -0.0635 -0.2896  0.1137
 1734W        W 5785   0.934   8.533  12.301  0.0309 -0.0908 -0.4700
 1735W        W 5786   1.119   6.804  12.462  0.2461 -0.2559 -0.1441
 1736W        W 5787   9.145   3.434  12.447 -0.0590 -0.1306 -0.1586
 1737W        W 5788   2.929   9.893   2.979 -0.0863  0.0106  0.2818
 1738W        W 5789  10.319   8.156   5.197  0.2268  0.5180  0.3362
 1739W        W 5790   4.442  10.057   2.026  0.2870  0.2832 -0.0230
 1740W        W 5791   0.776  10.196  12.491 -0.0362  0.0687 -0.0835
 1741W        W 5792   0.776   8.178   1.783  0.0654  0.0221 -0.1373
 1742W        W 5793   4.788   2.877   1.668 -0.1104 -0.3572  0.0815
 1743W        W 5794   1.016   1.600  11.647 -0.1694 -0.2045  0.1005
 1744W        W 5795   8.092   3.163  11.726 -0.0269 -0.0750 -0.1091
 1745W        W 5796   0.026   0.795   4.644 -0.0106 -0.1148  0.1732
 1746W        W 5797   6.636   8.648   1.307 -0.0042 -0.0536  0.0758
 1747W        W 5798   3.682   3.453  11.469 -0.0397 -0.0226  0.3528
 1748W        W 5799   9.229   3.756   2.295 -0.0856  0.2044  0.0669
 1749W        W 5800   7.525   1.746  11.477  0.1780  0.0630  0.0118
 1750W        W 5801   7.435   5.197  10.485  0.5357  0.0830  0.1580
 1751W        W 5802   2.751   9.329  12.022 -0.3379 -0.1706  0.0796
 1752W        W 5803   7.942   0.741  11.012 -0.2366  0.0718 -0.0018
 1753W        W 5804   5.232   5.882  11.020 -0.2143  0.0847  0.2883
 1754W        W 5805   7.179   3.529   2.425 -0.1874 -0.3122  0.1012
 1755W        W 5806   1.076   4.951  10.706 -0.0601 -0.3231  0.0604
 1756W        W 5807   6.314   2.101   3.315  0.1112 -0.1532 -0.2432
 1757W        W 5808   2.483   6.657  11.259 -0.0057 -0.1964 -0.1813
 1758W        W 5809   6.614   3.082  11.400 -0.3113  0.0981 -0.1560
 1759W        W 5810   8.879   8.672   9.827  0.0005 -0.0202  0.1553
 1760W        W 5811   3.815   9.001  11.737  0.1820  0.0286  0.0646
 1761W        W 5812   5.029   7.713   2.197 -0.2340  0.2270  0.0813
 1762W        W 5813  10.189   4.307  13.300  0.3041 -0.1060  0.1323
 1763W        W 5814   2.696   1.891  11.924 -0.3135 -0.0574 -0.3270
 1764W        W 5815   3.891   1.541   8.955 -0.0797 -0.1399 -0.0487
 1765W        W 5816   0.826   3.244   2.688  0.2993 -0.0614 -0.0452
 1766W        W 5817   5.596   1.370  13.393 -0.0831 -0.5065 -0.0768
 1767W        W 5818   0.188   4.144   4.926  0.1356  0.1930 -0.2587
 1768W        W 5819   7.839   8.397   1.292 -0.1692  0.1705 -0.0560
 1769W        W 5820   6.866   5.805   1.487  0.0625  0.0607 -0.1545
 1770W        W 5821   8.634   3.479  13.200  0.0228  0.1852 -0.2289
 1771W        W 5822   5.055  10.003   8.360  0.2343  0.0396 -0.1277
 1772W        W 5823   7.663   4.238   2.899  0.3166  0.0993 -0.1174
 1773W        W 5824   5.002   8.061  10.038 -0.0096 -0.2672 -0.0528
 1774W        W 5825   4.902   0.410   2.710 -0.2220  0.0134 -0.1984
 1775W        W 5826   0.358   9.052   1.103 -0.2114 -0.0195  0.0190
 1776W        W 5827   3.935   8.160  13.394  0.2132  0.1672  0.1658
 1777W        W 5828   6.377   9.101   1.267 -0.0148  0.3746  0.0519
 1778W        W 5829   4.521   7.956   4.055 -0.1734  0.0458 -0.3264
 1779W        W 5830   1.045   7.829   5.715 -0.0375 -0.2255  0.0971
 1780W        W 5831   6.268   7.177  11.349 -0.0698  0.1072  0.2744
 1781W        W 5832   5.046   8.877   0.524  0.2437 -0.0706  0.3802
 1782W        W 5833   4.279   4.641  10.792 -0.1159 -0.0896  0.0636
 1783W        W 5834   4.726   1.277   3.527  0.0916 -0.0757 -0.1275
 1784W        W 5835   8.695   8.610   0.206 -0.0762 -0.1829  0.0101
 1785W        W 5836   3.870   0.915   4.944  0.3613 -0.0020 -0.0798
 1786W        W 5837   8.174   8.609   1.668 -0.2477  0.1724  0.1378
 1787W        W 5838   3.996   6.805   1.798 -0.1060  0.0565  0.2277
 1788W        W 5839   1.946   5.893   3.898  0.0813  0.1396 -0.0967
 1789W        W 5840   7.586   4.423  12.419 -0.2049  0.0445  0.1980
 1790W        W 5841   5.763   8.477  10.778 -0.1784 -0.1111 -0.0294
 1791W        W 5842  10.023   1.170   4.859 -0.1124  0.0454  0.0062
 1792W        W 5843   9.554   2.776   2.909 -0.4062  0.1515  0.0912
 1793W        W 5844   2.093   3.970  13.503 -0.0265 -0.0518  0.1254
 1794W        W 5845   8.322   7.831  12.704  0.1310 -0.1006 -0.1705
 1795W        W 5846   0.528   0.226   1.326 -0.1842  0.0937  0.0606
 1796W        W 5847   9.220   7.980   3.759  0.1994 -0.0756 -0.3455
 1797W        W 5848   9.953   1.974  11.187  0.1880  0.0379 -0.1308
 1798W        W 5849   0.556   2.250   2.950  0.1475  0.1404 -0.1228
 1799W        W 5850   7.743   1.883   3.855  0.0092  0.0250  0.1252
 1800W        W 5851   8.910   2.928   2.471 -0.1664 -0.0417 -0.1909
 1801W        W 5852   0.759   4.180  12.781 -0.0936  0.0172  0.2232
 1802W        W 5853   9.143   3.244   2.132 -0.1529  0.0448  0.0390
 1803W        W 5854   4.487   7.562   0.273 -0.3175 -0.0666  0.0178
 1804W        W 5855   9.498   0.047   5.006  0.2450  0.0221  0.0448
 1805W        W 5856   3.458  10.154   1.513  0.2224  0.0975 -0.1015
 1806W        W 5857   0.428   6.897   1.848 -0.2289 -0.1597 -0.0545
 1807W        W 5858   4.722   4.139   1.449 -0.0809  0.1195  0.2569
 1808W        W 5859   5.435   4.046  10.231  0.4902  0.0042  0.0166
 1809W        W 5860  10.233   6.621  10.015 -0.0436  0.0690 -0.2850
 1810W        W 5861   0.921   3.155  10.694 -0.1121 -0.0572  0.1378
 1811W        W 5862   1.836   1.552   9.218  0.1252  0.2463  0.1532
 1812W        W 5863   3.162   3.108   3.736  0.1207  0.0198  0.1176
 1813W        W 5864   7.334   2.854   4.570 -0.0607 -0.1177 -0.0072
 1814W        W 5865   4.491   8.934  12.928 -0.0244  0.0804 -0.2340
 1815W        W 5866   6.154   1.244   3.383 -0.0911  0.1647 -0.0961
 1816W        W 5867   8.065   2.563   4.557 -0.1243  0.0544  0.0036
 1817W        W 5868   4.836   7.714  11.322  0.2774  0.1436 -0.2543
 1818W        W 5869   1.297   7.829  11.476 -0.2433 -0.1382  0.0922
 1819W        W 5870  10.294   4.668   0.598  0.1405 -0.3225 -0.2497
 1820W        W 5871   4.796   9.099   4.642 -0.4279  0.1256 -0.5606
 1821W        W 5872   1.621   1.979   4.088  0.1439  0.1704  0.0274
 1822W        W 5873   9.827   0.896   9.685  0.0669 -0.2337  0.1801
 1823W        W 5874   3.992   5.033  10.834 -0.0471  0.3034  0.1326
 1824W        W 5875  10.131   0.543  11.343  0.1240  0.2591  0.1477
 1825W        W 5876   7.773   0.661  11.475  0.0027  0.0141 -0.0195
 1826W        W 5877   8.930   9.714   2.921  0.4140  0.0766  0.3531
 1827W        W 5878  10.210   6.772  12.104 -0.2526  0.0537 -0.0053
 1828W        W 5879   3.240   6.840   3.289  0.3908 -0.2150  0.1247
 1829W        W 5880   2.578   2.732   8.613 -0.1799 -0.2819 -0.1332
 1830W        W 5881   3.831   0.719   9.398 -0.1574 -0.1676 -0.2491
 1831W        W 5882   7.080   2.142  10.598 -0.3345  0.1180 -0.1966
 1832W        W 5883  10.024   3.483  13.404  0.0730  0.2796 -0.4888
 1833W        W 5884   3.103   0.003   9.559 -0.1949  0.1631  0.1774
 1834W        W 5885   4.648   3.143  12.158  0.1391  0.0288  0.0823
 1835W        W 5886  10.190   1.842   1.762  0.4335  0.0757  0.1764
 1836W        W 5887   5.506   2.277   9.942  0.3982 -0.0848  0.0157
 1837W        W 5888   8.338   1.416   0.565  0.0360 -0.2387 -0.2869
 1838W        W 5889   4.372   9.812   2.652 -0.3574 -0.0273  0.3072
 1839W        W 5890   0.926  10.303   1.463  0.1459 -0.2049  0.1589
 1840W        W 5891   3.757   1.752  13.213  0.4356 -0.1045  0.1703
 1841W        W 5892   3.949   6.846  12.019 -0.0875  0.1765  0.1381
 1842W        W 5893   4.032   4.587   0.558  0.0362  0.0696  0.0877
 1843W        W 5894   3.809   2.578   2.783  0.0646  0.1543  0.0769
 1844W        W 5895   5.463   5.637  12.299 -0.0299  0.0613 -0.2681
 1845W        W 5896   2.106   6.896   1.065 -0.5424  0.2670  0.2071
 1846W        W 5897   9.583   2.375   3.760  0.2383  0.0675 -0.1286
 1847W        W 5898   2.163  10.093   1.350 -0.0712 -0.4072  0.0640
 1848W        W 5899   3.488   7.231   3.456 -0.3555 -0.1457 -0.0135
 1849W        W 5900   6.144   4.511   0.451  0.1851  0.2976  0.1966
 1850W        W 5901   6.616   4.071  12.440 -0.0432  0.1782 -0.0204
 1851W        W 5902   2.637   9.573   1.779 -0.3066  0.0211 -0.0448
 1852W        W 5903   5.750   1.985   9.557  0.3964 -0.1228 -0.0218
 1853W        W 5904   6.416   2.322  11.552 -0.0076  0.0557 -0.2864
 1854W        W 5905   6.412   8.660   1.768  0.2401  0.1169 -0.0065
 1855W        W 5906   8.256   1.473   2.946 -0.2487 -0.0544  0.1611
 1856W        W 5907   7.675   2.401   3.822  0.0747  0.1856 -0.1181
 1857W        W 5908   2.329   0.460   9.963  0.1222  0.0704  0.3225
 1858W        W 5909   8.666   1.854  11.313  0.0272  0.1240  0.1863
 1859W        W 5910   2.213   9.435  13.035  0.1333 -0.3474  0.2405
 1860W        W 5911   1.359   0.869   1.252 -0.0678  0.2739  0.4163
 1861W        W 5912   2.664   2.984   1.160  0.0001 -0.1744 -0.0912
 1862W        W 5913   0.085   8.260   9.009 -0.2924 -0.4297  0.1371
 1863W        W 5914   4.242   1.518   0.073 -0.0239  0.0243  0.1197
 1864W        W 5915   2.267   4.295  10.269 -0.0177 -0.0941 -0.0278
 1865W        W 5916  10.115   2.321   1.876  0.0061  0.1296 -0.2971
 1866W        W 5917   2.278   3.317  10.365 -0.0472  0.1826  0.1893
 1867W        W 5918   8.919   6.034   2.183 -0.1107  0.0669 -0.0319
 1868W        W 5919   9.093   0.883   5.029  0.2829 -0.1587 -0.0374
 1869W        W 5920   0.572   3.971   4.384  0.0894  0.1968  0.3812
 1870W        W 5921   3.345   6.855   3.910 -0.2391 -0.0240 -0.2059
 1871W        W 5922   6.621   3.460   2.906 -0.0530  0.3091  0.1583
 1872W        W 5923   1.666   6.830  12.247  0.0951  0.1512 -0.2426
 1873W        W 5924   4.635   1.733   1.028 -0.1918  0.3395 -0.0154
 1874W        W 5925   2.873   4.436  11.930 -0.0487  0.0638  0.4220
 1875W        W 5926   9.446   9.443   1.389 -0.1541 -0.2048 -0.0224
 1876W        W 5927   1.914   3.711   1.788  0.2783  0.2581  0.0091
 1877W        W 5928   1.613   7.691  11.828  0.2510 -0.3520  0.1533
 1878W        W 5929   8.178   4.618   9.545  0.0322 -0.0775 -0.0332
 1879W        W 5930   0.625   7.610   3.442  0.0941 -0.4155  0.2612
 1880W        W 5931   8.117   8.162  10.351  0.1952 -0.2431  0.1060
 1881W        W 5932   3.890   7.282  12.258  0.0501  0.0324  0.2302
 1882W        W 5933   2.268   0.807  13.091  0.1087 -0.3013  0.0187
 1883W        W 5934   7.561   9.543  12.185  0.2651  0.0442  0.1184
 1884W        W 5935   5.262   0.259   3.117 -0.1585  0.0933  0.4403
 1885W        W 5936   7.118  10.269   3.799 -0.0223 -0.0487  0.2138
 1886W        W 5937   1.880  10.081  13.521 -0.0669 -0.0859  0.3478
 1887W        W 5938   3.328   6.637  10.308  0.0548 -0.2605 -0.2619
 1888W        W 5939   5.146   0.268  10.169 -0.2197  0.0097  0.2319
 1889W        W 5940   3.918   3.728   2.302  0.0727 -0.0722 -0.0080
 1890W        W 5941   2.796   1.604  10.043  0.0253 -0.1663 -0.0166
 1891W        W 5942   2.359   4.545  11.009  0.2106 -0.0551 -0.2519
 1892W        W 5943   5.219   7.405  11.501 -0.0675 -0.3092 -0.3833
 1893W        W 5944   3.735   9.304   8.607  0.0153 -0.2778 -0.0646
 1894W        W 5945   8.165   4.405   2.814 -0.0768 -0.2122  0.1022
 1895W        W 5946   6.934   7.599  13.477  0.3971 -0.0438  0.1992
 1896W        W 5947   4.835   4.454   9.344 -0.0682  0.3497 -0.2751
 1897W        W 5948   1.034   1.428  12.461 -0.1591  0.1221  0.1363
 1898W        W 5949   9.143   6.708  10.976 -0.0293 -0.0943 -0.1034
 1899W        W 5950   5.119   6.225   1.889  0.3597 -0.0330  0.0405
 1900W        W 5951   0.676   1.854   1.182 -0.1153 -0.1493  0.0086
 1901W        W 5952   8.143  10.025   9.746  0.2265 -0.0240 -0.0922
 1902W        W 5953   2.942   6.530  10.683 -0.1419 -0.2647 -0.0062
 1903W        W 5954   0.660   8.155   4.394  0.2115 -0.2320 -0.0794
 1904W        W 5955   4.144   3.584  10.208  0.0969  0.3026 -0.0691
 1905W        W 5956   6.343   6.512  12.732  0.2282 -0.0254  0.1759
 1906W        W 5957   7.708   7.725   9.216  0.0568  0.1263  0.1604
 1907W        W 5958   8.311   3.153  10.626  0.1170  0.5429  0.0194
 1908W        W 5959   9.586   6.539  11.217 -0.0725 -0.0683  0.1674
 1909W        W 5960   3.400   4.033  12.467 -0.0132  0.1716 -0.2949
 1910W        W 5961   0.854   7.242  10.095 -0.0489 -0.0778  0.1601
 1911W        W 5962   4.573   8.940  10.961  0.2234 -0.0267  0.1008
 1912W        W 5963   9.679   5.505  11.160  0.0270 -0.2911  0.0013
 1913W        W 5964   7.986   9.636  10.931 -0.0688 -0.0817 -0.2888
 1914W        W 5965   6.615   0.802  13.507 -0.3359 -0.1004  0.0070
 1915W        W 5966   2.487   0.766   1.283 -0.1408  0.2211  0.0496
 1916W        W 5967   0.335   3.289  10.804  0.0434 -0.4188 -0.2568
 1917W        W 5968   8.376   8.381  12.776  0.0979  0.1112  0.0897
 1918W        W 5969   1.950   0.162  13.286  0.1251  0.0394  0.1040
 1919W        W 5970   5.051   3.536   0.386 -0.0251 -0.0910  0.0875
 1920W        W 5971   2.501  10.171   3.080  0.1716 -0.1207  0.0199
 1921W        W 5972   1.728   4.215  10.336 -0.1120 -0.1112 -0.0849
 1922W        W 5973   6.007   3.971   2.978  0.0269 -0.0524 -0.0021
 1923W        W 5974  10.301   8.313   0.884 -0.1118  0.0267 -0.2893
 1924W        W 5975   6.959   9.314  11.431 -0.0366 -0.1204  0.0285
 1925W        W 5976   2.571   4.972   1.883 -0.0948 -0.2631 -0.1918
 1926W        W 5977  10.099   3.448   2.712  0.4270 -0.1202  0.1295
 1927W        W 5978   7.203   1.213  10.856 -0.0737  0.1000 -0.0127
 1928W        W 5979   9.327   1.886  12.148 -0.1896 -0.1408  0.0551
 1929W        W 5980  10.149   9.320   3.259  0.0120  0.0582 -0.1632
 1930W        W 5981  10.296   6.696   1.517  0.1353 -0.1697  0.5069
 1931W        W 5982   8.034   7.765   2.481  0.1729  0.1759 -0.0259
 1932W        W 5983   8.395   1.833   2.269 -0.5441  0.1415  0.3775
 1933W        W 5984   2.275   9.829   0.864 -0.2842 -0.0613 -0.1304
 1934W        W 5985   1.980   5.207  13.150  0.3198  0.1301  0.1486
 1935W        W 5986   1.345   7.578   1.021  0.1330  0.2150  0.1305
 1936W        W 5987   1.994   0.501   4.715  0.0729  0.0334 -0.2840
 1937W        W 5988   0.272   8.707  13.019 -0.1413 -0.0929 -0.2336
 1938W        W 5989   9.783   6.342  11.686  0.2090  0.2028  0.0793
 1939W        W 5990   0.687   8.212   0.867 -0.1042 -0.0491  0.1370
 1940W        W 5991   4.797   7.718  12.457 -0.0500 -0.1696 -0.0008
 1941W        W 5992  10.212   4.241   1.882 -0.1286 -0.3888 -0.3159
 1942W        W 5993   2.873   4.020   0.991 -0.0361 -0.0079  0.0076
 1943W        W 5994   6.910   4.670   0.910  0.2906  0.2600  0.2928
 1944W        W 5995   6.623   2.233  10.819  0.0765  0.1687 -0.4756
 1945W        W 5996   6.918   4.195   1.607  0.1413  0.1632 -0.0099
 1946W        W 5997   7.339   9.006  10.470  0.0706  0.2363 -0.1959
 1947W        W 5998   8.650   1.509   0.209 -0.4066 -0.0461  0.1931
 1948W        W 5999   8.501   7.750   9.451 -0.2217 -0.0440  0.0569
 1949W        W 6000   4.189   5.626  12.419  0.1651  0.0475  0.0156
 1950W        W 6001   2.244   7.785   9.606  0.2784  0.2364 -0.1951
 1951W        W 6002   7.222   5.085   3.425 -0.2095  0.0845 -0.2375
 1952W        W 6003   3.132   1.574   5.570 -0.2341 -0.0764 -0.2992
 1953W        W 6004   9.880   1.485   5.168 -0.0514  0.0143  0.1881
 1954W        W 6005   0.850   1.237   1.907 -0.0363  0.1109 -0.1177
 1955W        W 6006   0.187   9.592  11.020  0.4836 -0.0626 -0.1138
 1956W        W 6007   8.630   3.602   1.201  0.4076  0.0582 -0.3660
 1957W        W 6008   5.391   4.730   4.010 -0.0836  0.1231  0.0890
 1958W        W 6009   3.958   9.676   0.042 -0.1743  0.0090  0.0451
 1959W        W 6010   0.759   5.301   4.727 -0.1317 -0.1620 -0.3365
 1960W        W 6011   9.151   9.389  13.376  0.2149  0.0079 -0.1217
 1961W        W 6012   6.472   6.297   3.487  0.1815 -0.1543 -0.0351
 1962W        W 6013   9.557   0.151  12.978  0.1679 -0.1131 -0.0019
 1963W        W 6014   1.328   9.883   2.360  0.2725 -0.0296  0.0574
 1964W        W 6015   6.143   2.974  10.865  0.2308 -0.1989  0.4026
 1965W        W 6016   8.463   4.184   3.154 -0.3200 -0.1369 -0.2203
 1966W        W 6017   7.417   9.730   0.858  0.0796 -0.2205 -0.0215
 1967W        W 6018   3.165   0.311   4.410 -0.4209  0.1469  0.4108
 1968W        W 6019   3.332   5.633   0.156  0.1262  0.1324 -0.1616
 1969W        W 6020  10.087   9.652   4.025 -0.1302  0.3760 -0.1248
 1970W        W 6021   9.453   9.516  10.152  0.4158 -0.0658 -0.0801
 1971W        W 6022   7.873   9.111   0.689  0.1622 -0.2826  0.0112
 1972W        W 6023   0.193   3.361  10.190  0.0183  0.0084  0.1292
 1973W        W 6024   4.212   3.850   0.743  0.1492  0.0342 -0.1644
 1974W        W 6025   5.122   3.961  13.475 -0.1289  0.0838 -0.0324
 1975W        W 6026   5.473   3.122  10.538  0.0065 -0.0599 -0.4393
 1976W        W 6027   7.089   0.262   9.986 -0.3165  0.2474  0.0738
 1977W        W 6028   5.900   8.628  11.473 -0.4557  0.1413 -0.3185
 1978W        W 6029   6.208   6.664  11.455 -0.0598 -0.0129 -0.1168
 1979W        W 6030   7.572   6.975   8.817 -0.1502 -0.0378  0.1217
 1980W        W 6031  10.058  10.157   4.319 -0.0031  0.1732  0.2101
 1981W        W 6032   0.728   5.550   5.926  0.0141  0.0590 -0.1055
 1982W        W 6033   8.021   6.229   1.690  0.1482  0.2414  0.2124
 1983W        W 6034   5.551   0.845  13.468  0.1024 -0.2734  0.1900
 1984W        W 6035   8.800   1.547   0.784  0.0032 -0.0214  0.1113
 1985W        W 6036   8.980   3.806   5.346 -0.3530  0.0042 -0.0274
 1986W        W 6037   5.585   1.716  12.412  0.3351  0.1009  0.2599
 1987W        W 6038   4.581   0.421   0.149  0.0307 -0.1156 -0.1668
 1988W        W 6039   2.132   6.712   4.195  0.0363  0.1837  0.0780
 1989W        W 6040   9.042   8.440   3.871 -0.0621 -0.0999 -0.3737
 1990W        W 6041   7.877   9.827   4.113  0.3749  0.1211 -0.0962
 1991W        W 6042   2.011   5.005   9.615  0.0495 -0.2365  0.0453
 1992W        W 6043   3.500   3.955   1.612  0.3803 -0.0396 -0.4977
 1993W        W 6044   3.134   1.213  11.050 -0.0953  0.1798  0.0752
 1994W        W 6045   3.961   8.108  11.689  0.1956  0.2254 -0.1755
 1995W        W 6046   8.057   0.655  13.122 -0.1471  0.4082  0.0500
 1996W        W 6047   5.054   1.016   0.526  0.1690 -0.3818 -0.1736
 1997W        W 6048   7.003   3.007  13.066 -0.1857  0.0122 -0.1425
 1998W        W 6049   6.948  10.154  11.228 -0.0416  0.0993  0.1707
 1999W        W 6050   3.501   1.102   0.215  0.1540  0.0179  0.1722
 2000W        W 6051   4.460   9.661   3.563 -0.0951  0.0750  0.2292
 2001W        W 6052   8.303   0.651  10.572 -0.0198 -0.1011  0.2571
 2002W        W 6053   1.767   9.259   1.216 -0.0978  0.1259 -0.1712
 2003W        W 6054   8.315   4.382  12.536  0.1924 -0.2436  0.0482
 2004W        W 6055   5.505  10.191   4.344  0.3212  0.0753  0.0767
 2005W        W 6056   7.315   0.170   1.291  0.3712  0.0079 -0.0392
 2006W        W 6057   2.528   3.288  12.927 -0.1062 -0.2684  0.0650
 2007W        W 6058   3.855   4.667  12.251  0.2557  0.1544  0.1773
 2008W        W 6059   4.511   6.226   0.199 -0.2795 -0.1982 -0.1636
 2009W        W 6060   0.935   0.073   4.954  0.1973 -0.0333  0.1979
 2010W        W 6061   7.483   9.794  12.585  0.0373  0.0175  0.1263
 2011W        W 6062   2.075   6.469  12.546  0.2072  0.0210  0.0159
 2012W        W 6063   1.838   0.779   4.297  0.1774  0.0005  0.3832
 2013W        W 6064   4.204   2.898   0.533 -0.0295 -0.3849 -0.3601
 2014W        W 6065   5.568   8.390   1.631 -0.2214 -0.0316  0.0801
 2015W        W 6066   4.821   8.848  13.303 -0.1204 -0.0224  0.3288
 2016W        W 6067   0.666   3.497  10.386  0.1237 -0.0920 -0.1689
 2017W        W 6068   6.089   4.064  11.282 -0.2177  0.1551  0.0516
 2018W        W 6069   6.215   3.110  12.580 -0.0155  0.2736  0.3128
 2019W        W 6070   6.705   5.337   2.989  0.2900 -0.2643 -0.1269
 2020W        W 6071   8.717   7.320  13.515 -0.1193  0.0826  0.4222
 2021W        W 6072   3.730   7.154  10.011 -0.2082 -0.0052  0.1707
 2022W        W 6073   1.640   0.909  10.386  0.1525  0.0795 -0.2221
 2023W        W 6074  10.274   7.091  10.315 -0.0650  0.2288  0.0512
 2024W        W 6075   6.452   7.620   2.953  0.2430  0.0813 -0.1704
 2025W        W 6076   4.383   3.498  13.536 -0.1846  0.1013  0.2038
 2026W        W 6077   2.349   1.896  12.541  0.2785  0.3513 -0.1530
 2027W        W 6078   4.094   6.953  10.322  0.1295  0.0374  0.0855
 2028W        W 6079   0.338   6.754   4.296  0.0012  0.1265 -0.1796
 2029W        W 6080   4.236   7.749  10.599  0.2502 -0.2297  0.0006
 2030W        W 6081   2.063   2.162   4.346 -0.3727  0.0093  0.1520
 2031W        W 6082   1.723   3.958  10.789 -0.0013  0.0333 -0.3290
 2032W        W 6083   3.358   5.340  12.885  0.1057  0.1509  0.1801
 2033W        W 6084  10.168   2.421  11.400 -0.4225  0.3449  0.3752
 2034W        W 6085   2.833   0.190   3.054 -0.1775  0.0873  0.1727
 2035W        W 6086   2.840   7.858   1.871  0.2486 -0.0583  0.1221
 2036W        W 6087   6.198   2.688  13.426  0.0914  0.0025 -0.1607
 2037W        W 6088   8.659  10.000   9.726  0.0475 -0.0359 -0.0331
 2038W        W 6089   9.912   1.137   1.941  0.1364  0.0429 -0.1925
 2039W        W 6090   1.323   0.773   2.470 -0.2609 -0.2429  0.1728
 2040W        W 6091   8.544   4.578   9.996  0.2363 -0.1398  0.1070
 2041W        W 6092   0.571   1.695  12.090 -0.0377 -0.0985 -0.0691
 2042W        W 6093  10.105   8.143  10.400  0.2060  0.1924  0.1391
 2043W        W 6094   0.472   0.080  13.084 -0.0946 -0.0852  0.0215
 2044W        W 6095   2.843   0.013  11.414  0.2883  0.0233 -0.2736
 2045W        W 6096   6.977   3.731   3.072  0.0531  0.2130 -0.0618
 2046W        W 6097   6.935   7.311  10.207  0.2039 -0.4961  0.1604
 2047W        W 6098   4.334   5.576  11.919 -0.2539  0.0720  0.1055
 2048W        W 6099   9.638   2.684   4.857 -0.0282 -0.1240  0.1366
 2049W        W 6100   1.838   4.887   0.976 -0.0563  0.1788  0.1494
 2050W        W 6101   0.651   7.140   9.634  0.1079  0.1556  0.0177
 2051W        W 6102   1.210   1.679   4.324  0.0106  0.1838  0.1741
 2052W        W 6103   9.716   4.589  12.107 -0.1048 -0.1499 -0.1568
 2053W        W 6104   4.616   0.682   2.398 -0.1292  0.2091  0.1741
 2054W        W 6105   2.547   9.722   1.259  0.0868 -0.1670 -0.0022
 2055W        W 6106   3.506  10.060  13.537 -0.1057  0.0035 -0.1594
 2056W        W 6107   1.516   1.972  10.794 -0.1719  0.0816  0.1179
 2057W        W 6108   3.591   0.527  11.383  0.1722 -0.0154 -0.1928
 2058W        W 6109   2.823   0.211  12.644  0.0294  0.0898  0.2278
 2059W        W 6110   5.115   3.097   1.371  0.3179  0.3321 -0.3129
 2060W        W 6111   9.510   0.087   0.321 -0.1351  0.0191 -0.2197
 2061W        W 6112   5.873   1.507   9.793  0.0973 -0.3308  0.0876
 2062W        W 6113   1.579   4.641   0.522  0.0979  0.0045  0.1941
 2063W        W 6114   0.093   4.893   1.069  0.1273  0.2353 -0.1498
 2064W        W 6115   7.139   5.276   3.905 -0.0198 -0.0289  0.1863
 2065W        W 6116   7.232   6.466   2.749  0.1832  0.2123  0.0091
 2066W        W 6117   6.950   7.409  12.017 -0.2910 -0.0257 -0.1484
 2067W        W 6118   3.672   6.753   1.431 -0.0066  0.1646 -0.2589
 2068W        W 6119   1.796   6.033   0.384  0.2407  0.1870  0.2097
 2069W        W 6120   1.522   4.244   5.135  0.1796 -0.1388  0.0391
 2070W        W 6121   6.033   4.142   2.441 -0.1018  0.3369  0.2063
 2071W        W 6122   4.441   6.133   3.577  0.0089 -0.2532  0.0114
 2072W        W 6123   4.407   6.726   3.909 -0.0241  0.4125  0.2637
 2073W        W 6124   3.911   7.556   9.800  0.0102 -0.0115  0.1395
 2074W        W 6125   9.190   1.513   3.934 -0.0638  0.1167  0.0402
 2075W        W 6126   2.630   3.218   0.741 -0.0301 -0.0406 -0.0500
 2076W        W 6127   1.485   0.411   3.969  0.0674  0.2284 -0.0274
 2077W        W 6128   0.132   5.727  11.658  0.1111  0.2496  0.3007
 2078W        W 6129   2.622   6.493  10.256  0.1506 -0.2085  0.2821
 2079W        W 6130   2.499   2.185   9.411  0.0027  0.1806  0.0874
 2080W        W 6131   1.056   8.938  12.571 -0.3282 -0.0722 -0.1464
 2081W        W 6132   1.557   6.574   9.818  0.1143  0.0691  0.0707
 2082W        W 6133   5.584   0.322  11.518 -0.1314 -0.0174 -0.0952
 2083W        W 6134   9.598   3.053  11.597 -0.1484 -0.0329 -0.2780
 2084W        W 6135   2.086   0.610  11.220  0.2193 -0.0980 -0.4206
 2085W        W 6136   2.470   3.598  10.725  0.1861 -0.0615  0.1602
 2086W        W 6137   7.975   9.094   1.601  0.1529  0.1573  0.1373
 2087W        W 6138   7.759   7.117   0.542  0.0406 -0.1624  0.0169
 2088W        W 6139   3.011   1.788   4.170  0.4377  0.1997  0.1732
 2089W        W 6140   7.276  10.008   1.200  0.1567 -0.0589  0.1224
 2090W        W 6141   4.497   7.768   9.147  0.1894  0.1898  0.2437
 2091W        W 6142   1.347   3.820  11.102 -0.2305 -0.1114  0.0494
 2092W        W 6143   7.252   6.497  11.836 -0.2232 -0.3318  0.1156
 2093W        W 6144   4.056   9.114   4.106  0.3714  0.1070 -0.3241
 2094W        W 6145   2.001   4.255  12.205  0.3162  0.0955  0.2298
 2095W        W 6146   8.647   2.979   0.534  0.2680  0.1400  0.2460
 2096W        W 6147   7.683   7.771  11.277 -0.0164 -0.3978 -0.2472
 2097W        W 6148   7.924   4.062  12.674  0.3838  0.1402 -0.1032
 2098W        W 6149   3.137   5.551   4.600 -0.0261 -0.3538 -0.2558
 2099W        W 6150   5.898   1.483   1.850 -0.1019 -0.1798 -0.0440
 2100W        W 6151   3.160   7.216   5.021 -0.0851  0.2516  0.1339
 2101W        W 6152   8.429   2.719  12.445  0.3970  0.1035  0.1066
 2102W        W 6153   0.266   1.513  10.761 -0.2873 -0.3931 -0.1858
 2103W        W 6154   9.917   3.763   1.820 -0.0585 -0.0502 -0.5424
 2104W        W 6155   5.421   7.262   9.414  0.3081  0.0416 -0.2650
 2105W        W 6156   5.190   2.545   1.278 -0.0277 -0.2065  0.2314
 2106W        W 6157   6.415   3.436  12.275 -0.0816  0.0378 -0.3314
 2107W        W 6158   8.280   3.998   2.505 -0.1972 -0.1754 -0.1121
 2108W        W 6159   0.907   9.978  10.428  0.1932  0.1037 -0.0718
 2109W        W 6160   7.989   9.194  11.176  0.0467  0.1184  0.0543
 2110W        W 6161   1.440   8.912  10.606  0.1786  0.3409  0.4822
 2111W        W 6162   6.627   6.296   0.197  0.0843 -0.1136 -0.1486
 2112W        W 6163   5.532   1.159   0.558  0.0093  0.0041  0.0036
 2113W        W 6164   6.213   2.122  12.800 -0.1318  0.0452  0.0814
 2114W        W 6165   8.757   9.020  12.069 -0.1176  0.0787 -0.0793
 2115W        W 6166   3.763   6.681  13.251  0.2530  0.0684  0.0910
 2116W        W 6167   9.674   7.747   1.887  0.1447  0.3106  0.1306
 2117W        W 6168   3.304   4.240   4.115 -0.3415 -0.3741 -0.0307
 2118W        W 6169   7.392   6.877  10.822 -0.1601  0.2519 -0.2473
 2119W        W 6170   9.197   5.072   4.256 -0.1321  0.0601  0.0033
 2120W        W 6171   2.492   7.255  12.076 -0.2896 -0.1847 -0.0330
 2121W        W 6172   1.644   6.443   1.046  0.1123 -0.1216  0.0216
 2122W        W 6173   6.659   7.837   2.251 -0.0919  0.1961 -0.0976
 2123W        W 6174   8.216   9.356   3.587  0.1153  0.1174  0.0604
 2124W        W 6175   9.655   9.291  13.277 -0.2965 -0.2542 -0.1895
 2125W        W 6176  10.139   7.353   9.898 -0.1407  0.1686 -0.1635
 2126W        W 6177   7.674   5.324  11.856 -0.1928 -0.2232 -0.0649
 2127W        W 6178   8.158   8.051   1.133  0.1709  0.2049  0.1458
 2128W        W 6179   2.115   3.106   2.371  0.0418 -0.1967  0.1579
 2129W        W 6180   8.515   1.562  13.289 -0.2211  0.0991  0.0329
 2130W        W 6181   9.065   5.874   4.965 -0.2776  0.1241  0.2379
 2131W        W 6182   7.067   9.530  11.938 -0.1831  0.3134  0.0015
 2132W        W 6183   5.161  10.100   9.130  0.0540  0.2912  0.0118
 2133W        W 6184   1.677   8.302  10.317 -0.0165  0.0565  0.3025
 2134W        W 6185   7.420   8.385   2.204 -0.1435  0.4729  0.1390
 2135W        W 6186   4.304   3.865   3.641 -0.0592 -0.2034 -0.0244
 2136W        W 6187   8.243   8.861  12.012 -0.3760  0.0688 -0.3747
 2137W        W 6188   9.481   6.406   4.534  0.2081 -0.1335 -0.2154
 2138W        W 6189   3.333   9.755   1.159 -0.0651 -0.0553 -0.0740
 2139W        W 6190   7.565   3.289   3.289  0.2361  0.0626  0.1362
 2140W        W 6191   4.599   6.783   9.504 -0.2961 -0.1519  0.0193
 2141W        W 6192   7.547   7.390   2.178 -0.1751  0.2144 -0.4539
 2142W        W 6193   0.145   8.224   4.232 -0.0227 -0.0046 -0.1735
 2143W        W 6194   7.395   2.968  10.357 -0.1297 -0.1618 -0.1731
 2144W        W 6195   2.025   5.392  11.886 -0.1679 -0.0565  0.0134
 2145W        W 6196   3.919   8.597  13.510  0.0372 -0.0735  0.3921
 2146W        W 6197   2.521   4.450   1.809 -0.1105  0.2494 -0.2337
 2147W        W 6198   9.368   5.664   0.961 -0.2155 -0.2011 -0.2684
 2148W        W 6199   8.058   1.631  12.772 -0.1120  0.1139 -0.3565
 2149W        W 6200   2.168   2.904   0.995 -0.0045  0.1255  0.1533
 2150W        W 6201   3.059   7.083  13.367  0.1490  0.1818  0.0550
 2151W        W 6202  10.132   5.744   0.511  0.1086 -0.0070  0.1307
 2152W        W 6203   6.165   0.227   0.582 -0.2272  0.2023 -0.2976
 2153W        W 6204   5.617   0.738   9.514 -0.1575 -0.3572  0.1565
 2154W        W 6205   3.446   0.996   0.907 -0.0952 -0.0797  0.1748
 2155W        W 6206   0.498   7.038  10.358  0.0951  0.1369  0.2516
 2156W        W 6207   0.163   2.352   5.383 -0.1062  0.2425 -0.0636
 2157W        W 6208   0.574   8.439  10.120  0.0468  0.0946 -0.0939
 2158W        W 6209   7.938   5.724  10.754  0.2229  0.0302  0.2950
 2159W        W 6210   6.270   2.743  12.935  0.0062  0.2069 -0.3995
 2160W        W 6211   9.610   1.290   2.835  0.0203 -0.2761 -0.2131
 2161W        W 6212   9.708   7.365   1.008  0.1650 -0.0888  0.5047
 2162W        W 6213   4.455   8.961   2.369 -0.0684  0.0915  0.0062
 2163W        W 6214   0.299   6.196  12.836 -0.0965 -0.1826  0.1845
 2164W        W 6215   0.976   6.366   1.200  0.2380  0.1627  0.2411
 2165W        W 6216  10.246   6.106   2.248  0.2096 -0.0218  0.0541
 2166W        W 6217   2.033   1.005   3.003 -0.1835 -0.0788  0.2993
 2167W        W 6218   1.750   6.601  11.826  0.1590  0.0301 -0.0238
 2168W        W 6219   4.737   9.201   3.407  0.2593 -0.1405  0.0899
 2169W        W 6220   6.373   9.591   4.928 -0.3010 -0.0849 -0.0932
 2170W        W 6221   5.759   8.347   4.449 -0.3141  0.0494  0.2037
 2171W        W 6222   9.232   1.485   9.449  0.1690  0.0034  0.2850
 2172W        W 6223   1.277   8.147  12.266 -0.3233  0.0117  0.0011
 2173W        W 6224   4.132   5.146  12.352  0.4674  0.0838 -0.0130
 2174W        W 6225   8.025   3.430   3.594  0.2847 -0.1118 -0.0357
 2175W        W 6226   1.561   3.111   5.410  0.0843 -0.0129  0.0192
 2176W        W 6227   3.498   9.048  10.175  0.1690  0.2329 -0.0455
 2177W        W 6228   2.748   2.612  10.017 -0.0560 -0.1442  0.3337
 2178W        W 6229  10.271   6.555   0.934 -0.2395  0.1772 -0.1779
 2179W        W 6230  10.021   4.283  11.831 -0.1938 -0.3201  0.4226
 2180W        W 6231   8.382   6.695   2.259  0.2014 -0.0224  0.1621
 2181W        W 6232   7.407   4.758  11.261  0.1491 -0.1177  0.2599
 2182W        W 6233   4.045   8.069  11.126  0.2708 -0.0430 -0.0845
 2183W        W 6234   8.373   5.181  10.278 -0.4537 -0.0229 -0.1195
 2184W        W 6235   2.229   7.308  10.526 -0.0544 -0.0595  0.1434
 2185W        W 6236   0.670   9.219   9.958 -0.0299  0.2149  0.0150
 2186W        W 6237   3.155   4.804   0.583 -0.0792 -0.2820  0.2450
 2187W        W 6238   6.910   4.743   9.860 -0.1410  0.1844  0.0216
 2188W        W 6239   7.245   6.610   2.163  0.2943 -0.0876 -0.5152
 2189W        W 6240   4.726   2.572   1.155  0.2204  0.3302  0.1945
 2190W        W 6241   1.129   0.528   0.834  0.1263 -0.3136 -0.0026
 2191W        W 6242   0.519   9.070   2.334  0.1873 -0.4377  0.2174
 2192W        W 6243   2.704   7.348  13.156  0.2073 -0.1876 -0.0047
 2193W        W 6244   9.392   0.658   9.021  0.1190 -0.0837  0.1542
 2194W        W 6245   0.898   7.304   5.679 -0.1329 -0.0665 -0.1347
 2195W        W 6246   1.854   8.452   2.516  0.1998 -0.0526  0.0562
 2196W        W 6247   6.027   1.172  10.201 -0.0366  0.5390 -0.3065
 2197W        W 6248   2.414   1.185  11.828 -0.0501  0.1023  0.1128
 2198W        W 6249   1.424   2.064   2.919 -0.0134  0.0106 -0.1118
 2199W        W 6250   7.549   6.585  11.412 -0.0157  0.1975 -0.3568
 2200W        W 6251   7.741   8.283   8.369  0.1095 -0.1842  0.0220
 2201W        W 6252   6.091   5.176   9.593 -0.2458  0.1049  0.1431
 2202W        W 6253   5.004   2.851   0.809  0.0904  0.1455 -0.0474
 2203W        W 6254   9.203   2.491   5.536 -0.0147 -0.1172  0.2435
 2204W        W 6255   2.877   4.075   9.354  0.3589  0.0551 -0.0427
 2205W        W 6256   9.412   6.994  12.706  0.1144 -0.1829 -0.1841
 2206W        W 6257   1.948   1.557  13.564  0.0817  0.1300 -0.0631
 2207W        W 6258   5.523   6.808  12.984 -0.0568  0.1576 -0.1771
 2208W        W 6259   1.429   3.811   1.534 -0.0046  0.0877  0.0672
 2209W        W 6260   1.725   6.975   1.450  0.3756  0.1743  0.2840
 2210W        W 6261   8.246   0.325   2.625  0.2357 -0.0979  0.1177
 2211W        W 6262   6.227   8.893  10.101 -0.1554  0.2912 -0.0701
 2212W        W 6263   2.825   0.992   3.179 -0.0327  0.0862 -0.1288
 2213W        W 6264   8.145   6.400   9.409  0.3017  0.0850 -0.3901
 2214W        W 6265   6.020   6.667   8.218  0.0902  0.0907  0.3332
 2215W        W 6266   8.322   9.351  13.173  0.4395  0.2319  0.0416
 2216W        W 6267   6.173   0.506  11.661 -0.0057  0.2404  0.4724
 2217W        W 6268   7.746   1.692   3.051 -0.0571  0.0526 -0.1214
 2218W        W 6269   3.307   2.539   9.349  0.2399 -0.4978  0.1177
 2219W        W 6270   4.623   1.268  13.268 -0.0923  0.2580 -0.0204
 2220W        W 6271   9.916   5.725  13.502 -0.1610 -0.3016 -0.1648
 2221W        W 6272   0.991   9.406  11.581 -0.3849 -0.0945 -0.1892
 2222W        W 6273   1.705   6.141  11.234 -0.0438  0.1216  0.2190
 2223W        W 6274   3.738   0.628   1.754  0.1115  0.0550  0.0383
 2224W        W 6275   1.292   5.984   0.194 -0.1661 -0.0321  0.1366
 2225W        W 6276   0.698   1.490  12.880  0.0523 -0.2416 -0.1386
 2226W        W 6277   6.059   0.576  11.179 -0.2176  0.1923  0.1710
 2227W        W 6278   7.962   5.115   0.291 -0.3268  0.1558 -0.2923
 2228W        W 6279   1.301   1.396  13.476  0.1664  0.0906 -0.1214
 2229W        W 6280   6.103   5.321  11.651  0.0852 -0.0343  0.0968
 2230W        W 6281   0.357   7.991  10.418  0.1311  0.1425  0.0502
 2231W        W 6282   1.797   5.134   0.513  0.0633  0.3745  0.1957
 2232W        W 6283   6.973   5.196  10.035  0.0422  0.1507 -0.1264
 2233W        W 6284   1.894   0.173   9.824 -0.0438 -0.3282  0.1601
 2234W        W 6285  10.125   6.262   1.326 -0.0026  0.2339 -0.1201
 2235W        W 6286   3.496   6.754  12.239 -0.2658  0.1552  0.1243
 2236W        W 6287   6.011   0.031  11.769 -0.0589  0.1017  0.0444
 2237W        W 6288   9.674   7.941   2.349  0.3415 -0.1875  0.0940
 2238W        W 6289   1.677   8.218  11.362 -0.0242 -0.1068 -0.0312
 2239W        W 6290   5.992   0.677  10.611 -0.1834 -0.0801 -0.0129
 2240W        W 6291   3.688   7.986   0.655 -0.4416  0.1146  0.0399
 2241W        W 6292   2.771   5.668   3.321  0.0881  0.4145 -0.4457
 2242W        W 6293   0.703   7.100   3.619  0.0965  0.0191  0.0745
 2243W        W 6294   2.234   0.250  12.393 -0.4259 -0.1801  0.0517
 2244W        W 6295  10.275   6.088   1.753 -0.1232  0.3581  0.0749
 2245W        W 6296   8.484   9.168  11.227 -0.1875 -0.3561 -0.4306
 2246W        W 6297   5.266   4.635  11.359  0.1031  0.2393 -0.1095
 2247W        W 6298   7.523   2.419   0.320  0.0249  0.0881 -0.1805
 2248W        W 6299   7.954   1.894   2.492  0.0639 -0.0590  0.1251
 2249W        W 6300   5.747   6.146  11.910 -0.0286  0.0567  0.2393
 2250W        W 6301   5.456   7.040   4.317 -0.0348  0.1737 -0.2503
 2251W        W 6302   5.628   2.321   0.147  0.2729 -0.0421  0.2217
 2252W        W 6303   8.126   9.432   9.018  0.0179  0.0254  0.1397
 2253W        W 6304   7.649   9.497   9.777 -0.3427 -0.2335  0.2906
 2254W        W 6305   6.905   1.788   5.399  0.1781 -0.1437  0.0407
 2255W        W 6306   5.700   8.341  13.206 -0.1808 -0.1189  0.4355
 2256W        W 6307   0.114   3.671   1.798 -0.0410 -0.2210  0.1487
 2257W        W 6308   7.813  10.057   1.071  0.0550 -0.2598 -0.1115
 2258W        W 6309   2.958   3.347  13.102  0.0910 -0.1176  0.2103
 2259W        W 6310   7.731   5.383   3.341  0.2628 -0.0537  0.0858
 2260W        W 6311   9.430   0.629   4.117 -0.0104 -0.2481  0.0943
 2261W        W 6312   3.046   5.120   2.660  0.0333  0.0945 -0.0067
 2262W        W 6313   6.651   8.404   3.521 -0.0620  0.1328 -0.3248
 2263W        W 6314   1.436   7.321  12.273 -0.1720 -0.0315  0.1939
 2264W        W 6315   4.608   6.612  10.451 -0.2520 -0.0622  0.4733
 2265W        W 6316   4.267   2.247   1.723  0.1029  0.1031 -0.0344
 2266W        W 6317   9.531   8.751  13.469 -0.3829  0.1178  0.1133
 2267W        W 6318   3.044   7.619   9.361 -0.4260  0.2091 -0.0760
 2268W        W 6319   9.903   2.079   4.004 -0.0005  0.0240 -0.0271
 2269W        W 6320   9.672  10.230  13.428 -0.2394  0.0105  0.1000
 2270W        W 6321   8.906   7.156   2.936 -0.0980  0.2223 -0.1233
 2271W        W 6322   2.453   1.489   4.083  0.0707 -0.0106  0.2039
 2272W        W 6323   2.000   7.073   2.722 -0.2254 -0.0961 -0.2088
 2273W        W 6324   8.395   3.657  10.866  0.1871 -0.0958  0.1223
 2274W        W 6325   1.423   8.707  10.145 -0.2880  0.1784  0.4510
 2275W        W 6326   2.665   6.822  13.073  0.3573 -0.1077  0.2381
 2276W        W 6327   7.371   5.722   3.337 -0.2153 -0.0778  0.1531
 2277W        W 6328   6.539   9.034  11.247  0.0346 -0.5362  0.0243
 2278W        W 6329   0.018   6.207  10.319  0.1072  0.0594 -0.1486
 2279W        W 6330   6.783   1.645  10.759 -0.1043  0.0401 -0.0750
 2280W        W 6331   9.446   7.233  11.685  0.4162 -0.1843 -0.0431
 2281W        W 6332   7.066   9.964  12.290  0.1711 -0.2638 -0.0152
 2282W        W 6333   4.525   3.652   1.165  0.3648 -0.0352 -0.1326
 2283W        W 6334   5.637   4.485  10.673  0.1636  0.1937 -0.3933
 2284W        W 6335   7.754   5.189  11.422  0.1521 -0.0101 -0.1880
 2285W        W 6336   4.111   8.432   1.289 -0.4224 -0.0605 -0.2601
 2286W        W 6337   5.321   0.188  12.405 -0.2467 -0.0243 -0.0638
 2287W        W 6338   6.938   7.080   3.465  0.1212 -0.1022  0.0042
 2288W        W 6339   7.066   4.255   2.334  0.1074 -0.0407  0.1190
 2289W        W 6340   6.200   3.740  12.638 -0.3452 -0.0605 -0.1639
 2290W        W 6341   6.214   4.574  11.440  0.0083 -0.0364  0.1454
 2291W        W 6342   0.727  10.089   5.401  0.2411  0.0140 -0.0387
 2292W        W 6343   1.521   3.438   9.767 -0.4018  0.0150  0.0348
 2293W        W 6344   7.834   3.021  13.009 -0.0760  0.1485 -0.0116
 2294W        W 6345   4.094   5.643   3.198 -0.1243 -0.0328  0.2853
 2295W        W 6346   3.841   1.376   4.806  0.4454  0.0119  0.0087
 2296W        W 6347   5.550   5.859   2.642 -0.2047 -0.0540  0.3305
 2297W        W 6348   2.351   1.250  12.671  0.2237  0.1242  0.0338
 2298W        W 6349   6.377   2.028   0.910  0.1675 -0.3246 -0.3788
 2299W        W 6350   1.181   5.276   5.612  0.0819 -0.0677 -0.0132
 2300W        W 6351   6.339   2.483   1.344  0.2553  0.0536  0.1655
 2301W        W 6352   8.753   3.010   1.954 -0.1798  0.0744  0.0030
 2302W        W 6353   3.771   5.202   9.858 -0.0761  0.1049  0.2001
 2303W        W 6354   9.504   2.599   2.418  0.0996  0.0407 -0.3330
 2304W        W 6355   8.758   7.972   3.926 -0.0170  0.0274  0.0560
 2305W        W 6356   8.689   9.163   3.071 -0.1033  0.2571 -0.0135
 2306W        W 6357   5.601   2.487   2.289 -0.0689 -0.1257 -0.1059
 2307W        W 6358   6.337   4.520   0.948 -0.0692  0.1894 -0.1922
 2308W        W 6359   3.554  10.152   9.686  0.1447 -0.0455 -0.1889
 2309W        W 6360   0.385   9.629   9.878  0.1497 -0.0138  0.1785
 2310W        W 6361   4.470   2.659   2.009 -0.0284 -0.0997  0.0187
 2311W        W 6362   1.263   7.781   5.215 -0.1936 -0.0767 -0.0965
 2312W        W 6363   3.323   4.630   3.752 -0.0301 -0.1106 -0.2087
 2313W        W 6364   9.571   2.181   1.017  0.0662  0.3189 -0.1332
 2314W        W 6365   4.636   8.091   1.936 -0.1018  0.0296 -0.0665
 2315W        W 6366   0.381   4.034  13.577 -0.0332  0.1355  0.2248
 2316W        W 6367   6.671   5.866  13.568  0.0813 -0.0837  0.0087
 2317W        W 6368   0.558   3.838   3.467  0.2755 -0.0441  0.1207
 2318W        W 6369   9.784   0.267   4.050  0.1511  0.0721 -0.0057
 2319W        W 6370   3.143   9.814   3.655  0.3416  0.2039 -0.0513
 2320W        W 6371   3.750   8.952   1.346 -0.1757  0.0312  0.0700
 2321W        W 6372   1.950   5.813  12.141 -0.0599 -0.0828  0.0098
 2322W        W 6373   3.667   5.046  12.567 -0.1383 -0.3364 -0.2419
 2323W        W 6374   4.286   0.697   0.480 -0.0953  0.0450  0.1139
 2324W        W 6375   7.922   2.925  10.435  0.4663 -0.0684 -0.1637
 2325W        W 6376   7.278   5.703   1.892 -0.1119 -0.0816  0.0104
 2326W        W 6377   7.478   5.752   2.439 -0.1677  0.0285 -0.0876
 2327W        W 6378   1.980   0.529   3.254  0.0614  0.2176  0.1346
 2328W        W 6379   9.852   4.322   0.151 -0.0728  0.3237  0.0948
 2329W        W 6380   3.404   1.496  10.688  0.0940 -0.2805  0.0589
 2330W        W 6381   1.824   2.608   0.101 -0.0922 -0.0756 -0.0547
 2331W        W 6382  10.004   9.464  10.360  0.0444  0.2250 -0.2302
 2332W        W 6383   2.351   5.165   4.391 -0.1169  0.6150 -0.1381
 2333W        W 6384   2.775  10.234  12.237 -0.2983 -0.2737  0.1178
 2334W        W 6385   5.981   0.001   1.072 -0.0219 -0.1962  0.3047
 2335W        W 6386   5.667   2.011   2.329 -0.1337 -0.1275 -0.0285
 2336W        W 6387   1.050   6.022   4.106 -0.1512  0.0922 -0.1781
 2337W        W 6388   6.875   4.297   0.036 -0.3208  0.0862 -0.0028
 2338W        W 6389   3.623   6.362   3.765  0.0545 -0.0245  0.0109
 2339W        W 6390   7.505   2.131  11.175  0.2409 -0.2523  0.0843
 2340W        W 6391   1.465   5.620   3.335 -0.1463  0.0616  0.0895
 2341W        W 6392   3.470   1.165  12.569 -0.0135 -0.1665 -0.1767
 2342W        W 6393   9.539   7.359  13.257 -0.1764 -0.0313  0.1867
 2343W        W 6394   4.872   7.033  10.595  0.0279 -0.1457 -0.1097
 2344W        W 6395   4.659   7.297   8.898 -0.1259 -0.0159 -0.0645
 2345W        W 6396   1.528   4.510   5.868  0.0812 -0.2727  0.2333
 2346W        W 6397   6.419   9.041   2.643  0.1372  0.1275  0.2967
 2347W        W 6398   0.158   0.085   2.366  0.1273 -0.1253  0.1857
 2348W        W 6399   3.849  10.022  10.642 -0.1078 -0.2344 -0.0069
 2349W        W 6400   7.652   1.489   2.592  0.0336 -0.4163 -0.3806
 2350W        W 6401   7.459   0.516   4.958 -0.1823 -0.2343 -0.0937
 2351W        W 6402   1.747   9.362   0.220 -0.0571 -0.0935 -0.0925
 2352W        W 6403   2.406   0.919  11.418 -0.1540 -0.0579  0.1598
 2353W        W 6404   4.499   4.453   4.403 -0.0559 -0.1112 -0.1350
 2354W        W 6405   4.037   7.150   0.540 -0.2604 -0.1041  0.0717
 2355W        W 6406   2.529   9.555   4.749  0.3063  0.2396 -0.1753
 2356W        W 6407   1.593   4.027   9.144  0.2921  0.0482  0.0774
 2357W        W 6408   7.169   3.734   1.688 -0.0621 -0.2711  0.2266
 2358W        W 6409   0.128   2.671  13.091  0.1191 -0.5001  0.0155
 2359W        W 6410   5.037   8.814  11.116 -0.3331 -0.1937 -0.1186
 2360W        W 6411   7.160   6.842  12.720 -0.2286  0.0097 -0.0046
 2361W        W 6412   3.488   8.600   1.901 -0.0574 -0.2642 -0.4551
 2362W        W 6413   3.669   2.195   0.103 -0.1630 -0.0929  0.0440
 2363W        W 6414   4.530   4.804  12.349  0.2739  0.1170 -0.2812
 2364W        W 6415   6.514   1.105  10.034 -0.0826 -0.0065  0.0621
 2365W        W 6416   1.467   4.742   1.336  0.1324 -0.0496  0.0033
 2366W        W 6417   0.138   0.198   0.369  0.2092  0.1866 -0.2156
 2367W        W 6418   1.282   9.955   3.303  0.1230 -0.0368 -0.1812
 2368W        W 6419   9.977   0.972   2.932 -0.0600 -0.1507  0.4245
 2369W        W 6420  10.221   5.171   2.208  0.2106  0.0246  0.0496
 2370W        W 6421   3.564   8.681  11.012 -0.2120  0.0894  0.1336
 2371W        W 6422   1.732   1.004   1.672 -0.1228  0.1578 -0.0103
 2372W        W 6423   6.077   5.686  10.287 -0.2308 -0.1902  0.0444
 2373W        W 6424   0.615   1.744  10.004  0.1387 -0.0114  0.1273
 2374W        W 6425   6.010   0.723   3.382 -0.0769  0.2404 -0.0006
 2375W        W 6426   0.304   8.895   9.890  0.1408  0.0287  0.1748
 2376W        W 6427   6.478   3.065   2.156  0.2606 -0.2841  0.1889
 2377W        W 6428   9.248   4.932   2.107  0.3582  0.0310 -0.0614
 2378W        W 6429   6.760   3.280   4.150  0.1900 -0.0023  0.0456
 2379W        W 6430   7.515   6.695   0.529 -0.0349  0.0076 -0.1848
 2380W        W 6431   2.678   9.807  12.981  0.2925 -0.2265 -0.0258
 2381W        W 6432   1.117   5.618   9.419  0.1225  0.2284 -0.0821
 2382W        W 6433   8.857   3.147   4.498  0.2277 -0.0131 -0.2575
 2383W        W 6434   4.018   5.312   0.918 -0.1519 -0.0326 -0.4270
 2384W        W 6435   3.564   5.601   3.436 -0.1566  0.1470  0.1119
 2385W        W 6436   2.862   8.637  13.140  0.0419  0.1954  0.2334
 2386W        W 6437   7.388   0.498   9.610 -0.4798  0.0008  0.0809
 2387W        W 6438   9.844   5.851   5.473 -0.0795  0.1480 -0.0593
 2388W        W 6439   0.419   4.693   5.436 -0.0318 -0.1077 -0.0730
 2389W        W 6440   4.231   5.769   0.833 -0.0020 -0.2838 -0.2234
 2390W        W 6441   6.175   6.605  10.401  0.0250 -0.4822 -0.1969
 2391W        W 6442   6.022   9.094  11.355 -0.4490 -0.0908  0.1529
 2392W        W 6443   6.103   9.137  12.823 -0.0690 -0.1138 -0.1870
 2393W        W 6444   4.034   8.981   9.522 -0.0215  0.1882 -0.2726
 2394W        W 6445   0.509   9.737  12.974  0.2113  0.1421  0.0756
 2395W        W 6446   8.992   5.334   1.407 -0.0588  0.1685  0.0498
 2396W        W 6447   2.402   9.579  12.596 -0.3376  0.2475  0.1943
 2397W        W 6448   6.113   6.195   3.859 -0.0497 -0.0492  0.0589
 2398W        W 6449   9.474   1.917  11.007 -0.1195 -0.0432  0.0931
 2399W        W 6450   7.555   1.223   1.785 -0.3174  0.4156  0.2370
 2400W        W 6451   9.921   4.253  11.178  0.0477 -0.0171  0.1067
 2401W        W 6452   5.069   2.334  10.555 -0.1754 -0.1570 -0.1182
 2402W        W 6453   9.740   3.193   9.870 -0.4146 -0.0334  0.2706
 2403W        W 6454   2.851   6.827  11.550  0.0541 -0.1379 -0.0415
 2404W        W 6455   6.799   4.321  10.261 -0.2438 -0.0037  0.1493
 2405W        W 6456   7.212   7.844  12.018  0.0538 -0.0660  0.0749
 2406W        W 6457   3.901   9.769   1.284  0.0577 -0.1663  0.0505
 2407W        W 6458   8.916   4.596   1.923  0.0394  0.1314  0.1182
 2408W        W 6459   1.916   2.484   1.092  0.0457 -0.0043  0.0399
 2409W        W 6460   4.625   2.138   0.095  0.0298 -0.3349 -0.1176
 2410W        W 6461   6.560   2.166   2.471 -0.2092  0.0086 -0.1909
 2411W        W 6462   0.256   1.990   1.425 -0.0982  0.0058 -0.1474
 2412W        W 6463   0.203   4.333  12.587  0.0811 -0.0321 -0.3530
 2413W        W 6464   1.937   0.653   3.767 -0.2863  0.2446  0.0362
 2414W        W 6465   8.276   3.188  12.701  0.0835 -0.0742 -0.0718
 2415W        W 6466   5.837   1.915  10.643  0.2491  0.0519  0.0512
 2416W        W 6467   2.687   5.528   3.830  0.3040 -0.0760 -0.2962
 2417W        W 6468   7.566  10.321  12.643  0.0960 -0.1110  0.0428
 2418W        W 6469   5.477   9.114   8.585 -0.0916 -0.0238 -0.1030
 2419W        W 6470   2.131   6.625   3.378 -0.1970 -0.4763  0.2185
 2420W        W 6471   8.960   0.390  11.360 -0.1268 -0.0951  0.1668
 2421W        W 6472   5.343   9.765  13.565 -0.0731  0.1812  0.1628
 2422W        W 6473   1.621   5.300   1.107 -0.4099 -0.2249  0.0113
 2423W        W 6474   6.925   5.434   1.112  0.3398 -0.3134  0.0076
 2424W        W 6475   2.732   1.023   2.652  0.0184  0.1390  0.3560
 2425W        W 6476   3.339   0.984  10.700 -0.1973  0.0063 -0.0361
 2426W        W 6477   4.603   2.547   2.540 -0.1704 -0.1878  0.0397
 2427W        W 6478   9.796   2.970   3.374  0.0266 -0.0564  0.0872
 2428W        W 6479   1.292   8.082   0.721 -0.0580 -0.1102  0.0068
 2429W        W 6480   9.535   3.721  12.228  0.0839  0.3723 -0.1574
 2430W        W 6481   7.263   0.479   4.137 -0.1109 -0.0011  0.3905
 2431W        W 6482   8.139   0.534  10.141 -0.0682  0.0620  0.0254
 2432W        W 6483   4.428   8.867   4.392  0.0908 -0.1270  0.0286
 2433W        W 6484   2.811   2.979   2.797 -0.0766  0.0248  0.1017
 2434W        W 6485   4.098   3.212  13.149  0.1626  0.0085  0.2606
 2435W        W 6486   6.854   0.162   2.931 -0.0130 -0.4010 -0.1276
 2436W        W 6487   9.290   9.810   0.397 -0.1892  0.3987  0.0627
 2437W        W 6488   3.064   0.120   1.599 -0.0988  0.0354 -0.0678
 2438W        W 6489   1.226   1.501  10.891  0.2280 -0.3765  0.2451
 2439W        W 6490   7.935   1.086  10.120 -0.0065  0.0865  0.2512
 2440W        W 6491   2.929   3.085   5.052 -0.1715  0.1299  0.1317
 2441W        W 6492   6.486   7.285   0.213 -0.1010 -0.1095  0.2801
 2442W        W 6493   2.805   4.947   4.675  0.0498  0.1157  0.2185
 2443W        W 6494   0.006   7.872   2.854  0.2467  0.0425 -0.0326
 2444W        W 6495   0.743   6.622  13.488  0.0236 -0.0465 -0.2216
 2445W        W 6496  10.317   9.791  12.846  0.0903  0.0175  0.2547
 2446W        W 6497   6.395   4.680   0.041 -0.2916  0.2098 -0.2217
 2447W        W 6498  10.320   1.972   4.359  0.0766 -0.2637 -0.0536
 2448W        W 6499   8.402   9.665  12.685 -0.3878 -0.1388 -0.0097
 2449W        W 6500   1.378  10.283   0.136 -0.3135  0.2579 -0.0448
 2450W        W 6501   7.316   7.871   3.335  0.1512  0.4440 -0.1775
 2451W        W 6502   3.918   4.583  13.279 -0.2782 -0.0827  0.1501
 2452W        W 6503   4.859   6.619   1.145 -0.2055 -0.1511 -0.2451
 2453W        W 6504   3.654   8.626   9.988 -0.2274  0.0419 -0.0799
 2454W        W 6505   4.764   2.916  10.058 -0.1332  0.1022  0.2231
 2455W        W 6506   8.498   8.237   1.617 -0.2680  0.0013 -0.2504
 2456W        W 6507   3.158   9.203   9.687  0.0466  0.2432  0.4793
 2457W        W 6508   6.391   8.857  12.198 -0.2344  0.2570  0.1211
 2458W        W 6509   4.739   6.500   2.818  0.1738  0.0312  0.0218
 2459W        W 6510   2.435   9.708   2.975  0.1447  0.0717  0.2353
 2460W        W 6511   7.219   9.521   9.294 -0.0754 -0.0396 -0.2186
 2461W        W 6512   8.541   7.882   9.949 -0.0536 -0.0622 -0.2477
 2462W        W 6513   1.830  10.237  10.425 -0.0074  0.0418 -0.0017
 2463W        W 6514   2.718   0.456  10.396 -0.2009  0.0369  0.0665
 2464W        W 6515   6.343   1.553   5.221  0.1744 -0.1035  0.0022
 2465W        W 6516   6.110   2.962   1.318 -0.1932 -0.0606  0.3078
 2466W        W 6517   2.498   3.785  13.017  0.4009  0.2548  0.0735
 2467W        W 6518   8.037   4.833   3.067  0.1065 -0.0165 -0.1047
 2468W        W 6519   7.282   5.008   0.768 -0.0104 -0.1242  0.0724
 2469W        W 6520   3.410   4.411   0.824 -0.0689 -0.0003  0.0926
 2470W        W 6521   1.446   1.638  10.431  0.0662 -0.0724  0.2607
 2471W        W 6522   4.877   9.708  11.327 -0.0914 -0.1458  0.1020
 2472W        W 6523   7.086  10.142   4.783 -0.3556 -0.3194  0.0486
 2473W        W 6524   7.995   0.384   0.555 -0.0069 -0.3376 -0.1773
 2474W        W 6525   4.142   1.997   3.783 -0.0350  0.0388  0.2687
 2475W        W 6526   6.728   9.128  10.189  0.1084  0.2062  0.0525
 2476W        W 6527   5.442   8.250  10.384 -0.1420 -0.0612 -0.0493
 2477W        W 6528   8.560   1.970   1.813  0.2501 -0.1140  0.0429
 2478W        W 6529   7.165   0.918   1.938 -0.3251  0.2050 -0.2351
 2479W        W 6530   1.978   5.433  12.521  0.1278 -0.1388 -0.1924
 2480W        W 6531   3.600   3.167   9.953  0.3006  0.0836  0.1828
 2481W        W 6532   5.159   4.763   9.650  0.1106  0.1657  0.0772
 2482W        W 6533   1.022   6.388   9.072  0.0830 -0.1814  0.4430
 2483W        W 6534   2.786   4.292   5.290 -0.1580 -0.0490  0.0291
 2484W        W 6535   2.384   8.703   1.786  0.0839 -0.0495  0.2770
 2485W        W 6536  10.289   9.318   4.833 -0.3317  0.1074 -0.0216
 2486W        W 6537   7.409   3.920  11.917  0.0394  0.0017 -0.2471
 2487W        W 6538   6.404   8.928   9.192 -0.0704 -0.3504 -0.1122
 2488W        W 6539   1.343  10.241   4.676  0.1197 -0.4033 -0.0559
 2489W        W 6540   1.190   9.231   1.612 -0.1332  0.3090  0.0585
 2490W        W 6541   0.635   9.552   1.975 -0.2034 -0.3373 -0.0875
 2491W        W 6542   0.075   7.483   1.950  0.1601 -0.1818  0.1250
 2492W        W 6543   1.694   9.657   2.938  0.0068 -0.0364  0.1136
 2493W        W 6544   2.341   7.852   1.942  0.1191 -0.1712 -0.4055
 2494W        W 6545   3.312   8.551  12.169 -0.3092  0.1886  0.1426
 2495W        W 6546   1.455   2.748   5.008  0.4994 -0.0911 -0.1157
 2496W        W 6547   0.759   7.625   5.253 -0.1714 -0.4180  0.1899
 2497W        W 6548   5.202   6.198   7.250  0.0338  0.0045  0.2622
 2498W        W 6549   8.550   9.990   2.692  0.2545  0.0251 -0.0937
 2499W        W 6550   8.637   6.827  11.568  0.1766 -0.1261 -0.0964
 2500W        W 6551   4.965   4.345   3.679  0.2726 -0.0012  0.2983
 2501W        W 6552   1.472   1.388   3.516 -0.1546 -0.1594  0.3200
 2502W        W 6553   4.136  10.254   2.757 -0.0178 -0.1199 -0.2860
 2503W        W 6554   8.393   5.386   4.012  0.1104 -0.4027  0.0843
 2504W        W 6555   8.223   5.334   3.188 -0.1079  0.1449  0.1926
 2505W        W 6556   0.953   0.526   1.332 -0.1169  0.0020 -0.1028
 2506W        W 6557   0.191   3.917   5.398 -0.2198 -0.1650 -0.2390
 2507W        W 6558   3.534   9.056   4.058 -0.0114 -0.2298 -0.0386
 2508W        W 6559   8.748   7.794  11.569  0.2850  0.1931  0.1705
 2509W        W 6560   1.038   5.523  11.314  0.2129 -0.0738 -0.1840
 2510W        W 6561   5.471   3.504   1.204 -0.3228  0.1536 -0.1527
 2511W        W 6562   1.340   0.411   5.030 -0.1621  0.1220 -0.3538
 2512W        W 6563   0.102   1.997  11.648  0.2263  0.0459 -0.2316
 2513W        W 6564   2.127   2.677   4.256 -0.1727 -0.2661 -0.2131
 2514W        W 6565   7.043   9.774  13.443  0.0751  0.1729 -0.0323
 2515W        W 6566   3.618   5.932  11.627  0.0351  0.2040  0.0473
 2516W        W 6567   0.405   9.735   0.431 -0.1810 -0.2710 -0.3081
 2517W        W 6568   3.066   4.882  13.155 -0.1534 -0.2125 -0.1211
 2518W        W 6569   1.121   6.406   9.993 -0.1387  0.0342  0.1519
 2519W        W 6570   1.332   3.528   5.297  0.4233 -0.0398  0.0053
 2520W        W 6571   5.953   6.300  11.182  0.1734  0.0575 -0.4438
 2521W        W 6572   5.954   5.712  12.088 -0.2825  0.2383 -0.4011
 2522W        W 6573  10.059   3.251  11.786  0.0345  0.2751 -0.0829
 2523W        W 6574   8.519   8.783  12.437 -0.0664  0.5753  0.0106
 2524W        W 6575   0.798   5.657   2.027  0.2154 -0.0330  0.1157
 2525W        W 6576   8.979   7.484   2.498  0.1013  0.0512 -0.0378
 2526W        W 6577   9.958   3.515   3.274  0.1036  0.0503 -0.0128
 2527W        W 6578   4.556   2.064  11.604  0.0816 -0.4182  0.0238
 2528W        W 6579   4.027  10.157   9.603  0.2678  0.3234  0.2894
 2529W        W 6580   4.175   4.978  13.168  0.2042 -0.1898 -0.0200
 2530W        W 6581   7.665   4.279   0.417 -0.3640  0.1855  0.2672
 2531W        W 6582   1.395   5.123   4.632 -0.2256 -0.1515 -0.0847
 2532W        W 6583   1.592   9.793   0.213 -0.2645  0.0235  0.3132
 2533W        W 6584   8.747   4.137   4.083 -0.2963 -0.1573  0.2276
 2534W        W 6585   3.237   7.282  10.212  0.0423 -0.1201 -0.0420
 2535W        W 6586   3.659   4.511  12.721  0.1272 -0.0829  0.0463
 2536W        W 6587   8.764   5.958  11.032  0.0321  0.0262 -0.3033
 2537W        W 6588   7.533   1.935  10.650 -0.3857  0.1325 -0.1131
 2538W        W 6589   5.539   6.981  12.492  0.0580  0.4727 -0.2484
 2539W        W 6590   3.455   9.439   0.293 -0.1069 -0.0451  0.0443
 2540W        W 6591   3.944   4.239   0.887  0.1204 -0.0347 -0.3925
 2541W        W 6592   9.275   7.033   0.804 -0.0476 -0.1706  0.0174
 2542W        W 6593   5.226   8.500  12.146 -0.0744  0.3101 -0.0468
 2543W        W 6594   0.371   2.159   5.895 -0.2411  0.1109 -0.1756
 2544W        W 6595   7.525   9.205   1.055 -0.2362 -0.0563  0.1624
 2545W        W 6596   4.611   8.447   0.923  0.0896 -0.0457 -0.3895
 2546W        W 6597   9.205   6.856   2.598  0.0386 -0.1329  0.0619
 2547W        W 6598   1.707   3.503   5.621 -0.1592  0.0613  0.1720
 2548W        W 6599   9.783   2.141   2.245  0.0589  0.0288  0.0259
 2549W        W 6600   0.287   9.056   4.533 -0.1527 -0.1372  0.0424
 2550W        W 6601  10.204   3.656  11.112 -0.3726 -0.1839  0.0659
 2551W        W 6602   6.212   6.961  11.888 -0.1153  0.2800  0.0307
 2552W        W 6603   0.149   3.758   4.527 -0.2344 -0.1276 -0.2888
 2553W        W 6604   4.246  10.012  11.564  0.1203 -0.0572  0.1933
 2554W        W 6605  10.293  10.117  12.304 -0.4310 -0.3173  0.0435
 2555W        W 6606   0.048   2.980  12.184  0.0973  0.0333 -0.0034
 2556W        W 6607   1.720   2.503   6.101  0.1726 -0.2728  0.2177
 2557W        W 6608   3.438   2.868  10.838  0.1366 -0.2157  0.2028
 2558W        W 6609   3.137   2.700   4.003 -0.0426 -0.3309  0.0721
 2559W        W 6610   8.081   9.281   3.091 -0.0970 -0.1793  0.0190
 2560W        W 6611   7.832   7.780   3.394  0.2038 -0.0131 -0.1913
 2561W        W 6612   8.063   5.013  11.828 -0.0418  0.1596  0.2195
 2562W        W 6613   1.136   7.047   9.685 -0.0059 -0.1787 -0.1528
 2563W        W 6614   7.028   1.101  12.744  0.3875  0.2023 -0.1094
 2564W        W 6615   1.610   1.747   5.240  0.0677  0.0689 -0.1706
 2565W        W 6616   2.139   5.565   2.517 -0.0011  0.1466  0.1312
 2566W        W 6617   5.860   0.990   1.932  0.0502 -0.0205  0.1404
 2567W        W 6618   1.219  10.016   1.148 -0.5342 -0.1771 -0.0360
 2568W        W 6619   8.017   1.515   4.979  0.3275 -0.0129  0.0502
 2569W        W 6620   8.485   8.366   0.614  0.1976  0.0570  0.1399
 2570W        W 6621   4.271   1.082   1.263 -0.0087  0.1557  0.1210
 2571W        W 6622   3.661   1.617   4.370 -0.2155 -0.0988 -0.0831
 2572W        W 6623   8.162   1.974   4.761  0.3988  0.0363 -0.3114
 2573W        W 6624   8.777   5.708   1.795 -0.2139  0.2025 -0.2534
 2574W        W 6625   7.559   7.462  12.129  0.0586  0.1225 -0.0026
 2575W        W 6626   4.836   3.342  11.724  0.3414  0.1317 -0.1743
 2576W        W 6627   5.422   0.346  12.905  0.1184 -0.0052  0.0352
 2577W        W 6628   8.729   1.154   4.662  0.3534  0.1599 -0.0178
 2578W        W 6629   3.046   3.247   2.143 -0.0656 -0.1408 -0.0138
 2579W        W 6630   3.242   3.885  11.113 -0.2602  0.1367 -0.1046
 2580W        W 6631   2.083   3.493   5.946 -0.1595  0.2234 -0.0403
 2581W        W 6632   1.979   2.559  11.267 -0.0927 -0.1038 -0.1748
 2582W        W 6633   4.388   7.547  12.206  0.1018  0.0267 -0.0770
 2583W        W 6634   8.281   9.869  10.515  0.2826  0.2587 -0.1653
 2584W        W 6635   2.808   7.669  12.682 -0.0798  0.1253 -0.1630
 2585W        W 6636   7.950   2.883   4.973  0.2878  0.1471  0.3389
 2586W        W 6637   8.055   4.524   2.207  0.0070 -0.0609  0.0315
 2587W        W 6638   1.547   6.550   0.228  0.0467 -0.0172 -0.3695
 2588W        W 6639   0.295   7.328  13.566  0.1129 -0.2666 -0.2364
 2589W        W 6640   3.056   4.295  11.488  0.1340 -0.0807 -0.1091
 2590W        W 6641   2.639   4.405   3.064  0.2231 -0.1824 -0.2855
 2591W        W 6642   2.718   2.326  10.573  0.2802  0.1173  0.3344
 2592W        W 6643   8.244   5.754  11.185  0.0601  0.3355  0.0751
 2593W        W 6644   8.348   9.907   0.942  0.2651 -0.2184 -0.0923
 2594W        W 6645   4.299   1.127  12.585  0.3829  0.1163 -0.2010
 2595W        W 6646   1.098   0.333   2.142 -0.2786 -0.1252  0.0519
 2596W        W 6647   4.947   0.209   9.166  0.0067  0.1005  0.2202
 2597W        W 6648   5.474   6.184  12.286  0.0615  0.1340  0.0382
 2598W        W 6649   2.695   9.647   2.543  0.0249 -0.0587  0.3741
 2599W        W 6650   0.042   8.002   5.688 -0.2127 -0.1148  0.2425
 2600W        W 6651   1.934   7.855   3.896 -0.2258 -0.0040  0.0095
 2601W        W 6652   9.182  10.033  12.137  0.0496  0.3925 -0.0391
 2602W        W 6653   9.554   4.653   4.521 -0.1565  0.1130 -0.0235
 2603W        W 6654   6.941   9.496   4.106 -0.3188 -0.2067  0.0598
 2604W        W 6655   3.308   7.902   3.669  0.2082  0.1782 -0.2056
 2605W        W 6656   8.054   7.128   2.626  0.2004  0.2616  0.2382
 2606W        W 6657   0.763   8.198   3.497 -0.1162 -0.0422 -0.0283
 2607W        W 6658   1.068   9.024  11.261 -0.1739  0.0706 -0.1488
 2608W        W 6659   2.981   8.914  12.294  0.1573  0.0608  0.1889
 2609W        W 6660   8.313   7.623  13.436  0.1076  0.0729  0.0163
 2610W        W 6661   6.820   4.025   4.281 -0.2009  0.2092 -0.0886
 2611W        W 6662   8.372   5.024   9.835  0.0794 -0.1971  0.0710
 2612W        W 6663  10.238   9.184   4.274  0.1457  0.2507  0.1573
 2613W        W 6664   1.463   9.257   4.526 -0.2956  0.1859 -0.2285
 2614W        W 6665   4.862   0.870   1.081  0.2339 -0.0687 -0.0653
 2615W        W 6666   3.012   0.370   1.165 -0.1375  0.2581 -0.1643
 2616W        W 6667   4.089   1.004   4.040 -0.1628  0.4555  0.1087
 2617W        W 6668   2.684   9.109  10.692  0.0209  0.2991  0.3830
 2618W        W 6669   2.549  10.265   4.121 -0.3298  0.1781  0.2463
 2619W        W 6670   2.319   6.964  10.881  0.0196  0.3517  0.0295
 2620W        W 6671   7.946   8.398  13.456 -0.0076 -0.3944  0.0251
 2621W        W 6672   0.279   0.684   5.121 -0.2269 -0.2319  0.0826
 2622W        W 6673   8.697   0.584  11.742  0.0163 -0.2793  0.5168
 2623W        W 6674   6.915   5.652   9.790 -0.0587 -0.1070 -0.2749
 2624W        W 6675   5.733   9.762   0.355 -0.3083 -0.0069  0.0011
 2625W        W 6676   7.501  10.304   2.939 -0.0036 -0.1109 -0.1301
 2626W        W 6677   9.517  10.208   4.524  0.0324  0.0901 -0.1311
 2627W        W 6678   0.738   3.658   3.993  0.1145 -0.1488  0.4831
 2628W        W 6679   3.809   8.534  11.927 -0.3547  0.0705 -0.0683
 2629W        W 6680   9.552   7.059  11.091 -0.0396  0.0202 -0.2562
 2630W        W 6681   4.166   7.006  13.469 -0.0029  0.0780  0.0690
 2631W        W 6682   3.883   9.278   5.422 -0.2868  0.1427  0.1779
 2632W        W 6683   4.470   8.296   2.511  0.0060  0.0346 -0.3366
 2633W        W 6684   6.519   6.982  12.865 -0.2564  0.0079 -0.0076
 2634W        W 6685   3.444   4.498   5.343 -0.4108  0.2131 -0.3112
 2635W        W 6686   3.686   4.014   4.977 -0.0691 -0.0150  0.2980
 2636W        W 6687   5.848   3.161   0.938 -0.0521  0.0467 -0.2630
 2637W        W 6688   2.000   5.582   1.319  0.1697  0.0179 -0.2239
 2638W        W 6689   2.669   7.594   0.035 -0.2285  0.0266 -0.1449
 2639W        W 6690   8.803   8.951   4.175 -0.1770 -0.0765  0.1946
 2640W        W 6691   7.598   4.188   1.565  0.2285  0.1752 -0.0678
 2641W        W 6692   0.686   1.407   2.761  0.0965 -0.2053  0.0692
 2642W        W 6693   6.640   3.085  10.880 -0.1254  0.0545  0.1422
 2643W        W 6694   3.110   0.250   0.506  0.2013  0.1054 -0.0508
 2644W        W 6695   4.762   1.687  11.957 -0.0216  0.0198  0.2258
 2645W        W 6696   7.012   5.859  10.360 -0.1589 -0.0309 -0.0317
 2646W        W 6697   4.616   3.051   1.257  0.0847 -0.0251 -0.0006
 2647W        W 6698   1.439   6.036   3.038 -0.1096  0.1409  0.1021
 2648W        W 6699   7.758   2.760   1.539  0.0242  0.2336 -0.3731
 2649W        W 6700   5.134   6.266   0.037 -0.1632 -0.2163 -0.1377
 2650W        W 6701   3.142   9.089   3.035  0.0527 -0.0277  0.3557
 2651W        W 6702   5.975   1.685   2.561  0.1581  0.1196  0.1374
 2652W        W 6703   5.072   5.531  12.962 -0.0609 -0.0482 -0.1664
 2653W        W 6704   0.032   4.181  11.453  0.0486 -0.1031  0.2959
 2654W        W 6705   9.961   2.935   5.625  0.0960  0.0281 -0.2630
 2655W        W 6706   5.447   5.129   1.366 -0.1915  0.0073 -0.3093
 2656W        W 6707   4.398  10.023   1.503  0.0912 -0.4104 -0.1361
 2657W        W 6708   8.895   0.434   1.800 -0.0340  0.3178 -0.2281
 2658W        W 6709  10.210   9.073   9.511 -0.1225  0.0768  0.0608
 2659W        W 6710   5.265   6.973   8.774 -0.0053  0.0835 -0.1520
 2660W        W 6711   8.266   5.335  12.703 -0.0886  0.1480 -0.0822
 2661W        W 6712   5.893   7.021  10.904  0.1500  0.0671  0.1629
 2662W        W 6713   3.315   7.998  13.189  0.0685 -0.2233  0.0596
 2663W        W 6714   0.486   4.508  10.120 -0.1783  0.0878  0.0879
 2664W        W 6715   1.509   4.207   4.196  0.3919  0.0935  0.2125
 2665W        W 6716   4.271   5.235   2.266 -0.1678 -0.2889 -0.2091
 2666W        W 6717   2.295  10.288  13.586  0.2073 -0.0178 -0.3038
 2667W        W 6718   4.281   5.774   2.183 -0.0186  0.3387 -0.2406
 2668W        W 6719   1.997   7.490   3.538  0.0027  0.2540  0.1616
 2669W        W 6720   5.789   7.502   3.714 -0.1314 -0.2342  0.0133
 2670W        W 6721  10.165   8.088  12.988  0.2711 -0.0520  0.0085
 2671W        W 6722   3.598   2.421   4.530  0.0301  0.0080  0.4291
 2672W        W 6723   3.498   7.762  11.591  0.0365 -0.1394  0.0547
 2673W        W 6724   9.005   2.553   1.606  0.0493  0.1423  0.1247
 2674W        W 6725   1.356   1.123  11.731 -0.3121 -0.0290 -0.1769
 2675W        W 6726   3.263   0.828  10.193 -0.0645 -0.1530  0.0701
 2676W        W 6727   9.502   3.309   5.044 -0.0674  0.2061  0.2557
 2677W        W 6728   8.077   6.869  10.123 -0.0443  0.1533  0.2085
 2678W        W 6729   1.131   9.532   9.936  0.2448 -0.1629 -0.2630
 2679W        W 6730  10.122   8.798   1.037  0.0353  0.0520  0.2367
 2680W        W 6731  10.053   9.857  13.299 -0.1162  0.0638  0.0081
 2681W        W 6732   3.969   5.874   3.618 -0.0394  0.1820 -0.3534
 2682W        W 6733   9.317   0.669  11.054  0.1751 -0.3592  0.1397
 2683W        W 6734   4.443   7.192   0.852 -0.3739 -0.0990  0.0917
 2684W        W 6735   9.536   6.563   9.231  0.1777  0.1650 -0.2271
 2685W        W 6736   0.306   0.560   4.244 -0.1682  0.1505  0.1226
 2686W        W 6737   4.875   9.786  10.363  0.1379 -0.1282  0.2609
 2687W        W 6738   2.579   4.119  11.567  0.0585 -0.0684 -0.1132
 2688W        W 6739   6.829   8.177   1.408 -0.2090 -0.1694  0.2310
 2689W        W 6740   8.222   0.132  13.298  0.3101  0.2568  0.0734
 2690W        W 6741   4.792   0.719  10.956  0.1314  0.4353  0.1638
 2691W        W 6742   5.570   8.588   1.180  0.1983  0.2947  0.0431
 2692W        W 6743   3.707   0.121   0.444  0.1852  0.1290 -0.2634
 2693W        W 6744   3.591   1.008  11.163 -0.1268 -0.1226 -0.1055
 2694W        W 6745   7.246   7.881   9.486 -0.0776 -0.1187  0.0433
 2695W        W 6746   8.102   6.867   3.815  0.1159  0.2261  0.1004
 2696W        W 6747   5.955   5.996   8.805 -0.0684 -0.1292 -0.0234
 2697W        W 6748   2.929   8.244   5.512 -0.0934  0.2445 -0.0121
 2698W        W 6749   8.686   2.796  10.736 -0.3483  0.1407 -0.0766
 2699W        W 6750   7.575   0.418   2.417  0.1348  0.2852 -0.3201
 2700W        W 6751   0.224   7.025   1.191 -0.4317  0.0732  0.0150
 2701W        W 6752   3.805   0.133  11.677  0.0526 -0.0297  0.0835
 2702W        W 6753   7.629   3.852  10.765  0.0105 -0.0906 -0.0620
 2703W        W 6754   8.180   8.667   0.273  0.1811  0.0816  0.1029
 2704W        W 6755   9.722   4.634  11.613  0.1210 -0.3825  0.1184
 2705W        W 6756   3.973   2.630   1.899 -0.0320  0.0234 -0.0522
 2706W        W 6757   7.821   6.537  12.250  0.3454  0.2828  0.0874
 2707W        W 6758   8.070   0.189  12.336  0.1650  0.0089  0.3519
 2708W        W 6759  10.261  10.132   5.205  0.2751  0.1975  0.3990
 2709W        W 6760   5.348   4.663   2.032 -0.1151 -0.1951  0.2231
 2710W        W 6761   0.241   0.305  13.458 -0.0614 -0.1546 -0.1245
 2711W        W 6762   9.283   5.426   9.832  0.1440 -0.0644  0.3667
 2712W        W 6763   7.115   7.203   2.311 -0.1658  0.4294 -0.1965
 2713W        W 6764   4.956   4.271   3.075 -0.1656 -0.1719  0.1162
 2714W        W 6765   8.429  10.266  12.526 -0.2817 -0.0618  0.1433
 2715W        W 6766   2.318   9.059   2.093  0.1655 -0.2581 -0.1812
 2716W        W 6767   3.019   5.204   0.306  0.1332  0.1271  0.1019
 2717W        W 6768   7.297   3.988   1.260  0.1887 -0.1838  0.1331
 2718W        W 6769   8.713   1.587   9.816  0.0339  0.1757 -0.4797
 2719W        W 6770   9.730   6.378   5.434  0.1653 -0.2125 -0.0223
 2720W        W 6771   7.308   0.957   5.252  0.0556  0.2914 -0.0599
 2721W        W 6772   3.542   0.146  10.765 -0.0558 -0.0909 -0.0713
 2722W        W 6773   5.282   6.142   0.580  0.0416  0.2752  0.0227
 2723W        W 6774   0.898   4.197   0.766  0.0371 -0.0616  0.1996
 2724W        W 6775   2.723   6.333   0.264  0.2095 -0.0925 -0.1566
 2725W        W 6776   3.241   1.919   2.929 -0.0510 -0.0276 -0.0745
 2726W        W 6777   5.814   7.080  11.565 -0.5328 -0.1602  0.3305
 2727W        W 6778   8.191   9.698   0.423  0.0165 -0.0120 -0.1722
 2728W        W 6779   7.302   2.636   0.709  0.0896  0.1537 -0.2393
 2729W        W 6780   1.439   9.990  11.934  0.0683 -0.0968  0.1724
 2730W        W 6781   3.610   6.998   8.797  0.0117  0.0691  0.1219
 2731W        W 6782   8.228   1.870   3.412 -0.2667 -0.3312 -0.1794
 2732W        W 6783   1.003   2.593  13.128  0.0778  0.1080  0.2090
 2733W        W 6784   5.456   8.507   9.952 -0.2469 -0.1023 -0.0926
 2734W        W 6785   3.540   1.494   1.199 -0.0013 -0.2025  0.1915
 2735W        W 6786   5.288   8.070   3.136  0.0310 -0.2071 -0.2439
 2736W        W 6787  10.295   5.571   1.794 -0.2195 -0.0903  0.0773
 2737W        W 6788   5.751   7.355   2.536 -0.2968 -0.1318  0.0776
 2738W        W 6789   4.140   3.869   0.251 -0.0210 -0.0216  0.0479
 2739W        W 6790   9.044   3.885   4.507 -0.0484 -0.2520 -0.2532
 2740W        W 6791  10.031   2.010  12.478 -0.0684  0.0288 -0.0459
 2741W        W 6792   4.178   3.353   1.333 -0.1036  0.4419 -0.2731
 2742W        W 6793   0.108   1.474   2.460  0.2685 -0.0813 -0.1326
 2743W        W 6794   7.273   6.607   1.598  0.1360  0.1710 -0.1775
 2744W        W 6795   8.691   0.191   0.562 -0.5757 -0.1092  0.3701
 2745W        W 6796   8.017   0.005   3.977  0.1355 -0.1955  0.0682
 2746W        W 6797   1.943   4.197   3.891 -0.0104  0.0619 -0.2799
 2747W        W 6798   4.169   5.558  10.096 -0.0419  0.0212 -0.1486
 2748W        W 6799   1.844   3.194  10.116 -0.2931 -0.3261 -0.1582
 2749W        W 6800   1.264   4.233   0.082 -0.1131 -0.1934 -0.2018
 2750W        W 6801   6.924   0.447   9.541  0.2969 -0.0283  0.0487
 2751W        W 6802   7.734   7.543  10.511  0.2826  0.0192  0.2633
 2752W        W 6803   3.091   8.371   2.068 -0.1717  0.4067 -0.0436
 2753W        W 6804   2.045   5.511  10.820  0.2079 -0.1335 -0.0225
 2754W        W 6805   3.589   7.249   3.008 -0.2384 -0.1048 -0.0450
 2755W        W 6806   5.397   1.171  11.172  0.1758 -0.0200 -0.1462
 2756W        W 6807   0.030   1.424   4.499 -0.3023 -0.0674  0.2148
 2757W        W 6808   1.664   0.906  12.132  0.1701 -0.1222  0.0578
 2758W        W 6809   4.228   6.439   4.468  0.2015  0.1523  0.1786
 2759W        W 6810   9.480   0.895   2.573  0.0655  0.1865  0.0280
 2760W        W 6811   9.152   1.383   4.451  0.1043  0.1569 -0.6056
 2761W        W 6812   0.905   6.864   9.206  0.1603  0.0217  0.4088
 2762W        W 6813   2.199   6.838  11.681 -0.1784  0.0995 -0.1042
 2763W        W 6814   1.907   8.373   0.663  0.1950  0.1359  0.0778
 2764W        W 6815   7.242   5.411   3.014 -0.0100 -0.2459  0.1420
 2765W        W 6816   9.732   5.116  12.260 -0.1812  0.1083 -0.0209
 2766W        W 6817   0.622   1.084  12.443  0.0179 -0.6491 -0.2248
 2767W        W 6818   0.197   1.955  11.147  0.1241  0.0007 -0.0060
 2768W        W 6819   1.073   9.682  11.977 -0.3227 -0.1339  0.0011
 2769W        W 6820   5.534   0.533   4.801  0.0574  0.0014  0.1202
 2770W        W 6821   4.226   3.659   2.660  0.1784 -0.3205 -0.1472
 2771W        W 6822   4.709   8.663  12.042 -0.0074 -0.0041 -0.1635
 2772W        W 6823   2.009   9.519   3.897  0.1609  0.1164  0.0767
 2773W        W 6824  10.255   1.017   5.282 -0.2170 -0.0957  0.2032
 2774W        W 6825   4.912   2.779  11.466  0.1487  0.2358 -0.0718
 2775W        W 6826   9.943   7.262   4.962 -0.0348 -0.0401 -0.0514
 2776W        W 6827   5.666   9.300  10.297  0.3597  0.0943 -0.1340
 2777W        W 6828   4.924   0.227  10.975  0.0261 -0.3525  0.2508
 2778W        W 6829   0.915   9.118  10.735  0.1052  0.0199  0.0763
 2779W        W 6830   2.828   7.610   9.799  0.3375  0.1751  0.1619
 2780W        W 6831   4.691   0.437  11.365  0.2924 -0.1725  0.2174
 2781W        W 6832   5.248   2.204   2.025 -0.1027 -0.1306  0.1221
 2782W        W 6833   6.993   0.201  11.516  0.5323 -0.2395 -0.1453
 2783W        W 6834  10.063   2.087  10.271  0.0773 -0.0003 -0.0377
 2784W        W 6835   5.253   0.743  12.394 -0.1245  0.0151 -0.2939
 2785W        W 6836   8.165  10.005   1.440 -0.0837  0.0483 -0.0784
 2786W        W 6837   9.386   0.502   9.450 -0.2567  0.1681  0.2106
 2787W        W 6838   3.095   0.471  11.482 -0.1406  0.0206  0.1724
 2788W        W 6839   8.604   8.436  10.170 -0.1552 -0.2093  0.1575
 2789W        W 6840   1.385   9.349   2.494 -0.1215  0.1306 -0.1612
 2790W        W 6841   4.159   2.335   4.168  0.2190  0.3603  0.3137
 2791W        W 6842   4.745   7.401  11.786  0.1221 -0.1034 -0.0808
 2792W        W 6843   4.748   3.155   0.314 -0.2176  0.3602  0.0647
 2793W        W 6844   9.985   6.930   4.145 -0.1015  0.0211 -0.2305
 2794W        W 6845   3.971   9.395  13.178 -0.2445  0.1523  0.0932
 2795W        W 6846   3.050   6.313   3.242  0.0583  0.1871 -0.2397
 2796W        W 6847   0.400   2.086   3.374 -0.1056 -0.2392  0.1455
 2797W        W 6848   0.870   0.778   0.482  0.4727 -0.0226 -0.0514
 2798W        W 6849   5.444   9.687   3.489 -0.1368  0.2450 -0.1714
 2799W        W 6850   6.410   2.154   1.703  0.0966 -0.0395  0.2602
 2800W        W 6851   3.701   2.902   1.115 -0.0097 -0.1950  0.0530
 2801W        W 6852   1.909   0.422  12.017  0.0194 -0.3936 -0.0689
 2802W        W 6853   8.405   9.155   0.253  0.1020 -0.1162  0.1510
 2803W        W 6854   7.244   9.757  11.419 -0.1594  0.0204 -0.2826
 2804W        W 6855   2.052   3.114   3.988 -0.1877  0.0639 -0.0325
 2805W        W 6856   4.771   6.546  13.010  0.3432 -0.0598  0.0498
 2806W        W 6857   8.683   7.434   3.956 -0.1220  0.3891  0.0823
 2807W        W 6858   4.564   9.532   1.007 -0.1823 -0.0448 -0.1419
 2808W        W 6859   1.435   4.264  11.319 -0.2109 -0.4773 -0.1475
 2809W        W 6860  10.306   0.093  13.070  0.0296 -0.3319 -0.0080
 2810W        W 6861   9.678   6.659  12.855  0.1180 -0.1035  0.0683
 2811W        W 6862   2.988   0.465   9.418  0.0974 -0.0404  0.0533
 2812W        W 6863   3.204   8.613   0.147  0.1926  0.1797 -0.0786
 2813W        W 6864   7.341   9.129   9.732  0.2648  0.2007 -0.2359
 2814W        W 6865   9.683   1.778   3.031 -0.1437  0.0781  0.0129
 2815W        W 6866   0.673   9.546  10.311 -0.2635 -0.0661  0.0754
 2816W        W 6867   8.118   0.638   4.649 -0.0240 -0.2113  0.0561
 2817W        W 6868   3.768   8.021   9.855 -0.3733 -0.3167 -0.1776
 2818W        W 6869   3.145  10.278   2.132 -0.1685  0.1008  0.1372
 2819W        W 6870   7.393   0.590  10.840  0.0006 -0.0452 -0.0329
 2820W        W 6871   1.273   7.283   5.312 -0.1462  0.3349  0.0461
 2821W        W 6872   6.028   0.107  13.081  0.2395  0.1970  0.1899
 2822W        W 6873   3.850   2.666   0.201 -0.0006  0.1528  0.2261
 2823W        W 6874   4.521   4.207   3.298 -0.3225  0.1768 -0.0454
 2824W        W 6875   8.931   3.355   0.455 -0.1162  0.2069  0.1267
 2825W        W 6876   0.094   1.045  13.590 -0.2081  0.3281 -0.1957
 2826W        W 6877   5.537  10.211   0.163 -0.0339  0.0372  0.1183
 2827W        W 6878   3.997   9.520  11.525  0.0514  0.1218 -0.0039
 2828W        W 6879   6.466   7.149  10.280 -0.1275  0.1016  0.1126
 2829W        W 6880   3.408   2.974   1.505 -0.3854 -0.3113 -0.0131
 2830W        W 6881   6.433   6.879   1.960  0.2299  0.2868 -0.1008
 2831W        W 6882   4.434   8.399   0.140  0.0061 -0.0856 -0.1698
 2832W        W 6883   3.414   4.086  12.931  0.0547  0.2852  0.2771
 2833W        W 6884   9.470   2.356   4.247 -0.3448  0.0092  0.0127
 2834W        W 6885   3.598   4.625   3.230 -0.1137  0.2263 -0.0489
 2835W        W 6886   5.077   5.585   1.176  0.1647  0.1828  0.1034
 2836W        W 6887   8.920   4.582   2.421 -0.1720 -0.0034  0.0146
 2837W        W 6888   0.998   4.657  12.595 -0.1169  0.0595 -0.2079
 2838W        W 6889  10.268   1.587  11.286  0.0889 -0.2209 -0.0618
 2839W        W 6890   5.428   4.512  13.518  0.1526  0.1674  0.0792
 2840W        W 6891   5.266   7.917   1.800 -0.0250  0.3155 -0.0736
 2841W        W 6892   7.449   3.404  12.259 -0.0296  0.2028 -0.0631
 2842W        W 6893   8.559   0.357  10.261  0.1447  0.1156  0.3307
 2843W        W 6894   2.006   9.469   2.557 -0.1020 -0.0048  0.1335
 2844W        W 6895   1.447   8.346   2.785  0.0319 -0.0820 -0.2135
 2845W        W 6896   2.904   4.011   4.892 -0.0443 -0.2211 -0.0682
 2846W        W 6897   2.817   1.130   8.384 -0.0787  0.4097 -0.1379
 2847W        W 6898   3.710   4.403   2.225  0.0917  0.0059 -0.1020
 2848W        W 6899   1.498   5.130   5.979 -0.1159 -0.1785  0.3074
 2849W        W 6900   2.556   8.198  11.642  0.1241  0.0185  0.2103
 2850W        W 6901   9.102   4.653  13.328 -0.2358  0.2952  0.2167
 2851W        W 6902   1.859   0.692   9.808  0.0414 -0.1189 -0.1164
 2852W        W 6903   2.030   5.082   9.111  0.2600  0.0671  0.0001
 2853W        W 6904   8.891   3.214   1.482 -0.1895  0.3061  0.0019
 2854W        W 6905   0.789   9.036   1.905 -0.1478 -0.1963 -0.0029
 2855W        W 6906   1.197   5.485   4.998  0.0852 -0.1839 -0.0983
 2856W        W 6907   3.247   5.576  11.811 -0.1201 -0.3890 -0.0351
 2857W        W 6908   7.390   6.267   3.614 -0.2480 -0.3893 -0.1003
 2858W        W 6909   8.907   6.547   2.247  0.2035 -0.0366  0.2071
 2859W        W 6910   7.139   7.699   2.341  0.0911 -0.0359 -0.1101
 2860W        W 6911   7.185   6.122   2.292 -0.0919 -0.0733  0.0227
 2861W        W 6912   6.328   0.338   3.127 -0.0234 -0.0003  0.1036
 2862W        W 6913   6.475   5.778   8.580 -0.1324 -0.0127 -0.2635
 2863W        W 6914   9.893   0.905  13.166 -0.2475  0.0466  0.2618
 2864W        W 6915   8.546   4.115  10.770  0.0296 -0.1716  0.3371
 2865W        W 6916   8.545   8.584   2.852  0.1252  0.0113  0.0572
 2866W        W 6917   7.080   8.036   1.946  0.1075  0.0968 -0.2218
 2867W        W 6918   0.414   6.701   4.790 -0.0868 -0.1485  0.1617
 2868W        W 6919   3.213   0.018  11.751  0.0427 -0.3367  0.2880
 2869W        W 6920   1.758   0.542  12.592  0.1704  0.2569  0.3092
 2870W        W 6921   8.442   3.191  12.190  0.3146 -0.2170  0.1131
 2871W        W 6922   7.649   7.751   8.325  0.1523  0.2539 -0.0213
 2872W        W 6923   3.656   3.312  10.942 -0.0479 -0.0638 -0.4155
 2873W        W 6924   9.676   3.784   0.227 -0.0596  0.0554 -0.0371
 2874W        W 6925   1.511   2.148  12.166 -0.0747  0.2194 -0.0982
 2875W        W 6926   7.761   8.355   2.607 -0.1888 -0.3062 -0.1802
 2876W        W 6927   7.375   9.288   1.576 -0.0866  0.0660  0.0781
 2877W        W 6928   3.697   7.742   4.334 -0.1651 -0.0934 -0.3169
 2878W        W 6929   6.206   3.229   9.963  0.1251  0.0177  0.3002
 2879W        W 6930   3.562   2.277  13.191  0.1808  0.0087  0.0495
 2880W        W 6931   0.165   6.700  10.656  0.3178 -0.1371 -0.0255
 2881W        W 6932   1.875   4.836  12.506 -0.4986  0.0290  0.3887
 2882W        W 6933   3.153   9.100  11.816  0.1535  0.0926 -0.1145
 2883W        W 6934   0.989   0.331  10.765 -0.1088 -0.0797 -0.0353
 2884W        W 6935   7.827   7.907  13.567  0.0085 -0.2445  0.0295
 2885W        W 6936   4.138   2.762   2.503  0.3313 -0.2328 -0.1196
 2886W        W 6937   3.464   1.752   3.905  0.2036 -0.1398 -0.0433
 2887W        W 6938   4.293   8.949   2.842 -0.1067  0.0923 -0.0196
 2888W        W 6939   1.180   4.373   3.180  0.0892 -0.1080  0.3269
 2889W        W 6940   2.532   2.739   3.186  0.1651  0.0365  0.1932
 2890W        W 6941   2.449   7.773  10.532 -0.1611 -0.0671  0.0152
 2891W        W 6942   6.998   6.441  11.324  0.2033 -0.1653  0.1789
 2892W        W 6943   7.235   8.879  11.425 -0.0696  0.4051  0.1048
 2893W        W 6944   0.951   0.164  13.400  0.6356  0.3294  0.1594
 2894W        W 6945   2.481   5.187   9.581  0.0416  0.3400 -0.1671
 2895W        W 6946   9.363   1.594   5.328 -0.1683 -0.0254 -0.1541
 2896W        W 6947   3.990  10.011   2.307 -0.1628 -0.2200 -0.0065
 2897W        W 6948   3.902   6.995  10.977 -0.1111 -0.1691 -0.0680
 2898W        W 6949   2.674   2.102  10.992 -0.0590 -0.0884  0.2226
 2899W        W 6950   7.067   0.452   2.293  0.0432 -0.0693  0.3083
 2900W        W 6951   7.165   9.651   2.933  0.1386  0.0074 -0.0411
 2901W        W 6952   9.671   9.688  12.899  0.0546  0.1071  0.1432
 2902W        W 6953   4.160   5.580  11.111 -0.2994 -0.1919  0.0842
 2903W        W 6954   4.339   3.885   1.613 -0.2834  0.3421 -0.0727
 2904W        W 6955   7.541   1.684   1.561  0.3073  0.4088 -0.0868
 2905W        W 6956   7.869   3.186   4.029 -0.1362  0.0312 -0.1597
 2906W        W 6957   6.689   8.564  10.891 -0.0217 -0.0747 -0.0743
 2907W        W 6958   5.240   0.445   1.291  0.1231  0.0667  0.0643
 2908W        W 6959   9.766   0.729   3.757 -0.0073  0.1666 -0.1092
 2909W        W 6960   0.583   8.338   3.936  0.0297  0.0372  0.1679
 2910W        W 6961   9.518   6.147   2.834 -0.2372  0.1726 -0.1874
 2911W        W 6962   3.496   7.258   0.029  0.3469  0.0826  0.3313
 2912W        W 6963   9.223   4.272   2.738  0.2628 -0.0291 -0.0632
 2913W        W 6964   4.015   8.694  10.778 -0.0138  0.0768  0.2199
 2914W        W 6965   5.651   9.683   1.705 -0.2524  0.2412  0.0133
 2915W        W 6966   4.288   4.363  12.374  0.1554 -0.0984  0.0930
 2916W        W 6967  10.228   7.384   1.129  0.0424 -0.0427  0.1101
 2917W        W 6968   5.779   9.790   2.171  0.2852  0.3100 -0.0342
 2918W        W 6969   1.461   2.489   2.165 -0.1980 -0.1793 -0.1948
 2919W        W 6970   9.790   3.725   4.956 -0.1160 -0.2020 -0.0036
 2920W        W 6971   8.984   4.192  11.137  0.1119 -0.1648  0.0238
 2921W        W 6972   0.235   1.977   0.888 -0.1072  0.2362  0.1471
 2922W        W 6973   1.863   9.801  11.695 -0.0316  0.0354  0.0849
 2923W        W 6974   8.072   8.592   9.393  0.0538  0.3121  0.0603
 2924W        W 6975   8.315   0.484   3.096  0.3992 -0.2800  0.1347
 2925W        W 6976   8.520   1.580  10.721 -0.2522 -0.0762  0.2711
 2926W        W 6977   0.034   6.022   5.658  0.3370 -0.0421  0.3817
 2927W        W 6978   3.461   8.123  11.905  0.2662  0.2806 -0.1554
 2928W        W 6979   1.898   5.914   4.522  0.0250 -0.0666 -0.0105
 2929W        W 6980   7.053  10.272  12.746 -0.0326  0.0998 -0.3201
 2930W        W 6981   1.360   6.958  11.056 -0.1633  0.0527  0.1484
 2931W        W 6982   0.024   5.712   3.249  0.1628 -0.1162  0.0366
 2932W        W 6983   0.649   3.738   1.896  0.0233 -0.0158  0.0602
 2933W        W 6984   7.272   0.680  11.634  0.1701 -0.1023  0.1203
 2934W        W 6985   5.399  10.099   1.664 -0.0257 -0.0978  0.0670
 2935W        W 6986   0.678   4.158   3.918  0.0375 -0.0515 -0.4789
 2936W        W 6987   4.550   1.501  10.893 -0.1886 -0.3617 -0.0887
 2937W        W 6988   3.162   1.443   0.169  0.1494 -0.0068 -0.0700
 2938W        W 6989   6.676   2.192   4.852 -0.0233  0.0702  0.3149
 2939W        W 6990   8.581   7.041   2.509  0.1988 -0.2742  0.1075
 2940W        W 6991   5.532   7.599   3.248  0.1376  0.2368 -0.2512
 2941W        W 6992   9.421   4.572   0.158  0.3741 -0.0212 -0.1163
 2942W        W 6993   8.990   4.901  12.854 -0.1002  0.1279  0.1288
 2943W        W 6994   0.679   3.769   5.317 -0.0248  0.2417  0.2832
 2944W        W 6995   1.702   2.366  12.579 -0.3918 -0.2903 -0.2265
 2945W        W 6996   9.324   5.551  10.618  0.3253 -0.0620 -0.1015
 2946W        W 6997   2.599   5.172   3.253  0.0818  0.0647  0.0228
 2947W        W 6998   9.229   8.453   3.406  0.0196 -0.2656 -0.3549
 2948W        W 6999  10.068   3.213  10.895  0.0075 -0.1262 -0.0384
 2949W        W 7000   3.759   4.370  11.795 -0.4026  0.1112  0.0998
 2950W        W 7001   2.206   5.243   2.185 -0.0050  0.1004  0.2134
 2951W        W 7002   9.401   4.637   9.552  0.1347  0.1182 -0.0294
 2952W        W 7003   4.566   6.185  10.122  0.0575  0.2411  0.5213
 2953W        W 7004   0.515   1.371   9.266  0.0873  0.1333  0.0856
 2954W        W 7005   7.436   9.055   4.626  0.2090 -0.0541  0.1667
 2955W        W 7006   2.639  10.094   4.649  0.3149 -0.0687 -0.2197
 2956W        W 7007   7.477   6.184  10.528 -0.1902  0.2573 -0.1330
 2957W        W 7008   3.910   4.733   2.811 -0.0351  0.2202  0.0876
 2958W        W 7009   7.298   7.014  10.318 -0.0989  0.1541  0.1120
 2959W        W 7010   1.542   6.829   5.076  0.0334  0.0572 -0.0809
 2960W        W 7011   1.445   2.173  13.027 -0.3498 -0.0671  0.1985
 2961W        W 7012   5.499   0.294  11.000 -0.3755  0.0914 -0.0080
 2962W        W 7013   6.555   8.565  12.569 -0.2624 -0.2105  0.0827
 2963W        W 7014   8.748   0.724   1.279  0.0927  0.2640  0.4989
 2964W        W 7015   5.087   1.121   8.561 -0.0137  0.5233  0.1122
 2965W        W 7016   6.042   7.108  13.103  0.0734  0.0162  0.0462
 2966W        W 7017   3.948   6.547   2.281  0.2832  0.2282 -0.3126
 2967W        W 7018   9.900   1.876   0.005  0.1165 -0.0123  0.2043
 2968W        W 7019   4.885   3.518  13.503  0.2402 -0.1518 -0.0670
 2969W        W 7020   8.312   5.861   2.833  0.0701 -0.0766  0.0845
 2970W        W 7021   8.959   6.022  12.149  0.3761  0.1194 -0.2138
 2971W        W 7022   1.473   2.901  13.362  0.1328  0.3491  0.1052
 2972W        W 7023   6.488   0.260  11.331  0.1471 -0.0681  0.0911
 2973W        W 7024  10.298   0.311  12.607  0.2509  0.0880  0.0665
 2974W        W 7025   9.416   8.391   9.674 -0.2245 -0.0534 -0.2493
 2975W        W 7026   2.809   4.533   3.948 -0.3528  0.1532 -0.1508
 2976W        W 7027   5.298   6.942   1.175 -0.0600 -0.0779 -0.1057
 2977W        W 7028  10.102   7.779   4.170 -0.1535  0.0661  0.1239
 2978W        W 7029   6.319   8.506   9.386  0.1705  0.3192 -0.0622
 2979W        W 7030   2.103   3.033   9.169  0.2205 -0.2875  0.1815
 2980W        W 7031   3.757   3.460   2.814  0.0585 -0.0836 -0.0053
 2981W        W 7032   4.124   9.627   3.953  0.2453  0.1807  0.3725
 2982W        W 7033   2.719   9.671  11.426  0.0085  0.1447  0.0866
 2983W        W 7034   8.916   1.125   3.465  0.0632  0.0054 -0.0792
 2984W        W 7035   0.045   5.734   1.303  0.0051 -0.2440  0.0131
 2985W        W 7036   5.281   9.619   8.524 -0.2353  0.1020  0.1180
 2986W        W 7037   7.557   5.287  13.544 -0.1206 -0.3927 -0.1665
 2987W        W 7038   7.117   3.747   0.734  0.1667 -0.1890 -0.0318
 2988W        W 7039   6.641   2.620  13.232  0.2266  0.1944  0.0441
 2989W        W 7040   0.573   2.263   4.923 -0.2852  0.3562  0.1717
 2990W        W 7041   4.225   7.219  11.803 -0.1673  0.2962  0.0473
 2991W        W 7042   1.327   8.557  12.662 -0.0883  0.3047 -0.2853
 2992W        W 7043   9.287   7.651   2.157  0.0779 -0.1749 -0.3325
 2993W        W 7044   9.258   6.653   3.631 -0.0404  0.0432  0.1758
 2994W        W 7045   0.912   4.484  10.909 -0.0274 -0.0529  0.1290
 2995W        W 7046   8.694   8.917  11.623 -0.0852  0.0216  0.3219
 2996W        W 7047   1.020   3.168   0.438  0.0634  0.3564 -0.0123
 2997W        W 7048   2.907   6.919  10.067 -0.1937  0.1767  0.2489
 2998W        W 7049   1.040   2.036  10.650 -0.2478 -0.1316  0.0156
 2999W        W 7050   1.339   7.825   0.271  0.0804 -0.0143  0.3899
 3000W        W 7051   5.973   2.265   2.677 -0.2252  0.5439  0.0348
 3001W        W 7052   5.825   2.395  13.156  0.1255  0.1354  0.0173
 3002W        W 7053   2.664   8.684  12.662 -0.1582  0.2559  0.1797
 3003W        W 7054   4.198   7.897   2.045 -0.0984 -0.0781  0.2150
 3004W        W 7055   1.669   7.335   9.343  0.1043 -0.3728 -0.1236
 3005W        W 7056   8.035   6.595   4.835  0.1147  0.0197 -0.2794
 3006W        W 7057   4.363   5.065  10.439  0.2987 -0.0894  0.2450
 3007W        W 7058   2.563   3.302  11.151 -0.1372  0.0478 -0.1530
 3008W        W 7059   3.999   5.962  11.988 -0.1233  0.0350 -0.1074
 3009W        W 7060   7.731   8.729  11.943 -0.0436  0.3041 -0.3209
 3010W        W 7061  10.200   8.041  11.242 -0.3224 -0.0259  0.0114
 3011W        W 7062  10.125   6.758   3.091 -0.0911 -0.2304  0.2003
 3012W        W 7063   1.092   7.838   3.692  0.0660  0.1380  0.2234
 3013W        W 7064   0.919   2.746  12.643  0.1429 -0.2412  0.2014
 3014W        W 7065   4.390   9.894   4.345  0.0024 -0.1086 -0.3208
 3015W        W 7066   4.228   2.259  13.186 -0.1460  0.1279  0.1113
 3016W        W 7067   8.321   2.783  11.404 -0.0504 -0.1957 -0.0402
 3017W        W 7068   7.847   2.911   2.416 -0.3193  0.0403 -0.1571
 3018W        W 7069   4.732   6.553   1.887  0.0351  0.0526 -0.1937
 3019W        W 7070   3.523   2.680   8.879  0.0990  0.1223 -0.0049
 3020W        W 7071   7.741   7.370  11.630  0.2488 -0.0493 -0.0100
 3021W        W 7072   2.369   7.690   4.125  0.1920  0.0808 -0.1389
 3022W        W 7073   8.202   4.261  10.315 -0.1022  0.2030  0.2283
 3023W        W 7074  10.263   1.678   1.209 -0.0452  0.2309  0.1324
 3024W        W 7075   5.350   5.452   0.301 -0.0311 -0.2500 -0.1944
 3025W        W 7076  10.075   7.306   3.809 -0.0273 -0.1609 -0.1901
 3026W        W 7077   0.074   3.582  11.579  0.0857  0.1384  0.0973
 3027W        W 7078   5.975   1.775   4.303 -0.0332 -0.3194 -0.3841
 3028W        W 7079   3.107   4.954   1.108  0.1387 -0.0301  0.0670
 3029W        W 7080   8.211   1.397  12.087  0.0643  0.3395 -0.0959
 3030W        W 7081   7.558  10.136   0.598  0.1811  0.1031 -0.0151
 3031W        W 7082   7.835   6.873   3.008  0.1786  0.0424 -0.1620
 3032W        W 7083   1.713   5.388   3.781  0.3929  0.0836 -0.2707
 3033W        W 7084   3.284   9.374  12.250 -0.0296  0.1392 -0.3331
 3034W        W 7085   6.757   0.692   1.199 -0.1431 -0.0999 -0.2307
 3035W        W 7086   8.163   3.966   3.499 -0.1394  0.2442  0.0697
 3036W        W 7087   4.841   8.631   2.562 -0.0163 -0.1268 -0.2029
 3037W        W 7088   9.086   9.276   1.080  0.2798  0.1025 -0.0665
 3038W        W 7089   7.573   4.374   2.339 -0.2242  0.0664 -0.6448
 3039W        W 7090   7.354   4.444   1.935  0.3051 -0.1286 -0.1744
 3040W        W 7091   5.006   2.610   4.123 -0.1101  0.2921  0.1183
 3041W        W 7092   6.201   5.536   0.286 -0.0537  0.1581 -0.0227
 3042W        W 7093   6.788   9.344   3.530  0.2917  0.0111 -0.0027
 3043W        W 7094   0.153   3.578   9.545 -0.3454 -0.4153 -0.5800
 3044W        W 7095   7.584   6.187   0.354  0.1389  0.0312  0.1442
 3045W        W 7096   2.994   7.549   3.294  0.2812 -0.0828  0.1098
 3046W        W 7097   3.081   5.724  12.695  0.1208  0.0760 -0.0528
 3047W        W 7098   9.443   7.916   1.440 -0.0880 -0.1925 -0.1651
 3048W        W 7099   2.555   1.990   5.324  0.2771 -0.0802 -0.1888
 3049W        W 7100   1.987   3.233   1.850 -0.1753 -0.1209  0.2323
 3050W        W 7101   4.080   9.311   1.054 -0.1096  0.1029 -0.1785
 3051W        W 7102   2.266   1.643  10.899  0.3137  0.2250  0.2429
 3052W        W 7103  10.325   5.419   3.618  0.1724  0.2695  0.0696
 3053W        W 7104   8.595   8.824   5.312 -0.0027 -0.1163 -0.2124
 3054W        W 7105   3.778   7.990  10.428  0.1098  0.0106  0.0873
 3055W        W 7106   3.193   9.511   4.093  0.0061  0.1258  0.1520
 3056W        W 7107   7.893   6.168  11.216  0.5871 -0.1698 -0.1699
 3057W        W 7108   2.775   7.933  10.877  0.3421 -0.1579 -0.1155
 3058W        W 7109   2.487   0.221   2.728 -0.0448  0.3122 -0.0840
 3059W        W 7110   8.015   5.030   1.624  0.1465  0.2150 -0.1876
 3060W        W 7111   3.297   1.958  10.920  0.1096 -0.2738  0.1789
 3061W        W 7112   6.493   7.722  12.452  0.0707 -0.0988 -0.2512
 3062W        W 7113   9.544   5.157  11.439  0.1147  0.2121  0.0922
 3063W        W 7114   0.636   8.841  11.036 -0.0126  0.2205 -0.0996
 3064W        W 7115   4.130   1.587   2.950 -0.2738  0.0754  0.1024
 3065W        W 7116   6.734   4.623   1.436  0.2154  0.0055 -0.0342
 3066W        W 7117   8.467   2.750   2.275  0.2026  0.3905  0.1845
 3067W        W 7118   0.696   7.365   4.114  0.0124 -0.1296 -0.1076
 3068W        W 7119   3.013   1.543   1.464 -0.0288  0.0663  0.4487
 3069W        W 7120   7.775   7.955   0.503  0.2384 -0.3363  0.0060
 3070W        W 7121   9.928   2.183   1.403 -0.3029  0.0811 -0.1168
 3071W        W 7122   8.623   5.800   9.560  0.1016 -0.0569  0.3000
 3072W        W 7123   5.237   9.135   3.516  0.0841 -0.0740 -0.0773
 3073W        W 7124   2.992   9.099  12.937  0.2499 -0.2363 -0.1086
 3074W        W 7125  10.051   5.955   9.501 -0.2089  0.1423  0.2428
 3075W        W 7126   0.445   1.163   5.266 -0.0596 -0.1634  0.3861
 3076W        W 7127   6.715   2.774   3.664 -0.0525 -0.3095  0.2278
 3077W        W 7128   1.178   5.194  11.674 -0.0736  0.0386  0.1132
 3078W        W 7129   9.984   2.559   2.342 -0.0479 -0.2586  0.0604
 3079W        W 7130   2.089   3.779  10.429  0.2535 -0.0414  0.1187
 3080W        W 7131   7.774   8.949   9.812  0.2057  0.0468 -0.1034
 3081W        W 7132   8.488   0.272  12.954 -0.2025 -0.2443  0.1763
 3082W        W 7133   4.001   9.513   9.438  0.3044  0.0734  0.2578
 3083W        W 7134   2.635   6.934   1.036 -0.0135 -0.1208 -0.6928
 3084W        W 7135   8.818   1.911   1.271 -0.1833 -0.2455  0.2050
 3085W        W 7136   2.883   7.550  11.178 -0.0487 -0.0287 -0.0388
 3086W        W 7137   5.801   9.852   2.689 -0.2312 -0.1746 -0.2815
 3087W        W 7138   2.487   1.921   4.243 -0.3924 -0.0462  0.0526
 3088W        W 7139   8.926   4.689   4.054 -0.0852 -0.1972  0.2359
 3089W        W 7140   8.890   0.238   1.030 -0.0197  0.2356 -0.2503
 3090W        W 7141  10.169   3.193   3.618 -0.0160 -0.0466  0.1907
 3091W        W 7142   6.310   2.608   3.946 -0.0599  0.0675  0.0493
 3092W        W 7143   0.974   3.984  10.719  0.1401 -0.1638  0.2001
 3093W        W 7144   7.181   9.170   0.677 -0.1211 -0.0751 -0.1178
 3094W        W 7145   4.901   2.380   3.501 -0.2121  0.0583 -0.1213
 3095W        W 7146   1.911   6.747   5.404 -0.0246 -0.0919 -0.0551
 3096W        W 7147   8.934   9.362   2.602 -0.1793  0.0895 -0.1727
 3097W        W 7148   7.806   9.466   8.567 -0.1156 -0.1375  0.0737
 3098W        W 7149   7.106   6.220  12.756  0.0937 -0.3608 -0.0134
 3099W        W 7150   6.306   9.080   8.708  0.0276 -0.1720 -0.2420
 3100W        W 7151   6.956   9.994   4.247  0.0421 -0.3119  0.0146
 3101W        W 7152   5.547   5.780  13.137  0.0530 -0.3459 -0.1255
 3102W        W 7153   1.453   2.635  11.358 -0.0425 -0.4628  0.2283
 3103W        W 7154   0.076   2.045   3.848  0.1390  0.0833  0.2188
 3104W        W 7155   2.124   9.779   0.336 -0.1871  0.1411  0.1136
 3105W        W 7156   6.287   5.946  11.035 -0.0499 -0.0574 -0.1786
 3106W        W 7157   4.408   7.948  11.860  0.0862  0.2305 -0.0305
 3107W        W 7158   8.643   3.793  11.738  0.0011 -0.0460  0.2416
 3108W        W 7159   0.518   7.337   1.510  0.0688 -0.3024 -0.1044
 3109W        W 7160   9.190   4.590   3.099 -0.1793 -0.2490  0.1693
 3110W        W 7161   1.348   5.995   4.987  0.0390  0.2196 -0.2443
 3111W        W 7162   5.286   6.355   3.406  0.0958 -0.0139 -0.0039
 3112W        W 7163   2.476   3.202  12.322  0.0739  0.2071  0.0524
 3113W        W 7164   6.982   9.744  12.886 -0.1130 -0.3652  0.1428
 3114W        W 7165   1.930   3.121  12.120 -0.2388  0.1072  0.0338
 3115W        W 7166   9.779   9.723   3.565  0.2210 -0.4548  0.2007
 3116W        W 7167  10.130   0.814   3.372  0.0601  0.3197  0.1284
 3117W        W 7168   1.793   0.993   0.759 -0.0434 -0.2232  0.0039
 3118W        W 7169   8.715   6.399  10.302  0.0056 -0.0870 -0.2590
 3119W        W 7170   6.416   9.788  10.721 -0.0055  0.0157 -0.2097
 3120W        W 7171   4.964   3.532  11.292  0.0665  0.2083 -0.3575
 3121W        W 7172   7.373   7.872   4.078 -0.2458 -0.4605  0.0003
 3122W        W 7173   3.178   4.798   0.049  0.0298  0.0655 -0.0927
 3123W        W 7174   6.489  10.002   0.785  0.0680 -0.3269  0.0684
 3124W        W 7175   9.812   8.813  13.039  0.0906 -0.0920 -0.2227
 3125W        W 7176   4.165   9.644   0.690  0.0596  0.3180  0.0616
 3126W        W 7177   1.215   3.719  12.223 -0.0825 -0.2621  0.0786
 3127W        W 7178  10.122   1.071   4.257  0.1235 -0.1379 -0.0586
 3128W        W 7179   5.178   5.521   1.688  0.0121 -0.1131  0.1156
 3129W        W 7180   5.291   9.001   2.643 -0.0108  0.0571  0.0680
 3130W        W 7181   1.262   4.964   0.291 -0.2202  0.2316 -0.1612
 3131W        W 7182   3.307   1.326   2.231  0.1090  0.1435  0.0720
 3132W        W 7183   6.106   5.898   0.738  0.0569  0.0357  0.0161
 3133W        W 7184   7.458   5.444   1.104  0.1558 -0.1189  0.3302
 3134W        W 7185   7.885   0.549  11.980  0.0018  0.1622 -0.0752
 3135W        W 7186   0.080   2.058   9.641 -0.0729 -0.1804 -0.2283
 3136W        W 7187   3.475   5.881   2.539 -0.2843  0.0399 -0.0333
 3137W        W 7188   2.881   3.876   0.236 -0.4492  0.0990 -0.0354
 3138W        W 7189  10.107   5.276   5.031  0.0837  0.3530 -0.3098
 3139W        W 7190   8.986   0.715   0.710 -0.3376  0.1786 -0.0998
 3140W        W 7191   2.211   5.451   3.955  0.1708  0.0022 -0.2656
 3141W        W 7192   0.646   7.204   3.116  0.0718  0.1952  0.0742
 3142W        W 7193   1.302   0.780   9.905  0.1097  0.1101 -0.0510
 3143W        W 7194   8.396   3.177   1.120  0.2379 -0.1700  0.0902
 3144W        W 7195   1.652   2.112   5.611 -0.1857  0.0409  0.0077
 3145W        W 7196   4.834   1.135   2.227  0.1566  0.0493  0.1784
 3146W        W 7197   3.497   8.259   0.014 -0.0255  0.3330  0.0725
 3147W        W 7198   2.483   8.894  12.226 -0.1275 -0.0312 -0.1300
 3148W        W 7199   3.811   8.998   3.678 -0.0491 -0.1746  0.2175
 3149W        W 7200   3.093   4.067   1.889  0.3625 -0.1388  0.0103
 3150W        W 7201   9.741   0.072   2.100  0.1728 -0.1005 -0.0794
 3151W        W 7202   6.337   1.578  10.123  0.1399 -0.0077 -0.1574
 3152W        W 7203   8.255   8.331  12.261  0.0519  0.3032  0.3910
 3153W        W 7204   6.890   0.795  10.682 -0.1874  0.2089  0.0045
 3154W        W 7205   5.087   5.595   2.608 -0.0557  0.0982 -0.2308
 3155W        W 7206   5.136   3.741   9.898 -0.0292 -0.0257 -0.3215
 3156W        W 7207   1.598   9.194   0.754 -0.1604  0.1755 -0.2587
 3157W        W 7208   8.629   2.299  10.584  0.3479 -0.0509  0.0248
 3158W        W 7209   3.278   3.528   1.813 -0.1017 -0.0950  0.2134
 3159W        W 7210   3.496   0.296   9.340 -0.0934  0.2416 -0.2835
 3160W        W 7211   6.292   7.498  11.697  0.2837  0.2703 -0.2174
 3161W        W 7212   2.366   7.368   1.267  0.1746  0.1029  0.0459
 3162W        W 7213   8.303   1.332   9.828 -0.2293  0.2381  0.1097
 3163W        W 7214   5.540   7.664   9.718  0.1697 -0.2415  0.0541
 3164W        W 7215   4.801   7.354  12.836 -0.1667 -0.0516 -0.2374
 3165W        W 7216   0.655   0.281   2.409 -0.2778 -0.1748  0.1406
 3166W        W 7217   8.661   7.009  12.638  0.4218 -0.1288 -0.0880
 3167W        W 7218   7.454   9.199  11.130 -0.1463 -0.0628  0.1418
 3168W        W 7219   3.491   9.079  13.089 -0.2918  0.1197  0.0645
 3169W        W 7220   6.941   4.922   3.057  0.0600 -0.2081 -0.1521
 3170W        W 7221   3.312   2.746   5.094  0.0912 -0.2801  0.1312
 3171W        W 7222   9.838   5.341  11.793  0.2450  0.0695  0.1747
 3172W        W 7223   2.407   0.004  10.489 -0.1399  0.0284  0.2190
 3173W        W 7224   2.295   1.293   2.043  0.2613  0.0381  0.0914
 3174W        W 7225   5.600   5.008  13.284  0.0949  0.0624  0.2529
 3175W        W 7226   5.089   8.906  11.649  0.2561  0.1381  0.1847
 3176W        W 7227   9.141   3.846   0.431 -0.1040 -0.1783  0.3165
 3177W        W 7228   0.374   5.025  10.155  0.1529  0.0143  0.0252
 3178W        W 7229   5.715   6.219   1.741  0.1178 -0.1472  0.0474
 3179W        W 7230   5.982   3.491   1.336  0.1754  0.1791 -0.1079
 3180W        W 7231   7.663   5.298   3.802  0.2774  0.0885 -0.0143
 3181W        W 7232   8.526   6.782  13.064 -0.0658 -0.4413 -0.1838
 3182W        W 7233   5.773   7.720   8.707 -0.1406 -0.1593 -0.3014
 3183W        W 7234   6.086   8.108   3.463 -0.1248  0.2732  0.0592
 3184W        W 7235   0.584   6.341   9.760  0.1032 -0.0408 -0.0731
 3185W        W 7236   6.294   4.588   1.889 -0.0410 -0.0364  0.0273
 3186W        W 7237  10.119   1.348   0.834 -0.4191 -0.0967 -0.0967
 3187W        W 7238   7.173   8.384  10.696  0.0068  0.1234 -0.1282
 3188W        W 7239   0.247   1.009  10.611  0.3096 -0.3552  0.0962
 3189W        W 7240   5.761   9.706   9.524 -0.2625 -0.1826 -0.1372
 3190W        W 7241   8.636   7.552  12.397 -0.0808 -0.0813  0.2396
 3191W        W 7242   7.955   6.528  10.832 -0.1784 -0.0020 -0.1762
 3192W        W 7243   6.647   8.139  10.475  0.2469  0.0873 -0.2433
 3193W        W 7244   9.904   7.872   3.646 -0.0048 -0.0042 -0.0595
 3194W        W 7245   1.279   2.845  10.817  0.0351  0.0240 -0.0500
 3195W        W 7246   5.994   0.102   0.043 -0.0250  0.0638 -0.2473
 3196W        W 7247   7.895   8.038  10.853 -0.0211  0.1949  0.0843
 3197W        W 7248   7.143   9.021   3.746  0.2374  0.1578 -0.2953
 3198W        W 7249   2.816   0.349  10.848  0.1770 -0.1795  0.0606
 3199W        W 7250   4.424   8.017   1.021  0.2732 -0.2130  0.0294
 3200W        W 7251   8.251   4.436   1.216 -0.0272  0.0279 -0.1575
 3201W        W 7252   0.675   2.871   9.090 -0.1011 -0.2539  0.0299
 3202W        W 7253   5.154  10.090   0.388  0.0191  0.0161 -0.0592
 3203W        W 7254   5.364   3.772  12.591  0.2271 -0.2177 -0.1227
 3204W        W 7255   5.839   4.961   3.586  0.0999 -0.1863  0.0779
 3205W        W 7256   2.693   3.936  11.087  0.1823 -0.1439  0.0793
 3206W        W 7257   6.053   4.226   1.201 -0.3882  0.0892  0.3100
 3207W        W 7258   6.457   7.358  12.148  0.0875 -0.2676  0.0389
 3208W        W 7259   4.838   1.377  12.471  0.0579 -0.2845  0.2068
 3209W        W 7260   0.376  10.013   2.163 -0.0697 -0.1523 -0.2178
 3210W        W 7261   8.486   1.590   4.723  0.1495  0.1652  0.1556
 3211W        W 7262   3.229   1.210   9.330  0.1196  0.1312  0.2540
 3212W        W 7263   6.436   6.422  10.950  0.0946 -0.1908  0.1816
 3213W        W 7264   9.193   9.069  12.371  0.3814 -0.0951 -0.0239
 3214W        W 7265   0.490   0.770   1.277 -0.3000 -0.1180  0.1274
 3215W        W 7266   3.157   8.968  10.824  0.1790 -0.0605  0.2430
 3216W        W 7267   9.276   2.919  10.679 -0.0144 -0.3205  0.5167
 3217W        W 7268   2.216   7.157   3.254  0.1027 -0.0222 -0.1293
 3218W        W 7269   4.524   8.164  11.424 -0.1411 -0.0914  0.0134
 3219W        W 7270   9.873   9.006   2.848 -0.0165  0.0167 -0.0520
 3220W        W 7271   4.784   4.475  11.235 -0.3281 -0.1842  0.0486
 3221W        W 7272   3.558   4.926   9.428 -0.0551  0.1484 -0.2311
 3222W        W 7273   1.481   0.060  10.065  0.0659  0.1100  0.2513
 3223W        W 7274   0.635   0.564   6.078  0.0369 -0.1534  0.2848
 3224W        W 7275   0.014   9.755  11.918 -0.5001  0.0636 -0.2495
 3225W        W 7276   5.958   5.803   9.425  0.0863  0.2245  0.0936
 3226W        W 7277   1.734   9.283  10.388 -0.0278 -0.0361  0.1212
 3227W        W 7278   4.159   8.126   3.820  0.0820  0.0177  0.0657
 3228W        W 7279   9.853   4.006   3.404  0.0968 -0.2255  0.0286
 3229W        W 7280   6.226   9.882  11.677  0.1501  0.2547  0.1810
 3230W        W 7281   8.287   6.082  11.563  0.3266 -0.1326  0.0521
 3231W        W 7282   3.216   3.653   3.067 -0.2325 -0.3427  0.1399
 3232W        W 7283   1.029   9.558   3.550 -0.1218  0.0065 -0.1000
 3233W        W 7284   5.055   8.360   1.812 -0.0970  0.2151  0.4531
 3234W        W 7285   8.083   6.006  13.256 -0.0114 -0.0058 -0.2551
 3235W        W 7286   8.156   5.825   0.547  0.0449  0.0312 -0.1849
 3236W        W 7287   0.537   1.959  10.488 -0.1825  0.1728 -0.0717
 3237W        W 7288   3.573   4.820   1.931 -0.0531 -0.1620 -0.3192
 3238W        W 7289  10.322   3.261   0.769  0.0408 -0.1231 -0.2748
 3239W        W 7290   4.269   3.389   0.459 -0.0704 -0.4216  0.1480
 3240W        W 7291   6.294   1.577  10.624 -0.1387 -0.2194 -0.0979
 3241W        W 7292   1.589   9.398   9.951 -0.0658  0.2156  0.0105
 3242W        W 7293   5.794   5.195   0.290  0.0172  0.1921 -0.0521
 3243W        W 7294   1.456   8.176   5.449 -0.0288  0.1105  0.2605
 3244W        W 7295  10.293   7.713   0.191 -0.3651  0.0263  0.1098
 3245W        W 7296   5.230   5.831   2.165 -0.1062  0.4836  0.3178
 3246W        W 7297   9.119   9.137  11.751 -0.0721 -0.2298 -0.1310
 3247W        W 7298   6.366   8.421   3.888  0.0020  0.2588 -0.1455
 3248W        W 7299   2.349   7.700  12.889  0.2714  0.0962  0.1590
 3249W        W 7300   9.952   8.088   0.479  0.0679 -0.1281  0.0816
 3250W        W 7301   4.084   6.116  11.303  0.0866 -0.0219  0.2380
 3251W        W 7302   3.755   1.195   3.476 -0.4774 -0.1494  0.0180
 3252W        W 7303   1.205   2.223  11.617 -0.0941  0.1037 -0.1903
 3253W        W 7304   2.103   5.387   3.312 -0.0631  0.1611 -0.1566
 3254W        W 7305   6.838   2.922  11.984 -0.1068  0.2937 -0.1017
 3255W        W 7306   5.359   4.676   0.842  0.0145 -0.0311 -0.0571
 3256W        W 7307   8.877   7.504   9.888  0.3047  0.0265 -0.0888
 3257W        W 7308   7.767   1.371  11.200 -0.0130  0.3688 -0.1436
 3258W        W 7309   3.148   5.479   3.694  0.0344  0.3105 -0.1856
 3259W        W 7310   9.691   0.447   3.355 -0.2911  0.3817  0.3328
 3260W        W 7311   2.896   3.512   3.468  0.0535  0.1623 -0.3109
 3261W        W 7312   6.753   2.354   4.077 -0.1225  0.0264 -0.1195
 3262W        W 7313   4.618   4.906  12.881  0.1082  0.0235  0.1765
 3263W        W 7314   7.819   2.126   1.963 -0.0899  0.2285  0.1663
 3264W        W 7315   0.978   5.930   3.382 -0.0398  0.0557  0.1571
 3265W        W 7316   5.959   2.606   1.714  0.2630  0.0536  0.1164
 3266W        W 7317   3.194   4.134  10.700 -0.0739 -0.2540 -0.0863
 3267W        W 7318   1.172   2.809   3.459  0.1017 -0.1866 -0.0534
 3268W        W 7319   7.389   1.630   0.684 -0.5836 -0.1707  0.0171
 3269W        W 7320   4.892   6.169  12.592 -0.0375  0.1493 -0.1950
 3270W        W 7321   6.917   3.736  10.380  0.1891  0.2859  0.1081
 3271W        W 7322   5.664   1.544   4.612  0.0738 -0.0163  0.4184
 3272W        W 7323   9.331   4.111   9.505 -0.0269 -0.3245 -0.1306
 3273W        W 7324   9.015   4.395   0.628  0.0998 -0.1422 -0.1656
 3274W        W 7325   9.129   8.976   0.080  0.2953 -0.0662 -0.0426
 3275W        W 7326   1.360   6.798   3.655 -0.0013 -0.0663 -0.0589
 3276W        W 7327   4.555   3.692  11.904 -0.0644 -0.1486  0.1202
 3277W        W 7328   5.369   1.042   2.082  0.1931 -0.1266 -0.0386
 3278W        W 7329   4.590   9.406   4.072 -0.0522 -0.0287 -0.2304
 3279W        W 7330   1.908   6.464   0.582  0.1378  0.1062  0.0521
 3280W        W 7331   5.710   2.076  12.792 -0.1760  0.1116  0.3385
 3281W        W 7332   3.052   6.183  10.334 -0.0587  0.3443  0.2302
 3282W        W 7333   9.485   6.658   9.716  0.0847 -0.0359 -0.2569
 3283W        W 7334   7.914   7.412   3.016 -0.0937  0.1681 -0.0135
 3284W        W 7335   4.278   0.584  10.986  0.3084 -0.2192 -0.2576
 3285W        W 7336   9.696   7.440   4.129  0.0250  0.1664  0.0489
 3286W        W 7337   2.128   4.373  12.688 -0.5862 -0.1321 -0.0185
 3287W        W 7338   3.261   1.933  10.023  0.1932 -0.0418  0.1381
 3288W        W 7339   7.332   1.471   4.365 -0.3583  0.1566 -0.0556
 3289W        W 7340   0.575   1.171   9.759 -0.1249 -0.1302  0.3560
 3290W        W 7341   5.936   2.884   3.243  0.0395 -0.5432  0.3267
 3291W        W 7342   2.426   1.275   4.980  0.1758  0.4015 -0.0482
 3292W        W 7343   2.625   4.608  11.427  0.2289  0.0002 -0.0614
 3293W        W 7344   1.921   2.306   2.081  0.2414  0.3182  0.0918
 3294W        W 7345   3.349   8.234  10.214 -0.0263  0.3312 -0.2386
 3295W        W 7346   6.043   5.183  10.104 -0.0587  0.2759  0.3107
 3296W        W 7347   2.323   2.758   2.713 -0.1426  0.3573 -0.3065
 3297W        W 7348   0.623   1.964   6.318 -0.1584  0.1577 -0.2092
 3298W        W 7349   2.632   6.834   2.440  0.0699 -0.0453  0.1512
 3299W        W 7350   3.349   9.293   3.672  0.2478  0.0177  0.0804
 3300W        W 7351   7.115   6.089   0.316  0.1038  0.0188 -0.2930
 3301W        W 7352   1.388   3.200  11.466  0.0523 -0.0954 -0.1141
 3302W        W 7353   7.850   4.533  13.311 -0.0303 -0.2758 -0.4333
 3303W        W 7354   4.310   7.468  12.689 -0.2054 -0.2594  0.2365
 3304W        W 7355   1.611   1.118  10.812 -0.1626  0.0609 -0.4640
 3305W        W 7356   6.203   6.399   1.779 -0.4738 -0.4164 -0.0710
 3306W        W 7357   1.605   1.177   2.619  0.1955  0.3424  0.0393
 3307W        W 7358   4.190   4.158  10.938  0.0691  0.3315 -0.0642
 3308W        W 7359   9.049   2.471   2.595  0.0392 -0.1349  0.2728
 3309W        W 7360   2.361   2.283   3.440  0.1319 -0.0162  0.0509
 3310W        W 7361   9.239   3.288   3.211  0.0012 -0.1514 -0.0237
 3311W        W 7362   7.690   1.752  10.144 -0.0523 -0.1278 -0.4096
 3312W        W 7363   2.862   9.464  13.270  0.0082 -0.0959 -0.0960
 3313W        W 7364   4.205   0.925  13.035  0.1056  0.2653 -0.1061
 3314W        W 7365   2.170   8.248  10.435  0.2365  0.4226  0.3405
 3315W        W 7366   8.324   1.130   0.167  0.1958  0.2062 -0.1451
 3316W        W 7367  10.007   1.830  13.017  0.0328  0.1971  0.0709
 3317W        W 7368   4.430   7.589  10.992 -0.2662 -0.1913 -0.0307
 3318W        W 7369   4.918   9.476   5.354 -0.0144  0.1044  0.5092
 3319W        W 7370   5.528   8.298  11.266  0.1619  0.0777 -0.0138
 3320W        W 7371   5.622   5.294  10.309 -0.0526  0.1741 -0.1798
 3321W        W 7372   7.206   2.949  11.548  0.0055 -0.2001 -0.0853
 3322W        W 7373   5.319  10.281   2.239 -0.2329 -0.3742  0.0382
 3323W        W 7374   7.791   3.887   2.497 -0.1730 -0.4669  0.1777
 3324W        W 7375   6.226   0.673   1.193  0.0288  0.0923 -0.1093
 3325W        W 7376   7.598   1.574  11.952  0.2544  0.1958 -0.0706
 3326W        W 7377   9.349   6.274  13.121 -0.0027  0.4552  0.1359
 3327W        W 7378   5.900   2.642  11.192  0.2546  0.1215 -0.0945
 3328W        W 7379   7.522   4.443  11.907  0.2194  0.2406  0.0110
 3329W        W 7380   5.747   2.396   3.185 -0.2058 -0.1406  0.1198
 3330W        W 7381   7.271   2.464   1.275  0.1414 -0.1002 -0.0860
 3331W        W 7382   9.834   2.642   4.378 -0.0495  0.3831 -0.0950
 3332W        W 7383   1.606   3.651   3.451  0.1309  0.0766  0.0162
 3333W        W 7384   6.041   8.653  13.531 -0.0036  0.0170 -0.1578
 3334W        W 7385   9.987   1.611   2.224  0.2501 -0.0651 -0.2931
 3335W        W 7386   7.099   6.935   8.894  0.0764  0.0518  0.2657
 3336W        W 7387   7.237   4.389   4.099  0.2278 -0.0362 -0.1414
 3337W        W 7388   7.037   5.129  11.412  0.1901  0.1220 -0.0590
 3338W        W 7389   6.699   7.792   1.739 -0.0185  0.0263  0.3106
 3339W        W 7390   9.796   2.437   0.582  0.1042 -0.0576 -0.1901
 3340W        W 7391  10.086   6.349   2.737 -0.0837 -0.0108 -0.0827
 3341W        W 7392   1.634   7.469   0.536 -0.1412  0.0648  0.0872
 3342W        W 7393   1.655   2.052  11.284  0.0361  0.1558 -0.0521
 3343W        W 7394   3.245   0.305   2.621  0.3313  0.0102  0.3351
 3344W        W 7395   4.539   0.289  10.558 -0.0178 -0.2101  0.0716
 3345W        W 7396   3.590  10.019  11.744 -0.4588 -0.0285 -0.1080
 3346W        W 7397   7.905   9.999  11.565  0.1530 -0.0443 -0.2926
 3347W        W 7398   2.314   9.274   9.569  0.0358  0.1753  0.0942
 3348W        W 7399   5.265   7.563   0.077 -0.2171 -0.2236 -0.3613
 3349W        W 7400   6.159   5.911   1.790 -0.0341  0.1582 -0.3917
 3350W        W 7401  10.192   2.338  11.918  0.0539  0.0918  0.2335
 3351W        W 7402  10.159  10.030   2.254  0.1134 -0.0296  0.2048
 3352W        W 7403   5.818   0.843  12.460  0.1620 -0.0669  0.2599
 3353W        W 7404   4.025   7.328   1.893  0.1782  0.1185 -0.2638
 3354W        W 7405   2.988   8.263  13.461 -0.2973 -0.0534 -0.4427
 3355W        W 7406   0.268   7.803  11.560  0.2422 -0.1107  0.2268
 3356W        W 7407   5.282   8.535  10.809 -0.1482 -0.1586 -0.0987
 3357W        W 7408   5.100   2.192  11.060  0.0538 -0.1844  0.1394
 3358W        W 7409   4.048   2.298  11.037  0.2445 -0.1380  0.0685
 3359W        W 7410   2.975   4.253   0.549 -0.0444  0.0926  0.0936
 3360W        W 7411   6.172   9.500   2.326  0.1483  0.3027  0.0910
 3361W        W 7412   2.807   3.618   1.903 -0.0965 -0.3218  0.1671
 3362W        W 7413   1.181   4.504  13.010  0.2212  0.1586 -0.0792
 3363W        W 7414   9.847   4.459   2.221  0.2408  0.3220  0.1806
 3364W        W 7415   5.316   4.185   0.634 -0.2064  0.0340  0.6049
 3365W        W 7416   0.705   3.916  12.318 -0.0331  0.0738 -0.3784
 3366W        W 7417   8.032   6.524  13.056 -0.0627 -0.0451  0.2260
 3367W        W 7418   3.959   9.706  12.697  0.1592 -0.1037  0.1358
 3368W        W 7419   2.747   6.252   4.075 -0.0532  0.1279  0.0847
 3369W        W 7420   3.044   9.149   0.558 -0.1142 -0.1108 -0.0256
 3370W        W 7421   6.783   1.285   2.127 -0.0153  0.0335  0.1899
 3371W        W 7422   0.597   4.768   1.651  0.0861 -0.2059 -0.0119
 3372W        W 7423   3.614   5.953  12.741  0.3209  0.2807 -0.0013
 3373W        W 7424   8.000   5.889  12.170 -0.2504 -0.1075 -0.0003
 3374W        W 7425   4.185   2.745   4.420  0.0499  0.1787 -0.1408
 3375W        W 7426   9.673   4.569  12.691 -0.0949 -0.2103 -0.0094
 3376W        W 7427   0.292   1.137   4.814 -0.3429  0.3103  0.4076
 3377W        W 7428   3.120   1.491   2.653 -0.0199 -0.0449  0.2928
 3378W        W 7429   0.939   9.236  13.486 -0.0352 -0.0048  0.3952
 3379W        W 7430   2.870   3.147   1.619  0.2828 -0.0579  0.2033
 3380W        W 7431   4.317  10.117  10.614 -0.0265 -0.2205  0.0064
 3381W        W 7432   7.074   8.402  11.230 -0.0729 -0.2846  0.1543
 3382W        W 7433   0.392   5.976  13.402 -0.0996 -0.4402  0.2534
 3383W        W 7434   0.030   8.945  11.613 -0.2694 -0.1323 -0.1078
 3384W        W 7435   8.477   0.523   0.837  0.0028 -0.1700 -0.3355
 3385W        W 7436   9.395   6.245   9.932 -0.0669  0.0087 -0.0788
 3386W        W 7437   2.874   7.158   9.656  0.1249 -0.2077 -0.1888
 3387W        W 7438   4.013   9.849   1.824 -0.2411  0.0893 -0.1280
 3388W        W 7439   0.479   5.116   3.345 -0.3107 -0.2004  0.2107
 3389W        W 7440   5.464   2.630  12.897  0.0216 -0.0394  0.1983
 3390W        W 7441   8.369   8.127  10.816 -0.2516  0.0903 -0.0509
 3391W        W 7442   3.135   3.334   1.253  0.0962  0.1611 -0.0932
 3392W        W 7443   1.087   8.647   1.795 -0.1148 -0.4207  0.1255
 3393W        W 7444   6.166   0.147   3.677  0.2741 -0.2019  0.5447
 3394W        W 7445   3.243   5.214   1.645 -0.0959  0.3456 -0.0798
 3395W        W 7446   3.450   1.708  12.386 -0.2397 -0.1808  0.4392
 3396W        W 7447   6.437   9.779  10.176 -0.2994 -0.2701  0.0915
 3397W        W 7448   2.199   4.869   3.153  0.1737  0.2041  0.0144
 3398W        W 7449   3.166   8.165  10.657  0.0619 -0.1579 -0.1042
 3399W        W 7450   1.309   5.043   3.537  0.4498 -0.0295  0.1442
 3400W        W 7451   0.899   1.008   0.938  0.1148 -0.0076  0.3831
 3401W        W 7452   6.574   5.182   0.078 -0.0233 -0.0218 -0.0093
 3402W        W 7453   4.364   4.402  13.083 -0.0486  0.2475  0.1333
 3403W        W 7454   1.482   7.547  12.792 -0.2136 -0.1998 -0.0407
 3404W        W 7455   0.043  10.101  10.961 -0.1319  0.3778  0.1348
 3405W        W 7456   2.904   4.386  11.016  0.2872 -0.0894  0.1554
 3406W        W 7457   3.891   2.772  13.221  0.2906  0.1047 -0.1122
 3407W        W 7458   2.368   3.240   0.279  0.1728 -0.0016 -0.1343
 3408W        W 7459   9.530   2.675  12.925 -0.3680  0.0120 -0.0833
 3409W        W 7460   1.927   4.547   4.337  0.2442 -0.1298 -0.2696
 3410W        W 7461   4.691   8.882   8.402 -0.3928  0.1843 -0.1667
 3411W        W 7462   4.134   8.874  12.131 -0.2754 -0.2920 -0.1665
 3412W        W 7463   1.298   0.051  12.563 -0.0829 -0.3738  0.0853
 3413W        W 7464   5.532   2.719  10.254  0.0794  0.1275 -0.1422
 3414W        W 7465   2.547   5.836  10.612  0.0121 -0.1577  0.2254
 3415W        W 7466   6.532   8.162   3.082  0.1252 -0.0964  0.0358
 3416W        W 7467   9.171   3.282  11.421  0.0650  0.0176 -0.1727
 3417W        W 7468   5.125   9.923  12.272  0.3772 -0.3277  0.0150
 3418W        W 7469   9.613   4.064   2.515  0.0725 -0.0589 -0.0190
 3419W        W 7470   5.217   0.117   3.622  0.1816  0.0822 -0.2397
 3420W        W 7471   3.927   9.015  11.170 -0.1114  0.0647 -0.0138
 3421W        W 7472   3.572   8.578  10.474 -0.2350  0.0633 -0.0917
 3422W        W 7473   0.267   0.087  11.249  0.1429 -0.0377 -0.2438
 3423W        W 7474   3.235   0.738   3.392 -0.1399  0.0024 -0.2152
 3424W        W 7475  10.181   7.746  10.820  0.1370 -0.0259 -0.3323
 3425W        W 7476   5.666   7.064   9.919  0.4068  0.1667 -0.1192
 3426W        W 7477   1.106   6.921   2.392  0.1368  0.0913  0.0294
 3427W        W 7478   7.120   4.955   0.202 -0.0641  0.1420  0.0538
 3428W        W 7479   0.825   7.016   0.612  0.2570 -0.3541 -0.0236
 3429W        W 7480   8.990   3.469   3.614  0.0924  0.2403 -0.0207
 3430W        W 7481   1.292   5.421  10.803  0.0386 -0.0369 -0.0846
 3431W        W 7482   2.455   1.725   3.282 -0.0410 -0.1236  0.1186
 3432W        W 7483   1.310  10.270  10.494  0.0783  0.2257  0.2500
 3433W        W 7484   9.662   9.362   3.156  0.0156  0.0398 -0.4059
 3434W        W 7485   6.291   3.377   0.818 -0.1741 -0.0852 -0.0553
 3435W        W 7486   6.788   4.384  12.863  0.2519 -0.3076  0.2953
 3436W        W 7487   8.836   2.933  11.221 -0.0712 -0.0120  0.0850
 3437W        W 7488   5.482   8.922  12.044  0.3259 -0.3903  0.0025
 3438W        W 7489   4.351   6.254   2.064 -0.1179 -0.0788 -0.3471
 3439W        W 7490   0.969   5.963   9.756  0.0624  0.4079  0.0125
 3440W        W 7491  10.107   2.811   9.920 -0.3082  0.0166  0.1814
 3441W        W 7492   5.488   2.548   2.754  0.1029 -0.3134 -0.3133
 3442W        W 7493   6.442   2.775  12.235  0.4801  0.0007  0.2038
 3443W        W 7494   1.662   7.220  13.131 -0.1206  0.0840 -0.3846
 3444W        W 7495   8.687   6.642   1.712 -0.2916  0.1464  0.1168
 3445W        W 7496   1.288   1.501   0.544 -0.2052  0.1177  0.1137
 3446W        W 7497   0.059   4.774   4.253  0.0738 -0.1669 -0.0447
 3447W        W 7498   9.749   9.154  10.073 -0.1179  0.3194  0.1414
 3448W        W 7499   3.834   0.658   3.327 -0.1851 -0.1007  0.1024
 3449W        W 7500   7.687   2.716  13.543  0.0809 -0.3165  0.0214
 3450W        W 7501   8.298   2.144  11.472 -0.0768  0.0098 -0.2961
 3451W        W 7502   9.832   8.246   1.149  0.4394  0.1008  0.0799
 3452W        W 7503   6.255   0.323   2.666  0.4364 -0.1436 -0.0228
 3453W        W 7504   5.661   9.287   0.057  0.0067 -0.3207  0.3309
 3454W        W 7505   5.630   7.576  11.748 -0.0628  0.1288  0.2463
 3455W        W 7506   4.466   6.874  10.823  0.1952 -0.0467  0.0877
 3456W        W 7507   8.000   3.570  10.568  0.1863 -0.3648 -0.0944
 3457W        W 7508   7.786   7.574   9.651  0.0968  0.1156  0.0312
 3458W        W 7509   0.412   9.248   5.131 -0.0447  0.0766 -0.1554
 3459W        W 7510   8.241   9.185  12.559  0.2393  0.1968  0.2028
 3460W        W 7511   0.251   0.470   2.682 -0.0477 -0.1230 -0.1191
 3461W        W 7512  10.244   9.356   1.611 -0.1035 -0.1570  0.0836
 3462W        W 7513   0.151   4.123   3.393 -0.3000 -0.1384  0.2008
 3463W        W 7514   2.708   1.679   0.859  0.2122  0.1168  0.0378
 3464W        W 7515   8.921   9.240   1.520 -0.1545 -0.1241 -0.3381
 3465W        W 7516   9.006   1.890  11.709  0.1506 -0.2633  0.0295
 3466W        W 7517   9.650   6.652   2.644  0.0729  0.1256 -0.2477
 3467W        W 7518   0.936   8.693   9.876  0.1760 -0.0405 -0.0806
 3468W        W 7519   1.701   3.491   9.316  0.0776 -0.0259  0.0725
 3469W        W 7520   4.939   1.201   3.974  0.6925  0.1328 -0.0126
 3470W        W 7521   2.447   4.202   0.766  0.1876 -0.0410  0.2119
 3471W        W 7522   7.876   3.922   1.174 -0.1783  0.2851 -0.3992
 3472W        W 7523   7.123   3.846   9.896  0.0120  0.1463  0.1597
 3473W        W 7524   3.718   1.570   0.169 -0.2019  0.1766  0.1527
 3474W        W 7525   3.833   1.891   1.333  0.1089  0.0795  0.0250
 3475W        W 7526   3.855   9.989   4.278  0.0588 -0.1148 -0.0423
 3476W        W 7527   8.898   3.194   0.963 -0.4067  0.3169 -0.0208
 3477W        W 7528  10.135   6.204   5.198  0.0626  0.0685 -0.2560
 3478W        W 7529   3.670   0.995  11.625 -0.1424 -0.1927  0.0514
 3479W        W 7530   5.602   7.424   0.980 -0.4108 -0.0338  0.1955
 3480W        W 7531   1.007   6.896   3.999  0.0735  0.1704  0.0078
 3481W        W 7532   0.945   3.811  13.525  0.2624 -0.1199 -0.3625
 3482W        W 7533   1.913   3.049   9.653 -0.1311  0.1355 -0.1282
 3483W        W 7534   3.658   0.484  10.288 -0.0385  0.2080  0.0417
 3484W        W 7535   6.796   4.408   3.921 -0.1285 -0.1351 -0.1902
 3485W        W 7536   0.078   1.345   2.998 -0.0793  0.0306  0.0034
 3486W        W 7537   9.007   1.950  12.697 -0.1644 -0.0850  0.0575
 3487W        W 7538   8.953   5.497   0.806 -0.1926 -0.1468 -0.3627
 3488W        W 7539   5.646   8.275   3.609 -0.0931 -0.3393 -0.0365
 3489W        W 7540   5.225   7.673  12.743 -0.3491 -0.0762  0.0779
 3490W        W 7541   1.299   7.651   9.038  0.0688  0.1101  0.3856
 3491W        W 7542   0.044   9.003   2.448 -0.1599 -0.1213  0.0133
 3492W        W 7543   8.697   0.803   3.142 -0.1356  0.1300 -0.1385
 3493W        W 7544   5.921   8.878   4.460  0.0028 -0.1057 -0.0239
 3494W        W 7545   7.834   5.019  13.204 -0.0055 -0.0398  0.0035
 3495W        W 7546   5.809   0.803  11.535 -0.0458  0.0850  0.1384
 3496W        W 7547   0.234   0.074   4.438  0.1196  0.0792  0.0380
 3497W        W 7548   2.705   0.700   5.788  0.2675 -0.2424  0.2076
 3498W        W 7549   6.608   7.937  13.264 -0.0690  0.0935  0.0946
 3499W        W 7550   1.085   2.821   2.478 -0.0477  0.0511 -0.3489
 3500W        W 7551   6.022   5.812   2.914 -0.2142 -0.2245 -0.0442
 3501W        W 7552   7.786   7.678  12.508  0.2116  0.0701 -0.0745
 3502W        W 7553   4.767   2.646   9.661  0.3423 -0.0619 -0.0732
 3503W        W 7554   5.713   7.951  13.520  0.3308 -0.0373 -0.0317
 3504W        W 7555   1.479   5.697   0.798  0.2841 -0.1693 -0.0422
 3505W        W 7556   6.692   2.945  12.692 -0.0607  0.4134  0.0018
 3506W        W 7557   0.939   7.718  12.906 -0.0032  0.4001 -0.4234
 3507W        W 7558   2.681   4.938   0.132  0.2858 -0.0921  0.1824
 3508W        W 7559   0.122   6.375   4.587 -0.1277 -0.1945 -0.0473
 3509W        W 7560   1.820   5.237  10.492  0.2139 -0.3370 -0.0361
 3510W        W 7561   0.252   4.910  11.096  0.0324 -0.0332  0.2136
 3511W        W 7562   1.890   3.094   4.493  0.2804 -0.1367 -0.0523
 3512W        W 7563   9.270   1.038  10.358  0.2336 -0.0049 -0.2997
 3513W        W 7564   1.516   0.506   3.465 -0.1969 -0.1394  0.0357
 3514W        W 7565   5.978   1.655   3.159  0.0789  0.0817  0.1683
 3515W        W 7566   7.435   7.886  10.815  0.0473 -0.2027  0.2683
 3516W        W 7567   2.607   1.265   1.286  0.1091  0.0032  0.1744
 3517W        W 7568   4.464   4.966   1.812  0.0181  0.1022  0.0282
 3518W        W 7569   6.564   1.152   4.749  0.2670 -0.0173  0.4663
 3519W        W 7570   5.894   3.572  11.242 -0.0446  0.1166 -0.0366
 3520W        W 7571   2.418   2.988  11.917  0.0408 -0.1689 -0.1196
 3521W        W 7572   1.082   8.567   0.852  0.3454 -0.0890 -0.0998
 3522W        W 7573   4.041   3.041   2.978  0.2190  0.2698 -0.2635
 3523W        W 7574  10.038   7.596  12.242 -0.0536  0.1553  0.1835
 3524W        W 7575   1.077   0.643   3.206 -0.1329 -0.0931 -0.2002
 3525W        W 7576   8.630   6.367  11.822 -0.0396  0.4973  0.0683
 3526W        W 7577   5.777   7.503  10.753 -0.2058  0.0647 -0.1088
 3527W        W 7578   6.362   5.163  10.525  0.2883  0.0063 -0.0475
 3528W        W 7579   0.221   0.127   0.855 -0.1259 -0.0525 -0.0861
 3529W        W 7580   0.635   1.548   5.569 -0.1742 -0.2141  0.2325
 3530W        W 7581   2.629   4.965   4.022  0.0607  0.2487  0.3841
 3531W        W 7582   7.657   6.056   4.133  0.2532  0.2397  0.0334
 3532W        W 7583   5.106   0.984   1.504  0.1061 -0.0121 -0.0843
 3533W        W 7584   4.641   9.638   1.849 -0.0406  0.0529 -0.1612
 3534W        W 7585   8.663   8.260  11.263 -0.2808  0.0048 -0.1227
 3535W        W 7586   2.806   4.437  13.093  0.1109  0.0941  0.0015
 3536W        W 7587   5.781   1.579  11.422  0.0240 -0.2559  0.1793
 3537W        W 7588   1.251   3.391   0.086 -0.0249 -0.1117 -0.1664
 3538W        W 7589   0.961   0.707  13.134  0.2823  0.0168  0.0397
 3539W        W 7590   7.378   5.122   9.508  0.1000 -0.3419  0.4797
 3540W        W 7591   4.271   8.391   1.777  0.4591 -0.0582 -0.1929
 3541W        W 7592   4.154   6.502  10.581  0.2321 -0.2134 -0.0087
 3542W        W 7593   1.077   1.230   4.014  0.2042  0.1537 -0.1484
 3543W        W 7594   2.739   7.419  10.259 -0.3345  0.2136  0.0210
 3544W        W 7595   5.294  10.178  13.284 -0.1139  0.2279  0.2763
 3545W        W 7596   4.079   4.130   1.944 -0.2416 -0.0098 -0.0927
 3546W        W 7597   0.972   7.757   4.195 -0.2736 -0.0119  0.0083
 3547W        W 7598   0.184   1.908   2.755 -0.1482  0.4425 -0.1812
 3548W        W 7599   8.859   5.953  10.542  0.0827  0.2915 -0.2459
 3549W        W 7600   5.755   2.965  13.089  0.2094  0.0594  0.3450
 3550W        W 7601   2.743   2.628   1.568  0.1535 -0.0528  0.0357
 3551W        W 7602   5.357   1.207  12.546 -0.2676 -0.2741  0.0514
 3552W        W 7603   3.151   9.996  13.183  0.0516 -0.0877  0.1430
 3553W        W 7604   8.953   1.794   4.710 -0.1200 -0.1735  0.1504
 3554W        W 7605   8.209   2.719  10.848 -0.3013  0.1483 -0.0329
 3555W        W 7606   9.169   8.466   0.301  0.1956  0.2303  0.0086
 3556W        W 7607   7.426   0.359  11.256  0.1346  0.1770 -0.2836
 3557W        W 7608   1.130   0.416   0.209  0.0558  0.3035 -0.0655
 3558W        W 7609   7.194   5.588  11.709 -0.0088 -0.2367 -0.1056
 3559W        W 7610   0.486   6.963  12.143 -0.0827  0.1481 -0.2468
 3560W        W 7611   7.197   8.274  12.307  0.4045  0.1731 -0.2004
 3561W        W 7612   9.803   5.081  12.745 -0.2390 -0.0999 -0.1806
 3562W        W 7613   3.333   3.741   0.408  0.1071 -0.1514  0.0148
 3563W        W 7614   9.351   3.010   3.626  0.0496 -0.0802  0.1890
 3564W        W 7615   3.990   9.000  10.278 -0.0823 -0.2504 -0.2966
 3565W        W 7616   5.690   8.953   9.913  0.1468  0.0174 -0.2676
 3566W        W 7617   4.477   4.879   0.746  0.0473  0.0271 -0.0358
 3567W        W 7618   6.028   7.412   8.388  0.0974 -0.0017  0.0022
 3568W        W 7619   4.312   0.724   4.994 -0.1129  0.2848 -0.0712
 3569W        W 7620   0.049   0.630  11.864  0.3761  0.1267 -0.3155
 3570W        W 7621   7.127  10.191  11.866  0.3209 -0.0735 -0.0186
 3571W        W 7622   6.233   7.886  10.843  0.1694 -0.2119  0.0236
 3572W        W 7623   3.563   6.416   3.279  0.2106 -0.2648  0.0136
 3573W        W 7624   7.268   7.154   9.794 -0.1615  0.1320 -0.1311
 3574W        W 7625   1.195   9.945   5.151  0.0116  0.1015  0.2058
 3575W        W 7626   6.990   8.803  13.585 -0.7441  0.0553 -0.1512
 3576W        W 7627   3.992   5.173  11.319 -0.2411  0.3820  0.2000
 3577W        W 7628   4.018   8.479   9.665 -0.2383  0.0537  0.0968
 3578W        W 7629   3.223   5.815   3.142 -0.3092 -0.3365 -0.0575
 3579W        W 7630   8.008   7.312  12.061  0.0942 -0.1900 -0.2777
 3580W        W 7631   9.403   4.756   0.631  0.1907 -0.1020 -0.1108
 3581W        W 7632   0.280   9.268  12.011  0.4185 -0.2165  0.0231
 3582W        W 7633   1.649   0.507   0.928  0.0282  0.1289  0.2455
 3583W        W 7634   3.001   1.109   1.789 -0.0525 -0.2174  0.3538
 3584W        W 7635   1.099   4.500   3.898  0.1842 -0.1608  0.0531
 3585W        W 7636   4.273   7.931   1.561  0.0229  0.1345  0.2082
 3586W        W 7637   8.065   4.123   0.072  0.0231 -0.1593 -0.2420
 3587W        W 7638   9.413   3.022   1.674 -0.0578  0.0047  0.0988
 3588W        W 7639   8.725   4.047   4.942  0.2591 -0.1489  0.0558
 3589W        W 7640   5.349   9.955   3.872  0.1168  0.2010 -0.2880
 3590W        W 7641   6.076   7.860  11.960 -0.0036 -0.0610 -0.0996
 3591W        W 7642   3.190   7.568  13.439  0.1160  0.2703  0.1554
 3592W        W 7643   2.892   9.875   4.201  0.2867 -0.1906 -0.1904
 3593W        W 7644   6.940   1.111  13.216 -0.1173  0.0295 -0.0856
 3594W        W 7645   2.798   9.740  12.283  0.1503  0.0376 -0.3404
 3595W        W 7646   3.638   4.408  10.300 -0.2185 -0.0249  0.0261
 3596W        W 7647   5.444   2.065   0.525  0.7855  0.1099 -0.0406
 3597W        W 7648   2.838   2.092   3.359  0.0010 -0.2530  0.2531
 3598W        W 7649   3.462   3.290   0.850  0.0098  0.0792 -0.0294
 3599W        W 7650   7.874   2.795   3.046 -0.2261 -0.4353 -0.1548
 3600W        W 7651   8.779   9.088  10.874  0.1073  0.2064 -0.0813
 3601W        W 7652   0.876   8.498   1.388 -0.1860  0.4811 -0.0244
 3602W        W 7653   0.165   3.668  13.042  0.0076  0.0519  0.2858
 3603W        W 7654   0.338   1.447   0.915  0.2578 -0.0935 -0.3149
 3604W        W 7655   6.442   2.865   0.930 -0.0965  0.0898 -0.0839
 3605W        W 7656   6.173  10.181  10.432 -0.0615  0.1123  0.0552
 3606W        W 7657   6.777   0.669  10.203 -0.1768  0.1025  0.0315
 3607W        W 7658   7.956   8.341   0.744 -0.2172  0.4662 -0.4950
 3608W        W 7659   8.517   1.397   1.638 -0.3743  0.2151  0.1836
 3609W        W 7660   0.294   0.772   3.102  0.1427 -0.1228  0.1630
 3610W        W 7661   6.888   3.252  12.324  0.2190 -0.4779 -0.2137
 3611W        W 7662   8.895   5.290   0.152  0.1977  0.0035 -0.0421
 3612W        W 7663   8.933   1.864  10.848 -0.1048 -0.2794 -0.1120
 3613W        W 7664   9.689   9.216  10.611 -0.0190 -0.0512  0.1341
 3614W        W 7665   1.479   1.951   1.834  0.0385 -0.1179 -0.0403
 3615W        W 7666   5.570   2.297  10.454  0.3280  0.2016 -0.1960
 3616W        W 7667   6.348   8.666   0.848  0.1424  0.0749 -0.1989
 3617W        W 7668   2.645   4.724   3.471 -0.2537 -0.0356  0.0781
 3618W        W 7669   9.487   0.109  10.523 -0.0362 -0.0515  0.0668
 3619W        W 7670   3.348   1.104   4.816  0.0450 -0.0366 -0.0089
 3620W        W 7671   8.595  10.137   1.342 -0.1642  0.2330  0.2796
 3621W        W 7672   6.810   0.177   1.937 -0.1122 -0.1005 -0.0698
 3622W        W 7673   3.081   3.527   3.945 -0.0547  0.1181 -0.1246
 3623W        W 7674   9.780   7.330  10.246 -0.0375 -0.0315 -0.2178
 3624W        W 7675   2.899   5.506   9.522 -0.0423 -0.1345 -0.1659
 3625W        W 7676   1.392   8.244   3.381  0.1200  0.1141  0.0694
 3626W        W 7677   5.017   6.412   9.503 -0.0495  0.1272  0.0914
 3627W        W 7678   7.683  10.106   2.205  0.2758 -0.0172 -0.0226
 3628W        W 7679   7.390   3.309  12.823  0.0509 -0.1062 -0.2844
 3629W        W 7680   3.634   4.863   0.888  0.0956  0.1871  0.2473
 3630W        W 7681   1.051   3.535   4.380 -0.0211  0.0247  0.1585
 3631W        W 7682   6.655  10.056   2.937 -0.1561  0.2323 -0.1721
 3632W        W 7683  10.260   5.067   9.908 -0.0785  0.0272 -0.1319
 3633W        W 7684   9.418   3.775   2.878  0.2223  0.2312 -0.1250
 3634W        W 7685   1.772   1.834  11.748  0.0696 -0.2129  0.3243
 3635W        W 7686   6.820   0.570   3.261 -0.4144 -0.0507 -0.0935
 3636W        W 7687   1.526   7.726   3.499  0.1090 -0.3639  0.2186
 3637W        W 7688   3.581   8.964   0.410 -0.0096 -0.0360  0.0740
 3638W        W 7689   3.510   8.357   9.567  0.0803  0.0149 -0.2957
 3639W        W 7690   8.645   7.945   2.211  0.0296  0.1523  0.0035
 3640W        W 7691  10.055   1.711   4.789 -0.1850 -0.2010 -0.0268
 3641W        W 7692   7.161   7.788   8.502 -0.1964  0.0043 -0.0948
 3642W        W 7693   3.354   5.384  10.364  0.0780  0.4534  0.1507
 3643W        W 7694   8.124   9.154  11.634 -0.0852 -0.0419 -0.0780
 3644W        W 7695   7.388  10.226  11.373 -0.2012 -0.0826  0.3015
 3645W        W 7696   0.764   1.824   5.066 -0.3577 -0.0041  0.1133
 3646W        W 7697   7.980   5.430   1.329 -0.2477 -0.1395 -0.0400
 3647W        W 7698   1.779   9.724  13.218 -0.2733  0.3672 -0.1469
 3648W        W 7699   5.410   8.401   4.053  0.0861  0.0002 -0.4041
 3649W        W 7700   9.918   6.483   4.795  0.2124  0.0128 -0.0141
 3650W        W 7701   3.402   4.367  11.169  0.1884 -0.2380 -0.2625
 3651W        W 7702   6.154   1.886  11.774  0.1970  0.3178  0.0891
 3652W        W 7703   0.698   1.766  13.291  0.0126 -0.2327  0.3325
 3653W        W 7704   9.732   0.058   1.437  0.1250 -0.0288 -0.1961
 3654W        W 7705   2.328   2.950   1.519 -0.0518 -0.1674  0.0971
 3655W        W 7706   2.851   4.691  12.333  0.0075  0.0735  0.0589
 3656W        W 7707   5.240   2.919   4.524 -0.1041 -0.1577 -0.0699
 3657W        W 7708   9.706   1.224  10.171  0.0047  0.1044 -0.1584
 3658W        W 7709   0.971   7.693   1.863 -0.0935 -0.1285 -0.0795
 3659W        W 7710   2.401   2.350   3.953  0.1921 -0.1855 -0.0175
 3660W        W 7711   0.078   6.670   0.371 -0.1268 -0.1759 -0.0493
 3661W        W 7712   6.471   7.220   3.272 -0.1592 -0.3450  0.1205
 3662W        W 7713   7.155   9.296  12.514 -0.3070 -0.0301 -0.1372
 3663W        W 7714  10.130   0.665   5.553 -0.0888 -0.3664 -0.0747
 3664W        W 7715   5.801   6.628  10.042  0.0642  0.0225  0.0225
 3665W        W 7716   9.781   0.940   0.915  0.1935  0.2690  0.2295
 3666W        W 7717   0.576   2.466   9.477  0.1715 -0.4968  0.0828
 3667W        W 7718   3.311   8.732   0.763 -0.0318 -0.0112 -0.3315
 3668W        W 7719   2.100   1.203  11.068  0.3266 -0.0551 -0.2253
 3669W        W 7720   0.389  10.197   0.139 -0.6200 -0.0713 -0.0662
 3670W        W 7721   8.590   5.249   9.338 -0.0131 -0.4662 -0.1263
 3671W        W 7722   9.111   1.994   5.133 -0.0275  0.0169 -0.2338
 3672W        W 7723   1.848   1.762   4.727 -0.0725  0.1129  0.0529
 3673W        W 7724   0.919   6.196  10.676  0.1690 -0.0313  0.0075
 3674W        W 7725   8.264   4.154   4.682  0.0505  0.0367 -0.1281
 3675W        W 7726   3.702   5.970   3.070 -0.0641  0.0282 -0.0426
 3676W        W 7727   9.351   8.583  12.677  0.2302  0.0825  0.1101
 3677W        W 7728   1.922   7.968  12.710 -0.0530  0.0095 -0.0937
 3678W        W 7729   3.350   6.210  13.122 -0.2308  0.2065  0.0791
 3679W        W 7730   0.363   7.102   0.515  0.3693  0.4808  0.1645
 3680W        W 7731   5.907   8.850  12.413  0.0918 -0.0562 -0.2660
 3681W        W 7732   3.127   2.766   1.951 -0.1279 -0.2166 -0.2129
 3682W        W 7733   5.692   8.932   2.299  0.0072  0.0119  0.0825
 3683W        W 7734   2.813   0.840  11.164 -0.1244 -0.0382 -0.1518
 3684W        W 7735  10.059   5.701   2.609  0.0186  0.0491  0.0380
 3685W        W 7736  10.143   0.609   4.105 -0.0106  0.3702  0.1096
 3686W        W 7737  10.058   4.079  10.264  0.0811 -0.0573 -0.3981
 3687W        W 7738   7.763   6.643   2.002  0.4177  0.2076 -0.1064
 3688W        W 7739   8.466   6.142   1.431 -0.1979  0.1529  0.1103
 3689W        W 7740   0.826   1.492   6.077 -0.0191  0.1080 -0.0825
 3690W        W 7741   4.065   0.363   1.507  0.2838  0.1264  0.0338
 3691W        W 7742   5.357   6.550   0.870  0.0248 -0.0118 -0.1978
 3692W        W 7743   3.699   2.875   4.259 -0.3577  0.1109  0.1331
 3693W        W 7744   5.582   7.420  11.198 -0.3715  0.1504 -0.0012
 3694W        W 7745   4.616   0.582  13.205  0.1607  0.2241 -0.0375
 3695W        W 7746   6.356   3.143  11.857 -0.1544 -0.1264  0.1650
 3696W        W 7747   0.450   3.551   4.918  0.1632 -0.4401 -0.0565
 3697W        W 7748   8.076   3.925   3.013  0.1990  0.0863 -0.3461
 3698W        W 7749   7.260   7.685   0.648 -0.0212  0.2479 -0.1023
 3699W        W 7750   0.589   0.304  11.821  0.2019  0.1620 -0.1478
 3700W        W 7751   2.183   7.240   4.571  0.1892  0.0171 -0.1798
 3701W        W 7752   2.748   2.089   9.959  0.0906  0.2530  0.3641
 3702W        W 7753   5.012  10.294   1.418 -0.0185  0.0820 -0.0436
 3703W        W 7754   5.965   2.651  12.050 -0.0952  0.1606  0.2588
 3704W        W 7755   7.497   2.637   2.800  0.1965  0.0778 -0.0583
 3705W        W 7756   2.675   7.703   2.353 -0.1692 -0.2597  0.2143
 3706W        W 7757   0.746   1.907  12.571 -0.0913 -0.1300  0.1112
 3707W        W 7758   2.939   2.081   5.722 -0.1058 -0.0331  0.1932
 3708W        W 7759   7.608   2.073  12.405 -0.0503  0.0597 -0.1224
 3709W        W 7760   4.972   6.789   0.672  0.1569  0.3972  0.3001
 3710W        W 7761   7.814   7.022  11.243  0.1292 -0.1184  0.0872
 3711W        W 7762   9.172   3.444   5.798 -0.0542  0.1244  0.1169
 3712W        W 7763   1.361   4.652   4.342 -0.1856 -0.3567  0.0282
 3713W        W 7764   2.142   1.087   4.088  0.1872  0.1751  0.2356
 3714W        W 7765   0.583   5.626   3.466 -0.1071 -0.0855  0.0725
 3715W        W 7766   6.267   9.961   1.219  0.2243 -0.2281 -0.1567
 3716W        W 7767   3.998   0.282   3.099 -0.2326 -0.1892 -0.1795
 3717W        W 7768   2.499   9.692   3.912 -0.0311 -0.1967 -0.0491
 3718W        W 7769   7.048   1.012   2.445 -0.0903  0.4749  0.0570
 3719W        W 7770   5.062   8.897   1.796  0.2584  0.0815  0.2214
 3720W        W 7771   3.248   2.199   0.700 -0.1094  0.1176 -0.3268
 3721W        W 7772   0.636   4.860   9.788 -0.1816  0.0594  0.0500
 3722W        W 7773   0.839   9.671  10.832  0.3535  0.0577 -0.0193
 3723W        W 7774   5.253   9.888   9.572  0.0151  0.2119  0.1372
 3724W        W 7775   3.151   2.162  12.037 -0.0359 -0.0318 -0.0016
 3725W        W 7776   9.531   2.886   4.108  0.4103  0.2496 -0.3119
 3726W        W 7777   6.117   1.716   3.611  0.2021  0.0657  0.0458
 3727W        W 7778   2.956   3.063  12.052 -0.2880 -0.1765  0.3339
 3728W        W 7779   6.554   4.574  10.631  0.3571  0.3555 -0.0348
 3729W        W 7780   7.385   3.156  13.400 -0.0352  0.0747 -0.0422
 3730W        W 7781   8.471   0.466  12.148  0.3820  0.0844  0.1546
 3731W        W 7782   0.847   5.781  12.319  0.2723  0.2519  0.3635
 3732W        W 7783   2.335   0.286   3.828 -0.3915  0.0718 -0.1190
 3733W        W 7784   7.337   7.058   1.378  0.0971  0.0844  0.0121
 3734W        W 7785   7.382   8.869   4.173 -0.3507  0.2600 -0.1973
 3735W        W 7786   1.762   3.970   5.830 -0.2908  0.0233  0.0920
 3736W        W 7787   4.339   0.892  10.032  0.0365 -0.2994 -0.3579
 3737W        W 7788   2.907   2.821   0.354 -0.1760 -0.0267 -0.3475
 3738W        W 7789   6.836   5.315  10.552 -0.1274  0.1734 -0.1454
 3739W        W 7790   6.001   8.422  12.640 -0.2262 -0.1735 -0.0434
 3740W        W 7791   2.374  10.047  11.592 -0.2946 -0.4393  0.0112
 3741W        W 7792   4.392   9.787   9.608  0.1689  0.0302 -0.2384
 3742W        W 7793   1.232   6.932  10.256  0.0372 -0.4273  0.1984
 3743W        W 7794   4.828   6.449  11.632 -0.1511  0.1158  0.4117
 3744W        W 7795   5.761   4.781   0.563 -0.1469  0.0977  0.1738
 3745W        W 7796   6.233  10.032   0.316  0.1376 -0.2550 -0.0545
 3746W        W 7797   6.856   2.397  11.966 -0.1216  0.0279  0.2492
 3747W        W 7798   1.795   8.919   4.431 -0.2083  0.2988 -0.5974
 3748W        W 7799   9.000   6.593  10.020 -0.2526  0.1993 -0.0961
 3749W        W 7800   4.329   5.001   2.826 -0.1890 -0.0078 -0.2509
 3750W        W 7801   7.263   2.484  10.285  0.3530  0.1189 -0.1293
 3751W        W 7802   7.339   6.782   3.305  0.2131 -0.5199 -0.3171
 3752W        W 7803   6.112   3.087  11.354 -0.2245 -0.3398 -0.2988
 3753W        W 7804   5.749  10.243   3.798 -0.1079 -0.1430 -0.1644
 3754W        W 7805   9.963   4.306   2.722  0.2492 -0.3286  0.0033
 3755W        W 7806   8.970   8.395  12.357 -0.0076  0.0013 -0.1594
 3756W        W 7807   7.947   5.203   2.781 -0.2990 -0.0858 -0.1600
 3757W        W 7808   9.184   9.410  12.857  0.0822 -0.0291 -0.1233
 3758W        W 7809   1.138   1.891  11.227 -0.1882 -0.0008  0.0041
 3759W        W 7810   3.328   2.053   4.403 -0.5762 -0.1114 -0.2284
 3760W        W 7811   1.863   0.214   0.158 -0.0632 -0.0536  0.1974
 3761W        W 7812   2.599   7.402   3.512 -0.0737 -0.1645 -0.0606
 3762W        W 7813   4.755   4.932   4.224 -0.1223  0.3204  0.4995
 3763W        W 7814   2.065   9.670   3.335  0.2603 -0.2380  0.2836
 3764W        W 7815   8.628   2.563   0.235  0.1007 -0.3744 -0.1050
 3765W        W 7816   3.022   1.935  10.494 -0.2260  0.2659  0.0310
 3766W        W 7817   8.051   3.410   3.054  0.2000  0.1677 -0.2340
 3767W        W 7818   9.600   6.239  12.664  0.0271 -0.0381  0.1615
 3768W        W 7819   5.596  10.195  11.441 -0.3847  0.0647  0.0146
 3769W        W 7820   0.280   6.646  12.564 -0.1545  0.1288  0.0597
 3770W        W 7821   5.025   9.043  12.171 -0.0641 -0.1439 -0.2398
 3771W        W 7822   2.644   5.975  10.114  0.1647  0.2552 -0.1311
 3772W        W 7823   9.521   3.529  12.809 -0.0975  0.0740 -0.1037
 3773W        W 7824   4.636  10.269   0.356  0.0827  0.1893 -0.2182
 3774W        W 7825  10.265   2.566   0.656 -0.4239  0.4592  0.1669
 3775W        W 7826   4.519   7.521   1.896  0.0794 -0.0464 -0.0472
 3776W        W 7827   9.231   9.691  11.639 -0.1634  0.0332  0.0523
 3777W        W 7828   7.655   5.470   0.489 -0.1415  0.0910 -0.2084
 3778W        W 7829   1.053   5.279  13.524  0.2414 -0.1911 -0.1720
 3779W        W 7830   9.631   2.688   9.822 -0.0390  0.1129  0.0661
 3780W        W 7831   9.973   9.778  12.453 -0.2152  0.0821  0.2018
 3781W        W 7832   7.455   8.323  13.355 -0.1601 -0.0732 -0.0416
 3782W        W 7833   1.093   4.524   0.426 -0.0582  0.4458 -0.1952
 3783W        W 7834   1.152   1.899   0.748 -0.0786 -0.5260  0.1146
 3784W        W 7835   6.759   1.854  10.292  0.2755  0.0649  0.0651
 3785W        W 7836   3.321   2.681   3.504 -0.0167  0.1219 -0.0917
 3786W        W 7837   9.589   0.932   3.345  0.0283  0.1399 -0.2843
 3787W        W 7838   5.173   1.067  10.714 -0.1158  0.0658  0.0625
 3788W        W 7839   2.835   0.206   9.992  0.1197  0.0334  0.0122
 3789W        W 7840   9.960   1.849   9.443 -0.0540  0.2049 -0.0093
 3790W        W 7841   4.548   1.179   3.062 -0.0666 -0.1315  0.0011
 3791W        W 7842   3.408   5.611   1.964 -0.1105  0.1420 -0.1478
 3792W        W 7843   6.998   6.687   4.200 -0.0673  0.0802 -0.0401
 3793W        W 7844   5.427   4.484  12.956  0.0248 -0.0170 -0.1848
 3794W        W 7845   8.963   7.149   4.355  0.0088  0.2622 -0.1417
 3795W        W 7846   7.292   2.485   2.358  0.0205  0.2139  0.0407
 3796W        W 7847   0.943   2.217   0.303 -0.2883 -0.2774 -0.1864
 3797W        W 7848   6.447   7.041   2.768 -0.1610 -0.0823 -0.0606
 3798W        W 7849   8.066   8.828   1.131  0.0675 -0.0031  0.0384
 3799W        W 7850   7.530   8.616   3.759 -0.0896 -0.3418  0.0119
 3800W        W 7851   0.729   2.151   1.588  0.0906 -0.0796  0.4746
 3801W        W 7852   1.032   3.673   0.876 -0.2193  0.0813 -0.0130
 3802W        W 7853   3.356   2.678   0.120 -0.1473 -0.0005 -0.2169
 3803W        W 7854   6.368   6.839  13.331  0.0004  0.3481 -0.2378
 3804W        W 7855   0.517   8.118   2.719 -0.0208 -0.0615 -0.2729
 3805W        W 7856   3.313   6.016   1.177  0.0200 -0.2098  0.4227
 3806W        W 7857   0.143   5.476  10.156  0.1543  0.1115  0.2444
 3807W        W 7858   2.211   2.453  10.691  0.0841 -0.1098  0.1853
 3808W        W 7859   3.502   3.470   2.272 -0.0510  0.0780  0.0099
 3809W        W 7860   7.767   0.929   1.322  0.0868 -0.1235  0.1348
 3810W        W 7861   9.982   2.728   1.582 -0.0871  0.2280  0.0880
 3811W        W 7862   7.138   0.502   1.684  0.3766 -0.0906 -0.1211
 3812W        W 7863   7.619   5.255   2.446 -0.0389 -0.3107 -0.0905
 3813W        W 7864   5.447   7.248  10.518  0.1092 -0.1041 -0.1710
 3814W        W 7865   4.985   9.533   3.836 -0.0649  0.0025  0.3256
 3815W        W 7866   4.001   5.795   2.715 -0.1356 -0.0722  0.0770
 3816W        W 7867   1.386   7.759   1.517  0.0020  0.0264 -0.0292
 3817W        W 7868   4.630   9.725   0.540 -0.1905 -0.1567  0.0162
 3818W        W 7869   0.080   1.800   0.017 -0.1746 -0.1003 -0.0051
 3819W        W 7870   2.295   2.752   0.126 -0.0254  0.0289  0.2116
 3820W        W 7871   1.127   5.100   2.511  0.3861  0.2659 -0.0979
 3821W        W 7872   7.003   4.815  10.430 -0.0367 -0.0245 -0.2140
 3822W        W 7873   9.855   8.223  10.935 -0.0802 -0.3331 -0.1725
 3823W        W 7874   1.531   2.366   1.576  0.1239  0.0822  0.0707
 3824W        W 7875   8.001   0.140   1.421  0.0474  0.1911 -0.1946
 3825W        W 7876   0.609   1.390   4.191 -0.0548 -0.1853  0.1281
 3826W        W 7877   4.497   0.575  11.822  0.0331 -0.1023 -0.1829
 3827W        W 7878   8.381   4.525  13.519  0.3323 -0.1445 -0.0322
 3828W        W 7879   5.123   7.918   9.594  0.2524  0.3183 -0.0656
 3829W        W 7880   0.055   0.545  10.508 -0.0098  0.1253 -0.1186
 3830W        W 7881   1.294   4.329   1.623  0.0886  0.2240 -0.2416
 3831W        W 7882   5.244  10.161  11.097  0.0377 -0.2490 -0.1623
 3832W        W 7883   3.422   8.703  11.684 -0.1323  0.0257  0.0240
 3833W        W 7884  10.011   4.682   1.242 -0.2314 -0.1410 -0.0030
 3834W        W 7885  10.242   6.923  12.711 -0.1959 -0.3234 -0.0918
 3835W        W 7886   4.411   7.959  13.413  0.0451 -0.3079  0.0550
 3836W        W 7887   8.019   0.601   0.084 -0.1825 -0.0704 -0.4176
 3837W        W 7888   4.207   1.445   0.612 -0.0269 -0.1774 -0.1355
 3838W        W 7889   3.752   6.813   3.665  0.1583  0.3322  0.1216
 3839W        W 7890   6.354   5.247  12.160 -0.1095  0.2179  0.0286
 3840W        W 7891   1.131   7.575  11.834  0.2019  0.2217 -0.0878
 3841W        W 7892   0.069   9.791   1.841 -0.1017 -0.1273 -0.1696
 3842W        W 7893   7.985   5.304   0.832  0.1338 -0.0970 -0.4306
 3843W        W 7894   3.187   5.728  13.242 -0.1038  0.1358 -0.3383
 3844W        W 7895   1.472   2.239   0.326 -0.1928  0.2021 -0.0106
 3845W        W 7896   6.037   4.163  11.785  0.0468 -0.2394 -0.0839
 3846W        W 7897   3.328   7.359   4.036 -0.0280  0.1837 -0.2919
 3847W        W 7898   3.719   8.082   2.075 -0.0217  0.3123 -0.3751
 3848W        W 7899   3.837   0.629   4.241  0.1940  0.1154 -0.1512
 3849W        W 7900   3.788   8.322   1.617 -0.2588 -0.1271 -0.4666
 3850W        W 7901   2.597   4.514  10.581  0.2874  0.0510  0.2975
 3851W        W 7902   9.865   4.794   9.184 -0.2827 -0.1840 -0.1251
 3852W        W 7903   2.570   7.792  11.929 -0.2488  0.0087 -0.1081
 3853W        W 7904   2.055   6.433   1.291 -0.1128 -0.0716  0.0629
 3854W        W 7905   0.300   5.276   5.169 -0.2552 -0.0138 -0.1347
 3855W        W 7906   4.787   1.159   4.819 -0.2697  0.1501  0.0752
 3856W        W 7907   5.294   0.781  10.139  0.0189 -0.3387 -0.0236
 3857W        W 7908   7.977   2.400  11.181 -0.2955  0.1320 -0.0021
 3858W        W 7909   6.909   5.990  11.753  0.1863  0.0364  0.1554
 3859W        W 7910   8.097   0.664   1.074  0.0830  0.1546 -0.0740
 3860W        W 7911   9.618   4.736  11.107 -0.0176  0.4404 -0.0071
 3861W        W 7912   9.620  10.264   3.468 -0.1855  0.1341 -0.0314
 3862W        W 7913   8.797   5.142   3.769  0.0097 -0.1443  0.2413
 3863W        W 7914   1.902   8.495  13.454  0.3103 -0.2676  0.1370
 3864W        W 7915   7.308   7.861  12.536  0.1889  0.1310 -0.2747
 3865W        W 7916   0.582   9.591  13.460  0.0978  0.1264 -0.1062
 3866W        W 7917   3.991   3.769  11.764 -0.0356  0.4160  0.1239
 3867W        W 7918   7.189   9.829   0.359  0.1200  0.1572  0.0080
 3868W        W 7919   6.612   6.109  12.638  0.3306 -0.2958 -0.2490
 3869W        W 7920   7.755   9.893   0.249  0.1238  0.3063  0.1877
 3870W        W 7921   8.054  10.171   0.516 -0.0871 -0.3036  0.1653
 3871W        W 7922   9.167   8.809   1.031  0.2429 -0.0201 -0.2959
 3872W        W 7923   1.740   3.880  11.996  0.2028 -0.0126  0.2284
 3873W        W 7924   0.689   1.895   0.658 -0.2720  0.1400  0.2369
 3874W        W 7925   5.787   6.713   1.765  0.0259  0.1053  0.0260
 3875W        W 7926   2.649   4.634   0.526 -0.0639 -0.0702  0.1467
 3876W        W 7927   8.484   9.742   2.063  0.1519  0.0217  0.3264
 3877W        W 7928   1.008   8.478   4.452 -0.0056 -0.1099  0.0120
 3878W        W 7929   1.742   6.442   2.104 -0.0623  0.0413 -0.0351
 3879W        W 7930   4.690   0.454  10.051 -0.0949 -0.3158 -0.0862
 3880W        W 7931   5.574   6.062   3.155  0.0171  0.1953  0.0463
 3881W        W 7932   4.414   3.868  10.553  0.1648 -0.1936  0.3334
 3882W        W 7933   4.286   6.068   1.567  0.0089  0.4402  0.1235
 3883W        W 7934   2.748   3.260  10.365  0.1834 -0.1974  0.1132
 3884W        W 7935   0.364   4.875   2.850 -0.0676 -0.2419  0.1864
 3885W        W 7936   0.850   0.603  12.514 -0.0348 -0.0927  0.1567
 3886W        W 7937   5.775   3.655   9.916  0.0281  0.0526 -0.2577
 3887W        W 7938   6.434   0.279   9.405  0.0178 -0.0175 -0.0806
 3888W        W 7939  10.282   9.325   1.072 -0.0203  0.0021  0.1090
 3889W        W 7940   4.736   2.664   0.437 -0.1598  0.0326  0.0019
 3890W        W 7941   9.110   8.992  10.507  0.0264  0.3884  0.0214
 3891W        W 7942   7.200   4.747  12.190 -0.3178  0.1505  0.0031
 3892W        W 7943   3.074   2.171  11.489 -0.0547  0.1583  0.0889
 3893W        W 7944   2.160   4.101   9.024 -0.0598 -0.0598 -0.1360
 3894W        W 7945   7.371   5.962   2.873 -0.5305  0.1938  0.0633
 3895W        W 7946   7.661   6.611  10.410  0.0793 -0.0249  0.1659
 3896W        W 7947   7.591   8.288   4.197  0.0226 -0.1124  0.1288
 3897W        W 7948   4.181   1.017  11.802  0.1125  0.2138 -0.1341
 3898W        W 7949   9.919   7.465   2.353 -0.0071  0.0780  0.0874
 3899W        W 7950   1.687   6.234   1.587  0.2235  0.0244  0.0539
 3900W        W 7951   8.884   4.222  11.700  0.0943 -0.3063 -0.1210
 3901W        W 7952   2.546   2.779   6.155  0.0167 -0.2373  0.0314
 3902W        W 7953   8.186   9.602  11.422  0.1899 -0.0124 -0.1866
 3903W        W 7954   3.883   4.922   2.361  0.1042 -0.0126  0.2236
 3904W        W 7955   9.438   7.629   2.658 -0.3577  0.3645 -0.0750
 3905W        W 7956   1.830   3.370  11.669  0.0533  0.0943 -0.1106
 3906W        W 7957   0.613   1.351   3.694  0.1548  0.0976  0.0205
 3907W        W 7958   4.261   0.754  12.217  0.0545 -0.3284  0.0634
 3908W        W 7959   6.401   3.418  11.129  0.1683 -0.2175  0.1166
 3909W        W 7960   9.596   8.250  12.950  0.1918 -0.0842 -0.0065
 3910W        W 7961   0.211   4.308   4.422 -0.0909 -0.0315 -0.5430
 3911W        W 7962   6.059   7.568   3.288 -0.2436 -0.4032 -0.2827
 3912W        W 7963   1.140   6.518  12.918 -0.0490  0.2624  0.2416
 3913W        W 7964   7.131   1.985   1.656 -0.1870 -0.0398 -0.0707
 3914W        W 7965   1.580   4.065   3.222  0.1952 -0.0788 -0.2387
 3915W        W 7966   0.491   2.959  10.441 -0.0656 -0.0435  0.0287
 3916W        W 7967   7.569   2.598   3.408  0.2190 -0.1179  0.0343
 3917W        W 7968   2.294   2.679  12.284  0.1647 -0.3333 -0.0547
 3918W        W 7969   5.863   4.777   0.054  0.1871 -0.0207  0.3098
 3919W        W 7970   0.471   0.294  12.473  0.1838 -0.1308 -0.2379
 3920W        W 7971   3.926   9.312   0.394  0.0031 -0.4953 -0.0573
 3921W        W 7972   9.922  10.105  12.788  0.0902 -0.0924  0.0365
 3922W        W 7973   6.340   6.640   9.899  0.2629 -0.1258 -0.2736
 3923W        W 7974   9.123   4.874   1.558 -0.0588 -0.0520  0.0671
 3924W        W 7975   5.473   1.560  12.915 -0.1452  0.0464  0.3307
 3925W        W 7976   1.607   4.228   4.637 -0.3773 -0.0779  0.1243
 3926W        W 7977   8.714   1.666   4.288  0.0167  0.3118  0.1632
 3927W        W 7978   7.432   6.396  10.962  0.4106  0.0334  0.0368
 3928W        W 7979   5.935   9.881  11.137  0.2251  0.2357  0.1432
 3929W        W 7980   9.364   3.084   2.558  0.0808 -0.1947  0.0210
 3930W        W 7981   6.636   8.258   1.882 -0.1351  0.1034 -0.4429
 3931W        W 7982   0.887   5.795  13.505 -0.1742  0.0656 -0.0965
 3932W        W 7983   7.657   8.790  13.495 -0.0165 -0.1101  0.1340
 3933W        W 7984   2.924   7.443  10.717 -0.4105  0.1608  0.1855
 3934W        W 7985   4.340   6.647   9.998  0.1784  0.0371 -0.0375
 3935W        W 7986   5.573   4.959   2.353  0.3881 -0.1813  0.0102
 3936W        W 7987   7.346   7.626  10.038  0.0246 -0.0656 -0.2809
 3937W        W 7988   4.287   8.826   0.998  0.2500 -0.0752  0.0103
 3938W        W 7989   3.031   0.615   2.959  0.1115 -0.0242  0.2015
 3939W        W 7990   1.708   1.616   2.669  0.2115 -0.2098  0.0382
 3940W        W 7991   2.393   4.151   4.077 -0.1351  0.0203  0.0406
 3941W        W 7992   1.388   4.106   1.130  0.0677 -0.1225  0.0288
 3942W        W 7993   5.895   1.149  11.193 -0.0980 -0.0872 -0.0134
 3943W        W 7994   3.021   3.054   3.247 -0.3897 -0.0456  0.1713
 3944W        W 7995   3.343   0.806   9.613  0.1085  0.1829  0.1273
 3945W        W 7996   3.445   7.630  12.341 -0.1172  0.2309 -0.2759
 3946W        W 7997   2.605   2.716   0.731 -0.0850  0.3355  0.0292
 3947W        W 7998   1.188   3.793   2.006  0.0137 -0.2252 -0.0648
 3948W        W 7999   3.102   8.643  10.350 -0.1961 -0.0192 -0.1212
 3949W        W 8000   5.256   8.235  12.971  0.1307  0.1417 -0.0863
 3950W        W 8001   5.781   9.395  12.499 -0.2366  0.0281 -0.4067
 3951W        W 8002   7.701   3.459  13.209 -0.0685 -0.0701 -0.0968
 3952W        W 8003   4.832   0.746   3.208 -0.1885 -0.0538 -0.2685
 3953W        W 8004   8.093   0.375   3.583  0.1245  0.2932  0.0031
 3954W        W 8005   6.401   1.480  12.105  0.0945  0.0447 -0.0524
 3955W        W 8006   8.890   7.225   0.520 -0.0942  0.0639  0.1006
 3956W        W 8007   4.629   8.881   3.951  0.1115  0.0549  0.0485
 3957W        W 8008   7.606   4.432   1.100 -0.0046 -0.1602  0.0878
 3958W        W 8009   6.941   0.982  11.180  0.3370  0.1546  0.2716
 3959W        W 8010   2.237   4.930  11.553  0.0678  0.1440  0.1264
 3960W        W 8011   9.254   1.523  10.555  0.0308  0.3914  0.2412
 3961W        W 8012   8.560   0.951  12.360 -0.0876  0.0658  0.0063
 3962W        W 8013   2.788   9.298  12.524 -0.0663 -0.0773 -0.1150
 3963W        W 8014  10.038   6.572   9.545  0.0704 -0.0256  0.3471
 3964W        W 8015   1.517   2.446   3.260 -0.1714 -0.0993 -0.0874
 3965W        W 8016   3.845   6.234  10.870 -0.2407 -0.0248 -0.2417
 3966W        W 8017   7.671   4.272   3.652 -0.4247 -0.3147 -0.3359
 3967W        W 8018   8.225   4.376  13.033 -0.2688  0.0666 -0.1783
 3968W        W 8019   9.963   4.496  10.717 -0.1915  0.1132  0.3169
 3969W        W 8020   7.946   6.370   3.800  0.1176  0.0246 -0.4328
 3970W        W 8021   6.608   8.104  11.066  0.2563  0.1976 -0.0161
 3971W        W 8022   3.259   8.204   0.533 -0.0450 -0.4261 -0.1034
 3972W        W 8023   4.956   8.399   8.753  0.1700  0.0779  0.2706
 3973W        W 8024   1.670   0.913  11.325  0.2745  0.3474  0.1380
 3974W        W 8025   9.529   0.350   0.711 -0.2304  0.2373 -0.3510
 3975W        W 8026   1.748   3.162   0.961  0.1254 -0.0322 -0.1511
 3976W        W 8027   5.543   1.176   9.955 -0.2524  0.3273 -0.0657
 3977W        W 8028   0.798   6.174   2.093 -0.0786  0.0957  0.0698
 3978W        W 8029   2.817   8.239  12.907  0.3881 -0.3998  0.2184
 3979W        W 8030   6.076   2.176  13.586 -0.0215 -0.2516 -0.0946
 3980W        W 8031   7.518   7.477   8.799 -0.0467 -0.0515 -0.1042
 3981W        W 8032   6.642   7.223  13.259  0.0891 -0.0119 -0.1408
 3982W        W 8033   2.172   9.844  10.306  0.1308  0.0904  0.3777
 3983W        W 8034   0.965   3.388   9.667  0.3170  0.0006  0.1993
 3984W        W 8035   5.919  10.106   1.755  0.0591  0.0796  0.0074
 3985W        W 8036   5.160   3.091  11.079  0.3948  0.2065 -0.0979
 3986W        W 8037   4.909   1.793   4.610 -0.1881 -0.0226  0.2535
 3987W        W 8038   0.970   8.276   3.034 -0.0638  0.1001 -0.2585
 3988W        W 8039   6.429   6.302   0.701 -0.1642 -0.3607 -0.1765
 3989W        W 8040   3.672   1.139   2.611  0.0286 -0.0772  0.0991
 3990W        W 8041   0.451   4.296   2.561 -0.0308 -0.0640  0.0685
 3991W        W 8042   2.927   9.739   5.019  0.1805  0.3907  0.2693
 3992W        W 8043   9.486  10.093   9.956  0.1536 -0.2607 -0.0750
 3993W        W 8044   0.460   6.322   2.483  0.0684  0.3063  0.0349
 3994W        W 8045   7.349   4.923  11.739 -0.0490  0.0328 -0.1780
 3995W        W 8046  10.260   7.458  12.731  0.3444 -0.1324 -0.1730
 3996W        W 8047   9.327   9.546   2.420  0.1900 -0.2392 -0.0156
 3997W        W 8048   9.459   1.180  13.345 -0.0827  0.2329  0.2294
 3998W        W 8049   3.039   6.384   1.864 -0.0353  0.1567  0.0150
 3999W        W 8050   2.935   5.290  11.294  0.0040  0.0019 -0.1091
 4000W        W 8051   0.452   6.987   9.076  0.2709  0.0432 -0.0223
 4001W        W 8052   4.140   2.908   3.410 -0.2362  0.0107 -0.3121
 4002W        W 8053   6.870   1.802   0.919 -0.2619 -0.1769 -0.0986
 4003W        W 8054   9.161   6.193  10.880  0.1759  0.0729 -0.1074
 4004W        W 8055   3.133   6.803   2.418  0.0701  0.1709  0.0853
 4005W        W 8056   6.802   6.525   9.161 -0.3330  0.0531  0.2570
 4006W        W 8057   9.486   6.035  11.438  0.3050 -0.2336  0.2257
 4007W        W 8058   2.664   8.517   3.787  0.1701  0.1195 -0.1334
 4008W        W 8059   6.598   3.730   0.637  0.2400 -0.1241 -0.3197
 4009W        W 8060   2.859   8.023   3.586  0.3694 -0.0259  0.1668
 4010W        W 8061   2.931   1.896   1.790 -0.1534  0.1973 -0.2003
 4011W        W 8062   6.007   9.498   1.355  0.2657  0.5580 -0.2504
 4012W        W 8063   7.679   9.570  11.353 -0.1202 -0.0049  0.3504
 4013W        W 8064   6.594   1.083   2.620  0.1629 -0.1741  0.0262
 4014W        W 8065   3.213   1.872   1.173 -0.0163 -0.2050  0.1174
 4015W        W 8066   3.471   0.346   3.988  0.2862 -0.2616 -0.0615
 4016W        W 8067   7.213   0.685  13.329  0.1503 -0.2586 -0.3022
 4017W        W 8068   0.944   9.484   4.484  0.0992 -0.1975  0.0564
 4018W        W 8069   0.329   5.287   9.705  0.0185  0.2586  0.0910
 4019W        W 8070   1.124   3.956   5.156 -0.2373 -0.0562 -0.2669
 4020W        W 8071   9.377   1.688   1.979  0.1474  0.2626  0.0295
 4021W        W 8072   3.869   5.194   3.220 -0.0231  0.0928 -0.2486
 4022W        W 8073   4.440   9.635  12.264 -0.1155 -0.0482 -0.0830
 4023W        W 8074   0.132   8.500  10.387 -0.1412  0.3170 -0.0741
 4024W        W 8075   6.530   5.383  13.207  0.0855 -0.0395 -0.1111
 4025W        W 8076   8.510   0.311   3.895  0.1866  0.2900 -0.2029
 4026W        W 8077   7.532   7.414  11.019  0.1310  0.2124  0.2452
 4027W        W 8078   0.467   0.278   5.356  0.2290  0.0041  0.1286
 4028W        W 8079   8.097   9.426   1.207  0.2197  0.0430  0.0829
 4029W        W 8080   8.146   2.142  12.661  0.5393 -0.0945 -0.2414
 4030W        W 8081   5.109   0.105   4.126 -0.2496  0.1198  0.0543
 4031W        W 8082   9.028   9.737  10.035 -0.0449  0.1384  0.0632
 4032W        W 8083   1.646   8.999   1.586 -0.1067  0.4174  0.0599
 4033W        W 8084   9.146   2.700   4.505  0.4955  0.1734  0.2741
 4034W        W 8085   5.668   9.386  11.063 -0.0148 -0.1590 -0.2200
 4035W        W 8086   8.890   9.902   2.363 -0.0928  0.4320  0.1376
 4036W        W 8087   9.325   2.309   0.653 -0.1680 -0.0095  0.2430
 4037W        W 8088   3.703   2.806  12.310 -0.0531 -0.1393 -0.0451
 4038W        W 8089   3.287   0.144  12.547  0.0750  0.2650  0.0507
 4039W        W 8090  10.262   7.173   5.473 -0.0971 -0.0860  0.2191
 4040W        W 8091   2.071   1.479  13.023  0.0823  0.5825  0.0106
 4041W        W 8092   4.821   4.088   0.766 -0.0238 -0.1058 -0.0964
 4042W        W 8093   3.982   4.319   9.877  0.0586 -0.1280  0.0401
 4043W        W 8094   1.146   7.154   4.827 -0.0032  0.0694 -0.1331
 4044W        W 8095   3.838   6.138   0.835  0.0289 -0.0267  0.3555
 4045W        W 8096   2.750   1.936   1.271 -0.0723 -0.0824  0.0613
 4046W        W 8097   1.178   2.529  12.187  0.0016 -0.1061  0.0391
 4047W        W 8098   1.410   2.162   4.504 -0.0377 -0.1367 -0.0465
 4048W        W 8099   9.440   5.619  11.643  0.0079 -0.0741  0.0071
 4049W        W 8100   0.109   3.591   0.448  0.2459 -0.2513  0.0109
 4050W        W 8101   5.301   7.872   3.945 -0.0546  0.2224  0.0700
 4051W        W 8102   4.515   9.646  11.742  0.0749  0.0340  0.0519
 4052W        W 8103   5.063   1.967  11.575  0.3848 -0.1258  0.1336
 4053W        W 8104   4.395   9.839  10.159 -0.0182 -0.0205  0.1975
 4054W        W 8105   4.047   5.066   0.470 -0.3192 -0.2976 -0.1374
 4055W        W 8106   7.468   5.673  10.279 -0.0311 -0.2504  0.0249
 4056W        W 8107   8.243   7.704  10.575  0.0662  0.2644  0.0992
 4057W        W 8108  10.291   0.535   0.686  0.0507  0.1069  0.2269
 4058W        W 8109   3.575   7.480   0.545 -0.4079 -0.2180 -0.2957
 4059W        W 8110   8.747   4.161  10.224  0.1881  0.0025 -0.2515
 4060W        W 8111   9.265   4.152  10.072 -0.0313 -0.0814  0.2044
 4061W        W 8112   4.874   6.199   2.303 -0.3977 -0.1450 -0.0916
 4062W        W 8113   3.344   7.734  10.643 -0.2570  0.0322 -0.2316
 4063W        W 8114   3.536   7.106  13.123 -0.2411 -0.1093  0.0896
 4064W        W 8115   9.380   2.044   3.339  0.1327 -0.0730  0.2501
 4065W        W 8116   8.489   5.651  12.425 -0.3680  0.1349  0.3558
 4066W        W 8117   4.519   3.541  10.895 -0.1485  0.0446  0.1763
 4067W        W 8118   9.798   3.002   0.044 -0.2255  0.1576 -0.5825
 4068W        W 8119   8.795   5.045  10.608  0.1647  0.3923  0.0858
 4069W        W 8120   9.654   2.579   1.899  0.0563 -0.2361 -0.3003
 4070W        W 8121   1.282   4.066  10.191 -0.0557 -0.0990 -0.0013
 4071W        W 8122   6.574   7.796   1.195  0.2539  0.0004  0.2487
 4072W        W 8123   4.748   8.392   3.070  0.1759 -0.0285 -0.0609
 4073W        W 8124   5.618   3.608   3.971 -0.0254 -0.0553  0.2299
 4074W        W 8125   2.632   4.895  11.886 -0.1001  0.0582  0.0803
 4075W        W 8126   1.796   2.916   2.824  0.0092 -0.3980  0.2923
 4076W        W 8127  10.017  10.129   3.772  0.0616 -0.1908 -0.0297
 4077W        W 8128   3.316   5.400   0.684 -0.0313 -0.0346 -0.1917
 4078W        W 8129   4.068   3.152   0.086 -0.0223  0.3778  0.1852
 4079W        W 8130   4.004   0.886   8.655 -0.0359 -0.4110 -0.2982
 4080W        W 8131   9.465   9.279   0.156 -0.1303 -0.0683  0.1110
 4081W        W 8132   8.350   5.028   8.734 -0.0350  0.0713 -0.1479
 4082W        W 8133   1.796  10.024   4.437  0.1074  0.0441 -0.1425
 4083W        W 8134   7.318   3.172   0.702  0.1412  0.0409  0.1600
 4084W        W 8135   2.781   6.035   2.879  0.0263 -0.0675 -0.0247
 4085W        W 8136   1.856   3.865   4.872 -0.1760 -0.1107  0.2192
 4086W        W 8137   1.403   3.495  12.753  0.0787  0.0487  0.2119
 4087W        W 8138   8.712   2.242   4.655  0.0672  0.3434 -0.0509
 4088W        W 8139   4.331   6.212  12.911 -0.0576 -0.0642 -0.2643
 4089W        W 8140   8.742   3.523  11.200  0.2835  0.1411  0.1671
 4090W        W 8141   7.531   5.912  10.919  0.1797  0.1742 -0.1693
 4091W        W 8142   8.942   0.618   3.876 -0.0706 -0.0398 -0.0934
 4092W        W 8143   3.214  10.250   4.034 -0.3608  0.0817 -0.0050
 4093W        W 8144   1.150   7.675  12.410 -0.2664 -0.1301  0.3076
 4094W        W 8145   1.373   0.558  12.332 -0.2971  0.3347 -0.1298
 4095W        W 8146   9.680   9.023   2.324 -0.0477 -0.2964  0.3097
 4096W        W 8147   5.572   1.490   2.870 -0.0488 -0.0506 -0.1218
 4097W        W 8148   1.355   5.209   1.578 -0.1359 -0.3341 -0.0455
 4098W        W 8149   1.054   7.750   3.130  0.0486 -0.1185 -0.2948
 4099W        W 8150   0.781   9.699   3.986 -0.1130  0.0157  0.2597
 4100W        W 8151   4.749   0.625   0.606 -0.0072 -0.5217  0.0140
 4101W        W 8152   5.176   6.604  13.248  0.1315 -0.0782 -0.3322
 4102W        W 8153   8.988  10.058  10.900  0.0151 -0.1427  0.0076
 4103W        W 8154   0.702   0.046   4.443 -0.2496  0.3968 -0.1038
 4104W        W 8155   6.443   8.115   9.651  0.5986 -0.0340 -0.2026
 4105W        W 8156   7.641   0.619   4.498  0.0517 -0.6777  0.0087
 4106W        W 8157   5.252   2.080  12.887 -0.0568 -0.1868 -0.0040
 4107W        W 8158   3.396  10.016  10.931  0.0198 -0.0561  0.0099
 4108W        W 8159   8.914   7.287  11.737 -0.0313 -0.3021 -0.1579
 4109W        W 8160   5.692   9.759   4.241 -0.2086  0.2197 -0.1421
 4110W        W 8161   3.535   2.541   1.688  0.2200  0.0406  0.1716
 4111W        W 8162   3.648   2.038  11.942 -0.0304  0.1761  0.1534
 4112W        W 8163   9.276   1.005   3.800 -0.1231 -0.2411  0.0261
 4113W        W 8164   5.125   8.827   4.913 -0.0680 -0.0475 -0.0890
 4114W        W 8165  10.192   3.090   3.088 -0.0009 -0.2617  0.2038
 4115W        W 8166   8.593   2.087   0.282  0.1221  0.1712  0.1271
 4116W        W 8167   3.326   8.536   1.370 -0.0501  0.0597 -0.1836
 4117W        W 8168   4.982   4.404   4.170 -0.1234 -0.2439 -0.0379
 4118W        W 8169  10.047   8.590   3.097 -0.2937  0.0897  0.0242
 4119W        W 8170   2.163   8.906  13.513  0.0531  0.0527 -0.0121
 4120W        W 8171   4.432   7.241  10.505  0.2520 -0.2147 -0.0905
 4121W        W 8172   9.005   7.078   1.615 -0.0438  0.5629 -0.3608
 4122W        W 8173   1.807   6.011   3.425  0.2080 -0.0503 -0.0994
 4123W        W 8174   4.497   1.113   0.267 -0.0134 -0.2875  0.2450
 4124W        W 8175   9.531   2.035  11.498 -0.1634  0.2451  0.0922
 4125W        W 8176   6.989   8.735  12.554 -0.2970  0.0790 -0.2680
 4126W        W 8177   3.463   0.566  11.845 -0.1566 -0.1617 -0.0798
 4127W        W 8178   7.117   6.771   0.931  0.1244  0.2762 -0.1731
 4128W        W 8179   4.137   1.461   4.343  0.2448 -0.1519  0.1283
 4129W        W 8180   3.716   0.475   2.259 -0.1961 -0.0027 -0.0781
 4130W        W 8181   4.187   1.095   9.565  0.0172 -0.2310 -0.1673
 4131W        W 8182   8.017   9.705   2.776 -0.0714 -0.0054  0.0536
 4132W        W 8183   6.516   6.597   8.413 -0.0356  0.3689 -0.2094
 4133W        W 8184   3.582   2.555   2.225  0.0326  0.0528 -0.0520
 4134W        W 8185   1.116   3.285   2.067 -0.0446  0.1288  0.2109
 4135W        W 8186   8.745  10.128  13.110 -0.1554 -0.2229 -0.0702
 4136W        W 8187   9.040   3.654  10.071 -0.1065 -0.3369  0.2331
 4137W        W 8188   8.028   8.064   1.697 -0.0077  0.2387 -0.1200
 4138W        W 8189   8.978   0.973  11.307  0.0259  0.1773 -0.1006
 4139W        W 8190   5.020   4.055   2.587  0.1812  0.0130  0.1859
 4140W        W 8191   8.334   3.119   2.723 -0.2621  0.2532 -0.2571
 4141W        W 8192   1.428   5.982   1.193 -0.1053 -0.0955  0.2800
 4142W        W 8193   9.332   8.085   9.058  0.6104 -0.0320  0.0091
 4143W        W 8194   9.806   7.698   4.641  0.1050 -0.1008  0.1018
 4144W        W 8195   3.753   2.352  10.132  0.1125 -0.0101 -0.4055
 4145W        W 8196   4.265   6.772   2.743  0.1935 -0.0304 -0.4758
 4146W        W 8197   0.071   1.849  12.131  0.3799  0.0332  0.0899
 4147W        W 8198   7.707   8.170   9.423  0.0070  0.1818  0.0659
 4148W        W 8199   9.153   6.853  10.497 -0.1062 -0.0137  0.2851
 4149W        W 8200   3.802   7.775   1.644  0.0086 -0.0973  0.1036
 4150W        W 8201   1.009   4.542   5.115  0.0145 -0.1625  0.0422
 4151W        W 8202   8.571  10.012   0.346 -0.2585  0.2633 -0.1674
 4152W        W 8203   0.118   1.751   9.253  0.2035  0.2407 -0.2367
 4153W        W 8204   6.826  10.136  10.733 -0.1046  0.2541 -0.2327
 4154W        W 8205   1.149   2.118   1.299  0.0532 -0.2621 -0.0785
 4155W        W 8206   1.454   7.462  10.985 -0.1149  0.1986  0.0157
 4156W        W 8207   7.269   8.283   2.697  0.0977  0.1004  0.0275
 4157W        W 8208   2.710   2.855   4.642  0.0318  0.0023  0.0233
 4158W        W 8209   6.495   8.886  10.570 -0.0653 -0.0632 -0.0102
 4159W        W 8210   0.940   1.632   3.359 -0.0741 -0.4260 -0.2782
 4160W        W 8211   3.366   7.643   2.866  0.0584  0.1366 -0.2615
 4161W        W 8212   3.790   1.891  10.951 -0.1322  0.2812  0.1554
 4162W        W 8213   0.941   3.238  11.898 -0.2484  0.2641 -0.0466
 4163W        W 8214   2.647   2.777   4.107 -0.0499 -0.1333  0.0492
 4164W        W 8215   5.728   8.800  12.961 -0.0248  0.0222 -0.0779
 4165W        W 8216  10.016   0.781  10.855 -0.2523  0.0863  0.3610
 4166W        W 8217   4.235   5.129   1.370 -0.0770  0.1531 -0.0874
 4167W        W 8218   0.404   0.789  13.337  0.0801  0.0987  0.2665
 4168W        W 8219   1.859   4.157   2.721 -0.0166  0.2269 -0.0195
 4169W        W 8220   1.849   6.843   4.640 -0.1839 -0.0410 -0.1562
 4170W        W 8221   2.264   2.059   0.042 -0.1967  0.3833 -0.0821
 4171W        W 8222   4.360   6.080  10.839  0.2037  0.0823 -0.2166
 4172W        W 8223   1.716   6.854  10.429  0.0045 -0.0414  0.1695
 4173W        W 8224   9.372   0.267   1.778  0.0323 -0.0129  0.1633
 4174W        W 8225   3.095   8.885   3.893  0.2430  0.4443  0.0673
 4175W        W 8226   9.660   6.619  12.088 -0.2216  0.0562  0.0242
 4176W        W 8227   4.169   6.136   3.104 -0.0853 -0.0602 -0.0765
 4177W        W 8228   9.786   2.836  10.698 -0.0402 -0.0938 -0.2812
 4178W        W 8229   6.888   1.177  10.322 -0.1534 -0.0117  0.0413
 4179W        W 8230   7.618   3.610   2.925 -0.1782 -0.0037 -0.1455
 4180W        W 8231   0.347   3.838  11.019 -0.2419 -0.0213  0.1513
 4181W        W 8232   0.191   2.561   2.745  0.0971  0.1664 -0.0200
 4182W        W 8233   9.728   9.524   0.545 -0.0451 -0.0036  0.1249
 4183W        W 8234   0.448   8.155   1.404 -0.2817  0.2298 -0.0666
 4184W        W 8235   2.851   6.356  13.023 -0.0318 -0.1753  0.3843
 4185W        W 8236   1.124   2.279  12.597 -0.1019 -0.2569  0.4427
 4186W        W 8237   1.889   5.008   4.620  0.1028 -0.3550 -0.2238
 4187W        W 8238   3.676   0.767   3.789 -0.0534 -0.0821  0.0294
 4188W        W 8239   1.503   7.885   2.498  0.0070 -0.1414 -0.0369
 4189W        W 8240   3.802   9.784   9.898  0.0726  0.0130  0.1465
 4190W        W 8241   3.861   4.360  11.313  0.0643 -0.2590 -0.2985
 4191W        W 8242   3.267   1.616   0.707  0.2936 -0.2090 -0.4208
 4192W        W 8243   9.818   5.614   1.549 -0.2817 -0.1146 -0.0854
 4193W        W 8244   0.855   7.637  13.564 -0.1210  0.1103 -0.1466
 4194W        W 8245   6.118   8.777  10.968 -0.2143 -0.0652  0.0773
 4195W        W 8246   2.183   1.687  12.010  0.2176  0.0064  0.3696
 4196W        W 8247   0.096   8.150   3.770  0.0683  0.1027  0.0459
 4197W        W 8248   8.648   3.970   0.709  0.0883  0.1301  0.1393
 4198W        W 8249   7.008   4.338  11.766  0.2600  0.0619  0.0173
 4199W        W 8250   5.862   8.035   1.832  0.0981  0.0352 -0.2438
 4200W        W 8251   1.339   1.011  13.136 -0.2735  0.2289 -0.2470
 4201W        W 8252   0.504   0.421  10.151 -0.2797 -0.0255  0.0409
 4202W        W 8253   5.743   5.026  10.682 -0.1013 -0.1219  0.1063
 4203W        W 8254   4.232   2.565   2.994  0.1128  0.3002  0.0409
 4204W        W 8255   4.356   0.697   3.282  0.6927 -0.0721 -0.1533
 4205W        W 8256   0.327   3.861  10.492 -0.0133 -0.0058  0.0803
 4206W        W 8257   7.473   2.561  10.725 -0.0975  0.0852  0.0717
 4207W        W 8258   5.350   5.826  13.580 -0.2038 -0.2707 -0.1329
 4208W        W 8259   8.177   0.753   2.292 -0.1227  0.1115  0.1955
 4209W        W 8260   9.042  10.213   0.313  0.0544 -0.2801  0.3078
 4210W        W 8261   2.399   6.405   2.650 -0.2037 -0.1463  0.0558
 4211W        W 8262   6.068   0.015  11.232 -0.1535  0.1710 -0.1136
 4212W        W 8263   8.618   3.039  13.048  0.1465 -0.2396 -0.1690
 4213W        W 8264   5.411   5.701   3.468 -0.1213 -0.1705  0.0720
 4214W        W 8265   6.491   5.685  10.670  0.0608  0.1133 -0.0675
 4215W        W 8266   2.416   3.450   1.529 -0.3309  0.1681  0.1371
 4216W        W 8267   0.084   9.709   0.085 -0.0712 -0.1838 -0.1760
 4217W        W 8268   5.192   9.266  11.189 -0.1586 -0.1758  0.1158
 4218W        W 8269   1.774   8.626  11.699  0.0956 -0.0492  0.0849
 4219W        W 8270   4.858   1.880  12.529 -0.2035  0.1068 -0.0048
 4220W        W 8271   8.960   0.007   9.985  0.1592  0.1177  0.1049
 4221W        W 8272   4.671  10.322   4.332  0.3457  0.2739  0.0286
 4222W        W 8273   6.321  10.019   3.690  0.2064  0.0764 -0.1006
 4223W        W 8274   0.516   5.445  13.519 -0.2881 -0.2891  0.1021
 4224W        W 8275   4.007   9.301  12.241 -0.1451  0.2689  0.2751
 4225W        W 8276   5.727   0.476   3.765  0.2105 -0.0847  0.1769
 4226W        W 8277   1.601   3.381   3.850 -0.2486  0.1714 -0.2703
 4227W        W 8278   0.637   7.351  13.132 -0.1382 -0.1876  0.3316
 4228W        W 8279   2.542   2.267  12.281 -0.0775 -0.4213 -0.0526
 4229W        W 8280   0.174   1.839  10.160  0.0899  0.1332  0.0850
 4230W        W 8281   7.498   1.038  12.659 -0.0628  0.0695  0.2399
 4231W        W 8282   8.474   1.078  10.861  0.1107 -0.1234  0.2288
 4232W        W 8283   4.302   1.604   3.440  0.2384  0.0485 -0.1375
 4233W        W 8284   6.939  10.191  13.224 -0.0252 -0.0829 -0.1586
 4234W        W 8285   5.949   9.187   2.661 -0.0261  0.0185 -0.1751
 4235W        W 8286   5.830   3.455   0.517 -0.2761  0.2836  0.1890
 4236W        W 8287   2.225   9.565  10.738  0.1830  0.1591  0.0592
 4237W        W 8288   3.573   9.345   2.997  0.1528 -0.1519 -0.0440
 4238W        W 8289   1.004  10.041   9.959 -0.1811 -0.1837  0.1100
 4239W        W 8290   3.249   9.924  12.244  0.2353  0.0038 -0.0850
 4240W        W 8291   2.903   6.049  10.878  0.2395  0.3231  0.0920
 4241W        W 8292   7.747   6.144   9.441  0.0934 -0.0394  0.1985
 4242W        W 8293   9.988   4.839   3.927  0.0718 -0.1638 -0.0189
 4243W        W 8294   3.165   8.344   4.048  0.0218  0.0859 -0.1634
 4244W        W 8295   4.269   3.317  11.886  0.2253  0.1147  0.2585
 4245W        W 8296   2.353   4.673  12.368 -0.1108  0.0749 -0.0812
 4246W        W 8297   8.635   9.854  12.228 -0.0062  0.1518  0.1225
 4247W        W 8298   1.530   0.498  13.499  0.3623  0.3614  0.1418
 4248W        W 8299   3.522   0.476   0.836  0.0301 -0.1920 -0.0138
 4249W        W 8300   3.346   1.998  12.864  0.0283 -0.0303 -0.0526
 4250W        W 8301   9.211   7.836  10.426 -0.0052 -0.0609 -0.0167
 4251W        W 8302   0.066   5.148  12.861  0.2023 -0.1050  0.2726
 4252W        W 8303   2.734   5.994   1.938  0.2265 -0.0119  0.0033
 4253W        W 8304   6.313   7.537   2.477  0.1151 -0.0356 -0.2596
 4254W        W 8305   0.415   8.534   1.089  0.2457  0.0496  0.4585
 4255W        W 8306   1.693   5.309   5.013 -0.1696  0.2102  0.1380
 4256W        W 8307   4.426   6.018  11.669  0.0913  0.1740  0.1974
 4257W        W 8308   8.215   3.720   2.061  0.0062  0.2356  0.0242
 4258W        W 8309   3.590   7.433   2.073  0.1396  0.1453  0.0030
 4259W        W 8310   3.403   3.229  13.100 -0.1986 -0.2306  0.2541
 4260W        W 8311  10.247   6.815   2.028 -0.2975 -0.0435 -0.0132
 4261W        W 8312   3.843   3.424   4.259 -0.1134 -0.1018 -0.1196
 4262W        W 8313   4.914   9.337   0.655 -0.2300  0.0681 -0.1028
 4263W        W 8314   2.177   8.463   9.970 -0.0564 -0.1866 -0.0769
 4264W        W 8315   3.923   4.088  12.792  0.0324  0.0572  0.0551
 4265W        W 8316   9.842   6.411  13.276  0.2142  0.0617 -0.2114
 4266W        W 8317   7.242   9.618   3.482  0.1552  0.0596  0.2163
 4267W        W 8318   2.095   3.534   4.585 -0.0279  0.0973  0.0018
 4268W        W 8319   5.487   2.961  12.067 -0.0875 -0.0748 -0.1441
 4269W        W 8320   8.100   4.401  11.195  0.1464  0.2487 -0.3385
 4270W        W 8321   3.018   7.799  11.679  0.0336  0.1357 -0.2415
 4271W        W 8322   0.321   6.846  13.519 -0.0171  0.0501 -0.3145
 4272W        W 8323   8.187   4.255   3.897 -0.2505  0.0990  0.2430
 4273W        W 8324   9.088   6.367   4.805 -0.1348  0.1538  0.1711
 4274W        W 8325   6.878   3.711   0.209 -0.1017  0.1012  0.0071
 4275W        W 8326   2.300   3.255   2.797 -0.3465 -0.0524  0.1216
 4276W        W 8327   5.283   6.621  12.201  0.0949 -0.4193  0.0363
 4277W        W 8328   7.720   2.574   1.097  0.0880  0.0843  0.1581
 4278W        W 8329   2.263   5.109  12.210  0.2063  0.4072  0.1880
 4279W        W 8330   1.451   2.195   9.986  0.3016 -0.1823  0.1126
 4280W        W 8331   0.995   2.033  12.068  0.4447  0.2587  0.2539
 4281W        W 8332   0.211   2.334   4.597  0.3162  0.1647  0.0156
 4282W        W 8333   0.529   4.840  10.661 -0.0941 -0.1181 -0.0847
 4283W        W 8334   5.726   1.041   3.632 -0.3306 -0.0889  0.0686
 4284W        W 8335   3.602   9.591   1.600 -0.0412 -0.1947 -0.3645
 4285W        W 8336   3.384   3.366   4.392 -0.1403  0.0274  0.1078
 4286W        W 8337   3.025   9.476   1.435  0.1694 -0.0337  0.0393
 4287W        W 8338   4.686   4.301  10.674  0.0689 -0.1346 -0.3139
 4288W        W 8339   8.062   6.182   0.242 -0.1867  0.1897  0.1789
 4289W        W 8340   2.039   9.202   5.172  0.2300 -0.1897  0.0013
 4290W        W 8341   0.254   0.799   9.916  0.0545 -0.1668  0.0797
 4291W        W 8342   3.714   6.114   9.458  0.3212 -0.0433 -0.1000
 4292W        W 8343   6.559   7.682  10.028  0.2308  0.2664 -0.1775
 4293W        W 8344   4.714   3.075  13.407  0.4488 -0.0969  0.2465
 4294W        W 8345   1.216   7.505   9.507  0.0906  0.0674 -0.3912
 4295W        W 8346   6.318   3.704  11.602  0.0466  0.1062  0.1273
 4296W        W 8347   0.927   7.830  10.261  0.5034  0.0460 -0.1544
 4297W        W 8348   8.634   3.320  11.654  0.1288 -0.3347 -0.0093
 4298W        W 8349   8.976   1.116   5.960 -0.1143 -0.2228  0.2633
 4299W        W 8350   5.596   2.019   2.886  0.1932  0.1207  0.0427
 4300W        W 8351   0.044   2.422   1.263  0.4137  0.0746  0.0662
 4301W        W 8352   6.564   0.602   0.743  0.2029 -0.3576  0.2689
 4302W        W 8353   9.960   5.541   4.557 -0.2616 -0.2181  0.1953
 4303W        W 8354   0.386   6.145   4.179  0.2277  0.0697 -0.1601
 4304W        W 8355   8.445   4.634   2.519  0.0394  0.3736 -0.0025
 4305W        W 8356   9.636   3.310   2.922 -0.0803  0.0315  0.0494
 4306W        W 8357   2.355   2.496  11.856 -0.1006  0.1833 -0.1388
 4307W        W 8358   4.443   5.384  12.766  0.1263 -0.1873  0.1776
 4308W        W 8359   5.722   9.961   1.280 -0.1236 -0.2645  0.3626
 4309W        W 8360   6.787   4.214   1.108  0.0523 -0.0463 -0.1977
 4310W        W 8361   6.018   4.759  10.405  0.0215  0.2836  0.1257
 4311W        W 8362   6.438   2.947   3.120  0.3914 -0.0856 -0.0541
 4312W        W 8363   7.721   5.613   9.294  0.0402  0.1361  0.2958
 4313W        W 8364   8.259   8.817  12.940  0.0821 -0.1330 -0.2851
 4314W        W 8365   0.206   8.803  10.784 -0.3364  0.0672  0.1458
 4315W        W 8366   2.186   1.526  11.540  0.1133 -0.1945 -0.1444
 4316W        W 8367   5.895   9.757   3.716 -0.0550 -0.1528 -0.0295
 4317W        W 8368  10.123   5.710   8.991 -0.1712 -0.0746  0.2290
 4318W        W 8369   8.595   0.630   0.353  0.0032 -0.0631  0.1106
 4319W        W 8370   2.322   7.035   2.081  0.2203 -0.4148  0.1864
 4320W        W 8371   0.080   7.443  11.168  0.0535 -0.1132 -0.1720
 4321W        W 8372   4.658   6.166  13.298  0.0139  0.0447  0.3327
 4322W        W 8373   2.112   7.525   9.152  0.0319  0.0434  0.0200
 4323W        W 8374   2.486   4.250   1.319  0.1756 -0.1504 -0.1394
 4324W        W 8375   5.721   5.857   0.473  0.0416 -0.1080 -0.2424
 4325W        W 8376  10.150   1.261  10.843 -0.2652 -0.0595  0.0417
 4326W        W 8377   1.826   5.428   4.310 -0.0370  0.2471  0.2379
 4327W        W 8378   9.477   3.622  13.414 -0.2731  0.0397 -0.3214
 4328W        W 8379   6.262   9.643   2.849  0.0832 -0.0789  0.0548
 4329W        W 8380   9.449   7.851   3.271  0.1597 -0.0576  0.0768
 4330W        W 8381   1.200   1.572   1.993 -0.3742 -0.1927  0.1809
 4331W        W 8382   1.605   1.271  10.098 -0.2894 -0.1442 -0.0270
 4332W        W 8383   7.114   8.742   2.450  0.1176 -0.0687 -0.2870
 4333W        W 8384   5.897   9.527  13.121 -0.1709  0.0987 -0.0569
 4334W        W 8385   9.260   6.319  10.415  0.0688  0.2106  0.2118
 4335W        W 8386   6.278   7.979   2.720  0.3374  0.0436  0.0019
 4336W        W 8387  10.059   8.411   3.607 -0.0129 -0.0394 -0.6041
 4337W        W 8388   2.397   2.333   1.174 -0.3495 -0.0081  0.0453
 4338W        W 8389   0.722   6.171   0.226 -0.2834 -0.0283  0.3368
 4339W        W 8390   9.429   8.753  10.087  0.1374  0.3011  0.0123
 4340W        W 8391   4.102   4.711   1.053  0.1565 -0.1940  0.0666
 4341W        W 8392   8.260   6.756  12.475  0.0155  0.3606  0.0884
 4342W        W 8393   7.206   3.372  10.087  0.0280  0.0370 -0.0819
 4343W        W 8394   6.610   8.899  13.238 -0.0553 -0.4098 -0.0333
 4344W        W 8395   2.388   2.919  11.442 -0.0957 -0.1279  0.0686
 4345W        W 8396   8.265   3.558  11.401  0.1270 -0.0835  0.1195
 4346W        W 8397   2.443   4.178   0.131  0.0966  0.0509 -0.0648
 4347W        W 8398   9.190   6.586   3.036 -0.0237  0.1260 -0.2353
 4348W        W 8399   0.405   7.973   3.192  0.2163 -0.0854 -0.0958
 4349W        W 8400   0.255   3.948   4.027  0.0526 -0.1464  0.2426
 4350W        W 8401   5.325   9.823   3.012 -0.3865  0.1974 -0.1540
 4351W        W 8402   5.679  10.319  10.322 -0.0865 -0.3093 -0.1149
 4352W        W 8403   1.136   1.661   3.816 -0.0805  0.0856  0.1917
 4353W        W 8404   2.947   7.316   2.500  0.3868  0.2616  0.0349
 4354W        W 8405   7.309   4.803  13.275 -0.0344 -0.1993 -0.0822
 4355W        W 8406   2.299   1.656   1.322  0.0930  0.0942 -0.0039
 4356W        W 8407   7.918   3.960  13.162  0.0507 -0.3348 -0.1764
 4357W        W 8408   3.528   8.868   9.457  0.1565 -0.1720  0.0321
 4358W        W 8409   4.255   7.560   3.872 -0.0114 -0.2384 -0.0244
 4359W        W 8410  10.222   2.924   1.154 -0.3047  0.5758 -0.0332
 4360W        W 8411   9.933   7.666  13.017 -0.2085  0.0113 -0.1603
 4361W        W 8412   2.357   0.355   0.307  0.1019  0.1324 -0.0101
 4362W        W 8413   0.060   7.207  12.295 -0.0978  0.0446  0.1488
 4363W        W 8414   3.149   9.529   2.763  0.1210  0.0082  0.1273
 4364W        W 8415   3.465   8.299  11.370  0.1361  0.2832  0.1448
 4365W        W 8416   5.903   1.082   0.951 -0.0660 -0.2211 -0.0761
 4366W        W 8417   7.676   5.269  10.930 -0.0472 -0.1496 -0.0006
 4367W        W 8418   2.998   4.344   3.536  0.1550  0.1231  0.4689
 4368W        W 8419   4.118   5.970   0.350  0.0015  0.1670  0.1083
 4369W        W 8420   7.048   6.939   0.378  0.0786 -0.3422 -0.0884
 4370W        W 8421  10.255   2.813  11.672 -0.0898  0.0244 -0.2054
 4371W        W 8422   1.821   4.965   3.549  0.1882  0.1481 -0.2503
 4372W        W 8423   9.655   8.336   3.262 -0.1948  0.0303 -0.1574
 4373W        W 8424   6.931   9.084   2.738  0.0468  0.1392 -0.1989
 4374W        W 8425   1.758   5.081  11.630 -0.0608  0.0829 -0.1120
 4375W        W 8426   3.998   0.276   9.284  0.0935  0.2566 -0.2671
 4376W        W 8427   7.214   0.611  12.613  0.0739  0.0674  0.1115
 4377W        W 8428   7.912   9.330   4.022 -0.0360  0.0812 -0.2034
 4378W        W 8429   4.750   9.406   9.898  0.1320  0.2903  0.2424
 4379W        W 8430   7.995   2.462   0.561  0.2400  0.0156  0.0044
 4380W        W 8431   3.324   7.550   1.629  0.0882  0.2362 -0.0551
 4381W        W 8432   4.634   1.626   2.215  0.2967  0.1323 -0.1264
 4382W        W 8433   5.563   6.237  10.860 -0.0438  0.0845 -0.3530
 4383W        W 8434   8.493   6.307   2.572 -0.2780  0.3255 -0.0558
 4384W        W 8435   6.417   9.502  11.374 -0.3528  0.0949 -0.0440
 4385W        W 8436   8.482   5.512   3.561  0.2800 -0.2001 -0.0947
 4386W        W 8437   0.136   6.681   2.491 -0.0266 -0.3436  0.2372
 4387W        W 8438   0.155   0.969   2.678  0.3247 -0.1629  0.4280
 4388W        W 8439   2.983   5.285   4.997 -0.1696 -0.3767 -0.2642
 4389W        W 8440   0.668   4.682  13.044  0.0133 -0.3314  0.5087
 4390W        W 8441   1.966   0.350  10.335  0.0363 -0.1925  0.1331
 4391W        W 8442   9.577   8.654   2.852  0.2238  0.2588 -0.1642
 4392W        W 8443   1.294   7.381   0.056 -0.2641 -0.1092 -0.3647
 4393W        W 8444   9.233   7.227   0.017  0.1459  0.3440  0.0312
 4394W        W 8445   2.702   1.306   0.250  0.0114 -0.1927  0.0215
 4395W        W 8446   9.543   9.190  11.955 -0.2263  0.3398 -0.0208
 4396W        W 8447   8.616   9.111   9.733 -0.3672 -0.0822 -0.2284
 4397W        W 8448   1.781   1.470   2.033  0.0303  0.1955 -0.0626
 4398W        W 8449   4.061   0.351   0.128 -0.1144 -0.0909  0.1103
 4399W        W 8450   0.525   7.288  10.891 -0.0381  0.0150 -0.2199
 4400W        W 8451   4.797   9.906   9.873  0.0546  0.1482 -0.1419
 4401W        W 8452   1.325   9.502   1.204  0.3012  0.2413  0.3424
 4402W        W 8453   0.324   5.900   2.060  0.0834 -0.0254  0.1200
 4403W        W 8454   7.911   9.705   9.443  0.0070  0.1539  0.3117
 4404W        W 8455   8.815   5.417  10.962  0.1654 -0.0700 -0.2667
 4405W        W 8456   9.758   6.369   0.996  0.2224 -0.0265 -0.0138
 4406W        W 8457   1.387  10.195  11.456 -0.2113 -0.0791  0.1127
 4407W        W 8458   5.590   5.617   1.139  0.1786 -0.0689  0.0106
 4408W        W 8459   7.348   1.889   1.152  0.1091 -0.0632  0.0060
 4409W        W 8460   8.197   6.665   1.735 -0.1470  0.0555  0.2095
 4410W        W 8461   3.299   5.846   8.992  0.0482  0.2754 -0.0942
 4411W        W 8462   8.448   0.774   3.635  0.4048  0.1113  0.1505
 4412W        W 8463   9.883   7.092  13.002  0.0483  0.0356 -0.1815
 4413W        W 8464   1.804   4.740  12.008 -0.0187 -0.0472 -0.0402
 4414W        W 8465   0.744   4.504   2.907  0.1049  0.0166 -0.2175
 4415W        W 8466   1.745   2.415  10.828 -0.0130 -0.1245  0.0122
 4416W        W 8467   0.951   4.465   9.891 -0.3635  0.0834 -0.1166
 4417W        W 8468   9.530   4.037   1.946  0.1811 -0.0128  0.3363
 4418W        W 8469   2.547   0.617   4.867 -0.4118 -0.2103  0.1131
 4419W        W 8470   1.027   1.225   9.951 -0.0767  0.1049  0.0344
 4420W        W 8471   3.545   7.670  10.158 -0.3944  0.0627 -0.0882
 4421W        W 8472   2.482   4.220   3.547 -0.0662 -0.1961 -0.0294
 4422W        W 8473   8.835   5.846   1.194 -0.1553  0.1155  0.0121
 4423W        W 8474   7.286   1.654   4.805 -0.1339  0.0593  0.0961
 4424W        W 8475   0.650   3.152  12.728 -0.2973  0.1676 -0.0853
 4425W        W 8476   2.136   6.010  10.861  0.1715  0.2971 -0.1513
 4426W        W 8477   3.049   8.612   2.557 -0.2766 -0.1684  0.0789
 4427W        W 8478   3.706   3.025   2.532 -0.1460 -0.0313 -0.0576
 4428W        W 8479   3.046   3.061   0.854  0.1627 -0.0243 -0.1885
 4429W        W 8480   7.319   2.064   3.573  0.0933  0.0709 -0.1115
 4430W        W 8481   1.360   0.186   1.725  0.3071 -0.1883  0.0389
 4431W        W 8482   0.968   0.616  10.348  0.0397 -0.2896  0.0402
 4432W        W 8483   8.096   8.297   4.033 -0.2692  0.4323 -0.0811
 4433W        W 8484   9.785   4.642   6.038  0.3098 -0.1473 -0.0211
 4434W        W 8485   7.227   7.451  10.591 -0.0194  0.4255 -0.1308
 4435W        W 8486  10.110   2.890  12.815  0.1114 -0.0432  0.1700
 4436W        W 8487   2.675   6.173   3.577  0.1087 -0.1647  0.1469
 4437W        W 8488   9.553   1.458   0.127 -0.0799 -0.1130  0.1106
 4438W        W 8489   1.837   3.578  11.055  0.1782 -0.3217 -0.1232
 4439W        W 8490   7.857   0.939  12.264  0.3735 -0.1251  0.0645
 4440W        W 8491   5.097   6.951   9.720 -0.3992  0.1555 -0.0470
 4441W        W 8492   6.832   9.127   1.044 -0.1365 -0.0768 -0.2397
 4442W        W 8493   2.787   4.152  10.293 -0.0573  0.2994  0.5255
 4443W        W 8494   9.841   9.986   0.272  0.2165  0.0521  0.0042
 4444W        W 8495   4.743   3.453   1.525 -0.1129 -0.0804 -0.0603
 4445W        W 8496   5.197   3.949  11.401  0.2030  0.0699 -0.2373
 4446W        W 8497   9.479   9.283   3.679 -0.2059  0.2979 -0.2543
 4447W        W 8498   1.043   5.665  11.812 -0.1060 -0.0650  0.0065
 4448W        W 8499   9.035   9.873  13.522  0.0530 -0.5250 -0.0622
 4449W        W 8500   0.669   2.510  10.523 -0.1513 -0.2981  0.1562
 4450W        W 8501   3.830   5.106  13.538  0.0663 -0.0538  0.0878
 4451W        W 8502   4.914   5.745  13.401 -0.3075 -0.2445 -0.1618
 4452W        W 8503   7.942   1.379   1.468 -0.2978 -0.0945  0.0884
 4453W        W 8504  10.075   0.669  12.240 -0.0452 -0.4209 -0.2307
 4454W        W 8505   8.898   8.401   1.915 -0.1146  0.1195 -0.1815
 4455W        W 8506   5.286   5.649   0.737  0.2726 -0.1684 -0.2294
 4456W        W 8507   9.883   3.201   6.043  0.1136 -0.3101 -0.0694
 4457W        W 8508   6.579   1.522   0.667 -0.0663 -0.0453  0.2568
 4458W        W 8509   2.019   4.336   1.754 -0.1455  0.1358  0.3837
 4459W        W 8510   7.516   8.659  12.417  0.2480 -0.0662  0.1594
 4460W        W 8511   9.844   9.945   0.812  0.0215  0.0606  0.1185
 4461W        W 8512   7.060   9.306   1.968  0.4124  0.0154  0.0094
 4462W        W 8513   4.666   3.954  13.271 -0.3353  0.1444  0.0642
 4463W        W 8514   9.992   6.229  11.265  0.1805  0.1066  0.2657
 4464W        W 8515   6.766   1.067   0.506  0.2598 -0.0425 -0.1253
 4465W        W 8516   0.214   0.995   4.054 -0.1782 -0.1155 -0.2897
 4466W        W 8517   4.417   0.464   1.997 -0.0088 -0.1565 -0.2273
 4467W        W 8518   6.914   1.524  11.280 -0.2351  0.1843  0.2338
 4468W        W 8519   6.800   5.222  12.406  0.1198  0.2495  0.0235
 4469W        W 8520   6.478   9.561   1.018  0.0493  0.1067 -0.0308
 4470W        W 8521   9.483   8.269  10.655  0.2986 -0.3179  0.1919
 4471W        W 8522   2.271  10.289   9.999 -0.1269  0.3114  0.0880
 4472W        W 8523   0.014  10.284  10.465 -0.1424  0.0617 -0.1200
 4473W        W 8524   6.010   5.518  13.041  0.0741  0.2028 -0.0755
 4474W        W 8525  10.085   4.536  10.131  0.1340 -0.3860  0.3409
 4475W        W 8526   5.255   3.768   2.185  0.1303  0.0415  0.1357
 4476W        W 8527   3.362   4.453  12.246 -0.1095  0.1279 -0.2463
 4477W        W 8528   3.814   2.033   4.159 -0.0907  0.2827 -0.0769
 4478W        W 8529   5.158   7.488   2.925  0.0496 -0.1899  0.1513
 4479W        W 8530   9.742   2.454   5.423  0.0261 -0.0430  0.0381
 4480W        W 8531   8.627   4.422   1.559  0.1165  0.0380  0.0475
 4481W        W 8532   4.984  10.313   5.055  0.3314 -0.2543  0.2436
 4482W        W 8533   1.986   5.555   0.709  0.1430  0.0031 -0.2718
 4483W        W 8534   7.730   1.301   4.625  0.0770 -0.0780 -0.0746
 4484W        W 8535   5.225   6.619  10.728 -0.3595  0.2091  0.1876
 4485W        W 8536   5.275   9.323   0.338 -0.0065  0.3335 -0.2535
 4486W        W 8537   2.731   9.263   2.146 -0.0290 -0.2805 -0.0632
 4487W        W 8538   7.928   9.644  11.866  0.2501  0.0323 -0.0613
 4488W        W 8539   4.330   1.267   2.111  0.1691 -0.1474 -0.2435
 4489W        W 8540   5.620   7.905  11.014  0.0941 -0.0558 -0.2027
 4490W        W 8541   2.504   2.348   4.468  0.0795 -0.0955  0.0376
 4491W        W 8542   4.178   6.564  11.173  0.1370  0.1449 -0.2314
 4492W        W 8543   7.418   0.737   3.304  0.0736 -0.2951  0.3675
 4493W        W 8544   4.967   0.671   9.205 -0.0585  0.1475 -0.0819
 4494W        W 8545   4.797   8.899   0.938  0.0733 -0.2657 -0.2384
 4495W        W 8546   2.498   6.048   0.635  0.0120  0.0045 -0.1249
 4496W        W 8547   0.622   5.255  11.551 -0.2342  0.1254 -0.2299
 4497W        W 8548   0.362   5.840  12.404 -0.0243 -0.0765  0.3993
 4498W        W 8549   8.990   8.179  10.872 -0.0742  0.0052  0.3323
 4499W        W 8550   1.095   6.464   0.353  0.3453  0.0050 -0.0876
 4500W        W 8551   2.337   4.674   0.922  0.0520 -0.1685  0.2434
 4501W        W 8552   1.790  10.127   0.562  0.4095  0.1219  0.1543
 4502W        W 8553   5.242   1.657   0.690 -0.0655 -0.1165 -0.0660
 4503W        W 8554   5.681   2.975   0.533 -0.1436  0.1968  0.2667
 4504W        W 8555   7.205   1.577  10.504 -0.0805 -0.0679  0.2925
 4505W        W 8556   2.431   3.255   4.908 -0.1238  0.1949 -0.2736
 4506W        W 8557   4.733   0.808  10.484  0.0590 -0.2163  0.5402
 4507W        W 8558   5.858   5.434   0.690 -0.0567 -0.1195 -0.5463
 4508W        W 8559   7.398   5.275  13.077  0.2023  0.1573 -0.0390
 4509W        W 8560   6.689   2.274   3.579  0.1998 -0.1964  0.1844
 4510W        W 8561   4.194   0.328  10.158  0.3443  0.0585 -0.0041
 4511W        W 8562   8.498   0.555  13.451 -0.1716 -0.0263 -0.2080
 4512W        W 8563   4.795   8.542  10.769 -0.2596  0.0027 -0.0207
 4513W        W 8564   3.800   1.503  10.333 -0.0978  0.0332 -0.2165
 4514W        W 8565  10.134   4.776  13.586  0.0595  0.2825  0.2254
 4515W        W 8566   3.252   3.906   3.615  0.1069  0.4266 -0.3372
 4516W        W 8567   6.615   2.917   1.555  0.0957 -0.1225 -0.1455
 4517W        W 8568   6.430   1.580  12.679  0.4052 -0.2068  0.1170
 4518W        W 8569   9.942   7.904  13.471  0.0132  0.1603  0.0378
 4519W        W 8570   6.798   4.751  13.370 -0.1656  0.0198 -0.0087
 4520W        W 8571   0.586   0.691  10.634 -0.0859  0.0680 -0.3499
 4521W        W 8572   6.029   0.318  10.256  0.2378  0.1122  0.0317
 4522W        W 8573   5.527   7.023   2.236  0.0206 -0.0684  0.2901
 4523W        W 8574   7.308   3.429   0.246 -0.0837 -0.1313  0.1615
 4524W        W 8575   9.387   0.883   0.405 -0.1414  0.0787  0.0651
 4525W        W 8576   4.327   0.789  13.548  0.1204 -0.0744 -0.1221
 4526W        W 8577   8.992   8.296   4.678 -0.0156 -0.0580  0.0078
 4527W        W 8578   5.633   5.494  11.373 -0.0992  0.0632  0.1843
 4528W        W 8579   0.588   3.627   9.881  0.2659  0.3504 -0.2731
 4529W        W 8580  10.041   2.348  12.861  0.1258  0.2514 -0.0785
 4530W        W 8581   9.049   7.072  12.368 -0.0763  0.1642 -0.4709
 4531W        W 8582   8.610   9.405  11.647 -0.2206 -0.0463  0.1442
 4532W        W 8583   8.602   7.594   0.740 -0.0132 -0.2115  0.1606
 4533W        W 8584   1.145   4.668  13.499  0.0495  0.1835  0.1383
 4534W        W 8585   9.296   5.747   1.447  0.2702  0.0155  0.0809
 4535W        W 8586  10.268   5.278   2.948  0.3374 -0.0376 -0.3313
 4536W        W 8587   0.875   1.986   4.557 -0.1124 -0.2085 -0.1865
 4537W        W 8588   3.841   1.360   2.183  0.1543 -0.1409 -0.0929
 4538W        W 8589   7.245   2.051   9.574 -0.0207 -0.1383  0.2280
 4539W        W 8590   3.620   6.497  12.685  0.2160 -0.0141  0.0458
 4540W        W 8591   1.917   3.077  13.551  0.0090  0.1870  0.4016
 4541W        W 8592   8.548   1.941  12.933 -0.0066 -0.2052  0.2847
 4542W        W 8593   8.638   3.516  12.686  0.0578  0.0062  0.0974
 4543W        W 8594  10.292   7.363   2.985 -0.1339  0.0778 -0.1811
 4544W        W 8595   6.852   6.884   9.940 -0.0599 -0.2069  0.1799
 4545W        W 8596   4.076   4.772   3.375 -0.1712 -0.0057 -0.0255
 4546W        W 8597   5.264   5.962   1.511 -0.2021  0.2822  0.0737
 4547W        W 8598   7.417   4.382  13.532 -0.0219  0.0714  0.1276
 4548W        W 8599  10.022   2.370  10.868  0.1089 -0.1067  0.2966
 4549W        W 8600   8.787   8.106   2.908  0.1311 -0.1282  0.0613
 4550W        W 8601   3.305   4.146   0.084 -0.1542 -0.1082 -0.0863
 4551W        W 8602   8.876   4.863   0.639  0.0614 -0.0345 -0.0027
 4552W        W 8603   1.116   8.096   1.209  0.1846  0.5175 -0.0725
 4553W        W 8604   3.196   4.265   2.353  0.0476  0.0728  0.3706
 4554W        W 8605   0.074   0.521   1.198  0.1996  0.1447  0.0927
 4555W        W 8606   0.163   5.454   9.236  0.1375 -0.0645 -0.2068
 4556W        W 8607   9.457   5.127   0.042  0.0385  0.0616  0.1226
 4557W        W 8608   4.425   6.522  12.578 -0.1271 -0.0208 -0.0339
 4558W        W 8609   4.301   8.858   1.505  0.1482  0.1711 -0.0659
 4559W        W 8610   9.081   7.451  12.666  0.2821  0.0837  0.1225
 4560W        W 8611   2.655   8.571   9.990  0.1930  0.1042  0.1698
 4561W        W 8612   5.188   1.990  12.114 -0.1269 -0.0135  0.0092
 4562W        W 8613   5.046   5.842  10.564  0.3259 -0.0945  0.4268
 4563W        W 8614   2.278   1.431   4.551 -0.0645 -0.2363  0.1302
 4564W        W 8615   4.327   4.715  11.346 -0.1495  0.4211  0.1693
 4565W        W 8616   5.454   4.430   9.927  0.1478  0.2368  0.1298
 4566W        W 8617   8.183   1.970   0.501 -0.3926  0.0931  0.1205
 4567W        W 8618   1.311   9.919  13.313  0.2765  0.2087  0.2173
 4568W        W 8619   5.156   2.215   2.556 -0.1596  0.3746 -0.1883
 4569W        W 8620   9.612   2.117   5.068  0.0855 -0.1455 -0.0411
 4570W        W 8621   1.557   5.653  11.171 -0.0012 -0.1564 -0.1618
 4571W        W 8622   3.492   7.473   1.110  0.2065  0.2030 -0.2568
 4572W        W 8623   1.922   6.075   9.372  0.0564  0.2154 -0.0598
 4573W        W 8624   5.515   6.268  13.216 -0.0483 -0.2739  0.1303
 4574W        W 8625   9.601   4.248   3.118 -0.0449  0.2713  0.1750
 4575W        W 8626   8.347   7.429   2.272  0.0065  0.1527 -0.1146
 4576W        W 8627   3.388   3.670  10.615  0.2155 -0.0618 -0.1382
 4577W        W 8628   0.755   7.893  12.173 -0.1049  0.0941  0.0375
 4578W        W 8629   9.875   5.700   2.139 -0.0887  0.1411  0.0254
 4579W        W 8630   8.568   5.671   5.123 -0.0128 -0.0741 -0.1481
 4580W        W 8631   3.746   2.082   2.471 -0.0255  0.0495 -0.1517
 4581W        W 8632   2.064   7.235   0.182 -0.2712 -0.1222 -0.3304
 4582W        W 8633   1.640   3.814  11.502 -0.0047  0.2653  0.1355
 4583W        W 8634   6.226  10.127   2.695 -0.1535  0.2631 -0.0014
 4584W        W 8635   2.044  10.105   5.274  0.0031 -0.1611  0.2684
 4585W        W 8636  10.037   9.731   3.073 -0.1805 -0.1533  0.2092
 4586W        W 8637   7.823   7.539   0.823  0.0094 -0.0939  0.1034
 4587W        W 8638  10.087   2.369   4.941  0.0561  0.2409  0.1058
 4588W        W 8639   3.756   0.991  10.368 -0.2244 -0.2304 -0.1188
 4589W        W 8640   6.161   2.327   2.240 -0.2127 -0.0045  0.0810
 4590W        W 8641   1.285   7.634   4.661  0.1533 -0.1312  0.4220
 4591W        W 8642   9.631   3.444   3.633 -0.0217  0.2007 -0.0265
 4592W        W 8643   5.922   4.966  12.931 -0.0136  0.1451  0.1949
 4593W        W 8644   2.218   5.986  12.530 -0.0601  0.2060  0.2512
 4594W        W 8645   6.390   3.469   0.278  0.3473 -0.0346  0.1181
 4595W        W 8646   3.703   7.206   1.501 -0.0137 -0.1911 -0.1392
 4596W        W 8647   1.032  10.077  12.935  0.1249  0.0685  0.0954
 4597W        W 8648   9.173   6.387  11.523  0.1684  0.0361 -0.0496
 4598W        W 8649   2.253   5.585  10.332 -0.3542 -0.1793  0.0222
 4599W        W 8650   2.926   9.635   0.865  0.1684 -0.2115  0.0369
 4600W        W 8651   0.556   2.319   1.050 -0.1280 -0.0621  0.3008
 4601W        W 8652   8.846   7.896  12.690  0.1098 -0.0027  0.3470
 4602W        W 8653  10.102   6.132  10.778  0.0531 -0.3123  0.1908
 4603W        W 8654   4.836   1.504   9.410  0.1482  0.3641 -0.0932
 4604W        W 8655   2.265   3.895   5.626  0.0524  0.0553  0.0260
 4605W        W 8656   9.585   1.888   0.466  0.1047 -0.0016  0.1010
 4606W        W 8657   7.992   5.392  12.300 -0.0177 -0.1465  0.5114
 4607W        W 8658   9.906  10.288   4.816 -0.0107 -0.0968 -0.0704
 4608W        W 8659   1.282   6.010   2.073  0.0299 -0.1807  0.1787
 4609W        W 8660   0.892   8.982   1.226  0.2183 -0.0766 -0.1561
 4610W        W 8661   1.530   7.856   1.993  0.0856 -0.1869  0.0178
 4611W        W 8662   5.183   4.579  10.876  0.1959  0.0682 -0.5123
 4612W        W 8663   8.507   1.334  12.828 -0.4621 -0.0820  0.3984
 4613W        W 8664   3.826   2.158   1.971  0.2512 -0.6383  0.2033
 4614W        W 8665   4.058   1.811   4.672  0.1090 -0.0671 -0.0102
 4615W        W 8666   0.756   2.075  11.484 -0.0969  0.0745  0.1433
 4616W        W 8667   2.218   8.156   1.558 -0.4449 -0.0468  0.0581
 4617W        W 8668   0.687   0.796   2.777 -0.0756  0.1750 -0.2961
 4618W        W 8669   1.086   3.643   2.469 -0.2491 -0.0123 -0.3020
 4619W        W 8670   3.959   5.564   0.134  0.3300  0.0983 -0.1529
 4620W        W 8671   8.814   1.463  12.441  0.1601 -0.1062  0.0017
 4621W        W 8672   3.663   6.675  10.705 -0.0796 -0.0693  0.1209
 4622W        W 8673   6.824   2.002   9.790  0.0256  0.1220  0.3083
 4623W        W 8674   1.236   9.893   3.828  0.1289 -0.1951 -0.0452
 4624W        W 8675   2.182   4.568   2.748 -0.1147 -0.1878  0.1109
 4625W        W 8676   5.211   1.522  12.110  0.1054  0.2269 -0.1229
 4626W        W 8677   8.445   4.081  13.346 -0.2563 -0.0797  0.1120
 4627W        W 8678   1.989   4.246  11.284  0.1285  0.0298 -0.1795
 4628W        W 8679   0.313   7.268   4.583 -0.2466  0.1903 -0.4144
 4629W        W 8680   5.173   3.563   2.630  0.0849 -0.1749  0.0684
 4630W        W 8681   4.023   8.130   0.273  0.1024  0.1146 -0.1752
 4631W        W 8682   5.804   1.075   3.031 -0.0059 -0.1883  0.1658
 4632W        W 8683   2.751   2.747  12.297 -0.0676 -0.0360 -0.0518
 4633W        W 8684   2.842   6.291   9.183  0.0252 -0.1314  0.1653
 4634W        W 8685   3.016   9.854  10.539 -0.0411  0.1636  0.1034
 4635W        W 8686   6.919   0.382   3.728 -0.1952 -0.2478 -0.1015
 4636W        W 8687   6.638   9.879  12.043  0.0932  0.1316 -0.0185
 4637W        W 8688   4.148   6.012  13.369  0.2895  0.1109  0.2660
 4638W        W 8689   7.744   4.361  10.422 -0.2851  0.2024 -0.2324
 4639W        W 8690   0.907   9.246  12.110  0.0555 -0.0933 -0.2039
 4640W        W 8691   9.613   8.510   8.872 -0.2722 -0.2750 -0.0179
 4641W        W 8692   3.918   8.628   9.159 -0.0946 -0.0418  0.1277
 4642W        W 8693   5.122   0.660  13.263 -0.1862 -0.1044  0.1419
 4643W        W 8694   3.829   2.097  12.825  0.0803 -0.1323 -0.0926
 4644W        W 8695   9.500   7.540   9.113  0.3018  0.0980 -0.0151
 4645W        W 8696   2.158   7.685   0.227 -0.0137  0.0070 -0.1226
 4646W        W 8697   9.813   4.261   1.414  0.0199  0.0499  0.1991
 4647W        W 8698   5.126   1.743   2.829  0.0950  0.0796  0.3693
 4648W        W 8699   0.817   4.194   1.783  0.0936 -0.1221  0.2205
 4649W        W 8700   4.152   4.272   2.442 -0.3764  0.2219 -0.0382
 4650W        W 8701   1.741   0.683  13.080  0.0117  0.0167 -0.0317
 4651W        W 8702   0.458   3.639  12.662  0.1130  0.1290  0.0608
 4652W        W 8703   9.731   8.641   4.361 -0.0158  0.2330  0.2828
 4653W        W 8704   0.528   4.428  12.240  0.2818 -0.5708  0.2563
 4654W        W 8705   0.999   2.346   2.354 -0.0573  0.0442 -0.3111
 4655W        W 8706   0.091   4.424  10.979 -0.1894  0.2603  0.4474
 4656W        W 8707   1.571   0.525   2.100 -0.3115  0.0050  0.3143
 4657W        W 8708   9.150   7.611   4.154  0.2166  0.4287  0.3282
 4658W        W 8709   8.794   9.635  13.076 -0.1016  0.0501  0.0737
 4659W        W 8710   9.545   9.754  13.477 -0.0166 -0.2687  0.0096
 4660W        W 8711   6.933   2.192  13.362  0.1914 -0.1849  0.2511
 4661W        W 8712  10.184   5.806  12.274 -0.0207 -0.0434  0.1415
 4662W        W 8713   2.783   8.581  10.757 -0.1904  0.2873 -0.1723
 4663W        W 8714   6.426   3.340  10.513 -0.0424  0.1348  0.1551
 4664W        W 8715   3.519   6.505   0.775 -0.0301 -0.0155  0.3780
 4665W        W 8716   5.656  10.235   2.956 -0.2633 -0.0623 -0.3280
 4666W        W 8717   2.858   8.209   1.519 -0.0340 -0.2292  0.0514
 4667W        W 8718   0.512   9.972  11.178  0.1902 -0.2028 -0.4061
 4668W        W 8719   9.640   3.761   1.413  0.0370 -0.1234  0.0438
 4669W        W 8720   4.651   1.081   1.771  0.1611 -0.1268  0.5949
 4670W        W 8721   4.815   0.035  11.793  0.0470 -0.1587 -0.0333
 4671W        W 8722   7.729   3.324   2.162  0.0709  0.3477  0.2412
 4672W        W 8723   1.247   4.530   0.894 -0.2460  0.1800 -0.2226
 4673W        W 8724   3.389   7.419  11.033  0.0215 -0.1420 -0.2374
 4674W        W 8725   5.643   2.224  10.959  0.0370 -0.1062  0.1635
 4675W        W 8726   1.088   2.294   4.931  0.1707 -0.3073 -0.1526
 4676W        W 8727   7.363   8.863   0.354 -0.0543 -0.0640 -0.1978
 4677W        W 8728   3.246   1.363   4.324 -0.1091  0.1223  0.0884
 4678W        W 8729   4.797   4.698   2.087 -0.0401  0.0318 -0.0272
 4679W        W 8730   3.310  10.305   0.984 -0.2147  0.0796  0.1764
 4680W        W 8731   4.412   1.865   4.338 -0.3952  0.1488  0.1460
 4681W        W 8732   1.295   4.095  11.791 -0.2732  0.4004  0.1075
 4682W        W 8733   0.561   9.209   1.527 -0.0923  0.0767 -0.0050
 4683W        W 8734   5.356   6.718   0.398 -0.0050  0.2818  0.0286
 4684W        W 8735   7.486   9.468   0.399  0.0074 -0.2229 -0.3899
 4685W        W 8736   9.286   5.359   1.796 -0.1184  0.3249  0.3244
 4686W        W 8737   8.548  10.159   4.080  0.0050 -0.0025 -0.4157
 4687W        W 8738   2.306   5.080   3.676  0.1836 -0.1724  0.0505
 4688W        W 8739   5.582   8.290   2.233  0.1601  0.3812  0.1654
 4689W        W 8740   8.568   8.068  13.118  0.2125  0.1499 -0.2909
 4690W        W 8741   1.978   9.708  12.215 -0.2076  0.3105 -0.0793
 4691W        W 8742   8.030   1.561  11.607 -0.1900 -0.0429 -0.2900
 4692W        W 8743   3.818   7.655  10.840 -0.1102  0.0808 -0.0649
 4693W        W 8744   8.777   6.695   2.779 -0.1894  0.0886 -0.2000
 4694W        W 8745   9.764   1.311  12.866  0.0465 -0.2761 -0.4896
 4695W        W 8746   9.124   3.526   4.866 -0.0125  0.1239  0.1359
 4696W        W 8747   7.238   4.807   2.312 -0.1093 -0.0213 -0.0867
 4697W        W 8748   7.602   3.010  11.824 -0.1381 -0.3904 -0.1668
 4698W        W 8749   5.924   4.464   3.688 -0.0073 -0.0743  0.0850
 4699W        W 8750   8.530   9.685  13.530 -0.0741 -0.3201  0.0686
 4700W        W 8751   7.196   1.984   0.181 -0.0352  0.2333 -0.0207
 4701W        W 8752   2.945   6.493  11.206  0.0940  0.2489 -0.2095
 4702W        W 8753   6.400   1.104   0.947 -0.4019  0.1506 -0.1131
 4703W        W 8754   2.056  10.060   4.002 -0.0990 -0.0748 -0.0422
 4704W        W 8755   3.639   1.250   5.244  0.2692  0.0625  0.0270
 4705W        W 8756   4.465   2.725  13.082 -0.0083 -0.2004  0.2638
 4706W        W 8757   3.006   7.394  12.272 -0.0052 -0.1165  0.2287
 4707W        W 8758   1.570   0.565  10.939  0.3117 -0.1377 -0.0535
 4708W        W 8759   9.287   8.168   1.049  0.1153 -0.0628  0.0792
 4709W        W 8760   4.208   1.187   2.585 -0.0891  0.0423 -0.0954
 4710W        W 8761   3.279   2.889   4.540 -0.0117  0.0790  0.0283
 4711W        W 8762   7.307   2.330   4.213  0.3025  0.0252  0.0524
 4712W        W 8763   3.872   4.326   4.166  0.0633  0.2100  0.2939
 4713W        W 8764   3.676   9.483   4.368  0.1962  0.1593 -0.1283
 4714W        W 8765   4.469   1.391   9.805 -0.1267  0.0300 -0.0187
 4715W        W 8766   8.922  10.311   3.784 -0.3241 -0.1219 -0.0178
 4716W        W 8767   0.167   3.180   5.126 -0.0513 -0.2614 -0.2652
 4717W        W 8768   8.720   3.852   2.239  0.3080 -0.1865 -0.0702
 4718W        W 8769   1.969   1.311  10.508 -0.1369  0.0252 -0.1856
 4719W        W 8770   0.927   4.407  10.378  0.3817 -0.1491 -0.1297
 4720W        W 8771   2.737   2.597  13.532 -0.3422  0.0405 -0.0583
 4721W        W 8772   3.886   2.851  10.263  0.0841  0.0089  0.1019
 4722W        W 8773   0.397   5.828   0.752 -0.2435  0.3417 -0.0896
 4723W        W 8774   9.307   7.530   1.197  0.0088 -0.0178  0.3419
 4724W        W 8775   8.694   1.286  11.572  0.0039 -0.1454  0.1278
 4725W        W 8776   5.018   8.391   0.454  0.0351 -0.1569 -0.0770
 4726W        W 8777   3.875   8.016   5.276 -0.2392 -0.1550 -0.0398
 4727W        W 8778   5.663   6.130   9.232  0.1135 -0.0613 -0.2221
 4728W        W 8779   9.080   7.644   3.008  0.0641 -0.0860 -0.1529
 4729W        W 8780  10.113   2.047   0.898  0.0823  0.0723  0.1374
 4730W        W 8781   6.260   6.170   8.362  0.1701  0.1374  0.0354
 4731W        W 8782   9.677   1.313   3.732  0.1336  0.2765  0.0135
 4732W        W 8783   8.508   5.881  11.937 -0.2354  0.1111 -0.4163
 4733W        W 8784   0.758   8.406   4.881 -0.1121  0.1230 -0.0529
 4734W        W 8785   4.546   1.228  12.095 -0.2601  0.0067  0.0281
 4735W        W 8786   5.663   8.787   3.589 -0.2121  0.1919 -0.1130
 4736W        W 8787   0.881  10.191  10.878  0.0132 -0.3408 -0.0196
 4737W        W 8788   4.832   8.367  13.265  0.0084 -0.2795 -0.2348
 4738W        W 8789   5.810   1.575  11.986 -0.0207 -0.3779 -0.0867
 4739W        W 8790   5.975   1.270  12.339 -0.3032 -0.1707  0.2267
 4740W        W 8791   0.314   4.882   2.322 -0.0293  0.2139  0.0880
 4741W        W 8792   9.542   0.631  12.145 -0.2495  0.1174  0.0565
 4742W        W 8793   0.036   9.434  12.490  0.1098  0.1279 -0.0772
 4743W        W 8794   4.799   9.928   4.081 -0.0615  0.0895  0.0162
 4744W        W 8795   1.836   3.366  10.611 -0.1409 -0.0282  0.0149
 4745W        W 8796   7.724   7.797  11.775 -0.0408 -0.3147 -0.2837
 4746W        W 8797   1.899   7.358  12.507  0.2603  0.2350 -0.0282
 4747W        W 8798   1.748   1.598  10.943 -0.0693 -0.0222 -0.1854
 4748W        W 8799   1.583   6.779   2.495  0.0886  0.2373  0.1438
 4749W        W 8800   2.991   3.950  11.859 -0.0810 -0.0902  0.1384
 4750W        W 8801   5.206   2.082   9.175 -0.1636  0.0305  0.4604
 4751W        W 8802   2.386   9.664  11.986  0.0260 -0.1142  0.2510
 4752W        W 8803   0.284   8.575  11.271  0.1546 -0.2323  0.2238
 4753W        W 8804   5.922   8.878   3.058 -0.0576 -0.1764 -0.0003
 4754W        W 8805   6.429   5.199  12.717 -0.0147  0.0739 -0.1536
 4755W        W 8806   8.321   6.306  12.236  0.1925 -0.0495  0.0348
 4756W        W 8807   7.384   5.711  12.788 -0.3895 -0.0363  0.2110
 4757W        W 8808   8.580   6.194   9.184 -0.0239  0.0401 -0.0376
 4758W        W 8809   4.910   4.663   0.649 -0.2690 -0.4463 -0.0823
 4759W        W 8810   2.236   6.500  13.002 -0.0286 -0.0780  0.1303
 4760W        W 8811   5.136   0.505  10.605 -0.0101  0.0406  0.0181
 4761W        W 8812   9.251   5.784   0.489 -0.0544 -0.0974 -0.2602
 4762W        W 8813   7.657  10.109   3.694  0.3056 -0.2175  0.0300
 4763W        W 8814   1.541   7.065   1.031  0.3394  0.2892 -0.0818
 4764W        W 8815   0.432   3.915  11.588  0.1283 -0.0715 -0.1536
 4765W        W 8816   0.409   7.877   0.044 -0.3235  0.2436 -0.0424
 4766W        W 8817   5.433   7.074   1.723  0.2330  0.1638  0.0478
 4767W        W 8818   1.723   0.269  11.370 -0.1245  0.0905 -0.0325
 4768W        W 8819   0.514   3.282   0.691  0.1978  0.0475  0.0542
 4769W        W 8820   5.396   5.761  10.149  0.0997 -0.0596 -0.0815
 4770W        W 8821   0.419   4.533   1.187 -0.0303  0.3527 -0.0660
 4771W        W 8822   8.154   2.647   2.684 -0.1552  0.2842  0.0347
 4772W        W 8823   6.803   3.788   2.578  0.2190  0.3786  0.0228
 4773W        W 8824   7.999   6.722   0.315 -0.0775 -0.1217  0.1132
 4774W        W 8825   2.721   8.234   2.400  0.0883  0.1447 -0.1794
 4775W        W 8826   7.056   1.927  11.061  0.3011 -0.1981  0.3409
 4776W        W 8827   9.551   0.239  11.428 -0.1249 -0.1749  0.3667
 4777W        W 8828   5.554   7.197   0.309 -0.2349  0.3501  0.0138
 4778W        W 8829   0.213   7.091  11.709 -0.2214 -0.0380  0.0077
 4779W        W 8830   8.487   3.190   3.598  0.1059 -0.2623  0.0149
 4780W        W 8831   7.926   3.222   1.705  0.0218  0.1728 -0.2048
 4781W        W 8832   1.320   0.537  12.853 -0.0235 -0.2792 -0.0830
 4782W        W 8833   8.353   2.685  13.409 -0.0481  0.0898 -0.1330
 4783W        W 8834   3.656   2.906  11.296 -0.1233  0.1941  0.0947
 4784W        W 8835  10.063   1.985   5.317 -0.0943 -0.1168 -0.1230
 4785W        W 8836   7.680   1.385   3.961  0.0907 -0.0186 -0.1872
 4786W        W 8837   4.125   2.462  10.530 -0.2164  0.0078  0.1120
 4787W        W 8838   3.987   6.473   1.181 -0.1912 -0.3034  0.2060
 4788W        W 8839   6.502   5.435   1.421 -0.0867  0.0171 -0.1302
 4789W        W 8840   2.581   0.448  11.297 -0.1521  0.0305 -0.1114
 4790W        W 8841   7.482   1.372   1.106  0.0825  0.0352 -0.0466
 4791W        W 8842   0.798   4.070  11.165  0.2111  0.1097  0.1578
 4792W        W 8843   6.642   9.358  10.733 -0.0002  0.0099 -0.1517
 4793W        W 8844   0.624   2.871   2.293  0.1578 -0.2050 -0.3049
 4794W        W 8845   0.091   6.617   3.491 -0.5071 -0.0822 -0.0522
 4795W        W 8846   2.223   1.482   9.991 -0.0910 -0.3466 -0.3031
 4796W        W 8847   3.732   1.373   8.480  0.0477 -0.2473 -0.1084
 4797W        W 8848   6.316   4.162  10.478 -0.0563 -0.0893 -0.0333
 4798W        W 8849   2.799   1.468   4.567 -0.6385  0.3370  0.1027
 4799W        W 8850   8.321   8.860   3.236  0.2551  0.0556 -0.1607
 4800W        W 8851   4.296   6.196   2.573  0.0948 -0.1453  0.1977
 4801W        W 8852   6.491   9.362   4.412  0.2821  0.1517 -0.0741
 4802W        W 8853   5.091   9.153   4.170 -0.0160  0.0758 -0.1584
 4803W        W 8854   1.301   6.786   4.470  0.1401  0.0401 -0.1680
 4804W        W 8855   7.742   3.402   0.545 -0.3729 -0.0324 -0.1437
 4805W        W 8856   6.340   0.484  13.250 -0.0065  0.1074  0.0533
 4806W        W 8857   0.099   2.855   5.506 -0.2747  0.0392  0.1447
 4807W        W 8858   6.544   3.414  12.809 -0.0961  0.4618 -0.0906
 4808W        W 8859   6.525   1.622   3.218 -0.0270  0.3777 -0.2847
 4809W        W 8860   9.985   0.643   4.987  0.1594  0.2105  0.3809
 4810W        W 8861   6.707  10.273   2.405 -0.0161 -0.1001  0.0356
 4811W        W 8862   6.450   0.564   3.613  0.2013 -0.0235 -0.0205
 4812W        W 8863   4.725   7.104   3.714 -0.0872  0.2345 -0.2124
 4813W        W 8864   4.011   1.359  11.424 -0.2438  0.1839 -0.2930
 4814W        W 8865   9.793   4.830   0.366 -0.3522 -0.0646  0.4313
 4815W        W 8866   3.755   0.214   3.515 -0.1977 -0.1014  0.1710
 4816W        W 8867  10.127   8.608   0.484  0.2608  0.0401  0.4567
 4817W        W 8868   2.589  10.106   1.619  0.0636  0.1867  0.3053
 4818W        W 8869   3.273   9.477  12.867 -0.0807  0.4212 -0.1507
 4819W        W 8870   3.484   6.264   9.906 -0.1325  0.0197  0.0339
 4820W        W 8871   1.846   9.904   2.435  0.1266 -0.0999 -0.1109
 4821W        W 8872   0.448   3.601   5.708 -0.0305 -0.3692  0.0972
 4822W        W 8873   5.328   9.213   2.061 -0.1681 -0.1940  0.1846
 4823W        W 8874   5.663   6.341   0.322 -0.1716 -0.0327  0.0890
 4824W        W 8875   1.657   1.274   0.339  0.1311  0.0428  0.0400
 4825W        W 8876   7.479   6.933  12.254 -0.1269  0.0941 -0.3406
 4826W        W 8877   5.072   7.509   1.648  0.3959 -0.3150  0.0320
 4827W        W 8878  10.134   9.499  11.346  0.0474  0.1924 -0.2104
 4828W        W 8879   4.135   5.656   1.296 -0.1077  0.0158 -0.2310
 4829W        W 8880   3.435   9.672   9.505  0.0622 -0.0823  0.0954
 4830W        W 8881   8.065   6.571   2.715 -0.2686  0.3045 -0.0170
 4831W        W 8882   5.511   1.229   1.614 -0.0084 -0.0662 -0.1563
 4832W        W 8883   6.320   2.256  12.170  0.2519 -0.2965  0.0683
 4833W        W 8884   1.023   7.262  12.720 -0.0153 -0.0653  0.1421
 4834W        W 8885   8.017   5.937   1.234  0.3442  0.2343  0.0033
 4835W        W 8886   3.174   1.577   9.665 -0.1821  0.0693 -0.0935
 4836W        W 8887  10.164   7.183  10.825 -0.0575 -0.2424 -0.1940
 4837W        W 8888   0.092   6.988   3.877  0.0712  0.2120  0.3435
 4838W        W 8889   4.972   0.496  12.720  0.0163 -0.0358 -0.0406
 4839W        W 8890   7.992   1.139  10.711 -0.0101  0.0731 -0.2133
 4840W        W 8891   3.902   9.534  10.410  0.0194 -0.0661  0.1677
 4841W        W 8892   9.548   1.286   2.229 -0.2945  0.1049  0.0199
 4842W        W 8893   0.196   6.956  11.127 -0.2386 -0.1020  0.0396
 4843W        W 8894   1.233   0.778   4.201  0.0553 -0.0802  0.2131
 4844W        W 8895   2.511   8.804  11.195  0.0918  0.0949 -0.0437
 4845W        W 8896   8.222   7.263  10.367  0.0983  0.0850 -0.2923
 4846W        W 8897   6.602   1.931  11.238  0.0963 -0.6191 -0.2181
 4847W        W 8898   2.245   7.547  11.621  0.1064  0.2115  0.4142
 4848W        W 8899   5.032   7.222   0.333  0.0788 -0.1577 -0.1759
 4849W        W 8900  10.275   9.282   9.980 -0.1043  0.0199 -0.0609
 4850W        W 8901   4.120   9.391   9.967 -0.0612  0.0127 -0.0272
 4851W        W 8902   2.163   8.137   4.309  0.1595  0.2879 -0.3329
 4852W        W 8903   0.868   1.409   4.734  0.1055  0.0606 -0.5248
 4853W        W 8904   8.498   9.163   4.492  0.1125  0.1174 -0.1898
 4854W        W 8905   8.563   8.979  10.250  0.1969 -0.0965  0.2609
 4855W        W 8906   0.144   6.060   3.713  0.0893 -0.0182  0.0213
 4856W        W 8907   6.320   3.043   0.480  0.0425  0.0718 -0.1050
 4857W        W 8908   4.295   9.496   1.484 -0.0672  0.2813  0.0689
 4858W        W 8909   3.235   2.273   2.019  0.3917 -0.0944 -0.2289
 4859W        W 8910   9.470   1.502  12.489 -0.1281 -0.3501  0.0784
 4860W        W 8911   1.601   3.047   3.454  0.1477  0.1608 -0.1555
 4861W        W 8912   2.791   7.839  13.189  0.0628  0.1071 -0.2303
 4862W        W 8913   7.840   5.377   2.011 -0.2721  0.3089 -0.0706
 4863W        W 8914  10.067   3.884   2.302  0.1557 -0.0251  0.2636
 4864W        W 8915   2.815   1.031   4.762 -0.2861 -0.0579 -0.0191
 4865W        W 8916   1.483   3.782   2.847  0.0728 -0.2677  0.2664
 4866W        W 8917   7.924   9.749  10.124 -0.1417 -0.0366  0.1241
 4867W        W 8918   1.956   3.732   3.027  0.1289 -0.1272  0.1304
 4868W        W 8919   2.839   5.433   1.856 -0.2727 -0.0612  0.0432
 4869W        W 8920  10.016   1.353   3.313  0.0209 -0.0642  0.1293
 4870W        W 8921   3.865   5.256  10.332  0.0768 -0.3519 -0.3429
 4871W        W 8922   3.471   0.973   1.402 -0.2250  0.0606  0.1010
 4872W        W 8923   9.631   6.461   1.493  0.0150 -0.1431 -0.2378
 4873W        W 8924   5.284   3.492  11.730 -0.1115 -0.4130  0.1255
 4874W        W 8925   4.935   3.058  12.926  0.3386  0.2134 -0.0470
 4875W        W 8926   2.461   7.982   5.306  0.0979  0.0763  0.1572
 4876W        W 8927   7.821  10.179  13.177  0.0879 -0.2562  0.0931
 4877W        W 8928  10.027   3.478  12.879 -0.1005  0.3629 -0.0331
 4878W        W 8929   5.949   9.058  11.971  0.2330 -0.2654 -0.3697
 4879W        W 8930   3.071   0.541   5.294  0.0960  0.3184  0.1358
 4880W        W 8931   1.722   4.982  10.002  0.3065  0.1821 -0.0245
 4881W        W 8932   5.685  10.033   9.169 -0.2257 -0.2144 -0.1112
 4882W        W 8933   6.532   5.009   1.682  0.0692 -0.2652  0.2223
 4883W        W 8934   1.412   5.200  11.248  0.2053  0.0302  0.1612
 4884W        W 8935   9.552   6.782  11.634  0.3388  0.1438 -0.1196
 4885W        W 8936   5.897   6.642   2.246 -0.2747  0.1239 -0.4785
 4886W        W 8937   2.867   4.004   3.895  0.0633  0.2159  0.3275
 4887W        W 8938   7.953   7.675   1.373  0.1998 -0.3016  0.0820
 4888W        W 8939   9.064   6.483   4.227 -0.2092 -0.0622  0.3711
 4889W        W 8940   2.939   5.773   0.452 -0.1701  0.0067  0.1102
 4890W        W 8941   4.362   6.568   1.531  0.2165  0.0152 -0.0167
 4891W        W 8942   6.229   4.438   4.083 -0.2029 -0.0159  0.2860
 4892W        W 8943   0.738   5.269  10.411  0.1239  0.4323  0.0863
 4893W        W 8944   2.269   9.620   2.151 -0.2443  0.0494  0.2593
 4894W        W 8945   4.148   7.883  12.985 -0.1058  0.0144  0.4378
 4895W        W 8946   7.565   6.883   2.572  0.0883 -0.1179  0.1231
 4896W        W 8947   9.736   7.962  11.326  0.0421 -0.1995  0.1059
 4897W        W 8948   2.793  10.241   3.695  0.0433 -0.3092 -0.1857
 4898W        W 8949  10.271   4.856  10.586 -0.2114 -0.2581 -0.0431
 4899W        W 8950   2.311   2.873   3.644  0.3051 -0.1950 -0.4860
 4900W        W 8951   8.916   7.702  13.193  0.1618 -0.1920 -0.3130
 4901W        W 8952  10.061   6.040  12.692  0.1396 -0.1661 -0.0994
 4902W        W 8953   9.735   3.486  10.298 -0.1381  0.0690  0.1057
 4903W        W 8954   6.849   3.749   1.223  0.1508  0.0915 -0.0702
 4904W        W 8955   9.016   3.227  13.395 -0.2371 -0.1557  0.3301
 4905W        W 8956   9.876   7.155  11.965 -0.1830  0.0556  0.2439
 4906W        W 8957   5.071   6.946  12.879  0.1026 -0.0381  0.0998
 4907W        W 8958   4.794   7.871  12.986 -0.0360 -0.0176 -0.0641
 4908W        W 8959   7.932   1.653   5.462 -0.0616  0.2081 -0.2341
 4909W        W 8960   1.297   0.333   4.434 -0.2665  0.1140 -0.0457
 4910W        W 8961   8.217   7.080   0.051  0.0400 -0.1071 -0.3874
 4911W        W 8962   0.568   5.762   2.478 -0.0946 -0.1374 -0.1403
 4912W        W 8963   1.764   2.556  13.159 -0.0466  0.0388 -0.3918
 4913W        W 8964   1.090   7.377  10.528 -0.0900 -0.0524  0.0835
 4914W        W 8965   1.145   5.618  12.666 -0.0468  0.0168 -0.0542
 4915W        W 8966   5.962   7.083  10.306 -0.2719 -0.0632  0.1030
 4916W        W 8967   1.812   4.445   3.466 -0.0062 -0.2157 -0.3492
 4917W        W 8968   4.684   1.919   3.588  0.3554  0.0165  0.0223
 4918W        W 8969   4.096   9.618   8.345  0.2882 -0.1678 -0.2493
 4919W        W 8970   5.559   8.873   1.763  0.2122  0.2016  0.0588
 4920W        W 8971   5.918   6.288   6.395 -0.1268  0.0593  0.0763
 4921W        W 8972   4.290   9.381   4.539  0.0776 -0.2012 -0.1311
 4922W        W 8973   8.707   8.032  10.444 -0.2190  0.2306 -0.3019
 4923W        W 8974   0.940   1.659   0.175  0.2822 -0.2415 -0.1551
 4924W        W 8975   2.533   0.658   3.034 -0.0664 -0.0882  0.0302
 4925W        W 8976   9.733   1.608  10.732 -0.1637  0.1068  0.0022
 4926W        W 8977   4.724   8.045  10.433 -0.1722  0.0758 -0.0776
 4927W        W 8978   4.612   8.004   3.496  0.0954 -0.2154 -0.2054
 4928W        W 8979   5.114   6.705   3.009 -0.3173 -0.3511  0.1339
 4929W        W 8980   5.215   1.378  10.301  0.0410  0.2210  0.0824
 4930W        W 8981   7.523   5.564  12.257 -0.0380  0.1681 -0.1384
 4931W        W 8982   7.417   8.566   9.623  0.1486  0.0885 -0.0267
 4932W        W 8983   4.126   4.335   0.111  0.0746  0.2015 -0.0879
 4933W        W 8984   4.179   7.008   2.349 -0.0559  0.1948  0.1146
 4934W        W 8985   6.803   9.714  11.051  0.1230 -0.1295  0.0240
 4935W        W 8986   3.625   9.204  10.684  0.1229 -0.0024  0.4301
 4936W        W 8987   1.536   7.332   1.762 -0.0853  0.2481  0.0976
 4937W        W 8988   0.481   6.704   3.805 -0.0194  0.1302 -0.3668
 4938W        W 8989   0.301   2.812   0.850 -0.0995 -0.0816 -0.0724
 4939W        W 8990   9.856   3.464   0.933  0.1968  0.0018  0.1098
 4940W        W 8991   6.212   3.245   1.698 -0.0025 -0.1727  0.0680
 4941W        W 8992  10.108   8.543  13.335  0.0236  0.0546 -0.0740
 4942W        W 8993   4.608   7.275   2.310  0.3145 -0.3686  0.0277
 4943W        W 8994   1.595   2.217   5.071 -0.1932  0.2232  0.0737
 4944W        W 8995   0.137   0.018   3.026  0.0829 -0.3857  0.0615
 4945W        W 8996   9.015   1.026  10.787  0.2472 -0.4982 -0.0071
 4946W        W 8997  10.062   1.704   6.527 -0.1361 -0.3388 -0.2248
 4947W        W 8998   5.538   9.913  11.878 -0.1272  0.1485  0.0805
 4948W        W 8999  10.055   4.291  12.835 -0.2587 -0.2275 -0.2383
 4949W        W 9000   0.747   9.112  13.050 -0.0650 -0.1479 -0.1096
 4950W        W 9001   0.671   7.972  13.225  0.3514  0.0049  0.0044
 4951W        W 9002   7.569   2.865   2.036  0.1358 -0.2014 -0.0300
 4952W        W 9003   8.599   4.576  10.519 -0.0972 -0.0046 -0.3930
 4953W        W 9004   0.678   3.347   2.245 -0.2902  0.0469  0.0463
 4954W        W 9005   0.997   4.437  11.543  0.0040  0.2040 -0.1340
 4955W        W 9006   1.217   1.124  10.442 -0.0106 -0.1418 -0.0839
 4956W        W 9007   0.569   6.664  11.364  0.1065 -0.1285  0.0259
 4957W        W 9008   6.155   7.680   0.079  0.1058  0.1729 -0.0539
 4958W        W 9009   1.128   4.783   1.698 -0.0882 -0.2341 -0.1446
 4959W        W 9010   1.388   4.711  10.352 -0.2735  0.0684 -0.0821
 4960W        W 9011   1.624   9.922   5.504 -0.0617 -0.1715 -0.0531
 4961W        W 9012   4.050   8.438  10.200 -0.1366 -0.2864 -0.1568
 4962W        W 9013   0.996   7.530  11.119 -0.3312 -0.3349 -0.4898
 4963W        W 9014   2.175   1.294   0.430  0.2171  0.2423  0.4810
 4964W        W 9015   7.153   1.520   1.865  0.1862 -0.0721  0.1693
 4965W        W 9016   3.832   0.294   9.784  0.0066 -0.1917 -0.1387
 4966W        W 9017   5.451   2.906   4.021 -0.2443  0.0073 -0.1757
 4967W        W 9018   8.362   9.448  12.070 -0.1439  0.0343  0.0844
 4968W        W 9019  10.241   1.012   0.460  0.0965 -0.3174  0.0260
 4969W        W 9020   4.973   7.057   9.182  0.1423  0.0179 -0.0017
 4970W        W 9021   1.339   5.503   2.034  0.2402 -0.0780  0.0322
 4971W        W 9022   3.828   6.557  10.206 -0.1207  0.1290  0.1416
 4972W        W 9023   1.591   4.004  13.350  0.1784 -0.1851  0.0184
 4973W        W 9024   4.504   2.946  11.683 -0.0615 -0.2176  0.2060
 4974W        W 9025   0.056   1.499   5.181  0.1970 -0.3558  0.0195
 4975W        W 9026   3.798   9.940  13.125 -0.3632 -0.0109 -0.0276
 4976W        W 9027   6.323   8.406  11.790  0.0197 -0.1679 -0.1387
 4977W        W 9028   2.753   5.192   1.363 -0.2714 -0.2349 -0.2396
 4978W        W 9029   9.064   2.888   2.952  0.0570  0.0158  0.0150
 4979W        W 9030   6.527   6.185  10.486  0.1502  0.0327 -0.0439
 4980W        W 9031   2.678   9.301   2.963  0.0447 -0.1559  0.0112
 4981W        W 9032   3.972   5.350   3.665 -0.1768 -0.1377 -0.0254
 4982W        W 9033   2.100   8.758  10.808 -0.1166  0.4159  0.3819
 4983W        W 9034   2.969   9.512   3.300 -0.0969  0.1422 -0.0790
 4984W        W 9035   7.845   7.013   9.657  0.3550 -0.1019  0.0789
 4985W        W 9036   1.917   2.558   5.191  0.0736 -0.0225 -0.2616
 4986W        W 9037   6.133   6.300   1.192 -0.1236 -0.1829  0.1727
 4987W        W 9038   6.411   8.043  11.491 -0.0287 -0.0548 -0.0708
 4988W        W 9039   4.470   9.182   9.560 -0.0649  0.0520  0.0306
 4989W        W 9040   1.788   7.987   0.389 -0.1447 -0.0937  0.1615
 4990W        W 9041   5.865   8.719   0.728 -0.0578  0.2162 -0.0653
 4991W        W 9042   1.656   1.882   6.048  0.2009  0.0410  0.2354
 4992W        W 9043   1.395   5.800  12.140  0.1080 -0.4113 -0.2038
 4993W        W 9044   3.622   1.456   3.066 -0.0650  0.0298  0.0910
 4994W        W 9045   5.856   0.649   2.305 -0.0522 -0.1846 -0.2695
 4995W        W 9046   9.606   0.680  10.184  0.1127 -0.0083  0.0810
 4996W        W 9047   4.513   5.659   9.681  0.0419 -0.1421 -0.1045
 4997W        W 9048   5.750   6.161   9.777  0.1502 -0.0740  0.0243
 4998W        W 9049   9.869   0.415  10.511 -0.0694 -0.0488 -0.0364
 4999W        W 9050   2.594   6.109  12.127  0.4524 -0.1475 -0.3247
 5000W        W 9051   7.908   8.685   2.099 -0.1549 -0.0028 -0.1380
 5001W        W 9052   1.596   1.355   4.394 -0.1634  0.2154  0.1099
 5002W        W 9053   4.650   3.656   0.696  0.2441  0.3140  0.1726
 5003W        W 9054  10.161  10.296   0.005  0.1553 -0.0923 -0.0552
 5004W        W 9055   4.346  10.062   3.867  0.0412 -0.4502  0.2688
 5005W        W 9056   1.548   5.579  11.685 -0.1076  0.1872 -0.0141
 5006W        W 9057   9.082   5.501   9.327  0.0293  0.1280 -0.1289
 5007W        W 9058   9.110   6.773  11.945 -0.2829 -0.0064 -0.3147
 5008W        W 9059   8.539   1.357   2.159 -0.1174  0.2709 -0.1271
 5009W        W 9060   2.810   0.319   4.044  0.1742  0.1014  0.2511
 5010W        W 9061   7.844   7.112  10.676  0.0003  0.0886  0.0282
 5011W        W 9062   4.443   7.028   3.181  0.3049  0.2355  0.1495
 5012W        W 9063   7.017   7.837  13.010 -0.0490 -0.3899  0.0345
 5013W        W 9064   6.512   5.844   0.983 -0.0096  0.2380 -0.0689
 5014W        W 9065   2.732  10.299  13.066  0.1171  0.1497 -0.0783
 5015W        W 9066   5.590   0.996  10.492  0.2466  0.1828 -0.1320
 5016W        W 9067   7.888   7.176   4.500  0.0589  0.0482 -0.1343
 5017W        W 9068   1.599   7.077   9.826 -0.1045  0.1743  0.2352
 5018W        W 9069   2.428   1.248   3.551 -0.5838  0.0933 -0.3716
 5019W        W 9070   0.270   5.279  10.637  0.1698  0.1128  0.1653
 5020W        W 9071   2.558   7.442   3.022  0.2671  0.1583 -0.1217
 5021W        W 9072   1.347   3.665  10.600 -0.0412  0.0805  0.0561
 5022W        W 9073   1.447   9.637   0.736  0.2168 -0.1088 -0.2675
 5023W        W 9074   0.727   9.213   3.739 -0.0267 -0.1677  0.2057
 5024W        W 9075   5.917   3.320   9.580  0.0359  0.1613  0.0189
 5025W        W 9076   4.798   6.290   0.620 -0.0972  0.0686  0.2049
 5026W        W 9077   7.868   1.778   1.183  0.2180 -0.1055 -0.0325
 5027W        W 9078   3.206   9.471   2.029 -0.2876  0.0718  0.1632
 5028W        W 9079   1.815   5.253   1.857 -0.0003  0.0198 -0.2364
 5029W        W 9080   9.369   2.871  13.399 -0.1986 -0.4348  0.5618
 5030W        W 9081   4.055   0.014   1.863  0.1209 -0.0948 -0.0549
 5031W        W 9082   1.885   6.022   0.860  0.0429  0.2567  0.0504
 5032W        W 9083   9.975   8.716   9.107  0.1128 -0.3498 -0.1003
 5033W        W 9084   5.460   9.807  10.415  0.1078 -0.2822 -0.2939
 5034W        W 9085   5.282   7.874  11.515 -0.0177  0.0820  0.0040
 5035W        W 9086   4.509   7.024   1.890 -0.0568  0.2380  0.2185
 5036W        W 9087   2.151   5.968   1.703  0.2685 -0.2360  0.0144
 5037W        W 9088  10.013   6.791   3.611  0.0832 -0.0240 -0.1130
 5038W        W 9089   4.516   4.334   1.957  0.4224  0.1532 -0.1058
 5039W        W 9090   1.647   9.918   1.971 -0.0020  0.0815  0.0808
 5040W        W 9091   4.697   4.755   0.250 -0.0780 -0.1120 -0.0779
 5041W        W 9092   3.422   4.918  10.281 -0.0404  0.1535 -0.0734
 5042W        W 9093   2.278   7.979   0.675  0.3310 -0.0590 -0.2281
 5043W        W 9094   4.473   6.996  12.819  0.0953  0.2213 -0.0714
 5044W        W 9095   5.806   0.645   0.578  0.2120  0.0072 -0.0515
 5045W        W 9096  10.009   4.280  12.336 -0.1121  0.0146  0.0187
 5046W        W 9097   1.541   6.575   3.252  0.0413 -0.0494 -0.0008
 5047W        W 9098   8.586   1.019   0.838 -0.1772  0.0006  0.1410
 5048W        W 9099   2.611   4.411   4.819 -0.0625  0.1047  0.0224
 5049W        W 9100   8.136   3.874   0.559 -0.2119 -0.0357  0.0802
 5050W        W 9101   0.078   0.307   4.906  0.1927 -0.1031  0.0439
 5051W        W 9102   6.081   7.282   0.545 -0.1066  0.1191 -0.0001
 5052W        W 9103   8.263   3.782  12.442  0.1792  0.0752  0.1019
 5053W        W 9104   9.207   2.506   5.013 -0.1309 -0.1806  0.1220
 5054W        W 9105   4.709  10.183  11.347  0.1498  0.3192  0.0587
 5055W        W 9106   5.559   7.916   4.434  0.1211  0.1037  0.2407
 5056W        W 9107  10.278   4.885   3.438  0.1577  0.0112  0.3152
 5057W        W 9108   4.309   0.697   9.238  0.2734 -0.2499  0.1229
 5058W        W 9109   0.714   8.724  13.325 -0.1417 -0.3910  0.1858
 5059W        W 9110   1.566   4.849  13.110  0.3564 -0.1646 -0.0273
 5060W        W 9111   3.391   9.799   3.219 -0.0978 -0.3053 -0.1505
 5061W        W 9112   3.976   7.473  10.318 -0.0512 -0.0562 -0.0849
 5062W        W 9113   4.835   0.335   1.041 -0.3839 -0.0386  0.0442
 5063W        W 9114   6.359   5.394   0.911 -0.1304 -0.1153 -0.1674
 5064W        W 9115   5.605   1.505   2.275 -0.2615  0.1712 -0.0485
 5065W        W 9116   7.431   7.010   1.917  0.2372 -0.1717 -0.3194
 5066W        W 9117   7.671   3.797   3.432 -0.2251 -0.0852 -0.0450
 5067W        W 9118   5.291   3.616   3.586 -0.2258 -0.0776  0.4660
 5068W        W 9119   7.780   5.181  12.720  0.1287  0.1671 -0.0534
 5069W        W 9120   3.511   9.886  10.260 -0.2124  0.0879  0.0604
 5070W        W 9121   2.785   8.242   2.871 -0.3253  0.0729  0.0947
 5071W        W 9122   7.369   9.137  13.464  0.0654 -0.5748  0.1942
 5072W        W 9123   4.746   7.030   2.774 -0.1631 -0.0423  0.2053
 5073W        W 9124   3.398   1.915   0.349 -0.0629 -0.0306 -0.2501
 5074W        W 9125   9.260   5.107  11.028 -0.0206 -0.1661  0.1245
 5075W        W 9126   9.799   4.943  10.236 -0.0368  0.3205  0.2157
 5076W        W 9127   7.051   7.845  11.169 -0.0526  0.1478  0.2156
 5077W        W 9128   0.611   9.095  11.595 -0.0558 -0.0563 -0.3777
 5078W        W 9129   5.390   4.598   1.405  0.4268  0.3759 -0.2042
 5079W        W 9130   3.784   3.901  10.378 -0.1340  0.1441  0.0865
 5080W        W 9131   9.330   4.003   4.974 -0.1415 -0.2262 -0.0669
 5081W        W 9132   2.018   2.511   3.014 -0.1128  0.2989  0.1598
 5082W        W 9133   2.633   3.598   4.250  0.2601 -0.0659  0.1990
 5083W        W 9134   1.217   4.463   2.150 -0.1815 -0.3467 -0.2264
 5084W        W 9135   4.422   6.166   1.123  0.3853  0.0900 -0.2156
 5085W        W 9136   4.544   0.908   4.224  0.0809 -0.2046 -0.4221
 5086W        W 9137  10.269   2.756  10.568  0.0477 -0.2945 -0.1261
 5087W        W 9138   2.018   9.428   0.653 -0.1615 -0.3178  0.1242
 5088W        W 9139   1.400   3.394   1.207 -0.1131 -0.2706  0.3392
 5089W        W 9140   8.688   3.620  12.231 -0.1097 -0.1901 -0.0256
 5090W        W 9141   2.678   2.291   4.926  0.1093 -0.2582 -0.1740
 5091W        W 9142   5.521   6.951   3.418  0.0343  0.1160 -0.1269
 5092W        W 9143   3.309   1.900  13.444  0.2485 -0.0546 -0.3088
 5093W        W 9144   4.780  10.103   3.604  0.0716  0.0483 -0.2153
 5094W        W 9145   2.175   1.208   1.551  0.2527  0.1058  0.0170
 5095W        W 9146   4.946   9.205  12.922 -0.1074  0.1319  0.2853
 5096W        W 9147   0.063   7.833   9.798  0.1664 -0.0975 -0.0980
 5097W        W 9148   5.676   3.399  13.268 -0.1811  0.2075 -0.0018
 5098W        W 9149   9.079   8.579   2.967 -0.0369 -0.1791  0.2525
 5099W        W 9150   5.520   2.391  12.462 -0.2040 -0.1346  0.0152
 5100W        W 9151  10.028   3.821  12.013 -0.2192 -0.2478 -0.2418
 5101W        W 9152   6.956   2.850   2.087 -0.3076 -0.1963 -0.0980
 5102W        W 9153   3.971   9.372   2.630 -0.1587 -0.0284  0.1630
 5103W        W 9154   0.214  10.111   1.397  0.0522 -0.2537 -0.1185
 5104W        W 9155   3.107   8.962   2.021  0.1980  0.0510 -0.0702
 5105W        W 9156   5.706   5.504  13.492 -0.1967  0.2754 -0.1973
 5106W        W 9157   8.973   3.979  12.144 -0.0341 -0.3385  0.0073
 5107W        W 9158   0.226   9.649   3.111 -0.1579 -0.2386 -0.3239
 5108W        W 9159   9.967   6.417   4.304  0.0450  0.0396 -0.0600
 5109W        W 9160   8.877   0.754   2.224 -0.0778 -0.0581  0.0670
 5110W        W 9161   1.773   9.686  10.645  0.2029  0.0267 -0.0730
 5111W        W 9162   1.261   7.768  13.325  0.0977 -0.4820 -0.2422
 5112W        W 9163   4.268   1.885  12.776 -0.3820 -0.2858 -0.4693
 5113W        W 9164   0.892   2.569  11.315 -0.0795 -0.1173 -0.0534
 5114W        W 9165   3.925   1.275  10.825 -0.1624 -0.0057  0.4024
 5115W        W 9166   4.235   2.116   2.785  0.1334  0.3077  0.2753
 5116W        W 9167   3.697   0.208  12.862  0.4609 -0.2130  0.3300
 5117W        W 9168   4.771   0.287   3.469  0.1388 -0.0167 -0.0794
 5118W        W 9169   7.032   2.773   4.080 -0.0416  0.2380  0.0260
 5119W        W 9170   8.348   1.683   9.461  0.0800  0.0821 -0.0577
 5120W        W 9171   7.051   1.289   3.918 -0.1410 -0.3484  0.3525
 5121W        W 9172   5.650   7.415  13.339  0.2866  0.1842  0.0632
 5122W        W 9173   8.552   7.433   4.486 -0.1486  0.1345  0.1357
 5123W        W 9174   8.857   1.088   9.854  0.3992 -0.1041 -0.4778
 5124W        W 9175   5.029   2.897   2.583 -0.3071  0.0193 -0.2424
 5125W        W 9176   4.266   9.036  11.583  0.2055  0.0734 -0.1577
 5126W        W 9177   4.892  10.056  13.501 -0.1660  0.0821 -0.0072
 5127W        W 9178   3.374   2.692   0.683  0.5193  0.0168  0.2108
 5128W        W 9179   3.906   6.803   3.185 -0.2267  0.0726  0.2210
 5129W        W 9180   5.838   6.004  13.512 -0.1138 -0.2532  0.2644
 5130W        W 9181   6.941   2.777   1.097 -0.1200 -0.3099 -0.2169
 5131W        W 9182   3.564  10.210   2.380 -0.1459  0.0199 -0.1604
 5132W        W 9183   0.143   0.645   3.726 -0.0319 -0.1384 -0.0623
 5133W        W 9184   6.455   9.427  13.069  0.0455 -0.0297  0.1313
 5134W        W 9185   1.283   8.264  10.616 -0.1950 -0.1341 -0.1147
 5135W        W 9186  10.261   5.990  13.206 -0.0562  0.5130 -0.1413
 5136W        W 9187   1.111   3.521  10.136  0.0176  0.1579  0.0164
 5137W        W 9188   9.438   7.222   2.332 -0.0677 -0.0731 -0.1907
 5138W        W 9189   8.199   7.630  11.494 -0.0060  0.0002  0.0978
 5139W        W 9190   6.340   5.744   9.813  0.0568  0.1563  0.1780
 5140W        W 9191   4.955   4.822   3.723 -0.0454 -0.0488  0.0978
 5141W        W 9192   8.702   2.280  12.563  0.2828  0.1153  0.1102
 5142W        W 9193   8.315   9.975  13.085 -0.2169  0.1389 -0.0876
 5143W        W 9194   8.130   7.115  11.632 -0.2292 -0.2163 -0.0598
 5144W        W 9195   9.555   2.941  10.263 -0.0881 -0.1930  0.0178
 5145W        W 9196   3.054   1.170   0.582 -0.1198 -0.0124  0.0253
 5146W        W 9197   1.931   2.060   0.450 -0.2709  0.1280  0.0634
 5147W        W 9198   2.445   8.673  10.407 -0.0371 -0.5223  0.0767
 5148W        W 9199   2.206   2.899  13.121 -0.1656 -0.1234  0.0049
 5149W        W 9200   3.652   8.459   0.981  0.1703  0.0750 -0.1215
 5150W        W 9201   7.903   2.997  11.247  0.1118  0.1999 -0.0155
 5151W        W 9202   5.568   7.938   1.335 -0.1009 -0.0553 -0.3844
 5152W        W 9203  10.136   5.233   1.284  0.1359  0.2071 -0.1570
 5153W        W 9204   2.331   5.761   5.139 -0.0452 -0.0031  0.0652
 5154W        W 9205   2.057   4.536   1.277 -0.1766  0.0494  0.0484
 5155W        W 9206   3.991   1.289   9.959  0.0018  0.1489  0.1387
 5156W        W 9207   8.760   6.495   1.096 -0.1426 -0.1160 -0.1046
 5157W        W 9208   2.360   3.479  11.621  0.1064  0.1904  0.0951
 5158W        W 9209   3.169   6.308  12.535  0.0106  0.1786  0.0807
 5159W        W 9210   0.435   0.966   1.814 -0.1262 -0.2998 -0.0351
 5160W        W 9211   9.709   2.492  11.600  0.2058  0.0704 -0.0059
 5161W        W 9212   4.048   7.480   2.353 -0.1925 -0.3135  0.1952
 5162W        W 9213   8.767   2.256   2.177  0.0703  0.0443  0.1927
 5163W        W 9214  10.014  10.133  11.809 -0.0420  0.0360 -0.0690
 5164W        W 9215   0.236   3.179  13.083 -0.1571 -0.0562 -0.2781
 5165W        W 9216   4.765  10.108   9.390  0.2707  0.0159 -0.0660
 5166W        W 9217   8.654   2.368  11.234 -0.1650  0.1165 -0.0608
 5167W        W 9218   5.140   8.350   1.291  0.0724 -0.2981 -0.1761
 5168W        W 9219   0.188   1.166   3.490 -0.1364 -0.0433  0.0169
 5169W        W 9220   5.975   7.748  12.524  0.0770  0.0716 -0.1006
 5170W        W 9221   4.936   1.863   5.070  0.0168 -0.0811  0.0261
 5171W        W 9222   3.210   6.708  12.917 -0.0065 -0.1155 -0.3412
 5172W        W 9223   5.253   8.703   2.235 -0.1417 -0.1144  0.4897
 5173W        W 9224   2.634   7.845   4.651  0.0167  0.0007  0.1559
 5174W        W 9225   9.468   2.879   5.300 -0.0564  0.1283 -0.1710
 5175W        W 9226   2.875   6.753   9.319  0.0440 -0.1475 -0.0642
 5176W        W 9227   8.898   2.927   3.465 -0.0728  0.1373 -0.2677
 5177W        W 9228   8.732   6.697   9.249 -0.1945 -0.2735 -0.0269
 5178W        W 9229   7.827   9.143  13.185  0.1040 -0.1305 -0.0854
 5179W        W 9230   9.180   0.222  10.936  0.0880 -0.0510  0.0536
 5180W        W 9231   3.607   9.689   3.916 -0.1861 -0.2308  0.0027
 5181W        W 9232   9.054   5.718  12.569  0.0292  0.1552  0.1782
 5182W        W 9233   3.886  10.203  12.459 -0.2049  0.2607 -0.2988
 5183W        W 9234   2.984   2.753  10.465 -0.4310  0.1183 -0.2807
 5184W        W 9235   4.968   2.664   2.180 -0.1032 -0.3177 -0.0431
 5185W        W 9236   0.663   9.284   0.335 -0.1165 -0.1560 -0.2040
 5186W        W 9237   0.904   2.240  10.191  0.1210 -0.1583  0.0242
 5187W        W 9238   9.078   1.684   0.355 -0.3385  0.1536  0.1401
 5188W        W 9239   8.744   5.375  12.814  0.3474  0.2417  0.0588
 5189W        W 9240   0.827   7.463   4.596  0.4070  0.1501 -0.2946
 5190W        W 9241   8.725   5.163   4.334 -0.1413  0.0979 -0.0992
 5191W        W 9242   6.923   8.974  10.992 -0.2376 -0.1839 -0.0340
 5192W        W 9243  10.242   7.052   0.754 -0.1969  0.0457 -0.2663
 5193W        W 9244   3.618   7.695   3.283  0.3062  0.0654  0.0062
 5194W        W 9245   3.439   8.001   1.132  0.2963  0.1714  0.0665
 5195W        W 9246   4.155   7.130   3.711 -0.3642 -0.2145 -0.1621
 5196W        W 9247   1.371   6.022  13.006  0.0305  0.2400 -0.3861
 5197W        W 9248   1.563   3.705   4.246 -0.1472  0.0818 -0.0679
 5198W        W 9249   7.650   8.003  10.283  0.3480 -0.1212 -0.1679
 5199W        W 9250   3.518   2.382   3.936 -0.0603  0.2913  0.2610
 5200W        W 9251   1.214   2.032   5.359  0.0547 -0.0510  0.1443
 5201W        W 9252   4.898   6.936  11.472  0.2650  0.0468  0.2058
 5202W        W 9253   4.585  10.284   2.425  0.3640 -0.2750  0.1123
 5203W        W 9254   2.499   7.214   3.986 -0.0788 -0.1595  0.1025
 5204W        W 9255   1.446   9.023   2.041 -0.2158  0.1224  0.4299
 5205W        W 9256   9.029   8.121  11.874 -0.1735  0.2120  0.0778
 5206W        W 9257   1.240   2.956   1.468  0.0769 -0.1415 -0.2884
 5207W        W 9258   8.950   3.570   1.821 -0.0814  0.2943 -0.0251
 5208W        W 9259   4.524   2.672   4.091  0.1066 -0.0624 -0.1299
 5209W        W 9260   7.395   7.451  13.363  0.3267 -0.0739  0.3417
 5210W        W 9261   4.220  10.067   0.492  0.2324 -0.1270  0.0749
 5211W        W 9262   0.871   7.723   0.866 -0.1736  0.1545  0.1044
 5212W        W 9263   9.349   0.844   2.071 -0.0574 -0.1154  0.4317
 5213W        W 9264   0.032  10.034   4.718 -0.1573 -0.2399  0.0527
 5214W        W 9265   5.500   2.518   4.437 -0.0454 -0.0657  0.0404
 5215W        W 9266   5.645   6.201  10.306 -0.1091  0.2996 -0.0203
 5216W        W 9267   6.138   6.523   0.082 -0.0868 -0.2022  0.0371
 5217W        W 9268   4.365   8.022   2.921 -0.1307 -0.2273 -0.2397
 5218W        W 9269   2.689   3.522  12.031  0.0043 -0.1171 -0.3689
 5219W        W 9270   3.571   3.018   1.983 -0.1342  0.0649 -0.2989
 5220W        W 9271   7.085   0.919   3.019  0.1289 -0.2938  0.3135
 5221W        W 9272   8.186   1.589   3.829  0.1582  0.0275  0.1318
 5222W        W 9273   0.928   0.982   1.508 -0.1041  0.2170 -0.1378
 5223W        W 9274   3.095   9.783   0.065 -0.0424  0.1855 -0.0345
 5224W        W 9275   8.045   1.331   2.299 -0.0554 -0.2820 -0.7543
 5225W        W 9276   5.941   7.276  12.162  0.3371  0.1586 -0.0646
 5226W        W 9277   5.850   8.556   2.576  0.1232 -0.1301  0.0139
 5227W        W 9278   3.965   8.738   1.830  0.1759  0.2142 -0.3598
 5228W        W 9279   7.425   1.221  10.061  0.1050 -0.1209  0.1972
 5229W        W 9280   2.155   3.929  11.690  0.3074  0.0192 -0.0799
 5230W        W 9281   1.644   6.154  13.471 -0.1622  0.2453  0.3432
 5231W        W 9282   6.675   0.003  12.249 -0.1013  0.3019  0.3364
 5232W        W 9283   4.602   9.061  12.388  0.0877 -0.0735 -0.1362
 5233W        W 9284   8.274   8.188   2.589 -0.0612  0.0139  0.1075
 5234W        W 9285   6.523   6.773   0.313 -0.1345 -0.0985 -0.1877
 5235W        W 9286   0.066   9.884   0.934 -0.1445 -0.0393 -0.0005
 5236W        W 9287   7.255   5.243  12.589  0.1241  0.1229 -0.1402
 5237W        W 9288   7.883  10.308   3.299  0.1488  0.0085 -0.0437
 5238W        W 9289  10.275   7.636  10.345  0.2630 -0.0243 -0.1456
 5239W        W 9290   1.716   6.277  12.229  0.1681  0.0271 -0.0225
 5240W        W 9291   1.610   6.293   2.556 -0.1269 -0.0219 -0.0201
 5241W        W 9292   1.487  10.224   4.086 -0.2083 -0.0317 -0.3072
 5242W        W 9293   6.048   9.094  13.316  0.0113  0.2682 -0.0033
 5243W        W 9294   7.876   0.550   4.025  0.2242 -0.0671  0.2465
 5244W        W 9295   5.615   7.006   0.754  0.1046 -0.1329  0.0629
 5245W        W 9296   7.519   6.071   7.980  0.0450 -0.0920  0.2402
 5246W        W 9297   7.051   6.382   3.230  0.2684  0.3143  0.0547
 5247W        W 9298   0.287   4.193   5.780  0.2397 -0.1283  0.0586
 5248W        W 9299   2.008   0.310   5.277 -0.0223  0.1480  0.3308
 5249W        W 9300   7.598   6.319   1.282  0.1052 -0.1154 -0.1610
 5250W        W 9301   9.800   3.140  13.136  0.3041 -0.1137  0.2936
 5251W        W 9302   2.086   8.631   4.757  0.0489 -0.0285  0.1710
 5252W        W 9303   8.286   0.299  10.970  0.1519  0.1461 -0.0226
 5253W        W 9304   5.089   5.196   2.170 -0.0604  0.0867  0.0690
 5254W        W 9305   0.387   8.480   0.511  0.3263  0.0516 -0.1866
 5255W        W 9306   8.259   2.298   2.181  0.1643  0.0509 -0.0583
 5256W        W 9307   3.723   3.304  10.437 -0.2443  0.0297 -0.0864
 5257W        W 9308   2.230   6.164   4.200  0.2689 -0.0792  0.0649
 5258W        W 9309   5.518   9.402  12.043  0.0860 -0.4598 -0.1311
 5259W        W 9310   7.785   7.090   3.499  0.1492 -0.0824 -0.0112
 5260W        W 9311   7.021   9.625   2.326 -0.0111 -0.0617  0.2638
 5261W        W 9312   0.649   2.726   0.446  0.0385  0.0258  0.5077
 5262W        W 9313   3.203   1.145  11.709 -0.0275 -0.2165  0.1959
 5263W        W 9314   1.466   8.803   2.565  0.2292 -0.0435  0.3585
 5264W        W 9315   4.682   5.694  10.189  0.4245 -0.3375  0.0782
 5265W        W 9316   3.689   5.296   4.976 -0.1061  0.1827 -0.1194
 5266W        W 9317   7.055   5.645  13.289 -0.0731 -0.0372 -0.2412
 5267W        W 9318   0.513   9.735   3.555 -0.1155 -0.1654  0.2645
 5268W        W 9319   9.167   0.290  11.817  0.0702 -0.0175 -0.0834
 5269W        W 9320   2.213   5.935  11.728  0.2832 -0.0578 -0.1640
 5270W        W 9321   3.775   0.849  12.127  0.2238  0.1058 -0.1774
 5271W        W 9322   7.079   4.675   6.987 -0.3368 -0.2249  0.1366
 5272W        W 9323   5.328   7.087  10.963  0.2575 -0.0944 -0.0906
 5273W        W 9324   4.259   5.909   9.298  0.0380  0.0656 -0.2244
 5274W        W 9325  10.231   9.638   9.584 -0.0220  0.1786  0.3009
 5275W        W 9326   1.053   2.820  10.301  0.0547 -0.0907 -0.2366
 5276W        W 9327   0.347   4.094   1.583  0.1918 -0.2164  0.0075
 5277W        W 9328   1.492   8.467   1.199  0.0428  0.1412 -0.3582
 5278W        W 9329   9.113   2.155  11.268 -0.0414 -0.1387 -0.2224
 5279W        W 9330   3.191   0.366  13.134 -0.2825 -0.0516 -0.0823
 5280W        W 9331   5.933   9.312   4.066  0.1878  0.1916  0.0863
 5281W        W 9332   5.722   4.036  12.324 -0.1993  0.0951  0.0925
 5282W        W 9333   3.582   5.090   0.359 -0.4071  0.0517 -0.2504
 5283W        W 9334   6.013   5.345   1.730 -0.0957  0.0561  0.0551
 5284W        W 9335   8.756   8.984   0.780 -0.2480 -0.0605 -0.2515
 5285W        W 9336   4.916   6.366  12.130  0.0147  0.0406  0.0988
 5286W        W 9337   0.818   0.971   5.472  0.0689  0.1780  0.2418
 5287W        W 9338   4.901   6.728  11.060 -0.1892  0.2131  0.3530
 5288W        W 9339   6.496   1.005  11.942 -0.0609  0.1190  0.0909
 5289W        W 9340   9.985   4.744  13.111 -0.0606  0.0852  0.0167
 5290W        W 9341   1.131  10.318   2.540 -0.1714 -0.0667  0.0058
 5291W        W 9342   2.187   3.007  10.823 -0.2198  0.3135  0.2387
 5292W        W 9343   1.542   1.497  11.417  0.3535 -0.2579  0.0167
 5293W        W 9344   2.161   9.694   1.641 -0.1983 -0.0723 -0.1861
 5294W        W 9345   0.098   3.129   1.649  0.1296 -0.0031 -0.1237
 5295W        W 9346   6.196   0.226   1.509 -0.0752  0.0393 -0.1506
 5296W        W 9347   8.644   5.989   4.274 -0.1296  0.2417 -0.2485
 5297W        W 9348   2.522   7.805   1.515  0.0431  0.0078 -0.0410
 5298W        W 9349   4.761   1.931  10.682 -0.0003 -0.3149  0.0851
 5299W        W 9350   7.423   1.623   9.777  0.0486  0.1849  0.2206
 5300W        W 9351   8.123   3.599   1.451 -0.1685 -0.0745  0.0609
 5301W        W 9352   8.474   6.285  13.153 -0.2412 -0.2056 -0.2499
 5302W        W 9353   4.394   7.542   9.669  0.1045  0.0099 -0.3421
 5303W        W 9354   2.343   8.985  10.021 -0.0404  0.1397 -0.0292
 5304W        W 9355  10.080   9.005  12.666  0.1031 -0.2091 -0.0382
 5305W        W 9356   6.927   7.062   1.765 -0.1125  0.0093 -0.0188
 5306W        W 9357   8.758   7.149   0.994  0.0043 -0.2520  0.2163
 5307W        W 9358   7.531   0.302  10.392  0.1661  0.4021 -0.1494
 5308W        W 9359   2.437   8.350   9.522  0.1161  0.0832 -0.2542
 5309W        W 9360   0.558   0.412   3.846  0.2026 -0.1321  0.1658
 5310W        W 9361   9.067   6.162   0.168  0.0114 -0.1822 -0.1604
 5311W        W 9362   7.355   9.263   2.489 -0.0572 -0.3288  0.1520
 5312W        W 9363   2.381   5.909   9.280  0.2462 -0.2455 -0.0659
 5313W        W 9364   4.035   8.506   2.805 -0.1974 -0.1028  0.1234
 5314W        W 9365   3.266   7.022   1.198  0.0672  0.0521  0.2989
 5315W        W 9366   6.897   5.890   8.836 -0.4167 -0.1381  0.0164
 5316W        W 9367   1.781   7.639   4.384 -0.0798  0.1343 -0.3223
 5317W        W 9368   6.497   5.011   3.348  0.2269 -0.0885  0.0822
 5318W        W 9369   7.256   0.787  10.293  0.0439 -0.0374  0.0082
 5319W        W 9370   8.331   4.004   1.081 -0.2289 -0.0370 -0.0300
 5320W        W 9371   4.659   9.169  11.870  0.0118 -0.0899 -0.1223
 5321W        W 9372   4.942   0.065   9.741  0.1640  0.2454 -0.6140
 5322W        W 9373   1.299   3.843   4.669 -0.5793 -0.2221 -0.3448
 5323W        W 9374   2.521   3.702  10.110 -0.0908 -0.0595 -0.0030
 5324W        W 9375   0.855  10.070   3.558 -0.0685  0.0442 -0.0465
 5325W        W 9376   7.970   2.602  12.714  0.0502  0.1835 -0.1842
 5326W        W 9377   4.387   1.074  11.314 -0.0084 -0.1276 -0.4176
 5327W        W 9378   8.474   0.399   2.088 -0.0618 -0.2397  0.1046
 5328W        W 9379   9.721   9.829   2.201  0.2590 -0.5348  0.0197
 5329W        W 9380   3.354   6.079   0.511 -0.0148  0.0336  0.2049
 5330W        W 9381   9.607   9.633   4.027  0.4088 -0.0715  0.2964
 5331W        W 9382   9.743   0.390  10.998  0.2729 -0.2358  0.2548
 5332W        W 9383   5.359   3.251  12.749  0.0326  0.0732 -0.2637
 5333W        W 9384   3.071  10.203   3.320  0.0454  0.3434  0.2717
 5334W        W 9385   7.478   3.268  11.258  0.1103  0.3050 -0.1324
 5335W        W 9386   3.530   5.854  12.233 -0.0409  0.0969 -0.1906
 5336W        W 9387   6.079   7.725   0.846  0.0079 -0.0502  0.1180
 5337W        W 9388   4.037   3.201   2.191 -0.0039 -0.2457  0.0809
 5338W        W 9389   1.578   7.238   3.788  0.2074 -0.1025 -0.1447
 5339W        W 9390   3.613   9.436  11.897 -0.0441  0.2748 -0.1745
 5340W        W 9391   2.302   1.059  13.529 -0.1285  0.3059 -0.0561
 5341W        W 9392   9.805   8.189   1.644  0.1579  0.2876  0.0453
 5342W        W 9393   1.248   6.766   1.331 -0.1293  0.0734  0.2745
 5343W        W 9394   3.995   2.864   9.054  0.0145  0.2412  0.0951
 5344W        W 9395   6.629  10.317   3.371 -0.3204  0.1384  0.1006
 5345W        W 9396   3.109   3.661  12.301 -0.1644  0.0317 -0.3624
 5346W        W 9397  10.021   5.798   4.947  0.0066 -0.3889 -0.1436
 5347W        W 9398   3.401   3.843   2.628 -0.1649 -0.1280  0.0047
 5348W        W 9399  10.274   7.514  11.791 -0.0558 -0.0539 -0.0363
 5349W        W 9400   6.805   0.405  12.500 -0.0223  0.0428 -0.0931
 5350W        W 9401   2.230   8.322   3.744 -0.0517 -0.0608 -0.2213
 5351W        W 9402   5.208   2.861   0.276 -0.1247  0.2421  0.0684
 5352W        W 9403   9.310   0.772   1.065  0.1723  0.1887  0.3751
 5353W        W 9404   7.873   4.857  11.098 -0.0292 -0.2693  0.1118
 5354W        W 9405   9.626   9.112   4.189  0.2385 -0.2454  0.0949
 5355W        W 9406   8.961   6.774   0.151  0.1940 -0.0112 -0.0798
 5356W        W 9407   4.212   6.687  13.088  0.0872 -0.1642 -0.0712
 5357W        W 9408   8.371   2.076   4.299 -0.4322 -0.0928 -0.0944
 5358W        W 9409   4.849   9.552   0.120  0.1644  0.0274  0.3635
 5359W        W 9410   9.822   0.238   5.334  0.1245  0.3009 -0.0062
 5360W        W 9411   8.837   8.915   2.668 -0.3503  0.0521 -0.0667
 5361W        W 9412   9.315   7.847  12.464  0.0317 -0.0181  0.2091
 5362W        W 9413   2.226  10.302   4.441  0.3788 -0.1876 -0.0305
 5363W        W 9414   7.388   0.190   4.548 -0.0795 -0.1539 -0.1774
 5364W        W 9415   0.508   8.872  10.378 -0.1692 -0.1107 -0.0165
 5365W        W 9416   2.051   3.659   4.073  0.0965  0.3125 -0.2050
 5366W        W 9417   3.765   5.635   0.538 -0.0148  0.1436  0.0555
 5367W        W 9418   8.173   0.632  12.506 -0.1582 -0.0565 -0.2768
 5368W        W 9419  10.085   9.245  11.890  0.0275 -0.2112  0.0377
 5369W        W 9420   7.183   7.521   1.849  0.1831  0.0158  0.0281
 5370W        W 9421   3.062   5.352  10.769 -0.1922  0.0467 -0.2190
 5371W        W 9422   6.048   4.004   0.585 -0.0074 -0.1390  0.3430
 5372W        W 9423   7.228   1.062   4.717  0.0461 -0.0331 -0.2030
 5373W        W 9424   5.613   8.911   0.362  0.2814  0.0510  0.0213
 5374W        W 9425   5.092   7.661  12.005  0.0787 -0.0309 -0.1382
 5375W        W 9426   5.703   3.862   1.491 -0.0304 -0.1176 -0.2446
 5376W        W 9427   9.170   9.041   2.263 -0.3136 -0.1831  0.0236
 5377W        W 9428   1.007   5.834   0.747 -0.0367  0.0045  0.0743
 5378W        W 9429   9.260   9.000   3.239 -0.2391 -0.1320 -0.0188
 5379W        W 9430   2.420   6.883   2.897  0.0157 -0.1061 -0.2168
 5380W        W 9431   0.416   9.238  10.767 -0.0945 -0.1788  0.0724
 5381W        W 9432   7.841   0.470   9.432  0.1643 -0.0271 -0.0852
 5382W        W 9433   7.174   4.603   9.452  0.1617  0.1294  0.0487
 5383W        W 9434   9.246   0.980   2.996 -0.0510 -0.0219 -0.1304
 5384W        W 9435   5.088   6.095  13.082  0.1637 -0.0775 -0.5047
 5385W        W 9436   5.091   2.849  10.402  0.2663  0.2343  0.2676
 5386W        W 9437   6.742   0.664  11.618 -0.0992  0.1891 -0.1848
 5387W        W 9438   9.574   6.864   3.070 -0.1900 -0.0344 -0.0728
 5388W        W 9439   3.831   9.573  10.987 -0.0227 -0.0226 -0.0854
 5389W        W 9440   9.210   2.358  11.805  0.0489  0.1560 -0.0808
 5390W        W 9441   3.139  10.141   9.983 -0.0703 -0.0292  0.2283
 5391W        W 9442   8.470   3.374   1.809 -0.0109 -0.1841 -0.0458
 5392W        W 9443   9.399   4.253  11.423 -0.2503 -0.1874  0.0297
 5393W        W 9444   5.432   5.010  11.054 -0.2073 -0.2813 -0.2597
 5394W        W 9445   5.837   7.585   9.306  0.6896  0.1094  0.1209
 5395W        W 9446   8.514   9.632  10.007  0.1983  0.5704 -0.0422
 5396W        W 9447   3.568   6.296  11.973  0.2727 -0.4397  0.3069
 5397W        W 9448   3.672   9.286   9.755 -0.1140  0.2205  0.1712
 5398W        W 9449   5.298   1.897  10.649  0.0974 -0.1595  0.3277
 5399W        W 9450   5.959   9.865  10.153  0.1139 -0.2640 -0.0654
 5400W        W 9451   2.615   1.202  13.134  0.5488  0.3425  0.1368
 5401W        W 9452   2.525   7.095  13.567 -0.0244  0.5597  0.2175
 5402W        W 9453   8.345   3.839  12.939 -0.0046 -0.1099  0.2481
 5403W        W 9454   4.310   9.176   3.643  0.4030  0.0938 -0.0556
 5404W        W 9455   9.912   3.463  12.375 -0.1309  0.1931  0.0034
 5405W        W 9456   7.270   1.995  11.989  0.2334 -0.2154 -0.2435
 5406W        W 9457   6.894   6.523  10.772 -0.2058  0.1453  0.2300
 5407W        W 9458   5.182   9.176   9.188 -0.3237 -0.0219  0.0643
 5408W        W 9459   7.053   8.648   3.416  0.2002 -0.1203  0.0791
 5409W        W 9460   3.890   2.642   5.071 -0.4113  0.0458  0.0572
 5410W        W 9461   7.000   7.757   4.455 -0.0820 -0.3217  0.0952
 5411W        W 9462  10.098   0.459   3.004  0.0558  0.1931 -0.1348
 5412W        W 9463   9.135   3.587  11.909 -0.0314 -0.1598  0.0246
 5413W        W 9464   0.280   6.205   1.082 -0.1084  0.1071 -0.0471
 5414W        W 9465   9.935   2.754   3.797  0.1022  0.2576 -0.0927
 5415W        W 9466   1.381   3.336  10.941  0.1511  0.0860 -0.0873
 5416W        W 9467   1.928   4.501  10.807 -0.1419  0.1731 -0.0141
 5417W        W 9468   4.267   1.915  11.175  0.0509  0.2205  0.0891
 5418W        W 9469   8.063   3.419   2.539  0.3584 -0.0335  0.0814
 5419W        W 9470  10.097   8.930   2.064  0.3248 -0.2419 -0.0741
 5420W        W 9471   2.139   5.104   0.114 -0.1165 -0.1174  0.1207
 5421W        W 9472   9.993   4.443   4.249  0.1248  0.3166  0.3511
 5422W        W 9473   5.096   1.055   9.522  0.2996  0.1304 -0.2726
 5423W        W 9474   1.085   6.356   3.189  0.0353 -0.0761  0.1805
 5424W        W 9475   3.911   3.885   3.862 -0.0056 -0.2005 -0.0424
 5425W        W 9476   8.269   3.152   9.661  0.0259 -0.1781  0.0423
 5426W        W 9477   1.404   4.062   2.450  0.0986 -0.2129  0.0039
 5427W        W 9478   1.791   5.843   2.170  0.1581  0.1396 -0.0391
 5428W        W 9479   1.714   7.093  11.824  0.6618  0.2850  0.1370
 5429W        W 9480   3.950   7.645   2.866  0.0397 -0.3215 -0.0060
 5430W        W 9481   5.364   5.358   3.068  0.0256  0.0448 -0.2049
 5431W        W 9482   5.331   5.916  12.685  0.1435 -0.0093 -0.4413
 5432W        W 9483   7.768   8.947  10.719 -0.2656  0.0014  0.0916
 5433W        W 9484   9.188   9.123   0.557  0.4900  0.0140 -0.0905
 5434W        W 9485   8.443  10.318   1.729  0.3157  0.0090 -0.1235
 5435W        W 9486   9.232   5.818   2.507 -0.1958 -0.0162  0.0220
 5436W        W 9487   7.786   2.109   3.378  0.0976 -0.0030  0.1453
 5437W        W 9488   0.715   8.785   0.255 -0.2280  0.1029  0.2709
 5438W        W 9489   6.850   2.432   1.480 -0.0058  0.2629 -0.1524
 5439W        W 9490   1.136   2.612   4.484 -0.5628  0.3443 -0.0580
 5440W        W 9491   8.497   3.612   2.773  0.1697  0.1740 -0.0200
 5441W        W 9492   0.868   8.156   9.670  0.0978  0.3376 -0.0228
 5442W        W 9493   3.089   2.270   1.450 -0.0737 -0.3253  0.0657
 5443W        W 9494   9.567   9.289  11.470  0.1134  0.0471 -0.2112
 5444W        W 9495   1.052   4.321   4.632  0.0126 -0.1566 -0.1026
 5445W        W 9496   8.008   9.678   2.287  0.1220  0.0135  0.1023
 5446W        W 9497   0.001   4.377   2.367 -0.0922 -0.3599  0.0852
 5447W        W 9498   2.115   4.838   1.988  0.1513  0.0393  0.0931
 5448W        W 9499   1.756   4.352   0.891  0.1228 -0.1358 -0.0485
 5449W        W 9500   7.883   6.065   2.664  0.1380 -0.0011 -0.3463
 5450W        W 9501   9.662   4.325   9.844 -0.0864  0.1550  0.0440
 5451W        W 9502   5.082   9.840   5.021 -0.2499  0.1247  0.0774
 5452W        W 9503   5.665   0.321   4.256 -0.0144  0.1924 -0.0165
 5453W        W 9504   9.512   3.592   4.456  0.1568 -0.2317 -0.2331
 5454W        W 9505   5.501   2.683  10.778 -0.1895  0.1689 -0.0373
 5455W        W 9506   6.905   7.076  10.626  0.0678 -0.5092  0.1438
 5456W        W 9507   0.068   1.495  11.778 -0.0934 -0.6457  0.2471
 5457W        W 9508   7.636   1.054   2.341  0.2471  0.0257 -0.3591
 5458W        W 9509   2.112   3.869  12.598  0.0789 -0.0263  0.0574
 5459W        W 9510   5.065   2.203  13.364  0.0991 -0.1939  0.2175
 5460W        W 9511   4.361   2.703   1.545 -0.0795 -0.0230  0.1646
 5461W        W 9512   5.480   9.257  12.991 -0.0268  0.1362 -0.0573
 5462W        W 9513   6.178   9.408  10.952 -0.1090  0.0724  0.2750
 5463W        W 9514  10.009   8.754  10.785 -0.0942 -0.0963  0.4660
 5464W        W 9515   0.193   5.549   5.935  0.0362 -0.1702  0.3159
 5465W        W 9516   5.080   3.355  10.288  0.1984 -0.1221  0.0392
 5466W        W 9517   1.491   0.013   2.213 -0.2096 -0.1684  0.1471
 5467W        W 9518   7.905   2.236  10.723 -0.0465  0.0923  0.3469
 5468W        W 9519   9.371   7.872   4.684  0.2981  0.0858 -0.1509
 5469W        W 9520  10.153   1.492  10.401  0.1268 -0.4344 -0.0437
 5470W        W 9521   1.023   5.441   3.270 -0.0139  0.2086 -0.4141
 5471W        W 9522   9.643   2.038   1.785 -0.2440 -0.2054  0.0151
 5472W        W 9523   3.211   9.590   9.980  0.0663  0.2687  0.0924
 5473W        W 9524   1.691   6.355  10.252 -0.2368 -0.1330  0.0923
 5474W        W 9525   1.269   7.876   9.853  0.0140  0.4839  0.3721
 5475W        W 9526   6.224  10.101   2.183  0.2197  0.0566  0.1549
 5476W        W 9527   4.638   5.644   3.202 -0.0353 -0.1903  0.2065
 5477W        W 9528   1.928   2.626   2.441 -0.1472 -0.0795 -0.0181
 5478W        W 9529   8.484   5.202  12.186  0.0732  0.0255 -0.2952
 5479W        W 9530   3.789  10.145   3.114 -0.2861 -0.0676 -0.2204
 5480W        W 9531   5.730   9.325   0.591  0.0690 -0.2919  0.2001
 5481W        W 9532   8.540   8.444   3.810 -0.0362  0.0328 -0.0204
 5482W        W 9533   2.121   5.512   4.710 -0.1519  0.4545  0.3631
 5483W        W 9534   6.721   6.624  11.766  0.0647  0.0960 -0.0927
 5484W        W 9535   3.559   4.266   1.244 -0.3622  0.2082 -0.2509
 5485W        W 9536   7.020   6.207   1.768 -0.1793 -0.0411  0.2283
 5486W        W 9537   7.522   2.691  11.261  0.0364 -0.1828  0.1364
 5487W        W 9538   9.189   6.233   1.662  0.3066 -0.3271 -0.0150
 5488W        W 9539   2.550   1.844  10.540  0.2850 -0.0418  0.3185
 5489W        W 9540   8.391   2.012  10.946  0.1409  0.0731 -0.0778
 5490W        W 9541   4.805   3.874   3.525  0.1679  0.0285 -0.1911
 5491W        W 9542   6.218   8.515   0.405 -0.0494 -0.0951 -0.2472
 5492W        W 9543   7.270   8.060  11.580 -0.2207 -0.1431 -0.2973
 5493W        W 9544   7.833   3.145   4.555 -0.0729 -0.1010 -0.2848
 5494W        W 9545   1.455   7.850  10.371  0.1143 -0.0159  0.1439
 5495W        W 9546   9.985   9.046  11.356 -0.2277  0.1166  0.2113
 5496W        W 9547   8.493   8.937   3.686  0.1199 -0.2574 -0.2721
 5497W        W 9548   7.735   4.904   3.482  0.1192  0.0084 -0.1464
 5498W        W 9549   2.106   3.508   5.226  0.0946 -0.1497 -0.1775
 5499W        W 9550   4.802   7.613  13.436 -0.0793  0.0767  0.4935
 5500W        W 9551   4.560   7.089   0.104 -0.0591 -0.0124  0.0231
 5501W        W 9552   8.319   8.800   0.723  0.3239  0.0834 -0.4280
 5502W        W 9553   0.895   9.469   2.362  0.0014 -0.0934 -0.1298
 5503W        W 9554   8.128   1.088   3.829 -0.1035  0.0892 -0.1678
 5504W        W 9555   0.459   6.702   0.883 -0.1876 -0.1315  0.0289
 5505W        W 9556   7.850   3.090   1.066 -0.1339 -0.1738  0.2747
 5506W        W 9557   5.828   4.696   1.664  0.2525  0.1902  0.4748
 5507W        W 9558   6.041   2.643   0.775 -0.0763  0.0445 -0.0648
 5508W        W 9559   3.709   3.631  12.465  0.1333 -0.3805 -0.1715
 5509W        W 9560   0.887   3.374   9.133  0.1108  0.0006 -0.1514
 5510W        W 9561   4.583   4.332   0.030  0.2733  0.1580  0.4615
 5511W        W 9562   7.089  10.234   1.643  0.1703  0.2257  0.0529
 5512W        W 9563   3.298   7.012   1.743  0.0842  0.1151  0.3587
 5513W        W 9564   9.092   7.150   8.803  0.1217 -0.1517 -0.1546
 5514W        W 9565   0.799   0.285   3.431  0.1031  0.2675 -0.1151
 5515W        W 9566   3.348   1.422  10.192  0.0616 -0.0850  0.1671
 5516W        W 9567   1.612   1.814   9.675 -0.5854 -0.0854  0.0313
 5517W        W 9568   0.456   5.651   1.618  0.1645 -0.1695  0.0994
 5518W        W 9569   3.761   1.945   2.995  0.0797  0.0460 -0.0270
 5519W        W 9570   2.625   4.250  12.645 -0.1835 -0.2446 -0.2006
 5520W        W 9571   2.791   9.404   0.165 -0.1953 -0.2399 -0.1390
 5521W        W 9572   1.231   1.604   2.585  0.0233  0.2388  0.4500
 5522W        W 9573   4.098   6.084  10.315  0.0146  0.2373 -0.2471
 5523W        W 9574   7.761   5.683  11.331  0.1888 -0.1461  0.0491
 5524W        W 9575   0.067   8.338  10.886  0.2179  0.2520 -0.1982
 5525W        W 9576   3.549  10.137   3.557  0.7269  0.0175 -0.3229
 5526W        W 9577   0.512   8.886   4.106  0.1666  0.1623 -0.0770
 5527W        W 9578   9.499   0.111   5.771  0.0537 -0.1539  0.2732
 5528W        W 9579   2.471   1.815   2.065  0.0808  0.1224  0.0118
 5529W        W 9580   0.775   5.351   0.837 -0.2056  0.1353 -0.2724
 5530W        W 9581   4.018   8.523   4.221 -0.2543  0.2078 -0.3512
 5531W        W 9582   2.347   7.926   2.704 -0.0700 -0.2988  0.3716
 5532W        W 9583   7.065   2.083  11.537 -0.3223  0.1264  0.2318
 5533W        W 9584   3.834   1.785   9.479  0.1312 -0.1321  0.1518
 5534W        W 9585  10.272   5.579   9.739  0.1835  0.0096  0.1446
 5535W        W 9586   4.949   2.663  10.929  0.1121  0.2504 -0.1694
 5536W        W 9587   9.026   1.387  13.435  0.1115 -0.4289 -0.1401
 5537W        W 9588   9.149   8.137  13.075  0.0558 -0.2074  0.0162
 5538W        W 9589   1.526   3.947   9.630 -0.0560 -0.0202  0.1202
 5539W        W 9590   5.781   0.722  10.102 -0.1814 -0.0500  0.0984
 5540W        W 9591   8.694   6.568  12.241 -0.0555 -0.0679 -0.1908
 5541W        W 9592   4.930   6.735   4.189 -0.1446 -0.0040  0.0882
 5542W        W 9593   6.839   8.580  12.104  0.1309  0.1065 -0.1955
 5543W        W 9594   5.645   9.838  12.394  0.0403  0.0051 -0.0553
 5544W        W 9595   9.210   6.133   1.100 -0.1229 -0.3601 -0.0875
 5545W        W 9596   9.287   2.544  10.379  0.1361  0.5045 -0.0127
 5546W        W 9597  10.253   6.855   4.569 -0.3324  0.2876 -0.1662
 5547W        W 9598   7.604   6.412   2.434  0.1553 -0.2782  0.2602
 5548W        W 9599   1.962   1.995   1.319 -0.1963  0.1535  0.3098
 5549W        W 9600   0.793   3.092   3.156  0.1618 -0.1406 -0.2614
 5550W        W 9601   2.153   7.762   3.142 -0.1271  0.1321  0.1156
 5551W        W 9602   8.375  10.232   2.208  0.0469  0.3106  0.1413
 5552W        W 9603   9.231   9.418   1.878  0.2995 -0.1277  0.1547
 5553W        W 9604   5.712   8.416   0.266  0.2159  0.2215  0.0400
 5554W        W 9605   9.938   2.843  11.269 -0.1583 -0.0223  0.0782
 5555W        W 9606   7.640   1.662  13.368  0.0461  0.1154 -0.1625
 5556W        W 9607   4.427   2.175   1.250  0.2601  0.0872 -0.2564
 5557W        W 9608   2.417   3.147   4.351 -0.1225 -0.1925  0.0397
 5558W        W 9609   9.447   5.646   0.043  0.0410  0.2289  0.2494
 5559W        W 9610   0.168   8.424   3.318 -0.4697 -0.2683 -0.0409
 5560W        W 9611   1.104   0.939  12.184  0.0908 -0.0862 -0.0946
 5561W        W 9612   6.572   1.239   9.581  0.1948  0.0296  0.2236
 5562W        W 9613   7.738   2.044  12.906  0.1654 -0.0803 -0.1608
 5563W        W 9614   8.635   1.901   3.836 -0.0364  0.2897 -0.0083
 5564W        W 9615   4.559   4.684   1.405 -0.1377 -0.3468  0.1896
 5565W        W 9616   9.809   5.258   3.663  0.1933 -0.0905 -0.1516
 5566W        W 9617   2.348   9.257  11.087  0.1902 -0.1785  0.0750
 5567W        W 9618   6.691   7.643  10.631 -0.0429 -0.1711  0.1028
 5568W        W 9619   4.998   8.719   3.311  0.1077 -0.0323 -0.0583
 5569W        W 9620   4.206   4.797   0.108  0.1923 -0.0156 -0.3260
 5570W        W 9621   2.318   8.748  11.743 -0.0484 -0.3384 -0.0473
 5571W        W 9622   3.296   9.531  10.991 -0.0089 -0.1126  0.0102
 5572W        W 9623   9.074   1.502  12.006  0.0411 -0.1699  0.0863
 5573W        W 9624   0.486   2.116  11.925  0.2154  0.2496 -0.1718
 5574W        W 9625   7.199   5.579  10.756 -0.0731 -0.3639 -0.0583
 5575W        W 9626   4.591   5.250   9.998 -0.0542 -0.1814  0.0917
 5576W        W 9627   9.299   4.813  12.424 -0.0098 -0.1889  0.0416
 5577W        W 9628   3.088   0.079  13.517 -0.1526 -0.0378 -0.2275
 5578W        W 9629   5.011   0.224   0.048 -0.2206 -0.0706 -0.1066
 5579W        W 9630   7.750   0.884   5.015 -0.2168 -0.1338  0.1411
 5580W        W 9631   4.284   8.821   9.934  0.0272  0.0987 -0.1376
 5581W        W 9632   5.943   4.221   1.745  0.0522 -0.2085  0.0098
 5582W        W 9633   1.940   4.043   9.913  0.2357  0.1230  0.1449
 5583W        W 9634   9.425   4.004  12.974 -0.3031 -0.1079 -0.1080
 5584W        W 9635   2.322   5.696   2.042  0.2144 -0.2351 -0.1099
 5585W        W 9636   1.509   8.741   0.700  0.3159 -0.0204 -0.1651
 5586W        W 9637   8.911   5.952  11.592 -0.2727  0.1589  0.1833
 5587W        W 9638   3.631   0.069   4.434  0.0734 -0.1699 -0.1783
 5588W        W 9639   7.678   2.995  12.517 -0.1975  0.0082 -0.0039
 5589W        W 9640   0.239   3.979   2.212 -0.0353 -0.1172  0.0114
 5590W        W 9641   8.602   4.557  11.125 -0.0915  0.0039 -0.0036
 5591W        W 9642   6.007   9.828   0.864  0.0141  0.0197 -0.2738
 5592W        W 9643   9.350   4.135  13.494  0.2932 -0.2335 -0.2408
 5593W        W 9644   9.663   1.744  10.164  0.0556  0.0075  0.3122
 5594W        W 9645   4.542   2.801   9.001  0.0319 -0.3695 -0.0825
 5595W        W 9646   5.092   5.788   3.093 -0.1267  0.0289  0.1147
 5596W        W 9647   5.869   7.157   1.289 -0.3211  0.3303 -0.1513
 5597W        W 9648   2.058   7.437   0.799  0.2383 -0.1982 -0.0222
 5598W        W 9649  10.082   4.872  11.905 -0.0466 -0.2833 -0.0172
 5599W        W 9650   8.270   0.982   3.091  0.0744 -0.5948 -0.3088
 5600W        W 9651   2.585   6.116  11.253  0.0374  0.2784  0.2493
 5601W        W 9652   1.730   3.521  13.412 -0.0661  0.1282  0.0375
 5602W        W 9653   9.121   5.232  13.220 -0.1847 -0.3315  0.0623
 5603W        W 9654   6.718   0.576   2.680  0.1225  0.3912 -0.0018
 5604W        W 9655   3.345   6.431   1.469 -0.3090 -0.4407  0.1564
 5605W        W 9656   8.724   0.350   3.402 -0.1952  0.0630  0.0604
 5606W        W 9657   8.605   9.417  10.461 -0.0779 -0.2961  0.0172
 5607W        W 9658   3.560   0.939   2.145 -0.3840  0.1206  0.2764
 5608W        W 9659   5.987   2.677   0.253  0.0503 -0.3577  0.1385
 5609W        W 9660   3.706   7.184  10.561 -0.2917 -0.0441 -0.0596
 5610W        W 9661   3.346   5.087   4.528 -0.0772 -0.0774 -0.0818
 5611W        W 9662   3.668   2.674   9.823  0.2329 -0.2141 -0.0852
 5612W        W 9663   2.140   6.191   2.259  0.0749  0.0355  0.1887
 5613W        W 9664  10.275   2.633   3.367 -0.1555  0.0214  0.2277
 5614W        W 9665   9.838   8.211   2.776  0.0662  0.1967  0.0607
 5615W        W 9666   2.574   1.876   3.764 -0.0911 -0.1270  0.0439
 5616W        W 9667   5.243   1.601   4.296  0.0227  0.0731 -0.0018
 5617W        W 9668   4.142   1.762   2.416 -0.0038 -0.0066 -0.1229
 5618W        W 9669   6.554   4.849  10.157  0.1295  0.1954 -0.3753
 5619W        W 9670   6.403   6.890  12.352  0.0591  0.2651 -0.1379
 5620W        W 9671   1.111   8.314  13.084 -0.1591  0.0597  0.0571
 5621W        W 9672   6.053   8.189   1.088 -0.0287  0.1440  0.0430
 5622W        W 9673   8.140   2.258   9.985 -0.1435 -0.0625  0.0296
 5623W        W 9674   7.954   2.956   3.555 -0.0467  0.1761 -0.0182
 5624W        W 9675   5.206   4.185   9.584  0.4188  0.0878 -0.2331
 5625W        W 9676   6.032   7.246   2.958 -0.1922 -0.3395 -0.0398
 5626W        W 9677   7.133   6.393  10.276 -0.0540  0.0060  0.0057
 5627W        W 9678   5.330   5.742  11.709  0.1494 -0.3000  0.0019
 5628W        W 9679   3.036   5.759   2.245 -0.0736  0.0201 -0.2136
 5629W        W 9680   1.264   8.504  11.635 -0.1483 -0.1204  0.0569
 5630W        W 9681   4.006   5.584  11.574 -0.2071  0.1401 -0.1328
 5631W        W 9682   1.746   3.203  13.006  0.1491 -0.2786 -0.0053
 5632W        W 9683   8.081  10.005  12.225 -0.1395 -0.1653  0.1030
 5633W        W 9684   5.632   3.114   1.473 -0.0788 -0.0797  0.0680
 5634W        W 9685   3.252   8.503   3.040 -0.1106  0.0246 -0.0632
 5635W        W 9686   1.109   5.810   1.654 -0.0879 -0.0159 -0.0284
 5636W        W 9687   7.993   6.224  12.610  0.1259  0.2347 -0.2589
 5637W        W 9688   6.583   5.277   3.971 -0.1707  0.1866  0.2992
 5638W        W 9689   7.696   2.730   4.217  0.0258  0.0630 -0.2182
 5639W        W 9690   8.611   9.340   4.007 -0.2103  0.0746  0.1532
 5640W        W 9691   4.409   5.250   3.338 -0.2453  0.4191 -0.2349
 5641W        W 9692   1.980   7.945   2.347  0.1280  0.2205  0.2826
 5642W        W 9693  10.073   9.407   2.214 -0.0139 -0.3767 -0.0318
 5643W        W 9694   3.769   3.541   4.751  0.1258  0.2601 -0.0865
 5644W        W 9695   4.023   1.322  12.126  0.1480 -0.3012  0.1297
 5645W        W 9696   7.691   1.842   4.969  0.0415 -0.2699 -0.0632
 5646W        W 9697   3.759   1.204  12.948  0.1644 -0.0768  0.2036
 5647W        W 9698  10.020   4.491   3.293  0.0366  0.1047  0.3092
 5648W        W 9699   3.036   0.708  12.612 -0.0101  0.1838  0.1087
 5649W        W 9700   0.871   2.752   5.102 -0.2084  0.3713 -0.2908
 5650W        W 9701   2.166   3.379   0.745  0.1249  0.1121  0.0138
 5651W        W 9702   1.227   3.369   3.451 -0.0548  0.0795  0.0443
 5652W        W 9703   7.724   4.687   9.643  0.1730 -0.2732 -0.1187
 5653W        W 9704   2.194   7.486  13.363  0.0235  0.1127  0.2194
 5654W        W 9705   3.099   4.521  10.316 -0.1830  0.1303 -0.3252
 5655W        W 9706   1.642   7.270   4.684 -0.0196 -0.4312  0.0820
 5656W        W 9707   7.230   2.884   3.161 -0.2586  0.2148  0.2519
 5657W        W 9708   4.108   6.466  13.559  0.1115 -0.2794  0.3975
 5658W        W 9709   4.758   0.663   4.618 -0.2587  0.2769 -0.0717
 5659W        W 9710   5.497   0.291  13.434 -0.0515  0.0347  0.1617
 5660W        W 9711   9.228   0.181  13.409 -0.3646  0.0867  0.1617
 5661W        W 9712   9.446   0.122  12.202 -0.0891  0.4163  0.2096
 5662W        W 9713   9.251   3.325   4.055  0.3181 -0.1217  0.0217
 5663W        W 9714   4.266   2.037   9.312  0.1276  0.0827 -0.3493
 5664W        W 9715   2.959   8.641   1.676  0.2506 -0.1145  0.1768
 5665W        W 9716   0.844   7.918   4.762 -0.3865 -0.2007 -0.1587
 5666W        W 9717   7.365   5.844   1.408 -0.0110  0.1408 -0.1021
 5667W        W 9718   5.676   1.806   1.426 -0.2605 -0.0249 -0.0913
 5668W        W 9719   0.005   5.636  12.718  0.3248 -0.0265  0.1198
 5669W        W 9720   1.914   1.454   3.174 -0.0885 -0.1107  0.0724
 5670W        W 9721   4.418   9.906   0.067  0.1335  0.1293  0.3076
 5671W        W 9722   9.151   4.425  12.804  0.3360 -0.0684  0.2684
 5672W        W 9723   3.559   5.351  10.934 -0.0056  0.0240  0.0439
 5673W        W 9724   0.711   0.519   0.063  0.0858 -0.2214 -0.2408
 5674W        W 9725   0.052   3.246  12.602  0.1553 -0.3777 -0.0141
 5675W        W 9726   4.085   0.443  13.064 -0.1920 -0.1098  0.1427
 5676W        W 9727   7.204   8.319   9.160  0.3281 -0.1107  0.2771
 5677W        W 9728   9.920   4.751   9.731 -0.0848  0.1144  0.0925
 5678W        W 9729   1.323   2.415   3.748  0.1126 -0.1880 -0.1478
 5679W        W 9730   4.461   1.056   0.770  0.0436 -0.2799 -0.4963
 5680W        W 9731   6.690   0.987   3.851  0.0482 -0.1746  0.0240
 5681W        W 9732   3.344   8.889  12.606  0.1051 -0.0083  0.1292
 5682W        W 9733   9.718   9.574   5.338 -0.0599  0.2201  0.4607
 5683W        W 9734   2.341   0.751   0.802  0.1598  0.0374  0.0705
 5684W        W 9735   0.565   3.778   2.560  0.0068 -0.1368  0.1289
 5685W        W 9736   8.185   5.486   9.624  0.0115  0.0491  0.0734
 5686W        W 9737   3.207   7.764   0.787 -0.1527  0.0250  0.2576
 5687W        W 9738   7.679   2.210   1.472 -0.3408  0.1955 -0.0292
 5688W        W 9739   1.278   6.096  10.381 -0.0908 -0.1071 -0.0477
 5689W        W 9740   8.978   9.204  10.071 -0.0008 -0.1294  0.0355
 5690W        W 9741   2.437   4.583   4.316  0.1295 -0.3155 -0.0653
 5691W        W 9742   3.989   2.180  11.596 -0.1899  0.2557  0.0431
 5692W        W 9743   7.651   6.779   1.017 -0.1823  0.0457  0.0014
 5693W        W 9744   3.295   3.817   1.183 -0.0840  0.1452 -0.1301
 5694W        W 9745   2.705   0.246   4.619 -0.0039 -0.1643  0.0273
 5695W        W 9746   1.558   8.926  13.575  0.2856  0.1289 -0.0795
 5696W        W 9747   2.109   9.252  12.182 -0.1881  0.0316 -0.0257
 5697W        W 9748   9.845   6.955   9.903  0.0824  0.0256 -0.2433
 5698W        W 9749   3.271   0.597   1.679  0.0426  0.0678  0.1146
 5699W        W 9750   6.569   8.834   0.266  0.0126 -0.0290 -0.3016
 5700W        W 9751   1.783   8.861  12.675  0.0281 -0.0252  0.0421
 5701W        W 9752   6.426   5.891   9.152 -0.1283  0.0535  0.0094
 5702W        W 9753   8.882   6.475  13.342  0.2992 -0.1188 -0.0911
 5703W        W 9754   3.945   5.283   2.718  0.2818  0.0633  0.1984
 5704W        W 9755   9.256   1.744   0.918 -0.4376  0.2057  0.2651
 5705W        W 9756   2.319   9.075  12.680  0.0980  0.0442  0.2040
 5706W        W 9757   3.985   0.490  11.898  0.1743  0.0797 -0.0192
 5707W        W 9758   3.816   0.804   9.859  0.0446  0.1202 -0.1608
 5708W        W 9759   3.191   3.653   5.705  0.2275 -0.1453 -0.1432
 5709W        W 9760   0.248   5.472   0.446  0.1096  0.0104  0.1499
 5710W        W 9761   7.438   9.309   5.191  0.2795 -0.1558 -0.1365
 5711W        W 9762   1.539   4.674   5.359 -0.0224 -0.0747 -0.2236
 5712W        W 9763   3.883  10.198   0.872  0.2480 -0.0562 -0.0458
 5713W        W 9764   5.708   2.950  12.554  0.2106  0.0701  0.1201
 5714W        W 9765   0.956   3.724  12.736  0.1140  0.0105 -0.1001
 5715W        W 9766   3.679   7.683  13.321  0.1572 -0.1032 -0.1151
 5716W        W 9767   4.804   5.475  11.862  0.1143 -0.2236  0.1051
 5717W        W 9768   6.759   7.104   0.705 -0.2938 -0.0540  0.1176
 5718W        W 9769   4.315   0.105   1.148  0.1666  0.1411  0.2151
 5719W        W 9770   0.669   0.909   4.460 -0.0889 -0.1638 -0.3133
 5720W        W 9771   9.668   5.993   1.265  0.1192 -0.1507  0.0524
 5721W        W 9772   1.196   8.933   0.372 -0.1391 -0.3094 -0.2515
 5722W        W 9773   9.595   6.021   4.000  0.0388 -0.1534 -0.3511
 5723W        W 9774   8.191   1.075   1.847  0.1815  0.0839  0.2738
 5724W        W 9775   6.619   8.481   4.309  0.1339  0.0918  0.0855
 5725W        W 9776   0.838   5.193  12.612  0.1988  0.1338 -0.0033
 5726W        W 9777   3.393   6.490  13.528  0.0015  0.1987 -0.0284
 5727W        W 9778   3.388   1.670   8.724 -0.0093 -0.1507  0.1110
 5728W        W 9779   8.182   3.170   2.158 -0.0202 -0.2513  0.4702
 5729W        W 9780   5.965   3.010  10.401 -0.0036 -0.0178  0.0831
 5730W        W 9781   8.934   1.644   3.467 -0.1926 -0.2091 -0.2255
 5731W        W 9782   0.631   4.677   3.759  0.0790 -0.0155 -0.0465
 5732W        W 9783   7.747   6.306  13.448  0.2052  0.0073  0.1338
 5733W        W 9784   3.985   2.428  12.342 -0.0797 -0.1951 -0.2514
 5734W        W 9785   0.267   7.761   4.406  0.0462 -0.1677 -0.1247
 5735W        W 9786   2.188   6.173   3.224 -0.1335  0.0548  0.0747
 5736W        W 9787   6.704   4.710   0.431  0.4150  0.1709 -0.5549
 5737W        W 9788   9.811   0.614   1.899 -0.0552  0.0566  0.1567
 5738W        W 9789   7.717   4.824   0.673  0.2251  0.0765 -0.2377
 5739W        W 9790   9.531   8.783   0.407 -0.1587 -0.0196  0.3189
 5740W        W 9791   0.287   1.888   5.443  0.0469 -0.1921 -0.4702
 5741W        W 9792   8.218   9.661   5.042 -0.0307  0.2051  0.3706
 5742W        W 9793   8.053   2.428   9.517  0.3034  0.0192  0.0561
 5743W        W 9794   1.905   8.158   2.976 -0.0774 -0.1044  0.0694
 5744W        W 9795   2.882   7.469   4.333  0.0181 -0.1438  0.0690
 5745W        W 9796   2.901   1.873  12.469 -0.1816  0.0658 -0.1308
 5746W        W 9797   3.101   8.678  11.260 -0.0608  0.1502  0.0794
 5747W        W 9798   0.200   0.726  12.441 -0.3548  0.3770  0.1450
 5748W        W 9799   0.771   0.689   9.819 -0.0406  0.0935 -0.0349
 5749W        W 9800   6.190   4.777  12.400 -0.4084 -0.1331  0.1042
 5750W        W 9801   9.955   1.545   4.233 -0.1171 -0.1195  0.3468
 5751W        W 9802   2.281   8.415   2.230  0.4699 -0.0329  0.3006
 5752W        W 9803   0.752   3.565  10.878  0.1669 -0.0893 -0.0621
 5753W        W 9804   3.659   2.984   3.739  0.1505  0.0307 -0.2102
 5754W        W 9805   1.570  10.135   1.487  0.0320 -0.0438  0.0397
 5755W        W 9806   7.907   9.107   0.186  0.2241 -0.3228  0.0342
 5756W        W 9807   2.489   3.634   0.010 -0.1269  0.1223  0.2007
 5757W        W 9808   0.713   1.630  10.961  0.0710 -0.3795 -0.0041
 5758W        W 9809   4.243   4.650  11.913  0.1246 -0.0057  0.1263
 5759W        W 9810   2.423   0.104  11.005  0.0476  0.1646  0.2128
 5760W        W 9811   9.270   9.256  10.916 -0.1403  0.1011 -0.0083
 5761W        W 9812   2.738   5.857  11.702 -0.0270 -0.3433  0.0456
 5762W        W 9813   9.104   5.972   3.104 -0.4486  0.2282 -0.0600
 5763W        W 9814   9.269  10.210   2.266  0.1409 -0.0136 -0.1721
 5764W        W 9815   2.845   0.980  13.495  0.2758  0.4318  0.2105
 5765W        W 9816   6.799   1.836   2.065 -0.1943 -0.3040  0.2367
 5766W        W 9817   5.367   2.557  13.379 -0.0272  0.1412  0.3846
 5767W        W 9818   0.466   1.540   1.692  0.0149  0.3153 -0.1389
 5768W        W 9819   6.952   5.330   1.630 -0.1165  0.0025 -0.2205
 5769W        W 9820   2.710   6.094   9.617 -0.0277  0.0266  0.4432
 5770W        W 9821   0.577   7.419   2.129  0.1634 -0.0152  0.3526
 5771W        W 9822   8.691   4.083  12.632  0.1852  0.3205  0.0491
 5772W        W 9823   0.155   3.549   2.395  0.1282  0.2636  0.0648
 5773W        W 9824   5.086   2.741   3.091  0.2296 -0.1192  0.1573
 5774W        W 9825   0.258   5.367  11.278 -0.3468  0.1073  0.2865
 5775W        W 9826   3.718   2.366   0.550  0.0217 -0.3084 -0.2201
 5776W        W 9827   1.846   5.647   2.985  0.1965  0.0103 -0.0825
 5777W        W 9828   6.480   9.346   9.799 -0.1881  0.1980 -0.1692
 5778W        W 9829   5.049   2.336  12.521  0.1327 -0.1704 -0.3517
 5779W        W 9830   8.413   6.516   4.107  0.0378 -0.1933  0.3230
 5780W        W 9831   9.487   8.877   1.411  0.0961  0.1805  0.1631
 5781W        W 9832   3.753   3.142  12.739 -0.3253  0.0941 -0.1912
 5782W        W 9833   6.926   7.520   3.235 -0.1529  0.0600  0.0883
 5783W        W 9834   9.022   3.664   0.902 -0.2713  0.0891 -0.0475
 5784W        W 9835   0.985   8.042  11.069  0.2596  0.2933  0.1830
 5785W        W 9836   2.869   0.785   0.915 -0.0652  0.3212  0.1748
 5786W        W 9837   9.174   0.380   2.226 -0.1136 -0.1626  0.1469
 5787W        W 9838   9.559   4.510   1.759  0.1854 -0.1196 -0.0515
 5788W        W 9839   0.197   7.400   4.101 -0.0559  0.1288  0.2535
 5789W        W 9840   1.823   6.965   0.581 -0.0309  0.1504  0.2744
 5790W        W 9841   6.222   4.650   1.377 -0.3397 -0.3037 -0.0240
 5791W        W 9842   2.142   6.925  12.187  0.1727  0.1019  0.5213
 5792W        W 9843   0.969   2.951   0.014 -0.0352 -0.0725  0.0118
 5793W        W 9844   6.841   5.378   3.501 -0.0110  0.1762  0.0231
 5794W        W 9845   0.253   2.155   1.887  0.0895 -0.1534  0.0150
 5795W        W 9846   4.543   5.524  11.429 -0.0350  0.1169 -0.1311
 5796W        W 9847   2.756   2.187   0.736  0.5716 -0.0829 -0.5650
 5797W        W 9848   5.028   4.221   2.122  0.0775  0.0938 -0.2952
 5798W        W 9849   9.174   8.011   2.447  0.1167 -0.1676  0.1799
 5799W        W 9850   2.146   2.212   4.902 -0.1284 -0.3720  0.1973
 5800W        W 9851   7.340   5.758   9.519 -0.0096 -0.2966  0.1104
 5801W        W 9852   3.201   3.230  10.576  0.0437 -0.0047  0.2180
 5802W        W 9853   0.245   6.978   2.898  0.2670  0.0655 -0.2452
 5803W        W 9854   4.714   5.239  13.236 -0.2726 -0.0459  0.1593
 5804W        W 9855  10.270   2.791   4.614  0.0642 -0.1395 -0.1716
 5805W        W 9856   4.111   0.465   3.711 -0.3197 -0.2497  0.1413
 5806W        W 9857   4.499   2.284  10.840  0.0881 -0.0983  0.1806
 5807W        W 9858   7.101  10.145   0.740  0.0395 -0.1030 -0.1895
 5808W        W 9859   7.709   8.165  12.143 -0.1785  0.0996  0.1600
 5809W        W 9860   1.089   2.558   9.891  0.0041 -0.1770 -0.2846
 5810W        W 9861   8.328   5.951  10.468  0.0425  0.0638 -0.0482
 5811W        W 9862   6.137   3.771  10.308  0.1446  0.2334  0.0597
 5812W        W 9863   9.512   8.737  10.614 -0.2272 -0.2379  0.1644
 5813W        W 9864   0.559   0.146   1.910  0.3983 -0.1264  0.3431
 5814W        W 9865   2.070   3.516   9.787  0.1677  0.2192  0.0232
 5815W        W 9866   4.127  10.309  13.152  0.0092 -0.3532  0.1137
 5816W        W 9867   0.128   6.604   8.806 -0.0997 -0.0184 -0.0764
 5817W        W 9868   5.146   2.013   9.692  0.3680 -0.0859 -0.2898
 5818W        W 9869   7.220   4.030   0.328 -0.1086 -0.0328  0.0521
 5819W        W 9870   5.330   3.029  11.568  0.0446 -0.1940  0.3031
 5820W        W 9871   3.201   5.726  11.216 -0.1529 -0.0907  0.1263
 5821W        W 9872   5.576   3.525   3.050 -0.0066  0.0575 -0.1998
 5822W        W 9873   3.661   4.060  10.869  0.0234  0.1456  0.0735
 5823W        W 9874   9.074   1.920   2.589  0.0555  0.0823 -0.2139
 5824W        W 9875   4.223   2.303   2.305  0.0573  0.1595 -0.1270
 5825W        W 9876   9.073   2.056   3.713  0.2090 -0.0076 -0.1608
 5826W        W 9877   8.455   3.582   3.295  0.0670  0.0647  0.1810
 5827W        W 9878   0.293   2.961   9.860 -0.2527  0.3873 -0.1904
 5828W        W 9879   5.784   2.139  12.139 -0.5133  0.0709 -0.0548
 5829W        W 9880   6.832   0.070   9.135 -0.1007  0.2164  0.1425
 5830W        W 9881   7.831   3.667   4.712  0.1441 -0.3857  0.3055
 5831W        W 9882   6.930   0.881  12.291 -0.1231  0.0958 -0.3446
 5832W        W 9883   4.008   1.056   3.018  0.1932 -0.1578  0.1202
 5833W        W 9884   4.533   8.088   0.551 -0.1016  0.2481  0.1013
 5834W        W 9885   9.894   0.115  10.109 -0.0103  0.0554  0.1697
 5835W        W 9886   7.479   9.929   9.428  0.2508 -0.1000 -0.0362
 5836W        W 9887   8.675   3.338  10.270  0.2595 -0.2427  0.2070
 5837W        W 9888   1.860   5.685  13.365 -0.1262  0.2840  0.3479
 5838W        W 9889   7.224   4.249   0.820 -0.0846  0.0132 -0.1557
 5839W        W 9890   6.301   3.218   2.610 -0.0104 -0.2933  0.0502
 5840W        W 9891   0.124   7.264   5.011  0.1083 -0.2410  0.0524
 5841W        W 9892   2.086   0.981  10.204  0.4655 -0.0822 -0.2955
 5842W        W 9893   5.690   3.459   1.791 -0.1669  0.0459  0.0285
 5843W        W 9894   8.163   4.066   1.568  0.1430 -0.2123  0.4157
 5844W        W 9895   5.428   2.944   1.010 -0.0515 -0.2002 -0.0150
 5845W        W 9896   8.513   4.302   2.035  0.1110  0.1501  0.0049
 5846W        W 9897   1.382   2.576   1.134 -0.3780  0.4372 -0.1017
 5847W        W 9898   7.149   1.732  13.244  0.1790  0.1133  0.1523
 5848W        W 9899   8.509   7.245  10.775  0.1670 -0.3433  0.0178
 5849W        W 9900   3.116   0.688   3.885  0.1609 -0.0817 -0.0282
 5850W        W 9901   1.117   8.514  11.014 -0.0733  0.1510  0.1609
 5851W        W 9902   7.086   4.111  13.179  0.2994 -0.0580 -0.0257
 5852W        W 9903   2.096   1.331   0.986 -0.1327 -0.1460  0.2070
 5853W        W 9904  10.172   5.158   0.442  0.0711 -0.2737 -0.3067
 5854W        W 9905   8.227   8.664  11.551 -0.0850  0.2562  0.1028
 5855W        W 9906   0.631   4.658   0.297  0.0005  0.1970 -0.0536
 5856W        W 9907   8.541   2.212  13.348 -0.2733  0.3259  0.1640
 5857W        W 9908   5.281   4.295  12.469 -0.0467 -0.2447 -0.2603
 5858W        W 9909   6.275   8.138   1.557  0.1489 -0.1423  0.0974
 5859W        W 9910   9.865   6.618   0.154 -0.0416  0.0177 -0.0105
 5860W        W 9911   2.979   5.699  10.400  0.0431  0.2014  0.0660
 5861W        W 9912   6.576   1.263  11.009  0.0826 -0.0385 -0.1870
 5862W        W 9913   2.804   8.378  12.033 -0.0479 -0.0934  0.0408
 5863W        W 9914   4.496   0.136  12.841 -0.0649  0.2096 -0.0746
 5864W        W 9915   5.417   2.648   1.750 -0.0651  0.1409 -0.0667
 5865W        W 9916   8.295   1.015   1.371  0.4014  0.1937  0.0473
 5866W        W 9917  10.003  10.295  11.262  0.0130 -0.4166  0.1860
 5867W        W 9918   0.198   2.684   5.035 -0.3585 -0.1504 -0.1891
 5868W        W 9919   1.439   3.431   0.583  0.1727 -0.4423  0.2986
 5869W        W 9920   6.888   6.491   0.613 -0.0034 -0.3766  0.3582
 5870W        W 9921   9.952   2.675  13.227 -0.2571 -0.0157 -0.0872
 5871W        W 9922   1.598   9.454   5.128 -0.3283  0.4101 -0.1741
 5872W        W 9923   0.409   9.415   5.596 -0.0962 -0.0817  0.2519
 5873W        W 9924   2.228   0.264  11.592 -0.0021 -0.0551  0.0578
 5874W        W 9925   6.784   9.122   8.378 -0.1453 -0.0961  0.2582
 5875W        W 9926   7.568   8.274   3.163  0.0251 -0.3411 -0.1376
 5876W        W 9927   6.820   7.466   2.665  0.0517 -0.1457 -0.1246
 5877W        W 9928   4.052   7.492   1.115  0.0780  0.0709 -0.0923
 5878W        W 9929   0.070   4.393   2.904  0.0554 -0.1892  0.0107
 5879W        W 9930   3.832   6.226  13.092  0.0661 -0.1502 -0.0915
 5880W        W 9931   9.868   6.177  12.172  0.1776  0.1480 -0.0320
 5881W        W 9932   4.038   9.978   3.521  0.0349  0.2924 -0.0854
 5882W        W 9933   6.285   2.085  10.432  0.0263  0.2172 -0.0547
 5883W        W 9934   8.273   3.651   3.949  0.3523  0.2248  0.0501
 5884W        W 9935   4.062   4.663   1.928  0.0460 -0.2310 -0.0777
 5885W        W 9936   9.312   9.967  10.431  0.2207 -0.4064 -0.0238
 5886W        W 9937   4.447   5.137  11.018 -0.0177  0.0014 -0.0225
 5887W        W 9938   0.384   8.823  12.546  0.0868 -0.2214 -0.0379
 5888W        W 9939   2.154   2.483   0.653 -0.0485 -0.0370  0.0701
 5889W        W 9940   1.441   6.988  12.748 -0.0482  0.3970 -0.0400
 5890W        W 9941   4.193   2.893   1.091  0.3688  0.3559 -0.0107
 5891W        W 9942   6.363   0.902   4.280 -0.2375  0.0307 -0.3201
 5892W        W 9943   5.435   4.614   3.537  0.0811 -0.2470 -0.3066
 5893W        W 9944   6.444   6.346  13.313  0.2221 -0.0166 -0.0192
 5894W        W 9945   0.168   8.771   4.945 -0.0050 -0.2813  0.0570
 5895W        W 9946   8.362   7.470   1.113  0.0117  0.1452 -0.4105
 5896W        W 9947   6.625   1.848  11.728 -0.0287 -0.0681  0.2928
 5897W        W 9948   6.107   8.953   9.597  0.1839 -0.0041  0.2543
 5898W        W 9949   5.904   4.981  12.066  0.1476 -0.2023  0.0565
 5899W        W 9950   0.622   6.102   3.748  0.0042  0.0087  0.2140
 5900W        W 9951   0.812   1.123  10.769  0.2122  0.0353 -0.4122
 5901W        W 9952   2.160   0.327   1.146  0.2800  0.1514 -0.3304
 5902W        W 9953   3.884   4.819   1.498  0.0885 -0.0611  0.2309
 5903W        W 9954   6.174   4.280  12.277  0.1121  0.1573 -0.1493
 5904W        W 9955   4.410   6.742   1.014  0.1449 -0.1892 -0.1320
 5905W        W 9956   1.301   9.421  12.444  0.3509  0.1490  0.1046
 5906W        W 9957  10.249   1.697   5.690 -0.0926  0.1430 -0.3758
 5907W        W 9958   9.304   7.493   1.681 -0.1224 -0.5623  0.0348
 5908W        W 9959   3.131   0.470   2.113 -0.0063 -0.3067  0.2735
 5909W        W 9960   3.733  10.318   8.839 -0.2392 -0.1910 -0.2126
 5910W        W 9961   1.690   9.915   5.007  0.0672 -0.0942  0.0459
 5911W        W 9962   8.047   7.489  10.978  0.1646  0.2293  0.2711
 5912W        W 9963   8.342   2.957  10.129  0.2673  0.1166 -0.1226
 5913W        W 9964   7.291   7.038  11.340  0.0441  0.3414  0.0913
 5914W        W 9965   0.099   8.348   9.882 -0.0402 -0.3727  0.0539
 5915W        W 9966   4.173   1.670  10.625 -0.2500  0.1913  0.0886
 5916W        W 9967   5.199   8.949  10.045 -0.0883 -0.1629 -0.1889
 5917W        W 9968  10.046   6.555  10.473  0.2759  0.1485 -0.4466
 5918W        W 9969   8.668   5.664   3.104 -0.0364  0.2537 -0.2709
 5919W        W 9970   6.025   7.126   3.518 -0.0952  0.4082 -0.0066
 5920W        W 9971   1.361   6.216   0.680 -0.1900 -0.5754  0.0294
 5921W        W 9972   1.773   6.501   3.753  0.0357  0.2977  0.0664
 5922W        W 9973   0.885   2.538   1.378 -0.1750 -0.2570  0.0441
 5923W        W 9974   4.031   6.848  12.593 -0.2832 -0.0990  0.0709
 5924W        W 9975   0.667   3.625  11.882 -0.0464  0.0849  0.0752
 5925W        W 9976   7.910   8.430   9.916  0.2405  0.1459  0.2339
 5926W        W 9977   6.514   9.581   1.514 -0.0021  0.2922 -0.3556
 5927W        W 9978   0.250   8.205   4.747  0.1396  0.2164 -0.0257
 5928W        W 9979   0.576   9.697   2.633  0.1443 -0.0522 -0.0520
 5929W        W 9980   9.459   8.377  11.247 -0.0037  0.2607  0.1651
 5930W        W 9981   7.878   9.613   0.777  0.1625  0.2106  0.0232
 5931W        W 9982   2.331   0.799   3.471 -0.0451 -0.0659  0.0217
 5932W        W 9983   0.746   5.433   5.317  0.0512 -0.1192  0.0271
 5933W        W 9984   2.668   3.545   1.124  0.0916  0.0123 -0.2488
 5934W        W 9985   1.448   9.578  11.497  0.2018  0.0729  0.0402
 5935W        W 9986   1.074   9.301   4.081  0.2217  0.4083 -0.1983
 5936W        W 9987   2.535   4.083  12.156  0.0887  0.1167 -0.2868
 5937W        W 9988   2.495   1.213  10.697  0.3178 -0.1736 -0.0023
 5938W        W 9989   7.923   1.634  10.780  0.1972  0.0760 -0.1945
 5939W        W 9990   8.944   6.729   0.687 -0.0273  0.1745 -0.0331
 5940W        W 9991   1.271   5.028   5.154 -0.2306  0.1058 -0.0853
 5941W        W 9992   0.816   0.751  11.647  0.2826 -0.2693  0.0100
 5942W        W 9993   7.730   6.036   3.353 -0.0109 -0.0733 -0.0271
 5943W        W 9994   5.119   1.721   2.292 -0.1458 -0.1753  0.1519
 5944W        W 9995   5.207   1.288   2.548 -0.0801  0.0711 -0.4034
 5945W        W 9996   8.142   1.101   4.695  0.2253 -0.0844 -0.0212
 5946W        W 9997   9.215   1.652   2.990  0.1550 -0.2861 -0.1436
 5947W        W 9998   8.853   2.621  13.372 -0.3378  0.1575  0.1953
 5948W        W 9999   2.797   0.520   2.505 -0.1031 -0.0545  0.2466
 5949W        W10000   1.322   0.772   5.736 -0.0021 -0.1500  0.0711
 5950W        W10001   9.804   5.347   3.134  0.2432  0.0679 -0.0167
 5951W        W10002   4.996   8.239   2.280 -0.0200 -0.0288  0.1149
 5952W        W10003  10.101   0.288   1.640  0.1707  0.1586 -0.0134
 5953W        W10004   8.071   4.573  10.696 -0.2338  0.1407  0.0366
 5954W        W10005  10.283   1.217  13.027 -0.4009 -0.2013 -0.1049
 5955W        W10006   7.808   6.813   1.522 -0.2813  0.2956  0.3028
 5956W        W10007   4.534   8.749   0.546  0.3850  0.0425 -0.0029
 5957W        W10008   2.687   1.869  11.433  0.0790  0.2105 -0.2043
 5958W        W10009   5.378   3.382   9.624  0.1454 -0.0048  0.0458
 5959W        W10010   4.324   9.930  11.085  0.0582 -0.2036 -0.1633
 5960W        W10011   7.527   2.894   3.787 -0.0757  0.0855  0.1029
 5961W        W10012   4.689   2.607  12.214  0.1952 -0.0104  0.0097
 5962W        W10013   7.342   1.190  12.114  0.1798  0.0130  0.2813
 5963W        W10014   1.425   9.831  10.203  0.1952  0.1461 -0.1664
 5964W        W10015   2.355   5.164  12.765  0.2729 -0.1000 -0.0003
 5965W        W10016  10.175   0.377   2.127  0.1363 -0.0939  0.0949
 5966W        W10017   4.140   0.212   2.330 -0.0650  0.1508  0.3742
 5967W        W10018   1.877   0.145   3.736 -0.0994 -0.1894 -0.0416
 5968W        W10019   3.424   2.200   3.389 -0.1802  0.0736 -0.0212
 5969W        W10020   6.933   0.646   0.320 -0.2414  0.0902 -0.0323
 5970W        W10021   6.006   8.987   1.624 -0.0717  0.0840 -0.0010
 5971W        W10022   2.281   4.444  11.790  0.1222 -0.1418 -0.0969
 5972W        W10023   7.000   4.220  11.249  0.1802  0.2501 -0.0435
 5973W        W10024   8.104   9.361  10.462 -0.0381 -0.2385  0.0015
 5974W        W10025   2.093   5.726  12.921  0.0451 -0.0491  0.2185
 5975W        W10026   7.528   1.561  12.874 -0.1914  0.1422  0.1968
 5976W        W10027   0.649   3.718   9.399  0.0957 -0.1221 -0.2347
 5977W        W10028   2.374   0.218   1.703  0.2270  0.1040  0.0130
 5978W        W10029   8.751   0.088   2.409  0.2802 -0.0533  0.0031
 5979W        W10030   1.661   5.420   2.368  0.1581  0.5093 -0.3325
 5980W        W10031   1.117   0.040   3.075 -0.2965 -0.0915  0.2786
 5981W        W10032   0.584  10.012   1.726  0.5651 -0.0604  0.0696
 5982W        W10033   0.767   7.819  11.546 -0.2034  0.0038  0.0015
 5983W        W10034   0.905   0.218  12.853  0.2422 -0.0606  0.3587
 5984W        W10035   7.018   8.825   9.908  0.0719 -0.1758 -0.2255
 5985W        W10036   7.270   2.013  10.104 -0.1003 -0.1272 -0.2659
 5986W        W10037   0.093   2.998   0.391 -0.1765 -0.3809 -0.3098
 5987W        W10038   6.915   8.261   2.351  0.2068 -0.4276  0.1857
 5988W        W10039   3.882   0.815  12.640  0.1288  0.0992  0.0018
 5989W        W10040   4.067   9.769  11.951  0.0647  0.0088  0.3458
 5990W        W10041   0.831   3.227   1.197  0.1593 -0.0308  0.0907
 5991W        W10042   1.395   9.438  13.398 -0.1302 -0.0218  0.0878
 5992W        W10043   4.948   1.332  11.643  0.0300 -0.0216  0.1541
 5993W        W10044   0.406   4.527  13.461  0.0798 -0.4726 -0.3781
 5994W        W10045   1.178   2.046   9.638  0.1179 -0.2559  0.1455
 5995W        W10046   0.544   1.634  11.468  0.2913  0.2516 -0.2060
 5996W        W10047   9.979   1.208   2.487  0.0331 -0.3836 -0.0753
 5997W        W10048   2.786   7.361  11.652 -0.0181 -0.0989  0.5965
 5998W        W10049   7.071   5.776   6.202 -0.4930 -0.0317 -0.0217
 5999W        W10050   4.341   3.682   3.178 -0.0032 -0.0467 -0.0715
 6000W        W10051   2.681   8.089   4.073  0.2004  0.3355  0.2562
 6001W        W10052   6.562  10.126   1.624  0.1982  0.0349  0.0231
 6002W        W10053   5.121   2.309   0.268  0.1679 -0.0417 -0.1533
 6003W        W10054   3.167   5.371  12.367 -0.1315 -0.3293 -0.2207
 6004W        W10055   4.791   6.617   0.040  0.3458  0.2661 -0.0598
 6005W        W10056   1.695   6.052  11.786 -0.1601 -0.3983  0.0262
 6006W        W10057   6.825   3.376   0.939  0.2064  0.0006  0.0467
 6007W        W10058   8.899   1.100   0.353  0.0945  0.0578  0.1921
 6008W        W10059   8.136   8.724  10.377 -0.1237 -0.1270  0.0254
 6009W        W10060   5.562   4.891  12.584  0.2518  0.1347 -0.0504
 6010W        W10061   7.982   7.566  12.990 -0.1007 -0.1004  0.1520
 6011W        W10062   4.967   4.951   1.684  0.0238 -0.1212 -0.1111
 6012W        W10063   7.518   9.993   4.424 -0.0752 -0.1619  0.0711
 6013W        W10064   5.065   9.340   1.110 -0.1332  0.0245  0.1545
 6014W        W10065   7.559   4.308  12.990  0.2477 -0.2825  0.1678
 6015W        W10066   2.450   7.342   8.870  0.1785 -0.0467  0.0196
 6016W        W10067   8.551   0.696  11.235 -0.0544  0.1711  0.0394
 6017W        W10068   3.491   8.395   9.021  0.0303 -0.1878 -0.2108
 6018W        W10069   4.203   0.601   2.784  0.1521  0.1468  0.1496
 6019W        W10070   8.474   6.033   0.948 -0.0967 -0.0706 -0.1888
 6020W        W10071   4.958   9.724   8.873  0.0706  0.0960  0.0632
 6021W        W10072   5.681  10.231  12.795  0.0275  0.1502  0.2539
 6022W        W10073   0.546   7.238   2.590  0.0514 -0.1534 -0.5748
 6023W        W10074   7.386   2.506  11.701  0.1655 -0.1200 -0.2808
 6024W        W10075   9.705   0.779   1.417 -0.1123 -0.0787 -0.1983
 6025W        W10076   9.698   5.427   0.519 -0.2137  0.0063  0.1113
 6026W        W10077   5.676   7.648   0.469 -0.0866  0.0822 -0.0978
 6027W        W10078   0.380   0.578  11.471 -0.0416  0.1622 -0.0902
 6028W        W10079   7.846   7.300  13.417  0.1578 -0.1630 -0.1109
 6029W        W10080   3.596   8.874   8.888  0.0583  0.1189 -0.1692
 6030W        W10081   8.170  10.106   4.395  0.1543  0.0037  0.1779
 6031W        W10082  10.314   9.610   9.078  0.1131 -0.0798 -0.0752
 6032W        W10083   4.915   5.356   3.571 -0.2586  0.1520  0.3312
 6033W        W10084  10.247   3.463   4.098  0.0397 -0.3770  0.3016
 6034W        W10085   0.405   4.057   1.078 -0.2807  0.1584 -0.1369
 6035W        W10086   4.839   7.635   3.866  0.1072 -0.1336  0.0460
 6036W        W10087   5.292   4.862   0.332 -0.0144 -0.0867 -0.0254
 6037W        W10088   7.185  10.282   9.620 -0.1930  0.0760  0.0200
 6038W        W10089   5.315   5.774   9.108 -0.0703  0.2108  0.1364
 6039W        W10090   7.122   3.452   9.548  0.0099  0.0165 -0.0214
 6040W        W10091   0.066   3.075  11.209  0.3121  0.1106  0.1575
 6041W        W10092   5.593   8.815  13.461 -0.0838 -0.0694  0.0144
 6042W        W10093   5.274   6.394   9.923 -0.4146  0.0450  0.1119
 6043W        W10094   0.393   9.097  13.433 -0.2870 -0.1522 -0.2110
 6044W        W10095   5.079   4.857  13.456  0.1262  0.1876 -0.3005
 6045W        W10096   8.894   9.881   1.727  0.2890 -0.0782 -0.0787
 6046W        W10097   2.043   3.914   3.471 -0.0421 -0.1598  0.1944
 6047W        W10098   5.659   6.106   1.210  0.2773  0.1988 -0.1314
 6048W        W10099   9.401   7.756   9.969  0.0522 -0.0489 -0.1256
 6049W        W10100   8.686   8.651  10.634 -0.0867 -0.1649  0.3517
 6050W        W10101   8.143   8.105  11.278  0.2035 -0.1574  0.2524
 6051W        W10102   7.316   6.614  13.113 -0.0392 -0.1576  0.1828
 6052W        W10103   6.481   1.278   0.136  0.0516  0.0155  0.1376
 6053W        W10104   6.511   1.419   3.717 -0.0112 -0.1776 -0.2855
 6054W        W10105   9.627   0.531   2.859 -0.2120 -0.0845 -0.0111
 6055W        W10106   8.722   2.383   3.359  0.0455 -0.0219  0.0011
 6056W        W10107   5.821   0.684   1.471 -0.2771  0.0712  0.2729
 6057W        W10108   6.745   6.901   2.366  0.1462  0.0378  0.1127
 6058W        W10109   3.919   8.988   4.553  0.0978  0.1037  0.1683
 6059W        W10110   0.703   4.005   4.848 -0.0548 -0.0693  0.0553
 6060W        W10111   3.544   6.588   1.913  0.0589 -0.0823  0.1077
 6061W        W10112   9.547   4.639   2.563 -0.0292 -0.2846  0.2199
 6062W        W10113   2.749   0.492   3.548  0.1030 -0.4008 -0.2168
 6063W        W10114   2.355   8.482   2.715  0.1887 -0.2508 -0.0647
 6064W        W10115   1.902   5.879  10.153  0.0329 -0.0049  0.1141
 6065W        W10116   1.599   2.971  12.501 -0.2359  0.1917 -0.0213
 6066W        W10117   6.555   9.417  11.860  0.0271  0.0477 -0.1022
 6067W        W10118   0.053   7.777  13.290 -0.2254  0.0249 -0.2589
 6068W        W10119   8.838  10.209   3.299 -0.1275  0.3021 -0.1098
 6069W        W10120   5.973   6.553   9.583 -0.1040 -0.0745 -0.0941
 6070W        W10121   1.619   5.323  12.151 -0.1266  0.2019  0.3555
 6071W        W10122   1.609   1.628  12.183 -0.1404 -0.2858 -0.0319
 6072W        W10123   2.664   3.608  12.600  0.0417  0.1348 -0.0168
 6073W        W10124   2.149   4.979  10.798 -0.1360  0.1094  0.0959
 6074W        W10125   0.444   1.397  13.483 -0.2104  0.0090 -0.0465
 6075W        W10126   3.067   7.982  12.229  0.1091  0.0194  0.3234
 6076W        W10127   2.137   7.255   9.649  0.0850 -0.1691  0.1793
 6077W        W10128   2.271   7.212  12.807 -0.1158 -0.0703 -0.2584
 6078W        W10129   6.213   0.022  12.611 -0.0948 -0.0286  0.1717
 6079W        W10130   8.201   3.468   4.430 -0.0269 -0.1467  0.1746
 6080W        W10131   1.608   2.584   4.556 -0.1105 -0.0748 -0.0822
 6081W        W10132   4.691   5.778   1.355  0.1007  0.1488 -0.1675
 6082W        W10133   7.384   3.863   2.091 -0.0367  0.1683 -0.0952
 6083W        W10134   6.113   1.581   1.007  0.3246  0.1922 -0.1369
 6084W        W10135   2.522   6.437   1.092 -0.0233  0.1208 -0.1685
 6085W        W10136   5.472   3.831   0.230 -0.1220  0.2670 -0.1681
 6086W        W10137   8.817   3.061  12.612  0.0437  0.0816  0.1343
 6087W        W10138   8.957   2.946  10.291  0.0605 -0.1287 -0.0319
 6088W        W10139   1.331   5.131   0.777  0.2154  0.0862  0.0431
 6089W        W10140   4.396   7.604  11.494  0.2226 -0.1105  0.2463
 6090W        W10141   2.206   9.700  13.495 -0.0243 -0.1645  0.3246
 6091W        W10142   2.656   3.383   2.478 -0.4235  0.2209  0.1909
 6092W        W10143   4.969   0.740   1.927 -0.1819  0.0192  0.0277
 6093W        W10144   0.151   4.695  13.020  0.3267 -0.3074  0.0712
 6094W        W10145   0.965   5.527  13.107 -0.2412  0.1932  0.1551
 6095W        W10146   4.661   5.865   4.128  0.1970 -0.3170 -0.1409
 6096W        W10147   9.934   0.386  13.249 -0.0805 -0.0151  0.1037
 6097W        W10148   2.735   2.007  13.526 -0.0104 -0.1037  0.0305
 6098W        W10149   6.570   1.074   1.453  0.1453 -0.0170 -0.3904
 6099W        W10150   8.459   2.654   9.687  0.2317 -0.1844 -0.1169
 6100W        W10151   7.271   7.208   0.752 -0.1708 -0.4290  0.0253
 6101W        W10152   4.627   3.060   2.266  0.1310  0.1554  0.1890
 6102W        W10153   3.688   7.599  12.807 -0.3048 -0.0875 -0.2156
 6103W        W10154   3.898   9.396   4.890 -0.1049 -0.1475  0.0258
 6104W        W10155   3.681   5.960   0.025  0.1843 -0.1109 -0.1190
 6105W        W10156   6.930   8.440   9.625  0.1766  0.1715  0.2033
 6106W        W10157   0.363   6.167  10.705  0.0792 -0.0572 -0.1254
 6107W        W10158   0.620   5.739   4.338  0.0199 -0.0424 -0.0984
 6108W        W10159   7.853   8.832   2.923 -0.0589  0.0463  0.0044
 6109W        W10160   5.231   3.696   1.611  0.0618  0.0711  0.1159
 6110W        W10161   6.929   1.626   3.514  0.1764  0.0018 -0.0685
 6111W        W10162   4.188   2.809  12.702 -0.0225 -0.0629  0.2594
 6112W        W10163   0.059   3.956   2.645  0.5234  0.0375  0.0832
 6113W        W10164   2.782   0.725   9.859  0.0745 -0.0122  0.0040
 6114W        W10165   2.270   8.365  12.107 -0.2735  0.0351 -0.1323
 6115W        W10166   1.863   6.614  10.827  0.0052  0.2164 -0.1346
 6116W        W10167   7.921   8.115   2.143 -0.0660 -0.1901 -0.2933
 6117W        W10168   9.328   9.916   2.703 -0.2581  0.2894 -0.1674
 6118W        W10169   2.475   4.962  13.230 -0.2048 -0.1425 -0.0189
 6119W        W10170   2.865   2.846  13.047  0.0691 -0.3081  0.2154
 6120W        W10171  10.204   6.718  13.410  0.0363 -0.1619  0.2081
 6121W        W10172   9.142  10.233   1.466  0.1750 -0.1211  0.1580
 6122W        W10173   0.328   2.807   4.274  0.2205  0.0251 -0.1155
 6123W        W10174   6.056   1.202   2.367  0.0010 -0.0771  0.0017
 6124W        W10175   0.519   8.668   1.667 -0.2223  0.1805  0.1418
 6125W        W10176   0.573   5.725  11.386 -0.1587  0.3948 -0.0584
 6126W        W10177   7.665   7.248   9.252  0.1975  0.0201 -0.0383
 6127W        W10178  10.094   0.947  10.362  0.3812 -0.1132  0.1122
 6128W        W10179   5.383   9.224  10.696  0.0285  0.0601  0.0378
 6129W        W10180   6.772   9.530  12.431  0.3148 -0.1120  0.3474
 6130W        W10181   0.865   1.006   4.986  0.2614  0.0036  0.1973
 6131W        W10182   3.753   1.118   4.432  0.1073  0.2140 -0.1238
 6132W        W10183   9.915   2.910   0.621  0.0789 -0.2231 -0.4097
 6133W        W10184   9.577   0.130   2.629 -0.0152  0.1373  0.0027
 6134W        W10185   7.052   8.520   1.745 -0.0996  0.3905  0.0610
 6135W        W10186   0.190   1.222   1.327 -0.0509  0.3822  0.0716
 6136W        W10187   7.437   1.620  10.986  0.1875 -0.0486  0.0097
 6137W        W10188   9.854   7.017  12.447 -0.3400  0.0786  0.2412
 6138W        W10189   4.754   4.024  12.400 -0.0783  0.2074  0.1964
 6139W        W10190   1.321   6.598  10.610  0.0731  0.0691 -0.1165
 6140W        W10191   3.150   5.098  11.683  0.0284 -0.1830 -0.2847
 6141W        W10192   0.229   0.465   1.696  0.0669  0.0822  0.2368
 6142W        W10193   8.479   9.620   3.006  0.1837  0.2383  0.1421
 6143W        W10194   8.259  10.327   2.969 -0.1097  0.0184 -0.0750
 6144W        W10195   7.690   0.026   9.600 -0.0255 -0.2051 -0.1822
 6145W        W10196   2.131   9.262   3.044  0.1043  0.0190  0.3164
 6146W        W10197   5.872   4.461  13.219  0.1247 -0.2757  0.0172
 6147W        W10198   2.468   0.768  12.622 -0.0114 -0.2460  0.2054
 6148W        W10199   9.993   2.327   9.365 -0.0269  0.2098  0.1282
 6149W        W10200   4.036   1.459   1.104 -0.0290 -0.2142 -0.1191
 6150W        W10201   1.833   8.794   1.062 -0.0540  0.2429  0.1742
 6151W        W10202   8.818   0.978   4.203  0.0169 -0.0311 -0.2210
 6152W        W10203  10.075  10.265   1.103  0.0574 -0.2274  0.4500
 6153W        W10204   5.735   0.217   3.364  0.0833 -0.1086 -0.0129
 6154W        W10205  10.261   8.644   4.441  0.0523 -0.1689 -0.0585
 6155W        W10206   4.921   5.943   3.658  0.1134 -0.1754  0.2093
 6156W        W10207   2.384   7.904  11.213  0.0476 -0.0140  0.0716
 6157W        W10208   5.422   2.457  11.839 -0.0200 -0.0467  0.2173
 6158W        W10209   7.720   8.792  11.356 -0.1132  0.0747 -0.0812
 6159W        W10210   0.621   0.291   2.973  0.1612 -0.0951  0.0743
 6160W        W10211   9.021   5.465   2.744 -0.4747  0.0798  0.0529
 6161W        W10212   0.660   4.544   4.336 -0.0674 -0.3447 -0.4823
 6162W        W10213   1.208   6.500  11.105 -0.1860  0.4807  0.4390
 6163W        W10214   0.431   6.071   3.277  0.2021 -0.1442 -0.4011
 6164W        W10215  10.281   8.874   3.499 -0.0120 -0.2206 -0.2369
 6165W        W10216   7.335   3.812  11.189 -0.3118  0.0685 -0.2863
 6166W        W10217   7.639   5.011   1.201 -0.1147  0.0162  0.2643
 6167W        W10218   0.707   3.981  10.189  0.1016  0.0364 -0.0167
 6168W        W10219   6.035   6.886  12.676  0.0761  0.1248  0.2759
 6169W        W10220   5.727   6.609  11.785 -0.1649 -0.2431  0.0946
 6170W        W10221   4.056   3.288  12.360 -0.3912  0.0900 -0.2950
 6171W        W10222   7.881   6.320   0.817 -0.1491 -0.0878  0.2405
 6172W        W10223   0.644   9.970   9.600  0.3117  0.3189 -0.0082
 6173W        W10224   0.118   5.115  13.356  0.2797  0.1873 -0.1867
 6174W        W10225   9.585   9.913   1.320  0.0290 -0.0299  0.0650
 6175W        W10226   8.670   4.924  13.283 -0.2382  0.0831 -0.1932
 6176W        W10227   9.526   3.842  11.190 -0.1162 -0.0660  0.0394
 6177W        W10228   4.079   2.258   9.745  0.1789  0.3564  0.1089
 6178W        W10229   0.594   2.566   1.866  0.0742  0.0850 -0.6087
 6179W        W10230  10.032   5.243   9.396 -0.5993  0.0476  0.0937
 6180W        W10231   7.303   6.352   9.390 -0.0974  0.1641 -0.1414
 6181W        W10232   0.930   6.488   3.610  0.0611 -0.0325 -0.0484
 6182W        W10233   4.216   1.459  13.021 -0.1527 -0.1707 -0.1619
 6183W        W10234   0.231   1.582   9.698 -0.2623  0.0974 -0.0227
 6184W        W10235   4.593   4.721   3.324 -0.0119  0.3469 -0.0659
 6185W        W10236   6.226   8.614   3.404 -0.0695  0.2116  0.1626
 6186W        W10237   6.800   7.020   1.293 -0.1845 -0.2100 -0.0213
 6187W        W10238   2.327   0.155   4.904 -0.0456  0.0972  0.2352
 6188W        W10239   8.354   6.083   8.686 -0.1294 -0.0168 -0.2602
 6189W        W10240   9.127   2.605   3.934  0.0287  0.0443 -0.2594
 6190W        W10241   5.399   2.555  11.286 -0.3216  0.0817 -0.0261
 6191W        W10242   6.649   9.740   2.014  0.0218  0.0666  0.0222
 6192W        W10243   1.597   5.782  12.624  0.4118 -0.0101  0.0524
 6193W        W10244   0.006   5.538  13.577 -0.0582 -0.0900  0.3030
 6194W        W10245   0.382   9.798  12.469  0.3528 -0.1079 -0.1438
 6195W        W10246  10.145   2.135   0.384 -0.0640  0.3894  0.1218
 6196W        W10247  10.288   6.225   3.291  0.1710  0.3644 -0.1175
 6197W        W10248   9.339   5.223  11.982 -0.0834 -0.0954  0.0053
 6198W        W10249   1.141   5.535   1.169  0.5351 -0.0291  0.0652
 6199W        W10250   3.134   5.856   9.894 -0.4820  0.1385  0.0487
 6200W        W10251   9.589   4.114   4.585 -0.1101  0.0730  0.1456
 6201W        W10252   9.158   3.898  12.605 -0.0991 -0.0721 -0.0231
 6202W        W10253   9.059   2.326   0.162 -0.0607  0.0655 -0.1905
 6203W        W10254   8.637   3.895   1.655  0.1071  0.2013 -0.1356
 6204W        W10255   6.649   9.321   2.310  0.0308  0.1461 -0.2140
 6205W        W10256   6.571   2.387   0.073  0.1812 -0.0200  0.2680
 6206W        W10257   6.012   5.811  11.529  0.1234  0.0862 -0.1952
 6207W        W10258   8.523   7.633   0.285  0.1784  0.0303  0.0854
 6208W        W10259   4.881   3.297   9.751 -0.1422  0.1173 -0.1712
 6209W        W10260   5.024   4.790  12.539  0.1335 -0.0392 -0.2268
 6210W        W10261   6.286   4.273  12.787 -0.2245  0.2328 -0.2767
 6211W        W10262   9.943   5.198  13.557  0.1837 -0.0962  0.2830
 6212W        W10263   7.901   3.924  11.212 -0.0374 -0.1703 -0.0190
 6213W        W10264   5.595   0.468  12.036  0.0171 -0.3794 -0.2488
 6214W        W10265  10.072   3.395   2.151  0.3039 -0.3000 -0.1143
 6215W        W10266   6.852   3.258  13.530 -0.2178  0.1078  0.1122
 6216W        W10267   3.901   8.952   2.316  0.1611  0.1164  0.0456
 6217W        W10268   2.857   7.025  11.042  0.1526 -0.0603 -0.3167
 6218W        W10269   0.678   2.871  12.142  0.1091  0.0346  0.0848
 6219W        W10270   4.068   8.359  12.696  0.0817 -0.0454 -0.1313
 6220W        W10271   4.904   9.526  12.176 -0.1335 -0.0239  0.1916
 6221W        W10272   9.226   5.035   1.000 -0.1370  0.2502 -0.0905
 6222W        W10273   3.855   6.039   2.233  0.0885 -0.1835  0.1188
 6223W        W10274   7.677   3.678   1.632 -0.1899 -0.0755 -0.2762
 6224W        W10275   3.540   0.313   1.334 -0.1104 -0.0783  0.1506
 6225W        W10276   4.432   4.126  11.430  0.2565  0.2317  0.0335
 6226W        W10277  10.148   5.339  10.918  0.2493 -0.0126  0.2008
 6227W        W10278   9.100   8.695  10.909 -0.1054  0.1216  0.3186
 6228W        W10279   4.530   7.797   2.437 -0.0449  0.1609  0.1893
 6229W        W10280   7.216   7.724   2.869 -0.2442 -0.1461  0.3249
 6230W        W10281   6.514  10.099   4.524  0.1097  0.1768 -0.2350
 6231W        W10282   1.732   7.649   0.016 -0.0557  0.2984 -0.0431
 6232W        W10283   3.665   5.693  10.086 -0.0741  0.1491 -0.0896
 6233W        W10284   9.860  10.049   2.684 -0.2291 -0.0083 -0.0367
 6234W        W10285   4.395   3.586  11.439  0.1488 -0.0844 -0.0573
 6235W        W10286   9.802   9.500  11.048  0.3086  0.0446  0.1253
 6236W        W10287   6.620   6.349   2.020  0.0830 -0.0656 -0.4647
 6237W        W10288   2.799   3.475   2.941  0.1384 -0.0299  0.2186
 6238W        W10289   1.506   5.473  12.983  0.0788  0.0333 -0.0036
 6239W        W10290   2.305   9.331   0.240  0.0585  0.0713 -0.0727
 6240W        W10291   1.785   3.091  11.096  0.2001  0.0664 -0.4227
 6241W        W10292   0.758   9.616   3.120 -0.1057 -0.0076  0.0786
 6242W        W10293   5.109   9.385  10.277  0.1069  0.1140 -0.2034
 6243W        W10294   8.771   4.704  11.695 -0.0109 -0.1149 -0.3291
 6244W        W10295   3.947   7.805  12.386  0.2171  0.3315 -0.2451
 6245W        W10296   6.012   5.444  10.786 -0.0482 -0.1470  0.0271
 6246W        W10297   5.861   0.845   4.174  0.2666 -0.2244 -0.0809
 6247W        W10298   7.406   8.712  10.962 -0.0586 -0.3776 -0.2212
 6248W        W10299   6.851   7.517   0.926  0.0215 -0.0725 -0.2024
 6249W        W10300   1.940   0.870  11.720  0.3907 -0.2208 -0.0498
 6250W        W10301  10.007   8.647   2.475 -0.0714  0.5912 -0.1479
 6251W        W10302   0.902   5.157   2.041 -0.0741 -0.0369  0.0321
 6252W        W10303   3.756   3.371  11.949 -0.2452  0.0572 -0.0280
 6253W        W10304   9.415   6.106   3.533 -0.0501  0.2892 -0.0470
 6254W        W10305   2.815   5.381  13.452 -0.0801 -0.2660 -0.2155
 6255W        W10306   4.419   1.005  10.825  0.1099  0.0921 -0.0258
 6256W        W10307   3.032   2.292   0.247  0.0251  0.4388 -0.1629
 6257W        W10308   2.202   2.075  11.647 -0.0863  0.2357  0.0053
 6258W        W10309   1.210   9.548   1.977 -0.0854  0.0059 -0.1528
 6259W        W10310   6.350   0.225   4.494  0.3730 -0.1469 -0.0679
 6260W        W10311   0.470   7.774   1.753  0.0210 -0.0128 -0.0617
 6261W        W10312   0.354   6.382   1.974  0.0401  0.0650 -0.2682
 6262W        W10313   3.916   8.594  11.396  0.0118  0.0695 -0.0051
 6263W        W10314   1.033   9.895   2.817  0.1151  0.1586  0.2445
 6264W        W10315   7.539   7.829   1.986  0.0839  0.1684 -0.1226
 6265W        W10316   2.618   9.843   3.461 -0.2236 -0.1811  0.0730
 6266W        W10317   0.854   4.252  13.289 -0.0651 -0.3160 -0.0382
 6267W        W10318   4.152   0.694  10.504  0.1629 -0.0685 -0.0293
 6268W        W10319   4.858   0.552   4.144 -0.1312  0.3001 -0.0750
 6269W        W10320   7.960   5.009   4.458 -0.4256 -0.2982  0.2303
 6270W        W10321   1.852   9.332  12.640 -0.3569 -0.3577  0.2523
 6271W        W10322   3.855   1.193   1.659 -0.1787 -0.4301  0.1784
 6272W        W10323   2.014   0.825  10.734  0.2609 -0.3919  0.0644
 6273W        W10324   5.174   7.308   2.459 -0.0162 -0.1875  0.4545
 6274W        W10325   6.583   7.632  11.254  0.0943 -0.2192 -0.0828
 6275W        W10326   5.794   2.635   1.174  0.1796  0.0375 -0.1359
 6276W        W10327   4.180   0.037  11.981  0.1015  0.0239 -0.0931
 6277W        W10328   3.445   5.318   2.414  0.0426  0.0064 -0.1720
 6278W        W10329   2.704   5.847  13.085 -0.0061  0.1180  0.0852
 6279W        W10330   9.178   3.831   3.940  0.1706 -0.0424 -0.4077
 6280W        W10331   5.672   4.905   3.061 -0.3087  0.1409 -0.1005
 6281W        W10332   9.065   2.338   1.149 -0.0331  0.2758  0.3191
 6282W        W10333   3.869   8.664   3.311 -0.2145 -0.1167  0.1616
 6283W        W10334   9.830   4.590   5.446  0.0349  0.0053  0.0057
 6284W        W10335   6.363  10.022  13.029 -0.1314  0.3554 -0.3055
 6285W        W10336   7.351   0.637   1.187 -0.1128  0.1336 -0.0827
 6286W        W10337   3.294   6.857  11.106  0.1839  0.0620  0.1410
 6287W        W10338   6.783   3.284   0.452 -0.0081  0.2397 -0.2373
 6288W        W10339   3.795   8.722  12.476 -0.2807 -0.2484  0.0448
 6289W        W10340   8.892   8.321   1.297  0.0427  0.2246 -0.0648
 6290W        W10341   2.565   6.658   9.740  0.0759  0.0068 -0.3119
 6291W        W10342   2.524   5.902   2.497 -0.1984  0.0921  0.0354
 6292W        W10343   5.487   1.748  10.051 -0.0407  0.1721  0.0631
 6293W        W10344   7.592   6.510  12.700 -0.1418 -0.1561 -0.0052
 6294W        W10345   9.018   0.534  10.073  0.0120  0.1061  0.0034
 6295W        W10346   4.029   0.186  10.637  0.0301 -0.2368  0.0312
 6296W        W10347   5.457   9.255   1.470  0.0209 -0.0332  0.2383
 6297W        W10348   1.287   2.463  13.497 -0.0091 -0.2754  0.1164
 6298W        W10349   8.261   7.930   0.569  0.2654 -0.0643 -0.0257
 6299W        W10350   7.807   1.108  11.781 -0.1009  0.1363 -0.3378
 6300W        W10351   1.084   8.962   2.330  0.2272 -0.3522 -0.0373
 6301W        W10352  10.068   4.112   5.177 -0.1856 -0.0445 -0.2296
 6302W        W10353   9.410   9.626   4.479 -0.0358 -0.0907  0.1647
 6303W        W10354   1.275   4.887   3.048  0.0753  0.0403  0.0620
 6304W        W10355   8.865  10.120   0.807 -0.1631 -0.2230 -0.3378
 6305W        W10356   0.163   4.558  11.803 -0.2693 -0.1350 -0.2373
 6306W        W10357   2.415   2.210   2.872  0.3273 -0.1023 -0.0459
 6307W        W10358   8.509   9.592   1.603 -0.0461  0.3490  0.1080
 6308W        W10359   6.498   2.633  11.076 -0.0702  0.1068  0.0039
 6309W        W10360   4.114   2.820   3.925  0.2616 -0.0725  0.0571
 6310W        W10361   5.953   1.659  13.094  0.1475 -0.0505 -0.1653
 6311W        W10362   5.427   1.770   1.880  0.0869 -0.1173 -0.2119
 6312W        W10363   7.184   8.221   3.667 -0.3370  0.2066  0.0261
 6313W        W10364   3.838   5.781  10.565 -0.1310 -0.2186  0.1768
 6314W        W10365   6.236   1.787   0.411  0.1337  0.1439  0.2235
 6315W        W10366   4.469   8.590  12.452  0.0439  0.0203  0.2212
 6316W        W10367   7.317   6.304   0.807 -0.0134 -0.5888  0.0327
 6317W        W10368   5.196   5.453   8.699  0.2914 -0.1568 -0.1970
 6318W        W10369   6.275   0.703  10.140  0.2789  0.1549 -0.3024
 6319W        W10370   8.920   1.021   2.638 -0.1888 -0.2802 -0.0079
 6320W        W10371   7.534   1.521   0.205 -0.2248  0.3203 -0.0504
 6321W        W10372   4.671   0.670   9.626 -0.3123 -0.5980  0.0621
 6322W        W10373   6.154   9.112   0.756  0.0544  0.1110 -0.0663
 6323W        W10374   8.571   2.581   4.325  0.2460 -0.0714  0.1152
 6324W        W10375   7.719   4.141   4.657 -0.2550 -0.0357 -0.0423
 6325W        W10376   1.068   1.177   2.417  0.1706  0.0098 -0.2120
 6326W        W10377   3.172   9.855   2.422  0.0395 -0.2485 -0.3019
 6327W        W10378   8.202   5.861   3.375  0.2139  0.1713  0.0132
 6328W        W10379   8.912   3.755   3.030 -0.0801 -0.1701  0.1398
 6329W        W10380   4.321   8.448  13.155 -0.1354  0.1925  0.2072
 6330W        W10381   8.836   4.146   1.121 -0.1769  0.2996  0.1917
 6331W        W10382   6.391   6.885  10.772 -0.3124 -0.2547 -0.1738
 6332W        W10383   8.031  10.031  12.694  0.2259  0.0346 -0.0355
 6333W        W10384   4.985   8.107   0.879 -0.3245 -0.3894  0.0019
 6334W        W10385   5.293   0.682   3.781 -0.0272 -0.2407  0.2330
 6335W        W10386   5.080   8.738   3.836  0.3608  0.0542 -0.2836
 6336W        W10387   9.809   1.729   1.140  0.1396  0.0364 -0.0326
 6337W        W10388   1.340   4.910  12.117  0.0424  0.2361  0.3335
 6338W        W10389   6.913   9.880   9.386 -0.0615  0.1461  0.1608
 6339W        W10390   6.320   0.835   0.376  0.3311 -0.2459 -0.1479
 6340W        W10391   6.974   3.222   1.419  0.2288 -0.1736  0.2293
 6341W        W10392   0.008   5.317  11.954 -0.1457  0.1010  0.0343
 6342W        W10393   4.471   0.247   0.671 -0.1463 -0.0933 -0.1011
 6343W        W10394   6.195   5.376   8.630 -0.0481 -0.0540 -0.2216
 6344W        W10395   3.493   3.332   3.260  0.0617 -0.0144  0.1265
 6345W        W10396   1.160   5.462   0.443  0.0950  0.0994  0.0373
 6346W        W10397   8.678   3.344   5.040 -0.0491  0.2437 -0.0421
 6347W        W10398   3.878   5.801   1.789  0.3813  0.1122 -0.0941
 6348W        W10399   0.527   7.764   3.906  0.0004  0.1168 -0.0630
 6349W        W10400   0.625   6.807   2.319  0.0423  0.1069 -0.1678
 6350W        W10401   0.179   8.946   0.616 -0.3114  0.0789 -0.2770
 6351W        W10402   6.431   0.047  10.877  0.2102  0.1775  0.2676
 6352W        W10403   0.159   2.089  12.702  0.2545 -0.2050 -0.2253
 6353W        W10404   7.619   8.668   0.848 -0.0233 -0.0101  0.1199
 6354W        W10405   9.585   7.046   3.762  0.1512 -0.0262  0.1844
 6355W        W10406   6.072   4.392  10.871 -0.3741 -0.0225  0.1046
 6356W        W10407   9.417   0.227   9.973  0.1493 -0.0088 -0.3966
 6357W        W10408  10.165   8.747   9.914 -0.1014 -0.1661  0.0940
 6358W        W10409   3.291   5.315   9.851 -0.0114  0.0295  0.1762
 6359W        W10410   2.604   8.545   5.736 -0.2447  0.3899 -0.1896
 6360W        W10411   4.168   5.542  13.263 -0.3270  0.0751 -0.1083
 6361W        W10412   5.952   3.616   4.366  0.3814 -0.0487 -0.0696
 6362W        W10413   2.167   8.895   3.794 -0.2980 -0.2889  0.1567
 6363W        W10414   5.914   2.766   4.274  0.2897 -0.2615 -0.2167
 6364W        W10415   5.589   4.173  11.172  0.0620 -0.0773  0.1601
 6365W        W10416   5.604   5.399   9.361 -0.2608  0.2477 -0.1570
 6366W        W10417   9.216   2.720  11.447 -0.3059  0.3431  0.2049
 6367W        W10418   6.579   2.437  12.577 -0.0805  0.0713 -0.3275
 6368W        W10419  10.055   0.344   4.488  0.1239  0.1476  0.0795
 6369W        W10420   8.116   1.944  10.401  0.1552  0.0606  0.0940
 6370W        W10421   8.003   8.401   3.514  0.1375 -0.1603  0.0264
 6371W        W10422   2.381   6.844   1.484 -0.0962 -0.1485  0.0796
 6372W        W10423   3.529   0.564  12.410  0.3737  0.3007 -0.0034
 6373W        W10424  10.259   0.998  11.378  0.2032  0.1904  0.0892
 6374W        W10425   7.634   8.017   1.051 -0.1824 -0.1418 -0.2141
 6375W        W10426   8.778   0.807  10.414  0.0500 -0.0537  0.0000
 6376W        W10427   0.017   9.212   0.225  0.0382  0.1715  0.0341
 6377W        W10428   7.060   2.451  11.032 -0.0627  0.0773 -0.1267
 6378W        W10429   6.025   9.852   4.646 -0.3141  0.1358 -0.2171
 6379W        W10430   4.841   6.578   9.993  0.1137  0.2969  0.2242
 6380W        W10431   2.367   6.008   4.717 -0.0205  0.2105  0.0703
 6381W        W10432   3.109   4.803  11.276 -0.1780  0.0000 -0.2935
 6382W        W10433   9.339   7.085   9.900  0.0769 -0.3927  0.0182
 6383W        W10434   2.939  10.033   1.278  0.1057  0.0178 -0.3824
 6384W        W10435   6.553   9.163   5.150 -0.0670  0.0516  0.1152
 6385W        W10436   2.331   0.305  12.960  0.0349 -0.0830 -0.0023
 6386W        W10437  10.274   2.554  12.414 -0.0300  0.0289 -0.1595
 6387W        W10438  10.045   2.833   5.166  0.0082  0.1555  0.1476
 6388W        W10439   3.310   4.734  10.771  0.1756 -0.0698  0.1250
 6389W        W10440   1.420   9.744   4.610  0.0666 -0.0354  0.0586
 6390W        W10441   9.110  10.243  11.386  0.0023 -0.1757 -0.0997
 6391W        W10442   9.483   7.851   0.322 -0.0065 -0.0090  0.0850
 6392W        W10443   4.960   5.994   9.902 -0.0938  0.0177 -0.1278
 6393W        W10444   3.706   8.481   0.404 -0.1035  0.0337 -0.1422
 6394W        W10445   4.666   8.326  12.797 -0.2890  0.0675  0.2043
 6395W        W10446   9.714   7.235   1.878 -0.0346  0.1520 -0.4052
 6396W        W10447   7.873   2.253   4.246 -0.0951 -0.1755  0.0965
 6397W        W10448   4.612   2.732   3.327  0.0808 -0.0429 -0.5007
 6398W        W10449   7.427   4.177   9.506  0.1430  0.0403 -0.2897
 6399W        W10450   4.501   9.716   9.087 -0.5015 -0.1984  0.1226
 6400W        W10451   4.765   7.240  11.049 -0.2797  0.2047  0.0596
 6401W        W10452   3.362   3.426   9.596  0.1353 -0.0933 -0.1147
 6402W        W10453   1.062   4.028   4.212  0.1804 -0.1466  0.3577
 6403W        W10454   1.195   6.222  12.503  0.0434 -0.0700  0.0304
 6404W        W10455   2.848   2.311   4.164  0.0088  0.5710 -0.0893
 6405W        W10456   2.858   1.037   3.677  0.2938  0.0512  0.1214
 6406W        W10457   4.727   5.317   1.445 -0.0832  0.3831 -0.1329
 6407W        W10458   6.535   1.619   2.426  0.0330  0.3013 -0.0669
 6408W        W10459   1.479   4.684   4.843 -0.3278 -0.0111 -0.0243
 6409W        W10460   0.530   2.883  11.122 -0.1295  0.2770 -0.1702
 6410W        W10461   9.746   3.276   4.205 -0.2244  0.0469 -0.6127
 6411W        W10462   9.140   7.390   9.465  0.0828 -0.2711 -0.0292
 6412W        W10463   5.179   7.576   0.702  0.2573 -0.2910 -0.0645
 6413W        W10464   9.413   7.026   4.199 -0.0674 -0.0874 -0.3096
 6414W        W10465   4.930   6.908   1.556 -0.0522 -0.1745  0.1140
 6415W        W10466   2.917   3.177   4.298 -0.0823  0.0023  0.2674
 6416W        W10467   6.255   7.765   2.007 -0.1082  0.0227  0.0262
 6417W        W10468  10.061   6.750  10.981 -0.1056  0.0958  0.2289
 6418W        W10469   7.726   2.918   0.554 -0.2498 -0.0351  0.1987
 6419W        W10470   3.841   7.022   2.679  0.1543  0.2016 -0.0349
 6420W        W10471   5.159   5.041  12.964  0.2022 -0.0837 -0.0245
 6421W        W10472   4.742   9.187  11.394  0.0334  0.0608 -0.0056
 6422W        W10473   0.344   6.544  10.229 -0.0228 -0.0941 -0.2341
 6423W        W10474   1.254   6.962  11.946  0.5898 -0.4662  0.0008
 6424W        W10475   0.093   3.257   4.616 -0.0553 -0.0465 -0.0946
 6425W        W10476   4.296   3.098  10.000 -0.2397  0.1662  0.5043
 6426W        W10477   3.039   7.188   2.982 -0.0675 -0.1255  0.0473
 6427W        W10478   1.144   3.238   3.982 -0.3789  0.1690 -0.2702
 6428W        W10479   2.351   9.790   4.344 -0.2603  0.1221  0.2810
 6429W        W10480   8.590   5.049   3.321 -0.2773  0.0746 -0.0668
 6430W        W10481   2.308   9.261  11.680 -0.1586  0.1822  0.0156
 6431W        W10482   3.267   7.907  12.692  0.0610 -0.2892  0.0606
 6432W        W10483   3.272   0.527  11.025 -0.1710 -0.3181  0.0059
 6433W        W10484   9.260   5.117  10.411 -0.0213 -0.1037 -0.4957
 6434W        W10485   7.531   7.358   2.694  0.0798  0.2198 -0.0792
 6435W        W10486   4.991   4.492   1.125  0.1356  0.1912 -0.0114
 6436W        W10487   5.575   6.091  11.443 -0.0470 -0.2350  0.1339
 6437W        W10488   1.388   6.255   4.554  0.0174 -0.0618  0.0110
 6438W        W10489   3.975   6.703   0.644 -0.3461 -0.0739 -0.0440
 6439W        W10490   8.957   5.356   8.864 -0.0939 -0.0333  0.0959
 6440W        W10491   8.448   7.277   8.784 -0.1565 -0.0307  0.4525
 6441W        W10492   5.195   7.701   1.163 -0.0464  0.0511  0.0336
 6442W        W10493   0.403   4.347   0.667  0.3949 -0.0598  0.1220
 6443W        W10494   5.919   8.065   4.003 -0.1596 -0.2046  0.1808
 6444W        W10495   9.399   5.844   1.929  0.1713 -0.0902 -0.1170
 6445W        W10496   1.879   2.057   3.186 -0.0280 -0.0146 -0.0868
 6446W        W10497   7.463   1.180  13.154 -0.1160 -0.1377 -0.1949
 6447W        W10498   9.394   5.593   3.321  0.2511 -0.0451 -0.2984
 6448W        W10499   7.791   5.761   1.657 -0.0979 -0.0708  0.1972
 6449W        W10500   8.160   7.444   3.638  0.1252 -0.2033  0.0665
 6450W        W10501   5.653   6.576   3.097  0.1458  0.1948  0.1576
 6451W        W10502   1.782   1.068  13.485 -0.1668 -0.2034  0.1774
 6452W        W10503   3.474   3.805  12.005 -0.1119  0.2846 -0.2667
 6453W        W10504   1.019   9.739   0.070  0.2078  0.0415  0.2152
 6454W        W10505   2.843   2.007   4.568 -0.1061 -0.3558 -0.2714
 6455W        W10506   7.377   2.261  13.224 -0.0078  0.0178  0.4454
 6456W        W10507   8.337   2.939   1.603  0.1778 -0.1034 -0.0046
 6457W        W10508   5.464   0.636   1.777  0.1353 -0.2645 -0.0997
 6458W        W10509   8.254   4.633   3.550  0.2233  0.1472  0.0223
 6459W        W10510   3.503   7.786   0.191 -0.4856 -0.3799 -0.1545
 6460W        W10511   2.206   0.512   5.729 -0.0816  0.2377  0.0569
 6461W        W10512   0.416   0.939   0.799 -0.1832 -0.4016 -0.4239
 6462W        W10513  10.205   2.236  13.305  0.3118  0.3235  0.0258
 6463W        W10514   4.386   9.409  12.783  0.0910  0.1012 -0.1621
 6464W        W10515   1.580   0.475   3.006  0.2122  0.1553  0.2337
 6465W        W10516   6.381   0.103   5.389 -0.3448  0.0928 -0.4790
 6466W        W10517   1.340   8.777   4.272 -0.1746  0.3535  0.0078
 6467W        W10518   4.002   2.922   9.605  0.1295  0.3678 -0.0095
 6468W        W10519   8.487   6.832   0.391 -0.2928  0.3294  0.2754
 6469W        W10520   6.589  10.320  11.743 -0.1661  0.0544  0.1696
 6470W        W10521   7.725   1.981   0.177 -0.1954 -0.2514  0.1290
 6471W        W10522   9.130   8.007  11.325  0.1439  0.0870 -0.1756
 6472W        W10523   2.411   0.615   9.100  0.0438  0.1507 -0.2598
 6473W        W10524   9.453   8.789  11.618 -0.3816 -0.1094  0.0569
 6474W        W10525   7.478   4.749  10.740  0.1212  0.0264  0.3399
 6475W        W10526   4.274   8.344   3.319  0.0551  0.1255  0.1789
 6476W        W10527   4.110   8.474   0.726  0.1593  0.1182  0.1762
 6477W        W10528   1.362   8.991   1.133  0.0449  0.0967 -0.1972
 6478W        W10529   8.137   6.458   1.245  0.0578  0.1229  0.0202
 6479W        W10530   8.826   9.911  10.416 -0.0094 -0.2345 -0.1462
 6480W        W10531   5.765   6.209   8.367 -0.0378 -0.2125 -0.1156
 6481W        W10532   7.095   9.748   1.759  0.2635  0.1146 -0.0579
 6482W        W10533   3.570   8.574   3.867  0.0228 -0.2769  0.0460
 6483W        W10534   6.966   9.809   9.913  0.1728 -0.0209 -0.4451
 6484W        W10535   3.609   1.527  11.686  0.1189  0.0409 -0.3032
 6485W        W10536   7.541   8.653  10.142 -0.0407 -0.5642  0.1931
 6486W        W10537   8.852   8.095  13.561 -0.2353  0.0355 -0.0992
 6487W        W10538   7.251   7.033  11.845  0.2257 -0.5185  0.3101
 6488W        W10539   8.130   1.605   0.126 -0.0949  0.0596 -0.2657
 6489W        W10540   0.287   6.385   0.001  0.3067 -0.3136  0.1656
 6490W        W10541   7.921   5.713   0.021 -0.2171 -0.0819  0.3541
 6491W        W10542   7.858   1.418   9.732  0.1535  0.0705 -0.1948
 6492W        W10543   2.797   3.619  11.455 -0.1983  0.0848  0.0922
 6493W        W10544   2.239   2.773   4.793 -0.1610 -0.2164  0.0473
 6494W        W10545   4.839   3.525   2.300 -0.1257 -0.3378  0.1922
 6495W        W10546   9.513   2.256  10.079  0.1112 -0.0966  0.2471
 6496W        W10547   4.328   5.622  10.573 -0.0324 -0.0121  0.0122
 6497W        W10548   4.432   8.777  10.459 -0.1182 -0.0096  0.0816
 6498W        W10549   6.212   5.349   3.638 -0.1360 -0.0486  0.0949
 6499W        W10550   3.947   3.584   1.844  0.2140 -0.0518 -0.2004
 6500W        W10551   7.265   6.086   9.891 -0.0747  0.0606 -0.2665
 6501W        W10552   8.479   9.559  10.927  0.2462 -0.0217  0.2270
 6502W        W10553   1.924   7.746   1.685  0.0762  0.0667 -0.2801
 6503W        W10554   9.544   7.511   3.636 -0.0529 -0.0693  0.1506
 6504W        W10555   0.958   3.591   4.917 -0.1250  0.0500  0.1456
 6505W        W10556   1.617   5.666   1.651  0.0936 -0.1286 -0.2677
 6506W        W10557   7.226   0.317  13.046 -0.0682  0.0002  0.0804
 6507W        W10558   9.250   2.541   3.304  0.1888  0.3363 -0.0426
 6508W        W10559   7.739   0.692   2.029 -0.5445  0.3697 -0.3969
 6509W        W10560   7.027   4.279  12.250 -0.0574  0.1472  0.1732
 6510W        W10561   1.144   1.058   2.881  0.3644  0.1249  0.2210
 6511W        W10562   5.046   1.371   5.346 -0.1707 -0.0327  0.1689
 6512W        W10563   7.588   3.889   0.742 -0.1543 -0.4319 -0.2801
 6513W        W10564   1.548   4.459   9.858  0.2171 -0.2706 -0.2137
 6514W        W10565   0.047   8.444  11.704  0.0196  0.4188 -0.2741
 6515W        W10566   9.707   5.796   9.835  0.5350  0.1949 -0.1856
 6516W        W10567   6.142   1.635  11.076 -0.5031  0.1750 -0.0741
 6517W        W10568  10.176   7.903   1.930  0.1641  0.2129 -0.0751
 6518W        W10569   5.619   0.292   9.849  0.1237 -0.0841 -0.0818
 6519W        W10570   1.741   7.437   1.303  0.0823  0.1040 -0.0206
 6520W        W10571   8.090   1.927  13.279 -0.0888 -0.1426 -0.0462
 6521W        W10572   4.768   5.831   0.835 -0.0788  0.1711 -0.2323
 6522W        W10573   4.846   5.391   0.174 -0.3406 -0.2925  0.5442
 6523W        W10574   2.522   8.154   1.136 -0.0585  0.0111  0.4455
 6524W        W10575   8.118   8.037   9.736  0.1091 -0.1802  0.1286
 6525W        W10576   1.052   0.439   2.736  0.0409 -0.0305  0.2454
 6526W        W10577   0.399   4.938   4.680 -0.0611  0.1257  0.1735
 6527W        W10578   4.048   6.466   3.521  0.0848 -0.2507 -0.1267
 6528W        W10579   6.696   3.585   3.783  0.2819 -0.2269  0.0355
 6529W        W10580   9.402   1.775   1.445 -0.0971 -0.0159 -0.2918
 6530W        W10581   8.146   1.754   9.945 -0.1840 -0.2861 -0.1940
 6531W        W10582   0.690   4.936  13.489  0.0867  0.1448  0.0811
 6532W        W10583   7.602   7.444   1.651 -0.4518 -0.0589 -0.0775
 6533W        W10584   1.582   4.656   3.834 -0.1516 -0.5052 -0.3068
 6534W        W10585   3.023   7.407   1.992 -0.0846  0.1493 -0.0807
 6535W        W10586   3.938   9.275   1.763 -0.2993  0.0058  0.0118
 6536W        W10587   7.969   8.924   3.708  0.0007 -0.0761 -0.0128
 6537W        W10588   7.120   2.976  11.031  0.0828  0.0675 -0.4084
 6538W        W10589   5.035   1.327   0.992 -0.3150  0.0834 -0.0689
 6539W        W10590   9.836   9.481   2.685 -0.1488 -0.1367  0.2287
 6540W        W10591   2.983   4.141  12.348  0.0286 -0.1424  0.0826
 6541W        W10592   3.108   5.849   1.656 -0.2312 -0.1528 -0.3835
 6542W        W10593   9.336   6.505  13.578 -0.2963  0.1092 -0.1220
 6543W        W10594   7.864   9.938   4.830  0.1684  0.2846 -0.3170
 6544W        W10595   8.439   4.858   1.441  0.0252 -0.1285  0.3829
 6545W        W10596   1.279   1.311   1.568 -0.0291 -0.2089  0.0600
 6546W        W10597   5.587   9.405   2.427  0.0769 -0.0554 -0.2404
 6547W        W10598   5.539   9.972   0.762 -0.4274  0.3488  0.3277
 6548W        W10599   5.905   4.283  10.144  0.0958 -0.0339 -0.0018
 6549W        W10600   5.998   3.382   2.227  0.0618  0.5250  0.1344
 6550W        W10601   3.571   5.220   1.192  0.1177  0.3960  0.0924
 6551W        W10602   1.380   8.286   1.617  0.1078 -0.3777 -0.4045
 6552W        W10603   7.348   6.610   9.845 -0.0823 -0.0000  0.1713
 6553W        W10604   1.986   7.411  12.038  0.1961  0.0524 -0.1679
 6554W        W10605   5.187   6.313   3.967  0.2103 -0.0684  0.1952
 6555W        W10606   6.998   4.629  10.917 -0.1150 -0.3668  0.0673
 6556W        W10607   2.741   0.972   2.193  0.1900 -0.0455 -0.0537
 6557W        W10608   6.540   9.001   3.254 -0.0313  0.1369  0.0722
 6558W        W10609   9.367   9.103   2.717 -0.0322 -0.3873 -0.1484
 6559W        W10610   2.031   7.573   2.697  0.0552  0.2115  0.1222
 6560W        W10611   4.358   9.381   0.227  0.0426 -0.6284  0.1881
 6561W        W10612   5.095   3.245   1.916  0.1585 -0.2185  0.0634
 6562W        W10613   7.174   2.886  12.606  0.0230  0.0829  0.1226
 6563W        W10614   7.337   8.037   0.193  0.0265 -0.2971  0.3315
 6564W        W10615   6.725   4.062   3.418 -0.2439  0.5579 -0.3124
 6565W        W10616   0.331   6.551  11.849  0.0972  0.0587  0.1049
 6566W        W10617   2.819   6.149   1.431 -0.2748 -0.0587 -0.0762
 6567W        W10618   3.819   6.717   9.707 -0.0511 -0.1107 -0.1193
 6568W        W10619   0.650   2.154  10.965 -0.0981 -0.2336 -0.0746
 6569W        W10620   0.599   4.513   4.857  0.0531  0.0431  0.0628
 6570W        W10621   1.176   2.691   0.452  0.1747  0.2446  0.0232
 6571W        W10622   7.840   6.981  12.568  0.1487 -0.0281 -0.1390
 6572W        W10623   5.755   1.812   0.185 -0.2127  0.6426 -0.2291
 6573W        W10624   3.032   6.760  12.447  0.1312 -0.0029 -0.0050
 6574W        W10625   9.014   3.724  13.538  0.1418 -0.1631 -0.1550
 6575W        W10626   9.566   8.836  11.120  0.3449 -0.1154 -0.2258
 6576W        W10627   6.126   0.830   2.708 -0.0732 -0.0320  0.0713
 6577W        W10628  10.235   5.724  11.242  0.0493 -0.1447 -0.0308
 6578W        W10629   0.203   7.629   2.444 -0.4122 -0.4812 -0.2391
 6579W        W10630   9.884   3.901  11.527 -0.2048  0.1705 -0.0146
 6580W        W10631   0.519   7.530   0.394 -0.4308 -0.0933  0.1911
 6581W        W10632   2.090   6.026   2.749  0.0076 -0.0852  0.0939
 6582W        W10633   2.040   2.949   0.479 -0.3096  0.0918 -0.1693
 6583W        W10634   0.262   5.902   0.240  0.2078 -0.3134  0.1010
 6584W        W10635   6.827   8.858   2.048 -0.1017 -0.2702  0.0874
 6585W        W10636   1.815   8.488   3.975 -0.0421 -0.3493  0.0734
 6586W        W10637   9.408   7.414   0.548 -0.0293 -0.4140 -0.0217
 6587W        W10638   8.762   8.467   4.307 -0.0378 -0.2089  0.1593
 6588W        W10639   9.794   5.667  10.650  0.0948  0.4097 -0.0848
 6589W        W10640   1.917   8.590   1.534  0.1843 -0.2407 -0.0643
 6590W        W10641   5.735   5.895   2.171  0.1882  0.0308 -0.0183
 6591W        W10642   6.806   9.844   3.692 -0.3047  0.1025  0.0173
 6592W        W10643   9.720   4.939   2.246  0.0456 -0.0545  0.0949
 6593W        W10644   1.034   1.111   3.502 -0.3265  0.2334 -0.2563
 6594W        W10645   7.039   1.589   1.381  0.0052 -0.0087 -0.0205
 6595W        W10646   4.931   9.695   3.362 -0.2627  0.2274  0.0350
 6596W        W10647   1.726   1.454   1.529  0.6064 -0.0436  0.3091
 6597W        W10648   3.645   5.557   3.945  0.0883 -0.0749 -0.0486
 6598W        W10649   9.092   1.003  12.494  0.3209  0.2600  0.0350
 6599W        W10650   8.171   6.566  11.348  0.0300 -0.0069  0.1780
 6600W        W10651   8.346   9.722   3.983 -0.1744 -0.2681  0.0595
 6601W        W10652   5.878  10.278   2.420 -0.2561 -0.1343 -0.2207
 6602W        W10653   2.794   0.712  13.068 -0.2836  0.1517  0.2104
 6603W        W10654   8.376   9.053   2.707  0.0222  0.1117 -0.1747
 6604W        W10655   5.222   6.870  10.200  0.1719  0.0666 -0.1449
 6605W        W10656   0.898   4.784   3.388 -0.2613  0.1237  0.2267
 6606W        W10657   1.901   8.774   1.998  0.1487  0.0270  0.2622
 6607W        W10658   5.127   8.275   3.604 -0.5702 -0.2783 -0.1254
 6608W        W10659   8.017   8.758  12.481  0.2211  0.0386  0.0062
 6609W        W10660   3.149   9.522   4.576 -0.1463  0.1668  0.3116
 6610W        W10661   6.098   9.397   9.382  0.2069  0.1814  0.0882
 6611W        W10662   3.488   6.736   2.795  0.1053  0.1476  0.2474
 6612W        W10663   5.770   4.098   6.929  0.0225 -0.1149 -0.0740
 6613W        W10664   1.606   3.937  12.603  0.1330 -0.1063 -0.2018
 6614W        W10665   3.533   2.417  11.176  0.0432 -0.1532 -0.2200
 6615W        W10666   9.510   7.399  12.174  0.4282  0.1118 -0.0352
 6616W        W10667   8.221   5.282  11.296 -0.1458  0.1566  0.1912
 6617W        W10668   9.613   9.210  12.756  0.0407 -0.1750 -0.0827
 6618W        W10669   9.507  10.194  11.737  0.2435 -0.0014 -0.1340
 6619W        W10670   9.507   3.784   0.718 -0.2790 -0.3440  0.2115
 6620W        W10671   3.635   8.217  10.889  0.4137  0.3360  0.4150
 6621W        W10672   9.515   8.374   4.706  0.1243  0.1443  0.1011
 6622W        W10673   8.637   4.771   9.408 -0.0175 -0.0413 -0.4628
 6623W        W10674   5.231   3.109  13.386  0.0948 -0.0628  0.0263
 6624W        W10675   4.676   9.270   9.050  0.0272  0.0942  0.0392
 6625W        W10676   9.041   7.566  12.148 -0.1148  0.1198 -0.1039
 6626W        W10677   8.184   3.704  11.954 -0.2208 -0.0594  0.0622
 6627W        W10678   6.474   0.647   4.748 -0.1707 -0.1015  0.3557
 6628W        W10679   4.789   8.953   2.911  0.0619  0.2097  0.0324
 6629W        W10680   5.232   5.343  13.447 -0.2832  0.3465  0.0108
 6630W        W10681   4.167  10.326   4.551  0.2199  0.0618  0.0428
 6631W        W10682   9.073   9.777   1.265  0.4322  0.1408  0.0426
 6632W        W10683   8.153   5.539  11.760  0.0759  0.1204  0.2688
 6633W        W10684   1.036   8.803   2.793  0.1124 -0.1007 -0.1415
 6634W        W10685   8.623   8.423  11.820  0.0332  0.4051 -0.5240
 6635W        W10686   8.620   2.671   2.892 -0.1431  0.1111  0.0663
 6636W        W10687   1.668   8.948   4.930 -0.0575  0.0844 -0.0308
 6637W        W10688   7.376   2.389   1.844  0.0285 -0.2005  0.0556
 6638W        W10689   2.442   7.128  11.388  0.0626 -0.1611 -0.0479
 6639W        W10690   9.933   3.082   4.766  0.1319 -0.0943  0.2266
 6640W        W10691   3.482   2.548  11.724  0.0161 -0.2068  0.2070
 6641W        W10692   1.359   5.693  13.399  0.2242 -0.0607  0.0276
 6642W        W10693   6.558   9.200   1.833 -0.1504 -0.0727 -0.1827
 6643W        W10694   6.823   7.982   2.740 -0.0131  0.0004  0.3656
 6644W        W10695   6.096   1.012   9.757  0.2140 -0.6253 -0.0960
 6645W        W10696   5.050   1.311   3.140  0.0237  0.2297  0.0564
 6646W        W10697   5.982   0.557   4.570  0.1336  0.2443 -0.2338
 6647W        W10698   3.344   8.648  13.230 -0.2526 -0.1426 -0.0852
 6648W        W10699   7.603   0.326   3.601  0.0155  0.1638  0.1134
 6649W        W10700   0.733   1.804   2.499  0.0736 -0.1063  0.3169
 6650W        W10701   3.343   1.045   5.576 -0.1339 -0.4701 -0.1317
 6651W        W10702  10.238   8.949  10.368  0.1960 -0.0260 -0.3680
 6652W        W10703   2.596   6.498   3.128 -0.0112 -0.0569  0.2864
 6653W        W10704  10.061   8.517  11.347 -0.1177  0.0740  0.1345
 6654W        W10705   7.700   6.651   9.322  0.0756 -0.1885 -0.0447
 6655W        W10706   0.550   8.205  11.232 -0.0698  0.0479  0.4942
 6656W        W10707   5.516   7.471   4.139  0.1201 -0.0383 -0.2347
 6657W        W10708   9.746   1.512  11.234 -0.3953  0.4341  0.2562
 6658W        W10709   4.502   2.301   4.513  0.1247 -0.1435 -0.2493
 6659W        W10710   8.790   5.408   9.798  0.0398  0.3177  0.3161
 6660W        W10711   6.981   3.673  12.651  0.2456  0.2328 -0.3017
 6661W        W10712   1.597   8.697   9.450 -0.1264 -0.0398  0.3375
 6662W        W10713   3.824   1.458   3.940 -0.0823 -0.1335  0.0136
 6663W        W10714   8.472   2.501   0.805 -0.3614  0.1224 -0.1297
 6664W        W10715   8.419   9.869   9.004 -0.0245 -0.0369  0.1395
 6665W        W10716   7.860   4.076   2.015 -0.1318 -0.2278 -0.0953
 6666W        W10717   0.438   4.837  12.620 -0.3040  0.1613  0.2812
 6667W        W10718   3.331   8.136   1.660  0.3050 -0.2346  0.0588
 6668W        W10719   1.058   5.636   2.418  0.0245 -0.0438 -0.2160
 6669W        W10720   1.273   9.396  10.445  0.3448 -0.3206 -0.0599
 6670W        W10721   2.142   4.650   9.916  0.0146 -0.2742  0.0002
 6671W        W10722   8.540   7.605   3.287  0.0423 -0.0855  0.2231
 6672W        W10723   7.472   5.826   0.002 -0.0668  0.0819 -0.2959
 6673W        W10724   4.402   7.450  13.217  0.0632 -0.0963  0.1841
 6674W        W10725   3.349   6.307  10.824 -0.0969 -0.0628 -0.0165
 6675W        W10726   8.444   7.513  11.931 -0.0232  0.0461 -0.1336
 6676W        W10727   9.869   6.866   1.275 -0.1881  0.2436  0.0239
 6677W        W10728   6.156   3.711   1.786 -0.1989 -0.0454 -0.3959
 6678W        W10729   8.384   1.870   0.924 -0.2213  0.2276 -0.0922
 6679W        W10730   0.768   8.635  12.821 -0.0466  0.1639 -0.0011
 6680W        W10731   1.265   5.262  10.301  0.0045  0.0085 -0.1298
 6681W        W10732   1.473   7.688   3.989 -0.0748 -0.0402  0.2016
 6682W        W10733   8.759   9.641   0.638 -0.0604  0.2559  0.1381
 6683W        W10734   1.531   1.805   1.160 -0.0595  0.1421 -0.4063
 6684W        W10735   7.134   2.645  13.482 -0.0157 -0.0246 -0.0514
 6685W        W10736   3.627   7.398   5.068  0.1341  0.3621 -0.3465
 6686W        W10737   8.377   1.140   2.611 -0.1012  0.0936 -0.0891
 6687W        W10738   4.118   2.018  10.214  0.3450  0.2205  0.0087
 6688W        W10739   6.993   2.463   9.898  0.2214  0.1563 -0.0707
 6689W        W10740   8.612   0.011  10.671  0.1906  0.1721 -0.1392
 6690W        W10741   5.255  10.085  10.056 -0.0603 -0.1451  0.1380
 6691W        W10742   3.092   2.343  13.282  0.0233  0.0106  0.0897
 6692W        W10743   9.800   3.904  12.604  0.0317  0.2845  0.0047
 6693W        W10744   7.982   2.454  13.194 -0.2554 -0.1443 -0.0417
 6694W        W10745   8.870   3.698  10.530 -0.2156 -0.0751  0.1213
 6695W        W10746   0.678   7.613   2.833  0.1071 -0.1579 -0.1902
 6696W        W10747   7.006   1.544  11.844 -0.0939 -0.2295  0.2321
 6697W        W10748   9.263   7.717  11.730 -0.1534 -0.1139  0.0213
 6698W        W10749   2.686   2.478   2.029 -0.1133  0.1297  0.2702
 6699W        W10750   2.778   8.298  11.181  0.1271 -0.1862 -0.0756
 6700W        W10751   5.273   6.696   1.947  0.1647  0.1320  0.0157
 6701W        W10752   3.516   2.339   1.175  0.1397  0.1800  0.0321
 6702W        W10753   2.388   1.273   9.093 -0.1791 -0.2325 -0.1063
 6703W        W10754   8.360   5.384   0.167  0.4492  0.3137  0.1837
 6704W        W10755   7.123   9.393  10.802  0.1180  0.4428  0.1195
 6705W        W10756   3.810  10.031  11.262 -0.0425  0.0065  0.1291
 6706W        W10757   1.292   7.268   4.281  0.2100  0.2669 -0.2253
 6707W        W10758   7.118   7.040  13.422  0.2894  0.0204 -0.0082
 6708W        W10759   3.576   4.843  11.156 -0.1723  0.0976  0.2002
 6709W        W10760   0.601   6.144   4.620  0.1338 -0.1708  0.6400
 6710W        W10761   7.149  10.072   2.130  0.1943  0.0513 -0.4205
 6711W        W10762   4.128   3.182  11.268 -0.3488  0.2315  0.0335
 6712W        W10763   8.206   4.983  13.504 -0.0757  0.0575 -0.0429
 6713W        W10764   8.124   2.277  12.007 -0.3697 -0.2633  0.3665
 6714W        W10765   8.222   1.976   2.924  0.2361 -0.0960  0.0875
 6715W        W10766   6.846   2.872   2.813  0.1561  0.2145  0.2380
 6716W        W10767  10.145   9.218  10.803 -0.0078 -0.0451  0.1003
 6717W        W10768   3.585   4.927  13.064  0.0130  0.1744 -0.0079
 6718W        W10769   7.864   8.678   4.214  0.2767 -0.0938  0.2019
 6719W        W10770   6.070   7.736  11.330  0.0558  0.4894  0.2490
 6720W        W10771   5.941   8.527  10.308 -0.1117  0.2140 -0.0425
 6721W        W10772   1.595   7.346  10.493  0.4025 -0.1902 -0.2015
 6722W        W10773   2.573   3.268   3.874  0.2019  0.1666 -0.0117
 6723W        W10774   0.415   5.487   1.155 -0.1148  0.2247 -0.3145
 6724W        W10775   3.784   0.677   0.429  0.1784  0.0628  0.2220
 6725W        W10776   3.916   3.841  11.233  0.4686  0.1878  0.0259
 6726W        W10777   0.381   1.747   4.591 -0.4223 -0.0411 -0.0369
 6727W        W10778   5.541   8.469   4.982 -0.0257  0.3258 -0.1940
 6728W        W10779   9.020   1.216   2.016  0.4271 -0.2024 -0.1922
 6729W        W10780   7.069   3.173   3.761  0.1246  0.0332  0.0316
 6730W        W10781   3.488   6.095   1.815 -0.1309  0.0417  0.2849
 6731W        W10782   9.993   2.238   3.514 -0.0823 -0.1006 -0.0941
 6732W        W10783   2.696   6.944  10.527  0.2438  0.0579  0.0578
 6733W        W10784   9.044   8.150  10.003 -0.1256 -0.2581 -0.2932
 6734W        W10785   9.115   9.542  10.554  0.3831  0.2974 -0.2282
 6735W        W10786   5.465   4.194   1.768  0.0741 -0.3495  0.2344
 6736W        W10787   4.733   4.562  11.713 -0.1870  0.0873 -0.0611
 6737W        W10788   8.765   0.487  12.559  0.4102 -0.3759 -0.0364
 6738W        W10789   0.836   5.060   2.930 -0.0032 -0.0840 -0.3715
 6739W        W10790   4.556   3.130  12.664  0.2696 -0.1227 -0.0687
 6740W        W10791   0.272   5.604  13.133  0.1517 -0.3271  0.0288
 6741W        W10792   3.302   8.061   2.578 -0.3577 -0.2181  0.2458
 6742W        W10793   2.543   5.445   0.286 -0.0729  0.1427 -0.0259
 6743W        W10794   4.716   3.485   2.824  0.4665 -0.1351  0.3163
 6744W        W10795   0.847   6.644  11.971  0.1206  0.0653  0.0784
 6745W        W10796   3.382   4.154   4.586 -0.0261 -0.5003  0.3066
 6746W        W10797   6.735   7.067   9.151  0.0828 -0.0308 -0.0897
 6747W        W10798   6.029   7.432   9.825  0.0827 -0.1584  0.0584
 6748W        W10799   2.211   6.423  12.058  0.1672  0.1021  0.1208
 6749W        W10800   7.552   6.093  12.431  0.1070 -0.1251  0.0653
 6750W        W10801   1.847   1.336  11.869 -0.1380 -0.5192  0.1253
 6751W        W10802   4.570   5.353   0.974  0.2331  0.0684 -0.0325
 6752W        W10803   0.846   6.329  11.568 -0.0104 -0.2194  0.1626
 6753W        W10804   9.794   1.130   5.571 -0.4097 -0.1783  0.0290
 6754W        W10805   6.460   7.659   0.514  0.0029 -0.1642 -0.1307
 6755W        W10806   1.161   7.322   1.439  0.3971 -0.2830 -0.0185
 6756W        W10807   5.815   3.339  11.706 -0.2224  0.0315  0.3019
 6757W        W10808   0.162   2.284  10.618  0.0080 -0.1039  0.0855
 6758W        W10809   9.339   5.322  12.765 -0.0109  0.1615 -0.0007
 6759W        W10810   9.040   1.006  13.020 -0.2315 -0.0265 -0.2209
 6760W        W10811   2.793  10.183   0.752  0.3695 -0.0763  0.1963
 6761W        W10812   0.478   8.598   4.506 -0.2191 -0.2049 -0.0371
 6762W        W10813   1.059  10.005   5.729 -0.0894  0.1834 -0.4433
 6763W        W10814   2.533   6.888  12.516  0.0183 -0.0443  0.1368
 6764W        W10815   7.113   6.303  12.244 -0.1358 -0.4900 -0.2711
 6765W        W10816   7.553   5.008   3.027  0.2764  0.1833  0.0247
 6766W        W10817  10.097   5.855  10.096  0.2439  0.1022  0.0380
 6767W        W10818  10.211   4.634  11.439 -0.0373  0.1968  0.2455
 6768W        W10819   1.086   2.481   3.002  0.3753  0.0493 -0.0017
 6769W        W10820   5.491   6.677   2.568  0.2447 -0.1551 -0.1345
 6770W        W10821   3.402   9.119   2.551  0.0033  0.3822  0.1461
 6771W        W10822   0.225   7.631  12.248 -0.2350 -0.2745  0.1488
 6772W        W10823   5.515   9.569   9.000 -0.1697 -0.0358 -0.0172
 6773W        W10824  10.116   7.849   0.996  0.1866 -0.1975  0.1035
 6774W        W10825   2.831   0.867  10.697 -0.1851  0.0524  0.2525
 6775W        W10826   2.012   0.342   0.674  0.1247  0.3068 -0.1867
 6776W        W10827   4.708   5.973   2.776 -0.4543 -0.0413  0.0436
 6777W        W10828   4.120   9.187  10.733  0.1657 -0.0364  0.1460
 6778W        W10829   5.660   5.691   1.685  0.0886 -0.0212  0.1244
 6779W        W10830   7.001   8.446   0.330 -0.0611 -0.1071 -0.2871
 6780W        W10831   0.414   0.723   5.613  0.2394  0.4237  0.3472
 6781W        W10832   1.822   1.695   0.749  0.1772 -0.1270 -0.0211
 6782W        W10833  10.099   2.640   0.182  0.1322  0.1463 -0.1293
 6783W        W10834   9.729   7.449  12.661  0.2515 -0.1648 -0.2303
 6784W        W10835  10.284   0.867   2.133 -0.2445 -0.1450  0.0663
 6785W        W10836   3.233   3.510  11.710 -0.0740  0.1804  0.0267
 6786W        W10837   6.472   4.366  13.267  0.3211  0.0143 -0.4017
 6787W        W10838   2.293   8.031  13.355 -0.0065  0.3096 -0.1013
 6788W        W10839   5.743   8.428  12.141  0.3228 -0.2939 -0.2057
 6789W        W10840   3.693   5.810  11.162 -0.0979 -0.0060  0.0476
 6790W        W10841   2.774   2.865   2.292  0.0281  0.2956  0.0082
 6791W        W10842   2.298   3.598   2.145  0.1601  0.2036 -0.2341
 6792W        W10843   0.128  10.030   3.993  0.1803  0.0303  0.3357
 6793W        W10844   9.399   8.810   3.734  0.2873 -0.0028 -0.1634
 6794W        W10845   8.376   8.419   2.111  0.0078  0.1895 -0.1491
 6795W        W10846   2.010   2.115   3.815 -0.1394 -0.2560 -0.0076
 6796W        W10847   2.734   5.178  12.433  0.3175 -0.0303 -0.1492
 6797W        W10848   6.936   9.691   0.792  0.1648  0.0628  0.1798
 6798W        W10849   9.499   3.495   1.882 -0.1478 -0.1710  0.0029
 6799W        W10850   7.238  10.210  10.300 -0.1381 -0.1676 -0.0469
 6800W        W10851   7.407   0.923  11.198 -0.4284 -0.3934  0.0355
 6801W        W10852   5.148   5.436  10.866 -0.1692  0.3086  0.2040
 6802W        W10853   2.626   3.088  13.399  0.1180  0.0434 -0.1563
 6803W        W10854   2.078   3.333  12.615  0.1014  0.1392  0.1650
 6804W        W10855   7.601  10.124   1.664  0.0737  0.0656 -0.1094
 6805W        W10856   8.615   9.686   4.374  0.1156 -0.2902 -0.4245
 6806W        W10857   0.868   1.211  13.276  0.3744 -0.0707  0.0270
 6807W        W10858   5.810   9.016   1.173 -0.0791 -0.1754 -0.2001
 6808W        W10859   9.945   5.953   3.073 -0.0400 -0.0687  0.0269
 6809W        W10860   8.053   2.701   1.973  0.1252  0.3274 -0.0857
 6810W        W10861   4.459   6.705   0.458 -0.1540 -0.1643  0.1729
 6811W        W10862   2.906   3.008  10.859  0.0643 -0.3220  0.1062
 6812W        W10863   9.485   3.313   0.326 -0.0081 -0.1348 -0.0006
 6813W        W10864   7.548   7.841  13.029 -0.1170 -0.0700  0.2341
 6814W        W10865  10.166   4.030   0.503 -0.0188 -0.0137 -0.0138
 6815W        W10866   7.808   1.188   0.396 -0.1877  0.0094 -0.0772
 6816W        W10867   5.793   4.676  11.167 -0.3779 -0.3121 -0.0511
 6817W        W10868   0.089   8.908   2.953  0.1980 -0.1817  0.0069
 6818W        W10869   4.547   4.141   3.989 -0.1664  0.0737 -0.2229
 6819W        W10870   9.151   8.103   4.243 -0.1266  0.3308 -0.4234
 6820W        W10871   9.656   9.363   4.828 -0.0558  0.1172 -0.0669
 6821W        W10872   0.443   3.993   3.002 -0.0672 -0.0074 -0.1652
 6822W        W10873   2.110   5.663   0.248 -0.1052  0.1190  0.1238
 6823W        W10874   0.176   5.085   1.622 -0.1078 -0.1079 -0.1065
 6824W        W10875   0.608   6.680  10.817  0.0153  0.0303 -0.3951
 6825W        W10876   5.434   2.398   3.931  0.0170 -0.0698 -0.2195
 6826W        W10877   7.306   1.160   0.531 -0.0538 -0.1134 -0.2636
 6827W        W10878   2.572   6.954   4.362 -0.1921  0.3406 -0.0217
 6828W        W10879   2.082   7.129   5.057 -0.0043 -0.0100 -0.0147
 6829W        W10880   1.912   4.948   1.464 -0.2381  0.2657 -0.1190
 6830W        W10881   2.372   3.966   1.718 -0.1897 -0.0877  0.0711
 6831W        W10882   7.043   8.422  10.139  0.0325  0.0584 -0.0225
 6832W        W10883   2.336   5.127  10.133 -0.1758  0.1519 -0.0136
 6833W        W10884   6.807  10.003   1.215 -0.0680  0.3549 -0.0313
 6834W        W10885   3.378   2.989   2.910  0.0774  0.1461  0.0528
 6835W        W10886   5.438   8.480  11.716  0.1936 -0.3343  0.0756
 6836W        W10887   8.184   8.139   9.182 -0.0337  0.0872  0.0262
 6837W        W10888   8.407   2.696   3.587 -0.1859  0.1209 -0.0090
 6838W        W10889   0.402   7.569   9.525  0.1244  0.0132 -0.0100
 6839W        W10890   5.014   0.455  12.012  0.0909  0.0101 -0.0946
 6840W        W10891   5.917   5.126  11.235  0.2698 -0.1408 -0.0383
 6841W        W10892   0.926   5.751   2.908 -0.3084 -0.1186  0.2551
 6842W        W10893   7.221   6.178  13.235  0.0173  0.1193  0.0395
 6843W        W10894   9.527  10.217  11.028  0.0159  0.1836 -0.1595
 6844W        W10895   8.260   4.467   4.285 -0.0607  0.3124  0.2538
 6845W        W10896   2.937   2.541   1.065  0.0006 -0.0765 -0.2349
 6846W        W10897   1.912   4.872   5.116  0.0771  0.0276  0.2027
 6847W        W10898   6.933   8.338   0.975 -0.1008  0.0698  0.1612
 6848W        W10899   6.348   7.370  10.845 -0.0433 -0.0017 -0.0425
 6849W        W10900   8.321   6.408   0.631 -0.1983  0.1013  0.0414
 6850W        W10901   7.660   8.848   9.327  0.3418 -0.0882  0.1657
 6851W        W10902   9.700   2.585  12.451 -0.0218 -0.2124 -0.3399
 6852W        W10903   6.405   7.340   1.511  0.1163 -0.1601 -0.0308
 6853W        W10904   8.208   0.081   0.939 -0.0972 -0.3626  0.0953
 6854W        W10905   8.051   6.319   2.215  0.1945 -0.0836 -0.0161
 6855W        W10906   2.104   5.205   2.803 -0.0135  0.0413 -0.3484
 6856W        W10907   7.596   9.864   3.176 -0.0989  0.0468  0.0111
 6857W        W10908   4.437   2.843  10.999  0.0473  0.2912  0.0277
 6858W        W10909   7.154   5.465   0.154 -0.0243  0.0029  0.1018
 6859W        W10910   0.817   0.006  11.347  0.3189 -0.2369  0.1531
 6860W        W10911   0.548   9.229   2.852 -0.2191  0.1202 -0.3957
 6861W        W10912   5.274   5.049  11.660 -0.1346  0.0396 -0.0903
 6862W        W10913   4.289   7.124  11.308 -0.1149 -0.0026 -0.1364
 6863W        W10914   9.967   0.033   3.052  0.3996 -0.0212 -0.0058
 6864W        W10915   7.577   5.883   0.750  0.0471 -0.0720  0.1235
 6865W        W10916   1.408   4.185   3.685 -0.0923  0.1916  0.1669
 6866W        W10917   7.298   7.539  11.554  0.2631 -0.0253 -0.2013
 6867W        W10918   9.199   9.320   4.079  0.0330  0.1707 -0.3205
 6868W        W10919   0.049   0.160  10.004  0.3388 -0.2429  0.0599
 6869W        W10920   9.476   7.383   3.093  0.0671  0.2138  0.0052
 6870W        W10921   7.985   7.114   1.934  0.0797  0.2620 -0.0561
 6871W        W10922   8.375   4.896   1.925  0.0815  0.2905 -0.3581
 6872W        W10923   1.882   2.535   3.598 -0.1530 -0.0374 -0.1558
 6873W        W10924   7.008   7.507   3.767 -0.0953  0.0373 -0.0154
 6874W        W10925   3.758   9.102  13.516  0.0007 -0.3462  0.2271
 6875W        W10926   1.515   8.407   0.257 -0.2099  0.1759  0.1593
 6876W        W10927   3.252   8.345   3.546  0.0865 -0.0883 -0.1002
 6877W        W10928   8.498   8.278   3.332 -0.0073  0.0883 -0.1117
 6878W        W10929   0.121   2.664   1.764  0.1320 -0.1037 -0.3529
 6879W        W10930   9.526   0.523   0.023 -0.2290  0.1554  0.0843
 6880W        W10931   8.396   3.008   4.645  0.1088 -0.4845  0.0667
 6881W        W10932   1.887   8.055   3.448 -0.1260  0.0493  0.1662
 6882W        W10933   7.119   5.500   9.214  0.2852 -0.2306 -0.2782
 6883W        W10934   6.513   5.287   2.537  0.0449 -0.0461 -0.1962
 6884W        W10935   7.424   9.725  10.359 -0.0623 -0.0483 -0.1976
 6885W        W10936   7.895   0.214   4.409 -0.4799 -0.0770  0.1397
 6886W        W10937   2.426   6.387   1.632 -0.0059  0.0583 -0.2123
 6887W        W10938   7.885   1.605   0.628  0.0327 -0.1397  0.0234
 6888W        W10939   0.605   5.374  12.017  0.0158 -0.0608 -0.0767
 6889W        W10940   8.427   4.347  11.616  0.3126 -0.2353 -0.2698
 6890W        W10941   2.098   1.744   1.769 -0.0623  0.2753  0.2412
 6891W        W10942   4.199   0.823   1.712 -0.1655  0.0114  0.1642
 6892W        W10943  10.255   6.659  11.515 -0.3919 -0.0656 -0.1663
 6893W        W10944   3.916  10.259   1.376 -0.0276 -0.0355 -0.4449
 6894W        W10945   9.106   5.429   4.667  0.2340  0.0166 -0.0884
 6895W        W10946   8.963   7.129  10.915  0.0776 -0.1520  0.0188
 6896W        W10947   1.928   3.084   5.063 -0.0773  0.2587  0.2500
 6897W        W10948   8.444   9.094   1.261 -0.2189  0.2384  0.1143
 6898W        W10949   2.872   3.116  11.577 -0.2879  0.0460 -0.0554
 6899W        W10950   6.214   5.745  13.424  0.0645 -0.0475 -0.0095
 6900W        W10951   0.121   1.948   4.980 -0.3572  0.0234  0.0136
 6901W        W10952   4.957   2.911   9.292 -0.0750 -0.1082 -0.1101
 6902W        W10953   6.231   5.033   0.373 -0.0732  0.1625 -0.0819
 6903W        W10954   5.505   6.365   2.198  0.3990  0.0675  0.0301
 6904W        W10955   3.064   7.371   0.319 -0.4076 -0.1387 -0.0799
 6905W        W10956   9.041   2.558  12.858 -0.3102  0.0442  0.2850
 6906W        W10957   4.838   0.880  11.511  0.0908 -0.0345 -0.0670
 6907W        W10958   2.439   9.339   3.472  0.1801 -0.0086  0.1789
 6908W        W10959   6.866   9.705  10.446 -0.2625 -0.1909 -0.1814
 6909W        W10960   0.879   9.714  12.575  0.2001  0.4424  0.1051
 6910W        W10961   7.672   5.656  13.169  0.2034  0.2676  0.0232
 6911W        W10962   6.857   4.756   2.564  0.2644 -0.2496  0.1797
 6912W        W10963   4.456   5.726   0.084 -0.0840  0.0395 -0.0606
 6913W        W10964   5.196   7.322  13.169  0.2122  0.2810  0.0339
 6914W        W10965   0.612   2.410  12.304  0.0701  0.1226  0.0045
 6915W        W10966   0.511   7.773  11.048  0.0204  0.0565 -0.1117
 6916W        W10967   1.756   0.019   0.998 -0.2582  0.0860  0.2421
 6917W        W10968   6.835   1.172   3.362 -0.0666 -0.1776 -0.2717
 6918W        W10969   1.872   1.782  10.126 -0.1864 -0.3149  0.0537
 6919W        W10970   6.755   6.664  12.533 -0.1078 -0.1455 -0.1957
 6920W        W10971   9.195   0.793   1.556 -0.1362 -0.1531  0.3325
 6921W        W10972   7.110  10.057   3.315  0.0308 -0.2925 -0.3154
 6922W        W10973   0.811   2.801   0.945  0.0607 -0.1971  0.0851
 6923W        W10974   0.191   5.000  11.556 -0.0920 -0.3051 -0.0441
 6924W        W10975   0.107   6.351  11.099  0.0818 -0.4341 -0.0263
 6925W        W10976   4.835   9.579   9.447  0.0623  0.3754 -0.1708
 6926W        W10977   1.499   5.843   2.558  0.0196 -0.0138  0.1272
 6927W        W10978   3.669   9.549   0.844  0.0906  0.1544  0.1301
 6928W        W10979   1.537   7.960  10.947 -0.1372 -0.0037  0.0514
 6929W        W10980   9.006   4.756   3.523 -0.3241 -0.1440 -0.1247
 6930W        W10981   3.494   1.278  12.098  0.1064  0.1441 -0.4232
 6931W        W10982   2.934   0.514   0.092  0.1405 -0.1560 -0.0957
 6932W        W10983   2.054   4.602   0.498 -0.5156 -0.2851 -0.1115
 6933W        W10984   2.445   4.780   1.423 -0.5534  0.1590  0.1358
 6934W        W10985   9.692   5.348   5.294  0.1250 -0.1865  0.2868
 6935W        W10986   0.575   8.350   0.050  0.0379  0.3912 -0.1837
 6936W        W10987   7.338   9.028  12.120 -0.1048  0.1822  0.0624
 6937W        W10988   2.573   3.178   3.272  0.1841 -0.2674  0.0403
 6938W        W10989   6.132   3.363  13.035  0.4198  0.1988  0.1871
 6939W        W10990   1.816   2.301  10.294  0.2378 -0.2758  0.1002
 6940W        W10991   1.718   6.283   4.174  0.2586  0.2621 -0.1533
 6941W        W10992   1.049   7.189   1.893  0.0067 -0.0145 -0.2298
 6942W        W10993   7.737   1.457  12.417  0.5351 -0.1107  0.2763
 6943W        W10994   9.388   6.756   1.989 -0.1733  0.2169  0.0491
 6944W        W10995   2.824   9.994  11.815  0.1432  0.2318 -0.3739
 6945W        W10996   1.518   5.800   4.151 -0.1479  0.0633  0.0241
 6946W        W10997   7.731   9.412   3.475  0.2012 -0.2811 -0.2903
 6947W        W10998   3.400   0.072  10.297  0.1853 -0.0633 -0.0964
 6948W        W10999   5.176   1.680   1.355 -0.2242 -0.0301 -0.0145
 6949W        W11000   1.036   8.631   3.481  0.2123  0.3802  0.0261
 6950W        W11001   1.079   2.504   9.403 -0.1237 -0.0579  0.2491
 6951W        W11002   4.390   5.555   2.684 -0.0158  0.1226 -0.0671
 6952W        W11003   2.036   1.985  10.594  0.1625  0.1798  0.0549
 6953W        W11004   5.521   0.850  12.861  0.4589 -0.1529 -0.1398
 6954W        W11005   0.691   1.047  10.236 -0.1568 -0.0451 -0.0209
 6955W        W11006   1.822   4.279   0.162  0.3789 -0.0267 -0.3674
 6956W        W11007   7.279   1.786   4.009 -0.3890 -0.3623  0.0581
 6957W        W11008   6.059   4.709   9.261  0.0731  0.4142 -0.2668
 6958W        W11009   2.265   7.466  11.077  0.1270  0.0361 -0.0744
 6959W        W11010   1.251   3.568  13.197  0.1455  0.1923  0.0249
 6960W        W11011   1.972   8.764   2.900  0.0372  0.1199 -0.0118
 6961W        W11012   8.081   4.857  12.387 -0.3452  0.1434 -0.0190
 6962W        W11013   2.090   3.032   3.244  0.0510 -0.3563 -0.1811
 6963W        W11014   6.272   8.263  12.263 -0.0611  0.1705 -0.1300
 6964W        W11015   6.514   3.079  13.226 -0.0194  0.0065  0.0600
 6965W        W11016   1.820   1.833  12.645  0.0568 -0.3917  0.2987
 6966W        W11017   9.954   7.115  11.489 -0.2457 -0.2500 -0.2089
 6967W        W11018   8.389   1.335   3.463  0.0308  0.4885 -0.1375
 6968W        W11019   2.881   7.601   3.861  0.0632 -0.0069  0.0998
 6969W        W11020   0.757   1.190  11.354 -0.0492 -0.1816 -0.1069
 6970W        W11021   4.355   0.638   1.132 -0.4550  0.2816 -0.1826
 6971W        W11022   0.624   1.849   3.817 -0.2905  0.0492  0.0175
 6972W        W11023   6.911   5.723   4.153 -0.1403 -0.1178 -0.0251
 6973W        W11024   8.196   0.835   0.601  0.2754 -0.2371 -0.0653
 6974W        W11025   2.556   2.700  11.011 -0.1628  0.2496 -0.0677
 6975W        W11026   6.769   0.654  12.919 -0.0278 -0.0675 -0.2202
 6976W        W11027   5.820   5.344   3.286  0.0551 -0.1647 -0.0339
 6977W        W11028   1.024   9.048  10.224  0.1706 -0.1016  0.1833
 6978W        W11029   7.213   0.147  12.305  0.1008  0.3201  0.0632
 6979W        W11030   7.639   4.954  12.233 -0.0403 -0.2165 -0.1108
 6980W        W11031   7.017   1.357   0.960 -0.1359  0.0971  0.1546
 6981W        W11032   6.938   2.578   4.575  0.1555  0.0277 -0.1011
 6982W        W11033   3.044   5.082   2.130 -0.4807 -0.2281 -0.3463
 6983W        W11034   2.551   8.655   1.261 -0.3827 -0.3478  0.0867
 6984W        W11035   3.872   2.441   3.630  0.0876  0.0878  0.0892
 6985W        W11036   6.811  10.213   0.117 -0.1418 -0.0373 -0.1944
 6986W        W11037   0.785   6.943   1.342  0.3205 -0.1980 -0.1579
 6987W        W11038   8.825   0.508   5.192 -0.0813  0.2677  0.0163
 6988W        W11039   6.561   5.225   9.793  0.2446 -0.1069 -0.1527
 6989W        W11040   5.577   3.551  12.150  0.0917  0.0360  0.0737
 6990W        W11041   3.041   9.317   5.530  0.1137 -0.1821  0.0780
 6991W        W11042   9.371   6.874  13.270  0.0991 -0.1884  0.0061
 6992W        W11043   1.254   4.736  11.162 -0.0040 -0.2002 -0.1791
 6993W        W11044   7.244   2.005  12.763  0.1509 -0.1416 -0.1312
 6994W        W11045   9.308   0.290   3.638 -0.0295  0.2197  0.2786
 6995W        W11046   2.617   0.811   0.362 -0.2538 -0.1442  0.1978
 6996W        W11047   0.282   9.598   1.382  0.2800 -0.2862 -0.3076
 6997W        W11048   1.101   4.970  13.105  0.2118 -0.1063  0.0397
 6998W        W11049   9.298   8.100   2.918 -0.0982 -0.2932 -0.0479
 6999W        W11050   3.097   8.302   4.586  0.1711  0.2452 -0.1434
 7000W        W11051   4.406   1.445   3.911  0.2049  0.1528 -0.0504
 7001W        W11052   1.711   2.662   0.718  0.0980 -0.1999  0.3091
 7002W        W11053   1.379   4.317  10.679 -0.1156 -0.0973  0.3687
 7003W        W11054  10.091   1.709   9.927 -0.1966 -0.2408 -0.0322
 7004W        W11055   9.228   2.927  12.448 -0.3325  0.1524  0.1411
 7005W        W11056   5.970   8.587   1.933 -0.0660  0.2077 -0.3576
 7006W        W11057   6.178   6.839   0.893  0.1765 -0.1361 -0.1591
 7007W        W11058   9.408   9.962   1.847  0.0350 -0.0629  0.1780
 7008W        W11059   7.686   7.214  10.086 -0.3572  0.1585 -0.2863
 7009W        W11060   5.369   4.169   1.123 -0.1794  0.0043 -0.1514
 7010W        W11061   5.506   5.672  10.662 -0.4351 -0.0947  0.1570
 7011W        W11062   9.049   7.639   0.201 -0.1134 -0.2084  0.0905
 7012W        W11063   9.072   7.124   3.874  0.2109 -0.0167  0.0456
 7013W        W11064   7.012   9.534   1.301 -0.0684  0.0560 -0.0292
 7014W        W11065   9.924   2.542   1.085  0.0546 -0.1630 -0.2089
 7015W        W11066   3.248   7.199  11.473  0.2845  0.0255 -0.2486
 7016W        W11067   0.828   0.794   2.216 -0.1704 -0.0371  0.0438
 7017W        W11068   4.150   3.764  12.285  0.1691  0.1420  0.0753
 7018W        W11069   1.575   8.119  13.457  0.2762  0.2046  0.1343
 7019W        W11070   0.205   9.988  13.312 -0.1121  0.0327 -0.0252
 7020W        W11071   8.308   5.823  12.881  0.0400  0.1541 -0.2999
 7021W        W11072   5.030   7.809   4.371 -0.4461  0.2344  0.0856
 7022W        W11073   2.321   2.261  10.217  0.2758 -0.0610 -0.1543
 7023W        W11074   4.953  10.153   3.163 -0.0671 -0.2202 -0.1146
 7024W        W11075   7.306   3.417  11.766 -0.1839  0.1620 -0.0175
 7025W        W11076   1.944   3.668  12.992  0.1772  0.1121 -0.1252
 7026W        W11077   9.063   0.600   5.656  0.0644 -0.1406 -0.2063
 7027W        W11078   2.606   5.271  10.659  0.2651  0.0542 -0.2330
 7028W        W11079   0.757   5.173   0.357  0.2544 -0.1452  0.0217
 7029W        W11080   6.097   4.987   0.835 -0.0819  0.1308 -0.1419
 7030W        W11081   7.500   0.256  11.748  0.1600 -0.2048  0.0123
 7031W        W11082   2.001   8.940  11.327 -0.1651 -0.3877 -0.3576
 7032W        W11083   6.403  10.098   9.292 -0.0426  0.4103 -0.1785
 7033W        W11084   1.267   9.107   9.657 -0.1809 -0.0859 -0.2277
 7034W        W11085   8.958   5.768  13.452 -0.1569  0.0232  0.2507
 7035W        W11086   8.647   6.383   0.196  0.2529  0.0498  0.1386
 7036W        W11087   6.284   6.324   2.922 -0.2001 -0.0638  0.1359
 7037W        W11088   4.568   1.584   5.333  0.3171 -0.2325 -0.0074
 7038W        W11089   5.811   6.986   3.950  0.1932 -0.1698  0.0561
 7039W        W11090   7.108   3.261   2.886  0.1503  0.0968 -0.3237
 7040W        W11091   1.114   2.107   9.143  0.1624  0.0695 -0.1607
 7041W        W11092   8.062   1.633   4.373  0.2502  0.2219  0.1792
 7042W        W11093   4.304   8.518  11.751  0.1233  0.0995 -0.1893
 7043W        W11094   5.437   2.026   1.061  0.0493  0.1569  0.2613
 7044W        W11095   1.165   4.138  12.442  0.1988  0.0209  0.2850
 7045W        W11096   7.399   3.899  13.492  0.3121 -0.1043  0.0286
 7046W        W11097   4.722   5.370   1.966  0.1830  0.1454 -0.2364
 7047W        W11098   9.158   5.672  11.200 -0.0098 -0.1906 -0.0171
 7048W        W11099   3.608   3.816   4.242  0.1884 -0.0016 -0.2939
 7049W        W11100   0.938   5.718  10.156 -0.2444 -0.0577  0.0943
 7050W        W11101   9.721   4.370   4.975 -0.0298 -0.1267 -0.0203
 7051W        W11102   4.590   0.195   3.895 -0.1862 -0.2338  0.0758
 7052W        W11103   1.013   8.400   0.422 -0.1044 -0.0002  0.1616
 7053W        W11104   0.357   7.737  12.872 -0.1204 -0.2115  0.0956
 7054W        W11105  10.044   1.674   2.694 -0.0333 -0.0927 -0.1438
 7055W        W11106   1.853   7.242  11.356  0.0875 -0.0366  0.1727
 7056W        W11107   7.472   3.422   3.781 -0.0843  0.0480 -0.1027
 7057W        W11108   0.824   4.911  12.187  0.2339 -0.2819  0.1460
 7058W        W11109   8.378   9.871  11.771 -0.5201  0.1029 -0.0460
 7059W        W11110   5.032   9.879  11.770  0.3104 -0.3740  0.0045
 7060W        W11111   7.754   2.380   5.023  0.1863  0.0194 -0.0484
 7061W        W11112   1.196   6.816  13.567  0.1824 -0.1048  0.1459
 7062W        W11113   4.279   5.170   9.659 -0.0433 -0.0254  0.1521
 7063W        W11114   2.522   8.024   0.275  0.1491 -0.2628 -0.0134
 7064W        W11115   2.453   8.439   0.739 -0.0451  0.0009  0.0087
 7065W        W11116   9.705   0.862  11.269 -0.1176  0.0560  0.0738
 7066W        W11117   6.426   6.156  11.483 -0.0169 -0.0061  0.2411
 7067W        W11118   2.436   2.138   1.604 -0.0346  0.1950 -0.1269
 7068W        W11119   3.723   4.396   9.292  0.0025  0.0195  0.1584
 7069W        W11120   2.648   6.746  12.021 -0.1973 -0.0101 -0.1216
 7070W        W11121  10.309   0.297   5.381 -0.0787  0.3180  0.4334
 7071W        W11122   7.089   6.982   2.760 -0.2130 -0.2040  0.1407
 7072W        W11123   4.380   0.085  11.018 -0.1105 -0.0677 -0.1683
 7073W        W11124   6.802   2.813   0.633 -0.1347 -0.3057 -0.0457
 7074W        W11125   5.913   4.550   2.192 -0.2600  0.1708  0.0440
 7075W        W11126   3.432   0.407   0.126  0.1840 -0.0609 -0.1573
 7076W        W11127   1.294   1.860  12.547 -0.1337 -0.1471 -0.1688
 7077W        W11128   0.671   0.057   5.800 -0.0357  0.0220 -0.0833
 7078W        W11129   9.322   5.761  12.989 -0.0424 -0.0377  0.1424
 7079W        W11130   5.762   2.850  11.627  0.0763  0.0426 -0.1659
 7080W        W11131   4.561   1.500  11.428  0.0314 -0.2063  0.0383
 7081W        W11132   3.802   7.704   3.775 -0.3944 -0.0307  0.2077
 7082W        W11133   2.883   7.194  12.699  0.1185  0.0227 -0.1576
 7083W        W11134   4.732  10.289  10.224 -0.0805  0.3845 -0.1408
 7084W        W11135   7.837   4.606  11.579 -0.1542 -0.1131 -0.0501
 7085W        W11136   6.538   0.405  10.557 -0.1167  0.3753 -0.0672
 7086W        W11137   7.536   4.790  10.211 -0.1472 -0.2520  0.1800
 7087W        W11138   1.860  10.299  11.790  0.2043 -0.1606 -0.0642
 7088W        W11139   6.415   6.736   8.966  0.1635 -0.3769 -0.2506
 7089W        W11140   3.716   9.906   0.423  0.2333 -0.2684 -0.4412
 7090W        W11141   6.220  10.095  12.161  0.3403  0.1317 -0.0757
 7091W        W11142   9.987   0.977   6.057  0.0165  0.2000  0.0412
 7092W        W11143   4.778   5.186   2.550 -0.2168 -0.4329 -0.0521
 7093W        W11144   0.077   3.491  12.075  0.0475 -0.0084  0.2474
 7094W        W11145   6.336   3.820   1.081 -0.3327 -0.2166  0.0197
 7095W        W11146  10.318   0.173  11.632  0.2220  0.2857  0.1197
 7096W        W11147   6.928   7.507   0.357 -0.2904 -0.3734  0.0390
 7097W        W11148   0.836   8.128  12.657  0.2809 -0.1251 -0.0737
 7098W        W11149   9.176   1.154   0.773 -0.0540 -0.4429 -0.3280
 7099W        W11150   0.519   8.647   2.646  0.3398  0.0173  0.0464
 7100W        W11151   3.693   6.082   4.226 -0.1483  0.2992  0.0568
 7101W        W11152   9.798   8.426   0.102  0.0020 -0.0098  0.0133
 7102W        W11153   5.670   6.710  13.536  0.0087 -0.2673 -0.1781
 7103W        W11154   1.693   5.199   3.137  0.0991 -0.0248  0.1537
 7104W        W11155   3.136   8.671   9.859  0.2709  0.0048  0.0028
 7105W        W11156   1.919   6.893  12.752 -0.1049  0.0784  0.1379
 7106W        W11157   2.121   4.648  13.504  0.0444  0.1624  0.2950
 7107W        W11158   3.344  10.137   2.835 -0.2102 -0.1411  0.2106
 7108W        W11159   2.065   2.756  10.048  0.0249 -0.1076 -0.1910
 7109W        W11160   3.329   9.041   1.584  0.1407 -0.1625  0.1947
 7110W        W11161   9.785   3.909  10.776  0.0872 -0.0367  0.0221
 7111W        W11162   0.531   9.898   1.052  0.3770 -0.1317 -0.3083
 7112W        W11163   6.662   7.522   4.200  0.0493 -0.0527  0.2067
 7113W        W11164   8.711   4.172   2.676 -0.2423 -0.1610 -0.1503
 7114W        W11165   0.718   0.920   3.972 -0.1293  0.3210  0.4908
 7115W        W11166   4.868   8.908   9.629 -0.0770  0.1608 -0.1511
 7116W        W11167   1.011   8.212  11.893  0.0052 -0.1292  0.1351
 7117W        W11168   2.000   0.278   2.851 -0.1687  0.1887 -0.2274
 7118W        W11169   0.644   7.956   2.250 -0.0880 -0.1094  0.0976
 7119W        W11170   0.185   5.923   2.845  0.3103 -0.1591  0.3049
 7120W        W11171   5.310   0.039  11.886  0.0990 -0.2959 -0.2294
 7121W        W11172   6.093  10.217   4.231 -0.1832  0.0517  0.2703
 7122W        W11173   8.429   1.403   1.144 -0.0117 -0.0627 -0.1552
 7123W        W11174   1.642   4.747   0.028  0.3325 -0.0066  0.2599
 7124W        W11175   0.735   0.723  11.099 -0.0662  0.1252  0.0932
 7125W        W11176   5.399   2.175   1.546 -0.0362 -0.0899 -0.0949
 7126W        W11177   0.744   2.335  13.449 -0.0223  0.1630 -0.0318
 7127W        W11178   7.361   6.574   0.043  0.0157 -0.1824  0.1378
 7128W        W11179   1.189   1.528   5.223 -0.0997  0.2495 -0.1296
 7129W        W11180   0.945   4.946   4.206 -0.0057  0.1004  0.3192
 7130W        W11181   5.958   2.210   0.537  0.0502  0.2412 -0.1434
 7131W        W11182   0.895   4.523   1.289 -0.4293  0.1968 -0.0335
 7132W        W11183   4.858   1.189  11.140 -0.0309 -0.0569  0.2685
 7133W        W11184   9.558   1.854   3.735  0.0208 -0.1372 -0.1201
 7134W        W11185   6.937   3.378   1.971 -0.3386  0.1377  0.3747
 7135W        W11186   3.015   3.831   9.808 -0.1368 -0.2218  0.3094
 7136W        W11187   1.593   9.517   3.419  0.0037  0.3572 -0.0202
 7137W        W11188   1.335   5.427   2.816 -0.2508 -0.0633 -0.0950
 7138W        W11189   8.130   8.664   2.484  0.1018  0.1797  0.3128
 7139W        W11190   1.513   4.509  12.634  0.0371 -0.2068  0.0262
 7140W        W11191   2.982   6.216   0.791 -0.1897 -0.3487 -0.0678
 7141W        W11192   9.922   5.655   4.050  0.0956  0.0033 -0.2412
 7142W        W11193   0.334   6.211   5.039  0.0961  0.2465 -0.0802
 7143W        W11194   0.754   7.968   0.430 -0.0157 -0.2573  0.1537
 7144W        W11195   7.663   0.469  12.441 -0.1493 -0.0253 -0.2573
 7145W        W11196   1.078   9.914  11.199  0.0701  0.1172  0.2410
 7146W        W11197   1.220   0.901   0.087  0.0782  0.2615  0.1386
 7147W        W11198  10.016   1.836  11.709 -0.0113 -0.0550 -0.1278
 7148W        W11199   8.877   7.844   4.552 -0.4607 -0.3241 -0.0730
 7149W        W11200   9.487   4.679   4.025  0.3181  0.2824  0.0493
 7150W        W11201   6.975   2.410   2.750  0.1267 -0.0158 -0.1033
 7151W        W11202   1.553   3.823   0.233  0.1846  0.1554 -0.3241
 7152W        W11203   6.396   5.416   2.049  0.1204 -0.3132  0.4489
 7153W        W11204   3.954   7.601   0.156  0.1929 -0.0345 -0.1169
 7154W        W11205   1.180   1.699  10.008 -0.0310  0.2019 -0.1383
 7155W        W11206   3.273   0.830   2.537  0.5046  0.0038  0.2330
 7156W        W11207   4.680   3.630  10.062 -0.0108 -0.4154 -0.0006
 7157W        W11208   5.248   6.254  11.797 -0.2480  0.2178  0.0562
 7158W        W11209   5.996   6.256   3.320  0.0625  0.1906 -0.1632
 7159W        W11210   9.997   3.550   4.543  0.1504  0.0540  0.0096
 7160W        W11211   5.487   9.435   3.905  0.1987 -0.0295  0.0898
 7161W        W11212   8.664   4.632   3.095 -0.2412 -0.2272  0.0704
 7162W        W11213   3.682   9.735  12.296  0.2082  0.1127  0.1651
 7163W        W11214   9.643   7.953   4.140 -0.2327 -0.0784 -0.2099
 7164W        W11215   0.349   1.027  11.647  0.0934  0.1622  0.2348
 7165W        W11216   2.525   9.342   0.713 -0.0661 -0.0631  0.0317
 7166W        W11217   9.708   6.438   3.292 -0.0091  0.0621  0.2347
 7167W        W11218   6.764   7.905   3.469 -0.0441 -0.1348 -0.2993
 7168W        W11219   0.076   8.406   2.824 -0.4178 -0.3086  0.1580
 7169W        W11220   5.418   0.513   9.122  0.3145 -0.1195  0.1269
 7170W        W11221   3.129   8.352  12.535 -0.0859 -0.6213 -0.0482
 7171W        W11222   5.012   0.215   0.576 -0.0438  0.1476  0.0370
 7172W        W11223   9.999   8.537   4.883  0.3407  0.3143  0.2505
 7173W        W11224   9.333   3.089   0.729 -0.0414 -0.1558 -0.3314
 7174W        W11225   1.668   9.141   2.899  0.2333  0.1534  0.0282
 7175W        W11226   6.777   4.633  11.482 -0.0704 -0.3135  0.0679
 7176W        W11227   6.464   6.792   3.558  0.2809 -0.0955 -0.2136
 7177W        W11228   2.371   0.238   3.342 -0.2519  0.0998 -0.1190
 7178W        W11229   3.620   8.480   2.477  0.3852  0.2694 -0.1063
 7179W        W11230   1.254   0.681   1.736  0.0880 -0.0229 -0.0924
 7180W        W11231   1.875   2.138   2.666 -0.0325  0.0286 -0.3207
 7181W        W11232   7.530   9.639  13.440  0.1411  0.0139  0.1881
 7182W        W11233   0.173   2.942   9.367  0.2675 -0.3270 -0.0610
 7183W        W11234   1.489   1.436  12.759  0.2257  0.1921  0.0403
 7184W        W11235   5.574   9.479   1.039  0.0876 -0.0809  0.1565
 7185W        W11236  10.230   3.468   1.303 -0.2265  0.1885 -0.0800
 7186W        W11237   5.710   4.578  12.143  0.1113  0.1779  0.0047
 7187W        W11238   9.939   9.063   0.597 -0.4336 -0.0850 -0.3266
 7188W        W11239   7.661   3.103  10.814 -0.3469 -0.0414 -0.2273
 7189W        W11240   0.711   6.504  12.720  0.4215 -0.0159  0.0256
 7190W        W11241   8.794   1.939  12.210  0.1327  0.1237  0.0348
 7191W        W11242   9.486   1.691   4.862  0.0377  0.1635  0.1738
 7192W        W11243   5.488   5.436   2.360  0.1914 -0.2856  0.0363
 7193W        W11244   8.450   6.272   1.908  0.2684 -0.0726  0.0520
 7194W        W11245   5.867   9.166   8.999 -0.4054  0.1167  0.1410
 7195W        W11246   2.219   9.141  10.499 -0.0858  0.1109 -0.0759
 7196W        W11247   6.784   1.397  12.353  0.2045 -0.1017  0.1152
 7197W        W11248   8.839   8.394   2.485  0.0452 -0.2422 -0.2775
 7198W        W11249   0.736   4.958   5.112 -0.1184 -0.1911  0.0484
 7199W        W11250   7.881   9.151  12.149 -0.0825  0.0521 -0.2589
 7200W        W11251   2.133   9.115   4.706 -0.0563 -0.3676 -0.2385
 7201W        W11252   5.561   7.493   1.496 -0.0998 -0.0181  0.0390
 7202W        W11253   0.027   9.659   3.569  0.1913 -0.1883  0.3763
 7203W        W11254   4.402   6.986  12.319  0.1217 -0.1271  0.0741
 7204W        W11255   5.764   8.091  11.690 -0.1115  0.1145  0.4137
 7205W        W11256   4.515   7.563   1.292 -0.0921  0.0835 -0.0034
 7206W        W11257   2.949   1.389  10.492 -0.3864  0.0591 -0.2196
 7207W        W11258   8.801   9.354  12.458  0.0778 -0.1873  0.1156
 7208W        W11259   9.023   5.283  11.560  0.0413  0.2743  0.1209
 7209W        W11260   4.904   3.608  12.718 -0.0442 -0.2187  0.2596
 7210W        W11261   0.715   0.599   1.753 -0.2272  0.3938  0.0250
 7211W        W11262   2.788   0.551   1.699  0.2133  0.0164 -0.2105
 7212W        W11263   9.345   3.852  10.455 -0.3603 -0.0556 -0.2566
 7213W        W11264   1.971   4.801   5.635  0.1796 -0.1494  0.0190
 7214W        W11265   4.804   9.784   1.367 -0.0501 -0.0258 -0.3277
 7215W        W11266   3.910   1.894   0.486 -0.2866 -0.1253  0.1605
 7216W        W11267   1.151   2.798  11.696 -0.0333 -0.5599 -0.2527
 7217W        W11268   2.184   6.299   3.720 -0.2594  0.0487 -0.0967
 7218W        W11269   9.924   8.299   9.843 -0.4462  0.0937  0.0535
 7219W        W11270   3.716   4.009  13.377 -0.0492 -0.0799 -0.0883
 7220W        W11271   1.664   3.369   3.057 -0.0033  0.1470  0.2307
 7221W        W11272   8.477   0.288   1.332 -0.0205 -0.1097  0.1801
 7222W        W11273   8.700   2.750   1.242 -0.1729  0.1893  0.5172
 7223W        W11274   6.592   2.829   4.322  0.2323  0.3031 -0.0532
 7224W        W11275   5.008   8.599   9.201  0.0535  0.1290  0.1922
 7225W        W11276   8.572   1.896  10.318 -0.0751 -0.0796  0.2959
 7226W        W11277   9.390   7.723  12.927  0.1901  0.1778 -0.2667
 7227W        W11278   1.320   7.005   0.443 -0.1242 -0.2830  0.0096
 7228W        W11279   3.512   5.324  11.413 -0.0870  0.1988 -0.1525
 7229W        W11280   9.680   5.152   4.167  0.1989  0.3211 -0.2257
 7230W        W11281   8.520   8.503  13.327 -0.2852 -0.3271  0.0730
 7231W        W11282   9.702   3.098  12.632  0.2609 -0.1640 -0.0532
 7232W        W11283   8.048   3.980   4.303 -0.4137 -0.2602  0.1292
 7233W        W11284   3.848   3.945   2.823 -0.1371 -0.1919  0.0968
 7234W        W11285   8.258   4.883   0.873 -0.2113  0.0708 -0.3308
 7235W        W11286   7.443   8.163   9.867 -0.5406  0.0376 -0.4892
 7236W        W11287   4.027   8.060   2.547  0.2759  0.0497 -0.0627
 7237W        W11288   5.662   0.432   1.068  0.2977 -0.0777  0.0473
 7238W        W11289   6.857   2.344   2.057 -0.2589 -0.2220 -0.0353
 7239W        W11290   3.075   6.036   4.570 -0.2290 -0.0630 -0.0065
 7240W        W11291   4.326   3.123   1.802  0.3117 -0.1538 -0.1139
 7241W        W11292   9.873   0.604  12.744 -0.1707  0.0335  0.2160
 7242W        W11293   3.614   8.201   4.491  0.3283 -0.1848 -0.2481
 7243W        W11294   7.383   9.410  12.956  0.1709 -0.0118  0.2754
 7244W        W11295   6.610   7.347   2.109 -0.2623 -0.0361  0.1288
 7245W        W11296   1.299   9.070   3.489  0.3529 -0.0677  0.2472
 7246W        W11297   1.029   7.472   0.466 -0.1603  0.2024 -0.0393
 7247W        W11298   0.004   9.877  10.130 -0.1331 -0.1193 -0.0639
 7248W        W11299   2.497   6.517   2.096 -0.0580  0.0845 -0.1547
 7249W        W11300   9.540   2.082  12.692  0.0828  0.1315 -0.1098
 7250W        W11301   5.867   2.364  11.637  0.3355  0.3401  0.5264
 7251W        W11302   3.098   2.086   3.772 -0.1085  0.5216 -0.3700
 7252W        W11303   9.863   2.920   9.445  0.0311 -0.1633 -0.1413
 7253W        W11304   9.039   4.169  10.634  0.2970 -0.1269 -0.1724
 7254W        W11305   0.947   7.252  12.197  0.1008  0.2776 -0.0578
 7255W        W11306   8.888   0.275   4.276  0.0210 -0.2407 -0.3075
 7256W        W11307   4.845   4.020  11.697 -0.0720 -0.6745  0.2359
 7257W        W11308   0.854   0.494   4.281  0.4837  0.3002 -0.1196
 7258W        W11309   8.558   7.314  11.321 -0.0451 -0.0828 -0.2278
 7259W        W11310   6.409   4.061   1.520  0.4193 -0.1578  0.0454
 7260W        W11311   8.066   3.517   0.927 -0.1183 -0.3903  0.1559
 7261W        W11312   3.899   5.334  12.921 -0.0464 -0.1250 -0.4178
 7262W        W11313  10.254   5.267   4.162 -0.2425 -0.0042 -0.0490
 7263W        W11314   0.319   7.822   1.081 -0.3364  0.1487 -0.1321
 7264W        W11315   4.368   4.514   2.897 -0.0366  0.0495 -0.1031
 7265W        W11316  10.091   3.999   4.709  0.1386 -0.2192  0.1020
 7266W        W11317   7.653   2.132   0.795 -0.0894  0.1723 -0.1940
 7267W        W11318   4.707   5.925   1.834 -0.0753 -0.0118  0.0490
 7268W        W11319   9.851   9.511   1.056  0.0231 -0.4270  0.1493
 7269W        W11320   0.459   5.050   9.280 -0.0581  0.0597 -0.1764
 7270W        W11321   8.338   7.230   2.993 -0.1547 -0.0772 -0.4434
 7271W        W11322   6.175   5.254   2.989 -0.2703  0.2185 -0.1247
 7272W        W11323   0.965   6.529   9.555 -0.1166  0.0692 -0.1964
 7273W        W11324   8.990   1.535   1.584 -0.1266  0.3055 -0.0997
 7274W        W11325   2.784   2.501   2.659 -0.0804  0.0216 -0.0968
 7275W        W11326   8.579   6.377   9.726 -0.1150  0.0918 -0.1171
 7276W        W11327   0.611   7.484  12.488 -0.0580  0.1017 -0.1057
 7277W        W11328   2.230   9.945   5.780 -0.1026  0.0116 -0.0151
 7278W        W11329   4.369   9.422  11.214  0.2227  0.1195  0.2592
 7279W        W11330   1.548   2.948   2.332  0.0041 -0.3130  0.2310
 7280W        W11331   1.388   8.012  12.772 -0.5426 -0.0139 -0.0222
 7281W        W11332   4.332   4.745   2.391 -0.2960 -0.1311  0.0925
 7282W        W11333   5.433   3.635   0.747  0.1601  0.1157  0.0836
 7283W        W11334   8.141   5.880   9.235 -0.1249 -0.0792 -0.0113
 7284W        W11335   6.415   4.727  12.939  0.2578 -0.0549  0.1659
 7285W        W11336   5.007  10.064   4.586  0.0954 -0.3019  0.2490
 7286W        W11337   8.554   5.494   2.528 -0.1636 -0.2330  0.0492
 7287W        W11338   3.191   0.438  10.515 -0.0389  0.2254  0.1175
 7288W        W11339   3.561   1.962  11.431  0.2760  0.2612 -0.0041
 7289W        W11340   3.578   1.518  11.171 -0.1365 -0.1882 -0.1637
 7290W        W11341   9.102   5.978   3.965  0.1583  0.3493 -0.1616
 7291W        W11342   9.515   2.777   0.374  0.1896  0.1724 -0.0240
 7292W        W11343   7.414   3.808  13.026 -0.1329 -0.4675  0.2488
 7293W        W11344   8.690   0.012  11.136  0.0735  0.1490  0.1341
 7294W        W11345   9.076   1.959  10.359  0.1774  0.0094 -0.0658
 7295W        W11346   1.088   2.168   4.144  0.0928 -0.0433 -0.0495
 7296W        W11347   6.851   2.541  11.460  0.1299 -0.1181  0.0982
 7297W        W11348   8.370   3.174  11.096 -0.0047 -0.1776  0.1406
 7298W        W11349   5.962   3.161  12.166 -0.1557 -0.1928 -0.1165
 7299W        W11350   2.067   6.591   9.924  0.2911 -0.4063 -0.0371
 7300W        W11351   2.885   3.948   2.738  0.0638 -0.2070  0.1868
 7301W        W11352   3.594   3.552   3.787  0.3133  0.1181 -0.1641
 7302W        W11353   0.432  10.152  10.188  0.1889 -0.0355 -0.2859
 7303W        W11354   4.169   9.173   9.068  0.0068 -0.1149 -0.0576
 7304W        W11355   0.793   5.327   3.837 -0.1281  0.3468  0.1194
 7305W        W11356   9.539   9.877   4.899 -0.1368  0.1078 -0.2523
 7306W        W11357   2.796   7.636   5.120  0.1993 -0.2355  0.0599
 7307W        W11358   8.510   4.710  12.096 -0.0308  0.0498 -0.1234
 7308W        W11359   8.308   6.154  10.955 -0.0497  0.0026 -0.1974
 7309W        W11360   6.292   7.226   9.267  0.0572 -0.1793 -0.2920
 7310W        W11361   5.198   1.797   0.141  0.2062  0.0015 -0.2307
 7311W        W11362   5.055   7.776   3.470  0.1185 -0.1945  0.1719
 7312W        W11363   9.544   8.324   0.587 -0.1157  0.3581  0.0146
 7313W        W11364   4.512   3.965   2.286 -0.1424 -0.0577  0.1963
 7314W        W11365   4.526   9.264  10.362  0.1922  0.0412  0.0712
 7315W        W11366   1.126   9.522   4.950  0.0771 -0.0519  0.2106
 7316W        W11367   1.477   9.076  12.134 -0.3746 -0.0375 -0.0887
 7317W        W11368   8.155   2.200   3.757  0.0916  0.0233  0.2064
 7318W        W11369   6.212   9.790   9.722 -0.0691 -0.1141 -0.3354
 7319W        W11370   8.292   4.900  13.000  0.1219  0.0485  0.0892
 7320W        W11371   0.125   9.485  13.251  0.4314  0.0105  0.2337
 7321W        W11372   6.560   0.684   9.688  0.0139 -0.0968  0.1802
 7322W        W11373   9.775   9.864  11.404  0.2265 -0.0583 -0.2898
 7323W        W11374   8.965   6.165   0.701  0.1083  0.1093  0.1762
 7324W        W11375   9.718   6.906   4.618 -0.1858  0.0587  0.0421
 7325W        W11376   4.766   0.802  12.398 -0.2197  0.0976 -0.0321
 7326W        W11377   5.261   8.410   2.728 -0.3465  0.1808  0.0488
 7327W        W11378   2.760   8.515   5.134 -0.0231  0.1914  0.4762
 7328W        W11379   5.987   5.751   8.330  0.0473 -0.2342  0.0797
 7329W        W11380   9.375   6.258   2.179 -0.0089  0.0056 -0.1443
 7330W        W11381   0.355   3.169   1.213 -0.0039 -0.1497  0.2679
 7331W        W11382   8.833   0.106  12.231 -0.0775  0.3569  0.2120
 7332W        W11383   6.466   5.102   6.001 -0.0654 -0.1547  0.2894
 7333W        W11384   2.821   9.019  10.214 -0.1699  0.1864 -0.0468
 7334W        W11385   8.352   5.579   1.050  0.2433 -0.0728 -0.0193
 7335W        W11386   9.006   4.179   3.262  0.1227  0.1661 -0.1703
 7336W        W11387   6.571   8.057   0.200  0.2393  0.0947  0.2524
 7337W        W11388   2.205   3.390  13.280 -0.0614 -0.1608 -0.0153
 7338W        W11389   5.734   1.472  10.431  0.0048 -0.2600 -0.1133
 7339W        W11390   3.198   7.951  11.236  0.2008 -0.0819  0.4541
 7340W        W11391   2.053   4.749  12.963 -0.0143  0.0549  0.0187
 7341W        W11392   1.329   2.438  10.482 -0.1864 -0.2611 -0.2123
 7342W        W11393   2.660   9.182   1.155 -0.2602 -0.0562 -0.3465
 7343W        W11394   1.274   0.891   5.286 -0.0856 -0.0646  0.2029
 7344W        W11395   0.194   2.713   3.821 -0.1011 -0.2014 -0.0371
 7345W        W11396   3.543   5.648   1.497  0.3164 -0.1411 -0.1325
 7346W        W11397   4.521   9.150   1.859 -0.3085 -0.1063  0.1918
 7347W        W11398   0.359   4.602   3.265 -0.1002 -0.0035 -0.0422
 7348W        W11399   4.135   3.564  12.779  0.1447 -0.1768 -0.0378
 7349W        W11400   7.212   1.481   2.349  0.0326 -0.1888  0.1117
 7350W        W11401   2.554   5.632  12.622  0.0740 -0.0738  0.0955
 7351W        W11402   4.166   1.914   0.896 -0.1596  0.2009 -0.1026
 7352W        W11403   8.726   3.240   3.112  0.0741  0.1396  0.0206
 7353W        W11404   5.528   3.588  10.378  0.3507  0.0802  0.0107
 7354W        W11405   5.037   5.218   0.652  0.1056 -0.0388  0.2920
 7355W        W11406   3.957   7.973   1.169 -0.1114 -0.3175 -0.4037
 7356W        W11407   0.049   8.063  12.424 -0.2548  0.1626  0.1775
 7357W        W11408   9.936   3.910  13.147  0.2145 -0.1057  0.2260
 7358W        W11409   2.251   8.692   4.286  0.0685 -0.2792 -0.1055
 7359W        W11410   9.932   5.068   0.865  0.0310  0.3595 -0.1252
 7360W        W11411   3.134   9.618  11.754 -0.2455 -0.1972 -0.1772
 7361W        W11412   5.287   6.773  11.699 -0.2575  0.0811  0.0972
 7362W        W11413   2.351   2.280   2.371 -0.0989  0.2437  0.0477
 7363W        W11414   9.407   4.927   9.962  0.0604  0.3979  0.1779
 7364W        W11415   9.244   4.635  11.911  0.0449  0.1717 -0.1517
 7365W        W11416   8.504   9.546   2.526  0.3292  0.0313  0.0848
 7366W        W11417   3.791   6.323   0.328  0.0453  0.1807 -0.3016
 7367W        W11418   4.419   5.451   0.493  0.1995 -0.1776  0.2323
 7368W        W11419   7.213   1.121   0.058 -0.5947 -0.1758 -0.1056
 7369W        W11420   4.015   0.410   0.786  0.0917  0.1408  0.0436
 7370W        W11421   3.599   4.368   2.748  0.2373  0.3307  0.1963
 7371W        W11422   4.747   2.718   4.600  0.0035 -0.1201 -0.0464
 7372W        W11423   6.906   6.044   9.331 -0.1090  0.1818  0.1977
 7373W        W11424   9.029   6.794   5.081  0.1440 -0.1336 -0.2189
 7374W        W11425   4.311   9.671  10.655  0.0691  0.0965 -0.0927
 7375W        W11426  10.135   4.783  12.575  0.0867 -0.1156  0.0949
 7376W        W11427   1.516   0.053  10.909  0.1661 -0.0953  0.3705
 7377W        W11428   4.057   6.423  11.778  0.1396  0.1228  0.0163
 7378W        W11429   4.049   8.143   9.140  0.2774 -0.1355 -0.0869
 7379W        W11430   1.690   9.462   2.143 -0.1703  0.2954 -0.2898
 7380W        W11431   5.577   2.528   0.727 -0.1966  0.2245  0.0216
 7381W        W11432   2.925   7.261   9.022  0.0322 -0.2551  0.2634
 7382W        W11433  10.184   2.960   4.179  0.4473  0.1018  0.0100
 7383W        W11434   9.637   9.109   1.841 -0.3460  0.0881 -0.3317
 7384W        W11435   0.349   5.735  10.942  0.1522 -0.4882 -0.3536
 7385W        W11436   3.009   1.909   5.046  0.1424  0.2067  0.0708
 7386W        W11437   2.147   9.035   1.399 -0.1172  0.0002  0.2418
 7387W        W11438   0.861   6.063   5.040  0.0787  0.0443  0.1273
 7388W        W11439   8.653   9.560   1.139 -0.2789  0.2743 -0.0996
 7389W        W11440  10.305  10.010   0.492 -0.2525 -0.0937  0.0161
 7390W        W11441   1.869   0.190   1.766 -0.0306  0.2677  0.0203
 7391W        W11442   4.741   1.306  10.460 -0.2053  0.2206 -0.0093
 7392W        W11443   4.220   2.341   0.378 -0.1804  0.2339 -0.1887
 7393W        W11444   6.202   7.353  12.698  0.3227  0.5542 -0.1355
 7394W        W11445  10.237   0.820   1.532  0.2157  0.1169  0.3191
 7395W        W11446   7.584   7.899   2.487  0.2049 -0.0645  0.3340
 7396W        W11447   9.173   2.705   2.102 -0.2907 -0.0079 -0.1180
 7397W        W11448   8.115   9.307   9.969 -0.1175 -0.1244 -0.0384
 7398W        W11449   5.116   2.365   0.798 -0.0177  0.2453  0.1379
 7399W        W11450   6.370   5.673   3.307 -0.3196 -0.2024  0.2367
 7400W        W11451   2.379   7.877   3.649  0.2242  0.1926  0.4470
 7401W        W11452   9.690   5.908   0.705 -0.2183 -0.0596 -0.0868
 7402W        W11453   7.505   7.556   3.670  0.0305 -0.1543  0.0917
 7403W        W11454   2.891   3.150  12.584 -0.1034 -0.2217 -0.2214
 7404W        W11455   8.853   9.808   3.930 -0.2308  0.2254 -0.1144
 7405W        W11456   2.794   5.213   0.710  0.2636 -0.0786  0.2682
 7406W        W11457   5.294   0.726   2.863  0.0644  0.1838 -0.2728
 7407W        W11458   1.432   3.153  10.367  0.0835  0.3421 -0.1084
 7408W        W11459   8.369   5.355   2.031 -0.1037  0.2097 -0.0665
 7409W        W11460   6.179   0.468   4.071 -0.1806  0.0844 -0.1938
 7410W        W11461   1.253   1.169  11.212 -0.0607 -0.2203 -0.1996
 7411W        W11462   0.082   8.851   1.534  0.2083  0.1131  0.0898
 7412W        W11463   1.292   3.138   4.452  0.0649 -0.1188  0.0988
 7413W        W11464   0.100   5.854   4.593  0.1865 -0.1581 -0.1285
 7414W        W11465   1.778   2.121  13.531  0.0558  0.3530 -0.0144
 7415W        W11466   4.869   7.595  10.566  0.3911  0.2531  0.1060
 7416W        W11467   8.013   4.529   1.696 -0.0835 -0.0906 -0.0716
 7417W        W11468   9.235   1.487   9.969 -0.0338 -0.2003  0.1030
 7418W        W11469   9.110   7.996   9.540 -0.2815  0.1679 -0.0916
 7419W        W11470   7.542   9.687   1.977 -0.0055 -0.0901  0.0691
 7420W        W11471   5.017   4.499   1.678 -0.1904 -0.0350 -0.0039
 7421W        W11472   1.397   1.249   9.550  0.0924 -0.2787 -0.1920
 7422W        W11473   5.882   7.958  10.517 -0.2559  0.3348 -0.1841
 7423W        W11474   5.011   9.659  13.149 -0.0800  0.2059 -0.3610
 7424W        W11475   0.880   1.952   2.054  0.2452  0.1861  0.1034
 7425W        W11476   8.482   5.895   0.001 -0.2417  0.0794  0.0111
 7426W        W11477   6.741   8.087  12.094  0.1226 -0.2630 -0.3670
 7427W        W11478   4.072   0.874   2.196  0.2368  0.1960 -0.1816
 7428W        W11479   4.366   1.718   1.636  0.4013 -0.0485  0.1197
 7429W        W11480   8.688   4.539  12.987 -0.0296 -0.1075  0.0305
 7430W        W11481   9.114   8.679   4.935 -0.0370 -0.5450  0.1911
 7431W        W11482   1.839   3.426   1.415 -0.0878 -0.0916 -0.0072
 7432W        W11483   2.323   6.677   4.977  0.0868  0.1353 -0.1563
 7433W        W11484   7.316   4.662   2.770  0.0763 -0.1001  0.0217
 7434W        W11485   2.949   5.058  10.355 -0.0386 -0.2665 -0.0561
 7435W        W11486   5.453   7.013   2.899 -0.2012  0.0394 -0.1634
 7436W        W11487   1.038   3.228  12.403  0.3295 -0.1037  0.1887
 7437W        W11488   9.109   2.057   1.728 -0.0201  0.0182  0.0161
 7438W        W11489   5.184   0.519   9.677 -0.3039  0.5252 -0.1771
 7439W        W11490   4.222   0.515   9.697 -0.2150  0.1427 -0.0656
 7440W        W11491   1.492   1.310   0.997  0.0579  0.2228  0.0519
 7441W        W11492   1.839   2.807  10.475 -0.0563  0.0619 -0.2657
 7442W        W11493   3.087   2.575   3.095  0.3053 -0.0954 -0.1645
 7443W        W11494   0.840   6.568  10.402 -0.2155 -0.4341 -0.2519
 7444W        W11495   5.511   4.218   2.360 -0.0733  0.1012  0.2913
 7445W        W11496   1.563   1.768   0.247  0.1503  0.0890  0.3019
 7446W        W11497   1.460   6.042   9.900  0.1957 -0.1450 -0.3074
 7447W        W11498   8.348   3.185   4.066 -0.0740 -0.0644 -0.0620
 7448W        W11499   0.485   3.797   0.645  0.0509 -0.1773 -0.2488
 7449W        W11500   5.199   6.344  11.244 -0.0236  0.1405  0.3469
 7450W        W11501   7.833   5.935   2.135  0.0742  0.1751  0.1842
 7451W        W11502   0.524  10.132   0.623  0.0418  0.1854  0.1583
 7452W        W11503   8.199   2.465  10.422  0.1049  0.0443  0.0519
 7453W        W11504   8.265   6.579  13.496 -0.0388 -0.0575 -0.1720
 7454W        W11505   5.545   5.167   1.900 -0.0834  0.0941 -0.0526
 7455W        W11506   0.709   2.774   2.784  0.1969 -0.1718  0.0434
 7456W        W11507   7.163   8.840   9.289  0.3648 -0.0420  0.0440
 7457W        W11508   0.887   5.316   9.820 -0.0839 -0.0694  0.4039
 7458W        W11509   0.423   2.724   1.391 -0.3699  0.1226 -0.0985
 7459W        W11510   8.873   2.596  12.109  0.0376 -0.2393 -0.1046
 7460W        W11511   6.620   8.870   3.717  0.1875  0.2057  0.0813
 7461W        W11512   0.678   8.592   2.131 -0.2256  0.1059  0.2504
 7462W        W11513  10.051   0.173   2.576 -0.0922 -0.3278 -0.0628
 7463W        W11514   9.607   4.075   4.092  0.1410 -0.1960 -0.0963
 7464W        W11515   3.218   1.248   3.396 -0.2692  0.0882  0.4032
 7465W        W11516   7.306   9.832   3.945 -0.3682  0.3645  0.0369
 7466W        W11517   3.649   8.221  12.408 -0.3282 -0.0049 -0.0397
 7467W        W11518   6.315   5.491  11.241  0.1058  0.3659  0.0995
 7468W        W11519   0.170   7.094  13.107  0.0994  0.1017  0.3273
 7469W        W11520   3.431   1.664   9.192  0.0655  0.3835 -0.0009
 7470W        W11521   0.313   3.269   3.856  0.2434 -0.3452  0.1005
 7471W        W11522   4.281   3.122  10.566 -0.1725  0.0179 -0.0689
 7472W        W11523   9.902   9.000   0.105  0.0865  0.4079 -0.1132
 7473W        W11524   7.855   8.235  12.617 -0.0452  0.0441  0.0212
 7474W        W11525   9.192   5.998   4.462 -0.4671 -0.1678 -0.1986
 7475W        W11526   3.217   2.405   9.837 -0.1214 -0.2195  0.0662
 7476W        W11527   6.804   8.304  11.602 -0.0455 -0.0133  0.1845
 7477W        W11528   0.099   3.653   3.610 -0.0239  0.0432  0.3467
 7478W        W11529   8.722   6.365  11.305 -0.2945  0.0463  0.0622
 7479W        W11530   5.430   0.272   2.664  0.0144  0.2050  0.0835
 7480W        W11531   8.547   4.433   0.793 -0.1004 -0.2757 -0.0929
 7481W        W11532   2.049   1.639   3.682 -0.1048  0.0035  0.0147
 7482W        W11533   8.612   2.235  11.821 -0.1420 -0.0969 -0.1770
 7483W        W11534   4.100   4.765  12.720  0.0337 -0.1020  0.1246
 7484W        W11535   7.351   0.981   4.196 -0.4003 -0.0837  0.0266
 7485W        W11536   0.520   9.319  12.456 -0.0738  0.2658  0.2734
 7486W        W11537  10.018   1.150  12.135  0.2844 -0.0474  0.2541
 7487W        W11538   2.186  10.092   2.051  0.2088  0.2156  0.1071
 7488W        W11539  10.150   1.197   9.927  0.1039 -0.0188 -0.3522
 7489W        W11540   2.498   5.110  11.177  0.2243 -0.0709 -0.1962
 7490W        W11541   6.901   1.470   9.915  0.0964 -0.0221 -0.1439
 7491W        W11542   5.391   9.694  11.381  0.2407 -0.2100  0.0392
 7492W        W11543   0.191   9.113   3.854 -0.1105 -0.2899  0.0375
 7493W        W11544   0.537   4.290  10.688 -0.0792  0.1557  0.0623
 7494W        W11545   4.523   8.332  10.093 -0.2563 -0.0500 -0.1370
 7495W        W11546   9.404   1.393   3.336  0.1446 -0.3502 -0.3095
 7496W        W11547   1.980   9.532  11.288  0.1275 -0.0925  0.0224
 7497W        W11548   9.551   5.210   1.318 -0.0987  0.0107  0.0446
 7498W        W11549   4.613   2.423  11.305 -0.2389  0.1008 -0.0164
 7499W        W11550   0.531   3.373  11.380  0.0298  0.1930 -0.2289
 7500W        W11551   0.503   4.452  11.285  0.0292  0.1230  0.2615
 7501W        W11552   2.844   5.360  11.974  0.1365  0.1553  0.1645
 7502W        W11553   0.185   9.463  10.389 -0.0262 -0.0227 -0.0172
 7503W        W11554   4.860   8.027   0.141  0.2864  0.0019  0.1154
 7504W        W11555   2.594   4.724  12.784  0.4249  0.0535 -0.2318
 7505W        W11556   7.125   3.651   3.539  0.0301  0.0091  0.1961
 7506W        W11557   6.773   5.182   0.712 -0.1728  0.0702  0.1297
 7507W        W11558   5.700   5.383   8.493 -0.1029 -0.1125  0.4779
 7508W        W11559   7.977   1.209   0.934  0.0467  0.1820  0.0435
 7509W        W11560   4.819   4.770   2.831  0.2857 -0.1658 -0.1077
 7510W        W11561   4.631   2.960   2.857 -0.1301  0.1389 -0.0921
 7511W        W11562   1.193   0.760  10.741 -0.1642  0.2343 -0.0395
 7512W        W11563   9.949   1.414  13.313 -0.3525  0.1596 -0.2952
 7513W        W11564   5.959   9.360   4.528 -0.0892 -0.1147 -0.4865
 7514W        W11565   8.381   0.311   4.405 -0.5082  0.0130 -0.1164
 7515W        W11566   1.066   5.438   4.233  0.0280  0.2112 -0.1899
 7516W        W11567   4.595   0.812   3.729  0.0481 -0.3553 -0.3163
 7517W        W11568   6.710   9.801   0.359  0.2065  0.1978  0.2654
 7518W        W11569   9.870   7.711   2.917 -0.4255  0.1377 -0.2613
 7519W        W11570   8.000   9.561  13.557 -0.1502 -0.3195 -0.0767
 7520W        W11571   3.083   4.833   9.860 -0.1013 -0.2421  0.2182
 7521W        W11572   4.942   8.228   4.093  0.2096  0.0514  0.1167
 7522W        W11573   5.151   8.854   1.274 -0.0455 -0.3607  0.0730
 7523W        W11574  10.175   4.733   2.016 -0.0938 -0.1244  0.0686
 7524W        W11575   9.818   7.493  11.029 -0.1731  0.2395 -0.0946
 7525W        W11576   0.646   6.327  12.294  0.0177 -0.0427 -0.0715
 7526W        W11577   5.734   4.538   2.658 -0.0134 -0.0689 -0.2908
 7527W        W11578   7.714   5.233   9.881  0.0254 -0.0211 -0.0845
 7528W        W11579   3.704   2.771   3.226 -0.0604  0.0609 -0.0172
 7529W        W11580   5.815   2.153   1.865  0.1746  0.1801 -0.2927
 7530W        W11581   6.710   9.248   0.604  0.1265 -0.1675  0.2650
 7531W        W11582   6.798   4.180   0.550 -0.1392 -0.1218  0.2550
 7532W        W11583   0.109   2.611  11.040  0.2124  0.0474 -0.2109
 7533W        W11584   4.549   6.284  11.261 -0.2013 -0.1232 -0.0933
 7534W        W11585   1.415   0.145  12.005 -0.2508 -0.0335 -0.1621
 7535W        W11586   7.982   6.692   4.250  0.1822  0.2169  0.1153
 7536W        W11587   3.171   4.561   1.852 -0.0162  0.1999  0.1011
 7537W        W11588   4.328   0.492   5.571  0.0114  0.1782 -0.2813
 7538W        W11589   5.940   1.926  10.020  0.0463  0.0005  0.0620
 7539W        W11590   0.737   1.118   0.173  0.0209 -0.0290  0.0566
 7540W        W11591   9.368   8.182   1.971  0.2406 -0.0103 -0.2580
 7541W        W11592   9.900   0.781  11.782  0.3067  0.1708  0.3065
 7542W        W11593   4.795   6.193   3.203 -0.1282 -0.1378 -0.0843
 7543W        W11594   6.807   3.540  10.861  0.0126  0.2015  0.1324
 7544W        W11595   6.064   5.782   1.252  0.2372 -0.2631 -0.0107
 7545W        W11596   1.440   1.925   3.454  0.2766  0.0110  0.0961
 7546W        W11597   5.548   4.806  10.251  0.4818  0.1509  0.0933
 7547W        W11598   6.346   4.106   2.072 -0.2599  0.1858 -0.0454
 7548W        W11599   3.814   4.890  11.742  0.1096  0.0613 -0.2075
 7549W        W11600   8.369   8.161   0.111  0.2499  0.0139 -0.0056
 7550W        W11601   6.779   2.039   3.125 -0.0294  0.2646 -0.0805
 7551W        W11602   5.628   6.754  11.220 -0.0746  0.1567 -0.0030
 7552W        W11603   7.472   1.595   3.550  0.0698  0.0641 -0.2769
 7553W        W11604   0.217   5.648   4.093 -0.0735 -0.0738 -0.1032
 7554W        W11605   7.199   0.243   3.330  0.0159 -0.2769  0.2572
 7555W        W11606   8.984  10.062   4.358 -0.4319 -0.2343  0.2326
 7556W        W11607   9.422   5.062   2.881  0.0788 -0.1338 -0.1540
 7557W        W11608   5.201   1.451   4.838 -0.3683  0.2482 -0.0070
 7558W        W11609   1.760   8.457   5.072 -0.1446  0.1212 -0.0042
 7559W        W11610   8.901   4.070  13.152 -0.1848 -0.1246 -0.0792
 7560W        W11611   1.792   9.066   3.414 -0.1268  0.0689 -0.0817
 7561W        W11612   8.279   4.802  11.417 -0.2433 -0.0398 -0.1312
 7562W        W11613   1.253   3.043   9.860  0.4091 -0.1194  0.1714
 7563W        W11614   1.402   2.642  12.826 -0.1505  0.1500  0.2569
 7564W        W11615   9.914   0.488   1.066 -0.0386 -0.1248 -0.1515
 7565W        W11616   8.853   6.028  12.978 -0.1474 -0.2860 -0.4281
 7566W        W11617   4.912   8.016   2.785  0.2067  0.2866  0.1618
 7567W        W11618   3.454   9.104  11.314  0.0562 -0.2711  0.1685
 7568W        W11619   7.356   3.911  10.331 -0.0489  0.2390 -0.0824
 7569W        W11620   2.459   1.832   4.864  0.0217  0.1237  0.3389
 7570W        W11621   9.665   1.024  12.478  0.0752 -0.0081  0.1020
 7571W        W11622   7.558   9.194  11.691 -0.0844  0.3627 -0.2435
 7572W        W11623   5.309   4.067  10.738 -0.1237  0.0240  0.0590
 7573W        W11624   2.098   0.593  13.496 -0.0445 -0.3067  0.0395
 7574W        W11625   3.477   9.983  12.698 -0.0815 -0.1645  0.2366
 7575W        W11626   3.301   6.253   2.833 -0.0260 -0.0451 -0.1611
 7576W        W11627   0.897   6.534   4.705  0.0941 -0.1043  0.4145
 7577W        W11628   6.360   0.982  12.959 -0.1385 -0.2189 -0.0420
 7578W        W11629   2.406   3.948   4.659 -0.4086  0.0540  0.0012
 7579W        W11630   4.576   0.139   1.689 -0.0307 -0.2980 -0.0625
 7580W        W11631  10.266   0.943   1.024  0.1087  0.1378  0.0391
 7581W        W11632   4.773   9.397  10.887 -0.0115 -0.0025 -0.2290
 7582W        W11633   6.298   3.727   2.632  0.0922 -0.0672  0.3085
 7583W        W11634   0.571   7.720   5.737 -0.0090  0.0066  0.1548
 7584W        W11635   2.343   8.262   3.170 -0.2342 -0.2941 -0.2189
 7585W        W11636   9.891   5.178   2.654 -0.0570  0.0901  0.1977
 7586W        W11637   0.435   1.046  12.882  0.0229 -0.1392  0.4399
 7587W        W11638   2.903   0.000  10.444  0.0082  0.0500  0.1290
 7588W        W11639   2.103   7.822   1.163  0.0509  0.0262 -0.0583
 7589W        W11640   7.385   2.977   1.237  0.0631 -0.1487 -0.2193
 7590W        W11641   1.303   9.880  10.763 -0.0690 -0.1743 -0.2996
 7591W        W11642   7.611   8.307   1.761 -0.1653  0.0861  0.0544
 7592W        W11643   8.317   9.020  10.727 -0.0320  0.0336  0.1753
 7593W        W11644   7.251   0.425   2.814  0.2621 -0.3256  0.2016
 7594W        W11645   2.924  10.139  10.951  0.1941  0.3966  0.2107
 7595W        W11646  10.211   3.891   0.060 -0.0490  0.0148  0.3663
 7596W        W11647   7.267   1.653  12.377 -0.0583  0.4068  0.1977
 7597W        W11648   8.565   0.190   9.741  0.1387 -0.0821  0.0844
 7598W        W11649   0.266   4.166  13.056  0.0093  0.0014 -0.3435
 7599W        W11650   5.492   0.674   3.325 -0.3479  0.0018 -0.0304
 7600W        W11651   3.293   3.157   0.393 -0.2475 -0.0924 -0.1005
 7601W        W11652   0.223   3.502  13.529 -0.1500  0.2435  0.1255
 7602W        W11653   7.658   9.381   9.143 -0.0901 -0.0130  0.1820
 7603W        W11654   5.588   0.226   0.578 -0.3564 -0.0431 -0.0602
 7604W        W11655   0.517   9.878   4.413  0.0452 -0.0220  0.2556
 7605W        W11656   0.890   5.735  10.722 -0.1226 -0.0384 -0.0065
 7606W        W11657   9.614   6.515  10.711  0.3698  0.1109  0.2377
 7607W        W11658   6.943   6.039  10.797 -0.0547  0.1796  0.0991
 7608W        W11659   9.103   1.447   8.974  0.1040  0.2269  0.3291
 7609W        W11660   4.055   0.364  12.492  0.0458  0.1452 -0.1866
 7610W        W11661   1.189   0.243  11.217  0.0995  0.1329  0.2146
 7611W        W11662   2.073   8.082  11.626  0.1068 -0.0697  0.0737
 7612W        W11663   8.814   8.038   0.449  0.0171 -0.1571  0.0836
 7613W        W11664   8.076   9.594   1.782  0.1576 -0.0296 -0.1496
 7614W        W11665   4.869   6.256  10.839  0.2567  0.2637 -0.0206
 7615W        W11666   2.018   7.805  10.837  0.4034  0.0177 -0.0097
 7616W        W11667   7.308   8.388  12.860  0.1302  0.2109 -0.0239
 7617W        W11668   3.048   4.518   2.745 -0.0773  0.0896  0.0962
 7618W        W11669   9.424   3.125   4.583 -0.4376  0.2363  0.3222
 7619W        W11670   2.080   0.781   0.381  0.0976  0.0402 -0.3305
 7620W        W11671   9.405   7.384  10.739  0.0633  0.3672 -0.1689
 7621W        W11672   8.297   5.775   1.764  0.0596 -0.0258 -0.0938
 7622W        W11673   9.342   3.865   3.452 -0.0454  0.4927 -0.3281
 7623W        W11674   3.828   0.780  13.436 -0.1151  0.0161  0.0407
 7624W        W11675   8.945   0.499  13.061 -0.0403 -0.3043 -0.1374
 7625W        W11676   0.076   7.548   0.662 -0.0914 -0.1144  0.1473
 7626W        W11677   3.943   2.856  10.834  0.3659 -0.0297  0.0495
 7627W        W11678   6.430   4.781   2.314  0.0081 -0.2648 -0.1140
 7628W        W11679   9.883   8.639  10.296 -0.0450 -0.0712 -0.1449
 7629W        W11680   4.837   7.938   1.450 -0.2294 -0.3119 -0.0732
 7630W        W11681   9.008   8.465  11.510 -0.0151 -0.0987  0.2736
 7631W        W11682   1.054   3.746   0.402 -0.1637 -0.1323 -0.0465
 7632W        W11683   6.375   0.749   2.294  0.1943 -0.1669  0.1397
 7633W        W11684   9.947   8.692  11.868  0.2135 -0.1546  0.4384
 7634W        W11685   0.303   2.616  11.911 -0.2053 -0.2798 -0.4701
 7635W        W11686   9.758   7.753  10.469 -0.0860 -0.2993 -0.0651
 7636W        W11687   9.837   4.801   2.918  0.0385  0.3513  0.1502
 7637W        W11688   0.374   0.620   2.217  0.1338 -0.1419  0.2074
 7638W        W11689   9.204   3.116  12.961 -0.2227  0.0764 -0.0103
 7639W        W11690   6.580   8.795   9.687 -0.1390 -0.1723  0.2450
 7640W        W11691   3.935   0.119   4.037  0.2499  0.0017  0.4303
 7641W        W11692   0.842   7.168   0.112  0.2234  0.0634 -0.1185
 7642W        W11693   9.691   9.991  12.179  0.1559  0.1637  0.0106
 7643W        W11694  10.221   6.017   4.170  0.1095  0.1526 -0.0806
 7644W        W11695   0.744   3.400   3.556 -0.0109 -0.0330  0.0812
 7645W        W11696   4.496   4.566  10.235 -0.3458  0.1579  0.0220
 7646W        W11697   2.194   2.116  11.115 -0.0544  0.0776 -0.2987
 7647W        W11698   3.510   8.668   4.360  0.2987 -0.0684  0.1916
 7648W        W11699   6.623   7.574  12.905 -0.2431  0.1018 -0.0215
 7649W        W11700   1.716   4.436   2.278 -0.0026  0.2171 -0.1382
 7650W        W11701   3.274   2.255   2.561  0.1340  0.0261  0.0036
 7651W        W11702   4.832   0.288   2.170 -0.1025  0.0204  0.3082
 7652W        W11703   4.046   7.349   3.271 -0.2269 -0.0812  0.0391
 7653W        W11704   2.772   6.928   1.885 -0.0651  0.3061  0.3263
 7654W        W11705   2.266   5.321   1.683 -0.0069  0.3075  0.0132
 7655W        W11706   2.344   9.033   2.666 -0.3397  0.0229 -0.0216
 7656W        W11707   3.497   6.996   0.664 -0.2297 -0.1846  0.1960
 7657W        W11708   3.494   9.604  11.432 -0.0821  0.2493 -0.0988
 7658W        W11709   9.810   9.929  10.329  0.0651  0.5447  0.3746
 7659W        W11710   8.113   6.808   0.871 -0.2326 -0.2849  0.0442
 7660W        W11711   6.460   0.993  12.467 -0.2536  0.2293 -0.0544
 7661W        W11712   6.956   5.970   3.632  0.0813  0.0118  0.3501
 7662W        W11713   9.389   0.739  11.627  0.0382  0.2015 -0.0986
 7663W        W11714   6.047   5.084   2.131 -0.0861 -0.0888 -0.0735
 7664W        W11715   1.352   4.519   9.008  0.2149 -0.2100 -0.3987
 7665W        W11716   6.886   0.987   4.405 -0.0389 -0.3024 -0.0088
 7666W        W11717   6.554   1.499   1.164  0.0886 -0.3303  0.4273
 7667W        W11718   2.045   4.391   4.877  0.0298 -0.0129 -0.4026
 7668W        W11719   7.749   9.265   2.106  0.2370  0.3409 -0.0153
 7669W        W11720   3.153   6.126  11.564  0.1738 -0.0367 -0.1645
 7670W        W11721   2.859   4.911  10.854 -0.1643 -0.1059 -0.0717
 7671W        W11722   7.593   9.647   1.370  0.0999 -0.4445  0.2543
 7672W        W11723   2.806   1.467  11.753  0.1636 -0.1491 -0.1469
 7673W        W11724   0.716   6.233   2.904 -0.0479  0.0002 -0.1919
 7674W        W11725   9.130   8.488  10.399  0.3765 -0.0953 -0.2002
 7675W        W11726   5.979   2.434  10.209  0.1362  0.1092 -0.0028
 7676W        W11727   4.419   1.665  12.364 -0.1714 -0.1009  0.0259
 7677W        W11728   6.863   4.993  12.925 -0.0909 -0.0721 -0.3809
 7678W        W11729   3.938   2.478   1.397  0.2988  0.0814  0.2013
 7679W        W11730   4.031   3.590  10.771 -0.0390  0.1741 -0.0793
 7680W        W11731   7.508   3.838  12.494 -0.1500 -0.0040 -0.2026
 7681W        W11732   6.240   9.736   4.227 -0.1988  0.0428  0.3827
 7682W        W11733   6.458   2.058  13.221  0.2932 -0.1310 -0.0503
 7683W        W11734   0.329   1.116  11.109 -0.2875  0.1484 -0.1450
 7684W        W11735   1.760   8.073   1.363  0.3291  0.0535  0.0979
 7685W        W11736   7.521   4.178  11.486 -0.2123  0.2106 -0.1145
 7686W        W11737   4.097   7.851   3.343  0.1865  0.0501 -0.1674
 7687W        W11738   6.233   4.169   3.346  0.1525  0.1748 -0.1751
 7688W        W11739   5.346   9.876   2.500  0.1879  0.0434 -0.1142
 7689W        W11740   1.931   8.894   0.360 -0.0637  0.0734  0.3424
 7690W        W11741   9.906   1.276  11.610 -0.1268 -0.0116 -0.0580
 7691W        W11742   8.892   1.214   1.251 -0.0732 -0.0258 -0.0302
 7692W        W11743   5.970   6.567  13.060  0.1629 -0.2568 -0.1807
 7693W        W11744   3.037   1.396  12.290 -0.3901 -0.1815  0.1737
 7694W        W11745   3.126   8.732   9.088  0.1007  0.1982  0.2315
 7695W        W11746   8.552   2.281   1.312 -0.0025 -0.2367 -0.0327
 7696W        W11747   0.766   4.682   2.427  0.0234 -0.2928  0.4520
 7697W        W11748   6.591   3.581   1.641 -0.4514  0.0917  0.0939
 7698W        W11749   8.376  10.300   3.460  0.0124 -0.0950  0.4836
 7699W        W11750   1.174   8.819  13.079 -0.0955 -0.2107 -0.0578
 7700W        W11751   9.648   5.418  10.254  0.0782 -0.1000 -0.1314
 7701W        W11752   9.922   8.994   4.622 -0.1791  0.0540  0.0860
 7702W        W11753   3.518   9.938   1.976 -0.0767 -0.3470 -0.2294
 7703W        W11754   7.133   8.971   5.013  0.1150 -0.2033  0.1028
 7704W        W11755   5.245   7.900   8.731 -0.0445 -0.1187 -0.2014
 7705W        W11756   0.721   5.884   1.181 -0.1291 -0.2547 -0.2860
 7706W        W11757  10.077   0.690   2.546  0.1312 -0.0140 -0.0410
 7707W        W11758   8.861   1.710   2.072 -0.1834  0.1525 -0.2560
 7708W        W11759   0.507   5.964  11.946 -0.1019 -0.1064  0.1879
 7709W        W11760   8.381   9.589   9.529 -0.0415  0.0260 -0.1625
 7710W        W11761   7.171   7.926   1.045 -0.0219 -0.0806 -0.0095
 7711W        W11762   8.513   3.993  11.282  0.0156  0.1689 -0.1384
 7712W        W11763   4.217   2.851  12.118 -0.2088 -0.0078 -0.2849
 7713W        W11764   0.925   6.920  13.117  0.1389 -0.1808 -0.0866
 7714W        W11765   4.628  10.082  12.109 -0.0164 -0.1197  0.1332
 7715W        W11766   6.455   3.721  13.359 -0.2051 -0.0736  0.1194
 7716W        W11767   7.817  10.241  10.146 -0.2204  0.1177 -0.1426
 7717W        W11768   3.318   1.733   3.432  0.2943 -0.1561  0.1868
 7718W        W11769   7.391   3.263   1.710  0.0249  0.2188 -0.0839
 7719W        W11770   3.227   1.669  11.936  0.3342 -0.2140 -0.0483
 7720W        W11771   1.460   0.121  13.138  0.1709 -0.1816 -0.1941
 7721W        W11772   3.273   1.827   2.299  0.0819 -0.1561 -0.0429
 7722W        W11773   1.685   6.980   0.003 -0.3491  0.1958 -0.1562
 7723W        W11774   6.058   3.418   3.037  0.0216 -0.1429  0.0061
 7724W        W11775   3.282   3.997  10.224  0.3063  0.0258  0.0603
 7725W        W11776   7.143   0.837   3.735 -0.0543  0.2430  0.2349
 7726W        W11777   6.194   7.557  10.396 -0.0366  0.0502  0.0314
 7727W        W11778   0.245   3.156   2.116  0.1069  0.0585 -0.0843
 7728W        W11779  10.141   1.063   3.791 -0.0279  0.1122  0.1314
 7729W        W11780   3.904   8.826  12.987 -0.2549  0.1813 -0.1542
 7730W        W11781   6.780   7.191  12.491  0.3213  0.1453  0.1509
 7731W        W11782   2.646   8.303   1.929  0.0856 -0.0048  0.1867
 7732W        W11783   7.569   8.818   2.469 -0.1795  0.2615 -0.2367
 7733W        W11784   6.102   2.479  10.730  0.3300 -0.0747  0.3709
 7734W        W11785   4.872   5.723  12.449  0.0513  0.0883  0.0276
 7735W        W11786   5.997   6.032  10.669  0.0055  0.3936  0.0452
 7736W        W11787   7.179   5.098  10.952 -0.0802  0.1111 -0.0815
 7737W        W11788   9.606   7.435   9.665  0.2151  0.0793  0.0596
 7738W        W11789   8.110   9.124   9.452 -0.0588  0.0111 -0.1902
 7739W        W11790   6.490   5.006   9.162 -0.0648  0.1376 -0.4110
 7740W        W11791   8.051   7.992   5.008  0.0279 -0.0936 -0.0713
 7741W        W11792   3.626   5.622  13.204 -0.2474 -0.2956 -0.0436
 7742W        W11793   2.187   4.597   3.800 -0.2697 -0.1893 -0.4247
 7743W        W11794   7.153   2.528   3.689  0.1136 -0.0820  0.2371
 7744W        W11795   4.501   6.328   9.670  0.1224  0.3721  0.3236
 7745W        W11796   6.780   8.937   4.246 -0.1208 -0.2418 -0.1303
 7746W        W11797   1.878   2.823  11.668 -0.2577  0.2100  0.0239
 7747W        W11798   9.083   3.040   4.926 -0.1567  0.0181 -0.0296
 7748W        W11799   1.115   2.299   1.818 -0.1084  0.1789 -0.0434
 7749W        W11800   8.376   4.257   0.383  0.0556 -0.0373  0.4096
 7750W        W11801   0.097   6.248   9.760  0.0990 -0.3723  0.0456
 7751W        W11802   1.966   4.749  10.400 -0.0510 -0.2906  0.1795
 7752W        W11803   8.129   7.795  12.202 -0.1628  0.0310 -0.1955
 7753W        W11804   4.795   3.833   1.840 -0.3525  0.1855 -0.0061
 7754W        W11805   8.778   5.951   2.699 -0.1411  0.3113  0.0748
 7755W        W11806   6.139   9.332   3.191  0.0424 -0.2547 -0.1112
 7756W        W11807   8.491   7.614   2.704 -0.1766  0.2328  0.0452
 7757W        W11808  10.242   6.456  12.968 -0.1530  0.1082 -0.1987
 7758W        W11809   5.928   5.791   3.480 -0.0939  0.2289  0.1276
 7759W        W11810   2.288   0.542   4.316  0.5463  0.2501  0.2204
 7760W        W11811   8.500   6.365  12.681  0.1813  0.1360 -0.1693
 7761W        W11812   8.783   2.767  11.670  0.1643 -0.2137  0.0853
 7762W        W11813   9.906   6.239   9.885  0.1072 -0.0051  0.0163
 7763W        W11814   8.486   4.182  12.149 -0.1808  0.2322 -0.0500
 7764W        W11815   2.702   0.236  11.837  0.0204 -0.2543  0.0105
 7765W        W11816   0.430   2.436  11.423  0.1171  0.2436  0.0682
 7766W        W11817   6.036   8.249  11.146  0.0262 -0.2552  0.0471
 7767W        W11818   4.617   6.354   8.665 -0.2614  0.2510  0.1134
 7768W        W11819   3.843   6.353   2.777  0.1033 -0.0066  0.1232
 7769W        W11820   0.235   8.263   1.807  0.1626  0.0074 -0.0046
 7770W        W11821   7.780   5.728   9.733 -0.2850  0.0591 -0.2243
 7771W        W11822   0.331   9.828   5.272 -0.3552  0.1991  0.0251
 7772W        W11823   3.161   0.224   3.637  0.0194  0.1635  0.1520
 7773W        W11824   6.789   1.908  12.247  0.0114  0.0444  0.2260
 7774W        W11825   1.594   2.992   0.329  0.1864 -0.2057  0.0461
 7775W        W11826   5.495   5.162   0.850  0.0824  0.0000  0.0996
 7776W        W11827   8.166   1.240   9.313  0.0276  0.1232  0.1305
 7777W        W11828   1.797   0.280   4.295 -0.0737  0.1615 -0.1112
 7778W        W11829   5.287   1.553   3.818 -0.2703  0.1078  0.1716
 7779W        W11830   4.961   4.924  10.122  0.1027 -0.0200 -0.0344
 7780W        W11831   5.910   8.451   9.727 -0.0610 -0.5222 -0.2305
 7781W        W11832   9.364   8.400   1.549 -0.2218 -0.0186  0.1997
 7782W        W11833   6.789   0.217   1.402 -0.2030  0.1645 -0.2326
 7783W        W11834   6.448   2.462   0.547 -0.1182  0.1162  0.1073
 7784W        W11835   7.394   6.008  11.981  0.0153 -0.1977 -0.0394
 7785W        W11836   4.365   8.517  11.071  0.0809  0.5352  0.3302
 7786W        W11837   9.206   8.857   1.820  0.1011  0.2740  0.0222
 7787W        W11838   8.371   4.968  10.875 -0.4257 -0.3048  0.0707
 7788W        W11839   6.671   4.970  10.960  0.0253  0.0242  0.0686
 7789W        W11840   6.444   0.947  10.523  0.1119 -0.0067  0.3246
 7790W        W11841   9.886   3.856   2.915  0.1224 -0.1554 -0.0304
 7791W        W11842   8.402   5.655  10.067  0.2099  0.1578  0.4955
 7792W        W11843   7.117   4.998   1.249  0.0597 -0.1409 -0.1612
 7793W        W11844   8.716   0.094  11.645 -0.0431 -0.0887  0.0092
 7794W        W11845   9.293   2.142   4.654  0.0373  0.1920 -0.1712
 7795W        W11846   3.888   7.608  11.895 -0.2648  0.4087  0.1123
 7796W        W11847   7.823   3.216   0.088 -0.2009 -0.3423  0.3383
 7797W        W11848   8.901   6.280   3.567 -0.1420 -0.1782 -0.3364
 7798W        W11849   6.386   7.322   1.004  0.0716  0.3605  0.3310
 7799W        W11850   7.712   8.705  12.911 -0.1648  0.0434 -0.0347
 7800W        W11851   1.948   3.520   2.568 -0.4750 -0.1754  0.0664
 7801W        W11852   6.526   6.458   4.502 -0.0364  0.2686 -0.0545
 7802W        W11853   4.278   4.127  11.920  0.1091  0.0225  0.1988
 7803W        W11854   3.948   1.243  13.375  0.3545 -0.2731  0.0414
 7804W        W11855   1.951   1.335   5.149 -0.2792  0.0632  0.1780
 7805W        W11856   9.688   4.409  13.230  0.0340  0.2248  0.2090
 7806W        W11857   8.642   7.938  12.121  0.1412 -0.0651 -0.0928
 7807W        W11858   8.222  10.181  10.889  0.0160  0.1452 -0.1666
 7808W        W11859   8.705   9.591   4.907  0.0438  0.0437  0.0210
 7809W        W11860   7.555   8.255  11.142 -0.4585 -0.0636 -0.1752
 7810W        W11861   3.916   3.003   1.563 -0.2308  0.1662  0.0645
 7811W        W11862   0.216   0.671  10.993  0.1925  0.0252 -0.0090
 7812W        W11863   6.530   0.710  11.021  0.0466  0.3138 -0.2830
 7813W        W11864   5.459   8.569  12.623  0.0678 -0.1807 -0.1016
 7814W        W11865  10.013   8.303   4.097  0.1653  0.0196 -0.1111
 7815W        W11866   5.453   1.295  11.701  0.2828  0.1618  0.1811
 7816W        W11867   0.789   8.834   8.995  0.1959 -0.0472 -0.1897
 7817W        W11868   3.240   2.776  12.677  0.0712  0.3355  0.0458
 7818W        W11869   2.334   5.058   0.575  0.0727  0.1640  0.2475
 7819W        W11870   8.044   7.729  10.128  0.0238  0.1281 -0.1165
 7820W        W11871   5.343   4.512   2.963  0.1124  0.0324  0.0794
 7821W        W11872   5.315   7.717  10.454 -0.1341 -0.2555 -0.2764
 7822W        W11873  10.058   4.888  11.078 -0.0186  0.2728 -0.0131
 7823W        W11874   9.242   2.332  13.248 -0.0955 -0.0764 -0.3030
 7824W        W11875   8.949   3.155  12.042  0.0581 -0.1875 -0.0635
 7825W        W11876   3.235   4.422   9.405  0.2701 -0.0011  0.0678
 7826W        W11877   1.746   0.056   3.258 -0.0251  0.2290  0.3351
 7827W        W11878   3.585   1.937  10.438 -0.0793 -0.1730 -0.3711
 7828W        W11879   4.834   6.972  11.967  0.4665  0.4209  0.0689
 7829W        W11880   6.064   1.129   4.554  0.3356 -0.0992  0.2212
 7830W        W11881   6.550   8.624   2.374  0.0396  0.0889  0.0729
 7831W        W11882   8.351   0.745   4.178  0.1780  0.2793  0.1896
 7832W        W11883   1.421   0.169   0.649  0.1518  0.1000 -0.0030
 7833W        W11884   0.114   4.594   1.598 -0.1420  0.1665  0.0268
 7834W        W11885   9.938   6.459   2.213 -0.1964  0.1181  0.1413
 7835W        W11886   9.002   9.128   3.654 -0.1163  0.3490 -0.0392
 7836W        W11887   0.709   5.689   0.352 -0.2717  0.0404 -0.2278
 7837W        W11888   9.310   3.545   9.630 -0.0312 -0.2668  0.2682
 7838W        W11889   3.766   6.814   0.181 -0.2107  0.1484 -0.1320
 7839W        W11890  10.159   0.710   8.717  0.1972 -0.1009 -0.3559
 7840W        W11891   0.709   3.150  10.023 -0.1116  0.0415 -0.2557
 7841W        W11892   7.789  10.100  11.112 -0.1408 -0.0243  0.2017
 7842W        W11893   1.977   6.641   1.707 -0.0187 -0.1379  0.0602
 7843W        W11894   8.911   0.595   9.567 -0.1057  0.3239 -0.0599
 7844W        W11895   6.733   3.433  11.754  0.1205  0.1210 -0.1336
 7845W        W11896   9.072  10.019   4.845  0.2178  0.1092 -0.3762
 7846W        W11897   9.209   7.465  11.238  0.0404  0.0850  0.1022
 7847W        W11898   0.288   9.187  12.870  0.0963 -0.0795  0.2050
 7848W        W11899   8.531   3.429   0.703 -0.1366 -0.0713 -0.2368
 7849W        W11900   3.726   8.216   3.480 -0.3320 -0.4016  0.0449
 7850W        W11901   5.825   4.442  12.665  0.0685 -0.0706 -0.1270
 7851W        W11902   4.605   8.108  10.947 -0.0171 -0.1758  0.1377
 7852W        W11903   4.375   7.965  12.546  0.4263 -0.5617 -0.0466
 7853W        W11904   9.294   2.157   2.174  0.0185 -0.0006 -0.0709
 7854W        W11905   4.933   6.732   2.444 -0.2945  0.0176  0.1502
 7855W        W11906   6.840   4.992   2.078 -0.0385 -0.2976  0.0381
 7856W        W11907   0.072  10.324   1.893 -0.1004  0.1287  0.2744
 7857W        W11908   1.661   5.693  10.610  0.2664  0.0055 -0.2004
 7858W        W11909   2.393   3.858   2.597 -0.0837  0.0951 -0.4548
 7859W        W11910   9.097   4.541  10.308  0.1951 -0.2839 -0.3472
 7860W        W11911   4.644   6.343   4.093  0.0843  0.1892 -0.4231
 7861W        W11912   2.024   1.717   4.217 -0.0211 -0.0956 -0.1339
 7862W        W11913   2.935   1.940  13.052 -0.0853 -0.0142 -0.0210
 7863W        W11914   7.860   9.663  13.081 -0.2129 -0.0120 -0.0399
 7864W        W11915   5.015   7.158   2.019 -0.1752 -0.0355 -0.3218
 7865W        W11916   1.158   6.292   1.683  0.1263  0.1952  0.1474
 7866W        W11917   7.967   1.866  11.201 -0.0498  0.3809 -0.0736
 7867W        W11918   5.895   7.023   9.444 -0.0476 -0.2914 -0.2574
 7868W        W11919   7.052   2.307  12.428  0.3466 -0.0151 -0.1435
 7869W        W11920   1.875   7.801  13.167 -0.1873  0.0175 -0.0314
 7870W        W11921   6.217   1.650  13.521  0.0431 -0.2314  0.0523
 7871W        W11922   8.478   7.081   3.594  0.3586  0.0444  0.0117
 7872W        W11923   6.234   8.109  10.166 -0.0463  0.2828 -0.1590
 7873W        W11924   6.824   3.907   2.022  0.0956  0.1837  0.0683
 7874W        W11925   7.733   8.453  10.525  0.1655 -0.1758  0.0059
 7875W        W11926   6.539   8.479  13.529 -0.1329 -0.0556 -0.1353
 7876W        W11927   0.852   9.937   4.782  0.1326  0.1807 -0.0467
 7877W        W11928   5.818   9.299   1.994 -0.1711  0.0650  0.2082
 7878W        W11929   4.833   9.757  12.674  0.1419 -0.1856  0.2280
 7879W        W11930   1.490   0.761   9.269  0.0620  0.1722 -0.0720
 7880W        W11931   3.482   9.157   4.712 -0.1008  0.4131  0.2801
 7881W        W11932   0.606   3.516   0.274 -0.0217 -0.2361  0.1490
 7882W        W11933   9.252   9.038   9.661 -0.0133  0.0998 -0.0672
 7883W        W11934   7.568   8.899   3.331  0.1885 -0.0398 -0.1069
 7884W        W11935   1.574   5.194  13.453  0.1106  0.0100 -0.0745
 7885W        W11936   4.666   1.996   2.596 -0.0385  0.2936 -0.0996
 7886W        W11937   4.040   6.218   9.830  0.1321  0.0045 -0.0997
 7887W        W11938   2.247   3.819  11.201  0.1447  0.1698  0.0836
 7888W        W11939   9.832   1.728  12.157 -0.0592  0.1331 -0.1116
 7889W        W11940   4.161   1.989   0.027 -0.0256 -0.4991  0.0125
 7890W        W11941   4.078   1.723  11.766  0.3563  0.1628 -0.2417
 7891W        W11942   3.398   3.213  12.316 -0.1448  0.1279 -0.1871
 7892W        W11943   2.869   3.854   1.484 -0.2134  0.0300  0.1722
 7893W        W11944   5.065   1.518  10.805  0.0545  0.2625  0.0177
 7894W        W11945   6.611   6.612   1.095  0.0384 -0.0748 -0.0820
 7895W        W11946   4.630   9.388   2.599  0.1616 -0.0929  0.1719
 7896W        W11947   2.354   8.305  10.851  0.1940 -0.1534 -0.0195
 7897W        W11948   3.015   6.442   9.905  0.3209  0.1755 -0.2050
 7898W        W11949   1.794   6.974   2.024 -0.3775 -0.0145  0.0388
 7899W        W11950   9.367   9.738  10.999 -0.3830  0.0454  0.1420
 7900W        W11951   2.313  10.232   0.562 -0.1246  0.4477  0.2308
 7901W        W11952   9.994   2.137   2.754 -0.0409  0.1243  0.0422
 7902W        W11953   1.208   2.556   5.474  0.0831  0.3575  0.0095
 7903W        W11954   2.852   3.992   3.246  0.3102 -0.0986  0.0951
 7904W        W11955   9.334   6.661   1.158 -0.1914  0.0112 -0.1218
 7905W        W11956   7.219   5.276  12.090  0.1185  0.5433 -0.0116
 7906W        W11957   2.503   2.854  12.720 -0.2138  0.0994 -0.0429
 7907W        W11958   5.134   8.750   0.103 -0.0133  0.0588  0.0580
 7908W        W11959   2.769   8.862  11.653 -0.3653 -0.1709  0.4593
 7909W        W11960   0.088   0.239  12.135 -0.0806 -0.4254 -0.0079
 7910W        W11961   4.301   6.315   0.670  0.0433  0.1930 -0.1070
 7911W        W11962   7.507   9.778   2.528 -0.4294 -0.1482 -0.1082
 7912W        W11963   9.568   1.134   4.187 -0.0342  0.1730  0.0403
 7913W        W11964   5.187   2.776  12.461 -0.0433 -0.0824 -0.3178
 7914W        W11965   8.414   6.918   1.275  0.1781 -0.1606 -0.1237
 7915W        W11966   5.207   4.538  11.855  0.0714  0.1143 -0.2672
 7916W        W11967   9.874   2.544  10.296 -0.2434 -0.0554 -0.0039
 7917W        W11968   5.718   3.862   2.088  0.3855 -0.1691  0.0776
 7918W        W11969   1.221   4.014  12.980 -0.0317  0.0972 -0.1449
 7919W        W11970   5.883   2.150   1.124  0.3431  0.2881 -0.5295
 7920W        W11971   2.833   1.158  12.682  0.2059 -0.2461  0.4989
 7921W        W11972   8.846   3.016   4.028 -0.2563  0.0787 -0.0676
 7922W        W11973   2.625   5.415   2.323  0.1470 -0.2816 -0.2100
 7923W        W11974   2.705   1.012  12.199  0.0060 -0.1300 -0.3678
 7924W        W11975   0.965   2.145   3.484 -0.5546  0.2396 -0.1486
 7925W        W11976   2.391   3.293   9.521  0.1653  0.3119  0.0274
 7926W        W11977   1.643   9.888  11.135  0.2368  0.0443 -0.1996
 7927W        W11978   8.616   2.067   9.818 -0.3397 -0.3727  0.0110
 7928W        W11979   7.940   0.208   1.972 -0.3605 -0.3857 -0.3261
 7929W        W11980   1.342   6.730   8.858 -0.1872  0.0156 -0.0044
 7930W        W11981   9.208   6.924   9.311 -0.0251 -0.2169 -0.5112
 7931W        W11982   2.535   6.721   3.892 -0.0577 -0.0593  0.2025
 7932W        W11983   4.307   5.515   1.778 -0.0225 -0.1755  0.1822
 7933W        W11984   0.000   4.336   1.022 -0.0232 -0.2037 -0.0430
 7934W        W11985   5.387   8.503   0.745  0.2924 -0.2273 -0.0311
 7935W        W11986   9.593   5.616   2.787  0.1358  0.1829  0.0912
 7936W        W11987   2.232   1.963   9.809 -0.1894 -0.2239  0.1204
 7937W        W11988   2.345  10.103   2.514 -0.2039  0.3971  0.1852
 7938W        W11989   1.651   8.293   9.144  0.1154  0.1555 -0.0498
 7939W        W11990   4.632   0.929   8.707  0.3811  0.4418 -0.3912
 7940W        W11991   2.802   5.530   2.771 -0.2824  0.1827  0.1200
 7941W        W11992   7.943   4.344   3.268  0.1683 -0.0884 -0.3617
 7942W        W11993   6.961   7.987   9.863  0.1082 -0.1344 -0.1105
 7943W        W11994   6.811   2.569   3.195 -0.1419 -0.0377  0.1067
 7944W        W11995   9.467   2.175   2.681  0.2670 -0.2837 -0.0072
 7945W        W11996   0.833  10.006   2.309 -0.0929  0.2025  0.1207
 7946W        W11997   0.674   4.258   5.343  0.3895 -0.0852 -0.0916
 7947W        W11998   7.834   0.160   0.161  0.4124 -0.0879 -0.2547
 7948W        W11999   5.809   0.344  12.550 -0.1879  0.3718  0.1807
 7949W        W12000   2.433   0.673  10.844 -0.1164  0.0900 -0.0851
 7950W        W12001  10.139   7.352  13.390 -0.1234  0.1602 -0.1378
 7951W        W12002   7.957   3.297  12.219 -0.0104  0.2425  0.0898
 7952W        W12003  10.257  10.073   3.370 -0.1594 -0.0822  0.1195
 7953W        W12004   1.431   6.113   3.757  0.2347  0.1967 -0.0598
 7954W        W12005   0.601   2.842  13.128  0.0912  0.0378  0.2285
 7955W        W12006   7.954   5.529  10.285  0.0077  0.2971 -0.1895
 7956W        W12007   2.816   3.471   4.680  0.0496 -0.2270 -0.0652
 7957W        W12008   4.996   4.991   1.053 -0.0313  0.1074 -0.0867
 7958W        W12009   2.395   7.623  12.417  0.0255 -0.1138 -0.0508
 7959W        W12010   1.575   8.186  11.857 -0.1269  0.0256  0.0456
 7960W        W12011  10.204   3.985   1.406  0.0752  0.2309  0.2045
 7961W        W12012   8.788   1.421  11.074  0.0078  0.2232 -0.0262
 7962W        W12013   0.965   0.277  12.184 -0.2541  0.1584  0.0071
 7963W        W12014   7.880   0.715   3.243 -0.1556  0.3878 -0.1115
 7964W        W12015   9.022   7.504   3.501  0.0473  0.1324 -0.1516
 7965W        W12016   1.316   3.179   9.286  0.1288 -0.1142  0.0246
 7966W        W12017   2.850   3.361   0.324  0.1818 -0.0564  0.0568
 7967W        W12018   8.415   6.522   3.493 -0.3815 -0.0195  0.0252
 7968W        W12019   1.825   5.832   5.029 -0.1330  0.0349 -0.0887
 7969W        W12020   0.677   5.338  10.965 -0.1322  0.2606 -0.0650
 7970W        W12021   8.721   1.342   3.891 -0.0191  0.1014 -0.1836
 7971W        W12022   6.749   8.603   2.954  0.2458 -0.0953  0.1299
 7972W        W12023   5.496   9.605   9.939 -0.2589  0.0459 -0.2221
 7973W        W12024   2.606   4.843   2.837  0.3258  0.0073 -0.1146
 7974W        W12025   3.083   0.384  12.100 -0.2697 -0.1441  0.1337
 7975W        W12026   9.564   6.147   4.954  0.0890  0.0927 -0.2142
 7976W        W12027   1.951   0.245  10.844  0.2190  0.0102  0.1846
 7977W        W12028   3.151   1.640  11.413 -0.0674 -0.1959  0.0163
 7978W        W12029   5.231   3.580  13.136  0.0436  0.0458 -0.3981
 7979W        W12030   6.156   6.149  12.378 -0.1619 -0.1116  0.2286
 7980W        W12031   3.571   0.583   4.686  0.1261  0.0793 -0.3006
 7981W        W12032   6.075   1.290   0.552 -0.0863  0.0914  0.0557
 7982W        W12033  10.113   3.979   4.226 -0.0578  0.3009  0.0983
 7983W        W12034   6.200   3.609   3.842 -0.2359  0.1650  0.1429
 7984W        W12035   4.153   8.977  12.595 -0.3952 -0.1764 -0.3258
 7985W        W12036   6.964   3.246  10.476 -0.2040  0.1916 -0.3656
 7986W        W12037   6.810   8.797  11.682 -0.0029 -0.0496  0.0306
 7987W        W12038   1.925   1.054   3.521  0.1131 -0.2118  0.0893
 7988W        W12039   1.093   2.999   5.476  0.1513 -0.0197 -0.0394
 7989W        W12040   1.961   3.944   2.258  0.3983  0.0987  0.0686
 7990W        W12041   0.969   7.274   0.998 -0.2306 -0.3521 -0.0427
 7991W        W12042   9.710   4.992   5.658 -0.0306 -0.0964  0.0192
 7992W        W12043   0.046   1.301   1.862  0.0728 -0.1957  0.0734
 7993W        W12044   2.221   6.107   9.818 -0.0272 -0.0570 -0.0381
 7994W        W12045   3.230   3.284  11.296 -0.0782 -0.0635  0.2662
 7995W        W12046   8.780   5.181   1.827 -0.0551  0.4141  0.0382
 7996W        W12047   1.075   8.279  10.149 -0.2118 -0.3106 -0.3182
 7997W        W12048   5.430   7.415   8.894 -0.1878  0.0331  0.0527
 7998W        W12049   8.777   9.032  12.836  0.1261  0.0090  0.1327
 7999W        W12050   2.926   1.543   3.676 -0.1457  0.0239 -0.0236
 8000W        W12051   8.671   2.524  10.110 -0.3090  0.2261 -0.2455
 8001W        W12052   0.884   5.405   1.559 -0.2028  0.1098 -0.3560
 8002W        W12053   2.581   5.910   0.022 -0.0702  0.2925 -0.1521
 8003W        W12054   9.892   5.728   3.497 -0.2779 -0.0562 -0.4019
 8004W        W12055   2.304   0.783   2.579  0.3329  0.0098 -0.0609
 8005W        W12056   9.059   2.438  10.821 -0.0063  0.2930 -0.0933
 8006W        W12057   8.691   4.388   3.535  0.1279 -0.1457 -0.4121
 8007W        W12058   6.071   1.298   1.415  0.2235 -0.0224 -0.1444
 8008W        W12059   0.818   8.592  11.398 -0.0507 -0.0149  0.1906
 8009W        W12060   3.507   1.248   9.768  0.0652 -0.0639 -0.0441
 8010W        W12061   5.267   9.614  12.609  0.1837  0.3041  0.0816
 8011W        W12062   6.467   8.179   0.783  0.0667  0.3060  0.0501
 8012W        W12063   9.588   4.286  10.413 -0.1925  0.2182  0.3368
 8013W        W12064   6.059   3.744  12.137  0.1399  0.1916 -0.0345
 8014W        W12065   3.725   6.932   2.181 -0.0446  0.2343  0.1103
 8015W        W12066   1.039   4.482  12.077  0.1174 -0.3682  0.0368
 8016W        W12067   0.844   9.100   3.287 -0.0661  0.3091  0.0584
 8017W        W12068   2.341   5.661   3.006  0.1299 -0.0114  0.1196
 8018W        W12069   8.468   7.102   1.941  0.0429  0.1981  0.1119
 8019W        W12070   6.476   0.581  12.201 -0.0027 -0.0003 -0.0375
 8020W        W12071   9.641   0.503   2.313  0.0328 -0.1246  0.2326
 8021W        W12072   7.393  10.147  13.516  0.0946  0.0779  0.0948
 8022W        W12073   1.005   3.561  11.436  0.0790 -0.0924  0.2909
 8023W        W12074   1.300   6.487  12.128 -0.0882 -0.3526  0.0028
 8024W        W12075   9.313   0.137   3.073 -0.3030  0.0760  0.1374
 8025W        W12076   6.513   4.336  11.087  0.0597  0.2520  0.0981
 8026W        W12077   4.698   7.069  10.083 -0.2818  0.1536 -0.2186
 8027W        W12078   8.221   7.982   3.678  0.3618  0.1287 -0.0158
 8028W        W12079   4.418   3.970  12.751  0.0006  0.0268 -0.0146
 8029W        W12080   2.611   6.387  12.571  0.1124  0.3483  0.0089
 8030W        W12081   0.981   8.636  10.460  0.1774 -0.1816  0.0817
 8031W        W12082  10.233   9.527   0.565 -0.0875 -0.2466  0.1025
 8032W        W12083   1.516   4.406  12.126  0.1157  0.2495  0.2022
 8033W        W12084   8.797   8.701   3.307 -0.4140 -0.2031 -0.2791
 8034W        W12085   1.052   0.568   3.752 -0.0355  0.0804 -0.0027
 8035W        W12086   1.716   7.847   0.877 -0.3018 -0.1537  0.1905
 8036W        W12087   1.902   6.490   2.880  0.1765  0.0144 -0.1591
 8037W        W12088   6.539   6.265   8.824  0.0187 -0.0427  0.0810
 8038W        W12089   4.322   7.325   2.717  0.1523 -0.0414  0.0107
 8039W        W12090   8.708   7.134   4.844 -0.1306 -0.2272 -0.0922
 8040W        W12091  10.064   5.489  13.102  0.2586 -0.3971 -0.0779
 8041W        W12092   4.144   8.630   3.724 -0.1604 -0.0057  0.3542
 8042W        W12093   2.967   1.543  13.313  0.1086  0.2800  0.0500
 8043W        W12094   7.071   5.849  12.426  0.1367  0.0911 -0.0543
 8044W        W12095   2.802   8.059   0.684  0.2601  0.4199 -0.0939
 8045W        W12096   0.573   8.418  11.791 -0.2838 -0.0819 -0.2348
 8046W        W12097   0.627   3.034   4.795 -0.1842 -0.2852 -0.1455
 8047W        W12098   3.586   0.752   2.913 -0.1062  0.0825 -0.1116
 8048W        W12099   0.538   5.013   1.156  0.0015  0.3144  0.1311
 8049W        W12100   3.085   8.751   4.785 -0.0059  0.3680  0.3063
 8050W        W12101   0.714   6.785   9.986 -0.0985  0.0593  0.1484
 8051W        W12102   8.657   8.027   0.956 -0.0790  0.2051  0.0780
 8052W        W12103   4.248   7.126   9.865 -0.1051 -0.0525  0.0694
 8053W        W12104   4.059   0.696  11.412 -0.0398  0.3698  0.0622
 8054W        W12105   9.674   1.342   4.609  0.0252  0.3061 -0.0646
 8055W        W12106  10.298   3.016  13.491  0.0370 -0.3852 -0.0441
 8056W        W12107   7.545   7.544   0.256  0.2271  0.0289 -0.0314
 8057W        W12108   5.840  10.000  13.364 -0.1382  0.1728  0.1753
 8058W        W12109   1.855   9.150  11.787 -0.3054 -0.0556  0.1460
 8059W        W12110   7.376   4.728   3.826  0.0454  0.0071  0.0595
 8060W        W12111   9.803   9.631   9.862 -0.1036 -0.0763  0.1090
 8061W        W12112   8.516   7.700   1.674 -0.0346  0.1604  0.1266
 8062W        W12113   2.962   9.236  11.307  0.0043  0.0986 -0.0916
 8063W        W12114   3.355   4.616  11.727 -0.2428 -0.1068  0.0778
 8064W        W12115   6.645  10.190   9.748 -0.3501  0.1772 -0.2135
 8065W        W12116   1.539   0.983   3.177 -0.2356 -0.0514  0.0225
 8066W        W12117   3.620   3.098  13.575  0.0633 -0.1057 -0.1650
 8067W        W12118   4.219   1.119   3.512  0.1712  0.0318 -0.0908
 8068W        W12119   0.735   2.965   3.659  0.1398  0.0099  0.0630
 8069W        W12120   2.252   4.318   2.224 -0.2191 -0.1789  0.2481
 8070W        W12121   8.388   9.374   0.767 -0.1372 -0.0702  0.3130
 8071W        W12122   8.690   5.039  11.234  0.0220 -0.0339  0.0160
 8072W        W12123   8.972   9.372   4.546  0.0407 -0.1126  0.2758
 8073W        W12124   7.450   6.015  11.447  0.2278  0.0461 -0.3010
 8074W        W12125   6.761   8.601   9.143  0.2129  0.0794  0.2966
 8075W        W12126   7.437   4.564   3.280 -0.1263 -0.1800  0.0034
 8076W        W12127   6.044   9.036   3.700 -0.2411  0.0759  0.1638
 8077W        W12128   4.361   0.459   4.286  0.4043  0.2443  0.0800
 8078W        W12129   9.003   0.277   4.771 -0.3377  0.0626 -0.1552
 8079W        W12130   2.822   2.574   9.518 -0.3262 -0.2355  0.0126
 8080W        W12131   6.177   0.364   8.903  0.0480  0.3440 -0.0399
 8081W        W12132   8.693   0.076  13.503 -0.2143  0.1228  0.3448
 8082W        W12133   5.078   5.435  10.290 -0.0253  0.2333  0.0619
 8083W        W12134   7.363   8.759   2.899  0.0204 -0.2826 -0.0473
 8084W        W12135   1.016   6.141  12.037  0.2307 -0.0069 -0.0181
 8085W        W12136   6.551   4.325   2.496 -0.0270  0.0740 -0.0735
 8086W        W12137   3.328   0.097  11.212  0.0124  0.0275  0.2675
 8087W        W12138   9.438   9.583  12.421  0.0871 -0.1205 -0.0494
 8088W        W12139   0.607   0.300   0.455 -0.2540 -0.3186  0.0625
 8089W        W12140  10.182   6.178   0.165 -0.3334 -0.0851  0.3401
 8090W        W12141   4.114   4.308   3.728 -0.2318  0.1350  0.4195
 8091W        W12142   3.784   6.095   1.354 -0.0009 -0.1490  0.0744
 8092W        W12143   2.366   1.970  13.160 -0.2628 -0.1475 -0.1582
 8093W        W12144   7.909   0.071  11.855 -0.1384 -0.0578 -0.0666
 8094W        W12145   1.022   7.921   2.601 -0.0076 -0.0157  0.0078
 8095W        W12146   5.808   3.715   2.602  0.1749 -0.0699 -0.4579
 8096W        W12147   7.274   4.084   3.252  0.1393  0.0387  0.1109
 8097W        W12148   6.915   1.419   2.820  0.2641  0.1334  0.0908
 8098W        W12149   3.029   7.899   0.223  0.0097 -0.3653  0.0753
 8099W        W12150   3.112   4.598   4.430 -0.0244 -0.0566 -0.2031
 8100W        W12151   5.012   8.481  10.318  0.1180  0.2228 -0.0421
 8101W        W12152   8.995   7.039   2.161 -0.1036  0.0565 -0.4438
 8102W        W12153   2.661   0.209   8.671  0.0281 -0.0633  0.0228
 8103W        W12154   3.164  10.187   4.635 -0.0101  0.2003  0.1544
 8104W        W12155   5.102   9.461   2.534 -0.0661 -0.1470  0.1239
 8105W        W12156   6.172   6.773   3.155 -0.1111  0.2614 -0.1768
 8106W        W12157   7.374   1.301   2.972 -0.0384 -0.0706 -0.0727
 8107W        W12158   5.921   8.951  10.549 -0.1267 -0.2982  0.0282
 8108W        W12159   2.061   7.921  12.113  0.4310  0.0485  0.1074
 8109W        W12160   9.706   6.961  10.563  0.0214  0.1040 -0.2087
 8110W        W12161   6.263   1.358   2.862  0.0486  0.0284  0.1084
 8111W        W12162   6.323   1.875   2.824  0.0881  0.1558 -0.0974
 8112W        W12163   1.662  10.183   9.421  0.0646 -0.1901  0.0096
 8113W        W12164   9.108   4.307   3.786 -0.0059 -0.0828  0.0571
 8114W        W12165   9.136   3.867   1.430 -0.0301 -0.1618 -0.0279
 8115W        W12166   9.195   2.863   1.268 -0.0848 -0.1504 -0.3677
 8116W        W12167   0.566   8.924   5.599  0.3183  0.0852 -0.5519
 8117W        W12168   9.742   7.475   0.154  0.2561 -0.3002 -0.3837
 8118W        W12169   2.777   9.382   9.346 -0.0568  0.0041  0.1375
 8119W        W12170   8.388   5.475  10.672  0.1405 -0.0166  0.0560
 8120W        W12171   4.464   1.779  13.298 -0.1094  0.0007 -0.0773
 8121W        W12172   3.077   3.731   2.296 -0.0846  0.0043 -0.1266
 8122W        W12173   3.358   4.136   3.172 -0.0580  0.1701 -0.3233
 8123W        W12174   0.513   7.375  11.381 -0.0251  0.2367 -0.1381
 8124W        W12175   6.995   3.398  11.318 -0.0399 -0.2367  0.2173
 8125W        W12176   7.375   7.321   3.245  0.3377  0.0719  0.1245
 8126W        W12177   3.423   4.737   1.413  0.0029 -0.0053  0.1136
 8127W        W12178  10.308   8.834  12.210  0.0457 -0.1536  0.1681
 8128W        W12179   5.060   6.289  10.326 -0.0368  0.0921 -0.1109
 8129W        W12180   6.360   1.152   1.911  0.3503  0.1191  0.0204
 8130W        W12181   7.015   6.371   1.240 -0.2641 -0.1303  0.0889
 8131W        W12182   3.072   3.547   0.763  0.1173  0.0407  0.0908
 8132W        W12183   4.094   0.452   4.669  0.1102  0.1835  0.2048
 8133W        W12184   0.138   2.516   2.228 -0.2245 -0.0427  0.0349
 8134W        W12185   5.702  10.284  12.146  0.2291  0.1815  0.1221
 8135W        W12186   1.529   1.212   8.991  0.4600 -0.0350 -0.0779
 8136W        W12187   6.734   6.889  11.149  0.0842 -0.1682 -0.0680
 8137W        W12188   8.197   8.897  13.436 -0.2099  0.2052  0.1550
 8138W        W12189   6.729   7.090   3.942  0.2755  0.2366 -0.1235
 8139W        W12190   8.714   3.514   4.114  0.1994  0.3358 -0.0753
 8140W        W12191   9.269   7.077   3.393 -0.0865  0.0289  0.0469
 8141W        W12192   9.634   4.385   3.671  0.0448  0.2416  0.1201
 8142W        W12193   6.799   8.776   0.685  0.2120 -0.1303 -0.0546
 8143W        W12194   4.459   3.258   3.300 -0.0450 -0.0067 -0.1770
 8144W        W12195   8.638   5.067   2.329 -0.2536  0.0625  0.1612
 8145W        W12196   4.909   3.921  10.360  0.2338  0.0192  0.0996
 8146W        W12197   7.965   2.727   9.899 -0.2256 -0.0355 -0.0575
 8147W        W12198   3.309   0.817  13.448  0.2233  0.0799 -0.1701
 8148W        W12199   0.314   1.304   0.415 -0.2323  0.3000  0.2168
 8149W        W12200   0.052   9.645   4.434 -0.3006  0.1250 -0.0200
 8150W        W12201   0.927   2.660   4.030  0.4457  0.1341  0.0698
 8151W        W12202   8.105   4.716  10.140 -0.0031 -0.4052 -0.0592
 8152W        W12203   2.884   1.658  10.896 -0.4142 -0.0461 -0.3311
 8153W        W12204   6.018   0.670  13.553 -0.0726 -0.0255 -0.0653
 8154W        W12205   9.383   1.216  11.517 -0.0561 -0.1904  0.1353
 8155W        W12206   2.213   6.759  10.455  0.1861 -0.0755  0.0168
 8156W        W12207   6.191   6.309   9.199 -0.2444 -0.0674 -0.0114
 8157W        W12208   0.648   2.921  11.618  0.1772  0.1719 -0.0450
 8158W        W12209   9.614   3.549   2.446 -0.1706 -0.1723  0.0448
 8159W        W12210   6.938   7.502   9.715 -0.0805 -0.1130 -0.0048
 8160W        W12211   4.855   5.941  11.958  0.1797  0.1241 -0.1297
 8161W        W12212   0.364  10.127  11.697 -0.1116  0.1274 -0.3777
 8162W        W12213   1.397   9.036  11.625  0.2951 -0.1563 -0.1379
 8163W        W12214   0.546   8.683   3.604  0.2939 -0.0431  0.0823
 8164W        W12215   8.856   2.059   0.767  0.0877 -0.1408 -0.1422
 8165W        W12216   8.820   6.684   3.849 -0.0367 -0.0498 -0.1557
 8166W        W12217  10.062   4.114   9.654  0.1301  0.2872  0.0071
 8167W        W12218   0.666   8.819   0.723 -0.2687  0.1984  0.1576
 8168W        W12219   7.332   9.854  10.944  0.0666 -0.0070  0.2517
 8169W        W12220   9.243   2.380  12.356 -0.0097  0.1199  0.0546
 8170W        W12221   4.726   1.498   0.556 -0.0327  0.2720 -0.0396
 8171W        W12222   9.067   3.616  13.016 -0.2618  0.0261 -0.0706
 8172W        W12223   6.628   1.541   1.669 -0.1628 -0.3225 -0.0822
 8173W        W12224   0.322   2.818  12.623  0.1520  0.0458  0.2083
 8174W        W12225   5.043   1.934  10.200  0.0660 -0.1005  0.1568
 8175W        W12226   6.058   7.693   1.352  0.1426 -0.3196 -0.0037
 8176W        W12227   4.262   3.049   5.062 -0.3923  0.0175  0.1862
 8177W        W12228   4.299   1.538   9.334 -0.0282 -0.3559 -0.1371
 8178W        W12229   0.915   2.081  13.006  0.0206  0.1353 -0.0907
 8179W        W12230   9.640   3.554  11.759  0.0262  0.0545 -0.1872
 8180W        W12231   3.411   1.212   3.862 -0.3203 -0.1045 -0.0595
 8181W        W12232   4.986   8.967  10.569  0.0653  0.0059  0.0683
 8182W        W12233   0.807   6.276   0.744  0.0100 -0.3535  0.2318
 8183W        W12234   7.209   4.508   0.418 -0.0560  0.2630  0.1901
 8184W        W12235   7.513   0.079   4.070 -0.0202  0.0649  0.3150
 8185W        W12236   5.257   6.566   9.133  0.1254  0.1262  0.0125
 8186W        W12237   2.967   6.595   3.649 -0.0715 -0.0593 -0.1141
 8187W        W12238   8.896   8.014   3.393  0.2230  0.1988 -0.0741
 8188W        W12239   7.442   2.727  13.072 -0.1511 -0.4027 -0.2871
 8189W        W12240   2.863   2.404  12.732 -0.0333  0.0639  0.0238
 8190W        W12241   8.308   0.219   0.262  0.2541  0.0438  0.6704
 8191W        W12242   5.406   8.789   9.501 -0.3736 -0.1685 -0.1331
 8192W        W12243   2.601   1.130  10.152  0.3292  0.1485  0.1190
 8193W        W12244   8.005   5.031  10.521  0.1472 -0.3720 -0.1410
 8194W        W12245   7.874   2.641  11.656 -0.0950  0.1870 -0.1494
 8195W        W12246   0.222   1.124  12.106  0.0258 -0.0738 -0.2295
 8196W        W12247   0.314   3.220   2.804 -0.1446  0.0492 -0.1552
 8197W        W12248   8.528   6.968   4.144  0.1604  0.2146  0.1096
 8198W        W12249   2.837   0.135   5.162 -0.4637 -0.0322  0.0590
 8199W        W12250   8.813   6.999   9.738 -0.0509  0.1129  0.3119
 8200W        W12251   3.345   5.048   4.014  0.1520 -0.0137 -0.2117
 8201W        W12252   9.065   6.475   9.539 -0.2791 -0.1293 -0.1993
 8202W        W12253   0.535   0.555  12.923 -0.1461 -0.0700  0.0364
 8203W        W12254   2.506   1.335   2.981 -0.1224 -0.0355  0.0834
 8204W        W12255   3.706   5.699   1.040  0.1242 -0.2070  0.1997
 8205W        W12256   6.525   4.178  11.580  0.0918 -0.0177  0.3099
 8206W        W12257   7.289   1.996   2.173 -0.0383  0.0396 -0.0876
 8207W        W12258   3.254   0.741   0.451  0.0425  0.0797 -0.1030
 8208W        W12259   9.843   2.132   4.507  0.1526 -0.1185 -0.0785
 8209W        W12260   9.653   8.619   1.962  0.1818 -0.0238  0.0047
 8210W        W12261   7.467   8.883   1.952  0.2186  0.2657  0.0534
 8211W        W12262   9.561   7.816   0.861 -0.1325 -0.0448  0.2846
 8212W        W12263   0.302   6.184  11.500  0.1336 -0.1387  0.0628
 8213W        W12264   5.636   3.108  11.129 -0.1444 -0.0046 -0.1428
 8214W        W12265   7.359   5.494   4.386  0.3124  0.1299  0.1552
 8215W        W12266   0.037   1.666   0.564  0.2230 -0.2837  0.0381
 8216W        W12267   4.803   3.965  11.056 -0.0012 -0.1755 -0.1449
 8217W        W12268   3.731   5.536  12.528  0.2891  0.0229  0.4801
 8218W        W12269   2.415   0.955   4.481 -0.0149 -0.2851 -0.1781
 8219W        W12270   4.191   7.702   0.639  0.0517 -0.3046  0.0793
 8220W        W12271   2.731  10.275   0.265  0.1471 -0.3001 -0.0691
 8221W        W12272   1.019   2.808   1.938  0.1118  0.1710 -0.0200
 8222W        W12273   9.169   0.408   0.344  0.1474 -0.0817 -0.1411
 8223W        W12274  10.071   7.977  11.771 -0.0067  0.0824  0.3766
 8224W        W12275   2.217   2.744   2.018 -0.0480  0.0746 -0.1093
 8225W        W12276   6.141   5.984  12.912  0.0732 -0.0240  0.1575
 8226W        W12277   8.409  10.215  10.146  0.0199  0.1659  0.0081
 8227W        W12278   2.984  10.062  12.644  0.0826  0.3723  0.3491
 8228W        W12279   4.621   8.707  11.433 -0.1144 -0.2897  0.1950
 8229W        W12280   1.967  10.200  11.294 -0.2718 -0.2172  0.0810
 8230W        W12281   0.467   3.040   0.080  0.1612 -0.1589 -0.0427
 8231W        W12282   9.386   6.024   5.443  0.1917  0.0527  0.0499
 8232W        W12283   4.676   1.367   1.345 -0.3856 -0.0096  0.1254
 8233W        W12284   1.961   7.456   2.106 -0.0581 -0.3240 -0.1552
 8234W        W12285   9.378   4.254  12.283  0.0243 -0.0669 -0.1245
 8235W        W12286   5.564   1.449   1.078  0.0051  0.0726 -0.0145
 8236W        W12287   0.445   8.405  12.278 -0.0722  0.0525  0.0680
 8237W        W12288   2.126   9.395  10.072 -0.2206  0.0808 -0.0734
 8238W        W12289   6.945   0.416  12.024 -0.0509  0.2414 -0.2543
 8239W        W12290   7.208   8.919  12.958  0.2814  0.0658  0.0885
 8240W        W12291   9.302   9.889   3.661  0.0893 -0.0312  0.4619
 8241W        W12292   4.101   8.844   0.369 -0.3866 -0.0122  0.3097
 8242W        W12293   2.074   6.699   2.387  0.1445 -0.0917  0.1678
 8243W        W12294   3.400   8.847   3.424 -0.0076 -0.1342 -0.0909
 8244W        W12295   2.972   5.053   3.656  0.1218  0.2366 -0.4476
 8245W        W12296   9.604   9.934   3.108  0.0939  0.0738 -0.2951
 8246W        W12297   2.284   8.797   3.279 -0.2490  0.2850  0.3221
 8247W        W12298   4.634   5.268  12.306  0.2687 -0.0604 -0.3063
 8248W        W12299   8.820   7.443   1.944  0.2135 -0.5273 -0.2903
 8249W        W12300   0.058   6.494   3.950 -0.0326 -0.1757  0.0725
 8250W        W12301   6.160  10.214   3.225 -0.0403  0.3576  0.0056
 8251W        W12302   2.203   4.288  13.168  0.0467 -0.1766 -0.2564
 8252W        W12303   1.289   7.408  10.013  0.0436  0.2945  0.0128
 8253W        W12304   0.540   0.723  12.077 -0.0685  0.0249 -0.0406
 8254W        W12305   1.818   8.527   3.364 -0.0957 -0.0911 -0.2364
 8255W        W12306   8.199  10.082  13.588  0.0602  0.1391 -0.2019
 8256W        W12307   7.202   4.390  10.528 -0.0058  0.0405 -0.0709
 8257W        W12308   8.831   8.667   8.855 -0.0530 -0.1070 -0.1047
 8258W        W12309   0.387   0.215  10.688  0.2235 -0.0539 -0.2306
 8259W        W12310   3.010   2.104   9.431 -0.1300  0.1383  0.2094
 8260W        W12311   0.695   1.335   1.285 -0.1452  0.0423 -0.2524
 8261W        W12312   6.694   1.947   1.340  0.0723  0.1493  0.1045
 8262W        W12313   2.213   8.714  13.048  0.0090  0.0429  0.0176
 8263W        W12314   5.031   9.800   0.846 -0.2199 -0.0068 -0.3077
 8264W        W12315   0.969   6.947  10.697 -0.1565 -0.1638 -0.0033
 8265W        W12316   0.501   5.708  10.409  0.1285 -0.0463 -0.1356
 8266W        W12317   1.264   3.720   3.812 -0.2191  0.1654 -0.0543
 8267W        W12318   2.808   8.449   0.419  0.2063 -0.1536  0.0678
 8268W        W12319   3.901   7.026   1.021 -0.4581  0.1596  0.0184
 8269W        W12320   6.493   7.199   9.779 -0.3046 -0.0792 -0.1410
 8270W        W12321   6.237   6.764   1.385 -0.1806 -0.0478  0.2835
 8271W        W12322   4.733  10.176   0.848  0.0779  0.0536  0.1766
 8272W        W12323   4.722   4.439  12.687  0.4261  0.1473 -0.0763
 8273W        W12324   7.705   0.920  13.469  0.0153  0.1547 -0.1438
 8274W        W12325   8.892   4.476  12.394 -0.1053  0.0752  0.1984
 8275W        W12326   9.801   9.604  11.837  0.0048  0.0136  0.3075
 8276W        W12327   9.587   3.226   5.616  0.2933 -0.0970 -0.0944
 8277W        W12328   4.266  10.113   9.211 -0.2641 -0.0647 -0.1435
 8278W        W12329   7.180   7.797   8.996 -0.0303 -0.2909 -0.0846
 8279W        W12330   0.360   5.334   2.057  0.2528  0.2828 -0.0155
 8280W        W12331   5.619   1.020   2.577 -0.0608 -0.1457  0.1721
 8281W        W12332   3.294   3.746   4.846 -0.2284 -0.3233  0.0479
 8282W        W12333   8.454   1.781  12.493 -0.2305 -0.0610 -0.1566
 8283W        W12334   0.517   5.733   4.920 -0.4321 -0.4101  0.2923
 8284W        W12335   3.894   5.308   9.338  0.1354 -0.0557 -0.0890
 8285W        W12336   4.761  10.066  10.860  0.0018  0.0041 -0.0623
 8286W        W12337   3.186   0.877  12.155 -0.1010  0.1300 -0.2561
 8287W        W12338   5.483   9.293   4.421  0.1253 -0.1924  0.0993
 8288W        W12339   0.411   5.460   2.885  0.3718 -0.2906 -0.0716
 8289W        W12340   8.268   2.372   3.185 -0.1689  0.0223 -0.1892
 8290W        W12341   0.624   5.637  12.763  0.1421 -0.2129  0.1198
 8291W        W12342   2.390   3.592   3.222 -0.3786 -0.1735  0.0576
 8292W        W12343   4.803   6.520   3.636 -0.1661 -0.5004 -0.0730
 8293W        W12344  10.219   8.516  12.712  0.3240 -0.0525 -0.0573
 8294W        W12345   7.921   9.234   2.605 -0.3550  0.0143  0.3320
 8295W        W12346   2.540   9.066  13.155  0.1955  0.2941 -0.1654
 8296W        W12347   3.593   4.239   3.624  0.3189  0.0563 -0.3266
 8297W        W12348   4.533   0.019  13.402 -0.2087  0.0150  0.0470
 8298W        W12349   7.822   4.657  12.780  0.2661 -0.0661 -0.3567
 8299W        W12350   1.543   2.282   9.395 -0.3358 -0.0181 -0.1198
 8300W        W12351   4.675   4.756   9.765  0.1735  0.0527  0.0514
 8301W        W12352   2.567   0.389  13.387 -0.2163 -0.0281 -0.1078
 8302W        W12353   3.199   3.346   2.614  0.4248 -0.2461  0.0094
 8303W        W12354   5.683  10.087   9.807  0.1082 -0.0510  0.5518
 8304W        W12355   6.065   4.191   0.001 -0.0714 -0.1692  0.2589
 8305W        W12356   3.354   5.209  13.422  0.1214  0.3575  0.2029
 8306W        W12357   6.421   0.933   3.100  0.0484 -0.0266  0.1398
 8307W        W12358   2.581   4.327   2.585 -0.0510 -0.1844  0.2677
 8308W        W12359   4.810   7.610  10.069 -0.0453 -0.2111 -0.2395
 8309W        W12360   5.127   4.843   3.233 -0.1057  0.1481  0.0390
 8310W        W12361   5.791   3.823   3.538  0.4097  0.2088  0.0784
 8311W        W12362   5.972   3.418  10.757 -0.0661  0.1651 -0.1230
 8312W        W12363   6.523   0.300  10.019  0.0514 -0.0259  0.1774
 8313W        W12364   5.634   0.756  10.946  0.2103  0.4689 -0.0347
 8314W        W12365   5.645   7.827  13.010  0.2799  0.1711  0.2103
 8315W        W12366   6.508   5.072  11.495  0.1034  0.0856  0.0165
 8316W        W12367   2.738   8.829   0.807  0.3011 -0.0384  0.0448
 8317W        W12368   0.496   1.181   2.312 -0.1228  0.1915 -0.3824
 8318W        W12369   4.575   1.677  10.246  0.1115 -0.1823  0.2199
 8319W        W12370   2.652   9.905  10.132 -0.1587  0.0122 -0.0445
 8320W        W12371   9.394   5.616   4.310  0.0197 -0.2618  0.1837
 8321W        W12372   9.140   4.375   1.514 -0.0205  0.2039 -0.3432
 8322W        W12373   6.714   6.664   2.995  0.0206 -0.0252  0.1622
 8323W        W12374   2.475   1.523  13.462  0.1770 -0.1768 -0.1822
 8324W        W12375   4.712   9.058   0.148 -0.1272  0.0027 -0.0360
 8325W        W12376   4.013   9.145   3.226 -0.1716  0.1717  0.0238
 8326W        W12377   0.481   7.368   0.903 -0.1694  0.1308  0.0317
 8327W        W12378   4.421   4.279   1.048  0.3075  0.3008  0.1728
 8328W        W12379   9.092   7.744   0.752  0.2780  0.0233  0.0865
 8329W        W12380   1.412   3.303   2.602  0.0141  0.0779 -0.0443
 8330W        W12381   7.655   7.846   2.952 -0.3001 -0.0807  0.1236
 8331W        W12382   7.832   2.289   2.875  0.3721 -0.1917  0.2125
 8332W        W12383   9.793   6.076   2.442  0.0542 -0.0563 -0.2243
 8333W        W12384   5.858   1.404   3.996  0.1114 -0.3473 -0.0959
 8334W        W12385   3.027   6.123  13.526  0.3100  0.1447  0.3216
 8335W        W12386   8.533   5.946   3.825  0.2413 -0.3398  0.2372
 8336W        W12387   4.503   8.460   4.160 -0.0377  0.0657 -0.0347
 8337W        W12388   9.570   5.396  13.216 -0.2539  0.1087 -0.0482
 8338W        W12389   0.528   1.955   0.162 -0.0470  0.1659 -0.3205
 8339W        W12390   2.864   4.511   0.989 -0.0793  0.0268 -0.2253
 8340W        W12391   8.538   6.857  11.106  0.1195 -0.1978 -0.3269
 8341W        W12392   1.171   9.386   3.061  0.0615 -0.3301 -0.2951
 8342W        W12393   1.930   0.073   5.706 -0.0019  0.2535 -0.1056
 8343W        W12394   5.138   8.016  10.873  0.3830 -0.3566 -0.0938
 8344W        W12395   6.101   1.817  12.362  0.0487 -0.0315  0.1175
 8345W        W12396   6.337   2.454   2.954  0.1148 -0.0098  0.1197
 8346W        W12397   5.832   5.572   9.840 -0.0255  0.0437  0.0094
 8347W        W12398   6.228   8.967   2.166 -0.1340 -0.2279 -0.0505
 8348W        W12399   2.204   8.163   4.833 -0.0568  0.0681  0.1433
 8349W        W12400   7.304   8.361   1.298 -0.0581 -0.0278  0.2500
 8350W        W12401   5.916   8.106   9.136  0.2074  0.0345 -0.0307
 8351W        W12402   6.582   1.461  13.166  0.1016  0.0448 -0.0566
 8352W        W12403   6.601   9.085  12.686 -0.1544 -0.1920  0.1144
 8353W        W12404   3.538   4.169   9.763  0.0880 -0.4449 -0.3662
 8354W        W12405   1.981   8.040   9.984  0.2413 -0.1892  0.0976
 8355W        W12406   0.763   1.250  11.900  0.4658  0.0811 -0.0131
 8356W        W12407   6.678   3.829  11.237  0.2349  0.1796 -0.2497
 8357W        W12408   1.478   5.646   4.628 -0.0401  0.0994 -0.2514
 8358W        W12409   9.537   1.611  11.783  0.0318  0.0384 -0.0053
 8359W        W12410  10.083   5.295  10.428 -0.0047 -0.3158 -0.1273
 8360W        W12411   2.517   6.422  13.431 -0.4043 -0.0394 -0.3065
 8361W        W12412   3.242   2.756   2.481 -0.0818 -0.0828  0.0337
 8362W        W12413   3.201   1.100   2.941 -0.2809  0.1431 -0.0345
 8363W        W12414   9.355   9.013   4.587 -0.0054 -0.1869  0.2706
 8364W        W12415   2.627   2.470  11.417  0.0705  0.1540  0.0924
 8365W        W12416   9.869   9.741   4.521  0.0338 -0.4407 -0.0484
 8366W        W12417   1.512   8.481   4.634  0.4379  0.0224  0.0568
 8367W        W12418   3.688   4.645   0.134  0.0757  0.0399 -0.4067
 8368W        W12419   4.542   0.170   2.983  0.0418  0.0409  0.0806
 8369W        W12420   5.841   0.522   2.926  0.2397  0.1568 -0.1979
 8370W        W12421   9.431   5.705  12.216 -0.0317 -0.0923  0.0944
 8371W        W12422   0.876   7.036  11.199 -0.1306  0.0414  0.0635
 8372W        W12423   1.513   3.304   1.781  0.1270 -0.0378 -0.1279
 8373W        W12424   1.222   6.471   2.223 -0.0392 -0.3157  0.0247
 8374W        W12425   6.612   9.776   2.520 -0.0665 -0.3019 -0.0329
 8375W        W12426   2.662   0.356   0.711 -0.1965 -0.0136 -0.2428
 8376W        W12427   4.804   1.809  11.175  0.2902  0.0457  0.1923
 8377W        W12428   4.905   2.435  11.793  0.1571  0.0660 -0.1437
 8378W        W12429   5.058   3.821   1.115 -0.1119  0.0798 -0.0305
 8379W        W12430   4.258   9.558   2.172 -0.0159 -0.4418 -0.1916
 8380W        W12431   6.832   0.350  13.387  0.3293  0.1899 -0.4566
 8381W        W12432   5.285   0.401   5.269  0.0593  0.0275  0.0276
 8382W        W12433   0.808   0.113  10.348 -0.2084 -0.0486  0.1951
 8383W        W12434   0.476   3.431   4.347  0.0512 -0.1264 -0.0920
 8384W        W12435   8.852   4.662   1.174  0.0409 -0.0614  0.0992
 8385W        W12436   3.564   9.100   1.990  0.2032 -0.3632  0.0700
 8386W        W12437  10.030   6.494  12.520  0.1600  0.1595  0.0629
 8387W        W12438   2.228   1.731   2.810 -0.2332 -0.0702  0.1095
 8388W        W12439   4.463   9.973   3.173 -0.0389 -0.2462  0.1155
 8389W        W12440   6.824   9.092  12.177  0.0739  0.0305 -0.1484
 8390W        W12441   6.424   9.732   3.305  0.1755 -0.2194  0.6502
 8391W        W12442   2.009   2.804  12.690 -0.0764 -0.0014 -0.3927
 8392W        W12443   2.093   2.179  12.143  0.2397  0.1805  0.2447
 8393W        W12444   4.789   9.810   2.294  0.2562  0.1064 -0.0588
 8394W        W12445   5.864   0.311   9.326  0.1294 -0.0311 -0.2777
 8395W        W12446   2.961   6.713   4.147 -0.2491  0.1415 -0.2343
 8396W        W12447   5.255   1.119   3.588 -0.0892 -0.1052  0.1761
 8397W        W12448   8.938   4.960  10.006  0.0891  0.0882 -0.0985
 8398W        W12449   2.019   9.257   1.812  0.0130  0.0766 -0.0070
 8399W        W12450   6.998   5.682   2.654  0.1961 -0.2922 -0.0746
 8400W        W12451   5.737   8.077  10.049 -0.0641  0.0116  0.1086
 8401W        W12452   2.537   0.011   1.133 -0.2285 -0.2362 -0.1625
 8402W        W12453   0.153   5.534   2.445 -0.3249 -0.0987 -0.3239
 8403W        W12454   3.078   0.604   4.817 -0.2032 -0.0610  0.2266
 8404W        W12455   1.688   7.990   4.788  0.2120  0.3374  0.0585
 8405W        W12456   0.477   9.541   4.719 -0.1760  0.0754  0.1714
 8406W        W12457   7.004   1.581   0.398  0.1060 -0.0390 -0.1477
 8407W        W12458   8.184   2.963   0.711 -0.0537 -0.1052  0.1375
 8408W        W12459   9.601  10.111   3.991  0.0500  0.1303 -0.0003
 8409W        W12460   9.033   0.612  12.154 -0.3720  0.1845  0.3869
 8410W        W12461   1.448   8.675   3.762  0.0732  0.1900  0.2377
 8411W        W12462   3.888   3.565  13.476  0.0450  0.1125  0.1151
 8412W        W12463   2.651   2.344  13.144 -0.1357 -0.2314 -0.0876
 8413W        W12464   2.291   1.934   0.904 -0.0255  0.0095 -0.3725
 8414W        W12465   1.935   2.401   9.727 -0.1498 -0.2055  0.0601
 8415W        W12466   8.028   1.162  13.191 -0.0387 -0.2415  0.1680
 8416W        W12467   8.389   4.890   4.027  0.1254  0.5373 -0.3325
 8417W        W12468   2.925   1.531   3.104  0.1310  0.0438  0.1618
 8418W        W12469   7.804   3.779   3.890  0.0200  0.2034 -0.0195
 8419W        W12470   5.940   2.758   2.735 -0.0760 -0.0551 -0.1087
 8420W        W12471   9.427   8.470   2.389  0.0140 -0.1429  0.1132
 8421W        W12472   6.469   0.114   1.047 -0.0787 -0.2810 -0.3045
 8422W        W12473   8.593   9.876  11.298  0.2230  0.1417 -0.1467
 8423W        W12474   8.468   5.344   0.630  0.1339 -0.3236  0.1657
 8424W        W12475   8.553   2.563   1.807  0.2242  0.0001 -0.2503
 8425W        W12476   5.797   1.712   9.132 -0.1259 -0.0991 -0.1724
 8426W        W12477   0.315   9.516   4.063 -0.5033 -0.0893  0.1526
 8427W        W12478   7.549   7.084  13.029  0.0157  0.0781  0.2005
 8428W        W12479   6.649  10.244  10.294  0.3822 -0.1063  0.1358
 8429W        W12480   5.629   2.920  13.573 -0.2143  0.1012 -0.1696
 8430W        W12481   0.075   8.666   3.938 -0.1742  0.2518  0.0183
 8431W        W12482   5.365   5.040  12.160 -0.0594 -0.0659 -0.0491
 8432W        W12483   7.473   9.951   9.930  0.2105  0.0112 -0.1437
 8433W        W12484   1.627   7.817  12.311  0.4332  0.2248 -0.1114
 8434W        W12485   6.488   3.592   2.192 -0.1724 -0.0101 -0.0281
 8435W        W12486   8.191   2.680   1.181 -0.1948 -0.1525 -0.1137
 8436W        W12487   1.412   8.699   3.154  0.3487 -0.2709 -0.2572
 8437W        W12488   6.923   1.712   9.362  0.2497  0.4179 -0.1220
 8438W        W12489   0.876   8.964   4.408  0.0068 -0.0821  0.0841
 8439W        W12490   5.046   2.476  10.092 -0.1569  0.2263 -0.1118
 8440W        W12491   9.474   4.278  10.890 -0.0061  0.1460 -0.0359
 8441W        W12492   0.258   4.392   3.827 -0.2391  0.0280  0.0808
 8442W        W12493   9.243   9.997  13.044 -0.0953  0.1260 -0.0338
 8443W        W12494   2.218   6.213   0.196  0.0678  0.1195 -0.0664
 8444W        W12495   9.752   6.781   0.766 -0.0225 -0.1348 -0.0870
 8445W        W12496   6.730   2.369  10.266 -0.1389 -0.1394  0.1755
 8446W        W12497   9.589   6.016  10.923 -0.1702  0.0344  0.1845
 8447W        W12498   0.082   4.340   0.193  0.0799 -0.0253 -0.1985
 8448ION    NA+12499   6.575   3.941  10.050 -0.1895  0.1512  0.0819
 8449ION    NA+12500   2.742   9.090   1.688 -0.0285 -0.1220  0.0740
 8450ION    NA+12501   1.533   7.271   2.307 -0.0334  0.1066  0.0794
 8451ION    NA+12502   7.576   3.423  10.404 -0.0578  0.1172  0.0726
 8452ION    NA+12503   2.822   1.153   4.128  0.1420 -0.0602 -0.3117
 8453ION    NA+12504   1.539   6.613  13.161 -0.1666 -0.0803 -0.0168
 8454ION    NA+12505   6.693   5.529  11.571 -0.0692  0.0825  0.3567
 8455ION    NA+12506   5.941   0.682  13.012 -0.2220  0.0819 -0.1669
 8456ION    NA+12507   5.951   9.386   9.900  0.1458 -0.0050  0.0995
 8457ION    NA+12508   0.352   9.576  11.562 -0.0873  0.1815  0.0780
 8458ION    NA+12509   9.814   1.559   1.638 -0.1017  0.2277  0.0361
 8459ION    NA+12510   9.341   3.395   1.343  0.1319 -0.1296 -0.2084
 8460ION    NA+12511   0.234   8.721   2.098  0.0540 -0.2802  0.3194
 8461ION    NA+12512   8.583   3.344   2.367  0.3091  0.0569  0.2221
 8462ION    NA+12513   4.520   3.050   3.743 -0.4421  0.2561  0.1313
 8463ION    NA+12514   4.609   2.709  10.511 -0.2488 -0.2266  0.1078
 8464ION    NA+12515   2.370   4.671   5.295  0.2099 -0.1807  0.0762
 8465ION    NA+12516   9.415   1.318   1.264  0.3459 -0.0973  0.2228
 8466ION    NA+12517   0.715   2.586   3.323 -0.1191  0.1415 -0.0350
 8467ION    NA+12518   3.960   7.691   4.776 -0.2880  0.2944 -0.0321
 8468ION    NA+12519   3.354   9.471   5.130 -0.0978 -0.1091 -0.1310
 8469ION    NA+12520   3.579   6.134  10.367  0.2095 -0.1843  0.0338
 8470ION    NA+12521   2.442   4.838   2.385  0.0719 -0.1848  0.1991
 8471ION    NA+12522   5.098   9.324   3.031 -0.1081 -0.1485 -0.0180
 8472ION    NA+12523   7.712   4.858   2.065 -0.2145  0.1147  0.0375
 8473ION    NA+12524   6.255   4.884   3.824 -0.2834  0.0465  0.1682
 8474ION    NA+12525   1.836   0.884   5.577 -0.1103  0.3122 -0.0501
 8475ION    NA+12526   7.730   6.876  11.786  0.0390 -0.0635 -0.3078
 8476ION    NA+12527   5.462   8.742   8.933 -0.1178  0.0460  0.2109
 8477ION    NA+12528   1.089   9.192   0.818 -0.1987 -0.3026  0.0678
 8478ION    NA+12529   6.277   9.550   0.518  0.1394 -0.2342 -0.0403
 8479ION    NA+12530  10.118   8.019   2.436 -0.0259 -0.0250 -0.1750
 8480ION    NA+12531   6.201   6.347  11.888  0.1481  0.0318 -0.3288
 8481ION    NA+12532   3.265   2.671  12.187  0.3174 -0.2635  0.1837
 8482ION    NA+12533   9.666   8.666   0.937  0.2921  0.0635  0.0723
 8483ION    NA+12534   2.614   9.003   3.965  0.0153  0.0783 -0.0202
 8484ION    NA+12535   4.645   8.469   3.636 -0.0612 -0.0037  0.1392
 8485ION    NA+12536   2.207   6.049  13.279  0.0151 -0.2438  0.0534
 8486ION    NA+12537   5.841   5.759  12.602 -0.2613 -0.0659  0.2416
 8487ION    NA+12538   7.442   0.276   0.674  0.2676 -0.1972 -0.1699
 8488ION    NA+12539   0.345   2.667   5.900  0.4036 -0.1416 -0.1069
 8489ION    NA+12540   7.547   5.344   1.605 -0.2120  0.3888  0.1575
 8490ION    NA+12541   2.352   5.966   1.128 -0.0139  0.1804 -0.3033
 8491ION    NA+12542   1.036   5.879   4.601  0.2371  0.3421 -0.0513
 8492ION    NA+12543   5.269   0.600   2.340  0.3368  0.0243 -0.0071
 8493ION    NA+12544   9.018   7.896   1.711 -0.1883 -0.2226 -0.0432
 8494ION    NA+12545   1.619   4.902  10.866  0.0884 -0.1014 -0.2020
 8495ION    NA+12546   6.325   6.636   4.056 -0.3480  0.0963 -0.1008
 8496ION    NA+12547   2.711   8.237  10.399  0.3219  0.2057  0.1150
 8497ION    NA+12548   9.990   4.923   4.512 -0.3200 -0.0021  0.1231
 8498ION    NA+12549   8.119   2.218   1.099 -0.0579 -0.2258 -0.3711
 8499ION    NA+12550   0.413   9.387   0.762  0.1501  0.0506  0.1334
 8500ION    NA+12551   8.566   7.311  13.001  0.0489  0.1575  0.0004
 8501ION    NA+12552   4.721   8.165  12.212  0.0316  0.1130 -0.0805
 8502ION    NA+12553   6.824   3.225   3.329 -0.0069 -0.4026  0.1275
 8503ION    NA+12554   4.020   7.237   8.919 -0.0462  0.1733 -0.4098
 8504ION    NA+12555   3.361   6.717  11.647  0.0633 -0.1186 -0.4216
 8505ION    NA+12556   8.767   0.474  10.773 -0.0801 -0.2509 -0.1794
 8506ION    NA+12557   5.035   7.274  12.385  0.0705  0.1563  0.2467
 8507ION    NA+12558   6.330   2.183   9.919 -0.2932 -0.1469  0.0250
 8508ION    NA+12559   8.675   5.130   1.077  0.2046 -0.0078 -0.0813
 8509ION    NA+12560   7.162   3.659   4.065  0.1867  0.0341  0.0528
 8510ION    NA+12561   0.541  10.202   2.657  0.1042 -0.1546  0.1085
 8511ION    NA+12562   4.698   8.102   9.637  0.0717 -0.1471 -0.0437
 8512ION    NA+12563   5.894   6.806   0.400  0.2672 -0.1344  0.0115
 8513ION    NA+12564   6.664   0.221   4.946  0.2545 -0.2884  0.2337
 8514ION    NA+12565   3.549   9.002  12.157  0.0981 -0.0442  0.1356
 8515ION    NA+12566   0.948   8.821  11.826 -0.1056  0.0383  0.0690
 8516ION    NA+12567   4.723   1.472   2.643  0.0324 -0.2455 -0.0637
 8517ION    NA+12568   1.310   7.337   3.354  0.0677  0.3078  0.3192
 8518ION    NA+12569   6.220   6.978   8.594  0.5075 -0.1282  0.1250
 8519ION    NA+12570   8.144   7.475   9.232 -0.0312 -0.2085  0.1483
 8520ION    NA+12571   6.581   8.624   8.694 -0.0149  0.1075 -0.1516
 8521ION    NA+12572   9.007   4.862   4.668 -0.2955  0.0479  0.3411
 8522ION    NA+12573   3.061   1.301   1.056 -0.0681 -0.1934  0.4453
 8523ION    NA+12574   1.826   9.781   1.117 -0.3190 -0.0968  0.0010
 8524ION    NA+12575   2.942   5.053   9.429  0.1832 -0.1439  0.0043
 8525ION    NA+12576   0.160   8.706   0.072 -0.3126 -0.1708 -0.2861
 8526ION    NA+12577   9.325  10.057   5.454 -0.1168 -0.0506  0.2440
 8527ION    NA+12578   9.587   2.428   0.008  0.0001  0.0317 -0.1150
 8528ION    NA+12579   3.010   7.774   1.298 -0.0754 -0.0355 -0.0436
 8529ION    NA+12580   7.348   0.019  10.826 -0.1349  0.1970  0.1136
 8530ION    NA+12581   8.131   2.846   0.219 -0.0741 -0.0182 -0.1624
 8531ION    NA+12582   0.651   6.151  11.143 -0.1550 -0.2179  0.1714
 8532ION    NA+12583   5.947   1.350   5.020  0.0643  0.1644 -0.0277
 8533ION    NA+12584   1.095   1.296   5.701  0.0162  0.0130 -0.0069
 8534ION    NA+12585   9.590   3.005   2.141  0.1513 -0.0943 -0.1465
 8535ION    NA+12586   7.459   9.511   4.389  0.2369 -0.0841 -0.4008
 8536ION    NA+12587   6.234   4.378   2.854  0.2439 -0.2746  0.0892
 8537ION    CL-12588   1.104   3.883   3.335  0.1722 -0.1792 -0.0991
 8538ION    CL-12589   7.050   0.352  10.550  0.0004  0.1070 -0.0774
 8539ION    CL-12590   0.763   9.424   1.089 -0.0422 -0.0321 -0.3915
 8540ION    CL-12591  10.271   3.661   5.050 -0.3702  0.1970 -0.0943
 8541ION    CL-12592   4.429  10.317   9.842  0.2104 -0.1575  0.1841
 8542ION    CL-12593   7.869   1.034   4.263 -0.0574  0.1743  0.1290
 8543ION    CL-12594  10.144   8.400   2.006  0.1398  0.0765 -0.1618
 8544ION    CL-12595   8.469   3.801  10.239  0.0141 -0.0092  0.0992
 8545ION    CL-12596   3.326   5.806  10.698 -0.2841 -0.1190 -0.1420
 8546ION    CL-12597   4.596   2.243  10.287 -0.0777  0.1154  0.2377
 8547ION    CL-12598   2.613   7.703   1.012 -0.1616 -0.1439  0.3008
 8548ION    CL-12599   7.171   6.841   9.428 -0.0700 -0.1434 -0.0170
 8549ION    CL-12600   2.155   0.920  12.272 -0.1455 -0.1302 -0.1858
 8550ION    CL-12601   5.093   8.402   9.665 -0.0657 -0.1626  0.1913
 8551ION    CL-12602   4.848   9.759   2.872  0.1369 -0.4025 -0.2049
 8552ION    CL-12603   6.561   2.883   0.135 -0.1479 -0.0020  0.2145
 8553ION    CL-12604   2.213   9.201   4.232  0.1260 -0.0441 -0.1127
 8554ION    CL-12605   3.200   3.484  10.137  0.0168 -0.0224 -0.0645
 8555ION    CL-12606   1.397   8.107   4.313 -0.1379  0.2285 -0.3955
 8556ION    CL-12607   1.170   5.616   3.770 -0.0071  0.0572 -0.0670
 8557ION    CL-12608   1.733   7.027   3.380 -0.0775 -0.0160  0.1315
 8558ION    CL-12609   6.890   0.136   4.393  0.0729 -0.0456 -0.4298
 8559ION    CL-12610   4.637   1.415   4.387 -0.2912  0.1951  0.1308
 8560ION    CL-12611   8.305   1.807   1.422 -0.2959  0.0052 -0.0841
 8561ION    CL-12612   4.843   0.973   2.693  0.0443 -0.2598  0.2955
 8562ION    CL-12613   1.745   9.995   3.556  0.1612  0.0534 -0.0699
 8563ION    CL-12614   4.979   2.844   3.697 -0.1630 -0.0481  0.0951
 8564ION    CL-12615   1.360   7.473   2.779 -0.1505 -0.0541  0.2878
 8565ION    CL-12616   2.060   1.753   2.337  0.1696 -0.0145  0.0348
 8566ION    CL-12617   8.248   3.334   0.337 -0.2441  0.2760 -0.0516
 8567ION    CL-12618   8.946   5.504   2.227  0.1589  0.1861 -0.1078
 8568ION    CL-12619   8.147   2.343   0.090  0.1341 -0.1632  0.2425
 8569ION    CL-12620   4.938   8.108  11.780 -0.3174 -0.0295  0.2892
 8570ION    CL-12621   5.599   9.420   2.934 -0.4704 -0.2859  0.1765
 8571ION    CL-12622  10.215   4.539   4.724 -0.0810 -0.1966  0.0731
 8572ION    CL-12623   6.341   3.159   3.551  0.1862 -0.1602  0.2002
 8573ION    CL-12624   7.581   4.798   1.608 -0.0435 -0.2481 -0.0598
 8574ION    CL-12625   9.902   3.210   1.703 -0.1487 -0.2748  0.1189
 8575ION    CL-12626   3.319   0.848   4.365  0.1149 -0.0789 -0.1059
 8576ION    CL-12627   3.670   8.140   3.997 -0.2943  0.2558  0.3024
 8577ION    CL-12628   4.405   9.209   0.687 -0.3204 -0.1286  0.0333
 8578ION    CL-12629   5.442   7.183  12.010  0.2004  0.0282  0.2562
 8579ION    CL-12630   7.773  10.035  10.612 -0.4491  0.1795  0.1267
 8580ION    CL-12631   8.189   6.637  11.867  0.2054  0.2126  0.1492
 8581ION    CL-12632   8.293   7.428   9.774  0.1892  0.1376 -0.2844
 8582ION    CL-12633   9.548   9.147   0.961 -0.0915 -0.1652 -0.0311
 8583ION    CL-12634   9.016   7.151  13.115 -0.0920 -0.1281 -0.0239
 8584ION    CL-12635   8.109   5.023   2.350  0.2579 -0.1931  0.3950
 8585ION    CL-12636   5.488   8.937   4.012  0.3438 -0.1801 -0.2382
 8586ION    CL-12637  10.255   7.683   4.807  0.0361 -0.1539  0.0047
 8587ION    CL-12638   3.124   5.247   3.161  0.0124  0.3252  0.0474
 8588ION    CL-12639   3.136   9.087   4.354 -0.2188  0.2125 -0.0959
 8589ION    CL-12640   1.843   0.014   4.818 -0.1293  0.1693  0.1625
 8590ION    CL-12641   7.205   0.157   0.302  0.3273  0.1264 -0.2991
 8591ION    CL-12642   6.776   5.451  11.070 -0.0997  0.3636  0.0107
 8592ION    CL-12643   2.131   0.652   1.664 -0.0029 -0.1994  0.1257
 8593ION    CL-12644   6.650   4.442   3.137 -0.2046 -0.2621  0.0668
 8594ION    CL-12645   7.310   5.211   2.025  0.2499  0.0669  0.1503
 8595ION    CL-12646   8.140   9.519   4.415 -0.2323  0.1120 -0.1925
 8596ION    CL-12647  10.239   2.424   4.154 -0.1566  0.1789 -0.1786
 8597ION    CL-12648   9.117   6.961  11.401 -0.3129  0.1600 -0.0466
 8598ION    CL-12649   2.322   7.576  10.055  0.1975 -0.1171  0.0893
 8599ION    CL-12650   5.627   9.214   9.483  0.2068 -0.0759 -0.1064
 8600ION    CL-12651   2.222   9.400   1.087 -0.0252 -0.2670  0.1987
 8601ION    CL-12652   1.627   3.732  10.141  0.2362  0.1043 -0.2363
 8602ION    CL-12653   2.507   0.745   3.911  0.4649 -0.2654 -0.0202
 8603ION    CL-12654   8.951   3.384   2.740  0.0527  0.0974 -0.0008
 8604ION    CL-12655   8.953   2.656   0.783 -0.1365  0.2476 -0.0758
 8605ION    CL-12656   3.743   0.631  10.844  0.1019 -0.1825 -0.2174
 8606ION    CL-12657   4.473   8.809   3.324 -0.2348 -0.0340  0.0120
 8607ION    CL-12658   3.064   2.444   4.618 -0.1093 -0.1277 -0.2013
 8608ION    CL-12659   4.094   4.299  10.444 -0.1656  0.2830  0.0505
 8609ION    CL-12660   0.665   9.379  11.160  0.0792 -0.0845  0.1686
 8610ION    CL-12661   1.246  10.038   0.546 -0.2668  0.0561  0.1549
 8611ION    CL-12662  10.126   8.115   9.436  0.1442  0.1174  0.3197
 8612ION    CL-12663   6.915   8.022   0.565 -0.1720 -0.1640 -0.2387
 8613ION    CL-12664   0.373  10.302   3.558  0.2185 -0.0476 -0.1900
 8614ION    CL-12665   6.945   2.752  10.623  0.3454  0.0539  0.1760
 8615ION    CL-12666   6.315   0.512  12.693 -0.1604  0.1639 -0.1132
 8616ION    CL-12667   3.679   9.205  12.633 -0.2609 -0.0251 -0.1465
 8617ION    CL-12668   9.868   0.261  11.803 -0.0301 -0.1870 -0.0574
 8618ION    CL-12669   1.874   6.149  12.895  0.0649  0.2291  0.1334
 8619ION    CL-12670   8.801   8.750   1.457 -0.1756 -0.0111  0.4884
 8620ION    CL-12671   9.476   1.213   1.741  0.1253 -0.2238  0.0269
 8621ION    CL-12672   6.342   5.889  11.920 -0.0892  0.0630  0.2434
 8622ION    CL-12673   4.133   8.292  12.202 -0.4437  0.1092 -0.0296
 8623ION    CL-12674   2.078   7.016  13.223 -0.4033 -0.0500 -0.1850
 8624ION    CL-12675   2.586   5.696   1.499 -0.0220 -0.0973 -0.1378
 8625ION    CL-12676   9.916   7.817   9.995 -0.0084 -0.2492 -0.2641
  10.32732  10.32732  13.58963
