Protein in INSANE! Membrane UpperLeaflet>POPC=1.0 LowerLeaflet>POPC=1.0
11530
    1AU     AUC    1   5.256   5.282   6.004
    1AU     AUC    2   5.557   5.321   5.834
    1AU     AUC    3   5.536   5.301   6.171
    1AU     AUC    4   4.967   5.265   5.840
    1AU     AUC    5   4.967   5.266   6.191
    1AU     AUC    6   5.067   5.529   6.022
    1AU     AUC    7   5.408   5.558   6.006
    1AU     AUC    8   5.098   4.998   6.009
    1AU     AUC    9   5.459   5.045   5.994
    1AU     AUC   10   5.293   5.114   6.273
    1AU     AUC   11   5.240   5.441   6.283
    1AU     AUC   12   5.273   5.123   5.726
    1AU     AUC   13   5.272   5.459   5.733
    1AU     AUC   14   5.864   5.350   5.678
    1AU     AUC   15   5.904   5.342   5.998
    1AU     AUC   16   5.842   5.304   6.365
    1AU     AUC   17   4.665   5.241   5.669
    1AU     AUC   18   4.629   5.291   6.036
    1AU     AUC   19   4.686   5.256   6.369
    1AU     AUC   20   4.899   5.831   6.005
    1AU     AUC   21   5.241   5.892   5.997
    1AU     AUC   22   5.555   5.874   6.015
    1AU     AUC   23   4.926   4.679   6.016
    1AU     AUC   24   5.272   4.718   6.003
    1AU     AUC   25   5.665   4.766   5.965
    1AU     AUC   26   5.311   4.891   6.559
    1AU     AUC   27   5.259   5.215   6.601
    1AU     AUC   28   5.254   5.594   6.570
    1AU     AUC   29   5.270   4.930   5.439
    1AU     AUC   30   5.267   5.275   5.421
    1AU     AUC   31   5.286   5.634   5.436
    1AU     AUC   32   5.593   5.060   6.466
    1AU     AUC   33   5.562   5.425   6.511
    1AU     AUC   34   5.565   5.139   5.518
    1AU     AUC   35   5.588   5.500   5.509
    1AU     AUC   36   4.968   5.057   6.489
    1AU     AUC   37   4.963   5.417   6.498
    1AU     AUC   38   4.930   5.065   5.559
    1AU     AUC   39   4.938   5.440   5.529
    1AU     AUC   40   5.760   5.616   5.856
    1AU     AUC   41   5.705   5.585   6.212
    1AU     AUC   42   4.777   5.553   5.809
    1AU     AUC   43   4.759   5.572   6.201
    1AU     AUC   44   5.774   5.039   5.806
    1AU     AUC   45   5.787   5.014   6.133
    1AU     AUC   46   4.737   4.978   5.865
    1AU     AUC   47   4.774   4.982   6.196
    1AU     AUC   48   5.061   5.760   6.296
    1AU     AUC   49   5.397   5.761   6.311
    1AU     AUC   50   5.079   4.772   6.280
    1AU     AUC   51   5.493   4.793   6.296
    1AU     AUC   52   5.065   5.721   5.679
    1AU     AUC   53   5.457   5.762   5.680
    1AU     AUC   54   5.061   4.793   5.733
    1AU     AUC   55   5.452   4.828   5.675
    1AU    AUSL   56   5.846   5.202   6.724
    1AU    AUSL   57   5.702   4.734   6.587
    1AU     AUL   58   5.951   4.824   6.793
    1AU       S   59   6.126   4.448   6.583
    1AU     LIG   60   6.101   4.139   6.909
    1AU     LIG   61   6.238   3.778   7.187
    1AU       S   62   6.106   5.255   6.887
    1AU     LIG   63   6.068   5.397   7.314
    1AU     LIG   64   6.109   5.118   7.684
    1AU    AUSL   65   5.456   5.015   6.808
    1AU    AUSL   66   5.118   5.349   6.884
    1AU     AUL   67   5.316   5.189   7.137
    1AU       S   68   5.759   5.023   7.160
    1AU     LIG   69   5.598   5.127   7.564
    1AU     LIG   70   5.695   5.032   8.009
    1AU       S   71   4.586   5.145   7.195
    1AU     LIG   72   4.710   5.414   7.559
    1AU     LIG   73   4.654   5.419   8.026
    1AU    AUSL   74   5.464   5.432   6.673
    1AU    AUSL   75   5.871   5.622   6.639
    1AU     AUL   76   5.686   5.450   6.962
    1AU       S   77   5.299   5.694   7.129
    1AU     LIG   78   5.625   5.633   7.424
    1AU     LIG   79   5.830   5.524   7.819
    1AU       S   80   6.003   5.780   6.849
    1AU     LIG   81   6.430   5.803   6.904
    1AU     LIG   82   6.832   5.951   7.087
    1AU    AUSL   83   5.816   5.388   5.268
    1AU    AUSL   84   5.702   5.825   5.335
    1AU     AUL   85   5.843   5.679   5.013
    1AU       S   86   5.727   5.274   4.808
    1AU     LIG   87   6.030   5.238   4.428
    1AU     LIG   88   6.215   5.085   4.016
    1AU       S   89   6.075   5.956   5.302
    1AU     LIG   90   5.893   6.207   5.037
    1AU     LIG   91   6.065   6.574   4.817
    1AU    AUSL   92   5.472   5.136   5.230
    1AU    AUSL   93   5.804   5.063   5.552
    1AU     AUL   94   5.900   5.080   5.187
    1AU       S   95   5.879   4.294   5.202
    1AU     LIG   96   6.318   4.176   5.066
    1AU     LIG   97   6.573   4.198   4.654
    1AU       S   98   5.531   4.927   4.904
    1AU     LIG   99   5.523   4.693   4.465
    1AU     LIG  100   5.750   4.854   4.093
    1AU    AUSL  101   5.409   5.565   5.161
    1AU    AUSL  102   5.088   5.002   5.136
    1AU     AUL  103   5.266   5.308   4.930
    1AU       S  104   4.884   5.032   4.827
    1AU     LIG  105   5.079   4.990   4.430
    1AU     LIG  106   4.902   5.005   3.985
    1AU       S  107   5.675   5.054   4.744
    1AU     LIG  108   5.522   5.241   4.346
    1AU     LIG  109   5.775   5.376   3.968
    1AU    AUSL  110   4.750   5.230   6.693
    1AU    AUSL  111   4.992   5.679   6.654
    1AU     AUL  112   4.852   5.540   6.964
    1AU       S  113   4.510   5.223   6.898
    1AU     LIG  114   4.308   5.547   7.227
    1AU     LIG  115   4.218   5.424   7.704
    1AU       S  116   4.589   5.907   6.793
    1AU     LIG  117   4.460   6.200   7.086
    1AU     LIG  118   4.284   6.453   7.444
    1AU    AUSL  119   5.038   4.924   6.851
    1AU    AUSL  120   4.645   4.834   6.560
    1AU     AUL  121   4.719   4.807   6.851
    1AU       S  122   4.482   4.432   6.680
    1AU     LIG  123   4.014   4.484   6.807
    1AU     LIG  124   3.722   4.359   7.177
    1AU       S  125   4.835   5.103   7.177
    1AU     LIG  126   5.016   4.999   7.554
    1AU     LIG  127   4.748   4.922   7.917
    1AU    AUSL  128   4.715   5.160   5.284
    1AU    AUSL  129   4.975   4.848   5.519
    1AU     AUL  130   4.825   4.767   5.202
    1AU       S  131   4.516   5.096   5.043
    1AU     LIG  132   4.338   5.458   4.801
    1AU     LIG  133   4.214   5.550   4.342
    1AU       S  134   4.396   4.539   5.247
    1AU     LIG  135   4.369   4.091   5.115
    1AU     LIG  136   4.200   3.750   4.831
    1AU    AUSL  137   5.069   5.404   5.338
    1AU    AUSL  138   4.624   5.548   5.423
    1AU     AUL  139   4.820   5.449   5.062
    1AU       S  140   4.449   5.679   5.239
    1AU     LIG  141   4.150   5.973   5.066
    1AU     LIG  142   4.054   6.191   4.651
    1AU       S  143   4.615   5.011   4.784
    1AU     LIG  144   4.703   5.342   4.463
    1AU     LIG  145   4.639   5.471   4.029
    1AU    AUSL  146   5.937   5.899   6.053
    1AU    AUSL  147   5.939   5.608   5.613
    1AU     AUL  148   6.093   5.994   5.771
    1AU       S  149   6.186   5.657   5.428
    1AU     LIG  150   6.336   5.662   4.974
    1AU     LIG  151   6.368   6.114   4.845
    1AU       S  152   6.467   5.875   6.393
    1AU     LIG  153   6.624   6.228   6.106
    1AU     LIG  154   6.899   6.301   5.746
    1AU    AUSL  155   6.210   5.566   5.926
    1AU    AUSL  156   6.220   5.178   6.169
    1AU     AUL  157   6.526   5.366   6.032
    1AU       S  158   6.383   5.786   6.151
    1AU     LIG  159   6.673   5.809   5.812
    1AU     LIG  160   7.102   5.731   5.645
    1AU       S  161   6.479   4.887   6.022
    1AU     LIG  162   6.719   4.807   6.397
    1AU     LIG  163   7.112   4.543   6.441
    1AU    AUSL  164   5.952   5.497   6.253
    1AU    AUSL  165   5.625   5.800   6.319
    1AU     AUL  166   5.978   5.901   6.394
    1AU       S  167   5.967   6.085   6.860
    1AU     LIG  168   6.338   6.267   6.687
    1AU     LIG  169   6.756   6.399   6.854
    1AU       S  170   6.317   5.572   6.427
    1AU     LIG  171   6.849   5.569   6.383
    1AU     LIG  172   7.340   5.705   6.449
    1AU    AUSL  173   4.607   5.783   6.037
    1AU    AUSL  174   4.618   5.564   6.460
    1AU     AUL  175   4.343   5.910   6.300
    1AU       S  176   4.482   5.653   6.669
    1AU     LIG  177   4.101   5.875   6.852
    1AU     LIG  178   3.987   6.047   7.265
    1AU       S  179   4.564   6.202   6.000
    1AU     LIG  180   4.141   6.156   5.828
    1AU     LIG  181   3.802   6.379   5.609
    1AU    AUSL  182   4.524   5.418   5.801
    1AU    AUSL  183   4.680   5.919   5.646
    1AU     AUL  184   4.379   5.747   5.711
    1AU       S  185   4.225   5.288   5.453
    1AU     LIG  186   3.934   5.705   5.495
    1AU     LIG  187   3.507   5.957   5.466
    1AU       S  188   4.505   6.122   5.431
    1AU     LIG  189   4.287   6.447   5.242
    1AU     LIG  190   3.895   6.522   5.044
    1AU    AUSL  191   4.318   5.478   6.176
    1AU    AUSL  192   4.305   5.083   5.925
    1AU     AUL  193   4.125   5.399   5.895
    1AU       S  194   4.043   5.026   6.186
    1AU     LIG  195   3.808   4.979   5.799
    1AU     LIG  196   3.455   4.716   5.644
    1AU       S  197   4.098   5.512   6.375
    1AU     LIG  198   3.813   5.859   6.425
    1AU     LIG  199   3.378   6.044   6.370
    1AU    AUSL  200   5.985   4.891   5.948
    1AU    AUSL  201   5.855   5.041   6.338
    1AU     AUL  202   6.174   4.915   6.379
    1AU       S  203   6.275   4.746   5.947
    1AU     LIG  204   6.341   4.382   5.797
    1AU     LIG  205   6.716   4.132   5.650
    1AU       S  206   6.361   4.453   6.352
    1AU     LIG  207   6.580   4.403   6.766
    1AU     LIG  208   6.514   4.243   7.203
    1AU    AUSL  209   6.167   5.202   5.709
    1AU    AUSL  210   5.876   4.614   5.653
    1AU     AUL  211   6.107   4.868   5.536
    1AU       S  212   6.480   4.973   5.779
    1AU     LIG  213   6.738   4.657   5.595
    1AU     LIG  214   7.152   4.432   5.681
    1AU       S  215   6.006   4.426   5.415
    1AU     LIG  216   6.126   4.000   5.527
    1AU     LIG  217   6.161   3.680   5.198
    1AU    AUSL  218   4.662   4.851   6.028
    1AU    AUSL  219   4.553   4.952   5.607
    1AU     AUL  220   4.299   4.755   5.864
    1AU       S  221   4.392   4.796   5.411
    1AU     LIG  222   3.954   4.636   5.445
    1AU     LIG  223   3.843   4.289   5.143
    1AU       S  224   3.964   4.809   6.254
    1AU     LIG  225   3.867   4.466   5.942
    1AU     LIG  226   3.625   4.236   5.604
    1AU    AUSL  227   4.492   5.128   6.316
    1AU    AUSL  228   4.741   4.525   6.270
    1AU     AUL  229   4.431   4.713   6.305
    1AU       S  230   4.608   4.275   6.348
    1AU     LIG  231   4.142   4.272   6.357
    1AU     LIG  232   3.972   3.974   6.733
    1AU       S  233   4.140   5.046   6.430
    1AU     LIG  234   3.690   4.952   6.627
    1AU     LIG  235   3.275   4.891   6.408
    1AU    AUSL  236   5.230   5.977   6.455
    1AU    AUSL  237   4.801   5.948   6.377
    1AU     AUL  238   5.044   6.010   6.749
    1AU       S  239   4.683   6.169   6.500
    1AU     LIG  240   4.248   6.314   6.605
    1AU     LIG  241   4.045   6.490   6.985
    1AU       S  242   5.205   6.392   6.501
    1AU     LIG  243   5.358   6.833   6.718
    1AU     LIG  244   5.387   7.306   6.833
    1AU    AUSL  245   5.041   6.170   6.111
    1AU    AUSL  246   5.376   6.209   5.770
    1AU     AUL  247   5.071   6.435   5.874
    1AU       S  248   5.253   6.597   6.301
    1AU     LIG  249   4.881   6.768   6.503
    1AU     LIG  250   4.862   7.203   6.594
    1AU       S  251   5.335   6.447   5.466
    1AU     LIG  252   5.710   6.746   5.544
    1AU     LIG  253   5.863   7.229   5.512
    1AU    AUSL  254   5.500   6.164   6.169
    1AU    AUSL  255   5.503   5.840   6.741
    1AU     AUL  256   5.588   6.121   6.539
    1AU       S  257   5.712   5.939   6.979
    1AU     LIG  258   6.056   5.932   7.322
    1AU     LIG  259   6.406   6.231   7.220
    1AU       S  260   5.454   6.429   6.204
    1AU     LIG  261   5.777   6.676   6.400
    1AU     LIG  262   5.802   7.108   6.577
    1AU    AUSL  263   5.332   4.537   6.615
    1AU    AUSL  264   5.877   4.578   6.210
    1AU     AUL  265   5.659   4.363   6.510
    1AU       S  266   5.070   3.988   6.595
    1AU     LIG  267   4.949   3.607   6.795
    1AU     LIG  268   5.132   3.199   6.928
    1AU       S  269   6.082   4.413   6.263
    1AU     LIG  270   6.294   3.979   6.469
    1AU     LIG  271   6.581   3.880   6.831
    1AU    AUSL  272   5.134   4.386   6.254
    1AU    AUSL  273   5.059   4.799   6.452
    1AU     AUL  274   4.975   4.468   6.607
    1AU       S  275   5.073   4.088   6.333
    1AU     LIG  276   4.894   3.635   6.284
    1AU     LIG  277   4.766   3.223   6.493
    1AU       S  278   4.578   4.173   6.623
    1AU     LIG  279   4.417   3.956   6.997
    1AU     LIG  280   4.108   4.026   7.342
    1AU    AUSL  281   5.471   4.631   6.185
    1AU    AUSL  282   5.107   4.474   5.845
    1AU     AUL  283   5.428   4.281   6.049
    1AU       S  284   4.981   4.131   5.862
    1AU     LIG  285   4.791   3.687   5.800
    1AU     LIG  286   4.911   3.395   5.494
    1AU       S  287   5.314   3.947   6.421
    1AU     LIG  288   5.362   3.490   6.474
    1AU     LIG  289   5.620   3.319   6.814
    1AU    AUSL  290   5.316   5.943   5.444
    1AU    AUSL  291   5.630   5.869   5.770
    1AU     AUL  292   5.682   6.142   5.540
    1AU       S  293   5.340   6.165   5.206
    1AU     LIG  294   5.592   6.606   5.065
    1AU     LIG  295   5.473   7.045   5.199
    1AU       S  296   6.374   5.933   5.381
    1AU     LIG  297   6.318   6.409   5.283
    1AU     LIG  298   6.551   6.679   4.979
    1AU    AUSL  299   5.067   5.900   5.798
    1AU    AUSL  300   4.947   5.811   5.315
    1AU     AUL  301   4.966   6.131   5.518
    1AU       S  302   5.152   6.435   5.196
    1AU     LIG  303   5.006   6.827   5.425
    1AU     LIG  304   5.093   7.288   5.506
    1AU       S  305   4.693   5.942   5.153
    1AU     LIG  306   4.540   6.237   4.841
    1AU     LIG  307   4.314   6.646   4.751
    1AU    AUSL  308   5.238   4.539   5.426
    1AU    AUSL  309   4.709   4.557   5.726
    1AU     AUL  310   4.940   4.417   5.488
    1AU       S  311   4.468   4.475   5.516
    1AU     LIG  312   4.123   4.165   5.558
    1AU     LIG  313   3.942   3.789   5.296
    1AU       S  314   5.194   4.020   5.667
    1AU     LIG  315   4.885   3.902   5.342
    1AU     LIG  316   4.850   3.562   5.006
    1AU    AUSL  317   5.484   4.658   5.771
    1AU    AUSL  318   5.592   4.748   5.345
    1AU     AUL  319   5.551   4.388   5.554
    1AU       S  320   5.228   3.863   5.901
    1AU     LIG  321   5.397   3.564   5.561
    1AU     LIG  322   5.321   3.198   5.259
    1AU       S  323   5.796   4.593   5.168
    1AU     LIG  324   5.968   4.383   4.730
    1AU     LIG  325   6.141   3.917   4.645
    2POPC   NC3  326   3.365   8.737   7.966
    2POPC   PO4  327   3.918   8.442   8.198
    2POPC   GL1  328   3.833   8.863   7.719
    2POPC   GL2  329   3.502   9.029   7.598
    2POPC   C1A  330   3.764   8.827   7.232
    2POPC   D2A  331   3.740   8.481   6.951
    2POPC   C3A  332   3.480   8.414   6.581
    2POPC   C4A  333   3.551   8.581   6.215
    2POPC   C1B  334   3.254   8.778   7.306
    2POPC   C2B  335   3.253   8.678   6.937
    2POPC   C3B  336   3.099   8.738   6.551
    2POPC   C4B  337   3.174   8.922   6.154
    3POPC   NC3  338   1.108   5.026   8.155
    3POPC   PO4  339   0.525   4.684   8.149
    3POPC   GL1  340   0.866   4.795   7.744
    3POPC   GL2  341   1.086   5.090   7.669
    3POPC   C1A  342   1.099   4.705   7.334
    3POPC   D2A  343   0.948   4.827   6.928
    3POPC   C3A  344   1.070   4.619   6.543
    3POPC   C4A  345   1.121   4.807   6.124
    3POPC   C1B  346   1.358   5.168   7.334
    3POPC   C2B  347   1.448   5.033   6.935
    3POPC   C3B  348   1.271   5.071   6.566
    3POPC   C4B  349   1.414   5.203   6.209
    4POPC   NC3  350   9.357   1.845   8.123
    4POPC   PO4  351   8.977   2.382   7.868
    4POPC   GL1  352   9.085   1.989   7.653
    4POPC   GL2  353   9.349   1.734   7.644
    4POPC   C1A  354   9.233   2.005   7.224
    4POPC   D2A  355   9.296   1.830   6.821
    4POPC   C3A  356   9.496   2.077   6.511
    4POPC   C4A  357   9.668   2.266   6.156
    4POPC   C1B  358   9.333   1.502   7.277
    4POPC   C2B  359   9.690   1.619   7.037
    4POPC   C3B  360   9.749   1.623   6.572
    4POPC   C4B  361   9.943   1.408   6.222
    5POPC   NC3  362   0.392   7.943   8.185
    5POPC   PO4  363   0.054   7.374   8.065
    5POPC   GL1  364   0.250   7.571   7.670
    5POPC   GL2  365   0.496   7.797   7.648
    5POPC   C1A  366   0.404   7.616   7.188
    5POPC   D2A  367   0.590   7.805   6.831
    5POPC   C3A  368   0.549   7.676   6.362
    5POPC   C4A  369   0.222   7.733   6.002
    5POPC   C1B  370   0.333   8.127   7.301
    5POPC   C2B  371   0.417   8.292   6.908
    5POPC   C3B  372   0.277   8.090   6.544
    5POPC   C4B  373   0.386   8.158   6.163
    6POPC   NC3  374   2.979   1.479   8.117
    6POPC   PO4  375   3.579   1.767   8.254
    6POPC   GL1  376   3.628   1.504   7.884
    6POPC   GL2  377   3.628   1.130   7.870
    6POPC   C1A  378   3.503   1.512   7.480
    6POPC   D2A  379   3.516   1.663   7.064
    6POPC   C3A  380   3.675   1.513   6.661
    6POPC   C4A  381   3.496   1.471   6.242
    6POPC   C1B  382   3.433   1.008   7.444
    6POPC   C2B  383   3.538   1.142   7.013
    6POPC   C3B  384   3.404   1.048   6.574
    6POPC   C4B  385   3.586   0.996   6.161
    7POPC   NC3  386   8.545   9.149   8.142
    7POPC   PO4  387   8.999   9.605   8.352
    7POPC   GL1  388   8.909   9.467   7.816
    7POPC   GL2  389   8.752   9.213   7.658
    7POPC   C1A  390   8.802   9.664   7.400
    7POPC   D2A  391   8.673   9.663   6.962
    7POPC   C3A  392   8.740   9.376   6.650
    7POPC   C4A  393   8.693   9.537   6.248
    7POPC   C1B  394   8.550   9.219   7.260
    7POPC   C2B  395   8.391   9.049   6.889
    7POPC   C3B  396   8.220   9.185   6.524
    7POPC   C4B  397   8.285   9.300   6.100
    8POPC   NC3  398   6.217   0.430   8.175
    8POPC   PO4  399   6.763  10.482   8.057
    8POPC   GL1  400   6.641   0.207   7.643
    8POPC   GL2  401   6.389   0.453   7.704
    8POPC   C1A  402   6.534   0.460   7.223
    8POPC   D2A  403   6.361   0.735   6.894
    8POPC   C3A  404   6.501   0.690   6.477
    8POPC   C4A  405   6.745   0.540   6.109
    8POPC   C1B  406   6.218   0.076   7.432
    8POPC   C2B  407   6.326  10.468   7.013
    8POPC   C3B  408   6.397   0.204   6.632
    8POPC   C4B  409   6.280   0.298   6.204
    9POPC   NC3  410   9.033   4.777   8.168
    9POPC   PO4  411   8.618   5.276   7.976
    9POPC   GL1  412   8.892   5.133   7.712
    9POPC   GL2  413   8.677   4.854   7.661
    9POPC   C1A  414   8.884   5.178   7.276
    9POPC   D2A  415   8.693   5.037   6.906
    9POPC   C3A  416   8.746   4.892   6.519
    9POPC   C4A  417   8.823   4.959   6.100
    9POPC   C1B  418   8.538   4.741   7.282
    9POPC   C2B  419   8.311   4.722   6.896
    9POPC   C3B  420   8.339   4.584   6.457
    9POPC   C4B  421   8.378   4.657   5.981
   10POPC   NC3  422   4.452   9.425   7.997
   10POPC   PO4  423   3.767   9.335   8.133
   10POPC   GL1  424   4.011   9.505   7.728
   10POPC   GL2  425   4.133   9.244   7.510
   10POPC   C1A  426   4.085   9.689   7.272
   10POPC   D2A  427   4.087   9.474   6.857
   10POPC   C3A  428   3.794   9.512   6.510
   10POPC   C4A  429   3.943   9.487   6.045
   10POPC   C1B  430   4.448   9.277   7.159
   10POPC   C2B  431   4.622   9.009   6.849
   10POPC   C3B  432   4.456   8.852   6.477
   10POPC   C4B  433   4.213   9.240   6.398
   11POPC   NC3  434   9.832   5.490   8.324
   11POPC   PO4  435   9.639   5.210   7.793
   11POPC   GL1  436   9.889   5.321   7.506
   11POPC   GL2  437  10.138   5.528   7.687
   11POPC   C1A  438   9.759   5.201   7.105
   11POPC   D2A  439   9.689   5.513   6.820
   11POPC   C3A  440   9.632   5.431   6.400
   11POPC   C4A  441   9.823   5.656   6.085
   11POPC   C1B  442  10.313   5.685   7.314
   11POPC   C2B  443  10.097   5.866   6.941
   11POPC   C3B  444  10.072   5.741   6.533
   11POPC   C4B  445  10.302   5.827   6.153
   12POPC   NC3  446   6.315   1.550   8.266
   12POPC   PO4  447   5.996   2.125   8.283
   12POPC   GL1  448   6.327   1.883   7.888
   12POPC   GL2  449   6.529   2.124   7.686
   12POPC   C1A  450   6.243   1.711   7.413
   12POPC   D2A  451   6.462   1.683   6.970
   12POPC   C3A  452   6.239   1.591   6.564
   12POPC   C4A  453   6.267   1.688   6.132
   12POPC   C1B  454   6.395   2.165   7.243
   12POPC   C2B  455   6.638   2.176   6.866
   12POPC   C3B  456   6.586   1.951   6.498
   12POPC   C4B  457   6.632   2.019   6.071
   13POPC   NC3  458   1.418   0.934   8.063
   13POPC   PO4  459   2.070   0.873   8.070
   13POPC   GL1  460   1.928   1.083   7.689
   13POPC   GL2  461   2.258   1.188   7.660
   13POPC   C1A  462   1.759   1.107   7.276
   13POPC   D2A  463   1.674   0.886   6.864
   13POPC   C3A  464   1.921   0.867   6.459
   13POPC   C4A  465   1.734   0.797   6.025
   13POPC   C1B  466   2.200   1.421   7.289
   13POPC   C2B  467   1.995   1.348   6.881
   13POPC   C3B  468   1.743   1.334   6.502
   13POPC   C4B  469   1.982   1.226   6.102
   14POPC   NC3  470   7.175   2.038   8.120
   14POPC   PO4  471   6.735   1.473   8.124
   14POPC   GL1  472   6.847   1.709   7.737
   14POPC   GL2  473   7.199   1.814   7.672
   14POPC   C1A  474   6.833   1.881   7.296
   14POPC   D2A  475   6.982   1.777   6.876
   14POPC   C3A  476   7.067   2.091   6.555
   14POPC   C4A  477   7.058   1.826   6.251
   14POPC   C1B  478   7.345   1.713   7.266
   14POPC   C2B  479   7.611   1.614   6.908
   14POPC   C3B  480   7.503   1.782   6.521
   14POPC   C4B  481   7.511   2.077   6.190
   15POPC   NC3  482   6.350   9.234   8.051
   15POPC   PO4  483   6.886   9.636   8.240
   15POPC   GL1  484   6.625   9.599   7.763
   15POPC   GL2  485   6.400   9.380   7.581
   15POPC   C1A  486   6.518   9.777   7.319
   15POPC   D2A  487   6.551   9.582   6.903
   15POPC   C3A  488   6.531   9.807   6.520
   15POPC   C4A  489   6.502   9.759   6.072
   15POPC   C1B  490   6.253   9.243   7.184
   15POPC   C2B  491   6.076   9.371   6.789
   15POPC   C3B  492   6.265   9.327   6.394
   15POPC   C4B  493   6.188   9.365   5.950
   16POPC   NC3  494   9.578   3.256   8.139
   16POPC   PO4  495   9.730   3.940   8.062
   16POPC   GL1  496   9.713   3.571   7.769
   16POPC   GL2  497   9.387   3.422   7.701
   16POPC   C1A  498   9.693   3.333   7.340
   16POPC   D2A  499   9.545   3.506   6.949
   16POPC   C3A  500   9.771   3.538   6.553
   16POPC   C4A  501   9.585   3.547   6.127
   16POPC   C1B  502   9.189   3.294   7.296
   16POPC   C2B  503   9.039   3.444   6.904
   16POPC   C3B  504   9.245   3.469   6.513
   16POPC   C4B  505   9.189   3.208   6.132
   17POPC   NC3  506   0.461   5.770   8.321
   17POPC   PO4  507  10.311   5.517   8.200
   17POPC   GL1  508   0.144   5.477   7.818
   17POPC   GL2  509   0.444   5.734   7.804
   17POPC   C1A  510   0.297   5.439   7.350
   17POPC   D2A  511   0.149   5.617   6.930
   17POPC   C3A  512   0.176   5.809   6.514
   17POPC   C4A  513   0.217   5.503   6.186
   17POPC   C1B  514   0.608   5.886   7.395
   17POPC   C2B  515   0.657   5.679   6.986
   17POPC   C3B  516   0.604   5.549   6.546
   17POPC   C4B  517   0.625   5.786   6.155
   18POPC   NC3  518  10.170   0.478   8.245
   18POPC   PO4  519   9.631   0.143   8.025
   18POPC   GL1  520   9.994   0.173   7.745
   18POPC   GL2  521  10.202   0.433   7.709
   18POPC   C1A  522   9.931   0.235   7.285
   18POPC   D2A  523  10.040   0.553   7.007
   18POPC   C3A  524  10.072   0.495   6.609
   18POPC   C4A  525  10.075   0.317   6.219
   18POPC   C1B  526  10.450   0.452   7.311
   18POPC   C2B  527   0.057   0.616   6.866
   18POPC   C3B  528  -0.000   0.642   6.388
   18POPC   C4B  529  10.452   0.714   5.917
   19POPC   NC3  530   1.488  10.437   8.067
   19POPC   PO4  531   2.202  10.303   8.013
   19POPC   GL1  532   1.831  10.276   7.691
   19POPC   GL2  533   1.738   9.931   7.556
   19POPC   C1A  534   1.629  10.357   7.270
   19POPC   D2A  535   1.525  10.221   6.867
   19POPC   C3A  536   1.774  10.459   6.558
   19POPC   C4A  537   1.648  10.451   6.132
   19POPC   C1B  538   2.007  10.016   7.251
   19POPC   C2B  539   1.903   9.921   6.848
   19POPC   C3B  540   1.701  10.000   6.409
   19POPC   C4B  541   2.035   9.886   6.109
   20POPC   NC3  542   0.437   6.676   8.163
   20POPC   PO4  543   0.800   6.068   8.161
   20POPC   GL1  544   0.626   6.340   7.803
   20POPC   GL2  545   0.250   6.336   7.696
   20POPC   C1A  546   0.624   6.418   7.346
   20POPC   D2A  547   0.448   6.564   6.963
   20POPC   C3A  548   0.643   6.518   6.575
   20POPC   C4A  549   0.481   6.266   6.232
   20POPC   C1B  550   0.040   6.564   7.298
   20POPC   C2B  551   0.031   6.864   6.966
   20POPC   C3B  552   0.118   6.710   6.582
   20POPC   C4B  553   0.333   6.764   6.210
   21POPC   NC3  554   2.439   2.088   8.082
   21POPC   PO4  555   2.481   1.403   8.071
   21POPC   GL1  556   2.666   1.652   7.735
   21POPC   GL2  557   2.738   2.027   7.646
   21POPC   C1A  558   2.694   1.632   7.312
   21POPC   D2A  559   2.761   1.869   6.959
   21POPC   C3A  560   2.614   1.719   6.584
   21POPC   C4A  561   2.562   1.502   6.221
   21POPC   C1B  562   2.438   2.075   7.305
   21POPC   C2B  563   2.307   2.112   6.851
   21POPC   C3B  564   2.425   2.190   6.432
   21POPC   C4B  565   2.812   2.092   6.271
   22POPC   NC3  566   9.235  10.404   8.142
   22POPC   PO4  567   9.263   9.854   7.899
   22POPC   GL1  568   9.413  10.261   7.669
   22POPC   GL2  569   9.757  10.303   7.494
   22POPC   C1A  570   9.369  10.423   7.230
   22POPC   D2A  571   9.539  10.382   6.833
   22POPC   C3A  572   9.174  10.380   6.556
   22POPC   C4A  573   9.034   0.077   6.166
   22POPC   C1B  574   9.622   9.945   7.293
   22POPC   C2B  575   9.677   9.827   6.870
   22POPC   C3B  576   9.545   9.992   6.522
   22POPC   C4B  577   9.702  10.370   6.289
   23POPC   NC3  578   9.665   8.539   8.039
   23POPC   PO4  579   9.191   8.268   7.737
   23POPC   GL1  580   9.478   8.555   7.577
   23POPC   GL2  581   9.462   8.909   7.712
   23POPC   C1A  582   9.802   8.461   7.305
   23POPC   D2A  583   9.589   8.478   6.927
   23POPC   C3A  584   9.797   8.463   6.568
   23POPC   C4A  585   9.684   8.352   6.185
   23POPC   C1B  586   9.660   8.964   7.334
   23POPC   C2B  587   9.491   8.991   6.934
   23POPC   C3B  588   9.668   8.950   6.527
   23POPC   C4B  589   9.396   8.790   6.238
   24POPC   NC3  590   5.507   2.107   8.264
   24POPC   PO4  591   6.048   2.290   7.784
   24POPC   GL1  592   5.696   2.386   7.562
   24POPC   GL2  593   5.619   2.736   7.601
   24POPC   C1A  594   5.697   2.486   7.126
   24POPC   D2A  595   5.710   2.317   6.752
   24POPC   C3A  596   5.747   2.528   6.393
   24POPC   C4A  597   5.553   2.730   6.018
   24POPC   C1B  598   5.581   2.974   7.196
   24POPC   C2B  599   5.486   2.827   6.760
   24POPC   C3B  600   5.715   3.046   6.396
   24POPC   C4B  601   5.997   3.105   6.044
   25POPC   NC3  602   7.444   4.179   8.093
   25POPC   PO4  603   7.046   3.772   7.856
   25POPC   GL1  604   7.302   3.930   7.555
   25POPC   GL2  605   7.182   4.240   7.625
   25POPC   C1A  606   7.476   4.263   7.230
   25POPC   D2A  607   7.487   4.438   6.799
   25POPC   C3A  608   7.424   4.129   6.469
   25POPC   C4A  609   7.194   4.083   6.070
   25POPC   C1B  610   6.992   4.052   7.194
   25POPC   C2B  611   7.018   4.137   6.762
   25POPC   C3B  612   6.782   4.145   6.369
   25POPC   C4B  613   6.781   4.441   6.050
   26POPC   NC3  614   2.640  10.059   7.954
   26POPC   PO4  615   3.160   0.015   8.206
   26POPC   GL1  616   2.999  10.421   7.803
   26POPC   GL2  617   2.640   0.005   7.752
   26POPC   C1A  618   2.987  10.295   7.373
   26POPC   D2A  619   3.175  10.119   7.024
   26POPC   C3A  620   2.861  10.152   6.730
   26POPC   C4A  621   2.664  10.379   6.397
   26POPC   C1B  622   2.448  10.275   7.370
   26POPC   C2B  623   2.400  10.104   6.940
   26POPC   C3B  624   2.232  10.127   6.531
   26POPC   C4B  625   2.483   9.867   6.321
   27POPC   NC3  626   1.032   0.247   8.123
   27POPC   PO4  627   0.937   0.952   8.045
   27POPC   GL1  628   1.143   0.627   7.739
   27POPC   GL2  629   1.226   0.293   7.673
   27POPC   C1A  630   0.974   0.502   7.305
   27POPC   D2A  631   1.106   0.529   6.862
   27POPC   C3A  632   0.928   0.282   6.497
   27POPC   C4A  633   0.889   0.497   6.072
   27POPC   C1B  634   1.473   0.357   7.302
   27POPC   C2B  635   1.485   0.209   6.911
   27POPC   C3B  636   1.432   0.345   6.501
   27POPC   C4B  637   1.415   0.400   6.088
   28POPC   NC3  638   4.398  10.292   8.077
   28POPC   PO4  639   3.882   9.957   7.947
   28POPC   GL1  640   4.130  10.086   7.588
   28POPC   GL2  641   4.241  10.415   7.616
   28POPC   C1A  642   4.037  10.209   7.133
   28POPC   D2A  643   3.927   9.958   6.753
   28POPC   C3A  644   4.200   9.847   6.377
   28POPC   C4A  645   4.185   9.914   5.895
   28POPC   C1B  646   4.528  10.289   7.287
   28POPC   C2B  647   4.485  10.246   6.847
   28POPC   C3B  648   4.202  10.367   6.546
   28POPC   C4B  649   4.255  10.364   6.131
   29POPC   NC3  650   8.358   1.822   8.079
   29POPC   PO4  651   8.546   2.205   8.442
   29POPC   GL1  652   8.528   2.185   7.804
   29POPC   GL2  653   8.586   1.935   7.656
   29POPC   C1A  654   8.308   2.155   7.315
   29POPC   D2A  655   8.336   2.274   6.844
   29POPC   C3A  656   8.478   2.017   6.481
   29POPC   C4A  657   8.573   1.998   6.017
   29POPC   C1B  658   8.743   1.869   7.271
   29POPC   C2B  659   8.809   2.013   6.873
   29POPC   C3B  660   8.929   1.800   6.483
   29POPC   C4B  661   9.039   2.148   6.278
   30POPC   NC3  662   3.349   4.178   7.975
   30POPC   PO4  663   3.761   3.665   8.151
   30POPC   GL1  664   3.686   3.864   7.665
   30POPC   GL2  665   3.375   4.049   7.477
   30POPC   C1A  666   3.680   3.826   7.162
   30POPC   D2A  667   3.432   4.112   6.850
   30POPC   C3A  668   3.634   4.202   6.434
   30POPC   C4A  669   3.680   3.978   6.042
   30POPC   C1B  670   3.159   4.413   7.300
   30POPC   C2B  671   3.175   4.621   6.878
   30POPC   C3B  672   3.167   4.394   6.492
   30POPC   C4B  673   3.345   4.442   6.073
   31POPC   NC3  674   3.634   1.295   8.378
   31POPC   PO4  675   4.278   1.423   8.163
   31POPC   GL1  676   4.135   1.340   7.770
   31POPC   GL2  677   4.263   0.996   7.770
   31POPC   C1A  678   3.915   1.129   7.421
   31POPC   D2A  679   3.957   0.821   7.069
   31POPC   C3A  680   3.906   0.997   6.640
   31POPC   C4A  681   3.968   1.296   6.292
   31POPC   C1B  682   4.429   1.121   7.354
   31POPC   C2B  683   4.529   1.017   6.929
   31POPC   C3B  684   4.400   1.108   6.529
   31POPC   C4B  685   4.232   0.861   6.244
   32POPC   NC3  686   2.017   9.173   8.170
   32POPC   PO4  687   2.229   8.529   8.142
   32POPC   GL1  688   1.884   8.648   7.827
   32POPC   GL2  689   1.632   8.918   7.885
   32POPC   C1A  690   1.803   8.537   7.375
   32POPC   D2A  691   2.001   8.337   7.014
   32POPC   C3A  692   1.997   8.568   6.646
   32POPC   C4A  693   2.295   8.831   6.415
   32POPC   C1B  694   1.599   9.003   7.422
   32POPC   C2B  695   1.657   8.870   6.991
   32POPC   C3B  696   1.506   8.761   6.584
   32POPC   C4B  697   1.746   8.682   6.212
   33POPC   NC3  698   0.173   5.010   8.077
   33POPC   PO4  699   0.714   5.408   8.165
   33POPC   GL1  700   0.591   5.226   7.744
   33POPC   GL2  701   0.380   4.928   7.643
   33POPC   C1A  702   0.729   5.116   7.308
   33POPC   D2A  703   0.557   5.177   6.897
   33POPC   C3A  704   0.757   5.052   6.499
   33POPC   C4A  705   0.641   4.998   6.059
   33POPC   C1B  706   0.251   4.905   7.237
   33POPC   C2B  707   0.098   4.977   6.838
   33POPC   C3B  708   0.232   4.979   6.395
   33POPC   C4B  709   0.276   4.633   6.071
   34POPC   NC3  710   9.892   4.851   7.994
   34POPC   PO4  711   0.016   4.573   8.006
   34POPC   GL1  712  10.363   4.734   7.687
   34POPC   GL2  713  10.298   5.055   7.740
   34POPC   C1A  714  10.295   4.645   7.288
   34POPC   D2A  715  10.113   4.854   6.959
   34POPC   C3A  716  10.227   4.777   6.537
   34POPC   C4A  717  10.311   4.866   6.114
   34POPC   C1B  718  10.330   5.170   7.316
   34POPC   C2B  719  10.217   5.356   6.930
   34POPC   C3B  720  10.396   5.351   6.553
   34POPC   C4B  721  10.090   5.263   6.319
   35POPC   NC3  722   7.842   0.764   8.147
   35POPC   PO4  723   8.069   0.202   8.005
   35POPC   GL1  724   8.133   0.483   7.634
   35POPC   GL2  725   7.793   0.673   7.598
   35POPC   C1A  726   8.109   0.469   7.154
   35POPC   D2A  727   8.240   0.725   6.804
   35POPC   C3A  728   8.055   0.644   6.399
   35POPC   C4A  729   8.310   0.628   6.030
   35POPC   C1B  730   7.736   0.234   7.399
   35POPC   C2B  731   7.767  10.496   6.998
   35POPC   C3B  732   7.708   0.006   6.562
   35POPC   C4B  733   7.750   0.277   6.181
   36POPC   NC3  734   8.121   5.807   8.606
   36POPC   PO4  735   8.014   5.420   8.084
   36POPC   GL1  736   8.126   5.475   7.667
   36POPC   GL2  737   8.132   5.831   7.676
   36POPC   C1A  738   7.931   5.526   7.245
   36POPC   D2A  739   7.663   5.281   6.941
   36POPC   C3A  740   7.755   5.326   6.496
   36POPC   C4A  741   8.059   5.576   6.356
   36POPC   C1B  742   8.048   6.022   7.309
   36POPC   C2B  743   7.743   5.997   6.978
   36POPC   C3B  744   7.888   6.015   6.565
   36POPC   C4B  745   7.741   5.975   6.152
   37POPC   NC3  746   8.534   0.328   8.145
   37POPC   PO4  747   9.048   0.787   8.003
   37POPC   GL1  748   8.675   0.673   7.728
   37POPC   GL2  749   8.661   0.316   7.668
   37POPC   C1A  750   8.593   0.591   7.267
   37POPC   D2A  751   8.776   0.519   6.867
   37POPC   C3A  752   8.589   0.525   6.468
   37POPC   C4A  753   8.812   0.570   6.095
   37POPC   C1B  754   8.420   0.059   7.412
   37POPC   C2B  755   8.306  10.497   6.982
   37POPC   C3B  756   8.167   0.222   6.661
   37POPC   C4B  757   8.241   0.189   6.243
   38POPC   NC3  758   3.122   7.180   7.913
   38POPC   PO4  759   2.553   7.000   8.129
   38POPC   GL1  760   2.683   6.967   7.705
   38POPC   GL2  761   2.674   7.322   7.696
   38POPC   C1A  762   2.784   6.921   7.253
   38POPC   D2A  763   2.645   6.806   6.825
   38POPC   C3A  764   2.856   6.897   6.440
   38POPC   C4A  765   2.875   7.197   6.108
   38POPC   C1B  766   2.736   7.438   7.283
   38POPC   C2B  767   2.577   7.465   6.884
   38POPC   C3B  768   2.483   7.240   6.525
   38POPC   C4B  769   2.487   7.520   6.204
   39POPC   NC3  770   4.711   8.690   7.989
   39POPC   PO4  771   5.402   8.646   8.043
   39POPC   GL1  772   5.167   8.852   7.733
   39POPC   GL2  773   5.123   8.532   7.567
   39POPC   C1A  774   5.014   8.960   7.317
   39POPC   D2A  775   5.020   8.704   6.963
   39POPC   C3A  776   5.038   8.935   6.573
   39POPC   C4A  777   5.207   9.084   6.180
   39POPC   C1B  778   4.701   8.548   7.333
   39POPC   C2B  779   4.560   8.492   6.904
   39POPC   C3B  780   4.812   8.460   6.564
   39POPC   C4B  781   4.894   8.429   6.171
   40POPC   NC3  782   5.833   1.913   7.897
   40POPC   PO4  783   5.224   1.747   8.141
   40POPC   GL1  784   5.355   2.037   7.774
   40POPC   GL2  785   5.486   1.789   7.558
   40POPC   C1A  786   5.332   2.152   7.282
   40POPC   D2A  787   5.445   1.885   6.913
   40POPC   C3A  788   5.416   2.020   6.475
   40POPC   C4A  789   5.509   1.734   6.158
   40POPC   C1B  790   5.839   1.993   7.233
   40POPC   C2B  791   6.117   2.039   6.817
   40POPC   C3B  792   5.936   1.995   6.380
   40POPC   C4B  793   5.699   2.178   6.024
   41POPC   NC3  794   0.457   2.132   8.050
   41POPC   PO4  795   0.471   1.499   8.071
   41POPC   GL1  796   0.431   1.757   7.667
   41POPC   GL2  797   0.652   2.062   7.587
   41POPC   C1A  798   0.510   1.784   7.197
   41POPC   D2A  799   0.726   2.014   6.931
   41POPC   C3A  800   0.544   2.058   6.569
   41POPC   C4A  801   0.636   1.821   6.222
   41POPC   C1B  802   0.257   2.228   7.368
   41POPC   C2B  803   0.162   2.445   6.964
   41POPC   C3B  804   0.016   2.327   6.551
   41POPC   C4B  805   0.176   2.078   6.220
   42POPC   NC3  806   6.016   1.019   7.925
   42POPC   PO4  807   6.587   0.722   8.117
   42POPC   GL1  808   6.503   0.980   7.764
   42POPC   GL2  809   6.385   1.348   7.765
   42POPC   C1A  810   6.355   0.969   7.350
   42POPC   D2A  811   6.214   1.238   7.034
   42POPC   C3A  812   6.125   1.103   6.605
   42POPC   C4A  813   6.328   1.115   6.206
   42POPC   C1B  814   6.631   1.400   7.380
   42POPC   C2B  815   6.820   1.267   7.029
   42POPC   C3B  816   6.615   1.240   6.668
   42POPC   C4B  817   6.684   1.480   6.302
   43POPC   NC3  818   1.440   1.946   8.100
   43POPC   PO4  819   1.429   2.614   8.218
   43POPC   GL1  820   1.448   2.379   7.792
   43POPC   GL2  821   1.238   2.054   7.652
   43POPC   C1A  822   1.466   2.319   7.310
   43POPC   D2A  823   1.448   1.978   6.979
   43POPC   C3A  824   1.468   2.142   6.514
   43POPC   C4A  825   1.475   2.139   6.041
   43POPC   C1B  826   1.030   1.790   7.337
   43POPC   C2B  827   1.085   1.637   6.928
   43POPC   C3B  828   1.045   1.868   6.554
   43POPC   C4B  829   1.300   1.703   6.241
   44POPC   NC3  830   2.604   3.996   8.088
   44POPC   PO4  831   3.184   3.773   7.841
   44POPC   GL1  832   2.874   3.830   7.593
   44POPC   GL2  833   2.790   4.168   7.611
   44POPC   C1A  834   2.968   3.898   7.188
   44POPC   D2A  835   2.877   4.211   6.921
   44POPC   C3A  836   2.786   4.069   6.554
   44POPC   C4A  837   2.849   4.164   6.128
   44POPC   C1B  838   2.482   4.059   7.245
   44POPC   C2B  839   2.364   4.277   6.828
   44POPC   C3B  840   2.368   4.286   6.354
   44POPC   C4B  841   2.480   4.463   5.951
   45POPC   NC3  842   8.487   7.859   8.123
   45POPC   PO4  843   9.071   8.086   8.285
   45POPC   GL1  844   8.833   7.960   7.781
   45POPC   GL2  845   8.542   8.076   7.668
   45POPC   C1A  846   8.979   7.757   7.361
   45POPC   D2A  847   9.041   7.951   6.959
   45POPC   C3A  848   8.976   7.799   6.555
   45POPC   C4A  849   9.051   7.562   6.164
   45POPC   C1B  850   8.625   8.134   7.246
   45POPC   C2B  851   8.541   7.993   6.858
   45POPC   C3B  852   8.607   8.183   6.483
   45POPC   C4B  853   8.723   7.972   6.143
   46POPC   NC3  854   9.867  10.231   7.965
   46POPC   PO4  855  10.442   0.114   8.119
   46POPC   GL1  856   0.039  10.435   7.755
   46POPC   GL2  857  10.354  10.104   7.782
   46POPC   C1A  858  10.330  10.453   7.380
   46POPC   D2A  859  10.318   0.132   6.956
   46POPC   C3A  860  10.311   0.022   6.555
   46POPC   C4A  861  10.306  10.359   6.142
   46POPC   C1B  862  10.139   9.985   7.380
   46POPC   C2B  863   9.997  10.211   7.013
   46POPC   C3B  864  10.051  10.080   6.579
   46POPC   C4B  865  10.009   9.952   6.161
   47POPC   NC3  866   0.902   4.403   8.041
   47POPC   PO4  867   1.419   4.371   8.466
   47POPC   GL1  868   1.320   4.129   7.927
   47POPC   GL2  869   1.066   3.946   7.729
   47POPC   C1A  870   1.399   4.244   7.419
   47POPC   D2A  871   1.414   4.492   6.983
   47POPC   C3A  872   1.403   4.230   6.577
   47POPC   C4A  873   1.504   4.232   6.108
   47POPC   C1B  874   0.910   4.134   7.344
   47POPC   C2B  875   0.930   4.315   6.957
   47POPC   C3B  876   0.883   4.147   6.557
   47POPC   C4B  877   1.039   4.035   6.172
   48POPC   NC3  878   2.145   0.386   8.064
   48POPC   PO4  879   1.467   0.416   8.102
   48POPC   GL1  880   1.733   0.320   7.750
   48POPC   GL2  881   1.654   0.664   7.653
   48POPC   C1A  882   2.026   0.162   7.408
   48POPC   D2A  883   2.050  10.472   6.991
   48POPC   C3A  884   2.276   0.124   6.627
   48POPC   C4A  885   2.217   0.029   6.180
   48POPC   C1B  886   2.062   0.677   7.416
   48POPC   C2B  887   2.205   0.487   7.033
   48POPC   C3B  888   1.900   0.434   6.731
   48POPC   C4B  889   1.898   0.393   6.298
   49POPC   NC3  890   6.917   0.415   8.002
   49POPC   PO4  891   7.409   0.889   8.021
   49POPC   GL1  892   7.263   0.750   7.652
   49POPC   GL2  893   7.319   0.386   7.662
   49POPC   C1A  894   7.383   0.659   7.224
   49POPC   D2A  895   7.334   0.317   6.915
   49POPC   C3A  896   7.551   0.492   6.593
   49POPC   C4A  897   7.560   0.782   6.255
   49POPC   C1B  898   7.008   0.331   7.332
   49POPC   C2B  899   6.826   0.160   6.953
   49POPC   C3B  900   6.900   0.342   6.568
   49POPC   C4B  901   7.214   0.364   6.221
   50POPC   NC3  902   6.930   2.977   8.266
   50POPC   PO4  903   7.633   3.109   8.107
   50POPC   GL1  904   7.436   2.881   7.765
   50POPC   GL2  905   7.306   2.517   7.820
   50POPC   C1A  906   7.495   2.671   7.361
   50POPC   D2A  907   7.159   2.621   7.042
   50POPC   C3A  908   7.118   2.705   6.626
   50POPC   C4A  909   6.932   2.955   6.277
   50POPC   C1B  910   7.197   2.253   7.418
   50POPC   C2B  911   7.332   2.153   6.979
   50POPC   C3B  912   7.492   2.372   6.599
   50POPC   C4B  913   7.324   2.583   6.195
   51POPC   NC3  914   7.089  10.018   8.410
   51POPC   PO4  915   7.296   9.834   7.809
   51POPC   GL1  916   7.123  10.043   7.496
   51POPC   GL2  917   7.088  10.395   7.661
   51POPC   C1A  918   7.021   9.790   7.166
   51POPC   D2A  919   7.220   9.668   6.823
   51POPC   C3A  920   7.061   9.940   6.572
   51POPC   C4A  921   6.935  10.058   6.201
   51POPC   C1B  922   7.327  10.448   7.296
   51POPC   C2B  923   7.162  10.289   6.945
   51POPC   C3B  924   7.196  10.431   6.531
   51POPC   C4B  925   7.416  10.223   6.234
   52POPC   NC3  926  10.210   1.324   8.144
   52POPC   PO4  927   9.800   0.781   8.240
   52POPC   GL1  928  10.038   0.903   7.854
   52POPC   GL2  929  10.060   1.259   7.684
   52POPC   C1A  930  10.108   0.844   7.405
   52POPC   D2A  931  10.229   1.016   6.963
   52POPC   C3A  932   9.953   1.007   6.623
   52POPC   C4A  933  10.089   0.896   6.238
   52POPC   C1B  934  10.221   1.389   7.305
   52POPC   C2B  935  10.157   1.518   6.875
   52POPC   C3B  936  10.345   1.298   6.534
   52POPC   C4B  937  10.485   1.209   6.129
   53POPC   NC3  938   8.480   7.099   7.917
   53POPC   PO4  939   8.949   7.571   8.060
   53POPC   GL1  940   8.641   7.510   7.682
   53POPC   GL2  941   8.713   7.184   7.490
   53POPC   C1A  942   8.511   7.582   7.247
   53POPC   D2A  943   8.747   7.503   6.891
   53POPC   C3A  944   8.513   7.611   6.503
   53POPC   C4A  945   8.561   7.432   6.099
   53POPC   C1B  946   8.350   7.088   7.255
   53POPC   C2B  947   8.313   7.244   6.849
   53POPC   C3B  948   8.500   7.093   6.510
   53POPC   C4B  949   8.725   6.968   6.194
   54POPC   NC3  950   8.918   4.003   8.051
   54POPC   PO4  951   8.549   4.577   8.065
   54POPC   GL1  952   8.537   4.316   7.643
   54POPC   GL2  953   8.775   4.087   7.584
   54POPC   C1A  954   8.385   3.975   7.313
   54POPC   D2A  955   8.416   3.790   6.921
   54POPC   C3A  956   8.490   4.086   6.639
   54POPC   C4A  957   8.526   3.825   6.295
   54POPC   C1B  958   8.918   4.396   7.305
   54POPC   C2B  959   8.779   4.498   6.907
   54POPC   C3B  960   8.908   4.421   6.537
   54POPC   C4B  961   8.703   4.297   6.220
   55POPC   NC3  962   9.295   7.274   8.194
   55POPC   PO4  963   9.082   6.668   8.325
   55POPC   GL1  964   9.300   6.879   7.839
   55POPC   GL2  965   9.493   7.198   7.731
   55POPC   C1A  966   9.173   7.078   7.365
   55POPC   D2A  967   8.930   7.002   6.951
   55POPC   C3A  968   9.028   7.215   6.543
   55POPC   C4A  969   9.219   7.082   6.130
   55POPC   C1B  970   9.678   7.030   7.362
   55POPC   C2B  971   9.493   7.012   6.968
   55POPC   C3B  972   9.532   7.102   6.570
   55POPC   C4B  973   9.821   7.000   6.293
   56POPC   NC3  974  10.136   7.658   8.079
   56POPC   PO4  975  10.480   8.178   8.200
   56POPC   GL1  976  10.498   8.002   7.776
   56POPC   GL2  977  10.177   7.954   7.685
   56POPC   C1A  978  10.456   7.780   7.338
   56POPC   D2A  979   0.042   7.899   6.957
   56POPC   C3A  980  10.273   7.770   6.715
   56POPC   C4A  981  10.341   7.781   6.317
   56POPC   C1B  982   9.976   7.943   7.284
   56POPC   C2B  983   9.985   8.136   6.912
   56POPC   C3B  984   9.858   7.965   6.496
   56POPC   C4B  985   9.792   7.863   6.088
   57POPC   NC3  986   1.623   3.007   8.371
   57POPC   PO4  987   0.912   3.113   8.099
   57POPC   GL1  988   0.945   3.382   7.740
   57POPC   GL2  989   1.306   3.468   7.703
   57POPC   C1A  990   1.021   3.271   7.323
   57POPC   D2A  991   1.259   3.253   6.966
   57POPC   C3A  992   1.031   3.290   6.601
   57POPC   C4A  993   1.177   3.358   6.203
   57POPC   C1B  994   1.256   3.729   7.317
   57POPC   C2B  995   1.069   3.801   6.927
   57POPC   C3B  996   1.243   3.746   6.532
   57POPC   C4B  997   1.548   3.729   6.193
   58POPC   NC3  998  10.145   3.738   8.086
   58POPC   PO4  999   9.994   3.112   8.259
   58POPC   GL1 1000   9.991   3.137   7.760
   58POPC   GL2 1001  10.151   3.414   7.565
   58POPC   C1A 1002  10.041   2.973   7.308
   58POPC   D2A 1003   9.862   3.096   6.898
   58POPC   C3A 1004  10.106   3.130   6.541
   58POPC   C4A 1005  10.000   3.226   6.132
   58POPC   C1B 1006  10.060   3.628   7.171
   58POPC   C2B 1007  10.257   3.554   6.794
   58POPC   C3B 1008  10.235   3.648   6.359
   58POPC   C4B 1009  10.039   3.695   5.971
   59POPC   NC3 1010   7.171   7.876   8.387
   59POPC   PO4 1011   7.263   7.956   7.840
   59POPC   GL1 1012   7.082   7.998   7.532
   59POPC   GL2 1013   6.982   8.344   7.496
   59POPC   C1A 1014   7.108   7.745   7.217
   59POPC   D2A 1015   7.312   7.583   6.900
   59POPC   C3A 1016   7.159   7.665   6.476
   59POPC   C4A 1017   7.307   7.657   6.005
   59POPC   C1B 1018   7.304   8.271   7.192
   59POPC   C2B 1019   7.111   8.098   6.859
   59POPC   C3B 1020   7.190   8.170   6.493
   59POPC   C4B 1021   7.018   8.036   6.132
   60POPC   NC3 1022   2.831   6.635   8.130
   60POPC   PO4 1023   3.008   5.928   7.996
   60POPC   GL1 1024   2.792   6.233   7.691
   60POPC   GL2 1025   2.489   6.425   7.787
   60POPC   C1A 1026   2.864   6.377   7.227
   60POPC   D2A 1027   3.147   6.263   6.838
   60POPC   C3A 1028   3.019   6.400   6.400
   60POPC   C4A 1029   3.032   6.140   5.983
   60POPC   C1B 1030   2.339   6.261   7.369
   60POPC   C2B 1031   2.229   6.220   6.923
   60POPC   C3B 1032   2.432   6.407   6.525
   60POPC   C4B 1033   2.578   6.361   6.092
   61POPC   NC3 1034   8.180   4.284   7.998
   61POPC   PO4 1035   7.752   3.813   8.192
   61POPC   GL1 1036   7.743   3.862   7.768
   61POPC   GL2 1037   7.789   4.151   7.629
   61POPC   C1A 1038   7.720   3.752   7.315
   61POPC   D2A 1039   7.661   3.943   6.893
   61POPC   C3A 1040   7.975   3.917   6.555
   61POPC   C4A 1041   8.165   4.151   6.250
   61POPC   C1B 1042   7.992   4.282   7.245
   61POPC   C2B 1043   7.996   4.350   6.795
   61POPC   C3B 1044   7.810   4.462   6.388
   61POPC   C4B 1045   7.500   4.499   6.067
   62POPC   NC3 1046   0.155   0.471   7.926
   62POPC   PO4 1047   0.626   0.053   8.036
   62POPC   GL1 1048   0.534   0.190   7.642
   62POPC   GL2 1049   0.641   0.541   7.739
   62POPC   C1A 1050   0.324   0.067   7.230
   62POPC   D2A 1051   0.284   0.169   6.764
   62POPC   C3A 1052   0.296  10.454   6.370
   62POPC   C4A 1053   0.584   0.083   6.028
   62POPC   C1B 1054   0.460   0.583   7.329
   62POPC   C2B 1055   0.603   0.534   6.942
   62POPC   C3B 1056   0.683   0.721   6.587
   62POPC   C4B 1057   0.461   0.444   6.351
   63POPC   NC3 1058   0.212   4.462   8.414
   63POPC   PO4 1059   0.472   3.954   8.101
   63POPC   GL1 1060   0.582   4.101   7.720
   63POPC   GL2 1061   0.495   4.425   7.716
   63POPC   C1A 1062   0.394   4.089   7.297
   63POPC   D2A 1063   0.547   3.981   6.916
   63POPC   C3A 1064   0.380   4.090   6.521
   63POPC   C4A 1065   0.526   4.031   6.120
   63POPC   C1B 1066   0.615   4.561   7.330
   63POPC   C2B 1067   0.439   4.506   6.932
   63POPC   C3B 1068   0.549   4.581   6.525
   63POPC   C4B 1069   0.754   4.469   6.157
   64POPC   NC3 1070   3.986   0.701   8.131
   64POPC   PO4 1071   3.984   0.044   8.119
   64POPC   GL1 1072   3.939   0.303   7.768
   64POPC   GL2 1073   4.273   0.455   7.773
   64POPC   C1A 1074   3.916   0.186   7.333
   64POPC   D2A 1075   3.724   0.334   6.963
   64POPC   C3A 1076   3.820   0.234   6.540
   64POPC   C4A 1077   3.806   0.578   6.297
   64POPC   C1B 1078   4.389   0.328   7.359
   64POPC   C2B 1079   4.242   0.208   6.952
   64POPC   C3B 1080   4.191   0.544   6.673
   64POPC   C4B 1081   4.314   0.361   6.299
   65POPC   NC3 1082   5.020   9.596   8.278
   65POPC   PO4 1083   4.683   9.085   8.243
   65POPC   GL1 1084   4.961   9.318   7.836
   65POPC   GL2 1085   5.046   9.678   7.779
   65POPC   C1A 1086   5.159   9.440   7.373
   65POPC   D2A 1087   4.934   9.417   6.989
   65POPC   C3A 1088   5.167   9.440   6.617
   65POPC   C4A 1089   5.074   9.598   6.251
   65POPC   C1B 1090   4.682   9.642   7.448
   65POPC   C2B 1091   4.535   9.770   7.027
   65POPC   C3B 1092   4.613   9.616   6.606
   65POPC   C4B 1093   4.719   9.267   6.350
   66POPC   NC3 1094   2.738   4.987   8.117
   66POPC   PO4 1095   2.973   4.420   8.081
   66POPC   GL1 1096   2.833   4.679   7.719
   66POPC   GL2 1097   2.462   4.740   7.757
   66POPC   C1A 1098   2.736   5.006   7.389
   66POPC   D2A 1099   2.790   5.341   7.095
   66POPC   C3A 1100   2.888   5.112   6.724
   66POPC   C4A 1101   2.832   5.172   6.304
   66POPC   C1B 1102   2.521   4.544   7.348
   66POPC   C2B 1103   2.657   4.693   6.964
   66POPC   C3B 1104   2.597   4.724   6.529
   66POPC   C4B 1105   2.866   4.669   6.193
   67POPC   NC3 1106   8.852   8.412   8.021
   67POPC   PO4 1107   9.020   9.065   8.087
   67POPC   GL1 1108   8.984   8.777   7.702
   67POPC   GL2 1109   8.764   8.524   7.551
   67POPC   C1A 1110   9.121   8.793   7.290
   67POPC   D2A 1111   9.085   8.448   7.040
   67POPC   C3A 1112   9.109   8.582   6.623
   67POPC   C4A 1113   8.986   8.427   6.225
   67POPC   C1B 1114   8.579   8.695   7.230
   67POPC   C2B 1115   8.613   8.573   6.822
   67POPC   C3B 1116   8.619   8.721   6.401
   67POPC   C4B 1117   8.510   8.445   6.026
   68POPC   NC3 1118   5.300   0.381   7.778
   68POPC   PO4 1119   4.977  10.429   8.097
   68POPC   GL1 1120   4.723   0.145   7.756
   68POPC   GL2 1121   4.794   0.520   7.726
   68POPC   C1A 1122   4.857   0.181   7.314
   68POPC   D2A 1123   5.134   0.413   7.072
   68POPC   C3A 1124   5.100   0.398   6.639
   68POPC   C4A 1125   5.042   0.371   6.230
   68POPC   C1B 1126   4.757   0.688   7.299
   68POPC   C2B 1127   4.659   0.495   6.913
   68POPC   C3B 1128   4.667   0.661   6.527
   68POPC   C4B 1129   4.697   0.715   6.127
   69POPC   NC3 1130   9.265   5.470   7.906
   69POPC   PO4 1131   9.717   5.911   8.174
   69POPC   GL1 1132   9.688   5.745   7.781
   69POPC   GL2 1133   9.387   5.881   7.612
   69POPC   C1A 1134   9.826   5.833   7.374
   69POPC   D2A 1135   9.555   6.052   7.106
   69POPC   C3A 1136   9.615   5.994   6.672
   69POPC   C4A 1137   9.435   5.928   6.288
   69POPC   C1B 1138   9.407   5.554   7.267
   69POPC   C2B 1139   9.209   5.343   6.921
   69POPC   C3B 1140   9.160   5.501   6.529
   69POPC   C4B 1141   9.183   5.345   6.144
   70POPC   NC3 1142   4.300   2.767   7.863
   70POPC   PO4 1143   3.863   2.328   8.071
   70POPC   GL1 1144   3.945   2.484   7.617
   70POPC   GL2 1145   3.844   2.828   7.561
   70POPC   C1A 1146   4.277   2.471   7.252
   70POPC   D2A 1147   4.438   2.713   6.865
   70POPC   C3A 1148   4.251   2.783   6.456
   70POPC   C4A 1149   4.108   2.544   6.105
   70POPC   C1B 1150   3.833   2.685   7.155
   70POPC   C2B 1151   3.834   2.674   6.723
   70POPC   C3B 1152   3.750   2.871   6.353
   70POPC   C4B 1153   3.701   2.747   5.912
   71POPC   NC3 1154   6.944   6.961   8.451
   71POPC   PO4 1155   7.487   6.839   8.105
   71POPC   GL1 1156   7.542   6.705   7.703
   71POPC   GL2 1157   7.394   6.402   7.669
   71POPC   C1A 1158   7.360   6.811   7.305
   71POPC   D2A 1159   7.112   6.767   6.952
   71POPC   C3A 1160   7.232   6.778   6.534
   71POPC   C4A 1161   7.083   6.513   6.206
   71POPC   C1B 1162   7.210   6.327   7.230
   71POPC   C2B 1163   7.212   6.174   6.807
   71POPC   C3B 1164   6.979   6.077   6.445
   71POPC   C4B 1165   7.213   6.028   6.053
   72POPC   NC3 1166   1.072   5.685   8.100
   72POPC   PO4 1167   1.514   6.166   8.067
   72POPC   GL1 1168   1.552   5.840   7.721
   72POPC   GL2 1169   1.344   5.532   7.710
   72POPC   C1A 1170   1.516   5.704   7.279
   72POPC   D2A 1171   1.304   5.863   6.936
   72POPC   C3A 1172   1.506   5.950   6.548
   72POPC   C4A 1173   1.355   5.769   6.180
   72POPC   C1B 1174   1.021   5.555   7.379
   72POPC   C2B 1175   1.056   5.371   6.960
   72POPC   C3B 1176   1.110   5.548   6.561
   72POPC   C4B 1177   0.952   5.400   6.168
   73POPC   NC3 1178   3.597  10.280   8.129
   73POPC   PO4 1179   3.078   9.892   7.916
   73POPC   GL1 1180   3.424  10.066   7.654
   73POPC   GL2 1181   3.689  10.345   7.645
   73POPC   C1A 1182   3.616   9.924   7.266
   73POPC   D2A 1183   3.500   9.688   6.903
   73POPC   C3A 1184   3.330   9.933   6.566
   73POPC   C4A 1185   2.983   9.993   6.271
   73POPC   C1B 1186   3.499  10.426   7.267
   73POPC   C2B 1187   3.600  10.353   6.834
   73POPC   C3B 1188   3.695  10.269   6.404
   73POPC   C4B 1189   3.733   9.911   6.212
   74POPC   NC3 1190   0.153   8.493   7.892
   74POPC   PO4 1191   0.822   8.712   8.122
   74POPC   GL1 1192   0.661   8.696   7.693
   74POPC   GL2 1193   0.357   8.867   7.621
   74POPC   C1A 1194   0.709   8.525   7.285
   74POPC   D2A 1195   0.645   8.770   6.929
   74POPC   C3A 1196   0.754   8.577   6.587
   74POPC   C4A 1197   0.619   8.585   6.205
   74POPC   C1B 1198   0.217   8.679   7.255
   74POPC   C2B 1199   0.153   8.832   6.867
   74POPC   C3B 1200   0.221   8.604   6.528
   74POPC   C4B 1201   0.064   8.543   6.146
   75POPC   NC3 1202   1.117   6.431   8.063
   75POPC   PO4 1203   0.858   7.007   8.124
   75POPC   GL1 1204   1.179   6.861   7.760
   75POPC   GL2 1205   1.051   6.569   7.585
   75POPC   C1A 1206   1.431   6.719   7.316
   75POPC   D2A 1207   1.211   6.544   6.930
   75POPC   C3A 1208   1.409   6.545   6.492
   75POPC   C4A 1209   1.314   6.512   6.029
   75POPC   C1B 1210   1.099   6.176   7.357
   75POPC   C2B 1211   0.873   6.145   6.969
   75POPC   C3B 1212   1.035   6.160   6.558
   75POPC   C4B 1213   1.000   6.135   6.131
   76POPC   NC3 1214   0.106   4.144   7.877
   76POPC   PO4 1215  10.066   4.397   8.142
   76POPC   GL1 1216  10.118   4.267   7.716
   76POPC   GL2 1217  10.066   3.924   7.624
   76POPC   C1A 1218   9.931   4.281   7.299
   76POPC   D2A 1219  10.123   4.329   6.912
   76POPC   C3A 1220   9.896   4.374   6.569
   76POPC   C4A 1221  10.055   4.430   6.179
   76POPC   C1B 1222  10.370   4.019   7.286
   76POPC   C2B 1223   0.019   3.998   6.873
   76POPC   C3B 1224  10.374   4.142   6.461
   76POPC   C4B 1225  10.446   4.015   6.022
   77POPC   NC3 1226   1.845   5.827   8.161
   77POPC   PO4 1227   1.466   5.322   8.161
   77POPC   GL1 1228   1.827   5.417   7.819
   77POPC   GL2 1229   2.089   5.657   7.748
   77POPC   C1A 1230   1.844   5.325   7.396
   77POPC   D2A 1231   1.910   5.312   6.962
   77POPC   C3A 1232   1.636   5.449   6.633
   77POPC   C4A 1233   1.847   5.445   6.221
   77POPC   C1B 1234   2.016   5.846   7.342
   77POPC   C2B 1235   1.844   5.869   6.929
   77POPC   C3B 1236   2.024   5.797   6.540
   77POPC   C4B 1237   2.237   6.006   6.244
   78POPC   NC3 1238   8.478   3.353   7.911
   78POPC   PO4 1239   9.137   3.134   8.045
   78POPC   GL1 1240   8.898   3.261   7.680
   78POPC   GL2 1241   8.913   3.613   7.712
   78POPC   C1A 1242   8.683   3.467   7.290
   78POPC   D2A 1243   8.531   3.278   6.923
   78POPC   C3A 1244   8.708   3.373   6.519
   78POPC   C4A 1245   8.475   3.295   6.149
   78POPC   C1B 1246   9.088   3.799   7.313
   78POPC   C2B 1247   8.906   3.963   6.939
   78POPC   C3B 1248   8.981   3.913   6.496
   78POPC   C4B 1249   8.939   3.626   6.139
   79POPC   NC3 1250   9.807   4.181   8.473
   79POPC   PO4 1251   9.232   4.352   8.105
   79POPC   GL1 1252   9.254   4.195   7.684
   79POPC   GL2 1253   9.339   3.923   7.733
   79POPC   C1A 1254   9.419   4.328   7.301
   79POPC   D2A 1255   9.267   4.313   6.897
   79POPC   C3A 1256   9.412   4.490   6.514
   79POPC   C4A 1257   9.238   4.252   6.171
   79POPC   C1B 1258   9.609   3.855   7.364
   79POPC   C2B 1259   9.689   4.004   6.945
   79POPC   C3B 1260   9.493   3.973   6.557
   79POPC   C4B 1261   9.740   4.032   6.215
   80POPC   NC3 1262   6.249   6.714   7.776
   80POPC   PO4 1263   6.708   7.160   8.080
   80POPC   GL1 1264   6.659   7.113   7.637
   80POPC   GL2 1265   6.366   7.312   7.630
   80POPC   C1A 1266   6.679   6.849   7.240
   80POPC   D2A 1267   6.647   6.896   6.785
   80POPC   C3A 1268   6.601   6.623   6.423
   80POPC   C4A 1269   6.295   6.637   6.090
   80POPC   C1B 1270   6.525   7.376   7.208
   80POPC   C2B 1271   6.319   7.280   6.833
   80POPC   C3B 1272   6.296   7.070   6.444
   80POPC   C4B 1273   6.081   7.362   6.218
   81POPC   NC3 1274   0.590   1.124   8.313
   81POPC   PO4 1275  10.462   0.835   8.141
   81POPC   GL1 1276   0.030   0.965   7.729
   81POPC   GL2 1277   0.089   1.311   7.754
   81POPC   C1A 1278   0.095   0.930   7.295
   81POPC   D2A 1279   0.415   1.006   6.994
   81POPC   C3A 1280   0.277   1.028   6.589
   81POPC   C4A 1281   0.396   0.908   6.180
   81POPC   C1B 1282   0.288   1.370   7.358
   81POPC   C2B 1283   0.160   1.453   6.917
   81POPC   C3B 1284   0.305   1.503   6.426
   81POPC   C4B 1285   0.559   1.347   6.047
   82POPC   NC3 1286   9.240   6.277   8.148
   82POPC   PO4 1287   8.816   6.788   7.855
   82POPC   GL1 1288   9.001   6.380   7.704
   82POPC   GL2 1289   9.369   6.390   7.668
   82POPC   C1A 1290   9.059   6.188   7.298
   82POPC   D2A 1291   8.846   6.273   6.896
   82POPC   C3A 1292   9.138   6.293   6.541
   82POPC   C4A 1293   9.199   6.710   6.448
   82POPC   C1B 1294   9.342   6.607   7.281
   82POPC   C2B 1295   9.472   6.509   6.864
   82POPC   C3B 1296   9.649   6.456   6.453
   82POPC   C4B 1297   9.971   6.183   6.311
   83POPC   NC3 1298   9.473   0.599   7.935
   83POPC   PO4 1299   8.991   0.268   8.244
   83POPC   GL1 1300   9.153   0.244   7.760
   83POPC   GL2 1301   9.499   0.271   7.558
   83POPC   C1A 1302   9.086   0.448   7.329
   83POPC   D2A 1303   9.267   0.313   6.919
   83POPC   C3A 1304   9.165   0.453   6.512
   83POPC   C4A 1305   9.037   0.848   6.457
   83POPC   C1B 1306   9.585   0.612   7.242
   83POPC   C2B 1307   9.597   0.683   6.788
   83POPC   C3B 1308   9.642   0.657   6.362
   83POPC   C4B 1309   9.511   0.328   6.119
   84POPC   NC3 1310   7.131   7.038   7.876
   84POPC   PO4 1311   7.471   7.489   8.306
   84POPC   GL1 1312   7.351   7.462   7.788
   84POPC   GL2 1313   7.043   7.464   7.624
   84POPC   C1A 1314   7.480   7.355   7.358
   84POPC   D2A 1315   7.535   7.118   6.949
   84POPC   C3A 1316   7.569   7.315   6.558
   84POPC   C4A 1317   7.289   7.216   6.262
   84POPC   C1B 1318   7.020   7.236   7.185
   84POPC   C2B 1319   7.013   7.228   6.710
   84POPC   C3B 1320   6.820   7.055   6.316
   84POPC   C4B 1321   6.769   6.775   5.915
   85POPC   NC3 1322   7.828   1.758   8.147
   85POPC   PO4 1323   8.129   2.256   8.070
   85POPC   GL1 1324   8.041   1.917   7.689
   85POPC   GL2 1325   7.720   1.705   7.637
   85POPC   C1A 1326   8.039   1.726   7.236
   85POPC   D2A 1327   8.196   1.767   6.824
   85POPC   C3A 1328   7.991   1.608   6.449
   85POPC   C4A 1329   8.113   1.533   5.982
   85POPC   C1B 1330   7.702   2.083   7.319
   85POPC   C2B 1331   7.842   2.149   6.924
   85POPC   C3B 1332   7.935   2.119   6.524
   85POPC   C4B 1333   8.085   2.013   6.162
   86POPC   NC3 1334   7.176   9.231   8.192
   86POPC   PO4 1335   7.517   9.872   8.301
   86POPC   GL1 1336   7.455   9.379   7.826
   86POPC   GL2 1337   7.079   9.373   7.722
   86POPC   C1A 1338   7.380   9.179   7.368
   86POPC   D2A 1339   7.346   8.925   6.979
   86POPC   C3A 1340   7.338   9.159   6.601
   86POPC   C4A 1341   7.463   9.056   6.178
   86POPC   C1B 1342   6.843   9.324   7.346
   86POPC   C2B 1343   6.927   9.247   6.920
   86POPC   C3B 1344   6.924   9.438   6.487
   86POPC   C4B 1345   7.335   9.605   6.306
   87POPC   NC3 1346   6.979   1.077   8.153
   87POPC   PO4 1347   7.447   1.527   8.127
   87POPC   GL1 1348   7.242   1.319   7.747
   87POPC   GL2 1349   6.951   1.192   7.678
   87POPC   C1A 1350   7.285   1.201   7.308
   87POPC   D2A 1351   7.303   1.111   6.889
   87POPC   C3A 1352   7.124   1.376   6.566
   87POPC   C4A 1353   7.158   1.347   6.110
   87POPC   C1B 1354   6.864   0.864   7.364
   87POPC   C2B 1355   6.941   0.697   6.946
   87POPC   C3B 1356   7.113   0.797   6.536
   87POPC   C4B 1357   6.848   1.003   6.294
   88POPC   NC3 1358   2.522   0.924   8.128
   88POPC   PO4 1359   3.172   1.011   8.121
   88POPC   GL1 1360   3.091   1.243   7.702
   88POPC   GL2 1361   2.772   1.137   7.721
   88POPC   C1A 1362   3.094   1.338   7.244
   88POPC   D2A 1363   3.024   1.080   6.921
   88POPC   C3A 1364   2.887   1.250   6.550
   88POPC   C4A 1365   3.062   1.136   6.193
   88POPC   C1B 1366   2.625   1.124   7.306
   88POPC   C2B 1367   2.536   1.317   6.912
   88POPC   C3B 1368   2.344   1.168   6.533
   88POPC   C4B 1369   2.439   1.029   6.115
   89POPC   NC3 1370   0.524   9.068   8.058
   89POPC   PO4 1371   0.413   9.753   7.996
   89POPC   GL1 1372   0.581   9.412   7.697
   89POPC   GL2 1373   0.285   9.371   7.606
   89POPC   C1A 1374   0.577   9.162   7.254
   89POPC   D2A 1375   0.405   9.280   6.824
   89POPC   C3A 1376   0.511   9.031   6.466
   89POPC   C4A 1377   0.533   9.031   5.991
   89POPC   C1B 1378   0.467   9.668   7.303
   89POPC   C2B 1379   0.341   9.777   6.930
   89POPC   C3B 1380   0.491   9.786   6.541
   89POPC   C4B 1381   0.357   9.482   6.238
   90POPC   NC3 1382   5.644   9.032   8.058
   90POPC   PO4 1383   5.481   9.675   8.120
   90POPC   GL1 1384   5.565   9.433   7.732
   90POPC   GL2 1385   5.922   9.295   7.723
   90POPC   C1A 1386   5.590   9.160   7.359
   90POPC   D2A 1387   5.355   9.101   6.960
   90POPC   C3A 1388   5.564   9.103   6.559
   90POPC   C4A 1389   5.745   9.341   6.225
   90POPC   C1B 1390   5.911   9.582   7.360
   90POPC   C2B 1391   5.623   9.545   7.021
   90POPC   C3B 1392   5.668   9.643   6.634
   90POPC   C4B 1393   6.027   9.765   6.356
   91POPC   NC3 1394   3.785   2.796   8.198
   91POPC   PO4 1395   3.145   2.891   8.298
   91POPC   GL1 1396   3.385   2.919   7.859
   91POPC   GL2 1397   3.485   2.575   7.820
   91POPC   C1A 1398   3.271   2.982   7.395
   91POPC   D2A 1399   3.049   2.802   7.022
   91POPC   C3A 1400   3.175   2.887   6.566
   91POPC   C4A 1401   3.324   3.073   6.191
   91POPC   C1B 1402   3.386   2.480   7.395
   91POPC   C2B 1403   3.423   2.479   6.948
   91POPC   C3B 1404   3.445   2.443   6.511
   91POPC   C4B 1405   3.278   2.561   6.133
   92POPC   NC3 1406   1.867   8.187   8.099
   92POPC   PO4 1407   1.707   7.534   8.148
   92POPC   GL1 1408   1.746   7.786   7.760
   92POPC   GL2 1409   1.719   8.105   7.617
   92POPC   C1A 1410   1.739   7.639   7.319
   92POPC   D2A 1411   1.695   7.906   6.954
   92POPC   C3A 1412   1.674   7.763   6.520
   92POPC   C4A 1413   1.681   8.182   6.294
   92POPC   C1B 1414   2.086   7.983   7.372
   92POPC   C2B 1415   2.171   7.772   6.970
   92POPC   C3B 1416   2.099   8.029   6.609
   92POPC   C4B 1417   2.096   7.845   6.230
   93POPC   NC3 1418   7.710   7.736   7.953
   93POPC   PO4 1419   8.171   8.190   8.170
   93POPC   GL1 1420   8.048   8.030   7.734
   93POPC   GL2 1421   7.725   8.156   7.605
   93POPC   C1A 1422   8.123   7.892   7.300
   93POPC   D2A 1423   8.061   8.133   6.914
   93POPC   C3A 1424   8.134   7.999   6.497
   93POPC   C4A 1425   8.068   8.218   6.144
   93POPC   C1B 1426   7.619   7.860   7.264
   93POPC   C2B 1427   7.595   7.982   6.847
   93POPC   C3B 1428   7.629   7.846   6.466
   93POPC   C4B 1429   7.553   8.109   6.164
   94POPC   NC3 1430   0.585   7.363   7.970
   94POPC   PO4 1431   0.301   6.844   7.775
   94POPC   GL1 1432   0.681   6.921   7.627
   94POPC   GL2 1433   0.584   7.232   7.483
   94POPC   C1A 1434   0.802   6.886   7.197
   94POPC   D2A 1435   0.497   7.140   6.983
   94POPC   C3A 1436   0.499   7.044   6.601
   94POPC   C4A 1437   0.715   7.157   6.253
   94POPC   C1B 1438   0.118   7.229   7.329
   94POPC   C2B 1439  10.427   7.381   7.006
   94POPC   C3B 1440   0.188   7.479   6.664
   94POPC   C4B 1441   0.216   7.300   6.257
   95POPC   NC3 1442   2.160   7.382   8.098
   95POPC   PO4 1443   1.597   6.882   8.067
   95POPC   GL1 1444   1.645   7.065   7.653
   95POPC   GL2 1445   1.867   7.308   7.686
   95POPC   C1A 1446   1.701   7.151   7.192
   95POPC   D2A 1447   1.654   6.881   6.848
   95POPC   C3A 1448   1.601   7.056   6.478
   95POPC   C4A 1449   1.679   6.837   6.129
   95POPC   C1B 1450   2.219   7.444   7.421
   95POPC   C2B 1451   2.236   7.165   7.084
   95POPC   C3B 1452   2.002   7.271   6.729
   95POPC   C4B 1453   2.013   7.321   6.281
   96POPC   NC3 1454   4.250   3.481   8.074
   96POPC   PO4 1455   4.649   3.939   7.822
   96POPC   GL1 1456   4.323   3.634   7.599
   96POPC   GL2 1457   4.362   3.254   7.618
   96POPC   C1A 1458   4.167   3.519   7.192
   96POPC   D2A 1459   4.461   3.416   6.863
   96POPC   C3A 1460   4.446   3.706   6.537
   96POPC   C4A 1461   4.109   3.788   6.274
   96POPC   C1B 1462   4.242   3.009   7.252
   96POPC   C2B 1463   4.063   3.094   6.849
   96POPC   C3B 1464   4.117   3.295   6.461
   96POPC   C4B 1465   4.429   3.410   6.125
   97POPC   NC3 1466   5.100   2.887   8.150
   97POPC   PO4 1467   4.525   3.076   8.111
   97POPC   GL1 1468   4.764   2.926   7.701
   97POPC   GL2 1469   5.107   2.805   7.635
   97POPC   C1A 1470   4.764   2.892   7.219
   97POPC   D2A 1471   4.942   2.762   6.782
   97POPC   C3A 1472   4.746   2.711   6.388
   97POPC   C4A 1473   4.528   2.812   6.006
   97POPC   C1B 1474   5.213   2.634   7.211
   97POPC   C2B 1475   5.206   2.345   6.828
   97POPC   C3B 1476   5.245   2.535   6.400
   97POPC   C4B 1477   5.204   2.997   6.356
   98POPC   NC3 1478   1.841   6.497   8.108
   98POPC   PO4 1479   2.221   6.059   8.062
   98POPC   GL1 1480   1.948   6.174   7.725
   98POPC   GL2 1481   1.972   6.531   7.630
   98POPC   C1A 1482   1.668   6.220   7.346
   98POPC   D2A 1483   1.695   6.380   6.925
   98POPC   C3A 1484   1.903   6.319   6.539
   98POPC   C4A 1485   1.710   6.229   6.163
   98POPC   C1B 1486   1.965   6.703   7.237
   98POPC   C2B 1487   2.134   6.721   6.836
   98POPC   C3B 1488   2.093   6.824   6.433
   98POPC   C4B 1489   2.100   6.542   6.084
   99POPC   NC3 1490   1.300   2.914   7.894
   99POPC   PO4 1491   0.920   2.246   7.992
   99POPC   GL1 1492   0.977   2.502   7.648
   99POPC   GL2 1493   0.875   2.853   7.638
   99POPC   C1A 1494   0.960   2.302   7.261
   99POPC   D2A 1495   1.156   2.349   6.873
   99POPC   C3A 1496   0.996   2.394   6.466
   99POPC   C4A 1497   1.125   2.490   6.024
   99POPC   C1B 1498   1.104   2.779   7.230
   99POPC   C2B 1499   1.061   2.823   6.785
   99POPC   C3B 1500   1.250   2.864   6.421
   99POPC   C4B 1501   0.877   2.904   6.205
  100POPC   NC3 1502   8.022  10.281   8.163
  100POPC   PO4 1503   8.275   9.724   7.979
  100POPC   GL1 1504   8.022  10.017   7.714
  100POPC   GL2 1505   7.669  10.161   7.686
  100POPC   C1A 1506   8.040  10.215   7.330
  100POPC   D2A 1507   8.066  10.017   6.921
  100POPC   C3A 1508   8.172  10.218   6.532
  100POPC   C4A 1509   7.928  10.292   6.162
  100POPC   C1B 1510   7.581  10.013   7.232
  100POPC   C2B 1511   7.570  10.046   6.782
  100POPC   C3B 1512   7.770   9.898   6.447
  100POPC   C4B 1513   7.693   9.862   6.016
  101POPC   NC3 1514   1.985   1.373   8.080
  101POPC   PO4 1515   1.894   2.045   8.096
  101POPC   GL1 1516   1.762   1.959   7.670
  101POPC   GL2 1517   1.918   2.270   7.621
  101POPC   C1A 1518   1.785   1.712   7.250
  101POPC   D2A 1519   1.891   1.846   6.788
  101POPC   C3A 1520   2.109   1.662   6.439
  101POPC   C4A 1521   1.801   1.684   6.061
  101POPC   C1B 1522   1.950   2.194   7.212
  101POPC   C2B 1523   1.777   2.352   6.883
  101POPC   C3B 1524   1.936   2.348   6.533
  101POPC   C4B 1525   1.921   2.110   6.272
  102POPC   NC3 1526   0.616   3.504   8.134
  102POPC   PO4 1527  10.462   3.424   7.960
  102POPC   GL1 1528   0.098   3.690   7.630
  102POPC   GL2 1529   0.439   3.613   7.667
  102POPC   C1A 1530   0.193   3.605   7.186
  102POPC   D2A 1531   0.197   3.226   6.933
  102POPC   C3A 1532   0.116   3.315   6.496
  102POPC   C4A 1533   0.237   3.649   6.264
  102POPC   C1B 1534   0.700   3.660   7.323
  102POPC   C2B 1535   0.661   3.498   6.909
  102POPC   C3B 1536   0.702   3.667   6.506
  102POPC   C4B 1537   0.668   3.379   6.201
  103POPC   NC3 1538   0.350  10.206   8.140
  103POPC   PO4 1539   1.073  10.210   8.147
  103POPC   GL1 1540   0.824  10.249   7.691
  103POPC   GL2 1541   0.499  10.155   7.667
  103POPC   C1A 1542   0.760  10.087   7.238
  103POPC   D2A 1543   0.535  10.237   6.875
  103POPC   C3A 1544   0.742  10.288   6.490
  103POPC   C4A 1545   0.615  10.098   6.150
  103POPC   C1B 1546   0.183  10.077   7.388
  103POPC   C2B 1547   0.005  10.151   7.015
  103POPC   C3B 1548   0.070  10.096   6.629
  103POPC   C4B 1549   0.118   9.964   6.229
  104POPC   NC3 1550   7.710   1.231   7.875
  104POPC   PO4 1551   8.260   0.946   8.165
  104POPC   GL1 1552   8.186   1.000   7.700
  104POPC   GL2 1553   7.999   1.291   7.481
  104POPC   C1A 1554   8.261   0.959   7.255
  104POPC   D2A 1555   8.164   1.249   6.889
  104POPC   C3A 1556   8.142   1.133   6.463
  104POPC   C4A 1557   7.982   1.050   6.082
  104POPC   C1B 1558   7.762   1.020   7.189
  104POPC   C2B 1559   7.758   0.940   6.743
  104POPC   C3B 1560   7.612   1.250   6.440
  104POPC   C4B 1561   7.625   1.524   6.088
  105POPC   NC3 1562   6.863   9.993   7.919
  105POPC   PO4 1563   6.175   9.677   7.976
  105POPC   GL1 1564   6.205   9.983   7.687
  105POPC   GL2 1565   6.442  10.228   7.737
  105POPC   C1A 1566   6.076  10.082   7.288
  105POPC   D2A 1567   6.116   9.881   6.900
  105POPC   C3A 1568   6.148  10.207   6.609
  105POPC   C4A 1569   6.336  10.206   6.249
  105POPC   C1B 1570   6.680  10.281   7.342
  105POPC   C2B 1571   6.673  10.097   6.939
  105POPC   C3B 1572   6.701  10.304   6.590
  105POPC   C4B 1573   6.715   0.036   6.222
  106POPC   NC3 1574   4.838   1.935   7.993
  106POPC   PO4 1575   5.166   2.436   8.098
  106POPC   GL1 1576   4.944   2.316   7.658
  106POPC   GL2 1577   4.939   1.953   7.506
  106POPC   C1A 1578   4.793   2.360   7.228
  106POPC   D2A 1579   4.653   2.237   6.844
  106POPC   C3A 1580   4.864   2.221   6.459
  106POPC   C4A 1581   4.699   2.321   6.024
  106POPC   C1B 1582   4.786   1.826   7.127
  106POPC   C2B 1583   4.960   1.805   6.750
  106POPC   C3B 1584   5.026   1.721   6.362
  106POPC   C4B 1585   5.077   1.995   6.066
  107POPC   NC3 1586  10.202   8.531   8.247
  107POPC   PO4 1587   9.760   9.007   8.099
  107POPC   GL1 1588   9.981   8.797   7.727
  107POPC   GL2 1589  10.147   8.474   7.727
  107POPC   C1A 1590  10.201   8.779   7.318
  107POPC   D2A 1591   9.993   8.826   6.941
  107POPC   C3A 1592  10.223   8.739   6.610
  107POPC   C4A 1593  10.072   8.731   6.222
  107POPC   C1B 1594  10.340   8.294   7.342
  107POPC   C2B 1595  10.417   8.390   6.927
  107POPC   C3B 1596  10.301   8.256   6.520
  107POPC   C4B 1597  10.164   8.219   6.122
  108POPC   NC3 1598   1.972   9.877   8.001
  108POPC   PO4 1599   1.581   9.353   8.234
  108POPC   GL1 1600   1.784   9.432   7.783
  108POPC   GL2 1601   2.023   9.169   7.676
  108POPC   C1A 1602   1.963   9.511   7.326
  108POPC   D2A 1603   1.774   9.412   6.935
  108POPC   C3A 1604   1.883   9.556   6.510
  108POPC   C4A 1605   1.645   9.564   6.147
  108POPC   C1B 1606   2.115   8.988   7.293
  108POPC   C2B 1607   2.141   9.050   6.872
  108POPC   C3B 1608   1.877   9.073   6.551
  108POPC   C4B 1609   1.931   9.143   6.152
  109POPC   NC3 1610   0.863   9.805   7.928
  109POPC   PO4 1611   1.527   9.984   8.017
  109POPC   GL1 1612   1.267   9.994   7.699
  109POPC   GL2 1613   1.312  10.300   7.633
  109POPC   C1A 1614   1.265   9.971   7.259
  109POPC   D2A 1615   1.331   9.745   6.918
  109POPC   C3A 1616   1.045   9.900   6.646
  109POPC   C4A 1617   1.175   9.781   6.273
  109POPC   C1B 1618   1.104  10.480   7.291
  109POPC   C2B 1619   1.053  10.395   6.871
  109POPC   C3B 1620   1.250  10.347   6.448
  109POPC   C4B 1621   1.083   0.013   6.063
  110POPC   NC3 1622   7.800   9.654   8.015
  110POPC   PO4 1623   8.093   9.101   8.296
  110POPC   GL1 1624   7.952   9.157   7.850
  110POPC   GL2 1625   8.254   9.300   7.703
  110POPC   C1A 1626   7.841   9.370   7.423
  110POPC   D2A 1627   7.640   9.535   7.058
  110POPC   C3A 1628   7.762   9.437   6.647
  110POPC   C4A 1629   7.822   9.415   6.234
  110POPC   C1B 1630   8.266   9.637   7.351
  110POPC   C2B 1631   8.170   9.513   6.951
  110POPC   C3B 1632   8.283   9.691   6.559
  110POPC   C4B 1633   8.195   9.814   6.151
  111POPC   NC3 1634   9.307   7.874   7.958
  111POPC   PO4 1635   9.950   8.171   8.078
  111POPC   GL1 1636   9.692   8.089   7.694
  111POPC   GL2 1637   9.729   7.696   7.687
  111POPC   C1A 1638   9.488   8.053   7.254
  111POPC   D2A 1639   9.537   7.928   6.893
  111POPC   C3A 1640   9.371   8.148   6.581
  111POPC   C4A 1641   9.273   8.019   6.199
  111POPC   C1B 1642   9.474   7.531   7.328
  111POPC   C2B 1643   9.280   7.482   6.921
  111POPC   C3B 1644   9.437   7.609   6.516
  111POPC   C4B 1645   9.566   7.434   6.163
  112POPC   NC3 1646   8.691   1.105   8.043
  112POPC   PO4 1647   8.112   1.454   7.944
  112POPC   GL1 1648   8.456   1.442   7.675
  112POPC   GL2 1649   8.822   1.488   7.671
  112POPC   C1A 1650   8.462   1.451   7.239
  112POPC   D2A 1651   8.653   1.528   6.840
  112POPC   C3A 1652   8.498   1.505   6.406
  112POPC   C4A 1653   8.603   1.464   5.960
  112POPC   C1B 1654   8.769   1.094   7.415
  112POPC   C2B 1655   8.684   1.026   7.003
  112POPC   C3B 1656   8.608   1.044   6.624
  112POPC   C4B 1657   8.581   1.014   6.211
  113POPC   NC3 1658   5.257   0.262   8.277
  113POPC   PO4 1659   5.773   0.696   8.147
  113POPC   GL1 1660   5.704   0.670   7.691
  113POPC   GL2 1661   5.840   0.340   7.689
  113POPC   C1A 1662   5.592   0.516   7.224
  113POPC   D2A 1663   5.512   0.655   6.776
  113POPC   C3A 1664   5.520   0.545   6.305
  113POPC   C4A 1665   5.447   0.761   5.886
  113POPC   C1B 1666   6.060   0.551   7.346
  113POPC   C2B 1667   6.012   0.362   6.963
  113POPC   C3B 1668   5.915   0.371   6.564
  113POPC   C4B 1669   6.005   0.719   6.302
  114POPC   NC3 1670   2.034   3.570   8.071
  114POPC   PO4 1671   2.090   2.963   8.270
  114POPC   GL1 1672   2.139   3.193   7.776
  114POPC   GL2 1673   1.939   3.455   7.600
  114POPC   C1A 1674   2.183   3.079   7.357
  114POPC   D2A 1675   1.956   3.085   6.985
  114POPC   C3A 1676   2.183   3.128   6.644
  114POPC   C4A 1677   2.143   3.442   6.365
  114POPC   C1B 1678   1.652   3.399   7.287
  114POPC   C2B 1679   1.594   3.630   6.909
  114POPC   C3B 1680   1.614   3.363   6.564
  114POPC   C4B 1681   1.660   3.169   6.190
  115POPC   NC3 1682   7.865   2.665   8.098
  115POPC   PO4 1683   7.590   2.091   7.939
  115POPC   GL1 1684   7.872   2.420   7.654
  115POPC   GL2 1685   7.936   2.822   7.638
  115POPC   C1A 1686   7.986   2.541   7.229
  115POPC   D2A 1687   7.739   2.682   6.919
  115POPC   C3A 1688   8.000   2.633   6.603
  115POPC   C4A 1689   7.825   2.536   6.232
  115POPC   C1B 1690   8.201   3.001   7.337
  115POPC   C2B 1691   8.075   3.055   6.933
  115POPC   C3B 1692   7.801   3.117   6.607
  115POPC   C4B 1693   8.018   3.039   6.238
  116POPC   NC3 1694   2.957   9.513   8.191
  116POPC   PO4 1695   2.283   9.520   8.015
  116POPC   GL1 1696   2.508   9.350   7.684
  116POPC   GL2 1697   2.735   9.602   7.671
  116POPC   C1A 1698   2.462   9.426   7.243
  116POPC   D2A 1699   2.299   9.591   6.849
  116POPC   C3A 1700   2.335   9.355   6.469
  116POPC   C4A 1701   2.408   9.250   6.057
  116POPC   C1B 1702   2.820   9.812   7.282
  116POPC   C2B 1703   2.976   9.672   6.907
  116POPC   C3B 1704   2.789   9.579   6.596
  116POPC   C4B 1705   2.818   9.516   6.196
  117POPC   NC3 1706   9.322   2.720   7.905
  117POPC   PO4 1707   9.546   2.230   8.284
  117POPC   GL1 1708   9.517   2.247   7.768
  117POPC   GL2 1709   9.278   2.451   7.479
  117POPC   C1A 1710   9.703   2.287   7.322
  117POPC   D2A 1711   9.444   2.365   6.943
  117POPC   C3A 1712   9.527   2.594   6.574
  117POPC   C4A 1713   9.273   2.629   6.195
  117POPC   C1B 1714   9.528   2.788   7.257
  117POPC   C2B 1715   9.349   2.990   6.927
  117POPC   C3B 1716   9.158   2.966   6.574
  117POPC   C4B 1717   9.580   3.084   6.411
  118POPC   NC3 1718   5.611   8.258   7.930
  118POPC   PO4 1719   6.068   8.829   8.089
  118POPC   GL1 1720   5.982   8.611   7.741
  118POPC   GL2 1721   5.664   8.723   7.635
  118POPC   C1A 1722   6.034   8.787   7.320
  118POPC   D2A 1723   5.848   8.932   6.953
  118POPC   C3A 1724   5.908   8.713   6.552
  118POPC   C4A 1725   6.006   8.897   6.160
  118POPC   C1B 1726   5.485   8.686   7.236
  118POPC   C2B 1727   5.467   8.570   6.797
  118POPC   C3B 1728   5.355   8.605   6.374
  118POPC   C4B 1729   5.648   8.503   6.089
  119POPC   NC3 1730   1.205   8.996   8.166
  119POPC   PO4 1731   1.478   8.442   8.129
  119POPC   GL1 1732   1.393   8.487   7.717
  119POPC   GL2 1733   1.167   8.689   7.742
  119POPC   C1A 1734   1.274   8.367   7.307
  119POPC   D2A 1735   1.496   8.363   6.916
  119POPC   C3A 1736   1.261   8.322   6.557
  119POPC   C4A 1737   1.229   8.527   6.225
  119POPC   C1B 1738   1.078   8.867   7.358
  119POPC   C2B 1739   1.145   8.731   6.958
  119POPC   C3B 1740   1.050   8.976   6.640
  119POPC   C4B 1741   0.958   8.944   6.244
  120POPC   NC3 1742   2.805  10.328   8.420
  120POPC   PO4 1743   2.611   0.430   8.189
  120POPC   GL1 1744   2.778   0.492   7.761
  120POPC   GL2 1745   3.074   0.704   7.699
  120POPC   C1A 1746   2.573   0.306   7.366
  120POPC   D2A 1747   2.635   0.062   6.997
  120POPC   C3A 1748   2.766   0.311   6.677
  120POPC   C4A 1749   2.905   0.311   6.279
  120POPC   C1B 1750   2.889   0.697   7.275
  120POPC   C2B 1751   2.623   0.782   6.904
  120POPC   C3B 1752   2.719   0.778   6.477
  120POPC   C4B 1753   2.425   0.503   6.308
  121POPC   NC3 1754   4.263   7.864   8.325
  121POPC   PO4 1755   4.574   7.341   8.095
  121POPC   GL1 1756   4.315   7.404   7.718
  121POPC   GL2 1757   4.024   7.183   7.688
  121POPC   C1A 1758   4.242   7.357   7.247
  121POPC   D2A 1759   4.470   7.416   6.853
  121POPC   C3A 1760   4.364   7.231   6.446
  121POPC   C4A 1761   4.610   6.988   6.137
  121POPC   C1B 1762   4.021   6.897   7.306
  121POPC   C2B 1763   4.110   6.978   6.843
  121POPC   C3B 1764   4.019   6.865   6.382
  121POPC   C4B 1765   4.156   7.116   5.962
  122POPC   NC3 1766   7.972   3.387   8.259
  122POPC   PO4 1767   8.491   3.809   7.966
  122POPC   GL1 1768   8.178   3.656   7.654
  122POPC   GL2 1769   7.922   3.361   7.720
  122POPC   C1A 1770   8.164   3.494   7.260
  122POPC   D2A 1771   7.968   3.537   6.897
  122POPC   C3A 1772   8.191   3.449   6.545
  122POPC   C4A 1773   8.101   3.630   6.146
  122POPC   C1B 1774   7.723   3.199   7.316
  122POPC   C2B 1775   7.488   3.412   6.975
  122POPC   C3B 1776   7.579   3.594   6.533
  122POPC   C4B 1777   7.672   3.394   6.132
  123POPC   NC3 1778   2.557   8.372   8.429
  123POPC   PO4 1779   2.251   7.927   7.998
  123POPC   GL1 1780   2.559   7.819   7.675
  123POPC   GL2 1781   2.898   7.900   7.845
  123POPC   C1A 1782   2.565   7.923   7.238
  123POPC   D2A 1783   2.506   8.176   6.914
  123POPC   C3A 1784   2.591   7.921   6.584
  123POPC   C4A 1785   2.597   8.025   6.177
  123POPC   C1B 1786   3.013   7.872   7.409
  123POPC   C2B 1787   2.987   7.764   6.948
  123POPC   C3B 1788   2.931   7.548   6.523
  123POPC   C4B 1789   2.987   7.686   6.119
  124POPC   NC3 1790   2.480   8.291   7.832
  124POPC   PO4 1791   2.982   8.292   8.250
  124POPC   GL1 1792   3.018   8.398   7.761
  124POPC   GL2 1793   2.925   8.769   7.686
  124POPC   C1A 1794   2.882   8.390   7.291
  124POPC   D2A 1795   2.712   8.656   6.916
  124POPC   C3A 1796   2.659   8.463   6.479
  124POPC   C4A 1797   2.991   8.435   6.159
  124POPC   C1B 1798   2.802   9.030   7.293
  124POPC   C2B 1799   2.635   9.157   6.858
  124POPC   C3B 1800   2.758   9.079   6.444
  124POPC   C4B 1801   2.681   8.837   6.089
  125POPC   NC3 1802   7.754   6.438   8.106
  125POPC   PO4 1803   8.232   6.847   8.218
  125POPC   GL1 1804   8.071   6.725   7.773
  125POPC   GL2 1805   7.988   6.357   7.682
  125POPC   C1A 1806   8.200   6.596   7.309
  125POPC   D2A 1807   8.094   6.361   6.932
  125POPC   C3A 1808   8.022   6.514   6.515
  125POPC   C4A 1809   8.272   6.702   6.188
  125POPC   C1B 1810   7.724   6.435   7.292
  125POPC   C2B 1811   7.586   6.534   6.867
  125POPC   C3B 1812   7.522   6.360   6.440
  125POPC   C4B 1813   7.566   6.432   5.995
  126POPC   NC3 1814   2.568   5.795   7.938
  126POPC   PO4 1815   2.319   5.176   8.077
  126POPC   GL1 1816   2.426   5.274   7.684
  126POPC   GL2 1817   2.737   5.475   7.595
  126POPC   C1A 1818   2.327   5.450   7.301
  126POPC   D2A 1819   2.319   5.674   6.947
  126POPC   C3A 1820   2.584   5.537   6.649
  126POPC   C4A 1821   2.480   5.538   6.259
  126POPC   C1B 1822   2.667   5.851   7.287
  126POPC   C2B 1823   2.690   6.031   6.852
  126POPC   C3B 1824   2.737   5.974   6.408
  126POPC   C4B 1825   2.985   5.665   6.203
  127POPC   NC3 1826   9.335   9.410   8.103
  127POPC   PO4 1827   9.913   9.776   7.984
  127POPC   GL1 1828   9.736   9.494   7.641
  127POPC   GL2 1829   9.370   9.410   7.605
  127POPC   C1A 1830   9.647   9.446   7.191
  127POPC   D2A 1831   9.845   9.335   6.810
  127POPC   C3A 1832   9.842   9.569   6.443
  127POPC   C4A 1833   9.556   9.697   6.121
  127POPC   C1B 1834   9.146   9.313   7.234
  127POPC   C2B 1835   9.278   9.471   6.834
  127POPC   C3B 1836   9.352   9.355   6.430
  127POPC   C4B 1837   9.094   9.258   6.087
  128POPC   NC3 1838   4.680   1.310   7.960
  128POPC   PO4 1839   5.154   0.755   8.046
  128POPC   GL1 1840   5.194   0.859   7.622
  128POPC   GL2 1841   4.915   1.065   7.584
  128POPC   C1A 1842   5.286   0.925   7.186
  128POPC   D2A 1843   5.026   0.870   6.834
  128POPC   C3A 1844   5.123   0.855   6.375
  128POPC   C4A 1845   5.028   1.033   5.929
  128POPC   C1B 1846   5.102   1.395   7.301
  128POPC   C2B 1847   5.236   1.369   6.853
  128POPC   C3B 1848   4.879   1.280   6.570
  128POPC   C4B 1849   4.687   1.367   6.173
  129POPC   NC3 1850   8.777   9.862   8.050
  129POPC   PO4 1851   8.476  10.381   8.221
  129POPC   GL1 1852   8.742  10.324   7.815
  129POPC   GL2 1853   8.530  10.064   7.646
  129POPC   C1A 1854   8.963  10.170   7.392
  129POPC   D2A 1855   9.190   9.978   6.994
  129POPC   C3A 1856   9.037   9.841   6.572
  129POPC   C4A 1857   8.793  10.025   6.264
  129POPC   C1B 1858   8.509  10.073   7.197
  129POPC   C2B 1859   8.708  10.186   6.803
  129POPC   C3B 1860   8.625  10.456   6.449
  129POPC   C4B 1861   8.415  10.259   6.042
  130POPC   NC3 1862   3.411   3.411   8.009
  130POPC   PO4 1863   3.994   3.107   7.941
  130POPC   GL1 1864   3.815   3.364   7.631
  130POPC   GL2 1865   3.432   3.449   7.518
  130POPC   C1A 1866   3.750   3.207   7.229
  130POPC   D2A 1867   3.511   3.022   6.923
  130POPC   C3A 1868   3.457   3.327   6.611
  130POPC   C4A 1869   3.683   3.512   6.277
  130POPC   C1B 1870   3.318   3.486   7.091
  130POPC   C2B 1871   3.131   3.728   6.741
  130POPC   C3B 1872   3.234   3.865   6.331
  130POPC   C4B 1873   3.268   3.567   6.003
  131POPC   NC3 1874   5.290  10.086   7.972
  131POPC   PO4 1875   4.677   9.846   8.102
  131POPC   GL1 1876   4.805  10.122   7.694
  131POPC   GL2 1877   5.126  10.356   7.600
  131POPC   C1A 1878   4.973   9.993   7.251
  131POPC   D2A 1879   5.232   9.879   6.880
  131POPC   C3A 1880   5.104  10.058   6.490
  131POPC   C4A 1881   4.649  10.090   6.367
  131POPC   C1B 1882   5.256  10.397   7.183
  131POPC   C2B 1883   4.962  10.450   6.851
  131POPC   C3B 1884   4.723   0.072   6.483
  131POPC   C4B 1885   4.972  10.388   6.116
  132POPC   NC3 1886   6.480   7.654   8.027
  132POPC   PO4 1887   6.763   8.137   8.285
  132POPC   GL1 1888   6.631   8.073   7.759
  132POPC   GL2 1889   6.636   7.746   7.572
  132POPC   C1A 1890   6.685   8.066   7.212
  132POPC   D2A 1891   6.743   7.721   6.875
  132POPC   C3A 1892   6.719   7.975   6.535
  132POPC   C4A 1893   6.519   8.033   6.150
  132POPC   C1B 1894   6.262   7.800   7.343
  132POPC   C2B 1895   6.263   7.903   6.921
  132POPC   C3B 1896   6.305   7.696   6.529
  132POPC   C4B 1897   6.053   7.865   6.230
  133POPC   NC3 1898   5.443   1.060   8.244
  133POPC   PO4 1899   5.918   1.461   8.040
  133POPC   GL1 1900   5.853   1.418   7.628
  133POPC   GL2 1901   5.586   1.186   7.668
  133POPC   C1A 1902   5.661   1.478   7.228
  133POPC   D2A 1903   5.883   1.601   6.920
  133POPC   C3A 1904   5.704   1.539   6.574
  133POPC   C4A 1905   5.881   1.377   6.208
  133POPC   C1B 1906   5.801   0.997   7.298
  133POPC   C2B 1907   5.710   1.101   6.884
  133POPC   C3B 1908   5.606   1.038   6.458
  133POPC   C4B 1909   5.308   1.306   6.302
  134POPC   NC3 1910   4.782   7.697   7.899
  134POPC   PO4 1911   5.423   7.833   7.900
  134POPC   GL1 1912   5.182   7.993   7.597
  134POPC   GL2 1913   4.828   8.116   7.606
  134POPC   C1A 1914   5.177   7.736   7.231
  134POPC   D2A 1915   4.942   7.615   6.895
  134POPC   C3A 1916   5.152   7.628   6.517
  134POPC   C4A 1917   5.241   7.670   6.084
  134POPC   C1B 1918   4.801   8.082   7.169
  134POPC   C2B 1919   4.636   7.998   6.783
  134POPC   C3B 1920   4.803   7.965   6.390
  134POPC   C4B 1921   4.633   8.006   6.022
  135POPC   NC3 1922   1.067   8.229   8.100
  135POPC   PO4 1923   0.517   8.239   7.871
  135POPC   GL1 1924   0.879   8.162   7.629
  135POPC   GL2 1925   1.215   8.004   7.682
  135POPC   C1A 1926   0.820   8.002   7.253
  135POPC   D2A 1927   0.932   8.220   6.914
  135POPC   C3A 1928   0.806   8.098   6.478
  135POPC   C4A 1929   0.878   8.175   6.054
  135POPC   C1B 1930   1.287   7.836   7.288
  135POPC   C2B 1931   1.348   7.550   6.960
  135POPC   C3B 1932   1.191   7.830   6.680
  135POPC   C4B 1933   1.252   7.888   6.237
  136POPC   NC3 1934   8.643   6.564   8.213
  136POPC   PO4 1935   8.129   6.087   8.201
  136POPC   GL1 1936   8.486   6.147   7.864
  136POPC   GL2 1937   8.493   6.455   7.700
  136POPC   C1A 1938   8.559   6.094   7.375
  136POPC   D2A 1939   8.450   5.941   6.972
  136POPC   C3A 1940   8.416   6.171   6.594
  136POPC   C4A 1941   8.266   6.143   6.194
  136POPC   C1B 1942   8.695   6.606   7.269
  136POPC   C2B 1943   8.493   6.703   6.870
  136POPC   C3B 1944   8.691   6.582   6.498
  136POPC   C4B 1945   8.762   6.276   6.176
  137POPC   NC3 1946   5.710   7.519   8.026
  137POPC   PO4 1947   6.163   7.996   8.008
  137POPC   GL1 1948   5.870   7.946   7.629
  137POPC   GL2 1949   5.731   8.247   7.437
  137POPC   C1A 1950   5.724   7.791   7.203
  137POPC   D2A 1951   5.870   7.573   6.806
  137POPC   C3A 1952   5.650   7.588   6.400
  137POPC   C4A 1953   5.675   7.454   5.944
  137POPC   C1B 1954   5.335   8.215   7.177
  137POPC   C2B 1955   5.153   8.104   6.779
  137POPC   C3B 1956   5.328   8.093   6.365
  137POPC   C4B 1957   5.628   7.986   6.021
  138POPC   NC3 1958   8.396   5.671   8.080
  138POPC   PO4 1959   9.063   5.851   8.090
  138POPC   GL1 1960   8.884   5.840   7.685
  138POPC   GL2 1961   8.614   5.644   7.629
  138POPC   C1A 1962   8.925   5.708   7.241
  138POPC   D2A 1963   9.124   5.858   6.879
  138POPC   C3A 1964   8.837   5.891   6.519
  138POPC   C4A 1965   8.969   5.804   6.110
  138POPC   C1B 1966   8.463   5.495   7.246
  138POPC   C2B 1967   8.684   5.514   6.825
  138POPC   C3B 1968   8.693   5.391   6.394
  138POPC   C4B 1969   8.500   5.668   6.166
  139POPC   NC3 1970   3.862   8.089   7.881
  139POPC   PO4 1971   4.530   8.077   8.015
  139POPC   GL1 1972   4.303   7.924   7.624
  139POPC   GL2 1973   3.955   7.727   7.538
  139POPC   C1A 1974   4.325   7.845   7.172
  139POPC   D2A 1975   4.060   7.696   6.827
  139POPC   C3A 1976   4.321   7.743   6.465
  139POPC   C4A 1977   4.333   7.587   6.072
  139POPC   C1B 1978   3.831   8.017   7.197
  139POPC   C2B 1979   3.662   7.998   6.777
  139POPC   C3B 1980   3.843   8.108   6.393
  139POPC   C4B 1981   3.875   7.736   6.220
  140POPC   NC3 1982   3.382   8.066   8.202
  140POPC   PO4 1983   3.612   8.436   7.724
  140POPC   GL1 1984   3.422   8.184   7.498
  140POPC   GL2 1985   3.423   7.907   7.683
  140POPC   C1A 1986   3.310   8.181   7.089
  140POPC   D2A 1987   3.004   8.254   6.798
  140POPC   C3A 1988   3.081   8.043   6.475
  140POPC   C4A 1989   3.367   8.078   6.169
  140POPC   C1B 1990   3.453   7.710   7.264
  140POPC   C2B 1991   3.437   7.543   6.852
  140POPC   C3B 1992   3.426   7.646   6.417
  140POPC   C4B 1993   3.453   7.593   5.942
  141POPC   NC3 1994   3.508   9.723   8.056
  141POPC   PO4 1995   3.204   9.139   8.092
  141POPC   GL1 1996   3.212   9.422   7.732
  141POPC   GL2 1997   3.523   9.548   7.602
  141POPC   C1A 1998   3.185   9.386   7.272
  141POPC   D2A 1999   3.129   9.165   6.879
  141POPC   C3A 2000   3.259   9.375   6.525
  141POPC   C4A 2001   3.321   9.618   6.163
  141POPC   C1B 2002   3.705   9.358   7.267
  141POPC   C2B 2003   3.629   9.192   6.902
  141POPC   C3B 2004   3.574   8.942   6.587
  141POPC   C4B 2005   3.607   9.148   6.219
  142POPC   NC3 2006   3.434   6.094   7.983
  142POPC   PO4 2007   3.332   6.791   8.046
  142POPC   GL1 2008   3.119   6.681   7.654
  142POPC   GL2 2009   3.279   6.367   7.547
  142POPC   C1A 2010   3.267   6.753   7.208
  142POPC   D2A 2011   3.209   6.750   6.766
  142POPC   C3A 2012   3.481   6.684   6.401
  142POPC   C4A 2013   3.411   6.455   6.002
  142POPC   C1B 2014   3.565   6.344   7.150
  142POPC   C2B 2015   3.689   6.309   6.688
  142POPC   C3B 2016   3.847   6.332   6.242
  142POPC   C4B 2017   3.671   6.000   5.945
  143POPC   NC3 2018   1.927   2.536   8.129
  143POPC   PO4 2019   1.668   3.191   7.956
  143POPC   GL1 2020   1.788   2.809   7.723
  143POPC   GL2 2021   2.141   2.707   7.700
  143POPC   C1A 2022   1.808   2.695   7.293
  143POPC   D2A 2023   1.540   2.792   6.941
  143POPC   C3A 2024   1.762   2.823   6.558
  143POPC   C4A 2025   1.628   2.602   6.186
  143POPC   C1B 2026   2.314   2.566   7.311
  143POPC   C2B 2027   2.209   2.620   6.865
  143POPC   C3B 2028   2.286   2.686   6.418
  143POPC   C4B 2029   2.124   2.994   6.130
  144POPC   NC3 2030   2.500   3.001   8.042
  144POPC   PO4 2031   2.445   3.601   8.306
  144POPC   GL1 2032   2.516   3.539   7.853
  144POPC   GL2 2033   2.817   3.333   7.761
  144POPC   C1A 2034   2.403   3.579   7.421
  144POPC   D2A 2035   2.420   3.398   7.012
  144POPC   C3A 2036   2.568   3.592   6.644
  144POPC   C4A 2037   2.499   3.791   6.254
  144POPC   C1B 2038   2.869   3.382   7.300
  144POPC   C2B 2039   2.927   3.273   6.846
  144POPC   C3B 2040   2.978   3.389   6.385
  144POPC   C4B 2041   2.912   3.205   5.926
  145POPC   NC3 2042   0.819   2.653   8.178
  145POPC   PO4 2043   0.154   2.463   8.134
  145POPC   GL1 2044   0.379   2.816   7.875
  145POPC   GL2 2045   0.485   2.534   7.729
  145POPC   C1A 2046   0.466   3.107   7.471
  145POPC   D2A 2047   0.676   3.022   7.047
  145POPC   C3A 2048   0.560   3.054   6.602
  145POPC   C4A 2049   0.360   2.974   6.179
  145POPC   C1B 2050   0.563   2.615   7.310
  145POPC   C2B 2051   0.658   2.527   6.877
  145POPC   C3B 2052   0.486   2.559   6.473
  145POPC   C4B 2053   0.639   2.403   6.114
  146POPC   NC3 2054   7.930   8.688   8.169
  146POPC   PO4 2055   8.508   8.729   7.949
  146POPC   GL1 2056   8.244   8.502   7.742
  146POPC   GL2 2057   7.926   8.653   7.680
  146POPC   C1A 2058   8.175   8.394   7.331
  146POPC   D2A 2059   8.111   8.629   6.955
  146POPC   C3A 2060   8.159   8.519   6.549
  146POPC   C4A 2061   8.166   8.792   6.202
  146POPC   C1B 2062   8.098   8.929   7.367
  146POPC   C2B 2063   7.866   9.066   6.983
  146POPC   C3B 2064   7.790   8.907   6.550
  146POPC   C4B 2065   7.713   8.600   6.190
  147POPC   NC3 2066   1.242   9.788   8.313
  147POPC   PO4 2067   0.895   9.335   8.073
  147POPC   GL1 2068   1.268   9.498   7.841
  147POPC   GL2 2069   1.236   9.205   7.694
  147POPC   C1A 2070   1.465   9.515   7.384
  147POPC   D2A 2071   1.292   9.242   7.027
  147POPC   C3A 2072   1.396   9.347   6.578
  147POPC   C4A 2073   1.421   9.106   6.201
  147POPC   C1B 2074   0.973   9.457   7.382
  147POPC   C2B 2075   0.836   9.552   6.966
  147POPC   C3B 2076   0.852   9.426   6.542
  147POPC   C4B 2077   0.851   9.419   6.116
  148POPC   NC3 2078   9.657   4.368   7.923
  148POPC   PO4 2079   9.497   4.938   8.242
  148POPC   GL1 2080   9.431   4.772   7.769
  148POPC   GL2 2081   9.146   4.677   7.676
  148POPC   C1A 2082   9.745   4.743   7.371
  148POPC   D2A 2083   9.662   4.630   6.957
  148POPC   C3A 2084   9.721   4.946   6.647
  148POPC   C4A 2085   9.786   4.859   6.240
  148POPC   C1B 2086   9.256   4.831   7.277
  148POPC   C2B 2087   9.173   4.826   6.863
  148POPC   C3B 2088   9.243   4.988   6.488
  148POPC   C4B 2089   9.300   4.787   6.113
  149POPC   NC3 2090   0.839   1.362   7.834
  149POPC   PO4 2091   1.473   1.414   8.032
  149POPC   GL1 2092   1.265   1.127   7.624
  149POPC   GL2 2093   0.878   0.984   7.509
  149POPC   C1A 2094   1.268   0.922   7.199
  149POPC   D2A 2095   1.086   1.035   6.777
  149POPC   C3A 2096   1.387   0.934   6.422
  149POPC   C4A 2097   1.471   1.243   6.082
  149POPC   C1B 2098   0.783   1.309   7.191
  149POPC   C2B 2099   0.645   1.462   6.797
  149POPC   C3B 2100   0.873   1.404   6.441
  149POPC   C4B 2101   0.913   1.024   6.251
  150POPC   NC3 2102   7.829   7.127   8.308
  150POPC   PO4 2103   8.171   7.548   7.934
  150POPC   GL1 2104   7.948   7.415   7.604
  150POPC   GL2 2105   7.768   7.163   7.779
  150POPC   C1A 2106   7.941   7.407   7.159
  150POPC   D2A 2107   7.973   7.636   6.814
  150POPC   C3A 2108   8.019   7.516   6.390
  150POPC   C4A 2109   7.817   7.683   6.007
  150POPC   C1B 2110   7.842   6.955   7.371
  150POPC   C2B 2111   7.982   6.871   6.940
  150POPC   C3B 2112   7.986   7.018   6.517
  150POPC   C4B 2113   7.680   6.874   6.240
  151POPC   NC3 2114   5.874   9.993   8.109
  151POPC   PO4 2115   5.522   0.004   7.972
  151POPC   GL1 2116   5.711  10.306   7.636
  151POPC   GL2 2117   5.679   9.933   7.659
  151POPC   C1A 2118   5.756  10.499   7.225
  151POPC   D2A 2119   5.517   0.154   6.842
  151POPC   C3A 2120   5.418   0.055   6.418
  151POPC   C4A 2121   5.798   0.062   6.172
  151POPC   C1B 2122   5.549   9.984   7.269
  151POPC   C2B 2123   5.676  10.146   6.874
  151POPC   C3B 2124   5.653  10.120   6.456
  151POPC   C4B 2125   5.513   9.813   6.192
  152POPC   NC3 2126   6.307   2.533   8.083
  152POPC   PO4 2127   6.955   2.442   8.239
  152POPC   GL1 2128   6.765   2.589   7.788
  152POPC   GL2 2129   6.388   2.634   7.609
  152POPC   C1A 2130   6.757   2.514   7.322
  152POPC   D2A 2131   6.435   2.629   7.005
  152POPC   C3A 2132   6.621   2.681   6.620
  152POPC   C4A 2133   6.813   2.456   6.284
  152POPC   C1B 2134   6.067   2.793   7.321
  152POPC   C2B 2135   5.984   2.867   6.858
  152POPC   C3B 2136   6.169   2.795   6.444
  152POPC   C4B 2137   6.310   2.356   6.334
  153POPC   NC3 2138  10.157   5.922   8.027
  153POPC   PO4 2139  10.498   6.499   8.172
  153POPC   GL1 2140  10.228   6.419   7.766
  153POPC   GL2 2141   9.868   6.245   7.731
  153POPC   C1A 2142  10.233   6.176   7.367
  153POPC   D2A 2143   0.043   6.120   7.026
  153POPC   C3A 2144  10.372   6.203   6.626
  153POPC   C4A 2145  10.477   6.374   6.235
  153POPC   C1B 2146   9.853   6.512   7.333
  153POPC   C2B 2147  10.122   6.530   6.955
  153POPC   C3B 2148  10.117   6.644   6.508
  153POPC   C4B 2149   9.988   6.619   6.031
  154POPC   NC3 2150   8.232   5.011   8.007
  154POPC   PO4 2151   7.762   4.493   7.995
  154POPC   GL1 2152   7.842   4.665   7.597
  154POPC   GL2 2153   8.173   4.673   7.614
  154POPC   C1A 2154   7.764   4.729   7.147
  154POPC   D2A 2155   7.852   4.850   6.737
  154POPC   C3A 2156   7.514   4.874   6.449
  154POPC   C4A 2157   7.470   5.045   6.033
  154POPC   C1B 2158   8.136   5.052   7.322
  154POPC   C2B 2159   8.193   5.237   6.904
  154POPC   C3B 2160   8.275   5.115   6.522
  154POPC   C4B 2161   8.006   4.922   6.261
  155POPC   NC3 2162   6.340   8.395   8.185
  155POPC   PO4 2163   6.791   8.892   8.030
  155POPC   GL1 2164   6.560   8.889   7.644
  155POPC   GL2 2165   6.508   8.557   7.683
  155POPC   C1A 2166   6.523   8.793   7.173
  155POPC   D2A 2167   6.337   8.921   6.759
  155POPC   C3A 2168   6.482   8.872   6.315
  155POPC   C4A 2169   6.411   8.941   5.838
  155POPC   C1B 2170   6.260   8.327   7.386
  155POPC   C2B 2171   6.159   8.436   6.946
  155POPC   C3B 2172   6.382   8.407   6.540
  155POPC   C4B 2173   6.784   8.452   6.319
  156POPC   NC3 2174   9.343   0.874   8.360
  156POPC   PO4 2175   9.063   1.418   8.120
  156POPC   GL1 2176   9.251   1.223   7.755
  156POPC   GL2 2177   9.574   1.091   7.769
  156POPC   C1A 2178   9.254   0.968   7.377
  156POPC   D2A 2179   9.155   0.864   6.962
  156POPC   C3A 2180   9.075   1.276   6.716
  156POPC   C4A 2181   9.002   1.325   6.261
  156POPC   C1B 2182   9.723   1.161   7.304
  156POPC   C2B 2183   9.548   1.178   6.873
  156POPC   C3B 2184   9.491   1.155   6.404
  156POPC   C4B 2185   9.679   1.055   5.993
  157POPC   NC3 2186   1.687   4.395   8.096
  157POPC   PO4 2187   2.165   3.997   7.929
  157POPC   GL1 2188   1.824   4.075   7.675
  157POPC   GL2 2189   1.822   4.446   7.623
  157POPC   C1A 2190   1.850   3.890   7.279
  157POPC   D2A 2191   2.133   3.808   6.941
  157POPC   C3A 2192   1.915   3.845   6.568
  157POPC   C4A 2193   2.016   3.929   6.184
  157POPC   C1B 2194   2.035   4.376   7.248
  157POPC   C2B 2195   1.852   4.250   6.870
  157POPC   C3B 2196   1.875   4.369   6.439
  157POPC   C4B 2197   1.971   4.381   5.961
  158POPC   NC3 2198   4.003   1.829   8.063
  158POPC   PO4 2199   4.559   1.693   7.736
  158POPC   GL1 2200   4.421   1.997   7.473
  158POPC   GL2 2201   4.099   2.008   7.592
  158POPC   C1A 2202   4.232   1.981   7.064
  158POPC   D2A 2203   4.144   2.296   6.775
  158POPC   C3A 2204   4.363   2.254   6.425
  158POPC   C4A 2205   4.540   1.851   6.310
  158POPC   C1B 2206   3.976   1.641   7.367
  158POPC   C2B 2207   4.067   1.380   6.998
  158POPC   C3B 2208   4.218   1.587   6.637
  158POPC   C4B 2209   4.008   1.873   6.381
  159POPC   NC3 2210   2.756   2.921   8.535
  159POPC   PO4 2211   2.409   2.549   8.093
  159POPC   GL1 2212   2.643   2.611   7.741
  159POPC   GL2 2213   2.983   2.596   7.756
  159POPC   C1A 2214   2.725   2.906   7.419
  159POPC   D2A 2215   2.554   2.927   7.043
  159POPC   C3A 2216   2.673   2.875   6.670
  159POPC   C4A 2217   2.584   3.099   6.318
  159POPC   C1B 2218   2.868   2.411   7.342
  159POPC   C2B 2219   2.707   2.409   6.959
  159POPC   C3B 2220   2.940   2.434   6.616
  159POPC   C4B 2221   2.787   2.614   6.243
  160POPC   NC3 2222   7.436   3.531   7.997
  160POPC   PO4 2223   6.865   3.434   8.332
  160POPC   GL1 2224   7.006   3.288   7.782
  160POPC   GL2 2225   7.321   3.397   7.549
  160POPC   C1A 2226   6.921   3.503   7.268
  160POPC   D2A 2227   7.051   3.625   6.798
  160POPC   C3A 2228   6.748   3.643   6.420
  160POPC   C4A 2229   6.849   3.728   5.972
  160POPC   C1B 2230   7.177   3.066   7.324
  160POPC   C2B 2231   7.069   3.114   6.910
  160POPC   C3B 2232   7.293   3.179   6.546
  160POPC   C4B 2233   7.169   3.439   6.247
  161POPC   NC3 2234   6.638   3.598   7.980
  161POPC   PO4 2235   6.508   2.955   8.062
  161POPC   GL1 2236   6.555   3.106   7.646
  161POPC   GL2 2237   6.470   3.427   7.518
  161POPC   C1A 2238   6.660   3.044   7.213
  161POPC   D2A 2239   6.614   3.345   6.858
  161POPC   C3A 2240   6.515   3.185   6.440
  161POPC   C4A 2241   6.440   3.410   6.060
  161POPC   C1B 2242   6.196   3.264   7.154
  161POPC   C2B 2243   6.113   3.341   6.698
  161POPC   C3B 2244   6.007   3.569   6.313
  161POPC   C4B 2245   5.868   3.983   6.096
  162POPC   NC3 2246   3.424   2.223   8.193
  162POPC   PO4 2247   2.888   1.942   8.120
  162POPC   GL1 2248   3.223   1.856   7.781
  162POPC   GL2 2249   3.579   2.029   7.711
  162POPC   C1A 2250   3.197   1.983   7.326
  162POPC   D2A 2251   3.214   2.041   6.864
  162POPC   C3A 2252   3.166   1.664   6.655
  162POPC   C4A 2253   3.039   1.644   6.240
  162POPC   C1B 2254   3.731   2.124   7.250
  162POPC   C2B 2255   3.715   2.037   6.790
  162POPC   C3B 2256   3.503   1.959   6.393
  162POPC   C4B 2257   3.681   2.239   6.092
  163POPC   NC3 2258   3.747   7.035   8.112
  163POPC   PO4 2259   3.641   7.690   8.085
  163POPC   GL1 2260   3.561   7.406   7.689
  163POPC   GL2 2261   3.511   7.032   7.612
  163POPC   C1A 2262   3.733   7.305   7.258
  163POPC   D2A 2263   3.604   7.063   6.910
  163POPC   C3A 2264   3.801   7.300   6.577
  163POPC   C4A 2265   3.733   7.254   6.174
  163POPC   C1B 2266   3.221   7.252   7.281
  163POPC   C2B 2267   3.042   7.209   6.878
  163POPC   C3B 2268   3.286   7.167   6.466
  163POPC   C4B 2269   3.325   7.011   6.023
  164POPC   NC3 2270   1.857   5.069   8.167
  164POPC   PO4 2271   1.327   4.645   7.960
  164POPC   GL1 2272   1.604   4.927   7.713
  164POPC   GL2 2273   1.991   4.936   7.700
  164POPC   C1A 2274   1.736   4.809   7.276
  164POPC   D2A 2275   1.983   4.768   6.882
  164POPC   C3A 2276   1.771   4.944   6.533
  164POPC   C4A 2277   1.628   4.731   6.170
  164POPC   C1B 2278   2.226   4.956   7.303
  164POPC   C2B 2279   2.378   5.121   6.896
  164POPC   C3B 2280   2.257   5.128   6.470
  164POPC   C4B 2281   2.151   4.752   6.251
  165POPC   NC3 2282   6.975   8.455   7.984
  165POPC   PO4 2283   7.503   8.896   8.086
  165POPC   GL1 2284   7.234   8.869   7.754
  165POPC   GL2 2285   7.408   8.590   7.621
  165POPC   C1A 2286   7.006   8.827   7.363
  165POPC   D2A 2287   6.944   8.567   6.994
  165POPC   C3A 2288   6.850   8.817   6.671
  165POPC   C4A 2289   6.981   8.944   6.282
  165POPC   C1B 2290   7.679   8.613   7.244
  165POPC   C2B 2291   7.622   8.497   6.814
  165POPC   C3B 2292   7.325   8.648   6.520
  165POPC   C4B 2293   7.228   8.524   6.090
  166POPC   NC3 2294   3.113   0.491   8.193
  166POPC   PO4 2295   3.664   0.844   8.407
  166POPC   GL1 2296   3.532   0.623   7.925
  166POPC   GL2 2297   3.406   0.264   7.823
  166POPC   C1A 2298   3.579   0.540   7.436
  166POPC   D2A 2299   3.339   0.661   7.041
  166POPC   C3A 2300   3.355   0.480   6.612
  166POPC   C4A 2301   3.252   0.646   6.221
  166POPC   C1B 2302   3.143   0.272   7.420
  166POPC   C2B 2303   3.154   0.137   6.959
  166POPC   C3B 2304   3.211  10.471   6.511
  166POPC   C4B 2305   3.445   0.139   6.138
  167POPC   NC3 2306   3.958   8.909   8.183
  167POPC   PO4 2307   4.528   9.042   7.753
  167POPC   GL1 2308   4.307   8.753   7.574
  167POPC   GL2 2309   4.217   8.459   7.757
  167POPC   C1A 2310   4.255   8.803   7.154
  167POPC   D2A 2311   4.060   8.934   6.808
  167POPC   C3A 2312   3.988   8.630   6.495
  167POPC   C4A 2313   4.005   8.870   6.124
  167POPC   C1B 2314   4.221   8.325   7.298
  167POPC   C2B 2315   4.151   8.206   6.833
  167POPC   C3B 2316   4.349   8.249   6.440
  167POPC   C4B 2317   4.387   8.486   6.109
  168POPC   NC3 2318   9.981   2.341   8.133
  168POPC   PO4 2319   9.994   1.715   8.056
  168POPC   GL1 2320  10.332   1.755   7.767
  168POPC   GL2 2321  10.250   2.093   7.673
  168POPC   C1A 2322   0.014   1.791   7.352
  168POPC   D2A 2323  10.399   2.011   6.990
  168POPC   C3A 2324  10.479   1.830   6.628
  168POPC   C4A 2325  10.335   1.713   6.255
  168POPC   C1B 2326  10.017   1.897   7.318
  168POPC   C2B 2327   9.886   2.058   6.887
  168POPC   C3B 2328  10.038   2.082   6.472
  168POPC   C4B 2329  10.200   2.344   6.130
  169POPC   NC3 2330   1.318   7.262   8.122
  169POPC   PO4 2331   0.823   7.729   8.105
  169POPC   GL1 2332   0.959   7.563   7.653
  169POPC   GL2 2333   1.333   7.491   7.663
  169POPC   C1A 2334   0.890   7.499   7.168
  169POPC   D2A 2335   0.864   7.395   6.722
  169POPC   C3A 2336   1.206   7.384   6.459
  169POPC   C4A 2337   1.129   7.412   6.036
  169POPC   C1B 2338   1.214   7.184   7.376
  169POPC   C2B 2339   1.199   7.070   6.949
  169POPC   C3B 2340   1.018   6.898   6.593
  169POPC   C4B 2341   1.186   6.951   6.198
  170POPC   NC3 2342  10.372   2.943   8.041
  170POPC   PO4 2343   9.786   2.675   7.873
  170POPC   GL1 2344  10.137   2.599   7.637
  170POPC   GL2 2345  10.471   2.559   7.677
  170POPC   C1A 2346  10.199   2.431   7.235
  170POPC   D2A 2347   9.912   2.579   6.941
  170POPC   C3A 2348  10.055   2.611   6.546
  170POPC   C4A 2349   9.849   2.733   6.182
  170POPC   C1B 2350   0.051   2.814   7.328
  170POPC   C2B 2351  10.354   2.850   6.926
  170POPC   C3B 2352   0.043   2.824   6.559
  170POPC   C4B 2353  10.354   2.870   6.180
  171POPC   NC3 2354  10.067   9.357   8.023
  171POPC   PO4 2355  10.437   8.877   8.015
  171POPC   GL1 2356  10.325   9.168   7.637
  171POPC   GL2 2357  10.318   9.573   7.654
  171POPC   C1A 2358  10.108   9.264   7.255
  171POPC   D2A 2359  10.337   9.230   6.865
  171POPC   C3A 2360  10.176   9.189   6.434
  171POPC   C4A 2361   0.050   9.048   6.227
  171POPC   C1B 2362  10.462   9.619   7.249
  171POPC   C2B 2363  10.210   9.725   6.917
  171POPC   C3B 2364  10.380   9.639   6.539
  171POPC   C4B 2365  10.341   9.547   6.121
  172POPC   NC3 2366  10.398   6.928   7.996
  172POPC   PO4 2367   9.773   7.360   8.114
  172POPC   GL1 2368  10.022   7.191   7.756
  172POPC   GL2 2369  10.261   7.418   7.647
  172POPC   C1A 2370  10.179   6.960   7.346
  172POPC   D2A 2371  10.017   7.041   6.909
  172POPC   C3A 2372  10.307   7.131   6.575
  172POPC   C4A 2373  10.348   6.969   6.193
  172POPC   C1B 2374  10.000   7.440   7.306
  172POPC   C2B 2375   9.834   7.528   6.925
  172POPC   C3B 2376   9.925   7.455   6.522
  172POPC   C4B 2377  10.087   7.399   6.132
  173POPC   NC3 2378   8.630   2.526   8.140
  173POPC   PO4 2379   8.183   3.028   8.049
  173POPC   GL1 2380   8.520   2.873   7.740
  173POPC   GL2 2381   8.411   2.593   7.543
  173POPC   C1A 2382   8.715   2.936   7.304
  173POPC   D2A 2383   8.478   2.746   6.949
  173POPC   C3A 2384   8.444   2.924   6.525
  173POPC   C4A 2385   8.787   2.910   6.197
  173POPC   C1B 2386   8.757   2.409   7.256
  173POPC   C2B 2387   8.958   2.529   6.863
  173POPC   C3B 2388   8.728   2.489   6.490
  173POPC   C4B 2389   8.343   2.449   6.261
  174POPC   NC3 2390   6.379   0.660   4.046
  174POPC   PO4 2391   6.787   0.159   3.889
  174POPC   GL1 2392   6.736   0.352   4.241
  174POPC   GL2 2393   6.397   0.232   4.329
  174POPC   C1A 2394   6.741   0.553   4.623
  174POPC   D2A 2395   6.646   0.311   4.980
  174POPC   C3A 2396   6.593   0.467   5.378
  174POPC   C4A 2397   6.608   0.205   5.746
  174POPC   C1B 2398   6.229   0.453   4.687
  174POPC   C2B 2399   6.050   0.359   5.097
  174POPC   C3B 2400   6.136   0.323   5.514
  174POPC   C4B 2401   6.330   0.646   5.833
  175POPC   NC3 2402   5.607   2.161   3.924
  175POPC   PO4 2403   6.076   1.551   3.906
  175POPC   GL1 2404   6.077   1.709   4.335
  175POPC   GL2 2405   5.729   1.838   4.323
  175POPC   C1A 2406   5.939   1.747   4.790
  175POPC   D2A 2407   5.635   1.835   5.111
  175POPC   C3A 2408   5.823   1.977   5.484
  175POPC   C4A 2409   5.874   1.698   5.809
  175POPC   C1B 2410   5.608   2.116   4.670
  175POPC   C2B 2411   5.280   2.179   4.987
  175POPC   C3B 2412   5.341   2.261   5.390
  175POPC   C4B 2413   5.292   2.348   5.801
  176POPC   NC3 2414   0.011   9.512   4.017
  176POPC   PO4 2415   0.583   9.849   3.769
  176POPC   GL1 2416   0.609   9.603   4.153
  176POPC   GL2 2417   0.460   9.272   4.100
  176POPC   C1A 2418   0.775   9.605   4.565
  176POPC   D2A 2419   0.909   9.606   4.991
  176POPC   C3A 2420   0.652   9.389   5.234
  176POPC   C4A 2421   0.638   9.389   5.654
  176POPC   C1B 2422   0.356   9.225   4.555
  176POPC   C2B 2423   0.188   9.362   4.957
  176POPC   C3B 2424   0.194   9.228   5.376
  176POPC   C4B 2425   0.146   9.347   5.787
  177POPC   NC3 2426   3.529   0.929   3.802
  177POPC   PO4 2427   3.229   0.299   3.900
  177POPC   GL1 2428   3.415   0.455   4.227
  177POPC   GL2 2429   3.620   0.172   4.282
  177POPC   C1A 2430   3.529   0.533   4.657
  177POPC   D2A 2431   3.668   0.507   5.068
  177POPC   C3A 2432   3.635   0.782   5.426
  177POPC   C4A 2433   3.567   0.543   5.827
  177POPC   C1B 2434   3.289   0.089   4.582
  177POPC   C2B 2435   3.219   0.248   4.988
  177POPC   C3B 2436   3.266   0.417   5.398
  177POPC   C4B 2437   3.104   0.366   5.804
  178POPC   NC3 2438   2.956   4.346   3.995
  178POPC   PO4 2439   2.372   4.477   3.761
  178POPC   GL1 2440   2.438   4.375   4.196
  178POPC   GL2 2441   2.579   4.054   4.207
  178POPC   C1A 2442   2.594   4.351   4.627
  178POPC   D2A 2443   2.483   4.187   5.037
  178POPC   C3A 2444   2.600   4.392   5.442
  178POPC   C4A 2445   2.960   4.506   5.715
  178POPC   C1B 2446   2.943   3.994   4.554
  178POPC   C2B 2447   2.946   3.940   4.990
  178POPC   C3B 2448   3.203   4.017   5.356
  178POPC   C4B 2449   3.208   4.033   5.803
  179POPC   NC3 2450   9.515   8.024   3.575
  179POPC   PO4 2451   8.926   7.994   3.839
  179POPC   GL1 2452   9.117   8.079   4.266
  179POPC   GL2 2453   9.439   7.986   4.361
  179POPC   C1A 2454   9.128   7.962   4.729
  179POPC   D2A 2455   9.441   7.985   5.056
  179POPC   C3A 2456   9.223   7.872   5.405
  179POPC   C4A 2457   9.427   7.942   5.745
  179POPC   C1B 2458   9.614   7.678   4.647
  179POPC   C2B 2459   9.850   7.630   5.016
  179POPC   C3B 2460   9.790   7.739   5.426
  179POPC   C4B 2461   9.820   7.490   5.723
  180POPC   NC3 2462   9.405   6.481   3.868
  180POPC   PO4 2463   9.919   6.914   3.958
  180POPC   GL1 2464   9.776   6.692   4.333
  180POPC   GL2 2465   9.409   6.603   4.374
  180POPC   C1A 2466   9.702   6.627   4.772
  180POPC   D2A 2467   9.672   6.358   5.154
  180POPC   C3A 2468   9.688   6.580   5.572
  180POPC   C4A 2469   9.471   6.609   6.002
  180POPC   C1B 2470   9.334   6.291   4.768
  180POPC   C2B 2471   9.166   6.238   5.163
  180POPC   C3B 2472   9.208   6.393   5.536
  180POPC   C4B 2473   9.198   6.193   5.911
  181POPC   NC3 2474   3.210   7.224   4.066
  181POPC   PO4 2475   3.814   7.486   3.964
  181POPC   GL1 2476   3.626   7.387   4.417
  181POPC   GL2 2477   3.244   7.430   4.526
  181POPC   C1A 2478   3.613   7.416   4.902
  181POPC   D2A 2479   3.421   7.272   5.305
  181POPC   C3A 2480   3.665   7.135   5.661
  181POPC   C4A 2481   3.773   6.784   5.944
  181POPC   C1B 2482   3.102   7.016   4.735
  181POPC   C2B 2483   3.141   6.827   5.163
  181POPC   C3B 2484   3.044   7.010   5.571
  181POPC   C4B 2485   3.065   7.447   5.669
  182POPC   NC3 2486   9.690   9.927   4.013
  182POPC   PO4 2487   9.105   9.916   4.278
  182POPC   GL1 2488   9.252  10.144   4.568
  182POPC   GL2 2489   9.471  10.291   4.282
  182POPC   C1A 2490   9.182   9.943   4.981
  182POPC   D2A 2491   9.457   9.855   5.302
  182POPC   C3A 2492   9.446   9.984   5.718
  182POPC   C4A 2493   9.276  10.124   6.123
  182POPC   C1B 2494   9.689  10.428   4.626
  182POPC   C2B 2495   9.526  10.346   4.999
  182POPC   C3B 2496   9.625  10.362   5.397
  182POPC   C4B 2497   9.427  10.472   5.789
  183POPC   NC3 2498   9.633   2.727   3.860
  183POPC   PO4 2499   9.706   2.281   4.303
  183POPC   GL1 2500   9.398   2.595   4.305
  183POPC   GL2 2501   9.207   2.876   4.124
  183POPC   C1A 2502   9.516   2.811   4.670
  183POPC   D2A 2503   9.547   2.558   5.023
  183POPC   C3A 2504   9.410   2.730   5.381
  183POPC   C4A 2505   9.572   2.599   5.771
  183POPC   C1B 2506   9.030   2.880   4.524
  183POPC   C2B 2507   9.099   2.962   4.953
  183POPC   C3B 2508   9.001   3.051   5.363
  183POPC   C4B 2509   9.113   2.866   5.772
  184POPC   NC3 2510   8.827   7.613   4.076
  184POPC   PO4 2511   8.354   8.115   4.200
  184POPC   GL1 2512   8.658   8.217   4.452
  184POPC   GL2 2513   8.698   7.855   4.488
  184POPC   C1A 2514   8.685   8.157   4.881
  184POPC   D2A 2515   8.475   7.936   5.200
  184POPC   C3A 2516   8.529   8.113   5.594
  184POPC   C4A 2517   8.923   8.205   5.746
  184POPC   C1B 2518   8.733   7.622   4.842
  184POPC   C2B 2519   8.510   7.426   5.134
  184POPC   C3B 2520   8.480   7.452   5.578
  184POPC   C4B 2521   8.824   7.704   5.729
  185POPC   NC3 2522   4.704   0.560   3.829
  185POPC   PO4 2523   5.302   0.164   3.923
  185POPC   GL1 2524   5.126   0.341   4.298
  185POPC   GL2 2525   4.815   0.315   4.243
  185POPC   C1A 2526   5.232   0.609   4.688
  185POPC   D2A 2527   5.088   0.766   5.086
  185POPC   C3A 2528   5.076   0.450   5.359
  185POPC   C4A 2529   4.975   0.508   5.757
  185POPC   C1B 2530   4.750   0.455   4.647
  185POPC   C2B 2531   4.647   0.375   5.069
  185POPC   C3B 2532   4.675   0.139   5.482
  185POPC   C4B 2533   4.619   0.174   5.937
  186POPC   NC3 2534   5.707  10.442   3.860
  186POPC   PO4 2535   5.333  10.037   3.598
  186POPC   GL1 2536   5.421  10.227   4.190
  186POPC   GL2 2537   5.754  10.181   4.342
  186POPC   C1A 2538   5.353  10.107   4.679
  186POPC   D2A 2539   5.407  10.154   5.143
  186POPC   C3A 2540   5.271  10.351   5.541
  186POPC   C4A 2541   5.419  10.249   5.982
  186POPC   C1B 2542   5.807  10.316   4.796
  186POPC   C2B 2543   5.842  10.413   5.239
  186POPC   C3B 2544   5.772  10.369   5.651
  186POPC   C4B 2545   5.898  10.107   6.011
  187POPC   NC3 2546  10.408   7.936   4.008
  187POPC   PO4 2547   9.911   8.232   3.754
  187POPC   GL1 2548   9.930   8.112   4.188
  187POPC   GL2 2549   9.988   7.752   4.282
  187POPC   C1A 2550   9.842   8.138   4.619
  187POPC   D2A 2551  10.053   8.100   4.966
  187POPC   C3A 2552   9.858   8.206   5.275
  187POPC   C4A 2553   9.871   8.211   5.708
  187POPC   C1B 2554  10.294   7.768   4.632
  187POPC   C2B 2555  10.488   7.835   5.034
  187POPC   C3B 2556  10.287   7.926   5.410
  187POPC   C4B 2557  10.211   7.805   5.814
  188POPC   NC3 2558   2.848   1.583   3.959
  188POPC   PO4 2559   2.659   0.971   3.812
  188POPC   GL1 2560   2.626   1.182   4.164
  188POPC   GL2 2561   2.973   1.048   4.264
  188POPC   C1A 2562   2.511   1.186   4.561
  188POPC   D2A 2563   2.708   0.969   4.872
  188POPC   C3A 2564   2.417   0.828   5.174
  188POPC   C4A 2565   2.371   0.986   5.586
  188POPC   C1B 2566   2.998   1.387   4.582
  188POPC   C2B 2567   2.951   1.419   5.026
  188POPC   C3B 2568   2.762   1.189   5.339
  188POPC   C4B 2569   2.796   1.242   5.783
  189POPC   NC3 2570   5.623   8.839   3.872
  189POPC   PO4 2571   6.147   8.325   3.867
  189POPC   GL1 2572   5.853   8.387   4.224
  189POPC   GL2 2573   5.807   8.720   4.320
  189POPC   C1A 2574   5.870   8.391   4.690
  189POPC   D2A 2575   6.036   8.521   5.085
  189POPC   C3A 2576   5.875   8.225   5.344
  189POPC   C4A 2577   5.565   8.286   5.626
  189POPC   C1B 2578   5.663   8.977   4.658
  189POPC   C2B 2579   5.762   9.003   5.074
  189POPC   C3B 2580   5.595   8.854   5.451
  189POPC   C4B 2581   5.607   8.994   5.864
  190POPC   NC3 2582   7.347   1.252   3.891
  190POPC   PO4 2583   6.781   0.842   3.924
  190POPC   GL1 2584   7.044   0.913   4.274
  190POPC   GL2 2585   7.064   1.270   4.305
  190POPC   C1A 2586   6.922   1.013   4.717
  190POPC   D2A 2587   7.034   1.127   5.123
  190POPC   C3A 2588   6.883   0.867   5.462
  190POPC   C4A 2589   7.103   0.843   5.901
  190POPC   C1B 2590   7.231   1.422   4.705
  190POPC   C2B 2591   7.059   1.640   4.984
  190POPC   C3B 2592   7.070   1.640   5.377
  190POPC   C4B 2593   7.111   1.277   5.620
  191POPC   NC3 2594   5.864   7.947   3.940
  191POPC   PO4 2595   5.225   8.094   3.941
  191POPC   GL1 2596   5.457   8.082   4.328
  191POPC   GL2 2597   5.789   7.909   4.435
  191POPC   C1A 2598   5.388   8.056   4.754
  191POPC   D2A 2599   5.113   8.227   5.023
  191POPC   C3A 2600   5.141   8.015   5.380
  191POPC   C4A 2601   5.402   7.749   5.611
  191POPC   C1B 2602   5.856   7.915   4.881
  191POPC   C2B 2603   5.756   7.693   5.241
  191POPC   C3B 2604   5.919   7.768   5.627
  191POPC   C4B 2605   6.123   8.118   5.783
  192POPC   NC3 2606   8.035   4.104   3.623
  192POPC   PO4 2607   7.887   4.759   4.028
  192POPC   GL1 2608   7.899   4.497   4.498
  192POPC   GL2 2609   8.069   4.084   4.507
  192POPC   C1A 2610   7.949   4.357   4.913
  192POPC   D2A 2611   8.173   4.033   5.072
  192POPC   C3A 2612   8.074   4.102   5.481
  192POPC   C4A 2613   7.938   4.312   5.847
  192POPC   C1B 2614   7.760   3.886   4.815
  192POPC   C2B 2615   7.670   3.908   5.246
  192POPC   C3B 2616   7.537   4.064   5.664
  192POPC   C4B 2617   7.689   3.934   6.101
  193POPC   NC3 2618   0.329   0.492   3.682
  193POPC   PO4 2619  10.094   0.411   3.826
  193POPC   GL1 2620   9.972   0.233   4.235
  193POPC   GL2 2621  10.146   0.508   4.354
  193POPC   C1A 2622  10.211   0.031   4.595
  193POPC   D2A 2623  10.147  10.464   5.018
  193POPC   C3A 2624  10.215   0.281   5.316
  193POPC   C4A 2625  10.213   0.248   5.737
  193POPC   C1B 2626   9.888   0.387   4.708
  193POPC   C2B 2627   9.740   0.296   5.113
  193POPC   C3B 2628   9.742   0.325   5.573
  193POPC   C4B 2629   9.868   0.609   5.882
  194POPC   NC3 2630   7.199   8.534   3.993
  194POPC   PO4 2631   6.815   9.006   3.680
  194POPC   GL1 2632   6.813   8.876   4.269
  194POPC   GL2 2633   7.084   8.638   4.456
  194POPC   C1A 2634   6.856   8.904   4.776
  194POPC   D2A 2635   7.200   8.768   5.063
  194POPC   C3A 2636   7.080   8.562   5.474
  194POPC   C4A 2637   6.835   8.695   5.836
  194POPC   C1B 2638   7.468   8.547   4.657
  194POPC   C2B 2639   7.732   8.538   5.028
  194POPC   C3B 2640   7.595   8.478   5.438
  194POPC   C4B 2641   7.465   8.798   5.725
  195POPC   NC3 2642   3.805   9.571   3.901
  195POPC   PO4 2643   4.439   9.697   3.886
  195POPC   GL1 2644   4.404   9.354   4.229
  195POPC   GL2 2645   4.143   9.156   4.226
  195POPC   C1A 2646   4.439   9.103   4.643
  195POPC   D2A 2647   4.234   9.210   5.054
  195POPC   C3A 2648   4.474   9.181   5.452
  195POPC   C4A 2649   4.395   9.269   5.909
  195POPC   C1B 2650   4.043   9.440   4.614
  195POPC   C2B 2651   4.049   9.677   5.062
  195POPC   C3B 2652   4.126   9.560   5.501
  195POPC   C4B 2653   3.965   9.158   5.649
  196POPC   NC3 2654   8.748   0.378   3.863
  196POPC   PO4 2655   9.172   0.935   3.931
  196POPC   GL1 2656   9.079   0.677   4.263
  196POPC   GL2 2657   8.926   0.359   4.327
  196POPC   C1A 2658   9.100   0.783   4.667
  196POPC   D2A 2659   8.881   0.890   5.028
  196POPC   C3A 2660   8.963   0.683   5.397
  196POPC   C4A 2661   8.610   0.605   5.619
  196POPC   C1B 2662   8.676   0.499   4.672
  196POPC   C2B 2663   8.652   0.387   5.093
  196POPC   C3B 2664   8.784   0.153   5.445
  196POPC   C4B 2665   8.616   0.167   5.863
  197POPC   NC3 2666  10.233   2.909   3.938
  197POPC   PO4 2667   9.854   2.350   3.722
  197POPC   GL1 2668  10.128   2.477   4.173
  197POPC   GL2 2669  10.415   2.669   4.339
  197POPC   C1A 2670  10.176   2.439   4.697
  197POPC   D2A 2671  10.015   2.759   4.989
  197POPC   C3A 2672   9.924   2.672   5.404
  197POPC   C4A 2673  10.077   2.843   5.756
  197POPC   C1B 2674  10.283   2.992   4.603
  197POPC   C2B 2675  10.440   3.064   5.004
  197POPC   C3B 2676  10.443   2.802   5.349
  197POPC   C4B 2677   0.083   2.927   5.730
  198POPC   NC3 2678   8.291   3.548   3.800
  198POPC   PO4 2679   8.921   3.293   3.808
  198POPC   GL1 2680   8.922   3.321   4.232
  198POPC   GL2 2681   8.679   3.603   4.221
  198POPC   C1A 2682   8.751   3.286   4.669
  198POPC   D2A 2683   8.483   3.186   5.044
  198POPC   C3A 2684   8.550   3.329   5.435
  198POPC   C4A 2685   8.814   3.274   5.786
  198POPC   C1B 2686   8.504   3.753   4.627
  198POPC   C2B 2687   8.577   3.704   5.046
  198POPC   C3B 2688   8.524   3.865   5.426
  198POPC   C4B 2689   8.484   3.671   5.808
  199POPC   NC3 2690   7.986   7.139   3.817
  199POPC   PO4 2691   8.626   7.209   3.953
  199POPC   GL1 2692   8.260   7.320   4.272
  199POPC   GL2 2693   7.909   7.223   4.321
  199POPC   C1A 2694   8.226   7.237   4.745
  199POPC   D2A 2695   7.979   7.062   5.117
  199POPC   C3A 2696   7.990   7.261   5.527
  199POPC   C4A 2697   8.101   7.250   5.979
  199POPC   C1B 2698   7.687   7.235   4.723
  199POPC   C2B 2699   7.564   7.402   5.143
  199POPC   C3B 2700   7.343   7.402   5.535
  199POPC   C4B 2701   7.601   7.250   5.876
  200POPC   NC3 2702   0.432   7.800   3.806
  200POPC   PO4 2703   0.084   8.366   3.961
  200POPC   GL1 2704   0.347   8.074   4.231
  200POPC   GL2 2705   0.268   7.721   4.281
  200POPC   C1A 2706   0.345   8.096   4.689
  200POPC   D2A 2707   0.490   8.004   5.114
  200POPC   C3A 2708   0.242   8.190   5.392
  200POPC   C4A 2709   0.052   8.180   5.782
  200POPC   C1B 2710   0.305   7.596   4.667
  200POPC   C2B 2711   0.364   7.495   5.079
  200POPC   C3B 2712   0.267   7.682   5.487
  200POPC   C4B 2713   0.560   7.976   5.710
  201POPC   NC3 2714   7.311   7.166   3.817
  201POPC   PO4 2715   7.740   6.745   3.964
  201POPC   GL1 2716   7.467   6.979   4.276
  201POPC   GL2 2717   7.393   7.343   4.284
  201POPC   C1A 2718   7.274   6.881   4.668
  201POPC   D2A 2719   7.519   6.844   5.043
  201POPC   C3A 2720   7.539   6.936   5.476
  201POPC   C4A 2721   7.298   6.847   5.879
  201POPC   C1B 2722   7.192   7.370   4.666
  201POPC   C2B 2723   7.118   7.181   5.073
  201POPC   C3B 2724   7.005   7.022   5.483
  201POPC   C4B 2725   6.979   7.245   5.867
  202POPC   NC3 2726   8.853  10.254   4.071
  202POPC   PO4 2727   8.429   9.746   3.903
  202POPC   GL1 2728   8.526   9.977   4.343
  202POPC   GL2 2729   8.527  10.362   4.432
  202POPC   C1A 2730   8.686  10.045   4.790
  202POPC   D2A 2731   8.506  10.392   5.066
  202POPC   C3A 2732   8.466  10.247   5.502
  202POPC   C4A 2733   8.521   9.845   5.751
  202POPC   C1B 2734   8.864   0.022   4.689
  202POPC   C2B 2735   9.026  10.421   5.049
  202POPC   C3B 2736   9.126  10.271   5.421
  202POPC   C4B 2737   8.898  10.232   5.798
  203POPC   NC3 2738   9.556   5.663   3.689
  203POPC   PO4 2739   9.640   6.203   4.175
  203POPC   GL1 2740   9.687   5.904   4.437
  203POPC   GL2 2741   9.571   5.630   4.283
  203POPC   C1A 2742   9.719   5.910   4.831
  203POPC   D2A 2743   9.520   5.839   5.169
  203POPC   C3A 2744   9.571   6.036   5.523
  203POPC   C4A 2745   9.709   6.166   5.896
  203POPC   C1B 2746   9.294   5.555   4.674
  203POPC   C2B 2747   9.426   5.355   5.061
  203POPC   C3B 2748   9.320   5.466   5.468
  203POPC   C4B 2749   9.386   5.689   5.833
  204POPC   NC3 2750   6.429   1.918   3.928
  204POPC   PO4 2751   6.050   2.432   3.851
  204POPC   GL1 2752   6.104   2.213   4.257
  204POPC   GL2 2753   6.441   2.094   4.385
  204POPC   C1A 2754   6.122   2.258   4.727
  204POPC   D2A 2755   6.167   2.062   5.117
  204POPC   C3A 2756   6.239   2.267   5.475
  204POPC   C4A 2757   6.170   2.115   5.879
  204POPC   C1B 2758   6.421   1.841   4.738
  204POPC   C2B 2759   6.604   1.809   5.155
  204POPC   C3B 2760   6.473   1.805   5.584
  204POPC   C4B 2761   6.792   1.618   5.831
  205POPC   NC3 2762   1.753   3.420   3.837
  205POPC   PO4 2763   1.581   2.848   3.819
  205POPC   GL1 2764   1.759   3.102   4.237
  205POPC   GL2 2765   1.694   3.514   4.321
  205POPC   C1A 2766   1.693   3.196   4.702
  205POPC   D2A 2767   1.815   3.030   5.091
  205POPC   C3A 2768   1.822   3.271   5.431
  205POPC   C4A 2769   2.187   3.105   5.615
  205POPC   C1B 2770   2.011   3.598   4.673
  205POPC   C2B 2771   1.946   3.728   5.121
  205POPC   C3B 2772   2.162   3.631   5.521
  205POPC   C4B 2773   1.950   3.488   5.901
  206POPC   NC3 2774   6.337   3.548   3.921
  206POPC   PO4 2775   6.836   3.855   3.921
  206POPC   GL1 2776   6.671   3.719   4.342
  206POPC   GL2 2777   6.417   3.472   4.404
  206POPC   C1A 2778   6.599   3.698   4.819
  206POPC   D2A 2779   6.592   3.415   5.179
  206POPC   C3A 2780   6.526   3.666   5.585
  206POPC   C4A 2781   6.378   3.910   5.979
  206POPC   C1B 2782   6.216   3.340   4.778
  206POPC   C2B 2783   6.152   3.150   5.190
  206POPC   C3B 2784   6.246   3.259   5.600
  206POPC   C4B 2785   6.019   3.572   5.798
  207POPC   NC3 2786   9.832   7.380   3.898
  207POPC   PO4 2787   0.056   7.520   3.846
  207POPC   GL1 2788  10.379   7.402   4.256
  207POPC   GL2 2789  10.262   7.084   4.276
  207POPC   C1A 2790  10.442   7.264   4.709
  207POPC   D2A 2791  10.287   7.142   5.099
  207POPC   C3A 2792  10.256   7.424   5.422
  207POPC   C4A 2793  10.465   7.368   5.805
  207POPC   C1B 2794   9.942   7.267   4.568
  207POPC   C2B 2795   9.747   7.123   4.955
  207POPC   C3B 2796   9.843   7.086   5.390
  207POPC   C4B 2797  10.101   7.040   5.751
  208POPC   NC3 2798   0.141   9.988   3.710
  208POPC   PO4 2799   0.455   0.086   3.908
  208POPC   GL1 2800   0.290  10.388   4.270
  208POPC   GL2 2801   0.350  10.053   4.188
  208POPC   C1A 2802   0.229  10.488   4.723
  208POPC   D2A 2803   0.510   0.010   5.105
  208POPC   C3A 2804   0.463  10.261   5.489
  208POPC   C4A 2805   0.221  10.289   5.855
  208POPC   C1B 2806   0.499  10.055   4.624
  208POPC   C2B 2807   0.433   9.822   5.007
  208POPC   C3B 2808   0.236   9.748   5.409
  208POPC   C4B 2809   0.368   9.799   5.819
  209POPC   NC3 2810   4.039   0.388   3.944
  209POPC   PO4 2811   4.371   0.841   3.693
  209POPC   GL1 2812   4.362   0.664   4.203
  209POPC   GL2 2813   4.322   0.325   4.367
  209POPC   C1A 2814   4.332   0.743   4.665
  209POPC   D2A 2815   4.140   0.667   5.083
  209POPC   C3A 2816   4.357   0.555   5.427
  209POPC   C4A 2817   4.346   0.562   5.816
  209POPC   C1B 2818   4.019   0.317   4.698
  209POPC   C2B 2819   4.094   0.159   5.123
  209POPC   C3B 2820   3.908   0.330   5.507
  209POPC   C4B 2821   3.963   0.258   5.949
  210POPC   NC3 2822   1.939   8.180   3.804
  210POPC   PO4 2823   2.127   7.476   3.769
  210POPC   GL1 2824   2.117   7.617   4.204
  210POPC   GL2 2825   2.032   7.993   4.291
  210POPC   C1A 2826   2.310   7.636   4.609
  210POPC   D2A 2827   2.434   7.772   5.024
  210POPC   C3A 2828   2.246   7.626   5.415
  210POPC   C4A 2829   2.090   7.536   5.821
  210POPC   C1B 2830   1.950   7.962   4.753
  210POPC   C2B 2831   2.017   8.018   5.186
  210POPC   C3B 2832   1.804   7.885   5.519
  210POPC   C4B 2833   1.672   7.832   5.929
  211POPC   NC3 2834   1.747   9.721   3.983
  211POPC   PO4 2835   2.004  10.360   3.796
  211POPC   GL1 2836   1.883  10.219   4.184
  211POPC   GL2 2837   1.515  10.274   4.195
  211POPC   C1A 2838   2.050  10.218   4.619
  211POPC   D2A 2839   2.190  10.386   5.041
  211POPC   C3A 2840   2.093  10.136   5.420
  211POPC   C4A 2841   1.991  10.271   5.802
  211POPC   C1B 2842   1.498  10.239   4.647
  211POPC   C2B 2843   1.733  10.142   5.026
  211POPC   C3B 2844   1.582  10.181   5.444
  211POPC   C4B 2845   1.708   9.856   5.720
  212POPC   NC3 2846   2.307   5.642   3.822
  212POPC   PO4 2847   1.685   5.351   3.713
  212POPC   GL1 2848   1.840   5.455   4.164
  212POPC   GL2 2849   1.508   5.502   4.322
  212POPC   C1A 2850   1.953   5.548   4.648
  212POPC   D2A 2851   2.197   5.839   4.977
  212POPC   C3A 2852   2.320   5.774   5.438
  212POPC   C4A 2853   2.207   5.612   5.864
  212POPC   C1B 2854   1.512   5.794   4.674
  212POPC   C2B 2855   1.717   5.779   5.082
  212POPC   C3B 2856   1.842   5.605   5.515
  212POPC   C4B 2857   1.765   5.820   5.893
  213POPC   NC3 2858   3.076   9.505   3.926
  213POPC   PO4 2859   3.738   9.121   3.817
  213POPC   GL1 2860   3.665   9.266   4.289
  213POPC   GL2 2861   3.585   9.630   4.355
  213POPC   C1A 2862   3.611   9.208   4.730
  213POPC   D2A 2863   3.730   9.102   5.129
  213POPC   C3A 2864   3.649   9.446   5.361
  213POPC   C4A 2865   3.514   9.378   5.783
  213POPC   C1B 2866   3.264   9.575   4.667
  213POPC   C2B 2867   3.211   9.348   5.059
  213POPC   C3B 2868   3.162   9.524   5.465
  213POPC   C4B 2869   2.974   9.792   5.791
  214POPC   NC3 2870   1.760   7.196   3.828
  214POPC   PO4 2871   2.215   6.771   3.907
  214POPC   GL1 2872   2.109   7.056   4.223
  214POPC   GL2 2873   1.783   7.065   4.336
  214POPC   C1A 2874   2.175   7.147   4.655
  214POPC   D2A 2875   2.329   7.273   5.033
  214POPC   C3A 2876   2.162   7.112   5.417
  214POPC   C4A 2877   2.043   7.015   5.844
  214POPC   C1B 2878   1.779   7.470   4.609
  214POPC   C2B 2879   1.857   7.540   5.073
  214POPC   C3B 2880   1.721   7.373   5.503
  214POPC   C4B 2881   1.617   7.322   5.960
  215POPC   NC3 2882   1.765   6.468   3.977
  215POPC   PO4 2883   2.333   6.082   3.928
  215POPC   GL1 2884   2.045   6.117   4.232
  215POPC   GL2 2885   2.172   6.446   4.303
  215POPC   C1A 2886   1.918   6.116   4.658
  215POPC   D2A 2887   1.831   6.318   5.059
  215POPC   C3A 2888   1.879   6.105   5.442
  215POPC   C4A 2889   2.127   6.141   5.779
  215POPC   C1B 2890   2.022   6.648   4.656
  215POPC   C2B 2891   2.166   6.730   5.072
  215POPC   C3B 2892   2.099   6.604   5.520
  215POPC   C4B 2893   1.727   6.516   5.732
  216POPC   NC3 2894   4.624   2.113   4.104
  216POPC   PO4 2895   5.252   1.853   4.016
  216POPC   GL1 2896   5.215   1.995   4.393
  216POPC   GL2 2897   4.903   2.089   4.523
  216POPC   C1A 2898   5.218   1.733   4.759
  216POPC   D2A 2899   4.966   1.783   5.114
  216POPC   C3A 2900   5.235   1.653   5.400
  216POPC   C4A 2901   5.399   1.862   5.698
  216POPC   C1B 2902   4.807   2.395   4.834
  216POPC   C2B 2903   4.848   2.408   5.293
  216POPC   C3B 2904   4.916   2.058   5.580
  216POPC   C4B 2905   4.655   1.799   5.815
  217POPC   NC3 2906   7.918   9.971   3.855
  217POPC   PO4 2907   7.527   0.176   3.946
  217POPC   GL1 2908   7.794   0.194   4.314
  217POPC   GL2 2909   8.049  10.447   4.243
  217POPC   C1A 2910   7.748   0.086   4.746
  217POPC   D2A 2911   7.981  10.443   5.105
  217POPC   C3A 2912   7.698  10.353   5.422
  217POPC   C4A 2913   7.585  10.466   5.816
  217POPC   C1B 2914   8.094  10.202   4.637
  217POPC   C2B 2915   8.222   9.968   4.985
  217POPC   C3B 2916   8.140   9.845   5.370
  217POPC   C4B 2917   8.034  10.077   5.718
  218POPC   NC3 2918   4.993   7.695   3.956
  218POPC   PO4 2919   4.606   7.957   4.259
  218POPC   GL1 2920   4.970   7.910   4.461
  218POPC   GL2 2921   4.963   8.253   4.527
  218POPC   C1A 2922   4.972   7.744   4.907
  218POPC   D2A 2923   4.723   7.589   5.277
  218POPC   C3A 2924   4.872   7.705   5.711
  218POPC   C4A 2925   4.797   7.486   6.162
  218POPC   C1B 2926   4.642   8.137   4.869
  218POPC   C2B 2927   4.619   8.094   5.317
  218POPC   C3B 2928   4.813   8.297   5.655
  218POPC   C4B 2929   5.155   8.129   5.883
  219POPC   NC3 2930   2.738   8.631   3.949
  219POPC   PO4 2931   3.212   9.135   4.156
  219POPC   GL1 2932   3.048   8.739   4.342
  219POPC   GL2 2933   2.682   8.774   4.420
  219POPC   C1A 2934   2.958   8.450   4.714
  219POPC   D2A 2935   2.853   8.551   5.110
  219POPC   C3A 2936   2.969   8.399   5.433
  219POPC   C4A 2937   2.977   8.725   5.707
  219POPC   C1B 2938   2.486   8.690   4.808
  219POPC   C2B 2939   2.336   8.824   5.168
  219POPC   C3B 2940   2.491   8.635   5.513
  219POPC   C4B 2941   2.569   8.406   5.859
  220POPC   NC3 2942   6.347   7.164   4.084
  220POPC   PO4 2943   6.926   7.434   3.903
  220POPC   GL1 2944   6.790   7.385   4.349
  220POPC   GL2 2945   6.711   7.056   4.487
  220POPC   C1A 2946   6.718   7.442   4.828
  220POPC   D2A 2947   6.619   7.156   5.168
  220POPC   C3A 2948   6.558   7.293   5.565
  220POPC   C4A 2949   6.458   7.158   5.968
  220POPC   C1B 2950   6.315   7.092   4.762
  220POPC   C2B 2951   6.138   6.942   5.174
  220POPC   C3B 2952   6.219   6.866   5.614
  220POPC   C4B 2953   5.918   6.959   5.972
  221POPC   NC3 2954   0.998   4.653   3.866
  221POPC   PO4 2955   1.153   5.255   4.029
  221POPC   GL1 2956   1.185   5.070   4.365
  221POPC   GL2 2957   1.261   4.742   4.302
  221POPC   C1A 2958   1.339   5.038   4.742
  221POPC   D2A 2959   1.544   5.325   4.941
  221POPC   C3A 2960   1.503   5.227   5.357
  221POPC   C4A 2961   1.515   4.949   5.733
  221POPC   C1B 2962   0.940   4.700   4.615
  221POPC   C2B 2963   0.935   4.910   5.016
  221POPC   C3B 2964   1.122   4.830   5.417
  221POPC   C4B 2965   1.032   5.138   5.740
  222POPC   NC3 2966   2.859   0.583   3.933
  222POPC   PO4 2967   2.262   0.228   4.123
  222POPC   GL1 2968   2.556   0.329   4.416
  222POPC   GL2 2969   2.913   0.287   4.322
  222POPC   C1A 2970   2.439   0.311   4.845
  222POPC   D2A 2971   2.367   0.319   5.262
  222POPC   C3A 2972   2.380   0.049   5.570
  222POPC   C4A 2973   2.590   0.241   5.890
  222POPC   C1B 2974   2.950   0.549   4.684
  222POPC   C2B 2975   2.823   0.519   5.127
  222POPC   C3B 2976   2.836   0.720   5.522
  222POPC   C4B 2977   2.798   0.727   5.967
  223POPC   NC3 2978   8.482   5.731   3.970
  223POPC   PO4 2979   9.194   5.628   3.982
  223POPC   GL1 2980   8.875   5.606   4.298
  223POPC   GL2 2981   8.718   5.919   4.385
  223POPC   C1A 2982   8.737   5.504   4.706
  223POPC   D2A 2983   8.918   5.275   5.031
  223POPC   C3A 2984   8.823   5.325   5.436
  223POPC   C4A 2985   8.795   5.421   5.833
  223POPC   C1B 2986   8.877   5.994   4.797
  223POPC   C2B 2987   9.030   5.750   5.131
  223POPC   C3B 2988   8.969   5.854   5.558
  223POPC   C4B 2989   8.588   5.959   5.779
  224POPC   NC3 2990   3.331  10.348   3.935
  224POPC   PO4 2991   2.772   9.910   3.855
  224POPC   GL1 2992   3.139   9.910   4.242
  224POPC   GL2 2993   3.457  10.142   4.396
  224POPC   C1A 2994   3.069  10.044   4.692
  224POPC   D2A 2995   3.181  10.251   5.071
  224POPC   C3A 2996   3.283  10.044   5.466
  224POPC   C4A 2997   3.354  10.096   5.935
  224POPC   C1B 2998   3.699  10.384   4.761
  224POPC   C2B 2999   3.608   0.010   5.198
  224POPC   C3B 3000   3.510   0.004   5.630
  224POPC   C4B 3001   3.808  10.293   5.891
  225POPC   NC3 3002   6.637  10.211   3.862
  225POPC   PO4 3003   6.015  10.024   3.920
  225POPC   GL1 3004   6.294  10.203   4.273
  225POPC   GL2 3005   6.685  10.298   4.356
  225POPC   C1A 3006   6.308  10.164   4.726
  225POPC   D2A 3007   6.164  10.019   5.145
  225POPC   C3A 3008   6.325  10.350   5.433
  225POPC   C4A 3009   6.205  10.460   5.849
  225POPC   C1B 3010   6.826  10.101   4.756
  225POPC   C2B 3011   6.682  10.109   5.146
  225POPC   C3B 3012   6.711   9.903   5.527
  225POPC   C4B 3013   6.640  10.196   5.834
  226POPC   NC3 3014   6.546   8.678   3.906
  226POPC   PO4 3015   6.905   8.129   3.998
  226POPC   GL1 3016   6.665   8.372   4.344
  226POPC   GL2 3017   6.330   8.537   4.344
  226POPC   C1A 3018   6.578   8.470   4.804
  226POPC   D2A 3019   6.670   8.687   5.205
  226POPC   C3A 3020   6.412   8.525   5.534
  226POPC   C4A 3021   6.366   8.484   6.013
  226POPC   C1B 3022   6.184   8.816   4.678
  226POPC   C2B 3023   6.272   8.978   5.094
  226POPC   C3B 3024   6.071   9.017   5.487
  226POPC   C4B 3025   5.960   8.629   5.719
  227POPC   NC3 3026   7.149   1.848   3.848
  227POPC   PO4 3027   6.698   2.339   3.977
  227POPC   GL1 3028   6.937   2.170   4.317
  227POPC   GL2 3029   6.994   1.829   4.350
  227POPC   C1A 3030   6.865   2.051   4.766
  227POPC   D2A 3031   7.079   2.133   5.125
  227POPC   C3A 3032   6.883   2.097   5.535
  227POPC   C4A 3033   7.070   2.229   5.918
  227POPC   C1B 3034   7.344   1.985   4.666
  227POPC   C2B 3035   7.527   1.872   5.048
  227POPC   C3B 3036   7.440   2.012   5.451
  227POPC   C4B 3037   7.277   1.790   5.812
  228POPC   NC3 3038   9.421   1.312   3.910
  228POPC   PO4 3039  10.037   1.450   3.855
  228POPC   GL1 3040   9.800   1.472   4.232
  228POPC   GL2 3041   9.729   1.116   4.283
  228POPC   C1A 3042   9.807   1.423   4.708
  228POPC   D2A 3043   9.816   1.121   5.056
  228POPC   C3A 3044   9.700   1.178   5.472
  228POPC   C4A 3045   9.780   1.493   5.740
  228POPC   C1B 3046   9.374   1.199   4.532
  228POPC   C2B 3047   9.312   1.156   4.959
  228POPC   C3B 3048   9.214   1.126   5.387
  228POPC   C4B 3049   9.299   1.315   5.823
  229POPC   NC3 3050   9.285   5.137   4.023
  229POPC   PO4 3051   9.832   5.279   3.846
  229POPC   GL1 3052   9.745   5.058   4.289
  229POPC   GL2 3053   9.507   4.763   4.299
  229POPC   C1A 3054   9.712   4.899   4.746
  229POPC   D2A 3055   9.671   4.750   5.188
  229POPC   C3A 3056   9.688   5.089   5.465
  229POPC   C4A 3057   9.619   5.215   5.906
  229POPC   C1B 3058   9.211   4.993   4.619
  229POPC   C2B 3059   9.237   4.904   4.977
  229POPC   C3B 3060   9.206   4.953   5.359
  229POPC   C4B 3061   9.169   5.068   5.731
  230POPC   NC3 3062   7.106   0.519   3.828
  230POPC   PO4 3063   7.702   0.890   3.895
  230POPC   GL1 3064   7.520   0.636   4.242
  230POPC   GL2 3065   7.239   0.417   4.300
  230POPC   C1A 3066   7.322   0.696   4.687
  230POPC   D2A 3067   7.115   0.597   5.086
  230POPC   C3A 3068   7.385   0.750   5.442
  230POPC   C4A 3069   7.497   0.526   5.825
  230POPC   C1B 3070   7.118   0.210   4.703
  230POPC   C2B 3071   7.321   0.099   5.077
  230POPC   C3B 3072   7.325   0.223   5.450
  230POPC   C4B 3073   7.035   0.420   5.655
  231POPC   NC3 3074   1.957   4.390   3.968
  231POPC   PO4 3075   2.063   3.707   3.989
  231POPC   GL1 3076   2.039   4.006   4.321
  231POPC   GL2 3077   1.669   4.062   4.271
  231POPC   C1A 3078   2.081   4.329   4.676
  231POPC   D2A 3079   2.094   4.508   5.117
  231POPC   C3A 3080   2.142   4.156   5.425
  231POPC   C4A 3081   2.348   4.002   5.807
  231POPC   C1B 3082   1.687   3.988   4.722
  231POPC   C2B 3083   1.664   4.275   5.063
  231POPC   C3B 3084   1.684   4.355   5.519
  231POPC   C4B 3085   1.788   3.952   5.743
  232POPC   NC3 3086   2.472   7.169   3.880
  232POPC   PO4 3087   2.972   7.576   3.882
  232POPC   GL1 3088   2.752   7.436   4.279
  232POPC   GL2 3089   2.614   7.089   4.359
  232POPC   C1A 3090   2.742   7.384   4.742
  232POPC   D2A 3091   2.937   7.331   5.128
  232POPC   C3A 3092   2.645   7.311   5.429
  232POPC   C4A 3093   2.495   7.239   5.782
  232POPC   C1B 3094   2.567   6.846   4.742
  232POPC   C2B 3095   2.637   6.878   5.183
  232POPC   C3B 3096   2.577   6.760   5.628
  232POPC   C4B 3097   2.482   6.863   6.101
  233POPC   NC3 3098   4.001   1.327   3.921
  233POPC   PO4 3099   3.280   1.297   3.915
  233POPC   GL1 3100   3.584   1.240   4.214
  233POPC   GL2 3101   3.544   0.937   4.329
  233POPC   C1A 3102   3.673   1.367   4.620
  233POPC   D2A 3103   3.464   1.352   5.004
  233POPC   C3A 3104   3.656   1.473   5.386
  233POPC   C4A 3105   3.706   1.290   5.770
  233POPC   C1B 3106   3.281   0.974   4.684
  233POPC   C2B 3107   3.180   0.901   5.100
  233POPC   C3B 3108   3.253   1.144   5.446
  233POPC   C4B 3109   3.248   0.928   5.783
  234POPC   NC3 3110   2.031   8.773   3.695
  234POPC   PO4 3111   2.162   8.822   4.320
  234POPC   GL1 3112   1.858   8.770   4.579
  234POPC   GL2 3113   1.726   8.419   4.568
  234POPC   C1A 3114   1.864   8.968   4.954
  234POPC   D2A 3115   1.750   8.962   5.329
  234POPC   C3A 3116   2.091   9.020   5.584
  234POPC   C4A 3117   2.201   8.777   5.914
  234POPC   C1B 3118   1.989   8.461   4.941
  234POPC   C2B 3119   1.987   8.497   5.393
  234POPC   C3B 3120   1.859   8.385   5.814
  234POPC   C4B 3121   2.165   8.355   6.199
  235POPC   NC3 3122   6.841   2.753   4.143
  235POPC   PO4 3123   7.419   3.042   3.909
  235POPC   GL1 3124   7.330   2.859   4.288
  235POPC   GL2 3125   7.341   2.491   4.239
  235POPC   C1A 3126   7.275   2.970   4.706
  235POPC   D2A 3127   7.492   2.926   5.087
  235POPC   C3A 3128   7.315   3.002   5.501
  235POPC   C4A 3129   7.353   3.048   5.957
  235POPC   C1B 3130   7.149   2.471   4.668
  235POPC   C2B 3131   7.041   2.646   5.056
  235POPC   C3B 3132   7.148   2.522   5.470
  235POPC   C4B 3133   6.981   2.721   5.829
  236POPC   NC3 3134   7.174   3.584   3.793
  236POPC   PO4 3135   7.815   3.689   3.805
  236POPC   GL1 3136   7.434   3.550   4.199
  236POPC   GL2 3137   7.084   3.323   4.218
  236POPC   C1A 3138   7.383   3.477   4.650
  236POPC   D2A 3139   7.631   3.417   5.034
  236POPC   C3A 3140   7.503   3.471   5.447
  236POPC   C4A 3141   7.343   3.625   5.822
  236POPC   C1B 3142   6.872   3.282   4.636
  236POPC   C2B 3143   7.090   3.290   5.066
  236POPC   C3B 3144   6.997   3.431   5.492
  236POPC   C4B 3145   6.870   3.229   5.850
  237POPC   NC3 3146   2.460   3.540   3.812
  237POPC   PO4 3147   3.049   3.863   3.935
  237POPC   GL1 3148   2.760   3.596   4.285
  237POPC   GL2 3149   2.402   3.424   4.315
  237POPC   C1A 3150   2.494   3.802   4.655
  237POPC   D2A 3151   2.450   3.687   5.090
  237POPC   C3A 3152   2.685   3.858   5.434
  237POPC   C4A 3153   2.804   3.733   5.855
  237POPC   C1B 3154   2.571   3.305   4.737
  237POPC   C2B 3155   2.420   3.188   5.153
  237POPC   C3B 3156   2.618   3.346   5.530
  237POPC   C4B 3157   2.440   3.398   5.939
  238POPC   NC3 3158   9.639   0.407   3.822
  238POPC   PO4 3159   9.134   0.079   3.920
  238POPC   GL1 3160   9.430   0.285   4.261
  238POPC   GL2 3161   9.606   0.614   4.293
  238POPC   C1A 3162   9.373   0.324   4.682
  238POPC   D2A 3163   9.142   0.407   4.997
  238POPC   C3A 3164   9.282   0.268   5.367
  238POPC   C4A 3165   9.123   0.365   5.762
  238POPC   C1B 3166   9.608   0.793   4.727
  238POPC   C2B 3167   9.495   0.733   5.178
  238POPC   C3B 3168   9.448   0.742   5.621
  238POPC   C4B 3169   9.271   0.780   6.024
  239POPC   NC3 3170   8.513   8.518   4.019
  239POPC   PO4 3171   9.136   8.588   4.128
  239POPC   GL1 3172   8.995   8.614   4.497
  239POPC   GL2 3173   8.718   8.767   4.447
  239POPC   C1A 3174   8.954   8.632   4.920
  239POPC   D2A 3175   9.005   8.343   5.234
  239POPC   C3A 3176   8.984   8.658   5.529
  239POPC   C4A 3177   8.840   8.835   5.919
  239POPC   C1B 3178   8.457   8.609   4.748
  239POPC   C2B 3179   8.508   8.512   5.179
  239POPC   C3B 3180   8.476   8.617   5.555
  239POPC   C4B 3181   8.356   8.939   5.770
  240POPC   NC3 3182   1.791   0.220   3.993
  240POPC   PO4 3183   1.759   0.875   3.792
  240POPC   GL1 3184   1.977   0.659   4.160
  240POPC   GL2 3185   1.737   0.565   4.397
  240POPC   C1A 3186   2.202   0.700   4.603
  240POPC   D2A 3187   1.979   0.539   5.003
  240POPC   C3A 3188   2.030   0.609   5.461
  240POPC   C4A 3189   2.198   0.641   5.892
  240POPC   C1B 3190   1.828   0.189   4.661
  240POPC   C2B 3191   1.650   0.131   5.066
  240POPC   C3B 3192   1.879   0.116   5.416
  240POPC   C4B 3193   1.898   0.259   5.819
  241POPC   NC3 3194   4.273   3.637   3.935
  241POPC   PO4 3195   4.680   3.259   3.906
  241POPC   GL1 3196   4.533   3.234   4.339
  241POPC   GL2 3197   4.191   3.253   4.354
  241POPC   C1A 3198   4.435   3.285   4.811
  241POPC   D2A 3199   4.456   3.358   5.263
  241POPC   C3A 3200   4.404   3.748   5.503
  241POPC   C4A 3201   4.432   4.023   5.930
  241POPC   C1B 3202   3.974   3.063   4.674
  241POPC   C2B 3203   3.944   3.202   5.092
  241POPC   C3B 3204   4.040   3.274   5.524
  241POPC   C4B 3205   4.027   3.596   5.825
  242POPC   NC3 3206   0.371   8.751   3.979
  242POPC   PO4 3207   0.733   8.171   3.819
  242POPC   GL1 3208   0.760   8.419   4.259
  242POPC   GL2 3209   0.440   8.524   4.419
  242POPC   C1A 3210   0.819   8.775   4.613
  242POPC   D2A 3211   0.571   8.952   4.993
  242POPC   C3A 3212   0.660   8.866   5.470
  242POPC   C4A 3213   0.477   8.487   5.737
  242POPC   C1B 3214   0.113   8.756   4.605
  242POPC   C2B 3215   0.050   8.871   5.001
  242POPC   C3B 3216   0.198   8.711   5.352
  242POPC   C4B 3217   0.139   8.851   5.750
  243POPC   NC3 3218   1.231   2.580   3.985
  243POPC   PO4 3219   1.284   3.379   3.843
  243POPC   GL1 3220   1.247   3.174   4.203
  243POPC   GL2 3221   1.152   3.507   4.330
  243POPC   C1A 3222   1.199   3.056   4.635
  243POPC   D2A 3223   0.883   3.194   4.927
  243POPC   C3A 3224   0.907   3.126   5.363
  243POPC   C4A 3225   0.934   3.223   5.783
  243POPC   C1B 3226   1.333   3.578   4.703
  243POPC   C2B 3227   1.363   3.386   5.087
  243POPC   C3B 3228   1.223   3.494   5.474
  243POPC   C4B 3229   1.463   3.427   5.794
  244POPC   NC3 3230   6.039   2.825   4.088
  244POPC   PO4 3231   5.471   2.822   3.905
  244POPC   GL1 3232   5.540   2.840   4.331
  244POPC   GL2 3233   5.680   2.503   4.313
  244POPC   C1A 3234   5.490   3.012   4.784
  244POPC   D2A 3235   5.719   2.864   5.202
  244POPC   C3A 3236   5.708   3.051   5.614
  244POPC   C4A 3237   5.365   3.187   5.902
  244POPC   C1B 3238   5.763   2.596   4.753
  244POPC   C2B 3239   5.762   2.366   5.139
  244POPC   C3B 3240   5.767   2.488   5.598
  244POPC   C4B 3241   6.035   2.589   5.980
  245POPC   NC3 3242   0.223   4.491   3.943
  245POPC   PO4 3243   0.724   4.979   3.713
  245POPC   GL1 3244   0.720   4.995   4.179
  245POPC   GL2 3245   0.511   4.774   4.376
  245POPC   C1A 3246   0.692   5.176   4.619
  245POPC   D2A 3247   0.465   5.086   5.009
  245POPC   C3A 3248   0.631   4.984   5.428
  245POPC   C4A 3249   0.671   4.643   5.688
  245POPC   C1B 3250   0.149   4.885   4.674
  245POPC   C2B 3251   0.048   4.778   5.111
  245POPC   C3B 3252   0.153   4.807   5.552
  245POPC   C4B 3253   0.168   5.110   5.875
  246POPC   NC3 3254   4.322  10.141   3.921
  246POPC   PO4 3255   3.643  10.008   3.929
  246POPC   GL1 3256   3.941  10.040   4.245
  246POPC   GL2 3257   4.042  10.400   4.255
  246POPC   C1A 3258   3.894   9.927   4.650
  246POPC   D2A 3259   3.576   9.917   4.973
  246POPC   C3A 3260   3.786  10.045   5.355
  246POPC   C4A 3261   3.720   9.824   5.710
  246POPC   C1B 3262   4.205  10.336   4.658
  246POPC   C2B 3263   4.395  10.063   4.968
  246POPC   C3B 3264   4.310  10.046   5.397
  246POPC   C4B 3265   4.218  10.433   5.620
  247POPC   NC3 3266   6.218   9.593   3.989
  247POPC   PO4 3267   6.829   9.855   4.067
  247POPC   GL1 3268   6.557   9.792   4.438
  247POPC   GL2 3269   6.313   9.517   4.464
  247POPC   C1A 3270   6.480   9.710   4.890
  247POPC   D2A 3271   6.142   9.467   5.046
  247POPC   C3A 3272   6.158   9.540   5.459
  247POPC   C4A 3273   6.227   9.925   5.680
  247POPC   C1B 3274   6.506   9.241   4.714
  247POPC   C2B 3275   6.706   9.249   5.141
  247POPC   C3B 3276   6.657   9.358   5.604
  247POPC   C4B 3277   6.672   9.288   6.078
  248POPC   NC3 3278   0.821   6.998   4.109
  248POPC   PO4 3279   1.465   6.853   3.967
  248POPC   GL1 3280   1.271   7.032   4.343
  248POPC   GL2 3281   1.103   7.370   4.342
  248POPC   C1A 3282   1.158   7.026   4.767
  248POPC   D2A 3283   1.277   6.960   5.177
  248POPC   C3A 3284   0.910   6.933   5.392
  248POPC   C4A 3285   0.867   7.016   5.797
  248POPC   C1B 3286   1.243   7.534   4.754
  248POPC   C2B 3287   1.344   7.603   5.189
  248POPC   C3B 3288   1.203   7.351   5.535
  248POPC   C4B 3289   1.368   6.937   5.707
  249POPC   NC3 3290   4.140   7.174   3.910
  249POPC   PO4 3291   4.625   7.487   3.783
  249POPC   GL1 3292   4.479   7.441   4.231
  249POPC   GL2 3293   4.148   7.303   4.390
  249POPC   C1A 3294   4.529   7.399   4.710
  249POPC   D2A 3295   4.363   7.101   5.031
  249POPC   C3A 3296   4.267   7.271   5.428
  249POPC   C4A 3297   4.582   7.294   5.726
  249POPC   C1B 3298   3.946   7.052   4.729
  249POPC   C2B 3299   3.877   7.013   5.198
  249POPC   C3B 3300   4.104   6.802   5.559
  249POPC   C4B 3301   4.257   6.618   5.986
  250POPC   NC3 3302   4.792   8.300   4.006
  250POPC   PO4 3303   4.710   8.950   3.979
  250POPC   GL1 3304   4.908   8.721   4.311
  250POPC   GL2 3305   5.231   8.557   4.180
  250POPC   C1A 3306   4.946   8.748   4.770
  250POPC   D2A 3307   4.774   8.574   5.154
  250POPC   C3A 3308   4.785   8.795   5.584
  250POPC   C4A 3309   4.736   8.879   6.028
  250POPC   C1B 3310   5.389   8.540   4.596
  250POPC   C2B 3311   5.497   8.550   5.042
  250POPC   C3B 3312   5.203   8.555   5.411
  250POPC   C4B 3313   5.211   8.663   5.851
  251POPC   NC3 3314   7.766   5.113   4.333
  251POPC   PO4 3315   8.251   5.293   3.988
  251POPC   GL1 3316   8.275   5.188   4.375
  251POPC   GL2 3317   8.276   4.845   4.373
  251POPC   C1A 3318   8.192   5.328   4.777
  251POPC   D2A 3319   7.906   5.101   5.103
  251POPC   C3A 3320   7.850   5.227   5.522
  251POPC   C4A 3321   7.908   5.308   5.946
  251POPC   C1B 3322   8.146   4.822   4.768
  251POPC   C2B 3323   8.261   4.697   5.127
  251POPC   C3B 3324   8.002   4.627   5.441
  251POPC   C4B 3325   7.864   4.804   5.808
  252POPC   NC3 3326   7.573   9.035   3.784
  252POPC   PO4 3327   8.128   8.590   3.748
  252POPC   GL1 3328   7.914   8.777   4.110
  252POPC   GL2 3329   8.216   8.823   4.308
  252POPC   C1A 3330   7.786   8.931   4.550
  252POPC   D2A 3331   8.042   9.014   4.944
  252POPC   C3A 3332   7.955   8.895   5.395
  252POPC   C4A 3333   7.876   9.052   5.862
  252POPC   C1B 3334   7.998   8.481   4.575
  252POPC   C2B 3335   8.138   8.219   4.929
  252POPC   C3B 3336   8.087   8.298   5.374
  252POPC   C4B 3337   8.012   8.557   5.766
  253POPC   NC3 3338   8.803   1.232   4.000
  253POPC   PO4 3339   8.362   0.717   3.846
  253POPC   GL1 3340   8.390   1.054   4.209
  253POPC   GL2 3341   8.652   0.948   4.430
  253POPC   C1A 3342   8.406   1.404   4.581
  253POPC   D2A 3343   8.425   1.641   5.001
  253POPC   C3A 3344   8.410   1.402   5.418
  253POPC   C4A 3345   8.393   1.052   5.738
  253POPC   C1B 3346   8.889   1.280   4.677
  253POPC   C2B 3347   8.909   1.452   5.098
  253POPC   C3B 3348   8.893   1.460   5.549
  253POPC   C4B 3349   8.890   1.033   5.799
  254POPC   NC3 3350   1.328   5.634   3.831
  254POPC   PO4 3351   0.715   5.926   3.790
  254POPC   GL1 3352   0.984   5.993   4.131
  254POPC   GL2 3353   0.963   5.661   4.245
  254POPC   C1A 3354   1.064   6.022   4.597
  254POPC   D2A 3355   0.823   6.020   4.995
  254POPC   C3A 3356   0.980   6.010   5.402
  254POPC   C4A 3357   0.992   5.729   5.781
  254POPC   C1B 3358   1.093   5.499   4.656
  254POPC   C2B 3359   1.158   5.636   5.067
  254POPC   C3B 3360   1.370   5.715   5.437
  254POPC   C4B 3361   1.433   5.461   5.793
  255POPC   NC3 3362   7.217   9.551   3.955
  255POPC   PO4 3363   7.277   8.962   4.117
  255POPC   GL1 3364   7.181   9.246   4.375
  255POPC   GL2 3365   6.855   9.387   4.301
  255POPC   C1A 3366   7.280   9.178   4.756
  255POPC   D2A 3367   7.304   9.317   5.112
  255POPC   C3A 3368   7.111   9.096   5.436
  255POPC   C4A 3369   7.086   9.140   5.836
  255POPC   C1B 3370   6.935   9.563   4.699
  255POPC   C2B 3371   6.959   9.690   5.109
  255POPC   C3B 3372   7.137   9.612   5.498
  255POPC   C4B 3373   6.992   9.642   5.920
  256POPC   NC3 3374   0.417   3.710   4.134
  256POPC   PO4 3375   0.641   3.190   3.819
  256POPC   GL1 3376   0.413   3.186   4.206
  256POPC   GL2 3377   0.671   3.361   4.391
  256POPC   C1A 3378   0.218   3.271   4.602
  256POPC   D2A 3379   0.353   3.493   4.988
  256POPC   C3A 3380   0.199   3.348   5.394
  256POPC   C4A 3381   0.436   3.273   5.765
  256POPC   C1B 3382   0.792   3.658   4.703
  256POPC   C2B 3383   0.899   3.657   5.113
  256POPC   C3B 3384   0.695   3.596   5.459
  256POPC   C4B 3385   0.819   3.712   5.853
  257POPC   NC3 3386   7.143  10.462   4.108
  257POPC   PO4 3387   7.469   9.932   3.972
  257POPC   GL1 3388   7.329   9.758   4.390
  257POPC   GL2 3389   7.156  10.039   4.398
  257POPC   C1A 3390   7.396   9.742   4.836
  257POPC   D2A 3391   7.711   9.967   5.072
  257POPC   C3A 3392   7.618   9.841   5.496
  257POPC   C4A 3393   7.288  10.028   5.760
  257POPC   C1B 3394   7.346  10.224   4.748
  257POPC   C2B 3395   7.233  10.114   5.200
  257POPC   C3B 3396   6.986  10.352   5.490
  257POPC   C4B 3397   7.088  10.479   5.905
  258POPC   NC3 3398   0.145   3.700   3.661
  258POPC   PO4 3399   0.670   4.056   3.956
  258POPC   GL1 3400   0.454   4.201   4.334
  258POPC   GL2 3401   0.173   4.409   4.456
  258POPC   C1A 3402   0.355   3.992   4.713
  258POPC   D2A 3403   0.529   3.995   5.089
  258POPC   C3A 3404   0.265   3.867   5.363
  258POPC   C4A 3405   0.298   3.746   5.768
  258POPC   C1B 3406   0.480   4.509   4.817
  258POPC   C2B 3407   0.747   4.455   5.191
  258POPC   C3B 3408   0.721   4.146   5.546
  258POPC   C4B 3409   0.321   4.253   5.714
  259POPC   NC3 3410   9.132   7.322   3.702
  259POPC   PO4 3411   9.592   7.764   3.960
  259POPC   GL1 3412   9.330   7.469   4.179
  259POPC   GL2 3413   9.462   7.122   4.268
  259POPC   C1A 3414   9.176   7.432   4.594
  259POPC   D2A 3415   9.215   7.535   4.999
  259POPC   C3A 3416   9.441   7.378   5.314
  259POPC   C4A 3417   9.313   7.449   5.731
  259POPC   C1B 3418   9.315   6.964   4.714
  259POPC   C2B 3419   9.347   6.751   5.136
  259POPC   C3B 3420   9.308   6.931   5.556
  259POPC   C4B 3421   9.614   7.048   5.834
  260POPC   NC3 3422   2.801   2.460   3.861
  260POPC   PO4 3423   2.351   3.079   3.853
  260POPC   GL1 3424   2.401   2.877   4.262
  260POPC   GL2 3425   2.530   2.527   4.305
  260POPC   C1A 3426   2.482   2.807   4.714
  260POPC   D2A 3427   2.793   2.873   5.018
  260POPC   C3A 3428   2.630   2.821   5.450
  260POPC   C4A 3429   2.524   2.830   5.874
  260POPC   C1B 3430   2.913   2.527   4.576
  260POPC   C2B 3431   3.212   2.535   4.909
  260POPC   C3B 3432   3.082   2.560   5.325
  260POPC   C4B 3433   2.939   2.541   5.755
  261POPC   NC3 3434   8.877   4.322   3.907
  261POPC   PO4 3435   9.557   3.942   3.917
  261POPC   GL1 3436   9.506   4.163   4.287
  261POPC   GL2 3437   9.207   4.322   4.307
  261POPC   C1A 3438   9.420   3.990   4.693
  261POPC   D2A 3439   9.476   3.741   5.052
  261POPC   C3A 3440   9.378   3.963   5.397
  261POPC   C4A 3441   9.476   3.999   5.793
  261POPC   C1B 3442   9.345   4.488   4.703
  261POPC   C2B 3443   9.180   4.452   5.149
  261POPC   C3B 3444   9.347   4.493   5.561
  261POPC   C4B 3445   9.623   4.461   5.920
  262POPC   NC3 3446   5.053   2.994   3.904
  262POPC   PO4 3447   4.518   2.518   3.881
  262POPC   GL1 3448   4.774   2.594   4.271
  262POPC   GL2 3449   5.128   2.486   4.187
  262POPC   C1A 3450   4.899   2.873   4.641
  262POPC   D2A 3451   4.830   3.030   5.089
  262POPC   C3A 3452   4.753   2.919   5.548
  262POPC   C4A 3453   4.856   3.198   5.965
  262POPC   C1B 3454   5.264   2.516   4.619
  262POPC   C2B 3455   5.238   2.679   5.072
  262POPC   C3B 3456   5.264   2.773   5.534
  262POPC   C4B 3457   5.035   2.735   5.951
  263POPC   NC3 3458   0.272   6.103   3.900
  263POPC   PO4 3459   0.630   6.702   3.831
  263POPC   GL1 3460   0.606   6.384   4.169
  263POPC   GL2 3461   0.248   6.358   4.322
  263POPC   C1A 3462   0.603   6.221   4.600
  263POPC   D2A 3463   0.515   6.470   4.969
  263POPC   C3A 3464   0.550   6.271   5.356
  263POPC   C4A 3465   0.660   6.113   5.766
  263POPC   C1B 3466   0.087   6.297   4.731
  263POPC   C2B 3467  10.486   6.501   5.068
  263POPC   C3B 3468   0.215   6.644   5.383
  263POPC   C4B 3469   0.465   6.576   5.754
  264POPC   NC3 3470   0.626   1.446   3.823
  264POPC   PO4 3471   0.908   0.820   3.761
  264POPC   GL1 3472   0.659   1.044   4.140
  264POPC   GL2 3473   0.331   1.264   4.196
  264POPC   C1A 3474   0.629   1.179   4.614
  264POPC   D2A 3475   0.555   0.978   5.009
  264POPC   C3A 3476   0.649   1.125   5.399
  264POPC   C4A 3477   0.771   0.961   5.769
  264POPC   C1B 3478   0.125   1.107   4.587
  264POPC   C2B 3479   0.074   0.876   4.958
  264POPC   C3B 3480   0.020   0.857   5.397
  264POPC   C4B 3481   0.245   1.091   5.710
  265POPC   NC3 3482   6.575   7.834   3.861
  265POPC   PO4 3483   6.052   7.519   4.021
  265POPC   GL1 3484   6.324   7.642   4.333
  265POPC   GL2 3485   6.616   7.866   4.370
  265POPC   C1A 3486   6.249   7.614   4.761
  265POPC   D2A 3487   6.232   7.493   5.181
  265POPC   C3A 3488   6.412   7.778   5.470
  265POPC   C4A 3489   6.350   7.647   5.881
  265POPC   C1B 3490   6.277   8.090   4.590
  265POPC   C2B 3491   6.311   8.084   5.047
  265POPC   C3B 3492   6.695   8.168   5.281
  265POPC   C4B 3493   6.765   8.210   5.726
  266POPC   NC3 3494   8.091   1.129   3.795
  266POPC   PO4 3495   7.604   1.574   3.664
  266POPC   GL1 3496   7.791   1.323   4.144
  266POPC   GL2 3497   7.541   1.135   4.356
  266POPC   C1A 3498   8.004   1.100   4.508
  266POPC   D2A 3499   8.149   0.941   4.899
  266POPC   C3A 3500   7.856   0.927   5.250
  266POPC   C4A 3501   7.953   1.195   5.588
  266POPC   C1B 3502   7.606   1.098   4.824
  266POPC   C2B 3503   7.480   1.370   5.162
  266POPC   C3B 3504   7.552   1.470   5.557
  266POPC   C4B 3505   7.536   1.085   5.839
  267POPC   NC3 3506   0.601   5.414   3.869
  267POPC   PO4 3507   0.204   4.938   4.029
  267POPC   GL1 3508   0.310   5.295   4.280
  267POPC   GL2 3509   0.368   5.688   4.226
  267POPC   C1A 3510   0.184   5.426   4.670
  267POPC   D2A 3511   0.013   5.305   5.040
  267POPC   C3A 3512   0.252   5.312   5.416
  267POPC   C4A 3513   0.558   5.433   5.764
  267POPC   C1B 3514   0.610   5.701   4.620
  267POPC   C2B 3515   0.504   5.612   5.069
  267POPC   C3B 3516   0.347   5.821   5.466
  267POPC   C4B 3517   0.190   6.027   5.879
  268POPC   NC3 3518   9.206   6.041   4.204
  268POPC   PO4 3519   8.631   6.212   3.878
  268POPC   GL1 3520   8.679   6.401   4.255
  268POPC   GL2 3521   8.965   6.503   4.168
  268POPC   C1A 3522   8.520   6.341   4.655
  268POPC   D2A 3523   8.395   6.280   5.052
  268POPC   C3A 3524   8.651   6.272   5.390
  268POPC   C4A 3525   8.496   6.459   5.779
  268POPC   C1B 3526   8.961   6.604   4.629
  268POPC   C2B 3527   8.837   6.613   5.050
  268POPC   C3B 3528   8.846   6.741   5.487
  268POPC   C4B 3529   8.978   6.665   5.904
  269POPC   NC3 3530   5.572   9.837   3.923
  269POPC   PO4 3531   5.882   9.235   3.959
  269POPC   GL1 3532   5.822   9.591   4.296
  269POPC   GL2 3533   5.502   9.723   4.401
  269POPC   C1A 3534   5.933   9.802   4.687
  269POPC   D2A 3535   5.680   9.738   5.049
  269POPC   C3A 3536   5.751   9.893   5.457
  269POPC   C4A 3537   5.823   9.665   5.826
  269POPC   C1B 3538   5.372   9.454   4.703
  269POPC   C2B 3539   5.372   9.328   5.118
  269POPC   C3B 3540   5.616   9.370   5.473
  269POPC   C4B 3541   5.382   9.455   5.865
  270POPC   NC3 3542   4.329   2.959   3.915
  270POPC   PO4 3543   3.937   2.411   4.013
  270POPC   GL1 3544   4.232   2.434   4.286
  270POPC   GL2 3545   4.271   2.744   4.365
  270POPC   C1A 3546   4.279   2.288   4.670
  270POPC   D2A 3547   4.366   2.351   5.083
  270POPC   C3A 3548   4.031   2.257   5.275
  270POPC   C4A 3549   3.915   2.333   5.663
  270POPC   C1B 3550   4.414   2.775   4.780
  270POPC   C2B 3551   4.338   2.859   5.215
  270POPC   C3B 3552   4.169   2.782   5.629
  270POPC   C4B 3553   4.085   3.060   6.003
  271POPC   NC3 3554   3.458   2.161   4.017
  271POPC   PO4 3555   3.938   1.742   3.717
  271POPC   GL1 3556   3.688   1.737   4.215
  271POPC   GL2 3557   3.296   1.688   4.284
  271POPC   C1A 3558   3.517   1.832   4.714
  271POPC   D2A 3559   3.626   1.986   5.149
  271POPC   C3A 3560   3.484   1.905   5.557
  271POPC   C4A 3561   3.239   1.562   5.768
  271POPC   C1B 3562   3.032   1.941   4.645
  271POPC   C2B 3563   3.099   2.047   5.095
  271POPC   C3B 3564   3.026   2.091   5.539
  271POPC   C4B 3565   3.210   2.059   5.966
  272POPC   NC3 3566   7.815   3.284   4.036
  272POPC   PO4 3567   8.203   3.950   4.021
  272POPC   GL1 3568   8.160   3.582   4.277
  272POPC   GL2 3569   7.866   3.565   4.454
  272POPC   C1A 3570   8.262   3.286   4.590
  272POPC   D2A 3571   8.109   3.520   4.916
  272POPC   C3A 3572   8.106   3.581   5.338
  272POPC   C4A 3573   7.884   3.691   5.701
  272POPC   C1B 3574   7.781   3.126   4.643
  272POPC   C2B 3575   7.992   2.984   4.990
  272POPC   C3B 3576   7.879   3.132   5.399
  272POPC   C4B 3577   8.133   3.256   5.765
  273POPC   NC3 3578   2.204   1.010   3.870
  273POPC   PO4 3579   2.353   1.670   3.918
  273POPC   GL1 3580   2.149   1.450   4.276
  273POPC   GL2 3581   2.013   1.123   4.332
  273POPC   C1A 3582   2.084   1.421   4.730
  273POPC   D2A 3583   2.362   1.335   5.052
  273POPC   C3A 3584   2.177   1.435   5.405
  273POPC   C4A 3585   2.315   1.445   5.793
  273POPC   C1B 3586   1.807   0.984   4.726
  273POPC   C2B 3587   1.945   1.031   5.150
  273POPC   C3B 3588   1.846   1.046   5.577
  273POPC   C4B 3589   1.726   1.388   5.670
  274POPC   NC3 3590   7.233   7.774   3.992
  274POPC   PO4 3591   7.598   8.323   4.018
  274POPC   GL1 3592   7.308   8.153   4.335
  274POPC   GL2 3593   7.364   7.818   4.487
  274POPC   C1A 3594   7.055   8.189   4.696
  274POPC   D2A 3595   7.267   8.274   5.062
  274POPC   C3A 3596   7.182   8.047   5.391
  274POPC   C4A 3597   7.291   8.161   5.742
  274POPC   C1B 3598   7.246   7.769   4.960
  274POPC   C2B 3599   6.920   7.617   5.294
  274POPC   C3B 3600   6.854   7.713   5.745
  274POPC   C4B 3601   6.746   7.565   6.196
  275POPC   NC3 3602   4.213   2.120   3.774
  275POPC   PO4 3603   4.571   1.642   4.089
  275POPC   GL1 3604   4.456   1.791   4.453
  275POPC   GL2 3605   4.159   1.931   4.270
  275POPC   C1A 3606   4.516   1.888   4.879
  275POPC   D2A 3607   4.502   1.895   5.319
  275POPC   C3A 3608   4.421   2.227   5.599
  275POPC   C4A 3609   4.225   2.072   5.966
  275POPC   C1B 3610   4.017   1.824   4.693
  275POPC   C2B 3611   4.057   1.705   5.122
  275POPC   C3B 3612   4.002   1.834   5.558
  275POPC   C4B 3613   3.776   1.765   5.943
  276POPC   NC3 3614   2.407   9.193   4.192
  276POPC   PO4 3615   1.942   9.365   3.738
  276POPC   GL1 3616   1.900   9.280   4.222
  276POPC   GL2 3617   1.618   9.063   4.249
  276POPC   C1A 3618   2.084   9.354   4.705
  276POPC   D2A 3619   2.377   9.342   5.066
  276POPC   C3A 3620   2.150   9.547   5.401
  276POPC   C4A 3621   2.027   9.481   5.801
  276POPC   C1B 3622   1.588   9.256   4.633
  276POPC   C2B 3623   1.698   9.493   5.007
  276POPC   C3B 3624   1.629   9.461   5.418
  276POPC   C4B 3625   1.618   9.198   5.751
  277POPC   NC3 3626   5.009   1.485   4.185
  277POPC   PO4 3627   5.004   0.914   3.787
  277POPC   GL1 3628   4.791   0.889   4.232
  277POPC   GL2 3629   4.585   1.197   4.346
  277POPC   C1A 3630   4.810   0.946   4.708
  277POPC   D2A 3631   4.582   0.902   5.086
  277POPC   C3A 3632   4.742   0.886   5.493
  277POPC   C4A 3633   4.486   1.062   5.830
  277POPC   C1B 3634   4.764   1.445   4.752
  277POPC   C2B 3635   4.947   1.272   5.133
  277POPC   C3B 3636   4.842   1.377   5.558
  277POPC   C4B 3637   5.078   1.529   5.890
  278POPC   NC3 3638   0.826   0.505   4.096
  278POPC   PO4 3639   0.211   0.818   3.972
  278POPC   GL1 3640   0.353   0.677   4.365
  278POPC   GL2 3641   0.161   0.383   4.348
  278POPC   C1A 3642   0.522   0.430   4.727
  278POPC   D2A 3643   0.758   0.453   5.106
  278POPC   C3A 3644   0.523   0.641   5.420
  278POPC   C4A 3645   0.447   0.564   5.827
  278POPC   C1B 3646  10.469   0.434   4.750
  278POPC   C2B 3647   0.177   0.395   5.138
  278POPC   C3B 3648   0.202   0.212   5.559
  278POPC   C4B 3649   0.102   0.259   6.037
  279POPC   NC3 3650   0.467   2.254   3.905
  279POPC   PO4 3651   0.685   1.692   4.197
  279POPC   GL1 3652   0.347   1.782   4.392
  279POPC   GL2 3653   0.484   2.140   4.405
  279POPC   C1A 3654   0.285   1.551   4.792
  279POPC   D2A 3655   0.237   1.356   5.207
  279POPC   C3A 3656   0.451   1.549   5.574
  279POPC   C4A 3657   0.212   1.664   5.930
  279POPC   C1B 3658   0.539   2.010   4.803
  279POPC   C2B 3659   0.419   1.874   5.165
  279POPC   C3B 3660   0.226   1.994   5.491
  279POPC   C4B 3661   0.470   2.060   5.809
  280POPC   NC3 3662   9.863   4.326   3.930
  280POPC   PO4 3663   0.025   3.954   4.017
  280POPC   GL1 3664  10.266   4.155   4.264
  280POPC   GL2 3665   9.991   3.989   4.345
  280POPC   C1A 3666  10.328   4.148   4.714
  280POPC   D2A 3667   0.082   4.260   5.060
  280POPC   C3A 3668  10.375   4.201   5.441
  280POPC   C4A 3669  10.375   4.468   5.805
  280POPC   C1B 3670   9.835   4.271   4.658
  280POPC   C2B 3671   9.630   4.266   5.058
  280POPC   C3B 3672   9.793   4.282   5.447
  280POPC   C4B 3673   9.994   4.137   5.768
  281POPC   NC3 3674   2.569   6.469   3.906
  281POPC   PO4 3675   2.910   6.896   3.993
  281POPC   GL1 3676   2.799   6.596   4.351
  281POPC   GL2 3677   2.641   6.235   4.358
  281POPC   C1A 3678   2.929   6.490   4.777
  281POPC   D2A 3679   2.817   6.409   5.195
  281POPC   C3A 3680   3.042   6.481   5.581
  281POPC   C4A 3681   2.951   6.681   5.975
  281POPC   C1B 3682   2.412   6.307   4.774
  281POPC   C2B 3683   2.329   6.266   5.226
  281POPC   C3B 3684   2.574   6.232   5.598
  281POPC   C4B 3685   2.617   5.888   5.888
  282POPC   NC3 3686   2.413  10.301   4.011
  282POPC   PO4 3687   2.262   9.673   4.175
  282POPC   GL1 3688   2.610   9.952   4.355
  282POPC   GL2 3689   2.810  10.287   4.321
  282POPC   C1A 3690   2.545  10.103   4.764
  282POPC   D2A 3691   2.418   9.902   5.120
  282POPC   C3A 3692   2.612  10.080   5.501
  282POPC   C4A 3693   2.510  10.198   5.930
  282POPC   C1B 3694   2.824   0.009   4.733
  282POPC   C2B 3695   2.716  10.460   5.151
  282POPC   C3B 3696   2.961  10.464   5.525
  282POPC   C4B 3697   2.975  10.408   5.978
  283POPC   NC3 3698   5.365   0.683   4.024
  283POPC   PO4 3699   5.997   0.883   3.905
  283POPC   GL1 3700   5.900   0.528   4.268
  283POPC   GL2 3701   5.648   0.222   4.293
  283POPC   C1A 3702   5.722   0.473   4.720
  283POPC   D2A 3703   5.591   0.698   5.106
  283POPC   C3A 3704   5.837   0.723   5.473
  283POPC   C4A 3705   5.856   0.472   5.890
  283POPC   C1B 3706   5.371   0.103   4.655
  283POPC   C2B 3707   5.434   0.186   5.081
  283POPC   C3B 3708   5.557   0.302   5.487
  283POPC   C4B 3709   5.396   0.239   5.896
  284POPC   NC3 3710   4.609   1.202   3.830
  284POPC   PO4 3711   3.948   0.866   3.996
  284POPC   GL1 3712   4.047   1.047   4.370
  284POPC   GL2 3713   4.114   1.413   4.390
  284POPC   C1A 3714   3.857   0.929   4.762
  284POPC   D2A 3715   3.949   1.169   5.121
  284POPC   C3A 3716   4.117   1.008   5.475
  284POPC   C4A 3717   3.951   0.854   5.839
  284POPC   C1B 3718   4.293   1.267   4.767
  284POPC   C2B 3719   4.455   1.391   5.163
  284POPC   C3B 3720   4.334   1.464   5.559
  284POPC   C4B 3721   4.245   1.555   5.978
  285POPC   NC3 3722   3.224   5.229   4.029
  285POPC   PO4 3723   2.663   5.356   3.824
  285POPC   GL1 3724   2.396   5.329   4.215
  285POPC   GL2 3725   2.322   5.683   4.324
  285POPC   C1A 3726   2.389   5.287   4.678
  285POPC   D2A 3727   2.511   5.450   5.064
  285POPC   C3A 3728   2.750   5.440   5.415
  285POPC   C4A 3729   2.723   5.393   5.832
  285POPC   C1B 3730   2.598   5.794   4.668
  285POPC   C2B 3731   2.696   5.925   5.111
  285POPC   C3B 3732   2.961   5.925   5.489
  285POPC   C4B 3733   3.186   5.616   5.736
  286POPC   NC3 3734   4.788   9.389   3.905
  286POPC   PO4 3735   5.115   9.864   4.084
  286POPC   GL1 3736   4.832   9.631   4.359
  286POPC   GL2 3737   4.895   9.257   4.385
  286POPC   C1A 3738   4.512   9.630   4.693
  286POPC   D2A 3739   4.565   9.593   5.153
  286POPC   C3A 3740   4.633   9.688   5.599
  286POPC   C4A 3741   4.611   9.697   6.063
  286POPC   C1B 3742   4.888   9.306   4.822
  286POPC   C2B 3743   4.936   9.072   5.183
  286POPC   C3B 3744   5.162   9.117   5.559
  286POPC   C4B 3745   4.899   9.327   5.846
  287POPC   NC3 3746   7.857   5.237   3.766
  287POPC   PO4 3747   7.762   5.821   3.903
  287POPC   GL1 3748   7.922   5.604   4.277
  287POPC   GL2 3749   8.240   5.703   4.410
  287POPC   C1A 3750   7.842   5.671   4.741
  287POPC   D2A 3751   8.022   5.589   5.197
  287POPC   C3A 3752   7.722   5.719   5.561
  287POPC   C4A 3753   7.485   5.578   5.961
  287POPC   C1B 3754   8.361   5.828   4.820
  287POPC   C2B 3755   8.530   5.717   5.224
  287POPC   C3B 3756   8.348   5.538   5.597
  287POPC   C4B 3757   8.107   5.765   5.878
  288POPC   NC3 3758   9.780   9.283   3.760
  288POPC   PO4 3759  10.471   9.064   3.866
  288POPC   GL1 3760  10.206   9.160   4.227
  288POPC   GL2 3761  10.037   9.518   4.233
  288POPC   C1A 3762  10.190   9.059   4.661
  288POPC   D2A 3763  10.178   9.213   5.069
  288POPC   C3A 3764  10.257   8.985   5.437
  288POPC   C4A 3765  10.190   9.100   5.877
  288POPC   C1B 3766  10.272   9.575   4.648
  288POPC   C2B 3767  10.324   9.707   5.097
  288POPC   C3B 3768  10.250   9.515   5.501
  288POPC   C4B 3769   9.943   9.579   5.820
  289POPC   NC3 3770   9.284   9.004   4.009
  289POPC   PO4 3771   9.416   9.628   3.797
  289POPC   GL1 3772   9.521   9.547   4.299
  289POPC   GL2 3773   9.322   9.586   4.573
  289POPC   C1A 3774   9.784   9.421   4.734
  289POPC   D2A 3775   9.807   9.509   5.220
  289POPC   C3A 3776   9.803   9.177   5.560
  289POPC   C4A 3777   9.708   9.187   6.056
  289POPC   C1B 3778   9.326   9.425   4.961
  289POPC   C2B 3779   9.066   9.149   5.115
  289POPC   C3B 3780   9.111   9.314   5.506
  289POPC   C4B 3781   9.432   9.478   5.693
  290POPC   NC3 3782   8.891   9.705   3.944
  290POPC   PO4 3783   8.684   9.044   4.029
  290POPC   GL1 3784   8.887   9.301   4.337
  290POPC   GL2 3785   8.582   9.472   4.321
  290POPC   C1A 3786   8.832   9.507   4.775
  290POPC   D2A 3787   8.748   9.557   5.228
  290POPC   C3A 3788   8.976   9.799   5.495
  290POPC   C4A 3789   9.038   9.731   5.919
  290POPC   C1B 3790   8.446   9.158   4.631
  290POPC   C2B 3791   8.567   9.012   5.037
  290POPC   C3B 3792   8.686   9.066   5.432
  290POPC   C4B 3793   8.678   9.358   5.767
  291POPC   NC3 3794   2.466   4.923   3.856
  291POPC   PO4 3795   3.135   4.783   4.001
  291POPC   GL1 3796   2.817   5.017   4.225
  291POPC   GL2 3797   2.565   4.850   4.376
  291POPC   C1A 3798   2.879   5.212   4.630
  291POPC   D2A 3799   2.835   5.049   5.059
  291POPC   C3A 3800   3.113   5.064   5.433
  291POPC   C4A 3801   3.082   5.007   5.882
  291POPC   C1B 3802   2.372   4.780   4.768
  291POPC   C2B 3803   2.369   4.928   5.175
  291POPC   C3B 3804   2.635   4.923   5.557
  291POPC   C4B 3805   2.505   4.971   5.978
  292POPC   NC3 3806  10.219   8.624   3.789
  292POPC   PO4 3807   9.587   8.736   3.727
  292POPC   GL1 3808   9.877   8.631   4.161
  292POPC   GL2 3809  10.223   8.635   4.286
  292POPC   C1A 3810   9.888   8.647   4.667
  292POPC   D2A 3811  10.072   8.686   5.038
  292POPC   C3A 3812   9.855   8.683   5.424
  292POPC   C4A 3813   9.753   8.724   5.834
  292POPC   C1B 3814  10.334   8.313   4.583
  292POPC   C2B 3815  10.488   8.359   4.992
  292POPC   C3B 3816  10.295   8.425   5.399
  292POPC   C4B 3817  10.225   8.581   5.768
  293POPC   NC3 3818   8.333   9.287   3.880
  293POPC   PO4 3819   7.696   9.475   3.744
  293POPC   GL1 3820   7.677   9.345   4.201
  293POPC   GL2 3821   8.037   9.312   4.289
  293POPC   C1A 3822   7.723   9.406   4.679
  293POPC   D2A 3823   7.821   9.474   5.129
  293POPC   C3A 3824   7.630   9.290   5.484
  293POPC   C4A 3825   7.482   9.445   5.843
  293POPC   C1B 3826   8.188   9.608   4.613
  293POPC   C2B 3827   8.313   9.464   5.017
  293POPC   C3B 3828   8.239   9.337   5.444
  293POPC   C4B 3829   7.995   9.544   5.756
  294POPC   NC3 3830   1.008   8.545   3.828
  294POPC   PO4 3831   1.485   8.184   3.950
  294POPC   GL1 3832   1.282   8.386   4.276
  294POPC   GL2 3833   1.218   8.741   4.239
  294POPC   C1A 3834   1.105   8.356   4.685
  294POPC   D2A 3835   0.988   8.559   5.075
  294POPC   C3A 3836   0.903   8.335   5.464
  294POPC   C4A 3837   0.958   8.603   5.813
  294POPC   C1B 3838   1.356   8.797   4.641
  294POPC   C2B 3839   1.500   8.613   4.999
  294POPC   C3B 3840   1.445   8.552   5.423
  294POPC   C4B 3841   1.448   8.738   5.812
  295POPC   NC3 3842   1.442   0.956   4.130
  295POPC   PO4 3843   1.106   1.430   3.753
  295POPC   GL1 3844   1.124   1.405   4.236
  295POPC   GL2 3845   1.080   1.108   4.418
  295POPC   C1A 3846   1.052   1.524   4.701
  295POPC   D2A 3847   0.778   1.512   5.072
  295POPC   C3A 3848   1.035   1.433   5.456
  295POPC   C4A 3849   1.030   1.416   5.900
  295POPC   C1B 3850   1.326   1.107   4.810
  295POPC   C2B 3851   1.458   1.231   5.231
  295POPC   C3B 3852   1.329   1.051   5.608
  295POPC   C4B 3853   1.234   0.829   5.924
  296POPC   NC3 3854   7.946   1.740   3.918
  296POPC   PO4 3855   7.401   1.628   4.151
  296POPC   GL1 3856   7.717   1.785   4.371
  296POPC   GL2 3857   7.755   2.136   4.246
  296POPC   C1A 3858   7.949   1.621   4.710
  296POPC   D2A 3859   7.980   1.418   5.112
  296POPC   C3A 3860   7.994   1.688   5.487
  296POPC   C4A 3861   7.778   1.902   5.798
  296POPC   C1B 3862   7.833   2.143   4.704
  296POPC   C2B 3863   8.018   1.979   5.079
  296POPC   C3B 3864   7.980   2.195   5.449
  296POPC   C4B 3865   8.048   2.380   5.828
  297POPC   NC3 3866   2.528   1.991   3.637
  297POPC   PO4 3867   3.020   2.012   4.007
  297POPC   GL1 3868   2.679   2.026   4.237
  297POPC   GL2 3869   2.584   1.709   4.364
  297POPC   C1A 3870   2.557   2.164   4.663
  297POPC   D2A 3871   2.694   2.377   5.024
  297POPC   C3A 3872   2.588   2.312   5.438
  297POPC   C4A 3873   2.532   2.296   5.890
  297POPC   C1B 3874   2.592   1.667   4.751
  297POPC   C2B 3875   2.608   1.855   5.122
  297POPC   C3B 3876   2.756   1.669   5.470
  297POPC   C4B 3877   2.753   1.801   5.858
  298POPC   NC3 3878  10.408   0.123   3.995
  298POPC   PO4 3879  10.227   9.918   3.913
  298POPC   GL1 3880  10.328  10.133   4.265
  298POPC   GL2 3881  10.000  10.182   4.319
  298POPC   C1A 3882  10.389  10.075   4.726
  298POPC   D2A 3883   0.091  10.196   5.123
  298POPC   C3A 3884  10.358  10.278   5.487
  298POPC   C4A 3885  10.357   9.937   5.786
  298POPC   C1B 3886   9.861   9.934   4.661
  298POPC   C2B 3887   9.910  10.008   5.082
  298POPC   C3B 3888   9.932   9.973   5.507
  298POPC   C4B 3889   9.922  10.319   5.813
  299POPC   NC3 3890   0.983   9.526   3.819
  299POPC   PO4 3891   0.811   8.933   3.947
  299POPC   GL1 3892   0.948   9.194   4.286
  299POPC   GL2 3893   1.222   9.416   4.289
  299POPC   C1A 3894   1.069   9.208   4.724
  299POPC   D2A 3895   1.332   9.125   5.064
  299POPC   C3A 3896   1.134   9.291   5.404
  299POPC   C4A 3897   1.052   9.092   5.775
  299POPC   C1B 3898   1.327   9.686   4.658
  299POPC   C2B 3899   1.331   9.856   5.086
  299POPC   C3B 3900   1.246   9.797   5.486
  299POPC   C4B 3901   1.272   9.543   5.830
  300POPC   NC3 3902   7.967   0.468   3.914
  300POPC   PO4 3903   8.483   0.003   3.930
  300POPC   GL1 3904   8.397   0.328   4.256
  300POPC   GL2 3905   8.184   0.609   4.354
  300POPC   C1A 3906   8.245   0.219   4.685
  300POPC   D2A 3907   8.147   0.443   5.054
  300POPC   C3A 3908   8.283   0.240   5.428
  300POPC   C4A 3909   8.085   0.090   5.772
  300POPC   C1B 3910   7.837   0.603   4.650
  300POPC   C2B 3911   7.636   0.494   5.046
  300POPC   C3B 3912   7.797   0.386   5.435
  300POPC   C4B 3913   7.951   0.695   5.704
  301POPC   NC3 3914   4.103   8.816   3.845
  301POPC   PO4 3915   4.409   8.257   3.733
  301POPC   GL1 3916   4.353   8.456   4.184
  301POPC   GL2 3917   4.092   8.650   4.315
  301POPC   C1A 3918   4.473   8.566   4.638
  301POPC   D2A 3919   4.306   8.722   5.041
  301POPC   C3A 3920   4.375   8.535   5.450
  301POPC   C4A 3921   4.306   8.797   5.741
  301POPC   C1B 3922   3.959   8.830   4.682
  301POPC   C2B 3923   3.778   8.601   5.019
  301POPC   C3B 3924   3.895   8.694   5.435
  301POPC   C4B 3925   3.890   8.479   5.839
  302POPC   NC3 3926   9.961   3.664   3.977
  302POPC   PO4 3927   0.030   3.289   3.850
  302POPC   GL1 3928  10.387   3.512   4.257
  302POPC   GL2 3929  10.042   3.412   4.406
  302POPC   C1A 3930  10.394   3.644   4.726
  302POPC   D2A 3931  10.235   3.502   5.151
  302POPC   C3A 3932  10.337   3.679   5.563
  302POPC   C4A 3933  10.449   3.386   5.930
  302POPC   C1B 3934   9.875   3.692   4.729
  302POPC   C2B 3935   9.990   3.933   5.095
  302POPC   C3B 3936   9.833   3.734   5.471
  302POPC   C4B 3937   9.973   3.323   5.615
  303POPC   NC3 3938   0.899   6.351   3.716
  303POPC   PO4 3939   1.461   6.114   3.878
  303POPC   GL1 3940   1.416   6.245   4.278
  303POPC   GL2 3941   1.146   6.497   4.241
  303POPC   C1A 3942   1.460   6.356   4.690
  303POPC   D2A 3943   1.337   6.123   5.033
  303POPC   C3A 3944   1.404   6.299   5.406
  303POPC   C4A 3945   1.364   6.094   5.774
  303POPC   C1B 3946   0.980   6.544   4.687
  303POPC   C2B 3947   0.995   6.490   5.159
  303POPC   C3B 3948   0.975   6.495   5.647
  303POPC   C4B 3949   0.824   6.618   6.103
  304POPC   NC3 3950  10.003   5.925   4.044
  304POPC   PO4 3951   0.070   5.631   3.792
  304POPC   GL1 3952  10.356   5.514   4.258
  304POPC   GL2 3953  10.044   5.471   4.276
  304POPC   C1A 3954  10.231   5.692   4.710
  304POPC   D2A 3955   0.019   5.845   5.010
  304POPC   C3A 3956  10.366   5.650   5.360
  304POPC   C4A 3957  10.491   5.585   5.749
  304POPC   C1B 3958   9.790   5.423   4.676
  304POPC   C2B 3959   9.925   5.490   5.094
  304POPC   C3B 3960   9.827   5.570   5.495
  304POPC   C4B 3961  10.035   5.833   5.682
  305POPC   NC3 3962   8.362   4.782   3.885
  305POPC   PO4 3963   9.068   4.718   4.022
  305POPC   GL1 3964   8.798   4.686   4.341
  305POPC   GL2 3965   8.768   5.054   4.327
  305POPC   C1A 3966   8.867   4.612   4.775
  305POPC   D2A 3967   8.753   4.799   5.174
  305POPC   C3A 3968   8.765   4.809   5.597
  305POPC   C4A 3969   8.935   4.526   5.848
  305POPC   C1B 3970   8.593   5.023   4.748
  305POPC   C2B 3971   8.415   5.180   5.186
  305POPC   C3B 3972   8.311   5.025   5.597
  305POPC   C4B 3973   8.382   5.183   6.019
  306POPC   NC3 3974   1.054   2.966   3.732
  306POPC   PO4 3975   0.885   2.310   4.124
  306POPC   GL1 3976   0.965   2.462   4.440
  306POPC   GL2 3977   1.283   2.376   4.479
  306POPC   C1A 3978   0.765   2.466   4.785
  306POPC   D2A 3979   0.847   2.708   5.096
  306POPC   C3A 3980   1.076   2.594   5.444
  306POPC   C4A 3981   0.820   2.366   5.632
  306POPC   C1B 3982   1.269   2.447   4.935
  306POPC   C2B 3983   1.337   2.859   5.096
  306POPC   C3B 3984   1.388   3.014   5.486
  306POPC   C4B 3985   1.309   2.933   5.912
  307POPC   NC3 3986   8.009   8.143   3.905
  307POPC   PO4 3987   7.650   7.489   3.865
  307POPC   GL1 3988   7.871   7.719   4.241
  307POPC   GL2 3989   7.833   8.042   4.368
  307POPC   C1A 3990   8.085   7.736   4.687
  307POPC   D2A 3991   8.033   7.591   5.119
  307POPC   C3A 3992   8.114   7.789   5.519
  307POPC   C4A 3993   8.291   7.814   5.936
  307POPC   C1B 3994   7.669   8.090   4.763
  307POPC   C2B 3995   7.693   7.985   5.164
  307POPC   C3B 3996   7.617   7.814   5.528
  307POPC   C4B 3997   7.796   8.110   5.741
  308POPC   NC3 3998   4.334   7.845   3.900
  308POPC   PO4 3999   3.866   8.419   3.912
  308POPC   GL1 4000   3.921   8.155   4.265
  308POPC   GL2 4001   4.059   7.807   4.307
  308POPC   C1A 4002   4.021   8.286   4.677
  308POPC   D2A 4003   4.191   8.243   5.070
  308POPC   C3A 4004   4.045   8.159   5.478
  308POPC   C4A 4005   4.150   8.063   5.951
  308POPC   C1B 4006   4.219   7.811   4.750
  308POPC   C2B 4007   4.235   7.746   5.176
  308POPC   C3B 4008   4.326   7.746   5.593
  308POPC   C4B 4009   3.951   7.541   5.766
  309POPC   NC3 4010   0.822  10.229   3.899
  309POPC   PO4 4011   1.289   9.810   3.990
  309POPC   GL1 4012   1.027   9.982   4.306
  309POPC   GL2 4013   1.020  10.376   4.356
  309POPC   C1A 4014   0.998  10.055   4.745
  309POPC   D2A 4015   0.844  10.130   5.129
  309POPC   C3A 4016   0.747   9.845   5.432
  309POPC   C4A 4017   0.877   9.837   5.835
  309POPC   C1B 4018   0.929   0.065   4.792
  309POPC   C2B 4019   1.111   0.060   5.224
  309POPC   C3B 4020   1.049  10.269   5.590
  309POPC   C4B 4021   1.328  10.102   5.920
  310POPC   NC3 4022   3.409   8.806   3.913
  310POPC   PO4 4023   3.219   8.278   3.639
  310POPC   GL1 4024   3.434   8.387   4.184
  310POPC   GL2 4025   3.584   8.720   4.360
  310POPC   C1A 4026   3.505   8.309   4.636
  310POPC   D2A 4027   3.316   8.290   5.049
  310POPC   C3A 4028   3.531   8.356   5.408
  310POPC   C4A 4029   3.360   8.409   5.788
  310POPC   C1B 4030   3.351   8.781   4.747
  310POPC   C2B 4031   3.285   8.803   5.158
  310POPC   C3B 4032   3.324   9.022   5.482
  310POPC   C4B 4033   3.566   8.873   5.799
  311POPC   NC3 4034   8.667   2.930   3.925
  311POPC   PO4 4035   9.084   2.412   3.893
  311POPC   GL1 4036   8.895   2.442   4.279
  311POPC   GL2 4037   8.558   2.578   4.291
  311POPC   C1A 4038   8.783   2.373   4.709
  311POPC   D2A 4039   9.047   2.459   5.072
  311POPC   C3A 4040   8.944   2.478   5.497
  311POPC   C4A 4041   8.814   2.470   5.951
  311POPC   C1B 4042   8.554   2.820   4.699
  311POPC   C2B 4043   8.589   2.691   5.153
  311POPC   C3B 4044   8.602   2.836   5.594
  311POPC   C4B 4045   8.350   2.818   5.928
  312POPC   NC3 4046   8.860   2.009   3.855
  312POPC   PO4 4047   8.365   1.526   3.905
  312POPC   GL1 4048   8.318   1.818   4.278
  312POPC   GL2 4049   8.653   1.981   4.320
  312POPC   C1A 4050   8.330   2.055   4.685
  312POPC   D2A 4051   8.517   2.155   5.073
  312POPC   C3A 4052   8.430   1.944   5.429
  312POPC   C4A 4053   8.479   2.324   5.610
  312POPC   C1B 4054   8.820   1.830   4.723
  312POPC   C2B 4055   8.983   1.949   5.150
  312POPC   C3B 4056   8.904   1.975   5.593
  312POPC   C4B 4057   9.016   1.748   5.967
  313POPC   NC3 4058   7.892   4.280   4.078
  313POPC   PO4 4059   8.443   4.357   3.695
  313POPC   GL1 4060   8.404   4.379   4.184
  313POPC   GL2 4061   8.607   4.121   4.289
  313POPC   C1A 4062   8.417   4.411   4.661
  313POPC   D2A 4063   8.606   4.293   5.069
  313POPC   C3A 4064   8.478   4.413   5.484
  313POPC   C4A 4065   8.435   4.169   5.829
  313POPC   C1B 4066   8.889   4.114   4.640
  313POPC   C2B 4067   9.010   3.987   5.039
  313POPC   C3B 4068   8.923   4.164   5.461
  313POPC   C4B 4069   8.926   4.007   5.836
  314POPC   NC3 4070   3.563   8.047   3.845
  314POPC   PO4 4071   2.964   8.262   4.112
  314POPC   GL1 4072   3.145   7.902   4.281
  314POPC   GL2 4073   3.490   7.858   4.294
  314POPC   C1A 4074   3.243   7.883   4.741
  314POPC   D2A 4075   3.278   7.733   5.144
  314POPC   C3A 4076   3.252   7.955   5.529
  314POPC   C4A 4077   2.962   8.077   5.814
  314POPC   C1B 4078   3.727   7.852   4.658
  314POPC   C2B 4079   3.743   7.997   5.045
  314POPC   C3B 4080   3.714   7.786   5.406
  314POPC   C4B 4081   3.684   8.007   5.796
  315POPC   NC3 4082   2.830   8.006   3.757
  315POPC   PO4 4083   2.312   8.450   3.898
  315POPC   GL1 4084   2.473   8.288   4.272
  315POPC   GL2 4085   2.559   7.928   4.207
  315POPC   C1A 4086   2.392   8.194   4.701
  315POPC   D2A 4087   2.428   8.305   5.122
  315POPC   C3A 4088   2.453   8.112   5.457
  315POPC   C4A 4089   2.214   8.033   5.785
  315POPC   C1B 4090   2.763   7.878   4.614
  315POPC   C2B 4091   2.861   8.039   5.035
  315POPC   C3B 4092   2.813   7.784   5.376
  315POPC   C4B 4093   2.614   7.720   5.760
  316POPC   NC3 4094   0.300   2.894   3.798
  316POPC   PO4 4095   0.813   2.540   3.681
  316POPC   GL1 4096   0.721   2.775   4.094
  316POPC   GL2 4097   0.421   2.633   4.248
  316POPC   C1A 4098   0.712   2.899   4.549
  316POPC   D2A 4099   0.425   2.935   4.917
  316POPC   C3A 4100   0.457   2.909   5.362
  316POPC   C4A 4101   0.638   2.809   5.770
  316POPC   C1B 4102   0.262   2.507   4.682
  316POPC   C2B 4103   0.386   2.415   5.137
  316POPC   C3B 4104   0.303   2.482   5.581
  316POPC   C4B 4105   0.169   2.522   6.010
  317POPC   NC3 4106   2.031   2.676   3.880
  317POPC   PO4 4107   1.522   2.212   4.048
  317POPC   GL1 4108   1.687   2.578   4.261
  317POPC   GL2 4109   2.014   2.570   4.368
  317POPC   C1A 4110   1.653   2.696   4.708
  317POPC   D2A 4111   1.763   2.515   5.133
  317POPC   C3A 4112   1.602   2.541   5.550
  317POPC   C4A 4113   1.783   2.870   5.782
  317POPC   C1B 4114   2.131   2.441   4.764
  317POPC   C2B 4115   2.259   2.650   5.150
  317POPC   C3B 4116   2.156   2.564   5.572
  317POPC   C4B 4117   2.088   2.499   6.001
  318POPC   NC3 4118  10.216   1.915   3.840
  318POPC   PO4 4119   0.046   2.525   3.888
  318POPC   GL1 4120   0.004   2.145   4.228
  318POPC   GL2 4121  10.152   1.994   4.353
  318POPC   C1A 4122   0.026   2.040   4.711
  318POPC   D2A 4123  10.416   1.773   5.097
  318POPC   C3A 4124  10.231   1.932   5.484
  318POPC   C4A 4125  10.296   2.370   5.633
  318POPC   C1B 4126   9.981   1.950   4.805
  318POPC   C2B 4127   9.927   2.214   5.188
  318POPC   C3B 4128   9.807   2.162   5.646
  318POPC   C4B 4129   9.978   1.906   5.968
  319POPC   NC3 4130   7.788   6.288   3.864
  319POPC   PO4 4131   8.193   6.781   3.605
  319POPC   GL1 4132   8.166   6.812   4.173
  319POPC   GL2 4133   8.168   6.461   4.243
  319POPC   C1A 4134   7.982   6.797   4.609
  319POPC   D2A 4135   7.928   6.547   4.986
  319POPC   C3A 4136   8.113   6.612   5.404
  319POPC   C4A 4137   7.936   6.796   5.796
  319POPC   C1B 4138   8.033   6.179   4.601
  319POPC   C2B 4139   7.944   6.055   5.048
  319POPC   C3B 4140   8.159   6.042   5.445
  319POPC   C4B 4141   8.008   6.275   5.792
  320POPC   NC3 4142   5.026  10.257   3.857
  320POPC   PO4 4143   4.438   0.099   3.914
  320POPC   GL1 4144   4.587  10.365   4.307
  320POPC   GL2 4145   4.953  10.315   4.367
  320POPC   C1A 4146   4.679  10.472   4.756
  320POPC   D2A 4147   4.975  10.434   5.087
  320POPC   C3A 4148   4.833  10.126   5.396
  320POPC   C4A 4149   4.623  10.166   5.812
  320POPC   C1B 4150   4.863  10.003   4.723
  320POPC   C2B 4151   5.068   9.756   5.045
  320POPC   C3B 4152   5.232   9.756   5.465
  320POPC   C4B 4153   5.063   9.908   5.857
  321POPC   NC3 4154   7.707   2.741   3.717
  321POPC   PO4 4155   8.225   3.078   3.902
  321POPC   GL1 4156   8.121   2.899   4.290
  321POPC   GL2 4157   7.821   2.725   4.232
  321POPC   C1A 4158   8.140   2.563   4.614
  321POPC   D2A 4159   8.088   2.477   5.045
  321POPC   C3A 4160   8.132   2.707   5.445
  321POPC   C4A 4161   7.819   2.840   5.809
  321POPC   C1B 4162   7.642   2.621   4.649
  321POPC   C2B 4163   7.533   2.408   5.030
  321POPC   C3B 4164   7.642   2.563   5.412
  321POPC   C4B 4165   7.546   2.388   5.790
  322POPC   NC3 4166   3.755   2.836   3.975
  322POPC   PO4 4167   3.234   2.577   4.023
  322POPC   GL1 4168   3.445   2.448   4.428
  322POPC   GL2 4169   3.756   2.667   4.442
  322POPC   C1A 4170   3.742   2.305   4.766
  322POPC   D2A 4171   3.917   2.660   4.991
  322POPC   C3A 4172   3.674   2.718   5.387
  322POPC   C4A 4173   3.425   2.409   5.654
  322POPC   C1B 4174   3.424   2.928   4.617
  322POPC   C2B 4175   3.258   3.088   4.997
  322POPC   C3B 4176   3.068   3.061   5.404
  322POPC   C4B 4177   3.273   2.905   5.718
  323POPC   NC3 4178   1.106   3.815   3.912
  323POPC   PO4 4179   1.420   4.449   3.885
  323POPC   GL1 4180   1.170   4.251   4.188
  323POPC   GL2 4181   0.951   4.010   4.363
  323POPC   C1A 4182   1.324   4.319   4.593
  323POPC   D2A 4183   1.226   4.510   4.982
  323POPC   C3A 4184   1.197   4.311   5.381
  323POPC   C4A 4185   1.125   4.412   5.800
  323POPC   C1B 4186   0.882   4.163   4.765
  323POPC   C2B 4187   1.238   3.996   4.984
  323POPC   C3B 4188   1.487   3.885   5.331
  323POPC   C4B 4189   1.285   3.921   5.744
  324POPC   NC3 4190   9.498   8.348   3.975
  324POPC   PO4 4191   9.706   9.102   4.164
  324POPC   GL1 4192   9.479   8.829   4.428
  324POPC   GL2 4193   9.494   8.479   4.443
  324POPC   C1A 4194   9.389   8.917   4.784
  324POPC   D2A 4195   9.664   9.024   5.078
  324POPC   C3A 4196   9.410   8.910   5.397
  324POPC   C4A 4197   9.324   8.959   5.775
  324POPC   C1B 4198   9.383   8.393   4.763
  324POPC   C2B 4199   9.500   8.516   5.096
  324POPC   C3B 4200   9.437   8.388   5.489
  324POPC   C4B 4201   9.327   8.455   5.864
  325POPC   NC3 4202   5.689   1.269   3.870
  325POPC   PO4 4203   5.233   1.084   4.234
  325POPC   GL1 4204   5.667   0.974   4.338
  325POPC   GL2 4205   5.967   1.208   4.311
  325POPC   C1A 4206   5.880   0.956   4.750
  325POPC   D2A 4207   6.016   1.276   5.047
  325POPC   C3A 4208   5.840   1.246   5.466
  325POPC   C4A 4209   5.930   0.996   5.880
  325POPC   C1B 4210   5.636   1.397   4.623
  325POPC   C2B 4211   5.462   1.302   5.049
  325POPC   C3B 4212   5.326   1.127   5.469
  325POPC   C4B 4213   5.515   1.292   5.850
  326POPC   NC3 4214  10.363   1.113   3.863
  326POPC   PO4 4215   0.173   1.782   3.810
  326POPC   GL1 4216  10.414   1.575   4.186
  326POPC   GL2 4217  10.234   1.234   4.312
  326POPC   C1A 4218  10.305   1.588   4.630
  326POPC   D2A 4219  10.287   1.290   4.955
  326POPC   C3A 4220  10.159   1.401   5.363
  326POPC   C4A 4221  10.273   1.518   5.780
  326POPC   C1B 4222  10.106   0.933   4.632
  326POPC   C2B 4223  10.104   0.702   5.023
  326POPC   C3B 4224   9.991   0.757   5.417
  326POPC   C4B 4225  10.121   1.045   5.741
  327POPC   NC3 4226   1.096   1.893   4.075
  327POPC   PO4 4227   1.636   1.390   4.141
  327POPC   GL1 4228   1.676   1.620   4.475
  327POPC   GL2 4229   1.401   1.855   4.471
  327POPC   C1A 4230   1.564   1.586   4.884
  327POPC   D2A 4231   1.228   1.781   5.136
  327POPC   C3A 4232   1.315   2.086   5.472
  327POPC   C4A 4233   1.391   1.747   5.736
  327POPC   C1B 4234   1.043   2.030   4.736
  327POPC   C2B 4235   0.878   2.152   5.159
  327POPC   C3B 4236   0.838   1.886   5.504
  327POPC   C4B 4237   0.992   1.990   5.927
  328POPC   NC3 4238   9.289   3.555   3.869
  328POPC   PO4 4239   9.872   3.201   3.947
  328POPC   GL1 4240   9.531   3.285   4.256
  328POPC   GL2 4241   9.524   3.640   4.332
  328POPC   C1A 4242   9.481   3.317   4.725
  328POPC   D2A 4243   9.745   3.297   5.093
  328POPC   C3A 4244   9.491   3.234   5.448
  328POPC   C4A 4245   9.589   3.086   5.866
  328POPC   C1B 4246   9.105   3.631   4.592
  328POPC   C2B 4247   9.036   3.472   5.033
  328POPC   C3B 4248   8.977   3.625   5.432
  328POPC   C4B 4249   9.249   3.556   5.749
  329POPC   NC3 4250   9.480   2.167   3.936
  329POPC   PO4 4251   9.073   1.611   4.011
  329POPC   GL1 4252   9.165   1.970   4.284
  329POPC   GL2 4253   9.474   1.831   4.386
  329POPC   C1A 4254   9.229   2.153   4.700
  329POPC   D2A 4255   9.478   2.047   5.039
  329POPC   C3A 4256   9.369   2.227   5.408
  329POPC   C4A 4257   9.269   2.211   5.845
  329POPC   C1B 4258   9.309   1.641   4.779
  329POPC   C2B 4259   9.451   1.568   5.219
  329POPC   C3B 4260   9.385   1.767   5.613
  329POPC   C4B 4261   9.502   1.758   6.092
  330POPC   NC3 4262   0.290   7.101   3.838
  330POPC   PO4 4263   0.044   6.521   3.889
  330POPC   GL1 4264   0.214   6.842   4.258
  330POPC   GL2 4265   0.348   7.183   4.355
  330POPC   C1A 4266   0.224   6.823   4.714
  330POPC   D2A 4267   0.467   6.989   5.074
  330POPC   C3A 4268   0.216   7.144   5.418
  330POPC   C4A 4269   0.366   7.075   5.821
  330POPC   C1B 4270   0.696   7.266   4.684
  330POPC   C2B 4271   0.878   7.362   5.087
  330POPC   C3B 4272   0.675   7.371   5.480
  330POPC   C4B 4273   0.650   7.502   5.884
  331POPC   NC3 4274   1.499   4.976   3.905
  331POPC   PO4 4275   2.126   4.789   4.135
  331POPC   GL1 4276   2.023   5.035   4.431
  331POPC   GL2 4277   1.698   5.012   4.381
  331POPC   C1A 4278   1.962   5.057   4.861
  331POPC   D2A 4279   2.030   5.355   5.135
  331POPC   C3A 4280   2.245   5.259   5.526
  331POPC   C4A 4281   2.008   5.096   5.889
  331POPC   C1B 4282   1.683   4.668   4.688
  331POPC   C2B 4283   1.616   4.783   5.126
  331POPC   C3B 4284   1.899   4.905   5.400
  331POPC   C4B 4285   2.189   4.683   5.612
  332POPC   NC3 4286   1.099   7.935   3.957
  332POPC   PO4 4287   0.633   7.413   3.993
  332POPC   GL1 4288   0.764   7.757   4.306
  332POPC   GL2 4289   1.097   7.908   4.436
  332POPC   C1A 4290   0.767   7.773   4.759
  332POPC   D2A 4291   1.021   7.981   5.022
  332POPC   C3A 4292   0.902   7.808   5.374
  332POPC   C4A 4293   1.055   7.809   5.760
  332POPC   C1B 4294   1.458   7.985   4.649
  332POPC   C2B 4295   1.537   8.105   5.057
  332POPC   C3B 4296   1.344   8.063   5.436
  332POPC   C4B 4297   1.354   8.229   5.842
  333POPC   NC3 4298  10.078   6.471   3.969
  333POPC   PO4 4299  10.434   5.990   4.199
  333POPC   GL1 4300  10.150   6.249   4.416
  333POPC   GL2 4301  10.294   6.577   4.402
  333POPC   C1A 4302  10.073   6.279   4.825
  333POPC   D2A 4303  10.065   6.025   5.188
  333POPC   C3A 4304  10.406   6.148   5.451
  333POPC   C4A 4305  10.235   6.244   5.834
  333POPC   C1B 4306  10.176   6.807   4.724
  333POPC   C2B 4307  10.032   6.707   5.131
  333POPC   C3B 4308  10.193   6.618   5.493
  333POPC   C4B 4309  10.481   6.689   5.819
  334POPC   NC3 4310   3.448   3.680   3.859
  334POPC   PO4 4311   3.935   3.287   3.937
  334POPC   GL1 4312   3.645   3.253   4.281
  334POPC   GL2 4313   3.286   3.402   4.283
  334POPC   C1A 4314   3.592   3.414   4.713
  334POPC   D2A 4315   3.450   3.560   5.113
  334POPC   C3A 4316   3.541   3.240   5.416
  334POPC   C4A 4317   3.640   3.248   5.842
  334POPC   C1B 4318   3.067   3.494   4.699
  334POPC   C2B 4319   2.912   3.454   5.125
  334POPC   C3B 4320   3.127   3.544   5.518
  334POPC   C4B 4321   3.561   3.711   5.616
  335POPC   NC3 4322  10.355   5.195   3.866
  335POPC   PO4 4323  10.271   4.473   3.822
  335POPC   GL1 4324  10.288   4.669   4.227
  335POPC   GL2 4325  10.283   4.998   4.311
  335POPC   C1A 4326  10.185   4.651   4.673
  335POPC   D2A 4327  10.104   4.457   5.059
  335POPC   C3A 4328  10.138   4.663   5.414
  335POPC   C4A 4329   9.959   4.794   5.765
  335POPC   C1B 4330  10.209   5.164   4.667
  335POPC   C2B 4331  10.095   5.018   5.059
  335POPC   C3B 4332  10.242   5.156   5.456
  335POPC   C4B 4333  10.109   5.285   5.828
  336POPC   NC3 4334   6.352   1.191   3.815
  336POPC   PO4 4335   6.739   1.750   3.607
  336POPC   GL1 4336   6.667   1.514   4.100
  336POPC   GL2 4337   6.559   1.160   4.267
  336POPC   C1A 4338   6.728   1.482   4.605
  336POPC   D2A 4339   6.547   1.291   4.986
  336POPC   C3A 4340   6.653   1.344   5.413
  336POPC   C4A 4341   6.672   1.118   5.838
  336POPC   C1B 4342   6.382   0.956   4.630
  336POPC   C2B 4343   6.302   0.813   5.064
  336POPC   C3B 4344   6.293   0.991   5.470
  336POPC   C4B 4345   6.252   1.368   5.745
  337POPC   NC3 4346   2.375   9.678   3.734
  337POPC   PO4 4347   2.739   9.127   3.864
  337POPC   GL1 4348   2.794   9.459   4.312
  337POPC   GL2 4349   2.900   9.227   4.525
  337POPC   C1A 4350   2.743   9.635   4.750
  337POPC   D2A 4351   2.912   9.800   5.126
  337POPC   C3A 4352   2.665   9.575   5.442
  337POPC   C4A 4353   2.474   9.698   5.831
  337POPC   C1B 4354   2.885   8.997   4.860
  337POPC   C2B 4355   2.807   9.035   5.276
  337POPC   C3B 4356   2.613   9.108   5.625
  337POPC   C4B 4357   2.962   9.235   5.827
  338POPC   NC3 4358   6.450   2.531   3.634
  338POPC   PO4 4359   6.426   3.096   4.018
  338POPC   GL1 4360   6.465   2.956   4.431
  338POPC   GL2 4361   6.401   2.611   4.361
  338POPC   C1A 4362   6.504   2.917   4.883
  338POPC   D2A 4363   6.203   2.642   5.115
  338POPC   C3A 4364   6.195   2.772   5.555
  338POPC   C4A 4365   6.464   2.908   5.967
  338POPC   C1B 4366   6.608   2.463   4.697
  338POPC   C2B 4367   6.611   2.337   5.102
  338POPC   C3B 4368   6.650   2.584   5.438
  338POPC   C4B 4369   6.557   2.442   5.833
  339POPC   NC3 4370   1.320   1.025   3.633
  339POPC   PO4 4371   1.299   0.496   4.106
  339POPC   GL1 4372   1.210   0.582   4.472
  339POPC   GL2 4373   1.338   0.250   4.572
  339POPC   C1A 4374   0.936   0.769   4.755
  339POPC   D2A 4375   1.045   0.895   5.197
  339POPC   C3A 4376   1.041   0.565   5.519
  339POPC   C4A 4377   0.759   0.202   5.575
  339POPC   C1B 4378   1.295   0.484   4.963
  339POPC   C2B 4379   1.537   0.722   5.236
  339POPC   C3B 4380   1.547   0.556   5.610
  339POPC   C4B 4381   1.415   0.118   5.669
  340POPC   NC3 4382   1.868   1.773   4.009
  340POPC   PO4 4383   2.326   2.294   3.915
  340POPC   GL1 4384   2.182   2.055   4.310
  340POPC   GL2 4385   1.868   2.093   4.389
  340POPC   C1A 4386   2.129   1.921   4.784
  340POPC   D2A 4387   2.166   2.139   5.194
  340POPC   C3A 4388   2.312   1.911   5.566
  340POPC   C4A 4389   2.283   1.889   6.021
  340POPC   C1B 4390   1.677   2.185   4.733
  340POPC   C2B 4391   1.667   2.027   5.097
  340POPC   C3B 4392   1.807   1.830   5.429
  340POPC   C4B 4393   1.883   2.110   5.749
  341POPC   NC3 4394   8.544   6.726   3.900
  341POPC   PO4 4395   9.146   6.893   3.889
  341POPC   GL1 4396   8.925   6.997   4.309
  341POPC   GL2 4397   8.729   7.288   4.446
  341POPC   C1A 4398   8.513   6.839   4.530
  341POPC   D2A 4399   8.374   6.776   4.944
  341POPC   C3A 4400   8.450   6.983   5.321
  341POPC   C4A 4401   8.437   6.958   5.759
  341POPC   C1B 4402   8.810   7.100   4.819
  341POPC   C2B 4403   8.993   7.100   5.135
  341POPC   C3B 4404   8.942   7.328   5.408
  341POPC   C4B 4405   8.884   7.188   5.778
  342W        W 4406   1.290   4.694  10.473
  343W        W 4407   6.557   2.884   1.426
  344W        W 4408   6.537   8.578   9.094
  345W        W 4409   2.639   8.754  11.377
  346W        W 4410   6.228   6.128   1.314
  347W        W 4411   8.628   1.968   1.224
  348W        W 4412   3.755   7.514  11.557
  349W        W 4413   3.860   1.826   1.730
  350W        W 4414   6.954   3.261   0.065
  351W        W 4415   3.758   7.471   2.333
  352W        W 4416   7.635   7.465   3.078
  353W        W 4417   7.253   2.905  10.938
  354W        W 4418   6.623   6.048   2.530
  355W        W 4419  10.430   4.079   2.340
  356W        W 4420   0.729   2.878  11.585
  357W        W 4421   2.105   0.954  11.408
  358W        W 4422   0.840   2.617   8.762
  359W        W 4423   3.839   2.362  10.513
  360W        W 4424   7.599   0.742  11.922
  361W        W 4425   7.983   6.281  10.359
  362W        W 4426   9.611   5.036   1.979
  363W        W 4427   2.665   7.893   2.237
  364W        W 4428   3.768   6.445  10.488
  365W        W 4429   3.640   8.955   2.276
  366W        W 4430   5.594   9.694   1.307
  367W        W 4431   2.553   8.886   9.206
  368W        W 4432   4.954   4.818   1.672
  369W        W 4433   6.099   8.006   0.893
  370W        W 4434   9.186   3.299   9.353
  371W        W 4435  10.267   4.677   1.621
  372W        W 4436   8.557   9.368   3.232
  373W        W 4437   9.811   1.690  10.520
  374W        W 4438   4.628   4.389  10.875
  375W        W 4439   2.843   9.546   0.907
  376W        W 4440   3.920   8.610  11.470
  377W        W 4441  10.436   0.168   9.897
  378W        W 4442   8.530   8.341  10.392
  379W        W 4443   2.256   4.352   3.282
  380W        W 4444   3.345   9.673   0.986
  381W        W 4445   1.129   4.461   1.793
  382W        W 4446   6.150   8.558  10.918
  383W        W 4447   1.665   6.047   3.397
  384W        W 4448   1.534   9.241   0.402
  385W        W 4449   0.444   1.192   3.126
  386W        W 4450   2.191   7.826  10.993
  387W        W 4451   6.787   9.035  10.319
  388W        W 4452   3.063   7.701  11.931
  389W        W 4453   6.093   7.791  10.627
  390W        W 4454   2.580   5.233   2.851
  391W        W 4455   6.638   8.452  11.100
  392W        W 4456   9.051   9.501   3.096
  393W        W 4457   4.640  10.254   0.038
  394W        W 4458   7.280   6.236   3.870
  395W        W 4459   3.583   4.125   2.682
  396W        W 4460   1.520   9.673   3.530
  397W        W 4461  10.206   9.582   0.152
  398W        W 4462   3.738   7.708   9.953
  399W        W 4463   7.517  10.482   1.371
  400W        W 4464   5.126   4.581   8.240
  401W        W 4465   0.309   9.551  10.118
  402W        W 4466   9.684   9.453   2.441
  403W        W 4467   6.038   3.972   1.265
  404W        W 4468   7.208   1.303  10.336
  405W        W 4469   8.390   7.649   0.768
  406W        W 4470   3.783   0.272  10.065
  407W        W 4471   9.307   4.389   3.082
  408W        W 4472   2.369   3.244   9.358
  409W        W 4473   7.898   4.490  10.888
  410W        W 4474   7.958   7.607   3.460
  411W        W 4475   5.633   6.985   0.425
  412W        W 4476   9.079   9.159   2.150
  413W        W 4477   5.605   7.308   1.874
  414W        W 4478   8.417   6.280   8.590
  415W        W 4479   1.088   9.228   9.645
  416W        W 4480   8.063  10.166  10.181
  417W        W 4481   1.929  10.442   3.291
  418W        W 4482   7.907   0.947   2.280
  419W        W 4483   6.857   4.669   0.044
  420W        W 4484   8.855   3.477   2.406
  421W        W 4485   1.686   2.029   2.292
  422W        W 4486   9.679   8.345   0.788
  423W        W 4487   5.468   7.498  10.004
  424W        W 4488   1.312   7.441  10.943
  425W        W 4489   6.056   4.761  11.443
  426W        W 4490   0.927   9.552   0.421
  427W        W 4491   1.348   9.882   2.398
  428W        W 4492   4.128   4.507   0.204
  429W        W 4493   4.097   9.474   9.841
  430W        W 4494   4.812   3.207  10.297
  431W        W 4495   5.201   7.929   8.930
  432W        W 4496   6.062  10.006   2.777
  433W        W 4497   8.867   4.812  11.817
  434W        W 4498   0.857   7.525   3.106
  435W        W 4499   0.845   4.953   2.632
  436W        W 4500   4.380  10.396  10.011
  437W        W 4501   3.846   0.442  11.452
  438W        W 4502   0.029   7.002  11.330
  439W        W 4503   8.438   3.130   8.838
  440W        W 4504   3.602   6.427   3.661
  441W        W 4505   4.259   8.470   0.746
  442W        W 4506   4.261   8.834  11.109
  443W        W 4507   1.931   5.611   3.342
  444W        W 4508   7.602   8.581   1.279
  445W        W 4509   5.004   7.212   4.072
  446W        W 4510   6.448   9.797  11.485
  447W        W 4511   7.163   0.885   9.187
  448W        W 4512   4.778  10.450  10.599
  449W        W 4513   9.017   5.603   3.491
  450W        W 4514   1.658   6.655   9.333
  451W        W 4515   8.425   4.025   2.205
  452W        W 4516   8.993   6.576   1.462
  453W        W 4517   7.456   7.702   2.669
  454W        W 4518   7.006   5.993   3.105
  455W        W 4519   1.847   6.612  10.855
  456W        W 4520   8.709   3.405   0.073
  457W        W 4521   7.163   0.808   1.005
  458W        W 4522   1.907   5.277   9.109
  459W        W 4523   9.039   5.476  10.120
  460W        W 4524  10.251   5.010   0.727
  461W        W 4525   2.828   4.690   3.569
  462W        W 4526   0.977   7.008   1.320
  463W        W 4527   0.882   4.443  10.287
  464W        W 4528   6.978   4.906   0.984
  465W        W 4529   6.413   2.044   9.524
  466W        W 4530   7.505   0.505  11.295
  467W        W 4531   5.640   8.493  10.866
  468W        W 4532   3.771   7.085   9.140
  469W        W 4533  10.135   7.581  10.411
  470W        W 4534   9.345   1.837  10.358
  471W        W 4535   1.608   1.946   1.772
  472W        W 4536   7.049   3.124   3.070
  473W        W 4537   3.981   0.349   8.712
  474W        W 4538   4.748   4.902   8.427
  475W        W 4539   5.041   2.585   0.347
  476W        W 4540   6.693   6.684  11.906
  477W        W 4541   7.736   0.473   2.316
  478W        W 4542   4.533   9.533   8.504
  479W        W 4543   8.440   0.827   2.257
  480W        W 4544   5.264   9.150  11.971
  481W        W 4545   4.721   6.602  10.724
  482W        W 4546   6.729   3.094   0.983
  483W        W 4547   0.857   2.115   0.696
  484W        W 4548   8.379   7.335   3.334
  485W        W 4549   1.284  10.299   3.264
  486W        W 4550   6.489   6.921   3.249
  487W        W 4551   3.763   8.487   0.896
  488W        W 4552   5.696   8.438   2.697
  489W        W 4553   2.666   6.162   8.289
  490W        W 4554   3.727   8.702   3.517
  491W        W 4555   2.131   8.534   1.628
  492W        W 4556   7.276   6.497  10.724
  493W        W 4557   1.186   5.646   9.025
  494W        W 4558   7.725   6.844   9.330
  495W        W 4559   4.568   7.114  10.739
  496W        W 4560   5.418   3.680   8.204
  497W        W 4561   3.162   4.108   9.761
  498W        W 4562   8.974   1.324   9.728
  499W        W 4563   0.056   3.190   2.670
  500W        W 4564   6.025   4.790   2.487
  501W        W 4565   7.732   8.969  11.490
  502W        W 4566   4.114   2.594   9.440
  503W        W 4567  10.020   0.186  10.203
  504W        W 4568   7.533   0.053   3.421
  505W        W 4569   0.738   2.515  10.744
  506W        W 4570   3.219   6.739   2.473
  507W        W 4571   1.136   2.372   9.701
  508W        W 4572   4.098   6.227   1.985
  509W        W 4573   3.835   5.011  10.632
  510W        W 4574   9.240   2.771  11.370
  511W        W 4575   5.425   4.898   3.662
  512W        W 4576   8.568   9.876   1.663
  513W        W 4577   2.440   9.194   1.211
  514W        W 4578   4.507   4.557   9.989
  515W        W 4579   6.754   7.538   1.323
  516W        W 4580   4.655   9.298  11.557
  517W        W 4581   5.178   3.637   3.254
  518W        W 4582   8.918   6.011   0.842
  519W        W 4583   2.787   3.694   3.184
  520W        W 4584   6.986   4.360   3.926
  521W        W 4585   4.816   9.849  10.305
  522W        W 4586  10.386   6.091   8.893
  523W        W 4587   5.277   4.068   0.189
  524W        W 4588   9.486   4.259   0.730
  525W        W 4589   5.308   4.127  10.323
  526W        W 4590  10.252   4.259  10.096
  527W        W 4591   4.297  10.111   2.722
  528W        W 4592   2.455   1.380   3.056
  529W        W 4593   6.188   3.449   3.105
  530W        W 4594   6.941   0.371   2.012
  531W        W 4595   2.782   1.418   1.017
  532W        W 4596   5.990   3.139   8.871
  533W        W 4597   3.137   2.231   9.533
  534W        W 4598   9.128   4.176   9.568
  535W        W 4599   8.462   2.449   0.391
  536W        W 4600   5.693   5.464   9.462
  537W        W 4601   2.613   1.564   9.038
  538W        W 4602   8.903   4.294  10.523
  539W        W 4603   2.215   9.969   9.005
  540W        W 4604   5.763   7.164  11.894
  541W        W 4605   8.464   3.872   2.742
  542W        W 4606  10.183   9.581   2.356
  543W        W 4607   9.330   5.088  11.012
  544W        W 4608   7.926   6.434   2.274
  545W        W 4609   6.936   4.746   9.801
  546W        W 4610   1.264   5.133   2.353
  547W        W 4611   9.643   0.429  10.440
  548W        W 4612   9.809   0.369   1.234
  549W        W 4613   4.822   1.775   1.986
  550W        W 4614   5.320   7.371   0.293
  551W        W 4615   0.530   4.012  11.389
  552W        W 4616   7.987   5.647   3.448
  553W        W 4617   4.243   8.270  11.172
  554W        W 4618   4.744   9.858   2.698
  555W        W 4619   1.332   9.769   1.392
  556W        W 4620  10.352   1.185   1.393
  557W        W 4621   7.936   5.450   9.377
  558W        W 4622   3.867   0.688   9.753
  559W        W 4623   0.497   0.867   2.741
  560W        W 4624   3.763   9.527   0.649
  561W        W 4625   1.589   1.973  10.979
  562W        W 4626   5.469   2.618   9.243
  563W        W 4627   3.498   3.378   0.364
  564W        W 4628   4.069   8.239  10.299
  565W        W 4629   9.077   1.471   8.715
  566W        W 4630   8.042   6.247  11.720
  567W        W 4631   8.097   4.625  10.448
  568W        W 4632   3.248   0.914   8.713
  569W        W 4633   2.324   8.188   1.329
  570W        W 4634   0.669   6.089   3.302
  571W        W 4635   3.538   6.742   3.221
  572W        W 4636   8.238   3.408   0.264
  573W        W 4637   3.032   0.108   0.949
  574W        W 4638   2.647  10.261   8.894
  575W        W 4639   3.755   1.422   1.397
  576W        W 4640   2.079   5.091   9.743
  577W        W 4641   4.236   0.222  11.758
  578W        W 4642   9.897   4.890  10.028
  579W        W 4643   5.447   1.289  10.017
  580W        W 4644   9.918   8.554   9.500
  581W        W 4645   0.737   4.037   9.982
  582W        W 4646   9.332   0.483   9.531
  583W        W 4647   3.931   5.928   3.219
  584W        W 4648  10.229   7.403   8.500
  585W        W 4649   5.185   8.223   1.430
  586W        W 4650   7.063   1.542  10.818
  587W        W 4651  10.239   1.626   2.884
  588W        W 4652   2.287   2.681   0.663
  589W        W 4653  10.340   9.384   8.998
  590W        W 4654   1.743   3.323  11.487
  591W        W 4655   7.863   9.370   2.109
  592W        W 4656   9.957   3.756   1.141
  593W        W 4657   1.250   0.043  10.323
  594W        W 4658   1.489   8.978   9.415
  595W        W 4659   7.941   8.504  10.714
  596W        W 4660  10.092   4.333   3.307
  597W        W 4661   5.561   5.000  11.352
  598W        W 4662   1.740   2.691   2.912
  599W        W 4663   0.088   4.270   3.500
  600W        W 4664   8.371   0.483  11.256
  601W        W 4665  10.351  10.378   1.249
  602W        W 4666   0.956   4.820   3.119
  603W        W 4667   4.509   6.202   8.547
  604W        W 4668  10.191   3.448   3.489
  605W        W 4669  10.391   5.147  10.085
  606W        W 4670   8.932   5.253   2.288
  607W        W 4671   9.433   6.144   3.266
  608W        W 4672  10.289   0.626  10.081
  609W        W 4673   4.261   3.825   2.716
  610W        W 4674  10.351  10.079  10.759
  611W        W 4675   7.117   3.277  10.589
  612W        W 4676   4.957   2.130   9.695
  613W        W 4677   6.382   3.621   8.458
  614W        W 4678  10.394   3.764   1.448
  615W        W 4679   9.543   5.859   2.390
  616W        W 4680   5.075   2.602   9.571
  617W        W 4681   1.770  10.280  11.659
  618W        W 4682   3.632   1.300  10.402
  619W        W 4683   8.358  10.051  10.922
  620W        W 4684   2.888   1.271   0.230
  621W        W 4685   2.398   8.380   9.187
  622W        W 4686  10.251  10.200   1.746
  623W        W 4687   9.726   2.672   0.458
  624W        W 4688   0.386   1.173   1.741
  625W        W 4689   2.110   5.546   9.525
  626W        W 4690   8.037   6.959   1.406
  627W        W 4691   0.317   9.521   9.600
  628W        W 4692   5.321   5.036   1.393
  629W        W 4693   5.342   0.208   1.175
  630W        W 4694   9.495   7.953   9.924
  631W        W 4695   9.757   7.834  11.851
  632W        W 4696   3.741   2.268   3.583
  633W        W 4697   9.891   3.845   9.310
  634W        W 4698   6.550   7.450  10.128
  635W        W 4699   7.675   3.164   9.261
  636W        W 4700   3.166   0.618   3.515
  637W        W 4701   0.962   4.008   8.992
  638W        W 4702   8.455   0.356  11.728
  639W        W 4703   0.822   0.462   8.974
  640W        W 4704   7.083   4.106   2.579
  641W        W 4705   9.511   0.068   8.539
  642W        W 4706   5.153   7.234   1.659
  643W        W 4707   6.048   2.061   2.154
  644W        W 4708   9.580   7.037  11.520
  645W        W 4709   5.185   7.629   2.579
  646W        W 4710   7.497   7.657   8.871
  647W        W 4711   3.576   5.159   1.216
  648W        W 4712   7.870   3.980  10.999
  649W        W 4713   6.130   5.988   2.736
  650W        W 4714   6.164   1.872   9.106
  651W        W 4715   7.910   4.340   0.463
  652W        W 4716   5.792   8.384  10.035
  653W        W 4717   7.136   5.949  11.818
  654W        W 4718   0.929   1.433   9.817
  655W        W 4719   9.961   6.241   0.903
  656W        W 4720   8.171   5.634   0.579
  657W        W 4721   2.825   5.051   9.556
  658W        W 4722   0.394   1.249  11.850
  659W        W 4723   8.043   5.472   1.327
  660W        W 4724   4.550   9.860   2.209
  661W        W 4725   2.598   1.985  11.800
  662W        W 4726   1.806   4.688   8.510
  663W        W 4727   6.023   3.235   0.745
  664W        W 4728   0.136   9.318   2.488
  665W        W 4729   6.537   1.386   1.335
  666W        W 4730   7.187   0.384   9.412
  667W        W 4731   2.130   6.586   8.998
  668W        W 4732   6.998   3.195   0.563
  669W        W 4733   2.439   9.660   0.210
  670W        W 4734   4.021   3.272  10.034
  671W        W 4735   5.079   3.553   2.776
  672W        W 4736   8.809   8.408  11.873
  673W        W 4737   4.579   0.600  10.503
  674W        W 4738   4.244   0.926   9.978
  675W        W 4739   5.156   0.859   8.905
  676W        W 4740   9.959   0.311   0.212
  677W        W 4741   6.047   9.646   0.020
  678W        W 4742   6.523   4.750  11.666
  679W        W 4743   2.302   1.269   8.510
  680W        W 4744   1.766   4.676  10.612
  681W        W 4745   4.207   7.993   1.638
  682W        W 4746   4.620   0.527   1.007
  683W        W 4747   7.475   0.146  10.866
  684W        W 4748   0.103   4.941  11.270
  685W        W 4749   4.041   2.881  10.383
  686W        W 4750   7.958   6.797   0.917
  687W        W 4751   7.873   9.026   1.349
  688W        W 4752   5.669   4.520  10.291
  689W        W 4753   2.102   8.580  11.430
  690W        W 4754   5.659   7.564   2.322
  691W        W 4755   7.726   1.869  11.393
  692W        W 4756   0.519   6.966  11.133
  693W        W 4757   2.812   4.511   1.497
  694W        W 4758   9.847   1.201  10.667
  695W        W 4759   6.013   0.652   1.471
  696W        W 4760   0.712   0.675  10.350
  697W        W 4761   9.557   2.627   9.965
  698W        W 4762   3.560   9.178   1.804
  699W        W 4763   1.489   5.596   2.385
  700W        W 4764   5.016   6.605   9.001
  701W        W 4765   6.401   0.716   9.507
  702W        W 4766   2.365   3.060  10.972
  703W        W 4767   4.617   6.018   2.845
  704W        W 4768   5.196   2.226   0.020
  705W        W 4769   3.782   9.852   2.739
  706W        W 4770   3.041   7.973  10.066
  707W        W 4771   3.823   8.220   1.879
  708W        W 4772   2.494   0.927   2.162
  709W        W 4773   3.007   1.114  11.362
  710W        W 4774   0.339   2.395   9.166
  711W        W 4775   8.524   7.178   1.581
  712W        W 4776   2.315   1.191   1.717
  713W        W 4777   4.148   1.772   0.205
  714W        W 4778   5.662   7.937   2.879
  715W        W 4779   2.765   7.019  11.326
  716W        W 4780   7.173   1.710   2.269
  717W        W 4781   7.314   8.561  11.513
  718W        W 4782   1.354   3.344   8.736
  719W        W 4783   0.931   3.696  11.251
  720W        W 4784   1.875   4.145   1.256
  721W        W 4785   7.989   8.356   9.724
  722W        W 4786   2.060   7.634  10.054
  723W        W 4787   6.186   3.046   2.238
  724W        W 4788   1.201  10.006  11.688
  725W        W 4789   6.449   6.991  10.530
  726W        W 4790   5.714   6.584   8.409
  727W        W 4791   0.878   2.621   0.606
  728W        W 4792   9.961   6.121  11.979
  729W        W 4793   9.409   8.704  11.310
  730W        W 4794   9.218   5.234  10.529
  731W        W 4795   9.009   2.738   3.143
  732W        W 4796   0.585   9.489   3.409
  733W        W 4797   1.413   6.704   1.392
  734W        W 4798   6.530   8.028  11.381
  735W        W 4799   6.118   8.352   8.790
  736W        W 4800   1.000  10.189   2.240
  737W        W 4801   2.800   2.183   1.268
  738W        W 4802   5.140   3.604   0.030
  739W        W 4803   7.582   4.515   3.697
  740W        W 4804   6.000   0.566  10.632
  741W        W 4805   0.793   0.140   2.295
  742W        W 4806  10.167  10.237   9.982
  743W        W 4807   3.518   8.844  11.686
  744W        W 4808   2.805   5.061   1.860
  745W        W 4809   1.474   0.948   2.561
  746W        W 4810   6.604   6.524   2.187
  747W        W 4811   2.574   6.970   9.715
  748W        W 4812   4.756   7.526   2.292
  749W        W 4813   0.006   3.453  11.948
  750W        W 4814   3.240   8.953   1.466
  751W        W 4815   4.635  10.240   3.503
  752W        W 4816   9.119   8.796   1.802
  753W        W 4817   6.186  10.482   2.663
  754W        W 4818   6.437   3.375   2.643
  755W        W 4819   4.517   3.086   8.941
  756W        W 4820   4.746   0.768   3.358
  757W        W 4821   2.173   8.042   2.406
  758W        W 4822   8.655   1.803   2.006
  759W        W 4823   9.485   6.990   8.816
  760W        W 4824   7.392   2.299   8.782
  761W        W 4825   2.752   1.658   0.563
  762W        W 4826   7.698   8.618   8.898
  763W        W 4827   3.255   4.529   1.754
  764W        W 4828   9.864   8.757   1.015
  765W        W 4829   0.233   9.858  10.541
  766W        W 4830   9.377   5.114  10.032
  767W        W 4831   7.904   4.573   1.532
  768W        W 4832   3.361   9.464   1.441
  769W        W 4833   0.679   5.644   9.583
  770W        W 4834   4.042   6.634   9.206
  771W        W 4835   5.841   1.655   1.924
  772W        W 4836   7.300  10.018   9.203
  773W        W 4837   6.734   4.681   9.096
  774W        W 4838   2.318   8.217  10.681
  775W        W 4839   4.550   8.246   8.517
  776W        W 4840   5.598   8.831   9.704
  777W        W 4841   8.323   9.472  11.783
  778W        W 4842   7.329   7.852  11.042
  779W        W 4843   6.835   9.803   1.668
  780W        W 4844   7.673   2.634  10.965
  781W        W 4845   7.080   6.894   0.830
  782W        W 4846   0.462  10.299  10.479
  783W        W 4847   1.253   7.940   9.097
  784W        W 4848   1.848   8.391   0.260
  785W        W 4849   1.691   3.825   0.421
  786W        W 4850   8.363   9.037   9.254
  787W        W 4851   2.366   5.728  11.890
  788W        W 4852   6.384   4.002   9.718
  789W        W 4853   9.791   2.819   1.456
  790W        W 4854   3.179   7.485   0.388
  791W        W 4855   1.819   5.716   0.523
  792W        W 4856   6.227   5.551   3.022
  793W        W 4857   9.972   9.979   0.360
  794W        W 4858   4.567  10.432   9.190
  795W        W 4859  10.483   7.938   1.833
  796W        W 4860   3.719   7.057  11.853
  797W        W 4861   8.378   1.304   9.081
  798W        W 4862   9.137   8.049   0.620
  799W        W 4863   1.254   5.525   0.606
  800W        W 4864   2.271  10.044   2.487
  801W        W 4865   3.756   8.434  11.941
  802W        W 4866   0.785   0.179  10.477
  803W        W 4867   9.565   8.938   0.185
  804W        W 4868   4.915   1.613   3.695
  805W        W 4869   3.410  10.379  10.383
  806W        W 4870   3.102   8.532  10.372
  807W        W 4871   4.907   4.173  11.268
  808W        W 4872   6.198   1.405   0.246
  809W        W 4873   9.093   5.534  10.941
  810W        W 4874   0.397   6.054   8.837
  811W        W 4875   7.014   2.722   1.715
  812W        W 4876   2.659   3.207   1.986
  813W        W 4877   1.879   7.954   1.451
  814W        W 4878   1.937  10.407   2.671
  815W        W 4879   8.589   4.685  10.571
  816W        W 4880   9.839   8.335   3.274
  817W        W 4881   3.908   3.399   0.700
  818W        W 4882   5.049   4.548   3.678
  819W        W 4883   3.576   7.869   9.456
  820W        W 4884   5.090   8.435   8.924
  821W        W 4885   4.602   6.841   3.449
  822W        W 4886   6.946   8.040   2.539
  823W        W 4887   0.054   3.684   8.881
  824W        W 4888   8.514   9.974   2.163
  825W        W 4889   0.347   9.903   1.716
  826W        W 4890   6.914  10.485   9.693
  827W        W 4891   6.568   6.605   9.757
  828W        W 4892  10.234   6.125   3.635
  829W        W 4893   7.671   8.882   1.980
  830W        W 4894   9.110   7.563  11.957
  831W        W 4895  10.011   3.284  10.979
  832W        W 4896   6.120   0.053   0.715
  833W        W 4897   1.223   3.611  10.089
  834W        W 4898   9.807   1.872   8.562
  835W        W 4899   0.280   2.699   1.514
  836W        W 4900   9.369   8.358   1.989
  837W        W 4901   2.810   7.447   3.402
  838W        W 4902   0.086   6.583   0.705
  839W        W 4903   8.176   9.422   8.664
  840W        W 4904   2.914   1.624  10.515
  841W        W 4905   2.353   7.017   8.786
  842W        W 4906   3.272   8.442  10.929
  843W        W 4907   4.012   6.117   8.399
  844W        W 4908   5.531   3.880   3.535
  845W        W 4909   1.685   8.026   9.366
  846W        W 4910   7.554   8.381   1.846
  847W        W 4911  10.428   4.197   1.168
  848W        W 4912   7.775   6.428  10.789
  849W        W 4913   7.091   7.444   3.208
  850W        W 4914   9.678   6.470  10.737
  851W        W 4915   3.164   2.645   0.991
  852W        W 4916   2.989   1.771   0.062
  853W        W 4917   3.283   4.896  11.543
  854W        W 4918   5.170   5.759  11.849
  855W        W 4919   1.346   3.312   1.186
  856W        W 4920   9.025   3.565  10.831
  857W        W 4921   8.191   8.805   0.404
  858W        W 4922   2.747   6.971   1.445
  859W        W 4923   9.833   7.342   1.773
  860W        W 4924   5.162  10.476  11.352
  861W        W 4925   5.748   8.065   3.415
  862W        W 4926   3.350   9.389   3.490
  863W        W 4927  10.427   0.862   1.808
  864W        W 4928   7.363   6.694   3.649
  865W        W 4929   7.493   4.899  11.805
  866W        W 4930   6.461   8.850   2.524
  867W        W 4931   6.972   7.497   1.801
  868W        W 4932   1.935   4.780   2.528
  869W        W 4933   7.619   9.132   9.985
  870W        W 4934   0.262   4.266   0.469
  871W        W 4935   7.025   2.684   8.748
  872W        W 4936   8.145   3.228   1.502
  873W        W 4937   1.288   6.222   1.512
  874W        W 4938   4.246   4.684  11.727
  875W        W 4939  10.444   7.520  10.017
  876W        W 4940   9.602   0.668   9.936
  877W        W 4941   9.933   0.715  10.782
  878W        W 4942   4.150   4.529   3.693
  879W        W 4943   3.561   9.066   9.085
  880W        W 4944   3.314   9.282   2.471
  881W        W 4945   5.006   7.690   0.064
  882W        W 4946   8.619   5.059  11.377
  883W        W 4947   0.402   0.505   9.266
  884W        W 4948   0.945   8.542  10.217
  885W        W 4949   4.198   2.375   2.994
  886W        W 4950   0.475   8.324   1.232
  887W        W 4951   1.833   8.875   1.876
  888W        W 4952   5.533   3.186   8.059
  889W        W 4953   3.814   0.381   0.445
  890W        W 4954   1.184   5.155   9.693
  891W        W 4955   8.957   9.347   3.592
  892W        W 4956   1.625   0.938   1.090
  893W        W 4957   7.615   1.055   1.146
  894W        W 4958   9.990  10.032   1.225
  895W        W 4959   1.241   5.014   0.388
  896W        W 4960   1.734   0.717   9.485
  897W        W 4961   1.819   6.676   2.270
  898W        W 4962   7.825   8.959  10.426
  899W        W 4963  10.459   3.129   8.764
  900W        W 4964  10.230   7.926   8.706
  901W        W 4965   9.138   9.596  10.954
  902W        W 4966  10.107   9.949   8.980
  903W        W 4967   2.389   7.264   0.945
  904W        W 4968  10.060   9.082   0.347
  905W        W 4969   0.286   0.692  10.677
  906W        W 4970   4.787   0.825   2.183
  907W        W 4971   4.531   8.709   3.565
  908W        W 4972  10.387   8.576   0.230
  909W        W 4973   3.268   2.093  10.804
  910W        W 4974   6.513   0.737  11.276
  911W        W 4975   0.043   3.272   2.165
  912W        W 4976   5.129   7.185   2.192
  913W        W 4977   1.130   3.791   2.388
  914W        W 4978   7.630   9.275  11.909
  915W        W 4979   9.835   1.243   0.500
  916W        W 4980   5.628   7.691  10.455
  917W        W 4981   2.815   7.434   0.727
  918W        W 4982   8.513   3.579   3.303
  919W        W 4983   0.650   5.606  11.859
  920W        W 4984   2.181   9.561   1.469
  921W        W 4985   5.466   7.685   3.733
  922W        W 4986   0.470   8.463   0.386
  923W        W 4987   5.932   7.552  11.573
  924W        W 4988   6.622   7.194   0.804
  925W        W 4989   8.759   7.325   0.916
  926W        W 4990   4.962   0.770   2.681
  927W        W 4991   4.435   6.930  11.215
  928W        W 4992   7.475   5.004   3.554
  929W        W 4993   3.070   3.018   1.754
  930W        W 4994   8.633   3.287   1.756
  931W        W 4995   1.376   2.805   3.326
  932W        W 4996   7.535   8.553  10.275
  933W        W 4997   4.860   3.091   2.222
  934W        W 4998   5.811   2.238   9.211
  935W        W 4999   6.494   9.352  10.724
  936W        W 5000   7.101   7.396   0.927
  937W        W 5001   4.998   5.486   2.130
  938W        W 5002   4.642   7.564   9.035
  939W        W 5003   0.529   9.910   0.272
  940W        W 5004   3.092   2.832  10.315
  941W        W 5005   0.304   5.535   1.873
  942W        W 5006  10.326   9.926   2.755
  943W        W 5007   9.922   9.564   9.280
  944W        W 5008   7.117   9.885   2.140
  945W        W 5009   5.652   6.004   2.928
  946W        W 5010  10.074   2.516   2.817
  947W        W 5011   8.391   2.943   0.305
  948W        W 5012   3.806   7.053  11.338
  949W        W 5013   6.119   6.551  10.072
  950W        W 5014   8.014   5.579   2.394
  951W        W 5015   5.209   7.659   2.054
  952W        W 5016   6.013   9.574   0.519
  953W        W 5017   9.904  10.402   3.861
  954W        W 5018   6.067   0.016  11.271
  955W        W 5019   6.534   4.012   0.022
  956W        W 5020   7.730   2.475   0.647
  957W        W 5021   1.940   4.860   3.661
  958W        W 5022   6.564   9.128   9.861
  959W        W 5023   1.394   0.548   2.945
  960W        W 5024   9.521   6.965  10.750
  961W        W 5025   9.093   3.044   2.358
  962W        W 5026   9.865   0.911   3.828
  963W        W 5027   0.565   4.753   8.654
  964W        W 5028   3.317   6.158  10.500
  965W        W 5029   6.248   7.212   3.582
  966W        W 5030   2.785   3.686   2.137
  967W        W 5031   3.584   6.472   2.203
  968W        W 5032   5.239   2.100   1.227
  969W        W 5033   3.390   4.999   0.782
  970W        W 5034   2.673   0.166   9.284
  971W        W 5035   4.589   4.581   1.937
  972W        W 5036  10.098   7.263   2.404
  973W        W 5037   7.081   8.345   8.598
  974W        W 5038   5.224   2.217   2.106
  975W        W 5039   1.189   5.251   2.948
  976W        W 5040   8.133   1.784   9.017
  977W        W 5041   6.665   5.395   9.524
  978W        W 5042   6.500   4.135   0.938
  979W        W 5043   4.988   1.407  10.200
  980W        W 5044   2.212   6.057   8.582
  981W        W 5045   0.928   6.827   2.804
  982W        W 5046   7.161   3.115   2.040
  983W        W 5047   7.476   6.593   0.986
  984W        W 5048   2.932   9.548  11.769
  985W        W 5049   0.731   2.347   2.153
  986W        W 5050   4.575   8.209   9.953
  987W        W 5051   2.447   9.361   3.181
  988W        W 5052   4.555   1.244   9.409
  989W        W 5053   3.860   3.626   3.564
  990W        W 5054   6.274   1.539   9.456
  991W        W 5055   4.724   6.539   4.200
  992W        W 5056   6.283   1.459   3.270
  993W        W 5057   9.509   4.134  11.346
  994W        W 5058   2.330   7.944   3.603
  995W        W 5059   1.631   5.528   1.882
  996W        W 5060   8.685   1.579   1.535
  997W        W 5061   1.289   9.474   9.246
  998W        W 5062   0.819   6.852   8.673
  999W        W 5063   2.890   1.459   2.803
 1000W        W 5064   5.605   9.522   9.979
 1001W        W 5065   0.559   1.805   1.361
 1002W        W 5066   5.529   6.943   0.938
 1003W        W 5067   5.507   4.862  10.850
 1004W        W 5068   1.751   9.973  10.835
 1005W        W 5069   3.789   4.941  11.618
 1006W        W 5070   0.027   6.221  10.894
 1007W        W 5071   8.369   2.790  11.428
 1008W        W 5072   6.791   8.507  11.571
 1009W        W 5073   1.321   0.538   1.154
 1010W        W 5074   0.926   7.311   2.647
 1011W        W 5075   1.233   0.604   1.677
 1012W        W 5076   5.199   5.589   9.450
 1013W        W 5077   7.656   4.750   8.737
 1014W        W 5078   3.707   4.585   2.435
 1015W        W 5079   9.548   9.741   9.612
 1016W        W 5080   5.841   3.251   3.919
 1017W        W 5081   9.083   3.109  11.020
 1018W        W 5082   8.175   1.734   1.292
 1019W        W 5083   0.707   9.907  11.784
 1020W        W 5084   8.689   8.981   0.505
 1021W        W 5085   6.918   7.936   9.357
 1022W        W 5086   9.081   2.608  10.906
 1023W        W 5087   7.569   0.982   8.879
 1024W        W 5088   4.088   4.702  10.273
 1025W        W 5089   4.509   8.944   1.653
 1026W        W 5090   3.550   0.010   0.193
 1027W        W 5091   6.759   6.146   1.304
 1028W        W 5092   7.666   1.741   2.349
 1029W        W 5093   7.940   1.958  10.009
 1030W        W 5094   6.058   4.510   3.867
 1031W        W 5095   2.819   6.024   0.562
 1032W        W 5096   4.913  10.497   0.407
 1033W        W 5097   1.896   6.125   8.994
 1034W        W 5098   8.943   9.404   0.798
 1035W        W 5099   6.500   8.910  11.538
 1036W        W 5100   8.658   0.211  10.388
 1037W        W 5101  10.029   2.634  10.121
 1038W        W 5102   1.308   2.396   2.989
 1039W        W 5103   1.991   7.616   2.651
 1040W        W 5104   4.231   9.951   0.158
 1041W        W 5105   0.222   8.598   9.899
 1042W        W 5106   9.419   6.574  11.674
 1043W        W 5107   2.080   7.618   8.714
 1044W        W 5108   7.488   3.149  11.820
 1045W        W 5109   4.066   6.611   0.442
 1046W        W 5110   4.100   6.605   0.953
 1047W        W 5111   8.423  10.029   0.749
 1048W        W 5112   5.064   6.722   3.866
 1049W        W 5113   6.508   3.504   0.066
 1050W        W 5114   0.270   3.721   2.225
 1051W        W 5115   0.693   6.445   9.013
 1052W        W 5116   9.071   5.015   0.367
 1053W        W 5117   9.578   3.144   2.276
 1054W        W 5118   3.445   4.658   9.127
 1055W        W 5119   9.724   7.284  10.392
 1056W        W 5120   6.785   4.036   8.477
 1057W        W 5121   1.248   4.117   9.919
 1058W        W 5122   4.243   4.686  10.762
 1059W        W 5123   8.148   9.558  10.916
 1060W        W 5124   4.485   6.937   9.341
 1061W        W 5125   9.778   9.857   2.131
 1062W        W 5126   7.415   4.669   0.284
 1063W        W 5127   8.569   3.776   0.923
 1064W        W 5128   0.073   1.952  10.701
 1065W        W 5129   4.379   5.249   0.996
 1066W        W 5130   9.289   8.818   9.892
 1067W        W 5131   5.869   0.447   9.124
 1068W        W 5132   9.929   2.210   9.294
 1069W        W 5133   4.080   7.870   9.330
 1070W        W 5134   6.557   2.800   1.937
 1071W        W 5135   3.608   1.397   3.532
 1072W        W 5136   1.772   1.666   9.091
 1073W        W 5137   5.992  10.413   1.173
 1074W        W 5138   9.995   6.133   9.631
 1075W        W 5139   2.783   4.728   3.040
 1076W        W 5140   9.012   0.946   1.704
 1077W        W 5141   2.731   5.507   0.260
 1078W        W 5142   5.911   4.862   1.991
 1079W        W 5143   2.661  10.220   0.212
 1080W        W 5144   5.597   9.771   3.227
 1081W        W 5145   0.012   2.314   0.435
 1082W        W 5146   5.700   1.908   2.535
 1083W        W 5147   5.996  10.089   0.457
 1084W        W 5148   2.644   2.689  11.270
 1085W        W 5149   4.839   8.595   1.473
 1086W        W 5150   8.091   8.107   3.415
 1087W        W 5151   0.777  10.315   3.363
 1088W        W 5152   5.594   5.944   9.467
 1089W        W 5153   2.873   7.890   0.976
 1090W        W 5154   0.363   2.604   3.347
 1091W        W 5155   6.580   1.187  11.518
 1092W        W 5156   5.978   0.840   0.943
 1093W        W 5157   7.906   7.796   0.687
 1094W        W 5158   1.824   5.510   1.393
 1095W        W 5159   2.700   3.394  11.744
 1096W        W 5160   1.386   6.470   3.521
 1097W        W 5161   3.334   8.391   2.113
 1098W        W 5162   6.615   6.696   0.875
 1099W        W 5163   3.302   8.673   1.039
 1100W        W 5164   7.412   0.264   2.899
 1101W        W 5165   0.508   3.380  11.825
 1102W        W 5166   3.796   8.807   2.765
 1103W        W 5167   2.758   4.308   1.028
 1104W        W 5168   6.011   3.672   0.473
 1105W        W 5169   2.325   8.116   0.387
 1106W        W 5170   9.954   6.335  10.319
 1107W        W 5171   9.793   8.972   9.951
 1108W        W 5172   1.614   3.882   2.280
 1109W        W 5173   2.796   9.510   3.518
 1110W        W 5174   9.931   5.457   1.913
 1111W        W 5175   2.160   7.349   9.157
 1112W        W 5176  10.495   1.134   9.874
 1113W        W 5177   3.126  10.268   1.934
 1114W        W 5178   7.012  10.348   1.246
 1115W        W 5179   0.416   9.335   1.008
 1116W        W 5180   4.514   0.482   2.999
 1117W        W 5181   3.406   3.549   0.848
 1118W        W 5182   7.194  10.349  10.528
 1119W        W 5183   5.075  10.484  11.905
 1120W        W 5184   4.759   9.977   9.295
 1121W        W 5185   7.231   8.846   0.806
 1122W        W 5186   5.393   5.781   9.895
 1123W        W 5187   9.314   9.070   3.005
 1124W        W 5188   3.531   3.106  10.091
 1125W        W 5189   1.314   8.152  10.184
 1126W        W 5190   4.105   4.174  10.869
 1127W        W 5191   9.426   3.265   2.763
 1128W        W 5192   5.695  10.037   9.820
 1129W        W 5193   4.611   9.444   1.509
 1130W        W 5194   9.226   8.636   8.880
 1131W        W 5195   3.422   1.808  11.759
 1132W        W 5196   3.505   6.233   3.199
 1133W        W 5197   0.029   4.062  11.325
 1134W        W 5198   6.497   6.135  10.996
 1135W        W 5199   5.595   8.765   1.503
 1136W        W 5200   1.314   6.942  10.522
 1137W        W 5201   4.755   1.687   9.566
 1138W        W 5202   4.549   9.585   9.540
 1139W        W 5203   6.020   1.046   9.461
 1140W        W 5204   9.636   6.693   2.660
 1141W        W 5205   6.677   7.946  10.379
 1142W        W 5206   9.927   2.616   9.605
 1143W        W 5207  10.385   4.711   1.139
 1144W        W 5208   4.312   2.255   2.498
 1145W        W 5209   3.840   9.823  10.883
 1146W        W 5210   7.779   7.025   2.822
 1147W        W 5211   9.025   7.921  10.119
 1148W        W 5212   3.244   7.280  11.688
 1149W        W 5213   7.527   7.389  10.949
 1150W        W 5214  10.453   3.282   9.243
 1151W        W 5215   4.047   6.516   2.441
 1152W        W 5216   3.270   6.225   1.376
 1153W        W 5217   5.542   5.340  11.750
 1154W        W 5218   3.701   4.587   9.902
 1155W        W 5219  10.249   9.368   1.572
 1156W        W 5220   1.272   7.595   1.182
 1157W        W 5221   0.674   1.967  10.860
 1158W        W 5222   9.107   0.363   3.504
 1159W        W 5223  10.356   6.163   9.970
 1160W        W 5224   0.808  10.257   9.579
 1161W        W 5225   9.885   8.591   0.408
 1162W        W 5226   6.072   9.446   1.451
 1163W        W 5227   0.862   1.647   0.984
 1164W        W 5228   0.366   3.688  11.026
 1165W        W 5229   8.123   8.708  11.220
 1166W        W 5230   0.367   7.857   1.444
 1167W        W 5231   4.749   8.606   0.968
 1168W        W 5232   4.697   5.151   0.269
 1169W        W 5233   5.653   2.136   1.848
 1170W        W 5234   5.446   6.489   0.416
 1171W        W 5235   9.290   9.640   0.525
 1172W        W 5236   2.759   8.078   8.963
 1173W        W 5237   3.555   9.387  10.822
 1174W        W 5238   7.645   2.683   9.043
 1175W        W 5239   0.394   6.684  10.405
 1176W        W 5240   9.395   3.920  10.881
 1177W        W 5241   9.741   0.909   2.234
 1178W        W 5242   9.065   4.485   1.248
 1179W        W 5243   8.443  10.013   9.887
 1180W        W 5244   3.758   4.560  10.875
 1181W        W 5245   7.243   0.303   2.414
 1182W        W 5246   2.109   0.281   0.131
 1183W        W 5247   7.599   5.167   0.252
 1184W        W 5248   8.069   0.843   0.946
 1185W        W 5249   6.402  10.287  11.583
 1186W        W 5250   4.963   5.707   8.986
 1187W        W 5251   8.166   0.727  10.862
 1188W        W 5252   0.676   2.401   1.643
 1189W        W 5253   6.511   5.076   9.962
 1190W        W 5254   5.627   3.126  11.409
 1191W        W 5255   9.781   2.579  10.567
 1192W        W 5256   8.384   2.668   3.042
 1193W        W 5257   3.147   8.826  11.265
 1194W        W 5258   4.138   7.977   9.828
 1195W        W 5259   6.028   2.787  11.459
 1196W        W 5260   9.831   5.314   2.381
 1197W        W 5261   2.631   2.393   9.753
 1198W        W 5262   3.646   0.359   2.481
 1199W        W 5263   4.562   3.298   3.129
 1200W        W 5264   0.217   7.921   2.327
 1201W        W 5265   4.241   5.478   3.249
 1202W        W 5266   3.339   5.478   2.744
 1203W        W 5267   3.835   7.448   9.512
 1204W        W 5268   3.912   5.789   7.991
 1205W        W 5269   0.789   3.563   9.761
 1206W        W 5270   9.806   6.300   2.333
 1207W        W 5271   1.673   0.311  11.377
 1208W        W 5272   9.565   3.663  11.942
 1209W        W 5273   2.746   8.786   3.205
 1210W        W 5274   5.160   8.573   2.396
 1211W        W 5275   8.864   4.586   8.634
 1212W        W 5276   2.179   4.186   9.558
 1213W        W 5277   9.835   3.063  10.352
 1214W        W 5278   9.745   2.668   9.130
 1215W        W 5279   8.480   8.585   0.772
 1216W        W 5280   2.205   3.906   3.534
 1217W        W 5281   2.424   7.494   9.575
 1218W        W 5282   3.626   9.001  11.201
 1219W        W 5283   4.346   4.051   2.244
 1220W        W 5284   5.217   7.168  11.825
 1221W        W 5285   0.770   3.272   1.077
 1222W        W 5286   1.435   2.592  11.097
 1223W        W 5287   2.259   7.002  11.488
 1224W        W 5288   5.688   6.410   9.358
 1225W        W 5289   4.318   3.135  10.960
 1226W        W 5290   7.641   5.845  11.812
 1227W        W 5291   1.646   5.365   9.600
 1228W        W 5292   4.230   3.142   9.430
 1229W        W 5293   0.393   2.246   2.934
 1230W        W 5294   0.383   6.387   1.630
 1231W        W 5295   1.403  10.233   8.981
 1232W        W 5296   7.101   4.710  11.010
 1233W        W 5297   9.709   3.653  11.445
 1234W        W 5298   4.433   5.736   8.773
 1235W        W 5299   8.861   8.943   9.107
 1236W        W 5300   4.990   1.318   8.679
 1237W        W 5301   5.507  10.361  11.692
 1238W        W 5302   8.052   2.782   1.210
 1239W        W 5303   9.388  10.494   0.017
 1240W        W 5304   4.187   8.857   9.052
 1241W        W 5305   2.141   1.818   2.491
 1242W        W 5306  10.022   0.507   2.012
 1243W        W 5307   3.485   8.127   9.881
 1244W        W 5308   6.515   6.786   1.738
 1245W        W 5309   6.177   3.251  10.204
 1246W        W 5310   3.297   8.576   0.127
 1247W        W 5311   0.662   9.886   8.417
 1248W        W 5312   8.837   2.734   8.591
 1249W        W 5313   5.516   6.520   4.059
 1250W        W 5314   9.529   1.680   8.968
 1251W        W 5315   9.615   4.273   9.454
 1252W        W 5316   4.572   4.248   2.705
 1253W        W 5317   5.614   5.167   0.223
 1254W        W 5318   1.603   9.113  11.280
 1255W        W 5319   9.275   7.682  11.456
 1256W        W 5320   9.922   0.793   0.723
 1257W        W 5321   3.737   5.992   1.696
 1258W        W 5322   0.387   2.076   3.427
 1259W        W 5323   5.607  10.277  11.187
 1260W        W 5324   6.022  10.461   8.961
 1261W        W 5325   7.816   2.286   9.512
 1262W        W 5326   4.615   1.211   2.488
 1263W        W 5327   6.463   4.398   9.416
 1264W        W 5328   9.614   4.750  10.773
 1265W        W 5329   3.368   5.215  10.755
 1266W        W 5330   4.554   6.425   3.178
 1267W        W 5331   2.184  10.413   0.463
 1268W        W 5332   9.810   5.645   9.434
 1269W        W 5333   4.271   2.170   1.993
 1270W        W 5334  10.302   6.836   3.226
 1271W        W 5335   7.047   1.267  11.251
 1272W        W 5336   7.423   8.283  10.743
 1273W        W 5337   9.696  10.093   9.261
 1274W        W 5338   6.550   2.813   8.956
 1275W        W 5339   0.022  10.357   2.577
 1276W        W 5340   4.503   2.308   9.840
 1277W        W 5341   6.590   2.174   3.299
 1278W        W 5342   9.949   1.287   2.533
 1279W        W 5343   2.388   5.961   9.494
 1280W        W 5344   5.785   3.767   3.114
 1281W        W 5345   8.160   1.782   3.471
 1282W        W 5346   2.724   1.481   2.318
 1283W        W 5347   1.852   2.578  10.056
 1284W        W 5348   8.944   3.668   2.891
 1285W        W 5349   1.214   5.599  11.876
 1286W        W 5350   0.919   1.290  11.229
 1287W        W 5351   0.340   4.481   0.960
 1288W        W 5352   1.227   3.126  10.322
 1289W        W 5353  10.476   4.587   3.090
 1290W        W 5354   7.012   3.577   3.309
 1291W        W 5355   3.695   0.982   9.377
 1292W        W 5356   4.855   1.854  10.577
 1293W        W 5357   5.594  10.389   0.793
 1294W        W 5358   3.632   6.197  10.930
 1295W        W 5359  10.305   8.228   2.220
 1296W        W 5360   4.073   4.708  11.249
 1297W        W 5361  10.282   3.500   2.958
 1298W        W 5362   1.562  10.150  10.387
 1299W        W 5363   8.039  10.372   1.318
 1300W        W 5364   4.729   2.071   2.763
 1301W        W 5365   7.450   4.536   1.822
 1302W        W 5366   3.137   3.800  10.600
 1303W        W 5367   5.175   5.152   0.486
 1304W        W 5368   4.743   4.515  11.619
 1305W        W 5369   8.287   1.323   2.283
 1306W        W 5370   4.679   8.497   0.456
 1307W        W 5371   5.179   1.580   1.280
 1308W        W 5372   0.023   4.795   3.546
 1309W        W 5373   1.356   9.397  10.089
 1310W        W 5374   5.492   3.814  10.724
 1311W        W 5375   3.812  10.311   9.840
 1312W        W 5376   9.218   4.477   0.110
 1313W        W 5377   5.039   4.077   1.142
 1314W        W 5378   4.915   5.579   1.201
 1315W        W 5379   7.529   1.774  10.849
 1316W        W 5380   2.299   9.456   9.151
 1317W        W 5381   2.657   7.949   3.220
 1318W        W 5382   7.519   7.163   8.991
 1319W        W 5383   3.787   6.260   0.720
 1320W        W 5384   0.566   0.339   0.263
 1321W        W 5385   3.149   3.309   2.194
 1322W        W 5386   4.907   2.073   0.407
 1323W        W 5387   6.903   2.196   8.908
 1324W        W 5388   6.500  10.194   2.384
 1325W        W 5389  10.346   6.602   9.577
 1326W        W 5390   4.608   5.036  10.092
 1327W        W 5391   9.498   0.553   0.890
 1328W        W 5392   7.494   3.296   3.201
 1329W        W 5393   3.349   5.865   4.056
 1330W        W 5394   0.034   1.827   0.599
 1331W        W 5395   8.097   1.712  11.042
 1332W        W 5396   7.879   3.460  11.132
 1333W        W 5397   4.791   2.011  11.079
 1334W        W 5398   4.486   5.708   0.213
 1335W        W 5399   8.809   6.087   2.753
 1336W        W 5400   4.015   3.627   0.265
 1337W        W 5401   4.172   2.728   0.700
 1338W        W 5402   7.456   9.866  10.593
 1339W        W 5403   9.799   6.600   3.582
 1340W        W 5404   8.555   1.876   9.277
 1341W        W 5405   3.149   7.853   3.354
 1342W        W 5406   7.490   6.102  10.464
 1343W        W 5407   0.263   2.219   1.869
 1344W        W 5408   3.120   8.490   9.827
 1345W        W 5409   9.807   9.837  10.113
 1346W        W 5410   5.943   1.101   3.428
 1347W        W 5411   3.850   2.682   1.210
 1348W        W 5412   7.288   9.001  10.338
 1349W        W 5413   9.785  10.348   1.925
 1350W        W 5414   9.812   0.363   9.215
 1351W        W 5415   5.969   2.191   9.680
 1352W        W 5416   5.654   0.873   8.680
 1353W        W 5417   0.429   6.795   9.913
 1354W        W 5418   2.552   5.604   0.731
 1355W        W 5419   1.219   3.217   9.771
 1356W        W 5420   0.774   5.700  10.910
 1357W        W 5421   0.355   3.409   0.776
 1358W        W 5422   7.986   4.804   2.931
 1359W        W 5423   7.047   6.970   8.973
 1360W        W 5424   5.578   9.327   0.408
 1361W        W 5425   2.706   3.877   0.725
 1362W        W 5426   8.316   8.529  11.706
 1363W        W 5427   2.462   6.874   0.079
 1364W        W 5428   7.727   8.632   0.780
 1365W        W 5429   1.767   9.906   2.675
 1366W        W 5430   5.071   4.179  10.763
 1367W        W 5431   0.416   5.637   3.315
 1368W        W 5432   7.271   0.298   1.060
 1369W        W 5433   7.561   2.160   2.735
 1370W        W 5434   5.685   2.473  10.011
 1371W        W 5435   0.323   4.177  10.920
 1372W        W 5436   6.961   3.730   1.714
 1373W        W 5437   3.841   9.632   0.171
 1374W        W 5438   3.243   9.320   9.485
 1375W        W 5439   8.156  10.481  11.885
 1376W        W 5440   3.871   5.763   0.667
 1377W        W 5441   8.372   0.217   1.522
 1378W        W 5442   8.883   2.308   9.372
 1379W        W 5443   1.901   2.807  10.901
 1380W        W 5444   7.091   6.582   9.880
 1381W        W 5445   2.467   3.769   1.150
 1382W        W 5446   6.082   7.029   1.501
 1383W        W 5447   1.811   7.449   1.294
 1384W        W 5448   5.968   6.148  10.359
 1385W        W 5449   9.327   1.474   9.379
 1386W        W 5450   9.474   4.215   1.740
 1387W        W 5451   8.927   8.585  11.084
 1388W        W 5452   8.915   4.248   3.409
 1389W        W 5453   3.686   7.190   3.446
 1390W        W 5454   3.128   4.039   1.848
 1391W        W 5455   2.812   7.898  11.513
 1392W        W 5456   3.395   8.028   0.197
 1393W        W 5457   3.828   5.090   8.581
 1394W        W 5458   0.476   7.355   0.558
 1395W        W 5459   2.846   7.605  10.391
 1396W        W 5460   5.958   3.565  10.808
 1397W        W 5461   2.158   6.900   9.394
 1398W        W 5462   5.033   5.501   2.638
 1399W        W 5463   9.347   1.014   0.429
 1400W        W 5464   4.974   8.100  10.812
 1401W        W 5465   0.359   8.169   3.424
 1402W        W 5466   4.638   0.829   0.150
 1403W        W 5467   6.616   4.202   2.807
 1404W        W 5468   0.021   7.072   9.770
 1405W        W 5469   1.286   3.554  10.602
 1406W        W 5470   2.619   5.523   1.725
 1407W        W 5471   0.681   9.845  10.319
 1408W        W 5472   3.094   9.701   2.283
 1409W        W 5473   1.725   8.018   8.811
 1410W        W 5474   8.552   9.458  11.320
 1411W        W 5475   5.925   3.078  10.615
 1412W        W 5476   7.005  10.441   9.196
 1413W        W 5477   0.680   2.267  10.004
 1414W        W 5478   6.014   7.317   3.081
 1415W        W 5479   5.482   6.079  10.286
 1416W        W 5480   5.495   9.423  11.452
 1417W        W 5481   4.230   4.601   3.186
 1418W        W 5482   7.200   5.160   2.394
 1419W        W 5483   3.432   7.031   2.820
 1420W        W 5484   1.857   5.833   3.818
 1421W        W 5485   8.795   6.873  10.249
 1422W        W 5486   1.267   7.651  10.034
 1423W        W 5487   3.972   8.758  10.283
 1424W        W 5488   5.078  10.068   1.375
 1425W        W 5489   6.914   5.608   8.715
 1426W        W 5490   2.898  10.367   9.663
 1427W        W 5491   6.773   2.937  10.787
 1428W        W 5492   3.053  10.241   9.196
 1429W        W 5493   8.109   2.915   9.947
 1430W        W 5494   0.942   5.649   3.439
 1431W        W 5495   3.408   9.783   9.329
 1432W        W 5496   1.631   1.699   8.562
 1433W        W 5497   9.872   4.707   9.531
 1434W        W 5498   1.186   3.448   0.735
 1435W        W 5499   9.793   5.334   3.341
 1436W        W 5500   7.857   2.439  11.412
 1437W        W 5501   7.112   5.777   9.577
 1438W        W 5502   4.199   5.237   1.956
 1439W        W 5503   5.967   4.770  10.665
 1440W        W 5504   8.489   2.876   0.920
 1441W        W 5505   0.924   6.562   3.250
 1442W        W 5506   9.531   1.339  10.259
 1443W        W 5507   3.382   4.346   0.300
 1444W        W 5508   9.363   4.985   2.430
 1445W        W 5509   9.318   3.278  11.454
 1446W        W 5510   9.503   4.688  10.269
 1447W        W 5511   2.848   8.373   2.258
 1448W        W 5512   0.430   5.883   1.519
 1449W        W 5513   8.552   8.284   3.565
 1450W        W 5514   5.323   1.853   3.514
 1451W        W 5515   7.647   5.819   9.604
 1452W        W 5516   3.534   7.998  10.923
 1453W        W 5517   3.177   6.246   2.389
 1454W        W 5518   1.390   0.943  10.385
 1455W        W 5519   5.168   5.192  11.060
 1456W        W 5520   5.718   4.388  11.959
 1457W        W 5521   6.967   6.454   8.971
 1458W        W 5522   7.028   2.836  10.274
 1459W        W 5523   7.961   8.605   1.645
 1460W        W 5524   9.778   9.788  11.914
 1461W        W 5525   1.729   1.142  11.689
 1462W        W 5526  10.363   4.496   0.696
 1463W        W 5527   5.652   4.228   0.472
 1464W        W 5528   9.848   3.045   3.471
 1465W        W 5529   6.032   1.273   1.198
 1466W        W 5530   0.253   0.960   2.271
 1467W        W 5531   3.627   0.751  10.219
 1468W        W 5532   4.429  10.486   1.530
 1469W        W 5533   8.824   3.176   3.324
 1470W        W 5534   4.251   0.839   9.443
 1471W        W 5535   6.469   2.481   0.402
 1472W        W 5536   6.573   0.310  10.932
 1473W        W 5537   2.727  10.326  11.151
 1474W        W 5538   5.300   9.753   1.719
 1475W        W 5539   3.273   1.378   1.184
 1476W        W 5540   2.278   0.043  11.038
 1477W        W 5541   1.362   5.724   1.479
 1478W        W 5542   7.946   0.294  11.544
 1479W        W 5543   9.081   3.738   0.166
 1480W        W 5544   1.717   1.182   9.265
 1481W        W 5545   7.144   1.286   1.222
 1482W        W 5546   9.785   3.304   1.284
 1483W        W 5547   3.633   5.059   3.148
 1484W        W 5548   8.516   5.215   1.252
 1485W        W 5549   8.360   3.649   9.412
 1486W        W 5550   2.690   8.165  10.355
 1487W        W 5551   3.620   7.475   0.715
 1488W        W 5552   5.995   5.095   9.326
 1489W        W 5553   8.358   9.259   0.241
 1490W        W 5554   7.068   9.407   1.454
 1491W        W 5555   6.193   7.478   9.320
 1492W        W 5556   8.115   4.020   0.824
 1493W        W 5557   8.184   9.929   9.451
 1494W        W 5558   0.818   0.589   1.012
 1495W        W 5559   7.327   5.089   0.669
 1496W        W 5560  10.463   1.347  11.371
 1497W        W 5561   3.821   9.293  10.379
 1498W        W 5562   2.760   7.402   2.307
 1499W        W 5563   8.973   3.164   0.930
 1500W        W 5564   4.025   7.452  11.991
 1501W        W 5565   6.758   7.750  11.034
 1502W        W 5566   9.571   4.102   3.430
 1503W        W 5567   1.631   5.126   3.254
 1504W        W 5568   4.704   9.975   9.828
 1505W        W 5569   0.940   8.196   0.398
 1506W        W 5570   9.936   3.640   1.668
 1507W        W 5571   8.822   6.110  11.358
 1508W        W 5572   5.187   8.005   3.242
 1509W        W 5573   1.273   2.107  11.391
 1510W        W 5574   6.475   6.495   2.695
 1511W        W 5575   0.657   5.679   9.065
 1512W        W 5576   1.783   4.387   9.265
 1513W        W 5577   8.553   4.711   0.998
 1514W        W 5578   0.904   8.967  10.862
 1515W        W 5579   6.197   7.902   8.530
 1516W        W 5580   6.005   9.012   1.711
 1517W        W 5581   8.151   4.998   9.547
 1518W        W 5582   2.739   4.245   8.866
 1519W        W 5583   9.501   9.397  10.623
 1520W        W 5584   3.729   7.657   3.217
 1521W        W 5585   0.851   6.015  11.336
 1522W        W 5586   9.948   2.418   1.155
 1523W        W 5587   8.594   1.466   1.068
 1524W        W 5588   3.263   2.914   0.498
 1525W        W 5589   4.065   5.014   3.415
 1526W        W 5590   0.248   7.858   8.768
 1527W        W 5591   3.781   0.898   2.231
 1528W        W 5592  10.265   0.822  11.429
 1529W        W 5593  10.242   0.963   2.262
 1530W        W 5594   3.357   4.265   2.238
 1531W        W 5595   0.829   7.387   9.435
 1532W        W 5596   5.742   6.332  11.638
 1533W        W 5597   1.943   1.546   0.220
 1534W        W 5598   2.839   0.991   2.999
 1535W        W 5599   1.943   2.206   1.435
 1536W        W 5600   2.596   7.977   9.444
 1537W        W 5601   4.199   2.756   9.918
 1538W        W 5602   6.968   7.910   1.038
 1539W        W 5603   6.851  10.041   8.906
 1540W        W 5604   3.189   6.666   1.052
 1541W        W 5605   4.271   7.516   2.057
 1542W        W 5606   5.986   5.725   2.194
 1543W        W 5607   8.823   7.420  11.496
 1544W        W 5608   3.335   0.413   0.663
 1545W        W 5609  10.218   0.462  11.803
 1546W        W 5610   2.446  10.417  10.025
 1547W        W 5611   7.740   6.525   3.322
 1548W        W 5612   9.031   9.864   1.456
 1549W        W 5613   5.138   9.577  10.753
 1550W        W 5614   7.884   5.716  11.216
 1551W        W 5615  10.350   1.671   1.592
 1552W        W 5616   1.740   3.556   0.840
 1553W        W 5617   4.974   5.053   3.430
 1554W        W 5618   3.737   3.635   2.644
 1555W        W 5619   4.182   4.211   0.900
 1556W        W 5620   3.671   0.313  10.553
 1557W        W 5621   6.700   0.644   3.219
 1558W        W 5622   0.759   4.771   0.314
 1559W        W 5623   6.828   2.676   3.274
 1560W        W 5624   0.933   1.752   9.406
 1561W        W 5625   7.666   9.013   8.558
 1562W        W 5626   8.180   3.187   9.276
 1563W        W 5627   5.468   8.017  10.839
 1564W        W 5628   3.582   3.655  10.891
 1565W        W 5629   5.049   7.847   9.911
 1566W        W 5630   3.263   6.199   0.823
 1567W        W 5631   1.132   9.438   2.267
 1568W        W 5632   2.574   8.055   2.727
 1569W        W 5633   5.097  10.411   9.292
 1570W        W 5634   8.371   4.400   2.869
 1571W        W 5635   9.969   4.149   1.474
 1572W        W 5636   2.149   2.728   2.590
 1573W        W 5637   9.238   0.297  11.505
 1574W        W 5638   9.857   7.958  10.627
 1575W        W 5639   5.176   7.560   8.272
 1576W        W 5640   1.616   9.880   9.957
 1577W        W 5641   1.230   5.671   9.550
 1578W        W 5642   6.544   5.997  11.502
 1579W        W 5643   4.504   4.488   0.572
 1580W        W 5644   1.227   4.720   9.344
 1581W        W 5645   8.649   6.270   1.241
 1582W        W 5646   3.572   9.988   1.409
 1583W        W 5647  10.488   2.825  11.135
 1584W        W 5648   6.147   4.675   2.953
 1585W        W 5649  10.398   9.476   1.086
 1586W        W 5650   9.839   9.282  11.932
 1587W        W 5651   4.981   3.717   8.516
 1588W        W 5652   2.697   0.662   9.462
 1589W        W 5653   7.944   5.414  10.763
 1590W        W 5654   5.134   2.352   0.788
 1591W        W 5655   8.278   7.832   2.307
 1592W        W 5656   1.893   2.357  11.172
 1593W        W 5657   3.228   3.785   2.430
 1594W        W 5658   7.063   8.519   2.738
 1595W        W 5659   7.532   3.330   2.693
 1596W        W 5660   1.343   4.707   3.445
 1597W        W 5661   3.214   1.969   2.971
 1598W        W 5662   8.298  10.320   1.837
 1599W        W 5663   2.401   2.449   1.391
 1600W        W 5664   3.469   6.900   1.963
 1601W        W 5665   7.667   0.004   2.529
 1602W        W 5666   1.327   6.950   8.969
 1603W        W 5667   7.200  10.323   2.663
 1604W        W 5668   6.549   2.242   2.328
 1605W        W 5669   1.824   9.144   2.317
 1606W        W 5670   3.677   7.225  10.064
 1607W        W 5671   2.824   2.590   1.905
 1608W        W 5672   4.902   0.251   2.597
 1609W        W 5673   7.734   1.922   3.216
 1610W        W 5674   2.950   3.608   1.092
 1611W        W 5675   3.569   2.622   0.197
 1612W        W 5676   6.736   0.150   1.564
 1613W        W 5677   8.428   4.586   2.001
 1614W        W 5678   7.964   6.070   3.134
 1615W        W 5679   1.057   9.966   9.250
 1616W        W 5680   8.548   9.254  10.407
 1617W        W 5681   8.081   0.525   9.690
 1618W        W 5682   0.220  10.399   1.595
 1619W        W 5683   8.408   0.730   9.069
 1620W        W 5684   4.752   6.466   9.429
 1621W        W 5685   3.203   9.114  11.977
 1622W        W 5686  10.054   9.942   9.578
 1623W        W 5687  10.082   4.736  10.948
 1624W        W 5688   2.163   1.674  11.723
 1625W        W 5689   1.071   0.783  11.168
 1626W        W 5690   8.879   7.998   0.155
 1627W        W 5691   3.894   5.154   0.802
 1628W        W 5692   5.558   5.874   1.013
 1629W        W 5693  10.267   8.857   9.751
 1630W        W 5694   0.262   7.975   9.281
 1631W        W 5695   6.218   6.481   3.151
 1632W        W 5696   3.177   6.055   3.592
 1633W        W 5697   9.512   2.960   9.551
 1634W        W 5698   6.449   1.861   0.476
 1635W        W 5699   0.871   1.265   2.863
 1636W        W 5700   1.711   1.508   2.353
 1637W        W 5701   5.293   7.541   9.285
 1638W        W 5702   8.833   9.976  10.737
 1639W        W 5703   8.236   7.863   0.298
 1640W        W 5704   1.391   1.974   9.547
 1641W        W 5705   4.155   9.947  10.002
 1642W        W 5706   4.933   6.486   1.460
 1643W        W 5707   2.020   8.014   0.943
 1644W        W 5708   1.292   0.758   9.050
 1645W        W 5709   6.959   0.410  10.009
 1646W        W 5710   7.239   1.842   3.335
 1647W        W 5711   3.639   1.745   0.216
 1648W        W 5712   3.229   3.613   2.922
 1649W        W 5713   2.122   3.847   0.164
 1650W        W 5714   9.447   3.236  10.002
 1651W        W 5715   8.286   6.281  10.806
 1652W        W 5716   6.645   4.990   0.435
 1653W        W 5717   1.080   5.157  11.413
 1654W        W 5718   0.466   1.321  10.017
 1655W        W 5719   9.844   7.683   2.672
 1656W        W 5720  10.481   6.945   2.291
 1657W        W 5721   4.235   5.137  11.016
 1658W        W 5722   3.099   8.208  11.820
 1659W        W 5723   1.030   9.996   0.175
 1660W        W 5724   9.612   6.230   9.953
 1661W        W 5725   8.700   6.044   2.247
 1662W        W 5726   7.511   2.397   3.215
 1663W        W 5727   4.114   0.316   2.267
 1664W        W 5728   1.936   1.708  10.637
 1665W        W 5729   1.742   4.058  11.825
 1666W        W 5730   0.481   2.696  10.193
 1667W        W 5731   6.923   2.579   9.260
 1668W        W 5732   6.960   5.869   0.861
 1669W        W 5733   6.218   0.917  11.930
 1670W        W 5734   2.899   5.599   2.965
 1671W        W 5735  10.337   3.719   1.963
 1672W        W 5736   9.189   3.758  11.344
 1673W        W 5737   6.248   4.031   3.128
 1674W        W 5738   6.282  10.096   0.870
 1675W        W 5739   0.679   0.876   1.408
 1676W        W 5740   8.760   4.631   0.296
 1677W        W 5741   4.579   4.772  11.221
 1678W        W 5742   1.413   1.879  10.491
 1679W        W 5743   5.803   9.854   1.751
 1680W        W 5744   5.145   8.556  11.581
 1681W        W 5745   4.064   7.509   0.976
 1682W        W 5746   4.676   5.533   2.985
 1683W        W 5747   4.575   0.351   2.042
 1684W        W 5748   9.457   1.175   8.959
 1685W        W 5749  10.218   1.864  11.062
 1686W        W 5750   6.675   7.685   8.523
 1687W        W 5751   7.919   6.040   2.629
 1688W        W 5752   5.018   3.343   8.958
 1689W        W 5753   3.678   6.345  11.769
 1690W        W 5754   7.887   5.935  10.733
 1691W        W 5755   3.822   5.950   2.706
 1692W        W 5756   4.224   5.178  11.550
 1693W        W 5757   6.574   5.707   3.372
 1694W        W 5758   2.992   4.701   8.928
 1695W        W 5759   2.723   3.756   2.662
 1696W        W 5760   0.858   2.799   3.268
 1697W        W 5761   6.011   9.152   0.198
 1698W        W 5762   5.527   8.931   1.982
 1699W        W 5763   7.019   6.080  11.325
 1700W        W 5764   1.357   9.129  11.753
 1701W        W 5765   3.425   8.013   2.939
 1702W        W 5766   2.643   4.080   9.357
 1703W        W 5767   5.026   3.665   3.753
 1704W        W 5768   7.083   2.830  11.849
 1705W        W 5769   8.162   4.155   1.332
 1706W        W 5770   5.170   3.288  11.239
 1707W        W 5771   5.653   1.873   1.399
 1708W        W 5772   4.036   3.245   1.897
 1709W        W 5773   7.394   0.814   2.138
 1710W        W 5774   7.029   1.432  11.721
 1711W        W 5775   7.997   4.049   2.900
 1712W        W 5776   5.247   1.689   0.509
 1713W        W 5777   9.440   0.781   3.553
 1714W        W 5778   8.367   8.858   1.400
 1715W        W 5779  10.119   7.123  10.084
 1716W        W 5780   0.414   2.255  10.461
 1717W        W 5781   4.052   1.978   3.296
 1718W        W 5782   3.053   1.689   1.990
 1719W        W 5783   8.411   5.975  10.415
 1720W        W 5784   2.232   0.923   9.466
 1721W        W 5785   0.421   3.885  11.885
 1722W        W 5786  10.050   1.759   2.361
 1723W        W 5787   4.219   9.604  10.381
 1724W        W 5788   5.244   6.633   9.473
 1725W        W 5789   9.043   1.308   3.558
 1726W        W 5790   5.407   5.570   1.391
 1727W        W 5791   7.442   6.226   9.354
 1728W        W 5792   5.206   4.796   0.855
 1729W        W 5793   1.712   9.430  11.948
 1730W        W 5794   2.838   8.835   0.209
 1731W        W 5795   0.285   5.000   3.139
 1732W        W 5796   8.914   4.590   1.708
 1733W        W 5797   4.760  10.337   2.965
 1734W        W 5798   5.704   4.519  11.182
 1735W        W 5799   7.702  10.411  10.453
 1736W        W 5800   8.153   6.763  11.554
 1737W        W 5801   0.463   7.236   0.041
 1738W        W 5802   7.432   4.813   9.483
 1739W        W 5803   5.947   7.879  10.101
 1740W        W 5804   0.129   7.516  10.507
 1741W        W 5805   7.949   9.259   9.606
 1742W        W 5806   6.271   7.020  10.049
 1743W        W 5807   8.598   5.137   0.370
 1744W        W 5808   9.412   4.698   0.517
 1745W        W 5809   5.537   4.791   2.347
 1746W        W 5810   5.582   3.629  11.252
 1747W        W 5811   8.002   8.822   9.891
 1748W        W 5812   9.461   0.347   0.425
 1749W        W 5813   8.980   7.215   9.404
 1750W        W 5814   8.890   8.058   9.633
 1751W        W 5815   7.644   5.601  10.405
 1752W        W 5816   5.067   1.271   2.858
 1753W        W 5817   2.196   0.770   0.297
 1754W        W 5818   3.614   3.535   9.840
 1755W        W 5819  10.332   6.059   1.986
 1756W        W 5820   4.253   3.697   0.975
 1757W        W 5821   9.343   7.441   9.093
 1758W        W 5822   2.158   3.793   1.545
 1759W        W 5823   9.045   6.225  11.823
 1760W        W 5824   4.707   1.316   3.326
 1761W        W 5825  10.473   1.855   2.103
 1762W        W 5826   9.716   5.129  10.452
 1763W        W 5827   1.496   1.700  10.001
 1764W        W 5828   1.225   3.314   3.332
 1765W        W 5829   4.695   9.828   0.309
 1766W        W 5830  10.018   8.514   1.428
 1767W        W 5831   2.182   5.040  10.719
 1768W        W 5832   9.580   2.194   8.928
 1769W        W 5833   4.779   7.629  10.737
 1770W        W 5834   8.208   5.374  11.418
 1771W        W 5835   6.923   0.370   2.846
 1772W        W 5836   7.074   9.835   1.186
 1773W        W 5837   2.948   8.362  11.346
 1774W        W 5838   3.297   1.047   3.317
 1775W        W 5839   6.541   5.706   9.088
 1776W        W 5840   7.870   4.524   9.569
 1777W        W 5841   4.276   4.058   0.400
 1778W        W 5842   9.609   0.320   1.724
 1779W        W 5843   9.596   7.905   3.092
 1780W        W 5844   2.234   6.426   2.063
 1781W        W 5845   9.988   6.852  10.506
 1782W        W 5846   2.657   0.777   1.688
 1783W        W 5847   8.301   2.322   9.281
 1784W        W 5848  10.116   7.459  11.787
 1785W        W 5849   7.535   4.387   9.200
 1786W        W 5850   0.391   3.640   3.207
 1787W        W 5851   7.945   7.385   8.751
 1788W        W 5852   1.061   8.354   0.939
 1789W        W 5853   0.866   1.610   2.467
 1790W        W 5854   0.345   1.401   0.735
 1791W        W 5855   9.424   0.798   1.418
 1792W        W 5856   0.483   4.798  11.876
 1793W        W 5857   6.143   2.733   9.969
 1794W        W 5858   6.647   0.893   9.077
 1795W        W 5859   7.231   8.291   9.536
 1796W        W 5860   4.580   9.492  10.039
 1797W        W 5861   7.066   3.699   8.755
 1798W        W 5862   0.846   7.066   0.335
 1799W        W 5863   6.437   8.723   3.426
 1800W        W 5864   8.050  10.462   3.268
 1801W        W 5865   8.317   3.737  11.028
 1802W        W 5866  10.152   6.577   2.742
 1803W        W 5867   7.389   5.716  11.383
 1804W        W 5868   6.005   5.628  10.847
 1805W        W 5869   1.652   7.357   9.907
 1806W        W 5870   3.831   2.716   1.761
 1807W        W 5871   2.128   0.093   1.401
 1808W        W 5872   8.404   7.464   1.985
 1809W        W 5873   4.138   5.123   2.432
 1810W        W 5874   8.836   2.119  10.379
 1811W        W 5875   4.698   5.503   0.697
 1812W        W 5876   4.656   7.883   0.439
 1813W        W 5877   7.442   2.728  11.474
 1814W        W 5878   9.130   7.076  11.739
 1815W        W 5879   0.007   7.040   2.796
 1816W        W 5880   6.491   4.899   9.499
 1817W        W 5881   6.030   5.237  10.460
 1818W        W 5882   1.612   9.636  10.465
 1819W        W 5883   0.209   9.010  10.366
 1820W        W 5884   9.949   9.461   9.785
 1821W        W 5885   2.847   4.715  11.167
 1822W        W 5886   5.410   4.093  11.162
 1823W        W 5887  10.401   0.219   3.454
 1824W        W 5888   3.691   2.849   2.808
 1825W        W 5889   2.377   3.642  11.154
 1826W        W 5890   4.179   7.054   1.229
 1827W        W 5891   7.100   5.462   1.768
 1828W        W 5892   5.933   9.458   9.152
 1829W        W 5893   1.177   6.510   9.170
 1830W        W 5894   4.661   4.049   0.772
 1831W        W 5895  10.231   8.812  11.250
 1832W        W 5896   1.210   1.840   2.155
 1833W        W 5897  10.010   0.963   9.823
 1834W        W 5898   7.113   0.845   2.983
 1835W        W 5899   0.189   0.790   1.385
 1836W        W 5900   2.900   5.788   9.864
 1837W        W 5901   8.080   7.731   1.726
 1838W        W 5902   2.193   9.808   2.931
 1839W        W 5903   0.263   2.595  11.542
 1840W        W 5904   2.973   5.224  11.323
 1841W        W 5905   0.265   5.231  11.692
 1842W        W 5906   2.788   3.193   1.355
 1843W        W 5907   6.738   6.490   3.165
 1844W        W 5908   7.863   5.783   0.945
 1845W        W 5909   7.552   4.666  11.281
 1846W        W 5910   0.257   0.931  11.463
 1847W        W 5911   1.486   1.826   3.658
 1848W        W 5912   8.547   6.369   9.429
 1849W        W 5913   5.149   4.263   0.663
 1850W        W 5914   5.748  10.398   2.915
 1851W        W 5915   5.678   2.885   1.435
 1852W        W 5916   0.206  10.061  11.874
 1853W        W 5917   2.716   2.350   0.804
 1854W        W 5918   4.495   0.269  10.912
 1855W        W 5919   3.396   9.466   2.952
 1856W        W 5920   9.972   9.375  10.292
 1857W        W 5921   9.028   9.398   9.977
 1858W        W 5922   3.625   4.529  11.400
 1859W        W 5923   1.818   1.225   1.912
 1860W        W 5924   6.733   5.088   8.337
 1861W        W 5925   8.531   9.523   9.973
 1862W        W 5926   9.416   1.467   0.203
 1863W        W 5927   6.094   5.442   0.808
 1864W        W 5928   9.197   0.472   2.620
 1865W        W 5929   2.918   5.485  10.826
 1866W        W 5930   4.130   3.606  10.864
 1867W        W 5931   1.457  10.384   2.387
 1868W        W 5932   4.992   2.717  10.555
 1869W        W 5933   4.065   1.268   9.635
 1870W        W 5934   1.778   4.781  11.107
 1871W        W 5935   9.382  10.174   2.251
 1872W        W 5936   3.230   7.524   1.022
 1873W        W 5937   5.623   0.755  10.233
 1874W        W 5938   3.283   2.735   9.818
 1875W        W 5939   3.135   9.085   8.615
 1876W        W 5940   9.934   0.206  10.808
 1877W        W 5941   5.605   5.506   0.647
 1878W        W 5942   2.267   6.914  10.474
 1879W        W 5943   5.792   3.998  10.346
 1880W        W 5944   8.586  10.271  11.689
 1881W        W 5945   3.747   5.053  10.112
 1882W        W 5946   1.931   3.363   0.363
 1883W        W 5947   6.481   3.850   0.500
 1884W        W 5948   8.909   0.190  11.903
 1885W        W 5949   6.508   6.284   9.211
 1886W        W 5950   8.298   4.702   0.505
 1887W        W 5951   6.121   2.316   3.130
 1888W        W 5952   4.529   6.641  11.668
 1889W        W 5953   9.165   1.924  11.985
 1890W        W 5954   1.473   0.753  10.836
 1891W        W 5955   1.656   8.863   8.401
 1892W        W 5956   3.788   5.181   1.666
 1893W        W 5957   2.494   6.238   2.848
 1894W        W 5958  10.237   0.310   8.907
 1895W        W 5959  10.010   2.766  10.991
 1896W        W 5960   6.208   7.396   8.808
 1897W        W 5961   5.503   4.288   9.878
 1898W        W 5962   8.811   8.938  10.085
 1899W        W 5963   8.354   2.674  10.550
 1900W        W 5964   5.434   9.194   1.263
 1901W        W 5965   3.293   2.620  10.864
 1902W        W 5966   9.218   0.970   9.402
 1903W        W 5967   7.363   3.378   8.467
 1904W        W 5968   6.125   6.999   0.986
 1905W        W 5969   5.687   0.234  10.419
 1906W        W 5970   9.712   8.444   9.953
 1907W        W 5971   0.429   7.040   9.457
 1908W        W 5972   2.589   3.355   0.819
 1909W        W 5973   0.734   6.509   9.526
 1910W        W 5974   1.691   8.187   2.309
 1911W        W 5975   7.904   2.891  10.410
 1912W        W 5976   4.694   0.835   9.707
 1913W        W 5977   9.896   1.350   8.747
 1914W        W 5978   5.730   2.958  10.165
 1915W        W 5979   4.277   9.004   9.953
 1916W        W 5980   5.513   8.359   0.220
 1917W        W 5981   1.448   0.456   0.655
 1918W        W 5982   4.162   9.743   1.283
 1919W        W 5983   2.036   5.545  10.506
 1920W        W 5984   7.879   7.513   9.751
 1921W        W 5985   2.313   8.777  11.859
 1922W        W 5986   3.014   1.741   8.733
 1923W        W 5987   5.217   8.930   3.316
 1924W        W 5988   6.052   0.920  10.003
 1925W        W 5989   6.168   7.598   2.171
 1926W        W 5990   2.154   7.760   0.075
 1927W        W 5991   7.537   9.937   2.477
 1928W        W 5992   8.629   2.658   3.495
 1929W        W 5993  10.490   5.149   1.715
 1930W        W 5994   9.823   4.575   1.827
 1931W        W 5995   7.898   7.170  10.627
 1932W        W 5996   8.134   8.157   1.477
 1933W        W 5997   4.684   3.434  11.166
 1934W        W 5998   9.275   0.245   2.171
 1935W        W 5999   7.452   0.827  10.454
 1936W        W 6000   0.058   0.346   1.151
 1937W        W 6001   1.376   3.678  11.593
 1938W        W 6002   9.998   5.458   0.527
 1939W        W 6003  10.059   9.359   3.307
 1940W        W 6004   3.628   4.059  11.230
 1941W        W 6005   4.969   9.072   1.422
 1942W        W 6006   4.634   8.419  11.958
 1943W        W 6007   1.566   5.269  11.303
 1944W        W 6008   1.646   0.743   2.096
 1945W        W 6009   3.814   9.588   1.643
 1946W        W 6010   2.688   1.850   3.149
 1947W        W 6011   1.856   4.034   3.168
 1948W        W 6012   9.897   2.026   2.766
 1949W        W 6013   6.428   8.014   2.356
 1950W        W 6014   2.862   6.443  10.587
 1951W        W 6015   3.068   5.053   2.749
 1952W        W 6016   1.242   9.064  10.467
 1953W        W 6017   2.198   7.056   3.439
 1954W        W 6018   5.125   4.693   9.228
 1955W        W 6019   8.747   6.206   9.888
 1956W        W 6020   2.249   7.358   0.430
 1957W        W 6021   6.860   4.232   9.858
 1958W        W 6022   4.651   6.086  10.966
 1959W        W 6023   7.441   4.496   4.192
 1960W        W 6024   2.758   0.993  11.809
 1961W        W 6025   8.994   8.035  11.100
 1962W        W 6026   8.886   6.364   9.047
 1963W        W 6027   7.629   4.136  11.438
 1964W        W 6028   9.736   6.218   2.840
 1965W        W 6029   9.300   2.348  10.499
 1966W        W 6030   8.166   4.639   2.465
 1967W        W 6031   0.464   7.028   2.480
 1968W        W 6032  10.454   2.245  11.352
 1969W        W 6033   2.688   6.890   3.525
 1970W        W 6034   8.015   9.094   3.520
 1971W        W 6035   5.492   8.852   0.310
 1972W        W 6036   2.530   9.877  11.766
 1973W        W 6037   4.503   3.179   9.882
 1974W        W 6038   2.215  10.298   0.974
 1975W        W 6039   0.860   9.007  11.784
 1976W        W 6040   3.588  10.491   1.208
 1977W        W 6041   8.306   5.136   0.791
 1978W        W 6042   7.466   0.668   8.491
 1979W        W 6043   0.758   1.114   2.369
 1980W        W 6044   9.550   0.172   9.969
 1981W        W 6045   9.101   2.853   3.632
 1982W        W 6046   6.606   7.122  11.004
 1983W        W 6047   5.603   7.949   9.251
 1984W        W 6048   1.988   6.976   0.226
 1985W        W 6049   6.015   4.090   3.578
 1986W        W 6050   2.776  10.044   0.978
 1987W        W 6051   9.682   3.442   9.557
 1988W        W 6052   0.699   8.571   2.471
 1989W        W 6053   0.668   8.659   0.825
 1990W        W 6054   5.845   9.952   8.914
 1991W        W 6055   7.636   3.185  10.754
 1992W        W 6056   3.568   0.264   9.057
 1993W        W 6057   2.892   2.128  10.462
 1994W        W 6058   3.907   1.321   0.316
 1995W        W 6059   0.353   5.853  10.646
 1996W        W 6060   8.337   4.743  11.027
 1997W        W 6061   3.329   9.460  10.362
 1998W        W 6062   5.115   6.223   3.755
 1999W        W 6063   7.160   4.282  11.337
 2000W        W 6064   5.461   0.931   2.654
 2001W        W 6065   7.899   2.769   3.248
 2002W        W 6066   0.355   2.520   9.667
 2003W        W 6067  10.313   7.419   3.345
 2004W        W 6068   5.768   2.711   0.944
 2005W        W 6069   7.450   2.687  10.509
 2006W        W 6070   2.244   2.887   9.002
 2007W        W 6071   6.876   8.072   1.509
 2008W        W 6072   6.525   0.624   1.682
 2009W        W 6073  10.028   8.340   9.038
 2010W        W 6074   7.343   8.706   9.244
 2011W        W 6075   3.371   3.158   3.824
 2012W        W 6076   8.344   1.262   2.824
 2013W        W 6077   9.269   1.550   3.183
 2014W        W 6078   7.238   7.629   1.386
 2015W        W 6079   0.750   1.870   2.891
 2016W        W 6080   1.289   8.056   2.025
 2017W        W 6081   5.781   3.904   2.274
 2018W        W 6082   5.007   0.414   9.687
 2019W        W 6083  10.329   7.474   9.512
 2020W        W 6084   9.622  10.346   3.120
 2021W        W 6085   5.120   8.044   9.438
 2022W        W 6086   0.450   4.511  10.000
 2023W        W 6087   5.171   9.053  11.482
 2024W        W 6088   9.135   8.336  11.485
 2025W        W 6089   2.829   9.236   2.280
 2026W        W 6090   7.771   9.483   3.210
 2027W        W 6091  10.229   8.411  10.015
 2028W        W 6092   2.721   0.730   0.249
 2029W        W 6093   1.484   7.607   0.723
 2030W        W 6094   8.074   1.416  10.377
 2031W        W 6095   3.817   7.586  11.038
 2032W        W 6096   4.174   4.619   2.228
 2033W        W 6097   7.412   7.956   0.742
 2034W        W 6098   9.045   1.599  11.581
 2035W        W 6099   1.220   8.579   3.228
 2036W        W 6100   0.465   1.397  11.363
 2037W        W 6101   9.868   8.390  10.980
 2038W        W 6102   3.789   0.389   0.946
 2039W        W 6103   8.544   1.377   0.573
 2040W        W 6104   5.722   2.892   2.348
 2041W        W 6105   3.392   5.740   3.212
 2042W        W 6106   8.437   2.787   9.540
 2043W        W 6107   8.886   6.189   1.766
 2044W        W 6108   2.352   0.302   3.261
 2045W        W 6109   8.667   9.037   1.799
 2046W        W 6110   6.714   1.786   9.195
 2047W        W 6111   1.503   9.944   9.459
 2048W        W 6112   1.875   8.078  11.463
 2049W        W 6113   1.716   6.174   8.522
 2050W        W 6114   1.326   1.072   1.834
 2051W        W 6115  10.086   6.971  11.590
 2052W        W 6116   3.587   2.303   9.101
 2053W        W 6117   2.333   5.691   2.736
 2054W        W 6118   7.423   2.628   9.497
 2055W        W 6119   2.393   9.668  11.303
 2056W        W 6120   1.247   9.399  11.032
 2057W        W 6121  10.421   5.707  10.872
 2058W        W 6122   9.968   1.361  11.531
 2059W        W 6123   0.346   1.469   9.516
 2060W        W 6124  10.383   2.407   9.523
 2061W        W 6125   6.181   6.520   0.716
 2062W        W 6126   2.369   9.634  10.136
 2063W        W 6127   1.082   7.394  10.440
 2064W        W 6128   4.600   5.146   8.848
 2065W        W 6129   5.150   9.544   2.649
 2066W        W 6130   2.369   2.114   0.514
 2067W        W 6131   3.963   4.135   4.001
 2068W        W 6132   4.687   2.411   3.196
 2069W        W 6133   2.737   4.624   8.490
 2070W        W 6134   5.560   4.388   3.584
 2071W        W 6135   5.243   0.887  11.431
 2072W        W 6136   4.542   4.622   1.429
 2073W        W 6137   5.692   0.757   3.097
 2074W        W 6138   1.483   8.916   1.521
 2075W        W 6139   1.113   8.991  11.324
 2076W        W 6140   2.351   6.028   2.352
 2077W        W 6141   0.777   2.646   9.265
 2078W        W 6142   3.903   1.908  10.246
 2079W        W 6143   0.838   7.691   1.880
 2080W        W 6144   5.292   4.448  11.504
 2081W        W 6145   5.256  10.491  10.835
 2082W        W 6146   2.857   3.991   1.418
 2083W        W 6147   7.455   6.110  11.021
 2084W        W 6148   5.925   3.182   9.755
 2085W        W 6149   8.481   9.504   9.470
 2086W        W 6150   9.612  10.181  11.608
 2087W        W 6151   8.297   5.102  10.488
 2088W        W 6152   2.630   7.107   9.209
 2089W        W 6153   6.328   9.424   8.831
 2090W        W 6154   0.819   5.254   0.530
 2091W        W 6155  10.110   1.437   9.711
 2092W        W 6156   6.505   1.131   1.882
 2093W        W 6157   0.058   9.525   2.974
 2094W        W 6158   9.483   2.894  11.796
 2095W        W 6159   3.668   9.337  11.789
 2096W        W 6160   9.845   5.179   2.862
 2097W        W 6161   6.567   4.337   0.433
 2098W        W 6162   8.290  10.462  11.276
 2099W        W 6163   9.198   6.143   2.164
 2100W        W 6164   0.451   2.054   0.389
 2101W        W 6165   3.015   8.707  11.732
 2102W        W 6166   5.475   2.147   0.449
 2103W        W 6167   8.981   7.532  11.018
 2104W        W 6168   8.739   3.562  11.256
 2105W        W 6169   5.055   5.201   9.102
 2106W        W 6170   8.979   8.365  10.620
 2107W        W 6171   2.272   4.892   8.481
 2108W        W 6172   3.690   0.862   0.185
 2109W        W 6173   4.221   9.280   3.708
 2110W        W 6174   9.118   2.401   8.893
 2111W        W 6175   2.669   0.557   2.508
 2112W        W 6176   8.490   7.950  10.969
 2113W        W 6177   7.034   3.572   2.261
 2114W        W 6178   3.674  10.388   8.707
 2115W        W 6179   6.260   6.736  11.060
 2116W        W 6180   3.549   1.715   2.156
 2117W        W 6181   9.826   1.521  11.048
 2118W        W 6182   3.756   0.404   1.463
 2119W        W 6183  10.101  10.270   3.410
 2120W        W 6184   8.371   8.112   1.022
 2121W        W 6185   8.817   9.244  11.835
 2122W        W 6186   2.950   7.678   2.905
 2123W        W 6187   9.970   9.277  10.774
 2124W        W 6188   5.667   6.708   9.760
 2125W        W 6189   7.954   6.225  11.212
 2126W        W 6190   7.466   0.335   1.913
 2127W        W 6191   6.825   9.401  11.580
 2128W        W 6192   8.148   1.332   0.872
 2129W        W 6193   1.179   2.627  11.558
 2130W        W 6194   8.933   9.960   2.480
 2131W        W 6195   4.969   5.996  10.071
 2132W        W 6196   1.008   4.702   2.217
 2133W        W 6197   2.795   8.910  10.890
 2134W        W 6198   4.259   0.309   0.711
 2135W        W 6199  10.379   0.391  10.520
 2136W        W 6200   4.049   9.843   2.297
 2137W        W 6201   9.110   3.852  10.427
 2138W        W 6202   5.734   0.212   1.483
 2139W        W 6203   3.164   3.312   8.601
 2140W        W 6204   3.639   9.041   0.807
 2141W        W 6205   0.831   0.757   9.390
 2142W        W 6206   2.389   1.243   0.348
 2143W        W 6207   0.856   6.965   9.742
 2144W        W 6208   1.748   2.136   8.813
 2145W        W 6209   3.423   1.414  11.370
 2146W        W 6210   5.777   7.377   1.231
 2147W        W 6211   0.806   5.844   0.776
 2148W        W 6212   6.060   7.896   9.045
 2149W        W 6213   1.944  10.411  10.153
 2150W        W 6214   6.157   1.680   2.469
 2151W        W 6215   1.810   6.757   3.580
 2152W        W 6216   1.393   5.930  10.967
 2153W        W 6217   1.488   2.649   1.764
 2154W        W 6218   7.886   1.695   0.582
 2155W        W 6219   9.747   1.818   0.369
 2156W        W 6220   2.076   5.423   0.922
 2157W        W 6221   3.987   6.490   3.313
 2158W        W 6222   4.260   9.552   1.868
 2159W        W 6223   2.853   5.548  11.729
 2160W        W 6224   9.371   9.872   3.302
 2161W        W 6225   8.031   2.284   3.000
 2162W        W 6226   2.227   2.239   3.307
 2163W        W 6227   7.996  10.148   2.323
 2164W        W 6228   6.913  10.334  11.463
 2165W        W 6229   2.748   3.586   8.754
 2166W        W 6230   7.825   8.493  11.616
 2167W        W 6231   9.105  10.293  11.570
 2168W        W 6232   6.963   2.710   0.344
 2169W        W 6233   3.132   0.884   1.454
 2170W        W 6234   1.025   4.998   8.896
 2171W        W 6235   0.698  10.342   1.425
 2172W        W 6236   7.090   2.303   0.059
 2173W        W 6237   6.533   4.661   2.610
 2174W        W 6238   8.552   2.708  10.055
 2175W        W 6239   3.630   7.966  10.385
 2176W        W 6240   9.058   6.996   1.186
 2177W        W 6241   8.027   4.411   3.239
 2178W        W 6242   1.405   4.668  11.471
 2179W        W 6243   4.711   8.917  10.727
 2180W        W 6244   6.708   7.207  11.895
 2181W        W 6245   7.996   9.890   8.513
 2182W        W 6246   9.488   4.094   2.244
 2183W        W 6247   9.380   8.031  10.472
 2184W        W 6248   5.027   3.295  10.752
 2185W        W 6249   5.656   5.829  11.672
 2186W        W 6250   3.672   9.546   8.949
 2187W        W 6251   4.063  10.464   9.057
 2188W        W 6252   5.643   8.478   2.192
 2189W        W 6253   3.319   6.645  10.854
 2190W        W 6254   1.653   6.629   0.070
 2191W        W 6255   8.067   1.225  10.876
 2192W        W 6256   3.278   6.645  10.328
 2193W        W 6257   9.541   1.800   2.466
 2194W        W 6258   8.946   0.837   3.381
 2195W        W 6259   7.343   4.372  11.835
 2196W        W 6260   1.185   2.735  10.670
 2197W        W 6261   1.167   4.512   0.524
 2198W        W 6262   3.381   2.042   1.818
 2199W        W 6263   2.183   7.017  10.971
 2200W        W 6264   4.505   3.186   0.802
 2201W        W 6265   5.642   6.027   0.556
 2202W        W 6266   5.356   6.822   1.906
 2203W        W 6267   1.733   3.634   1.333
 2204W        W 6268   7.618   4.044   9.580
 2205W        W 6269   9.377   7.593   1.791
 2206W        W 6270   6.974   1.940  11.709
 2207W        W 6271   1.705   5.216  10.808
 2208W        W 6272   2.840   0.571   0.808
 2209W        W 6273   9.523   6.992   9.337
 2210W        W 6274   2.605   4.102   1.868
 2211W        W 6275   2.440   6.263  11.942
 2212W        W 6276   6.177   4.738   1.575
 2213W        W 6277   0.607   8.150   0.786
 2214W        W 6278   9.005   8.312   9.213
 2215W        W 6279   9.505   1.451   8.429
 2216W        W 6280   6.445   5.207   9.101
 2217W        W 6281   3.689   5.719  11.201
 2218W        W 6282   2.559   5.584  10.437
 2219W        W 6283   5.353   1.742  10.390
 2220W        W 6284   5.275   1.285   0.160
 2221W        W 6285   8.827   7.842   1.012
 2222W        W 6286   8.777   5.085  10.332
 2223W        W 6287   6.711   5.656   2.867
 2224W        W 6288   3.177   5.300   0.425
 2225W        W 6289   8.667   2.260   0.808
 2226W        W 6290   0.699   7.937  10.959
 2227W        W 6291   8.569   8.997   8.645
 2228W        W 6292   3.358   3.013   3.179
 2229W        W 6293   2.313   0.261   2.754
 2230W        W 6294   5.231   2.144   2.626
 2231W        W 6295   6.925   8.037   9.874
 2232W        W 6296   1.870   0.131   2.214
 2233W        W 6297   2.876   9.891  10.878
 2234W        W 6298   4.022   9.109  11.484
 2235W        W 6299   1.880   2.199   3.706
 2236W        W 6300   7.098   4.042   3.545
 2237W        W 6301   0.318   0.509   9.774
 2238W        W 6302   9.023   2.320   2.860
 2239W        W 6303   2.870   2.683   1.409
 2240W        W 6304   7.126   7.940   3.015
 2241W        W 6305   3.242   1.819   9.201
 2242W        W 6306   4.638   1.290   2.004
 2243W        W 6307   9.425   9.240   9.603
 2244W        W 6308   0.400   0.751   8.770
 2245W        W 6309  10.306   8.310  11.239
 2246W        W 6310   5.424   0.408   8.849
 2247W        W 6311   0.818  10.325  11.483
 2248W        W 6312   8.461   9.507   0.691
 2249W        W 6313   7.992   2.313   3.506
 2250W        W 6314   3.489   8.906  10.328
 2251W        W 6315   4.212   6.044   0.959
 2252W        W 6316   5.269  10.474   9.772
 2253W        W 6317   7.343   8.400   3.165
 2254W        W 6318   6.642   0.208   2.465
 2255W        W 6319   1.607   9.577   2.092
 2256W        W 6320   4.367   1.960  10.464
 2257W        W 6321   1.521   4.699   2.272
 2258W        W 6322   3.154   9.461   8.996
 2259W        W 6323   8.957   1.114  11.367
 2260W        W 6324   3.075   2.201  11.740
 2261W        W 6325   3.380   8.347   9.375
 2262W        W 6326   1.392   7.549   9.511
 2263W        W 6327   0.925   7.392  11.896
 2264W        W 6328   5.155   9.060   2.823
 2265W        W 6329   6.970   6.971   1.848
 2266W        W 6330   1.866   2.137  10.353
 2267W        W 6331   8.997   0.533   0.300
 2268W        W 6332   7.559   6.824   9.821
 2269W        W 6333   6.668   1.160   0.008
 2270W        W 6334   1.416   5.137  11.792
 2271W        W 6335   4.575   9.296  11.054
 2272W        W 6336   4.636   9.358   3.427
 2273W        W 6337   3.368   7.877  11.544
 2274W        W 6338   1.053  10.474  11.927
 2275W        W 6339   8.915   1.535   0.274
 2276W        W 6340   3.630   5.552   1.966
 2277W        W 6341   6.199   1.859  10.457
 2278W        W 6342   3.038   6.916   3.132
 2279W        W 6343   1.082   1.891   1.386
 2280W        W 6344   7.341   9.662  11.053
 2281W        W 6345   8.185   9.479   2.878
 2282W        W 6346   3.284   4.273   8.790
 2283W        W 6347   2.280   9.084  11.441
 2284W        W 6348   1.536   6.179   2.907
 2285W        W 6349   8.182   2.562  11.018
 2286W        W 6350   5.664   2.047  11.989
 2287W        W 6351   1.571   1.775   1.273
 2288W        W 6352   0.426   7.131  10.655
 2289W        W 6353   0.447   2.122  11.451
 2290W        W 6354   1.319   3.886   8.614
 2291W        W 6355   1.950   7.013   0.962
 2292W        W 6356   0.963   0.273   0.631
 2293W        W 6357   3.686   2.203   3.039
 2294W        W 6358   8.980   4.163   0.430
 2295W        W 6359   2.387   8.611   0.338
 2296W        W 6360   1.771   4.244  10.984
 2297W        W 6361   1.922   8.442   8.544
 2298W        W 6362   4.250   7.044   0.195
 2299W        W 6363   9.210   7.479   2.333
 2300W        W 6364   0.673   3.944   2.913
 2301W        W 6365   2.154   7.996   9.685
 2302W        W 6366   7.088   6.695   4.084
 2303W        W 6367   9.437   6.170   0.710
 2304W        W 6368   7.693   9.710   0.845
 2305W        W 6369   1.066   9.446   2.793
 2306W        W 6370   6.880   1.284   2.208
 2307W        W 6371   2.318   4.840   3.259
 2308W        W 6372   3.832   8.466   1.406
 2309W        W 6373   8.900   8.381   0.969
 2310W        W 6374   3.971   6.713   1.979
 2311W        W 6375   9.192   3.594   8.891
 2312W        W 6376   5.532   9.871   2.174
 2313W        W 6377   0.470   6.142  11.658
 2314W        W 6378   8.808   6.678   0.555
 2315W        W 6379   6.127   1.852  11.548
 2316W        W 6380  10.440   1.341   1.955
 2317W        W 6381   9.848   1.749  10.011
 2318W        W 6382   9.990   1.170   0.012
 2319W        W 6383   8.998   1.984   1.616
 2320W        W 6384   7.985   2.711   1.716
 2321W        W 6385   1.565   5.369   0.224
 2322W        W 6386   0.846   8.075  10.501
 2323W        W 6387   6.684   7.997   0.254
 2324W        W 6388   5.468   5.214   2.678
 2325W        W 6389  10.462   8.472   2.650
 2326W        W 6390   9.996   2.601   3.303
 2327W        W 6391   3.135   3.542   1.741
 2328W        W 6392   9.854   3.242  11.832
 2329W        W 6393   7.190   3.048   9.309
 2330W        W 6394   1.368   0.495   8.598
 2331W        W 6395   3.468   4.161  10.755
 2332W        W 6396   7.642   6.003   8.367
 2333W        W 6397   4.830   2.792   0.927
 2334W        W 6398   1.739   5.860   9.713
 2335W        W 6399   7.362   6.039   1.787
 2336W        W 6400   4.136   8.842   2.384
 2337W        W 6401   4.537   3.631  10.128
 2338W        W 6402   0.733   1.650   0.488
 2339W        W 6403   1.576   6.463   1.865
 2340W        W 6404   4.334   0.996  11.401
 2341W        W 6405   7.018   7.624  10.165
 2342W        W 6406   1.689   0.061   0.362
 2343W        W 6407   4.396   2.641  11.061
 2344W        W 6408   4.233   3.402  11.417
 2345W        W 6409   3.544   1.725   0.870
 2346W        W 6410   6.459   0.213   1.990
 2347W        W 6411   5.065   4.068   8.135
 2348W        W 6412   3.197   4.645  10.047
 2349W        W 6413   1.448   0.764  11.879
 2350W        W 6414   8.956   8.432  10.093
 2351W        W 6415   8.971   7.936   1.563
 2352W        W 6416   2.913   0.277   0.403
 2353W        W 6417   9.977   8.779  11.937
 2354W        W 6418   2.223   6.037  10.993
 2355W        W 6419   3.629   2.599   0.742
 2356W        W 6420  10.160   8.725  10.736
 2357W        W 6421   1.863   7.418  11.153
 2358W        W 6422   0.242   0.253   8.851
 2359W        W 6423   7.472   7.541  11.437
 2360W        W 6424   8.539   6.556  11.793
 2361W        W 6425   9.636   6.625   0.895
 2362W        W 6426   7.242   3.190   1.011
 2363W        W 6427   7.683   9.105   9.067
 2364W        W 6428   8.910   7.857  10.618
 2365W        W 6429   3.363   6.963   8.531
 2366W        W 6430   6.690   1.678  10.258
 2367W        W 6431   3.295   7.884   0.673
 2368W        W 6432   4.569   9.838   3.173
 2369W        W 6433   9.688  10.206   9.794
 2370W        W 6434   9.869   5.442  11.522
 2371W        W 6435   7.934  10.180   0.859
 2372W        W 6436   6.630   8.755   2.977
 2373W        W 6437   0.416   1.419   2.684
 2374W        W 6438   0.142   6.745  10.883
 2375W        W 6439   7.587   5.557   1.700
 2376W        W 6440   6.695   1.667   9.730
 2377W        W 6441   6.391   5.722   1.609
 2378W        W 6442   3.387   9.764  11.631
 2379W        W 6443   4.765   1.244  11.873
 2380W        W 6444   1.169   6.081   3.250
 2381W        W 6445   6.281   3.658   0.938
 2382W        W 6446   8.139   3.070  10.829
 2383W        W 6447   7.163   5.461   2.792
 2384W        W 6448   5.687  10.268   2.438
 2385W        W 6449   1.368   6.564  10.199
 2386W        W 6450   8.113   7.541  10.312
 2387W        W 6451   8.020   2.263   2.485
 2388W        W 6452   7.055   3.360  11.582
 2389W        W 6453   2.751   8.797  10.052
 2390W        W 6454  10.076   0.152   1.610
 2391W        W 6455   1.848   6.469   3.174
 2392W        W 6456   1.662   9.218  10.763
 2393W        W 6457   2.704   4.467   0.041
 2394W        W 6458   4.492   6.617   2.705
 2395W        W 6459   1.406   7.220   1.510
 2396W        W 6460   2.242   6.017  10.451
 2397W        W 6461   7.420   4.552   1.317
 2398W        W 6462   4.700   9.359   0.067
 2399W        W 6463   8.762   5.195   3.251
 2400W        W 6464   9.786   6.957   0.539
 2401W        W 6465   4.851   5.019   1.207
 2402W        W 6466   3.170   6.335   8.349
 2403W        W 6467   2.588   3.867  11.934
 2404W        W 6468   7.491   7.499   1.850
 2405W        W 6469   6.948   0.871   1.906
 2406W        W 6470   9.471   1.513   0.722
 2407W        W 6471   7.528   5.470   1.196
 2408W        W 6472   5.037   9.657   2.164
 2409W        W 6473   2.007   2.856   9.454
 2410W        W 6474   6.907   5.598  11.523
 2411W        W 6475   9.818   5.610   0.043
 2412W        W 6476   4.259   8.342   9.204
 2413W        W 6477   2.361   2.282   2.800
 2414W        W 6478   6.995   4.194   0.187
 2415W        W 6479   0.403   7.588   3.357
 2416W        W 6480   7.013   9.856  11.768
 2417W        W 6481   5.106   5.393  11.508
 2418W        W 6482   3.818   6.476   9.631
 2419W        W 6483   2.933   9.838   9.490
 2420W        W 6484   7.934   3.331  11.623
 2421W        W 6485   3.538   4.319   9.508
 2422W        W 6486   0.793   1.149   0.969
 2423W        W 6487   7.071   5.813   4.095
 2424W        W 6488   3.746   9.901   8.518
 2425W        W 6489   4.203   7.943   0.678
 2426W        W 6490   9.092   2.374   0.566
 2427W        W 6491   8.463   2.841   1.563
 2428W        W 6492   9.386   4.590   2.093
 2429W        W 6493   8.202   1.030   1.848
 2430W        W 6494   2.977   9.235   3.149
 2431W        W 6495   5.004   0.361   3.079
 2432W        W 6496   8.526   7.977   1.865
 2433W        W 6497   8.123   6.612   9.526
 2434W        W 6498   5.199   4.636  10.517
 2435W        W 6499   6.040  10.135   9.394
 2436W        W 6500   8.329   1.713   0.265
 2437W        W 6501   1.934   7.374   1.800
 2438W        W 6502   3.240   9.405   0.572
 2439W        W 6503   3.954   1.039   3.509
 2440W        W 6504   9.860   1.284   9.273
 2441W        W 6505   5.904   4.099  11.421
 2442W        W 6506   8.053   5.632   1.878
 2443W        W 6507   7.522   8.200   2.734
 2444W        W 6508  10.298   7.978   2.651
 2445W        W 6509  10.142   6.761   0.890
 2446W        W 6510   5.726  10.288  10.671
 2447W        W 6511   5.661   0.731  11.700
 2448W        W 6512   4.221  10.327  10.849
 2449W        W 6513   3.720   6.934   2.413
 2450W        W 6514   6.933   9.815   3.575
 2451W        W 6515   3.269   3.812  11.504
 2452W        W 6516   1.198   5.654  11.368
 2453W        W 6517   2.113   3.167   0.783
 2454W        W 6518  10.490   7.015  10.411
 2455W        W 6519   4.005   2.261   9.862
 2456W        W 6520   5.918   2.661   9.522
 2457W        W 6521   3.575   6.565  11.323
 2458W        W 6522   4.738   3.204   9.394
 2459W        W 6523   3.844   2.405   2.593
 2460W        W 6524   6.390   6.687   3.684
 2461W        W 6525   0.183   6.595   2.609
 2462W        W 6526   8.635   6.535   3.438
 2463W        W 6527   4.559   7.983   9.480
 2464W        W 6528   3.663   1.365  11.841
 2465W        W 6529   5.691   8.023   8.708
 2466W        W 6530   0.838   5.026   1.267
 2467W        W 6531   0.975   3.293  10.923
 2468W        W 6532   6.539   4.369   1.395
 2469W        W 6533   6.989   2.016  10.963
 2470W        W 6534   7.620   6.702  10.362
 2471W        W 6535   4.107   9.631   9.247
 2472W        W 6536   5.024   7.743   1.599
 2473W        W 6537   1.161   8.965   3.556
 2474W        W 6538   4.085   3.109   1.056
 2475W        W 6539   1.349   1.462   3.301
 2476W        W 6540   3.825   9.868   9.597
 2477W        W 6541   3.294   1.360   1.687
 2478W        W 6542   8.466  10.258   0.241
 2479W        W 6543   3.278   8.938   2.869
 2480W        W 6544   8.036   8.195   1.997
 2481W        W 6545   0.731   9.016  10.381
 2482W        W 6546   7.306   2.845   3.421
 2483W        W 6547   9.237  10.328   0.550
 2484W        W 6548   5.964   0.344   1.913
 2485W        W 6549   7.163   4.187   1.584
 2486W        W 6550   6.155   9.088   3.218
 2487W        W 6551   8.663   3.576   8.999
 2488W        W 6552  10.478   5.309   0.383
 2489W        W 6553   8.935   2.494   1.517
 2490W        W 6554   6.492   1.929   8.709
 2491W        W 6555   6.175   7.797   3.165
 2492W        W 6556  10.010   9.220   0.845
 2493W        W 6557  10.453   7.998  10.254
 2494W        W 6558   7.971   7.306   0.799
 2495W        W 6559   3.335   9.964   8.850
 2496W        W 6560   5.995   9.124   9.538
 2497W        W 6561   8.836   0.429   3.045
 2498W        W 6562   4.354   7.011   8.409
 2499W        W 6563   1.165   8.519   2.286
 2500W        W 6564   8.630   7.054  11.791
 2501W        W 6565   5.238   8.685   1.148
 2502W        W 6566   3.644   3.822   3.127
 2503W        W 6567   6.041   1.222   1.704
 2504W        W 6568  10.377   5.709   3.203
 2505W        W 6569   3.290   0.238   2.129
 2506W        W 6570  10.414   5.754   0.687
 2507W        W 6571   9.486   2.686   3.363
 2508W        W 6572  10.075   3.036   0.365
 2509W        W 6573   1.700   7.069   3.211
 2510W        W 6574   3.620   6.731   0.693
 2511W        W 6575   8.155   7.087   9.704
 2512W        W 6576   4.213   7.030   2.346
 2513W        W 6577   5.620   8.947   9.194
 2514W        W 6578   9.303   3.323   1.434
 2515W        W 6579   8.851   7.128   2.206
 2516W        W 6580   3.528   7.509   0.032
 2517W        W 6581   2.784   6.451   1.362
 2518W        W 6582   3.067   3.145   0.905
 2519W        W 6583   8.595   3.313   0.625
 2520W        W 6584   7.468   1.375   9.187
 2521W        W 6585   0.480   9.423  10.579
 2522W        W 6586   7.355   6.751   1.540
 2523W        W 6587   5.356   3.906   4.344
 2524W        W 6588   1.263   9.434   1.754
 2525W        W 6589   8.031   3.797   9.803
 2526W        W 6590   8.157   7.059   9.156
 2527W        W 6591   1.256   0.481   9.486
 2528W        W 6592   5.584   3.178   1.015
 2529W        W 6593   1.692   2.195   0.952
 2530W        W 6594   8.488   0.228   3.447
 2531W        W 6595   2.862   8.355   1.223
 2532W        W 6596   5.426   9.769   8.622
 2533W        W 6597   0.774   6.122  10.372
 2534W        W 6598   6.675   0.161   3.364
 2535W        W 6599   2.304   6.258   1.262
 2536W        W 6600   8.473   2.175   3.304
 2537W        W 6601   2.245   0.444  10.731
 2538W        W 6602   3.155   2.779   2.782
 2539W        W 6603   0.362   0.195   2.008
 2540W        W 6604   7.509   7.679  10.046
 2541W        W 6605   6.993   8.368   9.094
 2542W        W 6606   7.285   9.471   3.402
 2543W        W 6607   2.381   0.800  10.396
 2544W        W 6608   4.692   8.370   1.920
 2545W        W 6609   5.561   8.113  11.777
 2546W        W 6610   0.196   3.614  11.499
 2547W        W 6611   8.889   9.118  11.086
 2548W        W 6612  10.382   6.510  10.521
 2549W        W 6613   0.366   2.810   8.833
 2550W        W 6614   0.051   1.655   9.893
 2551W        W 6615   1.420  10.038  11.228
 2552W        W 6616   4.490   5.142   1.542
 2553W        W 6617   6.127   2.553   2.167
 2554W        W 6618   3.250   0.902  11.929
 2555W        W 6619   2.138   6.641   9.853
 2556W        W 6620   8.073   4.117   1.828
 2557W        W 6621   8.022   8.197   2.542
 2558W        W 6622   7.058   8.572  10.506
 2559W        W 6623   7.617   2.300   1.690
 2560W        W 6624   9.314   4.030   2.723
 2561W        W 6625   9.967   4.227   0.956
 2562W        W 6626   7.473   9.448   0.428
 2563W        W 6627   9.051   0.774   0.782
 2564W        W 6628   3.083   5.627  10.343
 2565W        W 6629   6.442   5.411   8.639
 2566W        W 6630   5.680   3.025  11.947
 2567W        W 6631   4.266   0.790   1.394
 2568W        W 6632   2.766   9.279  11.275
 2569W        W 6633   3.614   2.728  11.258
 2570W        W 6634   7.186   9.360   0.932
 2571W        W 6635   5.698   1.876   9.977
 2572W        W 6636   3.676   2.132   0.547
 2573W        W 6637   0.012   5.201   9.065
 2574W        W 6638   4.653   9.823  11.266
 2575W        W 6639  10.110   4.990   1.984
 2576W        W 6640   7.470   9.306   1.767
 2577W        W 6641   4.284   7.592  10.808
 2578W        W 6642   3.178   4.588  11.912
 2579W        W 6643  10.191   4.967  10.502
 2580W        W 6644   5.604   5.524  11.229
 2581W        W 6645   0.496   4.611   2.889
 2582W        W 6646   8.120   3.887   0.318
 2583W        W 6647   2.426   8.500   2.497
 2584W        W 6648   1.305   4.181   9.384
 2585W        W 6649   7.967   0.793  11.369
 2586W        W 6650   3.374   0.885   1.913
 2587W        W 6651   5.659   5.004   0.706
 2588W        W 6652   1.973   1.611   1.573
 2589W        W 6653   4.064   5.762   9.188
 2590W        W 6654   6.545   8.447   1.255
 2591W        W 6655   3.680   6.686   8.843
 2592W        W 6656   1.797   1.058   0.169
 2593W        W 6657   5.130   7.360   3.034
 2594W        W 6658   6.135   8.644   2.928
 2595W        W 6659   1.381   5.883   0.263
 2596W        W 6660   3.059   6.519  11.360
 2597W        W 6661   0.858   9.303   8.985
 2598W        W 6662   3.123   9.965  10.264
 2599W        W 6663   2.518   7.202   1.909
 2600W        W 6664   0.402   7.758  10.136
 2601W        W 6665   7.268   3.653   0.776
 2602W        W 6666   2.936   1.716   1.451
 2603W        W 6667   1.956   3.076   3.211
 2604W        W 6668   3.729   1.876  10.750
 2605W        W 6669   9.362   2.847  10.387
 2606W        W 6670   0.847   1.383   1.453
 2607W        W 6671   1.310   3.483   2.013
 2608W        W 6672   3.079   8.813   2.420
 2609W        W 6673  10.283   9.864  10.301
 2610W        W 6674   3.776  10.435  11.711
 2611W        W 6675   1.401   5.205   9.189
 2612W        W 6676   1.321   8.301   0.061
 2613W        W 6677   6.079   4.787  10.152
 2614W        W 6678   1.322   2.325   3.547
 2615W        W 6679   3.525   5.024   3.662
 2616W        W 6680   3.983   5.725   0.168
 2617W        W 6681   6.694   3.661  10.514
 2618W        W 6682   8.451   1.855   9.903
 2619W        W 6683   2.718   6.725   2.749
 2620W        W 6684   4.244   9.865   0.722
 2621W        W 6685   8.202   6.494   1.276
 2622W        W 6686   8.955   0.108   9.508
 2623W        W 6687   5.080   9.421  10.253
 2624W        W 6688   6.511  10.305  11.106
 2625W        W 6689   7.222   7.274  11.792
 2626W        W 6690   6.595   1.238  11.016
 2627W        W 6691   2.021   1.844  11.226
 2628W        W 6692   9.570   5.511  10.772
 2629W        W 6693   0.509   4.645   2.350
 2630W        W 6694   9.412   4.733   1.557
 2631W        W 6695   8.468   4.259   8.992
 2632W        W 6696   8.313   8.806  10.434
 2633W        W 6697   6.745   8.437   9.595
 2634W        W 6698   6.439   8.122   9.339
 2635W        W 6699   2.255   3.399  11.971
 2636W        W 6700   6.430   7.921   9.917
 2637W        W 6701   0.695   5.401   2.811
 2638W        W 6702   2.780   0.737   8.559
 2639W        W 6703   8.610   0.482  10.808
 2640W        W 6704   7.502   6.222  11.512
 2641W        W 6705   1.967   0.831  10.932
 2642W        W 6706   6.119   9.954   3.300
 2643W        W 6707   8.903  10.403   2.182
 2644W        W 6708   6.418   5.512  11.654
 2645W        W 6709   7.058   4.423   9.412
 2646W        W 6710   8.607   5.907   0.459
 2647W        W 6711   5.806   9.921   0.887
 2648W        W 6712   1.931   3.899   2.671
 2649W        W 6713   7.384   2.252  11.234
 2650W        W 6714   5.663   7.834   1.887
 2651W        W 6715  10.296   0.765   8.628
 2652W        W 6716   1.440   8.471   8.673
 2653W        W 6717   9.837   3.851   0.648
 2654W        W 6718   0.871   2.214  11.730
 2655W        W 6719   9.722   0.265  11.728
 2656W        W 6720   2.156   0.893   3.364
 2657W        W 6721   4.843   6.874   1.888
 2658W        W 6722   0.264  10.378   0.313
 2659W        W 6723   1.625   0.736   9.981
 2660W        W 6724   9.240   2.726   0.207
 2661W        W 6725   8.889   0.636   2.114
 2662W        W 6726   4.412   6.542   8.164
 2663W        W 6727   4.022   2.890   9.025
 2664W        W 6728   8.561   3.359  10.768
 2665W        W 6729   9.942   3.523  10.538
 2666W        W 6730   8.892   4.531   9.157
 2667W        W 6731   0.505   9.053   1.644
 2668W        W 6732   5.147   0.411   0.199
 2669W        W 6733   8.310   8.049   8.654
 2670W        W 6734   4.421   1.660   3.618
 2671W        W 6735   7.710   0.313   9.417
 2672W        W 6736   8.923   4.714   3.131
 2673W        W 6737   3.816   5.367  11.864
 2674W        W 6738   2.849   2.107   1.763
 2675W        W 6739   7.513  10.498   9.042
 2676W        W 6740   2.528  10.145   9.380
 2677W        W 6741   7.817   5.306   0.772
 2678W        W 6742   6.558   7.725  11.826
 2679W        W 6743   3.095   4.289   9.264
 2680W        W 6744   4.792   7.343   0.372
 2681W        W 6745   7.921   8.039  11.807
 2682W        W 6746   3.800   3.318  10.544
 2683W        W 6747   2.195   5.713   9.052
 2684W        W 6748   0.017   6.102  11.893
 2685W        W 6749  10.215   0.292   2.575
 2686W        W 6750   3.223   9.101   9.946
 2687W        W 6751   9.440   4.735   1.028
 2688W        W 6752   5.993   1.251   2.232
 2689W        W 6753   8.737   6.712   8.702
 2690W        W 6754   2.846   2.872  10.811
 2691W        W 6755   5.083   8.153  11.892
 2692W        W 6756   9.311   2.870   0.678
 2693W        W 6757   1.382   4.170   1.449
 2694W        W 6758   7.394   9.505  10.247
 2695W        W 6759   4.081   0.587  10.372
 2696W        W 6760   4.235   1.898   8.886
 2697W        W 6761   8.948   5.610   2.971
 2698W        W 6762   4.501   2.836  10.583
 2699W        W 6763   2.818   4.563   2.014
 2700W        W 6764   7.657   8.497  11.142
 2701W        W 6765  10.269   2.359   1.971
 2702W        W 6766  10.258  10.411   0.338
 2703W        W 6767  10.172   2.668  11.504
 2704W        W 6768   7.880   2.236   8.989
 2705W        W 6769   8.095   0.916  11.892
 2706W        W 6770   4.078   5.111   2.921
 2707W        W 6771   3.277   4.662   8.450
 2708W        W 6772   8.498  10.227  10.429
 2709W        W 6773   8.139   5.686   9.791
 2710W        W 6774   3.200   3.942   3.423
 2711W        W 6775   9.524   6.231   1.234
 2712W        W 6776   5.008   1.257   9.711
 2713W        W 6777   3.047   8.318   3.168
 2714W        W 6778   0.413  10.008  11.386
 2715W        W 6779   0.718   4.828   9.310
 2716W        W 6780   1.836   4.715   3.038
 2717W        W 6781   8.353  10.148   3.568
 2718W        W 6782   2.446   8.212  11.257
 2719W        W 6783   7.156  10.468   1.747
 2720W        W 6784   2.869   1.852  10.996
 2721W        W 6785   1.169   5.095   0.890
 2722W        W 6786   6.398   5.286  10.809
 2723W        W 6787   5.672   6.510   2.187
 2724W        W 6788   4.540   1.473  10.427
 2725W        W 6789   2.441   1.155   2.607
 2726W        W 6790   4.138   7.409   9.932
 2727W        W 6791   5.450   1.310   8.925
 2728W        W 6792   3.710   5.990   2.219
 2729W        W 6793   6.125   0.807   1.995
 2730W        W 6794   0.280   6.354   9.752
 2731W        W 6795   6.219   8.498  11.429
 2732W        W 6796  10.321   8.968   1.178
 2733W        W 6797   4.174   2.544   3.490
 2734W        W 6798   7.668   1.176  10.086
 2735W        W 6799  10.188   2.627   0.689
 2736W        W 6800   3.655   6.518   1.180
 2737W        W 6801   6.249   6.926   2.821
 2738W        W 6802   9.017   1.298   0.757
 2739W        W 6803   9.119   7.927   2.075
 2740W        W 6804   2.785   8.999   1.662
 2741W        W 6805   2.642   1.481  11.809
 2742W        W 6806   0.306   9.458   1.995
 2743W        W 6807   1.307   6.848   0.433
 2744W        W 6808   4.774   2.106   3.615
 2745W        W 6809  10.226   3.067   1.208
 2746W        W 6810   5.511   3.792   9.964
 2747W        W 6811   7.813   4.209  10.036
 2748W        W 6812   4.872   1.677  11.472
 2749W        W 6813   6.470  10.338   0.405
 2750W        W 6814   2.534   1.878   0.977
 2751W        W 6815   7.020   7.886   8.868
 2752W        W 6816   0.302  10.205  10.942
 2753W        W 6817  10.452   6.124   9.398
 2754W        W 6818   3.788   7.930  11.874
 2755W        W 6819   1.201   0.894   0.825
 2756W        W 6820   5.229   1.323   3.416
 2757W        W 6821   2.282   5.241   1.397
 2758W        W 6822   2.730   4.998   1.352
 2759W        W 6823   0.783   9.578   9.407
 2760W        W 6824   3.389   4.456   4.308
 2761W        W 6825   4.050   9.300  10.962
 2762W        W 6826   3.035   7.124  10.877
 2763W        W 6827   0.878   2.024   3.645
 2764W        W 6828   9.628   5.138   9.589
 2765W        W 6829   8.608   3.794   0.397
 2766W        W 6830   0.402  10.472   9.257
 2767W        W 6831   4.537   5.705  10.052
 2768W        W 6832   3.167  10.476   8.751
 2769W        W 6833   7.093   8.835   3.199
 2770W        W 6834   7.920   2.783   9.495
 2771W        W 6835   9.310   9.066  11.691
 2772W        W 6836   5.596   0.903   9.722
 2773W        W 6837   8.270   4.185  11.769
 2774W        W 6838   8.824   5.483   9.147
 2775W        W 6839   5.066   3.431   4.219
 2776W        W 6840   4.388   4.303  11.330
 2777W        W 6841   9.502   5.937  11.800
 2778W        W 6842   2.753   4.384   9.778
 2779W        W 6843   2.164   6.049   3.208
 2780W        W 6844   5.149   1.074   1.409
 2781W        W 6845   7.767  10.417   9.855
 2782W        W 6846   4.684   2.178   8.851
 2783W        W 6847   0.410   0.008   9.779
 2784W        W 6848   8.497   0.774   2.766
 2785W        W 6849   6.568   7.420  11.417
 2786W        W 6850   4.372   8.773  11.648
 2787W        W 6851   3.780   9.951   0.951
 2788W        W 6852   8.416   2.634   2.020
 2789W        W 6853   9.567   8.656   1.602
 2790W        W 6854   2.080   9.402  10.511
 2791W        W 6855   0.050   4.527   2.585
 2792W        W 6856   8.419   4.740   3.260
 2793W        W 6857   8.511   9.757   8.478
 2794W        W 6858   2.680   7.848  10.821
 2795W        W 6859   4.424   1.992   1.001
 2796W        W 6860   6.059   7.671   2.683
 2797W        W 6861   1.691   6.351   9.873
 2798W        W 6862   7.975   0.336   1.105
 2799W        W 6863   1.824   0.469   1.215
 2800W        W 6864   8.072   1.465   9.870
 2801W        W 6865   7.425   2.645  10.004
 2802W        W 6866   8.891   3.971   2.448
 2803W        W 6867   3.180   0.218   3.209
 2804W        W 6868   9.962   5.661  11.058
 2805W        W 6869   2.878   5.653   3.465
 2806W        W 6870   8.801   4.220   9.990
 2807W        W 6871   9.890   7.070  11.126
 2808W        W 6872   8.390   5.829   2.663
 2809W        W 6873   8.362   3.531   2.327
 2810W        W 6874   4.591   2.756   9.587
 2811W        W 6875   4.537   6.167   9.828
 2812W        W 6876   0.412   9.784   0.766
 2813W        W 6877   0.493   4.630  11.050
 2814W        W 6878   1.746   4.608   1.485
 2815W        W 6879   5.274   8.408   9.891
 2816W        W 6880   5.506   4.643   1.736
 2817W        W 6881   0.882   4.502   8.975
 2818W        W 6882   2.764   8.588   8.850
 2819W        W 6883   0.981   0.988  10.716
 2820W        W 6884   0.337   7.511   9.677
 2821W        W 6885   4.762   4.623   2.995
 2822W        W 6886   5.098   5.904   1.830
 2823W        W 6887   8.427   4.248  10.329
 2824W        W 6888   6.987   9.406   1.957
 2825W        W 6889   2.255   6.475   3.496
 2826W        W 6890   5.252   1.397  11.178
 2827W        W 6891   7.410   4.195   0.499
 2828W        W 6892   0.303   8.855   2.639
 2829W        W 6893   2.448   0.267   1.028
 2830W        W 6894   7.886   1.353   2.601
 2831W        W 6895   8.203   6.007   2.210
 2832W        W 6896  10.204   8.882  10.264
 2833W        W 6897   1.383   8.811  10.901
 2834W        W 6898   4.257   1.251  10.967
 2835W        W 6899   1.877   8.456   1.190
 2836W        W 6900   3.920   8.812   9.516
 2837W        W 6901   5.217   2.364   3.684
 2838W        W 6902   0.824   9.025   1.147
 2839W        W 6903   7.394   1.834   1.831
 2840W        W 6904   7.686   9.530   8.744
 2841W        W 6905   5.965   0.466   8.625
 2842W        W 6906   8.030   3.827  11.467
 2843W        W 6907   1.316   4.462  10.970
 2844W        W 6908   0.414   4.977   0.681
 2845W        W 6909   8.903   5.799   0.065
 2846W        W 6910   6.992   1.345   8.978
 2847W        W 6911   7.805   9.855  11.154
 2848W        W 6912   6.854   8.521   0.404
 2849W        W 6913   5.155   0.833   9.967
 2850W        W 6914   5.591   5.021  10.334
 2851W        W 6915   3.632   8.595   9.934
 2852W        W 6916   8.781  10.368   1.673
 2853W        W 6917   2.568   3.564   0.331
 2854W        W 6918   8.494   1.456   9.571
 2855W        W 6919   5.028   5.693  10.900
 2856W        W 6920   8.582   9.118   1.016
 2857W        W 6921   3.355   2.648  11.693
 2858W        W 6922   0.113   7.426   2.433
 2859W        W 6923   5.684   2.156  10.422
 2860W        W 6924   5.850   6.049   9.012
 2861W        W 6925   9.474   6.650   9.717
 2862W        W 6926   1.168   4.720   9.967
 2863W        W 6927   9.389   2.282   2.497
 2864W        W 6928   4.689   4.622   8.899
 2865W        W 6929   4.183   2.789   2.670
 2866W        W 6930   3.114   5.322   1.399
 2867W        W 6931   0.910   7.000   2.235
 2868W        W 6932   8.412   0.267   0.251
 2869W        W 6933   1.743   1.237  10.738
 2870W        W 6934  10.420   8.108   0.528
 2871W        W 6935   7.196   9.996   9.736
 2872W        W 6936   3.564   2.861  10.530
 2873W        W 6937   4.083   4.615   4.210
 2874W        W 6938   3.933  10.328  10.346
 2875W        W 6939   0.436   9.971   9.354
 2876W        W 6940   6.088  10.434   2.177
 2877W        W 6941   6.550   8.590  10.585
 2878W        W 6942   2.453   0.570   8.986
 2879W        W 6943   5.599   5.995   1.970
 2880W        W 6944   7.591   4.023   1.941
 2881W        W 6945   9.486   8.565  11.814
 2882W        W 6946   1.901   0.325   9.821
 2883W        W 6947   8.880   7.524   1.864
 2884W        W 6948   7.580   4.180   3.315
 2885W        W 6949   3.228   7.884   9.088
 2886W        W 6950   3.705   8.704   0.404
 2887W        W 6951   1.299   2.377   8.670
 2888W        W 6952   1.221   2.423   0.942
 2889W        W 6953   3.757   9.081   9.914
 2890W        W 6954   0.357   3.248   0.298
 2891W        W 6955   4.367   2.629  11.729
 2892W        W 6956   0.259   7.457   9.164
 2893W        W 6957   8.533   7.521  10.612
 2894W        W 6958   5.252   6.178   2.284
 2895W        W 6959  10.396   0.450   0.672
 2896W        W 6960   1.355   1.198   9.956
 2897W        W 6961   7.019   5.679   8.226
 2898W        W 6962   4.209   8.271  11.709
 2899W        W 6963  10.370   5.440   2.169
 2900W        W 6964   4.494   6.544   8.996
 2901W        W 6965   4.226   4.896   9.099
 2902W        W 6966   1.386   8.459   1.312
 2903W        W 6967   3.457   5.370  11.509
 2904W        W 6968   3.247   3.328  10.454
 2905W        W 6969   3.650   4.037   9.921
 2906W        W 6970   1.785   9.863   1.698
 2907W        W 6971   4.026   2.100   9.352
 2908W        W 6972   9.356   7.507  10.100
 2909W        W 6973   7.561   0.535   3.593
 2910W        W 6974   2.048   9.607   2.365
 2911W        W 6975   0.617   5.375   0.980
 2912W        W 6976   0.435   3.320   8.985
 2913W        W 6977   6.636   6.028   8.274
 2914W        W 6978   2.436   1.679  10.790
 2915W        W 6979   9.220   7.531   0.821
 2916W        W 6980   8.964   1.195  11.889
 2917W        W 6981   6.052   4.636   9.576
 2918W        W 6982   3.121   5.680   9.417
 2919W        W 6983   6.739   6.414   0.426
 2920W        W 6984  10.490   0.744   9.095
 2921W        W 6985   5.508   1.801   3.012
 2922W        W 6986   3.778   5.475   9.813
 2923W        W 6987   6.985   9.394   9.498
 2924W        W 6988   5.643   7.524   8.551
 2925W        W 6989   8.457   9.372   1.454
 2926W        W 6990   2.132   8.885  10.553
 2927W        W 6991   1.701   9.384   1.476
 2928W        W 6992   9.885   5.896   3.261
 2929W        W 6993   1.085   9.436   3.324
 2930W        W 6994   6.510   4.210   3.740
 2931W        W 6995   6.514   8.922  10.987
 2932W        W 6996   6.776   3.620   0.852
 2933W        W 6997   1.752   3.566  11.934
 2934W        W 6998   1.508   8.041   1.020
 2935W        W 6999   0.770   5.695   1.969
 2936W        W 7000   1.689   1.757   2.886
 2937W        W 7001   7.230   6.718   9.402
 2938W        W 7002   2.171   5.688  11.383
 2939W        W 7003   4.771   9.950  10.784
 2940W        W 7004   7.808   5.096  10.361
 2941W        W 7005   9.763   5.032   0.430
 2942W        W 7006   3.414   8.836   9.530
 2943W        W 7007  10.412   8.862  11.724
 2944W        W 7008   6.424   5.589   9.932
 2945W        W 7009   1.165   4.044   2.821
 2946W        W 7010   9.492   9.132   1.820
 2947W        W 7011   1.851  10.248   9.238
 2948W        W 7012   8.366   4.657  11.943
 2949W        W 7013   4.057  10.460   0.157
 2950W        W 7014   2.582   1.598   1.812
 2951W        W 7015   0.309   9.091   9.854
 2952W        W 7016   8.493   1.219   0.075
 2953W        W 7017   5.065  10.387   0.905
 2954W        W 7018   7.445   0.341   9.846
 2955W        W 7019   6.047   9.538   3.005
 2956W        W 7020   8.789   4.526  11.004
 2957W        W 7021   8.503   4.708  10.050
 2958W        W 7022   0.975   2.615   0.053
 2959W        W 7023   6.686   2.409   1.317
 2960W        W 7024   3.838   2.207   0.056
 2961W        W 7025   7.048   4.645   2.436
 2962W        W 7026   6.002   6.150  10.873
 2963W        W 7027   2.478   3.088   3.355
 2964W        W 7028   6.652   7.257   9.128
 2965W        W 7029  10.268   8.779   0.699
 2966W        W 7030   4.118   0.011  11.318
 2967W        W 7031   2.641  10.434   0.683
 2968W        W 7032   7.915   6.365   8.602
 2969W        W 7033   2.726   9.010   2.740
 2970W        W 7034   0.704   2.191   9.499
 2971W        W 7035   5.992   3.765   1.812
 2972W        W 7036   2.147   2.862  10.411
 2973W        W 7037   7.674   5.983   7.855
 2974W        W 7038  10.444   3.871   3.241
 2975W        W 7039   1.361   1.199  11.048
 2976W        W 7040   2.622   8.385  11.742
 2977W        W 7041   2.864   4.156   2.337
 2978W        W 7042   1.372   7.190   2.298
 2979W        W 7043   9.335   4.273   9.027
 2980W        W 7044   8.779   7.094   8.339
 2981W        W 7045   9.933   5.740   0.944
 2982W        W 7046   7.553   6.776   2.431
 2983W        W 7047   7.106   5.240   7.960
 2984W        W 7048   4.097   3.650   9.360
 2985W        W 7049   2.152   7.990   3.038
 2986W        W 7050   8.567   0.247   8.879
 2987W        W 7051   0.291   8.426   2.217
 2988W        W 7052   9.592   8.097  11.414
 2989W        W 7053   2.825   9.560  10.350
 2990W        W 7054   3.855   2.671  11.768
 2991W        W 7055   8.880   7.306   2.699
 2992W        W 7056   2.352   2.543   0.189
 2993W        W 7057   8.262   8.775   3.217
 2994W        W 7058   1.775   3.328  10.522
 2995W        W 7059  10.377   0.588  10.983
 2996W        W 7060   1.130   0.695   9.997
 2997W        W 7061   9.436   1.299  11.327
 2998W        W 7062   9.513   6.057   9.484
 2999W        W 7063   6.115   4.251   1.711
 3000W        W 7064   5.393   7.087   8.213
 3001W        W 7065   5.587   9.348   2.832
 3002W        W 7066   0.913   8.161   1.693
 3003W        W 7067   4.631   7.514   0.822
 3004W        W 7068   4.128   3.801  10.385
 3005W        W 7069   0.267   0.727   0.448
 3006W        W 7070   3.674   7.469   1.370
 3007W        W 7071   3.900   5.246   8.094
 3008W        W 7072   1.242   8.550   1.791
 3009W        W 7073   4.759   2.232   1.729
 3010W        W 7074   6.524   2.224  10.975
 3011W        W 7075   8.959   8.211   2.478
 3012W        W 7076   9.037   3.657   3.416
 3013W        W 7077  10.431   3.801   9.367
 3014W        W 7078   6.604   8.183   0.770
 3015W        W 7079   8.859   9.468   0.287
 3016W        W 7080   5.623   8.429   9.028
 3017W        W 7081   2.244   3.752   9.273
 3018W        W 7082   9.121   6.512  10.058
 3019W        W 7083   3.362   3.165   9.586
 3020W        W 7084   5.256   1.792   9.354
 3021W        W 7085   3.991   8.022  10.763
 3022W        W 7086   6.919   4.240  10.871
 3023W        W 7087   0.807   8.008   3.263
 3024W        W 7088   8.337   9.731  10.411
 3025W        W 7089   5.009   7.095  10.454
 3026W        W 7090   0.961   0.927   0.017
 3027W        W 7091   0.885  10.417   9.078
 3028W        W 7092   7.785   4.009   8.966
 3029W        W 7093   3.716   5.444   3.963
 3030W        W 7094   6.528   2.639  11.396
 3031W        W 7095   8.709   7.603   3.593
 3032W        W 7096   6.930   1.782   0.221
 3033W        W 7097   1.244   3.963  10.924
 3034W        W 7098   4.101   3.067   8.502
 3035W        W 7099  10.384   9.735   1.917
 3036W        W 7100   3.058   2.624   0.093
 3037W        W 7101   0.470   0.979   3.577
 3038W        W 7102   0.060   2.640   2.848
 3039W        W 7103   7.596   2.222   2.199
 3040W        W 7104   1.262   8.100   3.036
 3041W        W 7105   9.443   7.331  11.098
 3042W        W 7106   1.781   4.428   3.480
 3043W        W 7107   3.157   1.759   2.492
 3044W        W 7108   4.401   2.005  11.402
 3045W        W 7109   4.514   1.253   8.896
 3046W        W 7110   2.197   0.686   0.904
 3047W        W 7111   9.957   5.864  10.085
 3048W        W 7112   9.372   3.799   9.324
 3049W        W 7113   3.451   4.297   3.142
 3050W        W 7114   6.669   1.141   3.140
 3051W        W 7115   9.369   2.004   9.372
 3052W        W 7116   5.652   0.328   0.476
 3053W        W 7117   8.383   7.353   0.346
 3054W        W 7118   3.673   4.578   3.902
 3055W        W 7119   0.826   6.166   1.781
 3056W        W 7120   0.199   5.590   8.758
 3057W        W 7121   9.023   6.231   0.373
 3058W        W 7122   8.733   3.540  10.241
 3059W        W 7123   8.571   6.937  11.265
 3060W        W 7124   9.869   6.611  11.934
 3061W        W 7125   3.807   4.627   2.914
 3062W        W 7126   4.948   9.022   0.361
 3063W        W 7127   6.711  10.037   9.886
 3064W        W 7128   6.211   5.882   8.674
 3065W        W 7129   8.992   7.470   1.358
 3066W        W 7130   5.569   7.945   0.809
 3067W        W 7131   5.311   3.102  10.392
 3068W        W 7132   5.957   1.388   0.704
 3069W        W 7133   5.783   3.637   0.947
 3070W        W 7134   1.384   6.354   0.437
 3071W        W 7135   3.640   3.107  11.571
 3072W        W 7136   0.568   6.383   2.906
 3073W        W 7137   4.625   6.985   0.939
 3074W        W 7138   0.828   6.903  11.833
 3075W        W 7139   9.439   3.799   0.942
 3076W        W 7140   7.552   1.152   2.943
 3077W        W 7141   7.025   2.146   1.023
 3078W        W 7142   8.909   4.034  10.987
 3079W        W 7143   3.604   7.603   8.810
 3080W        W 7144   3.259   0.738   9.302
 3081W        W 7145   3.684   4.167   1.079
 3082W        W 7146  10.344   7.463   1.715
 3083W        W 7147   6.055   9.939   1.317
 3084W        W 7148  10.418  10.340   9.087
 3085W        W 7149   8.617   8.080   0.590
 3086W        W 7150   7.580   7.563   1.008
 3087W        W 7151   5.176   7.433   8.796
 3088W        W 7152   2.233   1.423   2.175
 3089W        W 7153   6.452   4.058  10.760
 3090W        W 7154   9.902   8.427  10.427
 3091W        W 7155   1.607   4.305   2.774
 3092W        W 7156   2.366   8.146   1.900
 3093W        W 7157   8.364   3.132  11.814
 3094W        W 7158   6.731  10.231  11.951
 3095W        W 7159   9.902   3.527  10.029
 3096W        W 7160   5.242   4.541   1.283
 3097W        W 7161   3.015   1.798   3.528
 3098W        W 7162   0.899   4.204   8.528
 3099W        W 7163   7.191   8.090   3.555
 3100W        W 7164   6.837   8.343   3.190
 3101W        W 7165   5.544   6.374  10.725
 3102W        W 7166   2.161   8.908   3.203
 3103W        W 7167   6.056   8.535   1.385
 3104W        W 7168   1.859   4.538  11.990
 3105W        W 7169   9.975   0.391   9.714
 3106W        W 7170   6.118   8.154   2.799
 3107W        W 7171   3.896   5.915   4.108
 3108W        W 7172   5.037   5.129   9.611
 3109W        W 7173   7.000   9.006  10.780
 3110W        W 7174   8.915   1.722  10.075
 3111W        W 7175   7.328   0.964   1.575
 3112W        W 7176   9.874   4.817   9.011
 3113W        W 7177   2.809   2.743   3.192
 3114W        W 7178   7.891   2.474  10.054
 3115W        W 7179   4.697   1.075  10.708
 3116W        W 7180   7.133   5.702  10.515
 3117W        W 7181   2.740   3.240   2.491
 3118W        W 7182   6.001   5.239   9.909
 3119W        W 7183   1.342   6.693   2.509
 3120W        W 7184   7.815   5.210   3.224
 3121W        W 7185   9.760   1.726   9.490
 3122W        W 7186   6.528   3.147  11.215
 3123W        W 7187   7.035   0.938   3.490
 3124W        W 7188   5.985   0.033   0.240
 3125W        W 7189   7.420   8.526   0.384
 3126W        W 7190   8.473   4.790   8.927
 3127W        W 7191   8.615   5.756   1.276
 3128W        W 7192   8.906   6.477   2.454
 3129W        W 7193   7.466   2.631   2.483
 3130W        W 7194   3.728   5.106  11.138
 3131W        W 7195   3.009   9.386  10.805
 3132W        W 7196   4.039   0.440   9.231
 3133W        W 7197   4.017   1.841   2.299
 3134W        W 7198   8.144   0.530   1.954
 3135W        W 7199   8.140   5.560  10.298
 3136W        W 7200   3.783  10.379   3.236
 3137W        W 7201   5.151   9.052   9.442
 3138W        W 7202   0.178   3.099  11.535
 3139W        W 7203   8.830   5.067  10.890
 3140W        W 7204   0.889   9.984   0.671
 3141W        W 7205   5.454   5.125   3.190
 3142W        W 7206   7.907   0.762   9.209
 3143W        W 7207   9.564   1.213   9.753
 3144W        W 7208   2.268   4.317   9.073
 3145W        W 7209   9.302   8.046  11.860
 3146W        W 7210   5.127   9.963   3.052
 3147W        W 7211   5.580   5.354  10.742
 3148W        W 7212   2.256   6.582   2.542
 3149W        W 7213   5.688   2.144  11.486
 3150W        W 7214   5.925   1.393   9.097
 3151W        W 7215   7.710   5.184   8.439
 3152W        W 7216   9.871   0.238   3.385
 3153W        W 7217   0.471   4.244   8.807
 3154W        W 7218  10.395   2.331  10.380
 3155W        W 7219   4.837   6.935   3.004
 3156W        W 7220   9.434   1.014  10.896
 3157W        W 7221   9.903   9.381   1.962
 3158W        W 7222   3.669   2.642   8.698
 3159W        W 7223   7.872   6.845   8.775
 3160W        W 7224   4.667   5.261  11.294
 3161W        W 7225   1.880   7.556  11.656
 3162W        W 7226   4.609   7.310   3.293
 3163W        W 7227   6.234   6.415  11.878
 3164W        W 7228   8.493   5.561   2.200
 3165W        W 7229   0.797   0.323  11.315
 3166W        W 7230   5.177   2.311  11.505
 3167W        W 7231   5.009   8.468   3.489
 3168W        W 7232   2.645   0.814   9.962
 3169W        W 7233   8.754   7.693   2.360
 3170W        W 7234   1.049   1.925   9.924
 3171W        W 7235   8.390  10.363   9.194
 3172W        W 7236   6.102   3.776   2.697
 3173W        W 7237   9.829   9.961   2.612
 3174W        W 7238   7.438   9.774   2.956
 3175W        W 7239   6.905   5.202  10.739
 3176W        W 7240   9.445   3.705   3.091
 3177W        W 7241   4.177   7.257  10.423
 3178W        W 7242   8.537   7.860  10.239
 3179W        W 7243   9.356   1.064   3.155
 3180W        W 7244   1.361   2.759   9.963
 3181W        W 7245   2.173   3.976  10.819
 3182W        W 7246   2.213   5.440   0.358
 3183W        W 7247   4.766   2.746   1.463
 3184W        W 7248   6.195   5.560   9.486
 3185W        W 7249   6.924   0.231  11.771
 3186W        W 7250   0.636   6.380   8.516
 3187W        W 7251   1.851   3.389   9.303
 3188W        W 7252   5.112   6.116   9.581
 3189W        W 7253   6.410   5.109  11.306
 3190W        W 7254   2.336   5.548  10.899
 3191W        W 7255   8.688   5.527  10.576
 3192W        W 7256   0.746   7.444  11.043
 3193W        W 7257   4.532   1.750   0.549
 3194W        W 7258   1.947   2.748   1.562
 3195W        W 7259   0.717   5.228   3.281
 3196W        W 7260   8.604   7.575  11.945
 3197W        W 7261   9.695   1.270   3.477
 3198W        W 7262   2.425   9.114   0.290
 3199W        W 7263   6.081   6.495   9.045
 3200W        W 7264   4.698   2.438  11.397
 3201W        W 7265   2.315   9.151  10.951
 3202W        W 7266   9.080   0.246  10.986
 3203W        W 7267   1.037   1.250   0.503
 3204W        W 7268   7.227   6.160   8.089
 3205W        W 7269   0.532   0.294   3.250
 3206W        W 7270   9.129   8.405   1.493
 3207W        W 7271   6.965   5.943   3.604
 3208W        W 7272   8.325   7.083  10.231
 3209W        W 7273   1.420   3.533  11.114
 3210W        W 7274   3.724   3.586  11.431
 3211W        W 7275   8.110   1.870   9.529
 3212W        W 7276   1.232   2.354   2.303
 3213W        W 7277   5.240   2.404   1.633
 3214W        W 7278   1.243   1.961   2.672
 3215W        W 7279   8.895   9.820   9.717
 3216W        W 7280   9.857  10.448   2.416
 3217W        W 7281   3.411   9.896   0.519
 3218W        W 7282   4.529   5.553  10.881
 3219W        W 7283   3.812   4.376   0.588
 3220W        W 7284   5.311   2.851   0.711
 3221W        W 7285   7.921   7.912   8.980
 3222W        W 7286   0.188   6.451   0.221
 3223W        W 7287   5.217   6.711  10.950
 3224W        W 7288   3.475   5.481   4.410
 3225W        W 7289   7.828   4.413   1.013
 3226W        W 7290   4.776   5.574   3.476
 3227W        W 7291   9.823   3.624   2.191
 3228W        W 7292   7.999   1.317  11.370
 3229W        W 7293   2.175   5.232   2.514
 3230W        W 7294   5.789   0.350   0.965
 3231W        W 7295   0.260   9.081   3.115
 3232W        W 7296   0.880   8.269   9.295
 3233W        W 7297   3.850   8.293   2.807
 3234W        W 7298   2.744  10.465   2.704
 3235W        W 7299   8.643   5.014   1.778
 3236W        W 7300   3.576   3.064   0.956
 3237W        W 7301  10.024   0.769   2.677
 3238W        W 7302   6.135   4.342  10.485
 3239W        W 7303   8.434   4.078   3.260
 3240W        W 7304   0.008  10.367   8.575
 3241W        W 7305   7.366   3.518   9.480
 3242W        W 7306   9.275   8.080   1.131
 3243W        W 7307   5.554   5.227   8.952
 3244W        W 7308   4.183   8.525  10.710
 3245W        W 7309   1.942   0.243   0.775
 3246W        W 7310   1.001   0.785   2.695
 3247W        W 7311   2.695   0.238   8.691
 3248W        W 7312   8.435   9.064   9.754
 3249W        W 7313   9.934   7.556   0.255
 3250W        W 7314  10.299   9.342  11.727
 3251W        W 7315   0.273   4.718   9.059
 3252W        W 7316   3.768   9.434   1.143
 3253W        W 7317   4.716  10.335  11.106
 3254W        W 7318   2.691   6.007   1.058
 3255W        W 7319   2.423   0.378   0.527
 3256W        W 7320   9.351   0.857  10.397
 3257W        W 7321   5.990   9.534  11.501
 3258W        W 7322   0.733   1.460  10.789
 3259W        W 7323   6.891   7.220  10.456
 3260W        W 7324   6.151   7.493   9.830
 3261W        W 7325  10.065   1.789   0.780
 3262W        W 7326   6.242   3.939   9.236
 3263W        W 7327   8.524   6.670   9.850
 3264W        W 7328   2.168   0.543   2.349
 3265W        W 7329   4.090   8.437   3.260
 3266W        W 7330   4.162   5.635   3.737
 3267W        W 7331   1.340   3.261   9.255
 3268W        W 7332   8.923   3.142   2.823
 3269W        W 7333   9.185   2.269  11.307
 3270W        W 7334   9.000   5.471   1.500
 3271W        W 7335   6.219   4.472  11.025
 3272W        W 7336   0.416   3.220  10.814
 3273W        W 7337   5.631   6.072   3.820
 3274W        W 7338   1.707   8.933   2.784
 3275W        W 7339   8.002   5.593   2.906
 3276W        W 7340   5.663   1.206  11.445
 3277W        W 7341   2.888   5.466   2.474
 3278W        W 7342   0.513  10.247   2.439
 3279W        W 7343   1.905   8.406   9.078
 3280W        W 7344   3.113   6.154  10.978
 3281W        W 7345   3.253   5.322   9.772
 3282W        W 7346   7.826   3.655   1.619
 3283W        W 7347   6.781  10.079   0.800
 3284W        W 7348   1.172   0.507  10.516
 3285W        W 7349   0.243  10.096  10.061
 3286W        W 7350   0.985  10.366   2.746
 3287W        W 7351   3.308   8.936  10.798
 3288W        W 7352   8.102   8.934   8.837
 3289W        W 7353  10.360   8.362  11.751
 3290W        W 7354   2.158   2.760  11.378
 3291W        W 7355   6.388   0.889   1.244
 3292W        W 7356   0.769   9.465   1.405
 3293W        W 7357   6.602   8.177   8.772
 3294W        W 7358   7.530   8.664   9.747
 3295W        W 7359   6.242  10.110   0.015
 3296W        W 7360   9.539   1.944   0.976
 3297W        W 7361   0.863   6.508   1.385
 3298W        W 7362  10.368   2.415  10.873
 3299W        W 7363   6.951  10.380   2.216
 3300W        W 7364   1.876   2.367   1.917
 3301W        W 7365   1.989   4.605   9.905
 3302W        W 7366   5.177   9.454   3.172
 3303W        W 7367   5.489   0.891   3.566
 3304W        W 7368   8.948   3.256   9.823
 3305W        W 7369  10.192   4.907   0.213
 3306W        W 7370   3.868   7.791   2.741
 3307W        W 7371   3.833   8.230   0.448
 3308W        W 7372   8.682   9.954   9.280
 3309W        W 7373   4.605   6.876   1.435
 3310W        W 7374   3.797   5.938  10.514
 3311W        W 7375   9.287   4.439  11.017
 3312W        W 7376   8.377   7.593   9.850
 3313W        W 7377   9.880   4.619   1.279
 3314W        W 7378   9.480   7.636   1.260
 3315W        W 7379   3.178   4.017   0.865
 3316W        W 7380   2.897   4.389   0.542
 3317W        W 7381   0.484   2.803  11.125
 3318W        W 7382   8.810   2.586  11.586
 3319W        W 7383   8.161   6.013   0.192
 3320W        W 7384   3.400   0.278  11.688
 3321W        W 7385   6.461   7.951   1.250
 3322W        W 7386   0.783   3.504   1.539
 3323W        W 7387   9.499   6.665  11.173
 3324W        W 7388   6.488   5.699   0.630
 3325W        W 7389   7.455   9.815   0.040
 3326W        W 7390   4.291   0.851   2.050
 3327W        W 7391   3.679   2.296  11.028
 3328W        W 7392   7.812   4.821   0.644
 3329W        W 7393  10.330   1.339   0.796
 3330W        W 7394   4.606   3.201   1.298
 3331W        W 7395   7.979   0.713   8.682
 3332W        W 7396   2.061   1.777   3.486
 3333W        W 7397   5.942   4.054  10.908
 3334W        W 7398   4.078   8.427   8.717
 3335W        W 7399   8.783   4.295  11.886
 3336W        W 7400   6.017   5.111   8.774
 3337W        W 7401   1.529   9.446   2.575
 3338W        W 7402   2.214   8.923   2.687
 3339W        W 7403   8.042   8.421  10.221
 3340W        W 7404   1.039   0.231   3.136
 3341W        W 7405   7.308   3.999   9.987
 3342W        W 7406   1.704   2.130   3.235
 3343W        W 7407   0.914   5.301   9.293
 3344W        W 7408   8.160   5.058   1.611
 3345W        W 7409   2.530   9.894   3.296
 3346W        W 7410   5.460   4.823  11.828
 3347W        W 7411  10.334   9.825   3.322
 3348W        W 7412  10.470   6.125   1.485
 3349W        W 7413   4.246   7.496   2.552
 3350W        W 7414   6.618   9.754   2.121
 3351W        W 7415  10.414   1.423  11.885
 3352W        W 7416   8.992   7.047   1.697
 3353W        W 7417   0.247   9.459   1.478
 3354W        W 7418   7.870   3.568   2.140
 3355W        W 7419   2.967   5.115  11.998
 3356W        W 7420   5.547   6.552   8.890
 3357W        W 7421   6.053   2.232   8.764
 3358W        W 7422   3.848   7.147   8.621
 3359W        W 7423   3.822   8.899  10.744
 3360W        W 7424   8.120   8.968   0.877
 3361W        W 7425   5.207   2.660  10.098
 3362W        W 7426   0.979   9.480  10.571
 3363W        W 7427   3.146   1.367  11.796
 3364W        W 7428   7.508   5.560   8.130
 3365W        W 7429   6.727  10.468  10.158
 3366W        W 7430   6.715   5.012   2.282
 3367W        W 7431   0.310   0.262   2.498
 3368W        W 7432   6.895   9.420  11.048
 3369W        W 7433   5.990   8.963   2.223
 3370W        W 7434  10.131   4.286   9.391
 3371W        W 7435   9.178   6.450   2.894
 3372W        W 7436   7.130   1.904  10.457
 3373W        W 7437   5.952   5.125  11.024
 3374W        W 7438   2.681   5.522   1.224
 3375W        W 7439   6.943   2.514  11.056
 3376W        W 7440   9.505   1.171   1.813
 3377W        W 7441   1.764   0.341  10.882
 3378W        W 7442   4.948  10.071  11.594
 3379W        W 7443   6.472   3.093   9.817
 3380W        W 7444   1.191   3.959   0.573
 3381W        W 7445   0.449   6.250   1.155
 3382W        W 7446   5.148   5.730   0.743
 3383W        W 7447   2.587   8.648  10.500
 3384W        W 7448   9.554   9.546   2.924
 3385W        W 7449   1.323   7.039  11.948
 3386W        W 7450   2.258   8.124   8.759
 3387W        W 7451   6.438   8.856   1.961
 3388W        W 7452   9.349   8.656   0.568
 3389W        W 7453  10.337   5.034   2.904
 3390W        W 7454   4.660   7.797   3.195
 3391W        W 7455   7.560   8.071  11.439
 3392W        W 7456   4.710   7.041  11.962
 3393W        W 7457   3.348   2.170   0.137
 3394W        W 7458   4.669   9.411   2.455
 3395W        W 7459   4.978   9.065   0.900
 3396W        W 7460   1.101  10.469   1.824
 3397W        W 7461   6.326   9.289  11.802
 3398W        W 7462   4.594   0.813   8.118
 3399W        W 7463   8.115   6.718  11.044
 3400W        W 7464  10.412   2.311   3.452
 3401W        W 7465   8.792   8.061   8.803
 3402W        W 7466   4.675   3.628  10.625
 3403W        W 7467   7.222   4.729   9.005
 3404W        W 7468   4.142   8.145   1.148
 3405W        W 7469   3.528   5.602   1.462
 3406W        W 7470   8.507   2.177   2.786
 3407W        W 7471  10.364   1.791   3.373
 3408W        W 7472   6.520   6.121  10.411
 3409W        W 7473   8.984   2.276   3.401
 3410W        W 7474   4.247   4.914   0.487
 3411W        W 7475   5.060   7.615  11.551
 3412W        W 7476   8.867   0.622  11.257
 3413W        W 7477   5.147   0.478   3.549
 3414W        W 7478   2.042   8.873   9.313
 3415W        W 7479   5.582   1.413   2.539
 3416W        W 7480   5.060   4.309   1.697
 3417W        W 7481   7.078  10.327   3.620
 3418W        W 7482   9.400   4.539  11.646
 3419W        W 7483   4.604   1.499   1.010
 3420W        W 7484   6.593  10.372  10.623
 3421W        W 7485   6.494   3.531   9.497
 3422W        W 7486   6.102   5.102   0.413
 3423W        W 7487   2.884   1.299   3.475
 3424W        W 7488   4.463   8.601  10.289
 3425W        W 7489   3.504   1.875   3.412
 3426W        W 7490   5.728   5.569   3.186
 3427W        W 7491   7.051   7.367  11.150
 3428W        W 7492   7.399   3.391   0.286
 3429W        W 7493   3.678   5.983   1.142
 3430W        W 7494   6.300   6.398   8.585
 3431W        W 7495   5.369   1.725   2.160
 3432W        W 7496   4.748   2.198   2.255
 3433W        W 7497   1.060   7.875   0.767
 3434W        W 7498   7.198   8.377   2.251
 3435W        W 7499   5.896   5.628   1.710
 3436W        W 7500   7.990   0.967   3.313
 3437W        W 7501   5.438   4.312   8.967
 3438W        W 7502   7.733   6.449   1.412
 3439W        W 7503   6.055   5.987   3.274
 3440W        W 7504  10.181   3.175  11.449
 3441W        W 7505   9.900   7.049   1.341
 3442W        W 7506   8.034   6.691  10.033
 3443W        W 7507   9.840   1.862  11.418
 3444W        W 7508   6.422   5.154   0.008
 3445W        W 7509   9.420   5.429  11.768
 3446W        W 7510   4.062   0.435   2.774
 3447W        W 7511  10.302   4.421   0.208
 3448W        W 7512   1.803   2.124   9.311
 3449W        W 7513   0.261   0.418  11.704
 3450W        W 7514   1.305   1.383   1.006
 3451W        W 7515  10.350   5.195  10.909
 3452W        W 7516   4.371   2.601   1.144
 3453W        W 7517   1.761   8.427  10.018
 3454W        W 7518   4.798   4.512   0.993
 3455W        W 7519   1.262   6.763  11.535
 3456W        W 7520   3.283   7.384   3.166
 3457W        W 7521   1.261   1.398  10.557
 3458W        W 7522   1.404  10.380  10.821
 3459W        W 7523   0.421   3.765   0.392
 3460W        W 7524   3.802   8.017   8.497
 3461W        W 7525   2.521   1.228  11.394
 3462W        W 7526   5.129   4.601   2.116
 3463W        W 7527   2.857   9.366   0.249
 3464W        W 7528   3.916   1.877  11.236
 3465W        W 7529   9.419   4.706   8.731
 3466W        W 7530   2.877   8.443   9.351
 3467W        W 7531  10.283   5.192   1.250
 3468W        W 7532   6.081   0.933  11.445
 3469W        W 7533  10.375   7.740  10.874
 3470W        W 7534   3.222   0.354  10.269
 3471W        W 7535   4.721   0.463   0.502
 3472W        W 7536   6.912   5.726  10.056
 3473W        W 7537   7.207   9.028  11.693
 3474W        W 7538   6.518   7.782   1.734
 3475W        W 7539   1.597   9.444   9.641
 3476W        W 7540   4.283   6.066   2.453
 3477W        W 7541   8.519   6.807   2.485
 3478W        W 7542   5.189   0.345   0.703
 3479W        W 7543   8.512   0.413   9.941
 3480W        W 7544   1.431   7.243  11.444
 3481W        W 7545   9.971   7.004   9.061
 3482W        W 7546   7.094   7.406   8.668
 3483W        W 7547   4.126   9.320   8.807
 3484W        W 7548   2.614   6.671   1.830
 3485W        W 7549   6.198   2.318  11.774
 3486W        W 7550   5.006   3.343   1.789
 3487W        W 7551   9.328   6.638   0.492
 3488W        W 7552   8.874   2.833   1.927
 3489W        W 7553  10.258   7.451   9.005
 3490W        W 7554   4.909   6.340   8.221
 3491W        W 7555   9.804   5.707   2.803
 3492W        W 7556   7.940   1.450   3.124
 3493W        W 7557   5.507   6.102   8.631
 3494W        W 7558   0.283   8.095   9.777
 3495W        W 7559   1.015   2.706   1.928
 3496W        W 7560   8.430   8.563   1.819
 3497W        W 7561   6.850   6.461   8.464
 3498W        W 7562   1.061   2.611   1.408
 3499W        W 7563   7.425   0.011  11.396
 3500W        W 7564   9.550   2.029  10.818
 3501W        W 7565   8.353   5.211   9.984
 3502W        W 7566   2.061   7.423  10.641
 3503W        W 7567   0.257   2.728  10.661
 3504W        W 7568   5.742   3.876   0.093
 3505W        W 7569   2.830   7.871   0.449
 3506W        W 7570   7.484   0.501   8.996
 3507W        W 7571   3.260   1.508   3.150
 3508W        W 7572   2.399   0.624  11.831
 3509W        W 7573   4.682   6.368  10.274
 3510W        W 7574   2.118  10.366   1.867
 3511W        W 7575   3.338   5.056   8.779
 3512W        W 7576   9.108   8.668   2.782
 3513W        W 7577   8.472   7.399   9.398
 3514W        W 7578   4.240   0.790   8.917
 3515W        W 7579  10.461   9.780   9.313
 3516W        W 7580   1.356   8.910   9.952
 3517W        W 7581   7.405   3.547   1.907
 3518W        W 7582   1.663   5.722   9.217
 3519W        W 7583   5.631   2.205   0.925
 3520W        W 7584   6.837   9.120   0.605
 3521W        W 7585   6.051   7.487   0.786
 3522W        W 7586   4.190   2.228   0.446
 3523W        W 7587   5.152   5.156  10.563
 3524W        W 7588   9.659  10.394   1.424
 3525W        W 7589   4.056   1.222   9.114
 3526W        W 7590   0.481   1.851   9.131
 3527W        W 7591   3.060   7.432   8.851
 3528W        W 7592   1.444   7.578   1.873
 3529W        W 7593   6.396   4.021   8.134
 3530W        W 7594   7.644   5.943   1.376
 3531W        W 7595   6.891   2.190   0.527
 3532W        W 7596   8.431   4.628   1.486
 3533W        W 7597   9.011   3.649   0.675
 3534W        W 7598   3.282   6.972  11.292
 3535W        W 7599   7.403   7.053  11.324
 3536W        W 7600   5.536   1.252   2.041
 3537W        W 7601  10.404   8.747   2.221
 3538W        W 7602  10.255   1.515  10.702
 3539W        W 7603   0.341   8.852   1.190
 3540W        W 7604   2.914   1.151   1.968
 3541W        W 7605   2.616   3.593   1.644
 3542W        W 7606   3.149   5.776   1.135
 3543W        W 7607   8.431   8.395   0.238
 3544W        W 7608   0.345   0.522  11.182
 3545W        W 7609   9.816   3.725   2.706
 3546W        W 7610   2.361   8.636  10.967
 3547W        W 7611   0.345   6.762  11.701
 3548W        W 7612  10.414   7.058   1.391
 3549W        W 7613   4.117   6.160   3.683
 3550W        W 7614   3.882  10.423   2.711
 3551W        W 7615  10.035  10.457  11.501
 3552W        W 7616   6.035   9.098   2.710
 3553W        W 7617   0.018   9.918   0.392
 3554W        W 7618   8.574   1.890  11.197
 3555W        W 7619   9.110   6.503   0.963
 3556W        W 7620  10.442   5.660  10.112
 3557W        W 7621   4.533   6.433   0.701
 3558W        W 7622   8.143   4.873  11.498
 3559W        W 7623   9.547   5.026  11.474
 3560W        W 7624   9.466   3.574   0.454
 3561W        W 7625   7.554   6.031   3.460
 3562W        W 7626  10.374   1.170   9.371
 3563W        W 7627  10.471   4.778  11.790
 3564W        W 7628   5.301   9.488   3.671
 3565W        W 7629   8.375   9.870   3.133
 3566W        W 7630   5.065   9.511   9.762
 3567W        W 7631   4.696   8.403   2.558
 3568W        W 7632   5.846   4.028   9.585
 3569W        W 7633   6.489   6.199   3.521
 3570W        W 7634   8.626   8.568   2.700
 3571W        W 7635   1.689   6.514  11.564
 3572W        W 7636   5.502   7.827   1.364
 3573W        W 7637   8.842  10.352   3.534
 3574W        W 7638   0.875   3.193   1.947
 3575W        W 7639   2.844  10.309   3.179
 3576W        W 7640  10.333   9.068   2.814
 3577W        W 7641   4.243   3.178   0.365
 3578W        W 7642   5.433   9.902  11.529
 3579W        W 7643   9.812   0.470   8.667
 3580W        W 7644   6.886   0.096   0.264
 3581W        W 7645   3.736   4.620   3.408
 3582W        W 7646   8.581   6.882   9.376
 3583W        W 7647   7.543   6.107   8.861
 3584W        W 7648   8.828   0.064   0.416
 3585W        W 7649   4.427   5.948   3.323
 3586W        W 7650   2.065   5.213  11.199
 3587W        W 7651   7.667   4.117   1.441
 3588W        W 7652   1.596   1.294   1.444
 3589W        W 7653   7.673   8.519   2.357
 3590W        W 7654   6.884   5.107   8.849
 3591W        W 7655   1.791   6.030   1.250
 3592W        W 7656   0.974   2.829  11.108
 3593W        W 7657   5.915   5.144   2.933
 3594W        W 7658   5.478  10.373   8.896
 3595W        W 7659   2.186   3.339  10.213
 3596W        W 7660   9.767   0.318   2.887
 3597W        W 7661   6.144   8.483   2.401
 3598W        W 7662   2.192   1.829   2.994
 3599W        W 7663   6.023   7.945   9.574
 3600W        W 7664   7.623   3.106   2.262
 3601W        W 7665   7.413   9.991   3.437
 3602W        W 7666   4.487   3.614   0.528
 3603W        W 7667   3.847   6.684  10.931
 3604W        W 7668   6.953   1.242   2.708
 3605W        W 7669   1.492   8.309  10.807
 3606W        W 7670   8.268   9.883  11.398
 3607W        W 7671  10.409   0.271  11.373
 3608W        W 7672   9.358   9.163   9.097
 3609W        W 7673   6.462   2.604   9.543
 3610W        W 7674   3.577   1.277   8.915
 3611W        W 7675   5.964   9.022   0.679
 3612W        W 7676   9.336   9.885  11.312
 3613W        W 7677   4.191   6.675   3.746
 3614W        W 7678   4.589   9.072   8.734
 3615W        W 7679   0.135   1.858   2.602
 3616W        W 7680   7.207   9.678   8.789
 3617W        W 7681   6.685   4.479  11.262
 3618W        W 7682   0.924   6.586  10.553
 3619W        W 7683   9.004   4.276  11.422
 3620W        W 7684   6.527   7.681   0.832
 3621W        W 7685   9.741   2.690   2.480
 3622W        W 7686   8.104  10.410   2.766
 3623W        W 7687  10.011   0.016   8.408
 3624W        W 7688   6.401   9.283   2.293
 3625W        W 7689   4.118   4.275   8.549
 3626W        W 7690   1.126   6.450   2.100
 3627W        W 7691   1.990   8.961   1.365
 3628W        W 7692   4.244   6.998   8.907
 3629W        W 7693   2.105   0.776   1.883
 3630W        W 7694   9.964   0.852   9.003
 3631W        W 7695   6.978   5.025   3.444
 3632W        W 7696   5.251   5.289   0.964
 3633W        W 7697   8.791   9.928  11.274
 3634W        W 7698   8.594   5.699  10.026
 3635W        W 7699   4.701   0.822   9.163
 3636W        W 7700   4.294   9.483   0.374
 3637W        W 7701   0.354   9.463   9.099
 3638W        W 7702   5.665   8.294   1.685
 3639W        W 7703   7.065   4.514   2.933
 3640W        W 7704   4.699   8.083   8.993
 3641W        W 7705   2.124   5.558   1.818
 3642W        W 7706  10.273   3.601   2.459
 3643W        W 7707   5.561   2.260  10.976
 3644W        W 7708   7.446   5.632   8.646
 3645W        W 7709   5.124   3.532   2.273
 3646W        W 7710   0.696   9.439  11.986
 3647W        W 7711   0.909   6.010   8.753
 3648W        W 7712   7.322   8.901   2.382
 3649W        W 7713   3.744   7.944   0.900
 3650W        W 7714   1.807   3.415   2.146
 3651W        W 7715   0.814   0.750   0.499
 3652W        W 7716   6.932   3.457   1.292
 3653W        W 7717   3.847   3.199   0.019
 3654W        W 7718   8.070   7.913   9.475
 3655W        W 7719   4.319   0.149  10.448
 3656W        W 7720   0.953   4.688  11.240
 3657W        W 7721   5.337   6.595   8.028
 3658W        W 7722   3.722   4.840   0.419
 3659W        W 7723   2.862   5.945   1.554
 3660W        W 7724   7.184   8.083   0.298
 3661W        W 7725   3.173   1.375   0.689
 3662W        W 7726   5.024   6.664  11.819
 3663W        W 7727   8.027   1.243   1.400
 3664W        W 7728   7.090   3.591   2.777
 3665W        W 7729   1.177   9.842  10.250
 3666W        W 7730   5.085   0.873   0.469
 3667W        W 7731  10.463   6.654  10.059
 3668W        W 7732   6.070   5.999   0.827
 3669W        W 7733   7.127   0.482   1.541
 3670W        W 7734   4.290  10.438   3.140
 3671W        W 7735   4.030   1.775   0.705
 3672W        W 7736   0.477   9.518  11.497
 3673W        W 7737   6.052   3.643   8.857
 3674W        W 7738   0.517   2.801   1.961
 3675W        W 7739   8.896   7.125  10.701
 3676W        W 7740   9.086   2.166   1.106
 3677W        W 7741   6.839   8.042   2.032
 3678W        W 7742   5.730   7.574  10.946
 3679W        W 7743   0.761   0.528  10.848
 3680W        W 7744   5.529   6.916  11.479
 3681W        W 7745   1.968   9.523   3.277
 3682W        W 7746   5.033   8.786   1.901
 3683W        W 7747   2.292   3.315   1.293
 3684W        W 7748   0.714   0.365   2.771
 3685W        W 7749   1.263   6.962   3.505
 3686W        W 7750   5.227   4.112   3.881
 3687W        W 7751   6.280   3.283   1.786
 3688W        W 7752   8.836   7.607   0.477
 3689W        W 7753   5.867   3.028   3.170
 3690W        W 7754   3.083   9.905   1.392
 3691W        W 7755  10.405   8.381   9.539
 3692W        W 7756   7.453   8.169   8.909
 3693W        W 7757   5.953   4.932  11.913
 3694W        W 7758   1.924   3.421   2.826
 3695W        W 7759   0.859   8.395   2.914
 3696W        W 7760   0.080   7.638  11.680
 3697W        W 7761   4.092   3.385   8.916
 3698W        W 7762   8.385   4.570   9.411
 3699W        W 7763   4.546   2.124   9.353
 3700W        W 7764   2.614   4.278  11.021
 3701W        W 7765   2.860   6.667  10.020
 3702W        W 7766   4.978   2.816   9.104
 3703W        W 7767   8.786   4.769   3.610
 3704W        W 7768   3.278  10.163   0.973
 3705W        W 7769   1.886   2.839   0.366
 3706W        W 7770   7.398  10.164  11.000
 3707W        W 7771  10.109   7.818   0.887
 3708W        W 7772   1.483   4.128  11.374
 3709W        W 7773   6.834   5.527   2.397
 3710W        W 7774   9.468   6.332   0.117
 3711W        W 7775   2.376   1.345   3.541
 3712W        W 7776   2.252   2.207  10.026
 3713W        W 7777   8.564   4.554  11.475
 3714W        W 7778   8.519   8.083   9.258
 3715W        W 7779   4.990   6.190   8.707
 3716W        W 7780   5.173  10.045   2.491
 3717W        W 7781   1.035   4.213   3.616
 3718W        W 7782   7.502   1.646   2.839
 3719W        W 7783   7.468   4.765   2.696
 3720W        W 7784   0.677   0.877   9.864
 3721W        W 7785   5.060   2.452  11.026
 3722W        W 7786   7.574   2.187   0.234
 3723W        W 7787   1.388   2.423   0.434
 3724W        W 7788   1.260   8.456   9.781
 3725W        W 7789   8.174   0.978  10.039
 3726W        W 7790   5.957   8.662  10.449
 3727W        W 7791   8.893   8.486   0.432
 3728W        W 7792   3.227   2.258   3.600
 3729W        W 7793   0.942   6.047  11.880
 3730W        W 7794  10.164   7.929  11.557
 3731W        W 7795   5.622   3.884   8.629
 3732W        W 7796   6.950   7.544   2.696
 3733W        W 7797   6.853   5.134  11.744
 3734W        W 7798   9.829   6.457   0.446
 3735W        W 7799   0.977   2.608  10.241
 3736W        W 7800   3.623   0.299   2.983
 3737W        W 7801   8.633   9.730   1.130
 3738W        W 7802   6.142   5.962   3.803
 3739W        W 7803   6.682   7.579   2.213
 3740W        W 7804   5.316   4.066   9.438
 3741W        W 7805   9.494   2.274   0.268
 3742W        W 7806   0.504   7.682   0.968
 3743W        W 7807   7.013   1.759   2.734
 3744W        W 7808   8.207   0.109  10.660
 3745W        W 7809   3.748   1.372  10.926
 3746W        W 7810   7.813   3.595   0.035
 3747W        W 7811   4.128   0.849   3.074
 3748W        W 7812   3.610   5.529   9.335
 3749W        W 7813   2.710   6.607   9.031
 3750W        W 7814   8.916   3.001   1.418
 3751W        W 7815   5.499   2.636  10.530
 3752W        W 7816   5.190   3.059   0.224
 3753W        W 7817   4.253   1.645   9.333
 3754W        W 7818   4.312   5.127  10.507
 3755W        W 7819   1.311   7.681   3.332
 3756W        W 7820  10.216   2.994   3.019
 3757W        W 7821   5.738   7.398   9.054
 3758W        W 7822   4.816   7.950   2.758
 3759W        W 7823   3.728   4.191   9.053
 3760W        W 7824   4.792   2.873  11.909
 3761W        W 7825   4.683   5.083   2.053
 3762W        W 7826   1.402   5.314   8.677
 3763W        W 7827   3.822   3.222  11.072
 3764W        W 7828   5.564   4.134   8.003
 3765W        W 7829   1.467   3.099  10.862
 3766W        W 7830   0.047   4.214   9.091
 3767W        W 7831   2.412   8.914   9.685
 3768W        W 7832   9.869   1.404   1.021
 3769W        W 7833   3.156   1.166  10.593
 3770W        W 7834   6.787   0.440   1.147
 3771W        W 7835   7.881   7.444   0.303
 3772W        W 7836   7.948   1.892  10.542
 3773W        W 7837   1.508   7.731  11.362
 3774W        W 7838   0.013  10.251   3.093
 3775W        W 7839   4.161   1.350   2.765
 3776W        W 7840   0.967   4.942   1.739
 3777W        W 7841   5.554   5.672   0.164
 3778W        W 7842   2.766   7.444   1.259
 3779W        W 7843  10.282   1.825  10.293
 3780W        W 7844   1.538   4.492   9.706
 3781W        W 7845   8.627   8.322   1.416
 3782W        W 7846   7.816   0.448  10.567
 3783W        W 7847   5.164   3.619  10.352
 3784W        W 7848   4.981   5.476   9.965
 3785W        W 7849   1.591   5.635   0.971
 3786W        W 7850   1.924   2.894   2.051
 3787W        W 7851  10.204  10.090   2.268
 3788W        W 7852   1.817   4.103   9.911
 3789W        W 7853   6.122   5.514   3.533
 3790W        W 7854   5.555   6.965   1.456
 3791W        W 7855   7.642   5.016   1.689
 3792W        W 7856   5.690   5.590  10.299
 3793W        W 7857   1.890   4.309   2.331
 3794W        W 7858   7.686   3.769   0.514
 3795W        W 7859   3.010   9.050  10.406
 3796W        W 7860   0.041   4.634  10.808
 3797W        W 7861   3.535   9.962   2.302
 3798W        W 7862   3.280   0.437   1.665
 3799W        W 7863   9.784   7.412   8.792
 3800W        W 7864   2.484   4.777   8.922
 3801W        W 7865   0.217   1.353  10.882
 3802W        W 7866   6.935   5.432   0.535
 3803W        W 7867   0.860   9.930   1.179
 3804W        W 7868   6.409   8.855   0.454
 3805W        W 7869   7.147   7.611   9.679
 3806W        W 7870   7.456   3.221  11.295
 3807W        W 7871   9.956   1.863   1.848
 3808W        W 7872   3.084   7.954  11.094
 3809W        W 7873   0.418   7.380   2.866
 3810W        W 7874   4.493   6.422   1.213
 3811W        W 7875   4.995   3.028   9.825
 3812W        W 7876   0.881   3.929   1.241
 3813W        W 7877   1.991   9.549  10.983
 3814W        W 7878   1.167   2.234   1.806
 3815W        W 7879   7.911   2.403  10.559
 3816W        W 7880   5.714   1.607  11.758
 3817W        W 7881   5.577   1.265   3.050
 3818W        W 7882  10.225   7.710   2.213
 3819W        W 7883   9.376   5.451   2.163
 3820W        W 7884   0.890   4.149   0.199
 3821W        W 7885   0.362   7.242  10.139
 3822W        W 7886   4.721   5.052  10.821
 3823W        W 7887  10.340   3.442   9.727
 3824W        W 7888   9.331   2.652   2.162
 3825W        W 7889   4.970   6.463   2.861
 3826W        W 7890   7.447   6.619   8.954
 3827W        W 7891   8.936   5.590   9.641
 3828W        W 7892   7.326   5.213  10.464
 3829W        W 7893   8.371   4.245  10.859
 3830W        W 7894   8.204   1.809  11.568
 3831W        W 7895  10.475   7.097  11.918
 3832W        W 7896   3.278   7.215   2.314
 3833W        W 7897   6.039   0.422   3.315
 3834W        W 7898   9.397   3.381  10.504
 3835W        W 7899   0.801   0.249   9.465
 3836W        W 7900   8.302   9.865   8.946
 3837W        W 7901   5.898   0.386   2.816
 3838W        W 7902   0.363   0.199  10.780
 3839W        W 7903   9.398   9.203  11.173
 3840W        W 7904   2.019   9.384   1.899
 3841W        W 7905   0.857   6.532  10.047
 3842W        W 7906   7.017   5.619  11.027
 3843W        W 7907   2.087   5.238   3.018
 3844W        W 7908   8.702   7.203   8.974
 3845W        W 7909   4.742  10.295   2.434
 3846W        W 7910   7.592   9.973  10.097
 3847W        W 7911   2.394   8.459   3.005
 3848W        W 7912   8.742   2.007   0.353
 3849W        W 7913   0.176   5.612   0.030
 3850W        W 7914   6.419   8.944   1.418
 3851W        W 7915   9.159   5.768  10.505
 3852W        W 7916   7.802   4.117  11.987
 3853W        W 7917   2.378   6.016   1.793
 3854W        W 7918   4.174   1.866   2.806
 3855W        W 7919   5.929   6.877   3.836
 3856W        W 7920   2.106   7.161   9.833
 3857W        W 7921   3.999   7.929   2.257
 3858W        W 7922   4.687   0.853   8.635
 3859W        W 7923   7.301  10.004   1.625
 3860W        W 7924   7.022   2.199   3.026
 3861W        W 7925   1.921   3.332  11.018
 3862W        W 7926   1.192   9.711   8.819
 3863W        W 7927   7.440   3.732  11.136
 3864W        W 7928   5.949   3.472   1.406
 3865W        W 7929   2.361   3.154   2.847
 3866W        W 7930   7.382  10.492   0.317
 3867W        W 7931   7.853   6.510   2.780
 3868W        W 7932   2.887   6.953  11.838
 3869W        W 7933   4.970   4.675   0.427
 3870W        W 7934   2.386   4.788   2.739
 3871W        W 7935   0.640   0.620   2.303
 3872W        W 7936   9.960   4.520  10.453
 3873W        W 7937   7.152   0.440   3.318
 3874W        W 7938   1.661   1.629  11.796
 3875W        W 7939  10.203   0.627   1.412
 3876W        W 7940   9.380   4.662   9.760
 3877W        W 7941   2.822   7.030   0.408
 3878W        W 7942   8.415   6.495   0.812
 3879W        W 7943   1.381   4.218   3.244
 3880W        W 7944   3.614   6.474   1.696
 3881W        W 7945   1.291   0.236   9.031
 3882W        W 7946  10.247   6.721   0.320
 3883W        W 7947   6.945   3.681   0.352
 3884W        W 7948   4.406   0.094   2.660
 3885W        W 7949   7.485   8.791  10.759
 3886W        W 7950   3.393   1.029  11.027
 3887W        W 7951   4.649   2.346  10.717
 3888W        W 7952   4.934   8.472  10.446
 3889W        W 7953   9.332   8.446   3.356
 3890W        W 7954   4.721   9.390   2.939
 3891W        W 7955   6.123   4.074   8.607
 3892W        W 7956   9.274   7.939   8.924
 3893W        W 7957   8.123   8.363   9.077
 3894W        W 7958   7.149   2.267   1.495
 3895W        W 7959   3.373   0.582   9.796
 3896W        W 7960   2.313   7.812  11.574
 3897W        W 7961   0.445   5.204   0.188
 3898W        W 7962   1.963   4.567   0.886
 3899W        W 7963   2.823   5.958   0.052
 3900W        W 7964   6.180   1.919   3.482
 3901W        W 7965   2.600   2.537  10.278
 3902W        W 7966   6.677   0.305   9.376
 3903W        W 7967   2.913  10.348  10.659
 3904W        W 7968   8.640   4.224   1.228
 3905W        W 7969  10.278   4.514   8.769
 3906W        W 7970   6.732   1.247  10.529
 3907W        W 7971   7.534   5.645   3.095
 3908W        W 7972   5.288   6.173   9.116
 3909W        W 7973   2.359   6.763   1.159
 3910W        W 7974   4.733   3.294   0.211
 3911W        W 7975   6.035   7.543   1.679
 3912W        W 7976   6.997   6.451   1.772
 3913W        W 7977   9.747   3.459   8.576
 3914W        W 7978   4.159   1.246  11.825
 3915W        W 7979   7.968   7.480   2.657
 3916W        W 7980   7.814   9.917   9.081
 3917W        W 7981  10.216   3.660  11.316
 3918W        W 7982   2.633   5.049   2.352
 3919W        W 7983   1.299   1.848   9.039
 3920W        W 7984   5.076   4.630  11.037
 3921W        W 7985   9.397   6.412   1.750
 3922W        W 7986   5.160   8.551  11.057
 3923W        W 7987   3.707  10.432   2.218
 3924W        W 7988   9.429   7.193   1.499
 3925W        W 7989   7.424   2.081   0.702
 3926W        W 7990   5.164   7.688  11.061
 3927W        W 7991  10.376   0.701   9.586
 3928W        W 7992   4.064  10.375   0.888
 3929W        W 7993   7.561   3.570   9.945
 3930W        W 7994   4.698   1.704   9.063
 3931W        W 7995   0.226   8.643  11.396
 3932W        W 7996   0.891   5.694   0.285
 3933W        W 7997   7.079   6.694   2.282
 3934W        W 7998  10.082   3.729  11.803
 3935W        W 7999   5.656   0.780   2.197
 3936W        W 8000   4.276   9.086  10.530
 3937W        W 8001   1.266  10.432   9.446
 3938W        W 8002   6.974   9.948  10.765
 3939W        W 8003   7.927   4.098   2.364
 3940W        W 8004   2.659   0.708   3.385
 3941W        W 8005   1.698   8.322   1.796
 3942W        W 8006   8.993   0.887   2.851
 3943W        W 8007   6.964   9.033   2.731
 3944W        W 8008   2.651   2.772   2.704
 3945W        W 8009   4.616   3.643   1.567
 3946W        W 8010   0.471   0.774  11.992
 3947W        W 8011   0.333   5.359   9.884
 3948W        W 8012   2.305   8.989   1.756
 3949W        W 8013   3.720   8.959   1.341
 3950W        W 8014   8.480   0.334   9.397
 3951W        W 8015   7.015   0.319  11.265
 3952W        W 8016  10.349   4.970   2.413
 3953W        W 8017   4.602   6.878  10.276
 3954W        W 8018   7.215   9.001   0.278
 3955W        W 8019   6.223   4.333  11.754
 3956W        W 8020   4.203   1.010   8.466
 3957W        W 8021   1.927  10.420  10.656
 3958W        W 8022   7.967   0.002   0.374
 3959W        W 8023   4.366   5.765   8.264
 3960W        W 8024   9.905  10.338  11.980
 3961W        W 8025   6.109   2.328  11.266
 3962W        W 8026   8.917   4.759   2.182
 3963W        W 8027   5.208   6.672   8.517
 3964W        W 8028   6.962   2.412  10.558
 3965W        W 8029   1.068   9.104   0.240
 3966W        W 8030   5.471   4.682   0.342
 3967W        W 8031   6.958   7.717   0.572
 3968W        W 8032   9.972   3.202   2.608
 3969W        W 8033   2.403   2.928  11.830
 3970W        W 8034   2.603   6.081   3.501
 3971W        W 8035   9.415   9.011   2.517
 3972W        W 8036   6.852   9.053   1.152
 3973W        W 8037   2.355   7.665   1.732
 3974W        W 8038   9.530   8.303   9.219
 3975W        W 8039   3.695  10.331  10.816
 3976W        W 8040   9.770   4.286  10.907
 3977W        W 8041   6.506   1.472   2.781
 3978W        W 8042   5.668   2.379   2.353
 3979W        W 8043   1.214   9.560  11.989
 3980W        W 8044   6.274   7.460   1.240
 3981W        W 8045   5.594   7.383   2.786
 3982W        W 8046   8.182   0.203   8.524
 3983W        W 8047   1.692   0.466   2.545
 3984W        W 8048   7.395   5.204   8.950
 3985W        W 8049   2.737   3.585   9.266
 3986W        W 8050   2.716   0.294  10.885
 3987W        W 8051   5.080   2.252   9.186
 3988W        W 8052   2.339  10.299   2.988
 3989W        W 8053   4.322   1.678   1.905
 3990W        W 8054   4.349   6.620   9.702
 3991W        W 8055   0.776   8.893   9.883
 3992W        W 8056   6.923   9.873  11.269
 3993W        W 8057   7.238   1.736  11.316
 3994W        W 8058   9.310   5.627   9.283
 3995W        W 8059   6.186   3.119   3.570
 3996W        W 8060   0.756   8.556   1.965
 3997W        W 8061   9.277   1.931   8.609
 3998W        W 8062   4.757   8.859  11.274
 3999W        W 8063   5.260   9.886  10.074
 4000W        W 8064   1.361   7.981   1.520
 4001W        W 8065   1.230   2.930   0.396
 4002W        W 8066   1.760   5.960  10.212
 4003W        W 8067   9.378   0.696   1.952
 4004W        W 8068   2.259   2.243  11.520
 4005W        W 8069   4.541   3.909  11.016
 4006W        W 8070   0.905   7.048  10.790
 4007W        W 8071   1.513   0.258   3.385
 4008W        W 8072   0.563   1.801   9.834
 4009W        W 8073   9.520   7.121   0.996
 4010W        W 8074   0.336   7.341   1.459
 4011W        W 8075   3.203   4.821   1.281
 4012W        W 8076   2.812   5.922   2.087
 4013W        W 8077   4.220   7.949   8.838
 4014W        W 8078   5.996   4.349   8.182
 4015W        W 8079   6.479   3.341   0.565
 4016W        W 8080   3.093   7.908   8.599
 4017W        W 8081   7.116   0.932  11.872
 4018W        W 8082   3.184   0.228   9.405
 4019W        W 8083   2.688   9.947   2.789
 4020W        W 8084   8.556   7.902   3.213
 4021W        W 8085   6.977   9.508   2.955
 4022W        W 8086   6.068   7.116   1.998
 4023W        W 8087   6.555   7.415   3.133
 4024W        W 8088   1.147   0.721   2.209
 4025W        W 8089   4.544   9.776  11.779
 4026W        W 8090   0.013   4.644  10.280
 4027W        W 8091  10.476   7.589   1.221
 4028W        W 8092   2.637   4.337  11.535
 4029W        W 8093   5.211   1.714   9.856
 4030W        W 8094   4.542   0.402   9.452
 4031W        W 8095   5.119   1.196   2.333
 4032W        W 8096   6.122   7.265  10.821
 4033W        W 8097   0.396   0.678   1.849
 4034W        W 8098   5.723   5.168   1.645
 4035W        W 8099   4.924   0.406   8.641
 4036W        W 8100   7.985   9.376   0.581
 4037W        W 8101   4.228   5.643  10.474
 4038W        W 8102   9.727   8.929  10.479
 4039W        W 8103   4.265   6.202  10.527
 4040W        W 8104   8.581   8.955   3.555
 4041W        W 8105   0.736   3.589  10.282
 4042W        W 8106   2.289   7.683   1.225
 4043W        W 8107   1.012   8.750   9.450
 4044W        W 8108   4.601   4.053   8.792
 4045W        W 8109   3.353   3.822   1.333
 4046W        W 8110   7.543   2.765   1.465
 4047W        W 8111   9.565   5.577  10.260
 4048W        W 8112   3.143   6.475   2.907
 4049W        W 8113   9.518   9.392  10.088
 4050W        W 8114   2.562   7.590   8.957
 4051W        W 8115   7.498   3.650  11.633
 4052W        W 8116  10.368   5.706   1.192
 4053W        W 8117   4.606   4.693   3.496
 4054W        W 8118   2.776   1.309  10.927
 4055W        W 8119   7.874   0.262   1.614
 4056W        W 8120   1.546   5.654  10.553
 4057W        W 8121   7.534   7.065   0.165
 4058W        W 8122   0.408   9.020  10.867
 4059W        W 8123   2.861   7.505  11.164
 4060W        W 8124   6.576   9.459   1.321
 4061W        W 8125   5.632  10.424   1.928
 4062W        W 8126   7.422   5.323   9.513
 4063W        W 8127   8.040   2.263   1.398
 4064W        W 8128   6.020   3.673   9.921
 4065W        W 8129   5.822   7.466   0.324
 4066W        W 8130   3.410   7.945   1.881
 4067W        W 8131   5.724   6.897   9.208
 4068W        W 8132   6.054   9.076  10.834
 4069W        W 8133   8.431   6.450   2.107
 4070W        W 8134   0.360   8.551   1.671
 4071W        W 8135   6.906   5.003   2.781
 4072W        W 8136   4.129   3.898   8.922
 4073W        W 8137   9.046   4.036   1.518
 4074W        W 8138   4.854   6.834   8.073
 4075W        W 8139   6.136   1.393  11.239
 4076W        W 8140   7.917   9.057   2.969
 4077W        W 8141   3.263   7.109   0.733
 4078W        W 8142   4.965   0.414  10.781
 4079W        W 8143   4.055   3.952   1.388
 4080W        W 8144   6.541   2.974   0.241
 4081W        W 8145   2.290   3.507   3.206
 4082W        W 8146   1.677   7.166   0.572
 4083W        W 8147   6.034   3.156  11.105
 4084W        W 8148   4.692   3.785   3.009
 4085W        W 8149  10.275   4.116   2.838
 4086W        W 8150   7.992   3.687   3.291
 4087W        W 8151   8.452   0.734   3.291
 4088W        W 8152   8.404   1.713   3.041
 4089W        W 8153   1.367   6.475  10.800
 4090W        W 8154   4.061   5.607   1.632
 4091W        W 8155   3.262   2.460   3.151
 4092W        W 8156   2.690   9.292   9.895
 4093W        W 8157   6.216   1.762   9.934
 4094W        W 8158   0.759   4.103   1.703
 4095W        W 8159   5.514   7.044   8.707
 4096W        W 8160   6.172   8.541   0.828
 4097W        W 8161   9.175   5.958   9.993
 4098W        W 8162   3.783   3.586   1.158
 4099W        W 8163   9.057   4.616   2.654
 4100W        W 8164   9.874   0.947   1.221
 4101W        W 8165   5.007   9.517   9.266
 4102W        W 8166   2.388   2.586  10.778
 4103W        W 8167   1.371   6.564   0.903
 4104W        W 8168   2.911   8.909   9.588
 4105W        W 8169   0.959   3.807   3.288
 4106W        W 8170   4.223   1.224   1.690
 4107W        W 8171   0.697   7.325   8.914
 4108W        W 8172   5.567   3.823   1.418
 4109W        W 8173   9.055   0.335   9.980
 4110W        W 8174   0.991   3.050   2.868
 4111W        W 8175   2.956   7.194   2.716
 4112W        W 8176   3.154   3.821   9.065
 4113W        W 8177   8.356   0.317   2.953
 4114W        W 8178   9.780   8.989  11.519
 4115W        W 8179   5.045   6.695   0.769
 4116W        W 8180  10.498   2.824   1.940
 4117W        W 8181   8.654   6.646  10.800
 4118W        W 8182   4.266   9.112   2.812
 4119W        W 8183   9.981   3.087   9.320
 4120W        W 8184   7.435   9.308  10.710
 4121W        W 8185   5.980   5.290  11.502
 4122W        W 8186   9.423   4.285  10.543
 4123W        W 8187   6.690   4.286   2.316
 4124W        W 8188   3.741   9.832  10.335
 4125W        W 8189   7.303   2.197   9.271
 4126W        W 8190   9.737   0.774   0.224
 4127W        W 8191   5.062   3.737  11.003
 4128W        W 8192   0.482   8.275  10.206
 4129W        W 8193   0.817   7.876   2.737
 4130W        W 8194   5.063   3.099   3.020
 4131W        W 8195   9.921   0.279   0.731
 4132W        W 8196   7.482   6.300   0.025
 4133W        W 8197   3.563   1.109   9.859
 4134W        W 8198   8.281   4.282   9.836
 4135W        W 8199   2.253   3.262  11.466
 4136W        W 8200   4.150   6.167   8.900
 4137W        W 8201   4.599   4.655   0.100
 4138W        W 8202   7.901   1.358   8.862
 4139W        W 8203   9.539   0.857   2.732
 4140W        W 8204   6.645   2.294   1.815
 4141W        W 8205   4.766   1.866   1.387
 4142W        W 8206   5.731  10.268   3.392
 4143W        W 8207   4.353   7.443   9.460
 4144W        W 8208   5.799   3.188   1.882
 4145W        W 8209  10.406   3.291  10.606
 4146W        W 8210   5.146   9.077  10.964
 4147W        W 8211   8.614   2.883  10.975
 4148W        W 8212   5.541   0.680   1.250
 4149W        W 8213   4.228   7.759  10.316
 4150W        W 8214   2.334   5.611   8.368
 4151W        W 8215   1.368   6.110   2.429
 4152W        W 8216   4.711   4.969   0.733
 4153W        W 8217   0.313   8.007  10.609
 4154W        W 8218   7.436   6.071   0.919
 4155W        W 8219   4.609   5.167   2.620
 4156W        W 8220   5.235  10.053  10.564
 4157W        W 8221   5.764   6.225   9.867
 4158W        W 8222  10.462   1.143   2.920
 4159W        W 8223   7.520   1.088   3.446
 4160W        W 8224   5.668   9.026  10.175
 4161W        W 8225   2.719   5.717   9.044
 4162W        W 8226   3.633   1.616   9.916
 4163W        W 8227   5.711   2.388   1.399
 4164W        W 8228   3.403   5.781   9.955
 4165W        W 8229   8.026   2.934   0.676
 4166W        W 8230   3.408   6.103  11.393
 4167W        W 8231   2.477   6.533   8.584
 4168W        W 8232   2.390   1.946   1.496
 4169W        W 8233   4.566   5.576   1.814
 4170W        W 8234   6.906   2.156   9.588
 4171W        W 8235   0.362   0.029  11.345
 4172W        W 8236   8.403   6.952   2.016
 4173W        W 8237   6.448   3.369   1.313
 4174W        W 8238   9.402   6.203  10.407
 4175W        W 8239   9.063   6.845   9.079
 4176W        W 8240   2.456   2.882   1.641
 4177W        W 8241   0.749   8.383   9.775
 4178W        W 8242   1.949   8.453   2.688
 4179W        W 8243   2.696   9.242   8.858
 4180W        W 8244   8.922   9.105   9.583
 4181W        W 8245   5.980   6.760  11.609
 4182W        W 8246   8.686   4.983   9.344
 4183W        W 8247   5.048   2.738   3.386
 4184W        W 8248   1.676   3.236   1.686
 4185W        W 8249   4.294   6.446  11.004
 4186W        W 8250   2.693   9.106  11.784
 4187W        W 8251   0.786   9.405   1.903
 4188W        W 8252   7.456  10.298   2.120
 4189W        W 8253   9.785   4.372   9.942
 4190W        W 8254   4.079   0.381   3.312
 4191W        W 8255   4.519   8.949   0.661
 4192W        W 8256   7.232   5.731   2.172
 4193W        W 8257   0.792   3.743  10.765
 4194W        W 8258   3.104   2.200   2.203
 4195W        W 8259  10.417   9.853   1.421
 4196W        W 8260   5.899   9.605   3.598
 4197W        W 8261   6.937   8.150  10.783
 4198W        W 8262   0.774   5.176   2.157
 4199W        W 8263   0.503   1.906   2.246
 4200W        W 8264   1.156   6.448   8.617
 4201W        W 8265   4.500   1.729   2.397
 4202W        W 8266   0.907   3.096   8.968
 4203W        W 8267   2.729   6.475   0.844
 4204W        W 8268   0.481   7.742  11.376
 4205W        W 8269   3.715   0.442   1.971
 4206W        W 8270   0.836   1.792  11.397
 4207W        W 8271   4.944   4.229   9.121
 4208W        W 8272   7.747   0.795   1.794
 4209W        W 8273   5.502   6.678   3.581
 4210W        W 8274   1.257   6.064   9.922
 4211W        W 8275   9.998   4.025   0.213
 4212W        W 8276   8.384   1.290   3.385
 4213W        W 8277  10.236   5.479   2.675
 4214W        W 8278   5.765   7.096  10.056
 4215W        W 8279   7.473   2.701   1.972
 4216W        W 8280   9.190  10.314   9.863
 4217W        W 8281   0.314   5.442  11.051
 4218W        W 8282   4.775   7.935  10.327
 4219W        W 8283   8.861   1.460   9.190
 4220W        W 8284   1.216   3.981   1.928
 4221W        W 8285   3.743   5.835  11.713
 4222W        W 8286   6.569   8.349   2.715
 4223W        W 8287   3.241   6.984   9.041
 4224W        W 8288   1.361   2.274  11.880
 4225W        W 8289   7.859   9.489  10.488
 4226W        W 8290   6.748   4.001   9.320
 4227W        W 8291   8.392   2.613  11.906
 4228W        W 8292   8.051   9.994   0.395
 4229W        W 8293   7.581   6.614   0.478
 4230W        W 8294   8.753   9.523   2.276
 4231W        W 8295   4.563   4.216   3.242
 4232W        W 8296   6.076   8.487   9.277
 4233W        W 8297   3.754   1.319   1.917
 4234W        W 8298   0.851   6.912   9.199
 4235W        W 8299   7.865   1.808   0.058
 4236W        W 8300   6.676   6.495  11.345
 4237W        W 8301  10.426   8.285   3.132
 4238W        W 8302   9.639   3.858   8.869
 4239W        W 8303   4.225   7.404  11.285
 4240W        W 8304  10.414   9.419   0.585
 4241W        W 8305   4.660   8.920   3.130
 4242W        W 8306   3.189   3.726  10.087
 4243W        W 8307   6.060   9.569  10.985
 4244W        W 8308  10.490   9.703  11.433
 4245W        W 8309   1.504   3.706   2.987
 4246W        W 8310   7.622   1.309  10.623
 4247W        W 8311   8.376   7.075  10.783
 4248W        W 8312   4.316   5.262   8.424
 4249W        W 8313   2.328   3.902   8.758
 4250W        W 8314   4.750   6.026   1.019
 4251W        W 8315   1.895   3.058  11.901
 4252W        W 8316   3.314   7.144  10.462
 4253W        W 8317   9.333   2.832   1.693
 4254W        W 8318   3.550   2.726   2.319
 4255W        W 8319   4.722   7.031   2.480
 4256W        W 8320   6.115   2.232  10.142
 4257W        W 8321   1.818   5.988   1.752
 4258W        W 8322   7.805   9.739  11.662
 4259W        W 8323   6.676   6.163  11.959
 4260W        W 8324   9.371   9.054   1.306
 4261W        W 8325   9.406   0.006   2.656
 4262W        W 8326   1.936   9.758   0.703
 4263W        W 8327   2.053   9.945  10.409
 4264W        W 8328   0.388   2.894   0.701
 4265W        W 8329   2.169   4.504  10.853
 4266W        W 8330   3.279   4.426   3.616
 4267W        W 8331   0.036   2.819   0.337
 4268W        W 8332  10.300   8.217  10.726
 4269W        W 8333   5.243   9.479   0.775
 4270W        W 8334   4.794   2.326   1.183
 4271W        W 8335   1.715   8.478  11.776
 4272W        W 8336   3.221   7.202   1.405
 4273W        W 8337   0.271   5.220   3.574
 4274W        W 8338   8.920   6.219   8.544
 4275W        W 8339   6.947   4.073   0.685
 4276W        W 8340   1.344   7.853   0.300
 4277W        W 8341   2.856   9.832   1.871
 4278W        W 8342   2.110   6.632  11.802
 4279W        W 8343   1.937   9.439  11.480
 4280W        W 8344   5.956   4.320   9.087
 4281W        W 8345   8.009   9.707   9.912
 4282W        W 8346   8.118   8.665   2.704
 4283W        W 8347   9.372   1.698   9.844
 4284W        W 8348   3.611   3.562   2.153
 4285W        W 8349   3.584   9.558   9.921
 4286W        W 8350   1.387   3.191  11.846
 4287W        W 8351   2.200   3.736   9.812
 4288W        W 8352   3.232   8.858   3.416
 4289W        W 8353   8.371   5.248  10.961
 4290W        W 8354   3.244   0.669   2.967
 4291W        W 8355   3.815   4.650   8.313
 4292W        W 8356  10.224   6.041   2.834
 4293W        W 8357   6.548   4.877   1.265
 4294W        W 8358   3.720   4.542   1.949
 4295W        W 8359   2.588   2.048   8.820
 4296W        W 8360   4.398  10.097  10.438
 4297W        W 8361   7.061   2.292  10.067
 4298W        W 8362   9.572   2.985  10.827
 4299W        W 8363   1.691   7.574   9.077
 4300W        W 8364   6.700   6.188   4.002
 4301W        W 8365   1.799   7.054  11.761
 4302W        W 8366   0.018  10.229   9.586
 4303W        W 8367   0.273   3.105   1.195
 4304W        W 8368   9.491   5.644   0.715
 4305W        W 8369   9.034   5.008   8.949
 4306W        W 8370   8.520   6.621   1.643
 4307W        W 8371   0.869   4.763  10.737
 4308W        W 8372   2.327   4.757  11.255
 4309W        W 8373   3.856   8.296   9.524
 4310W        W 8374   2.077   1.029   1.301
 4311W        W 8375   6.356   9.770   9.238
 4312W        W 8376   5.067   4.228   8.623
 4313W        W 8377   6.146   2.233   1.664
 4314W        W 8378   4.668   5.888  10.501
 4315W        W 8379  10.319   2.984  11.903
 4316W        W 8380   8.424   4.262   0.249
 4317W        W 8381   7.816   9.008   2.468
 4318W        W 8382   2.858   8.513   2.759
 4319W        W 8383   3.373  10.351   2.918
 4320W        W 8384   0.019  10.471   0.773
 4321W        W 8385   2.751  10.320  11.681
 4322W        W 8386   8.197   6.659   3.116
 4323W        W 8387   0.259   6.557   9.274
 4324W        W 8388   4.143   9.238   1.428
 4325W        W 8389   3.465   0.381   8.560
 4326W        W 8390   6.554   3.662   1.993
 4327W        W 8391   8.961  10.193   0.062
 4328W        W 8392   0.372   8.954   2.134
 4329W        W 8393   1.335   1.298   0.036
 4330W        W 8394   8.888   9.996   3.007
 4331W        W 8395   0.561   0.980  11.031
 4332W        W 8396   5.951   6.407   3.583
 4333W        W 8397   6.168   0.960  10.941
 4334W        W 8398   7.876   0.839   0.363
 4335W        W 8399   9.579   7.371  11.894
 4336W        W 8400   2.375   1.096   8.979
 4337W        W 8401   2.023   9.824  11.818
 4338W        W 8402   3.358   7.481  11.231
 4339W        W 8403   0.045   2.665   1.055
 4340W        W 8404   2.753   2.192  11.367
 4341W        W 8405   5.227   9.998   0.010
 4342W        W 8406   6.517   8.367   1.757
 4343W        W 8407   4.725   5.505  11.822
 4344W        W 8408   1.671   7.927   9.876
 4345W        W 8409   1.311   2.768   2.607
 4346W        W 8410  10.166   7.276   0.973
 4347W        W 8411   6.542  10.279   9.382
 4348W        W 8412   4.148   8.502   9.880
 4349W        W 8413   5.978   0.005  11.757
 4350W        W 8414   0.113   5.335   0.886
 4351W        W 8415  10.274   6.559   9.075
 4352W        W 8416   8.111   4.107   9.371
 4353W        W 8417   3.351   2.398  10.415
 4354W        W 8418   7.675   5.274  11.422
 4355W        W 8419   6.627   6.906   0.372
 4356W        W 8420   6.130   1.866   0.059
 4357W        W 8421   9.304   0.300   1.300
 4358W        W 8422   5.907   5.740   9.864
 4359W        W 8423   9.020   5.714   2.465
 4360W        W 8424   9.535  -0.001   0.932
 4361W        W 8425   0.473   6.087   9.350
 4362W        W 8426   7.492   6.139   2.939
 4363W        W 8427   6.097   6.081   9.465
 4364W        W 8428   6.708   3.056   9.372
 4365W        W 8429   0.802   9.004   2.714
 4366W        W 8430   4.923   2.656   1.966
 4367W        W 8431   3.064   0.212  11.305
 4368W        W 8432   4.232   1.064  10.474
 4369W        W 8433  10.394   6.962   8.746
 4370W        W 8434   3.746   3.321   3.043
 4371W        W 8435   7.573   4.010   4.373
 4372W        W 8436   9.348   6.167  11.375
 4373W        W 8437   2.694   7.416  11.658
 4374W        W 8438   0.523   7.741  11.919
 4375W        W 8439   7.151   4.980   1.914
 4376W        W 8440   0.320   5.023   2.643
 4377W        W 8441   4.157   6.273   2.896
 4378W        W 8442   3.609   3.763  10.371
 4379W        W 8443   5.566   1.669   0.923
 4380W        W 8444   3.713   0.753   8.917
 4381W        W 8445   7.544   1.346  11.122
 4382W        W 8446   2.721   9.763   9.031
 4383W        W 8447   4.717  10.037   0.804
 4384W        W 8448   6.681   8.482   2.236
 4385W        W 8449   5.053   4.007   9.874
 4386W        W 8450   6.904   0.778   9.615
 4387W        W 8451   2.125   6.896   1.901
 4388W        W 8452   8.816   2.914  11.999
 4389W        W 8453   5.079   6.674   2.334
 4390W        W 8454   0.782   2.234   1.170
 4391W        W 8455   9.027   8.894   0.880
 4392W        W 8456   9.851   8.206   2.781
 4393W        W 8457   3.325   7.585  10.228
 4394W        W 8458   4.913   6.195  11.551
 4395W        W 8459   7.042   5.400   1.030
 4396W        W 8460   7.906   6.288   0.914
 4397W        W 8461   8.340   5.923  11.362
 4398W        W 8462   6.323   2.714  10.923
 4399W        W 8463   8.340   6.338   2.603
 4400W        W 8464  10.018   6.169  10.978
 4401W        W 8465   2.082   8.507   2.137
 4402W        W 8466   8.950   2.648   1.011
 4403W        W 8467   9.491   5.444   1.676
 4404W        W 8468   4.087   8.887   0.989
 4405W        W 8469   2.581  10.008  10.445
 4406W        W 8470   5.075   9.563   1.279
 4407W        W 8471   7.123   7.478   9.182
 4408W        W 8472  10.136   6.665  10.959
 4409W        W 8473   4.126   3.764  11.793
 4410W        W 8474   9.949   3.015   8.790
 4411W        W 8475   2.907   9.913  11.407
 4412W        W 8476   5.521   0.746   0.734
 4413W        W 8477   0.226   7.111   3.334
 4414W        W 8478   5.601  10.376   9.396
 4415W        W 8479   7.921   3.304   9.692
 4416W        W 8480   7.411   1.405   8.639
 4417W        W 8481   5.437   5.529   1.885
 4418W        W 8482   9.532   4.481   2.591
 4419W        W 8483   9.947   4.078   1.972
 4420W        W 8484   9.295   8.843  10.810
 4421W        W 8485   5.993   3.514   9.358
 4422W        W 8486   2.837   8.333   0.251
 4423W        W 8487   1.478   4.700   0.913
 4424W        W 8488   9.772   8.891  11.015
 4425W        W 8489   9.833   5.197   0.974
 4426W        W 8490   1.460   6.168   9.432
 4427W        W 8491   8.075   6.102   9.487
 4428W        W 8492   5.189   0.279  10.326
 4429W        W 8493   4.984   3.754   0.508
 4430W        W 8494   2.711   1.188  10.326
 4431W        W 8495   8.554   1.696   2.540
 4432W        W 8496   4.573   3.847  11.526
 4433W        W 8497   5.182   9.994   9.585
 4434W        W 8498   1.382   6.675   3.039
 4435W        W 8499   0.405   8.210   2.716
 4436W        W 8500   6.126   4.286   2.619
 4437W        W 8501   8.062   0.204  10.157
 4438W        W 8502   3.537   9.905   3.187
 4439W        W 8503   5.448   8.564  10.368
 4440W        W 8504   9.408   7.291   0.372
 4441W        W 8505   2.370   7.092   2.499
 4442W        W 8506   2.808   1.779   9.482
 4443W        W 8507   2.357   7.767  10.448
 4444W        W 8508   6.116   4.175   0.255
 4445W        W 8509   4.308   8.058   2.863
 4446W        W 8510   2.696   4.604   9.335
 4447W        W 8511  10.377   8.444   1.783
 4448W        W 8512   1.805   0.312   8.895
 4449W        W 8513   2.227   4.137  11.301
 4450W        W 8514   4.781   6.062   0.011
 4451W        W 8515   6.007   0.849   2.569
 4452W        W 8516   4.691   9.012   9.216
 4453W        W 8517   8.520   1.093   1.430
 4454W        W 8518   8.371   2.643   2.531
 4455W        W 8519   4.679  10.340   1.937
 4456W        W 8520   9.058   0.706  10.795
 4457W        W 8521   0.741   8.522   3.410
 4458W        W 8522   6.114   1.682   1.479
 4459W        W 8523   5.244   8.197   2.761
 4460W        W 8524   0.322   1.688   1.776
 4461W        W 8525   7.398   7.170  10.497
 4462W        W 8526   8.302   5.201   3.035
 4463W        W 8527   7.019   5.400   3.791
 4464W        W 8528  10.294   4.202  11.760
 4465W        W 8529   0.320   7.551   1.930
 4466W        W 8530   9.927   5.521   1.405
 4467W        W 8531   5.651   3.509  11.754
 4468W        W 8532   4.068   2.391  11.370
 4469W        W 8533   6.025   4.091   0.769
 4470W        W 8534   8.012   3.565  10.659
 4471W        W 8535   3.147   0.294   2.640
 4472W        W 8536   5.749   9.152  11.774
 4473W        W 8537   2.837   0.745  10.589
 4474W        W 8538   6.687   1.402   0.458
 4475W        W 8539   7.395   5.561   9.977
 4476W        W 8540   4.177   3.445   1.439
 4477W        W 8541   3.587  10.046   0.009
 4478W        W 8542   4.271   9.617   2.742
 4479W        W 8543   5.642   6.582  10.261
 4480W        W 8544   9.383   1.513  10.775
 4481W        W 8545   8.259   3.753  10.261
 4482W        W 8546   0.694   5.507  11.378
 4483W        W 8547   0.435   1.896   0.885
 4484W        W 8548   4.154   7.049   0.711
 4485W        W 8549   4.228   0.733  11.831
 4486W        W 8550   5.271   8.567   9.387
 4487W        W 8551   1.793   2.112   9.836
 4488W        W 8552   3.323   6.138   9.564
 4489W        W 8553   7.047  10.090   0.318
 4490W        W 8554   1.676   7.736   3.706
 4491W        W 8555   8.428   3.300   9.814
 4492W        W 8556   6.565   2.131  11.481
 4493W        W 8557   1.789   6.985  10.275
 4494W        W 8558   0.358   6.026   2.006
 4495W        W 8559   5.964   7.093   9.596
 4496W        W 8560   2.708   5.160   3.349
 4497W        W 8561   1.864   0.351   1.759
 4498W        W 8562   1.700   7.971  11.940
 4499W        W 8563   6.263   8.260  10.293
 4500W        W 8564   7.071   2.215   2.501
 4501W        W 8565   6.161   8.961   9.071
 4502W        W 8566   8.889   6.188  10.392
 4503W        W 8567   6.316   2.781   3.211
 4504W        W 8568   7.091   2.730   1.207
 4505W        W 8569   9.918   6.497  11.427
 4506W        W 8570   9.516   3.788   1.431
 4507W        W 8571   0.871   6.060   2.311
 4508W        W 8572   7.787   8.150   1.039
 4509W        W 8573   4.255   3.287   3.537
 4510W        W 8574   0.546   8.959   0.212
 4511W        W 8575   5.680   0.278   2.343
 4512W        W 8576   2.171   0.353  10.246
 4513W        W 8577   9.865   6.579   9.394
 4514W        W 8578   3.788   2.977   0.470
 4515W        W 8579   8.852   4.606   9.657
 4516W        W 8580   0.975   9.438  11.536
 4517W        W 8581   1.340   1.425   2.752
 4518W        W 8582   1.825   5.732  11.998
 4519W        W 8583   7.908   7.158  11.186
 4520W        W 8584   9.141   0.017   3.119
 4521W        W 8585   1.499   9.508   0.876
 4522W        W 8586   8.569   0.250   2.002
 4523W        W 8587  10.419   4.197   1.736
 4524W        W 8588   7.207   5.109   1.415
 4525W        W 8589   8.430  10.440   2.374
 4526W        W 8590   3.184   3.322  11.550
 4527W        W 8591   4.645   6.859   0.450
 4528W        W 8592   3.395   5.731  10.770
 4529W        W 8593   9.702   5.682   8.923
 4530W        W 8594   7.862   9.094  10.954
 4531W        W 8595   2.933   0.497  11.777
 4532W        W 8596   9.104   3.759   9.924
 4533W        W 8597   5.720   5.274   2.227
 4534W        W 8598   4.249  10.311   2.247
 4535W        W 8599   0.460   8.077   1.891
 4536W        W 8600   0.907   6.619  11.079
 4537W        W 8601   0.992   3.829   8.210
 4538W        W 8602   5.741   6.899   2.806
 4539W        W 8603   8.359   2.134  10.778
 4540W        W 8604   6.755   0.783  10.843
 4541W        W 8605   5.820   1.518  10.320
 4542W        W 8606   8.266   7.272  11.516
 4543W        W 8607   5.069   9.103   2.312
 4544W        W 8608   7.003   5.257   9.860
 4545W        W 8609   9.838   5.947   0.466
 4546W        W 8610   6.967   3.267   9.773
 4547W        W 8611   4.738   3.805   2.496
 4548W        W 8612   8.650   7.159   9.826
 4549W        W 8613   5.528   7.605   3.236
 4550W        W 8614   3.556   7.147  10.903
 4551W        W 8615   3.022   0.673  11.054
 4552W        W 8616   8.055   8.963  11.916
 4553W        W 8617   9.822   5.107  11.914
 4554W        W 8618   8.941   1.824   9.583
 4555W        W 8619   6.140   3.782  11.786
 4556W        W 8620   7.374   0.323  10.351
 4557W        W 8621   1.130   2.215  10.901
 4558W        W 8622   3.304   3.308   1.327
 4559W        W 8623   8.941   7.810   2.841
 4560W        W 8624   4.745   9.417   0.602
 4561W        W 8625   7.059   1.764   1.402
 4562W        W 8626   2.244   8.640  10.112
 4563W        W 8627   4.334   9.719  10.865
 4564W        W 8628   3.122   5.555   1.857
 4565W        W 8629   5.715   3.082   9.296
 4566W        W 8630   7.193   8.092  10.316
 4567W        W 8631   6.724   5.335   1.439
 4568W        W 8632   9.825   0.772  11.696
 4569W        W 8633   3.929   9.798  11.696
 4570W        W 8634   3.689   6.957   1.509
 4571W        W 8635   1.474   0.195   1.489
 4572W        W 8636   6.062   5.796  11.331
 4573W        W 8637   3.828   4.046   2.194
 4574W        W 8638   4.066   4.280   2.609
 4575W        W 8639   3.242   4.763   3.241
 4576W        W 8640   9.167   6.908   2.581
 4577W        W 8641   2.628   8.386   3.491
 4578W        W 8642   3.851   0.864   1.702
 4579W        W 8643   4.847   6.674   9.882
 4580W        W 8644   2.565   0.227  11.455
 4581W        W 8645   3.345   3.133  10.914
 4582W        W 8646   9.470   9.352   3.379
 4583W        W 8647   6.966   2.918  11.360
 4584W        W 8648   1.266   1.565   1.726
 4585W        W 8649   5.074   6.937   1.231
 4586W        W 8650   7.050   7.209   2.300
 4587W        W 8651   8.008   6.988   2.349
 4588W        W 8652   5.511   3.793   2.689
 4589W        W 8653   8.753   9.811   3.467
 4590W        W 8654   3.654   4.713   1.483
 4591W        W 8655   5.972   8.338  11.951
 4592W        W 8656   1.245   8.079   2.535
 4593W        W 8657   7.881   0.382   2.824
 4594W        W 8658   1.890   8.811  10.991
 4595W        W 8659   1.886   9.479  10.051
 4596W        W 8660   4.621   2.841   2.919
 4597W        W 8661   9.912   1.415   1.539
 4598W        W 8662   6.178   0.412   2.382
 4599W        W 8663   6.576   7.053   1.291
 4600W        W 8664   3.825   4.092   0.149
 4601W        W 8665   3.660   0.698   3.287
 4602W        W 8666   7.831   5.290   9.873
 4603W        W 8667   7.093   8.518   9.993
 4604W        W 8668   4.716   9.037  10.220
 4605W        W 8669   0.833   0.935   1.883
 4606W        W 8670   4.253   7.482   0.473
 4607W        W 8671   2.756   1.050   0.669
 4608W        W 8672   2.773   0.410   2.986
 4609W        W 8673   7.656   3.300   0.723
 4610W        W 8674   4.189   5.336  10.056
 4611W        W 8675   0.549   2.772   2.854
 4612W        W 8676   4.242   4.385   9.033
 4613W        W 8677   7.374   3.867   0.096
 4614W        W 8678   1.925   6.468  10.332
 4615W        W 8679   3.701   4.581  11.957
 4616W        W 8680   8.441   9.048   2.813
 4617W        W 8681   6.424   8.103  10.817
 4618W        W 8682  10.434   6.485  11.334
 4619W        W 8683   6.015   5.550   9.029
 4620W        W 8684   0.751   5.906   2.802
 4621W        W 8685   0.055   6.597   1.232
 4622W        W 8686   8.669  10.463  10.867
 4623W        W 8687   0.014   2.650  10.011
 4624W        W 8688   9.835   5.167  11.048
 4625W        W 8689   5.061   2.816  11.417
 4626W        W 8690   0.605   9.002  11.330
 4627W        W 8691   2.755   2.370   8.442
 4628W        W 8692   8.712   1.022   9.367
 4629W        W 8693   3.497   4.169  11.765
 4630W        W 8694   8.805   8.857  10.621
 4631W        W 8695   8.489   5.022   2.267
 4632W        W 8696   1.130   2.931   0.927
 4633W        W 8697   9.381   6.482   9.243
 4634W        W 8698   7.111   8.350   0.809
 4635W        W 8699   9.862   2.324   1.658
 4636W        W 8700   5.626   4.739   2.854
 4637W        W 8701   2.934  10.429  10.163
 4638W        W 8702   4.514   0.561   2.502
 4639W        W 8703   6.767   6.184   9.938
 4640W        W 8704   5.922   8.602   3.419
 4641W        W 8705   3.058   8.058   2.587
 4642W        W 8706   5.116   8.960   8.929
 4643W        W 8707   6.550   3.611  10.003
 4644W        W 8708   2.550   3.307   9.856
 4645W        W 8709   0.964   6.162  10.852
 4646W        W 8710   8.956   7.421   3.193
 4647W        W 8711   6.884   6.501   3.651
 4648W        W 8712  10.313   4.705   9.805
 4649W        W 8713   5.475   0.444   1.852
 4650W        W 8714   5.487   3.622   1.915
 4651W        W 8715   8.518   7.707   1.420
 4652W        W 8716   6.513   4.538   4.137
 4653W        W 8717   1.802   9.807   1.184
 4654W        W 8718   8.627   4.136   9.480
 4655W        W 8719   0.368   2.883  11.949
 4656W        W 8720   5.001   8.589   2.952
 4657W        W 8721   8.322   5.184   3.519
 4658W        W 8722   8.013  10.313   8.823
 4659W        W 8723  10.431   2.487  11.945
 4660W        W 8724   4.298   8.596   2.819
 4661W        W 8725   9.569  10.066  10.903
 4662W        W 8726   3.895   4.640   9.371
 4663W        W 8727   1.180   7.428   9.061
 4664W        W 8728   4.780   2.092  11.766
 4665W        W 8729   8.764   0.130  11.369
 4666W        W 8730   3.922   5.600   8.477
 4667W        W 8731   3.738   2.280   1.512
 4668W        W 8732   2.214   2.364   9.009
 4669W        W 8733   7.388   4.592   0.817
 4670W        W 8734   5.153   0.845   9.432
 4671W        W 8735   7.038   8.476   1.777
 4672W        W 8736   9.351   3.195   3.283
 4673W        W 8737   0.837   0.993   8.913
 4674W        W 8738   1.185   8.001  11.077
 4675W        W 8739   0.007   0.523   2.185
 4676W        W 8740   5.654   7.040  10.954
 4677W        W 8741   6.600  10.159   3.363
 4678W        W 8742   8.511   1.481  10.845
 4679W        W 8743   7.536   4.805  10.733
 4680W        W 8744   4.681   4.691  10.461
 4681W        W 8745   3.762   0.898  11.681
 4682W        W 8746   9.599   3.846  10.309
 4683W        W 8747   8.679   3.208   9.352
 4684W        W 8748   3.323   5.524  11.987
 4685W        W 8749   5.675   4.811   9.861
 4686W        W 8750   0.252   0.824  10.177
 4687W        W 8751   3.228   5.863   8.540
 4688W        W 8752   1.804   7.930  10.412
 4689W        W 8753   6.595  10.231   1.858
 4690W        W 8754   8.085   9.865   1.894
 4691W        W 8755   4.626   7.877  11.182
 4692W        W 8756   2.609   0.898   1.159
 4693W        W 8757   6.213   7.410   0.002
 4694W        W 8758   9.368   2.486   9.491
 4695W        W 8759   1.819   6.776   2.769
 4696W        W 8760   1.659   6.854   9.801
 4697W        W 8761   0.219   2.015   9.519
 4698W        W 8762   8.533   6.053  11.824
 4699W        W 8763   3.175   2.834   8.842
 4700W        W 8764   9.928   0.923   1.735
 4701W        W 8765   5.473   8.993   0.800
 4702W        W 8766   6.116   3.260  11.657
 4703W        W 8767   9.987   1.721  11.917
 4704W        W 8768   3.007   4.105  11.825
 4705W        W 8769   1.755   1.296  10.242
 4706W        W 8770   3.573   0.066  11.247
 4707W        W 8771   0.376   6.934   8.952
 4708W        W 8772   7.137   5.779   1.356
 4709W        W 8773   5.495   2.848   9.713
 4710W        W 8774   8.495   2.188   1.690
 4711W        W 8775   8.461   9.753   0.238
 4712W        W 8776   6.444   9.350   0.357
 4713W        W 8777   6.971   4.663   4.353
 4714W        W 8778   8.552   3.805   9.855
 4715W        W 8779   3.234   2.329   1.442
 4716W        W 8780   1.378   5.207   1.389
 4717W        W 8781   0.222   0.710   3.178
 4718W        W 8782   7.896   4.998  11.050
 4719W        W 8783   0.699   4.973   9.804
 4720W        W 8784  10.279   5.677   9.625
 4721W        W 8785  10.256   3.506   8.503
 4722W        W 8786   9.121   4.741  10.635
 4723W        W 8787   7.617   0.418   0.361
 4724W        W 8788   5.286   4.036   2.285
 4725W        W 8789   9.881   9.909   3.100
 4726W        W 8790   1.956   8.298  11.018
 4727W        W 8791   9.251   4.053  11.800
 4728W        W 8792   1.400   5.553  10.043
 4729W        W 8793   2.175   8.484   9.632
 4730W        W 8794   8.448   6.430  11.290
 4731W        W 8795   8.344   8.325   3.043
 4732W        W 8796   7.689   9.974   1.302
 4733W        W 8797   7.081   3.580  10.176
 4734W        W 8798   9.394   6.006  10.896
 4735W        W 8799   7.779  10.237   1.739
 4736W        W 8800   4.745   5.777   9.570
 4737W        W 8801   6.180   6.247   2.286
 4738W        W 8802   7.533   2.180  10.261
 4739W        W 8803   6.614   0.220   0.698
 4740W        W 8804   6.156   0.924   8.422
 4741W        W 8805   7.379   0.881   0.398
 4742W        W 8806   9.593   3.891   9.791
 4743W        W 8807  10.380   9.218   2.048
 4744W        W 8808   6.131   8.051   1.898
 4745W        W 8809  10.206   1.558   0.335
 4746W        W 8810   7.106   5.084   0.190
 4747W        W 8811   8.582   3.053   2.308
 4748W        W 8812   2.810   5.186   9.043
 4749W        W 8813   8.248   6.198   9.940
 4750W        W 8814   4.223   6.720  10.568
 4751W        W 8815   3.639   3.665   8.923
 4752W        W 8816   0.868   3.584   8.700
 4753W        W 8817   4.316   3.305  10.460
 4754W        W 8818   3.696   6.724  10.055
 4755W        W 8819   0.780   0.734   3.170
 4756W        W 8820   2.784   8.349  10.859
 4757W        W 8821   4.666   4.925   9.338
 4758W        W 8822   5.519   5.861  10.762
 4759W        W 8823   5.312   5.057   1.953
 4760W        W 8824   7.526   0.777   9.553
 4761W        W 8825   5.143   6.210  11.041
 4762W        W 8826   6.508   6.078   3.029
 4763W        W 8827   5.492   1.335   9.462
 4764W        W 8828  10.431   3.512   0.460
 4765W        W 8829   2.479   5.238  11.501
 4766W        W 8830  10.165   3.982   3.658
 4767W        W 8831   9.395   6.624   2.215
 4768W        W 8832   2.667   1.223   9.432
 4769W        W 8833  10.425   9.121  10.887
 4770W        W 8834   0.870   3.112   0.066
 4771W        W 8835   4.633   6.408   3.697
 4772W        W 8836   2.447   5.155   0.001
 4773W        W 8837   7.767   0.650  10.082
 4774W        W 8838   0.869   0.271   3.637
 4775W        W 8839   3.119  10.433   1.427
 4776W        W 8840   8.411   7.297   2.450
 4777W        W 8841   8.460   7.551   2.873
 4778W        W 8842   0.848   7.659   0.338
 4779W        W 8843   0.934   9.511   0.920
 4780W        W 8844   0.922   9.866  11.268
 4781W        W 8845   8.732   9.780  11.784
 4782W        W 8846   1.058   6.324   2.779
 4783W        W 8847  10.445   9.973   0.909
 4784W        W 8848   4.578   2.985  11.427
 4785W        W 8849   1.881   0.872   2.862
 4786W        W 8850   1.707   2.548   2.368
 4787W        W 8851   5.986   0.530   0.132
 4788W        W 8852   8.080   4.861   1.144
 4789W        W 8853   2.676   2.389   2.386
 4790W        W 8854   0.279   3.646  10.515
 4791W        W 8855   3.630   6.219  10.048
 4792W        W 8856   6.570   5.235   0.885
 4793W        W 8857   6.594   5.906   9.555
 4794W        W 8858   6.696   8.688   0.848
 4795W        W 8859   2.379   0.745   2.919
 4796W        W 8860   6.765   9.117   0.028
 4797W        W 8861   1.779   3.076   8.892
 4798W        W 8862   4.988   7.329   9.957
 4799W        W 8863   1.914  10.021   0.277
 4800W        W 8864   8.858   1.835   8.308
 4801W        W 8865   6.572   0.682   2.207
 4802W        W 8866   9.587   6.610   3.145
 4803W        W 8867   2.268   3.390   8.874
 4804W        W 8868   1.769   7.455   0.171
 4805W        W 8869   1.312   6.111  10.447
 4806W        W 8870   3.841   4.638   8.829
 4807W        W 8871   3.743   8.582   9.092
 4808W        W 8872   4.076   2.388   8.929
 4809W        W 8873   1.192   7.993   9.619
 4810W        W 8874   4.268   4.846   8.112
 4811W        W 8875   3.941   2.742  10.869
 4812W        W 8876   4.030  10.499   1.833
 4813W        W 8877   6.573   9.973   1.272
 4814W        W 8878   7.004   6.189   2.200
 4815W        W 8879   4.297  10.055   9.506
 4816W        W 8880   3.658   0.814   0.687
 4817W        W 8881  10.413   3.567   0.980
 4818W        W 8882   1.235   1.075  11.559
 4819W        W 8883   9.587   7.869   0.793
 4820W        W 8884   5.558   3.446   8.957
 4821W        W 8885   7.004   2.423  11.553
 4822W        W 8886   0.994   4.199  11.332
 4823W        W 8887   9.461   0.017  10.710
 4824W        W 8888   1.241  10.224   9.910
 4825W        W 8889   4.336   0.495  11.340
 4826W        W 8890   2.716   9.975   9.946
 4827W        W 8891   4.137   2.955   3.153
 4828W        W 8892  10.446   9.437  10.509
 4829W        W 8893   3.295   8.420   1.576
 4830W        W 8894   3.380   3.218   2.640
 4831W        W 8895   3.245   5.129  10.250
 4832W        W 8896   5.242   0.012   2.294
 4833W        W 8897   9.492   1.877   1.487
 4834W        W 8898   4.154   8.936   3.296
 4835W        W 8899   2.348   5.288   8.805
 4836W        W 8900   7.930   8.459   0.125
 4837W        W 8901   0.499   4.335   9.326
 4838W        W 8902   4.597   6.963   3.931
 4839W        W 8903   9.871   4.672   0.759
 4840W        W 8904   8.151   9.040   1.831
 4841W        W 8905   0.681   9.878  10.822
 4842W        W 8906   5.184   0.423  11.664
 4843W        W 8907   4.940   7.042   9.528
 4844W        W 8908   9.748   4.161  11.802
 4845W        W 8909   1.342   5.812   8.507
 4846W        W 8910   5.712   9.888  10.336
 4847W        W 8911   2.363   4.574   2.267
 4848W        W 8912   4.145   6.910  10.075
 4849W        W 8913   6.934   4.418   1.048
 4850W        W 8914   5.739  10.067   0.019
 4851W        W 8915   9.415   3.042   8.629
 4852W        W 8916   8.115   4.339  11.310
 4853W        W 8917   6.618   9.932  10.385
 4854W        W 8918   5.489   3.606   3.954
 4855W        W 8919   2.948   6.427  11.872
 4856W        W 8920   6.843   7.011   3.621
 4857W        W 8921   2.349   0.005   2.316
 4858W        W 8922   9.729   2.185  10.250
 4859W        W 8923   6.975   4.609   0.544
 4860W        W 8924   3.696   9.490   2.172
 4861W        W 8925   0.260   4.186   3.021
 4862W        W 8926   3.082   0.454   8.926
 4863W        W 8927   0.702   6.673   1.889
 4864W        W 8928   6.642   2.586  11.905
 4865W        W 8929   6.315   9.124   3.722
 4866W        W 8930   4.707   1.828  10.063
 4867W        W 8931   0.669   3.685   2.505
 4868W        W 8932   4.497   0.362   8.937
 4869W        W 8933   0.877   6.352   0.881
 4870W        W 8934   0.338   2.320  11.000
 4871W        W 8935  10.367   0.860   0.980
 4872W        W 8936   3.606   3.672  11.932
 4873W        W 8937   7.566   8.773  11.949
 4874W        W 8938   8.530   1.370  10.092
 4875W        W 8939   7.118   7.624  10.658
 4876W        W 8940   0.348  10.033   1.218
 4877W        W 8941   5.133   6.908   0.280
 4878W        W 8942   4.919   0.040   1.406
 4879W        W 8943   4.344   7.009   1.840
 4880W        W 8944   6.458   0.297   9.844
 4881W        W 8945   0.770  10.385   0.357
 4882W        W 8946   8.390   3.144  10.330
 4883W        W 8947   2.987   5.307   0.892
 4884W        W 8948   5.956   3.227   2.691
 4885W        W 8949   2.430   6.484   9.442
 4886W        W 8950   4.937   3.247   3.476
 4887W        W 8951   6.943   0.797  10.375
 4888W        W 8952   6.350   4.597   2.089
 4889W        W 8953   1.899   8.441  10.513
 4890W        W 8954   2.638   0.723  11.391
 4891W        W 8955   7.841   1.243   8.365
 4892W        W 8956   9.462   6.722   1.344
 4893W        W 8957   0.983   0.247   1.378
 4894W        W 8958   7.189   7.697   2.235
 4895W        W 8959   5.140   7.581  10.392
 4896W        W 8960   9.419   9.526   1.531
 4897W        W 8961   0.004   8.492   1.295
 4898W        W 8962   7.393   6.677   2.909
 4899W        W 8963   8.640   2.238   8.923
 4900W        W 8964   8.193   9.981  11.885
 4901W        W 8965   2.327   2.640   8.578
 4902W        W 8966   6.633   4.919   1.780
 4903W        W 8967   0.177   8.490   0.809
 4904W        W 8968   9.288   2.751   2.715
 4905W        W 8969   4.415   6.178  11.442
 4906W        W 8970   3.120  10.317   0.487
 4907W        W 8971   8.942   1.180  10.758
 4908W        W 8972   2.812   1.252   8.636
 4909W        W 8973   8.849   2.612  10.465
 4910W        W 8974   7.800   4.980   9.178
 4911W        W 8975   0.863   4.465   9.667
 4912W        W 8976   6.412   2.853  10.431
 4913W        W 8977   0.233   8.983   0.655
 4914W        W 8978   6.441   1.137   2.412
 4915W        W 8979   5.929   3.650   4.239
 4916W        W 8980   6.472   7.369   2.627
 4917W        W 8981   7.571   3.767   2.947
 4918W        W 8982   9.656   3.228   1.784
 4919W        W 8983   9.377   1.799  11.237
 4920W        W 8984   9.459   7.780   0.291
 4921W        W 8985   1.468   8.786   0.129
 4922W        W 8986   7.025   5.473   9.182
 4923W        W 8987   0.033   4.169  10.514
 4924W        W 8988   7.703   8.085  10.388
 4925W        W 8989   0.763   7.061   3.335
 4926W        W 8990   0.625   9.836   2.142
 4927W        W 8991   2.199   1.294  11.008
 4928W        W 8992   3.293   6.013  11.872
 4929W        W 8993   0.021   3.327  11.101
 4930W        W 8994   8.557   3.312   1.195
 4931W        W 8995   4.483   6.462   1.726
 4932W        W 8996   5.984   2.607  10.442
 4933W        W 8997   1.696   8.007   2.791
 4934W        W 8998   6.947   9.525   9.985
 4935W        W 8999   7.204   6.570  11.218
 4936W        W 9000   2.486   7.539   2.745
 4937W        W 9001   7.283   1.685   0.955
 4938W        W 9002   6.262   4.495   3.397
 4939W        W 9003   6.029   0.427  10.110
 4940W        W 9004   0.139   4.700   1.980
 4941W        W 9005   0.545   4.082   3.444
 4942W        W 9006   9.951   3.518   0.263
 4943W        W 9007   7.970   7.197   1.872
 4944W        W 9008   4.718   4.123   3.726
 4945W        W 9009  10.015   9.066   2.373
 4946W        W 9010   8.576   4.970   8.412
 4947W        W 9011   7.475   4.132  10.445
 4948W        W 9012   2.233   1.144  11.869
 4949W        W 9013   0.774   3.690   2.014
 4950W        W 9014   9.089   1.668   1.208
 4951W        W 9015   4.429   4.206  11.889
 4952W        W 9016   5.577   1.396   1.547
 4953W        W 9017   7.483   0.747   2.640
 4954W        W 9018   6.659   4.702   3.665
 4955W        W 9019   1.000   8.998   1.662
 4956W        W 9020   1.977   6.269   9.466
 4957W        W 9021   3.719   2.658   3.274
 4958W        W 9022   2.339   4.254  10.034
 4959W        W 9023   7.613   7.965   3.231
 4960W        W 9024   8.827   8.931   3.113
 4961W        W 9025   0.176   4.763   0.295
 4962W        W 9026   2.770   4.821  11.650
 4963W        W 9027   6.234   8.364   9.763
 4964W        W 9028   1.031   3.548   2.859
 4965W        W 9029   6.854   8.980   2.213
 4966W        W 9030   2.648   8.508   1.662
 4967W        W 9031   6.952   3.821  11.315
 4968W        W 9032  10.331   8.916   3.360
 4969W        W 9033   1.974   2.550  11.839
 4970W        W 9034   5.609   0.886   9.196
 4971W        W 9035   7.537   8.728   2.811
 4972W        W 9036   0.876   4.332   3.151
 4973W        W 9037   5.429   3.299   9.925
 4974W        W 9038   3.081   4.103   2.838
 4975W        W 9039   7.839   4.525  11.694
 4976W        W 9040   1.399   2.997   2.142
 4977W        W 9041   7.594   9.784   1.976
 4978W        W 9042   0.796   3.164   0.573
 4979W        W 9043   3.611   6.433   2.716
 4980W        W 9044   2.767   9.080   0.690
 4981W        W 9045   9.142   6.540   3.431
 4982W        W 9046   5.473   0.610  10.696
 4983W        W 9047   0.848   9.855   2.592
 4984W        W 9048   7.503  10.105   8.735
 4985W        W 9049   4.209   7.768  11.629
 4986W        W 9050   1.979   1.022   2.372
 4987W        W 9051   2.163  10.089   1.444
 4988W        W 9052   3.627   1.949   2.602
 4989W        W 9053   7.438   4.277  10.924
 4990W        W 9054   7.243   1.800   8.948
 4991W        W 9055   8.578   6.834   1.177
 4992W        W 9056   7.936   2.702   2.224
 4993W        W 9057   9.437   5.576   9.774
 4994W        W 9058   4.626   7.865   1.903
 4995W        W 9059   4.821   0.332  11.302
 4996W        W 9060   6.402   0.858  10.477
 4997W        W 9061   1.633   2.828  10.448
 4998W        W 9062   0.697   1.644   3.350
 4999W        W 9063   4.539   7.122   9.827
 5000W        W 9064   1.813   2.607   8.613
 5001W        W 9065   9.803   5.922  10.584
 5002W        W 9066   4.853   7.556   9.513
 5003W        W 9067   3.416   6.578   9.287
 5004W        W 9068   0.483   2.556   0.309
 5005W        W 9069   1.841   4.226   8.769
 5006W        W 9070   2.173   1.711   8.774
 5007W        W 9071   2.718   3.797   9.786
 5008W        W 9072   4.824   1.172  11.378
 5009W        W 9073   1.646   5.185   0.704
 5010W        W 9074   9.917   6.114   9.131
 5011W        W 9075   9.019   4.224   2.035
 5012W        W 9076   9.193  10.082   9.383
 5013W        W 9077   6.506   9.475  10.232
 5014W        W 9078   8.313   4.505   8.525
 5015W        W 9079   8.819   2.079  11.625
 5016W        W 9080   8.122   9.253  10.123
 5017W        W 9081   9.973   2.103   3.270
 5018W        W 9082  10.209   5.656   9.100
 5019W        W 9083   7.102   6.778  10.346
 5020W        W 9084   9.961  10.275  10.510
 5021W        W 9085   2.249   0.758   8.550
 5022W        W 9086   4.748   6.002   0.522
 5023W        W 9087   8.110   6.727  10.541
 5024W        W 9088   1.192   1.934   3.208
 5025W        W 9089   8.504   5.490   1.691
 5026W        W 9090   5.523   3.341   2.948
 5027W        W 9091  10.288   7.492   2.835
 5028W        W 9092   8.846   4.207   2.906
 5029W        W 9093   0.186   5.660   9.281
 5030W        W 9094   7.611   4.609  10.277
 5031W        W 9095   6.249   0.208   1.517
 5032W        W 9096   4.300  10.042   1.763
 5033W        W 9097   7.955   9.583   0.126
 5034W        W 9098   6.468   4.551   9.925
 5035W        W 9099   9.298   8.345   9.679
 5036W        W 9100   4.163   2.230  10.878
 5037W        W 9101   0.335   4.959   1.188
 5038W        W 9102   3.878   7.201   1.922
 5039W        W 9103   1.616  10.365   1.834
 5040W        W 9104   4.700   7.456   2.796
 5041W        W 9105   8.903   9.829   8.836
 5042W        W 9106   2.099   7.195   2.922
 5043W        W 9107   1.809   1.262   3.201
 5044W        W 9108   8.066   2.137   0.414
 5045W        W 9109   7.022   6.263  10.350
 5046W        W 9110   0.714   4.341  11.749
 5047W        W 9111   5.937   7.842   0.003
 5048W        W 9112  10.342   0.926  10.507
 5049W        W 9113   9.968   6.025   1.412
 5050W        W 9114   7.522   3.616  10.471
 5051W        W 9115   1.435   0.063   0.980
 5052W        W 9116   5.943   6.598   0.272
 5053W        W 9117   2.677   7.456   0.174
 5054W        W 9118   0.218   4.045  10.069
 5055W        W 9119   5.942  10.041  11.550
 5056W        W 9120   9.335   7.875   9.432
 5057W        W 9121   4.402   0.443   8.427
 5058W        W 9122   7.939   7.679  11.335
 5059W        W 9123   6.139   5.926  11.819
 5060W        W 9124   1.847   8.969  11.706
 5061W        W 9125   6.438   6.933  11.515
 5062W        W 9126   4.740   3.383  11.697
 5063W        W 9127   8.487   2.200   2.277
 5064W        W 9128   6.904   5.145  11.243
 5065W        W 9129   5.575   7.880  11.333
 5066W        W 9130   9.387   3.720   1.909
 5067W        W 9131   2.945   0.628   2.076
 5068W        W 9132   5.290   0.456  11.156
 5069W        W 9133   2.870   8.574   0.724
 5070W        W 9134   4.066   1.545  10.583
 5071W        W 9135   1.832   4.921  11.600
 5072W        W 9136   2.819   0.140   2.237
 5073W        W 9137   4.150   0.786   0.894
 5074W        W 9138   6.149   6.752   2.343
 5075W        W 9139   3.687   6.118   0.235
 5076W        W 9140   8.804   5.976  10.855
 5077W        W 9141   7.903   9.977   3.326
 5078W        W 9142   4.133   7.498   3.535
 5079W        W 9143   2.581   7.129   3.064
 5080W        W 9144   2.780   1.243   1.492
 5081W        W 9145   1.966   7.521   0.818
 5082W        W 9146   1.248   5.762   2.825
 5083W        W 9147   8.492   7.439  11.104
 5084W        W 9148   3.953   6.777   2.878
 5085W        W 9149   6.996   7.628   0.072
 5086W        W 9150   7.940   0.083   2.088
 5087W        W 9151   0.289   2.327   2.434
 5088W        W 9152   7.983   0.881   2.799
 5089W        W 9153   5.792   3.401   8.475
 5090W        W 9154   5.254   4.638   3.203
 5091W        W 9155   6.514   1.976   2.784
 5092W        W 9156   6.643   0.672  11.770
 5093W        W 9157   1.911   9.914  11.324
 5094W        W 9158   4.710   0.904   1.679
 5095W        W 9159   9.882   8.368   1.905
 5096W        W 9160   7.551   5.714   2.590
 5097W        W 9161   0.295  10.409   3.473
 5098W        W 9162   8.149   1.815   2.211
 5099W        W 9163   9.000   1.166   1.244
 5100W        W 9164   3.863   6.440   4.096
 5101W        W 9165   6.891   3.193   8.792
 5102W        W 9166   8.712   0.371   2.515
 5103W        W 9167   1.149   6.871   1.794
 5104W        W 9168   7.937   0.939  10.475
 5105W        W 9169   9.053   9.481  11.456
 5106W        W 9170   5.061   1.259   0.905
 5107W        W 9171   9.927   0.449  11.279
 5108W        W 9172   5.941   1.060  10.496
 5109W        W 9173   9.978   6.541   1.343
 5110W        W 9174   5.579  10.208   1.419
 5111W        W 9175   7.455   2.900   0.453
 5112W        W 9176   8.608   1.720   8.776
 5113W        W 9177   6.087   9.931   2.193
 5114W        W 9178   2.286   4.663   0.254
 5115W        W 9179   1.697   8.766   0.600
 5116W        W 9180   0.363   1.208   9.057
 5117W        W 9181  10.296   5.277  11.875
 5118W        W 9182   4.044   6.658  11.934
 5119W        W 9183   8.236   1.000   9.530
 5120W        W 9184   4.324   1.766  10.952
 5121W        W 9185   5.732   5.282   1.129
 5122W        W 9186   1.681   3.141  10.055
 5123W        W 9187  10.107   7.887   3.109
 5124W        W 9188   5.569   8.882  11.210
 5125W        W 9189   4.724   0.286  10.111
 5126W        W 9190   3.632   2.466   9.580
 5127W        W 9191   3.634   2.231  11.575
 5128W        W 9192   0.502   6.350  10.770
 5129W        W 9193   8.998   0.363   1.702
 5130W        W 9194   7.130   6.684   0.217
 5131W        W 9195   7.555   9.482   1.285
 5132W        W 9196   1.626   2.522   9.592
 5133W        W 9197   1.390   6.099   8.932
 5134W        W 9198   2.475   4.150   0.370
 5135W        W 9199   0.885   8.985   2.192
 5136W        W 9200   2.280   0.573   1.429
 5137W        W 9201   6.430   9.344  11.256
 5138W        W 9202   1.551   8.575   3.621
 5139W        W 9203  10.189   6.997   1.871
 5140W        W 9204  10.356   9.308   9.503
 5141W        W 9205   0.736   9.416  11.052
 5142W        W 9206   2.496   5.121   0.920
 5143W        W 9207   0.813   2.382  11.251
 5144W        W 9208   4.173   1.228   1.180
 5145W        W 9209   6.011   5.724   0.394
 5146W        W 9210   2.248   4.241  11.861
 5147W        W 9211   9.078   8.800   0.064
 5148W        W 9212   9.461  10.016   0.227
 5149W        W 9213   4.782   6.547  11.222
 5150W        W 9214   9.401   2.222   1.890
 5151W        W 9215   1.732   7.162   9.393
 5152W        W 9216   3.885   5.484  10.804
 5153W        W 9217   4.625   3.761   0.042
 5154W        W 9218   4.360   4.279  10.423
 5155W        W 9219   2.842   0.905   9.042
 5156W        W 9220   5.307   6.247  11.884
 5157W        W 9221   4.199   0.307   1.225
 5158W        W 9222   3.183   2.383   0.562
 5159W        W 9223   8.920   1.648  10.576
 5160W        W 9224  10.347   3.708  10.234
 5161W        W 9225   6.289   9.026  10.370
 5162W        W 9226   9.593   3.300   9.054
 5163W        W 9227   1.732   9.042  10.285
 5164W        W 9228   6.108   3.636  11.291
 5165W        W 9229   0.895   1.181   3.375
 5166W        W 9230   3.541  10.482   1.721
 5167W        W 9231   4.987   9.437   8.758
 5168W        W 9232   0.356   9.103  11.768
 5169W        W 9233   2.246   8.720   8.821
 5170W        W 9234   0.359   1.306   1.244
 5171W        W 9235   6.451   3.828   1.508
 5172W        W 9236   2.822   5.951   2.602
 5173W        W 9237   0.195   5.455   2.877
 5174W        W 9238   0.897   4.435   2.647
 5175W        W 9239   3.525   2.165  10.002
 5176W        W 9240   4.640   6.069   9.120
 5177W        W 9241   7.014   6.379   0.890
 5178W        W 9242   8.116   8.683   2.193
 5179W        W 9243   5.175   7.216  10.914
 5180W        W 9244   8.956   1.560  11.088
 5181W        W 9245   9.837   4.317   8.979
 5182W        W 9246   0.381   1.430   2.195
 5183W        W 9247   1.299   7.641   2.811
 5184W        W 9248   0.477   6.000   0.162
 5185W        W 9249   6.243   6.511  10.598
 5186W        W 9250   8.289   3.653   1.837
 5187W        W 9251   9.010   6.075   9.453
 5188W        W 9252   0.632   5.378  10.521
 5189W        W 9253   2.202   0.240   8.561
 5190W        W 9254   1.641   8.682   2.321
 5191W        W 9255   5.633   8.507   0.710
 5192W        W 9256   5.213   6.020   0.315
 5193W        W 9257   4.537   1.917   3.204
 5194W        W 9258   4.093   3.764   9.862
 5195W        W 9259   2.912   6.044  11.519
 5196W        W 9260   0.877   1.386  11.742
 5197W        W 9261   6.283   1.679   0.964
 5198W        W 9262   8.215   0.397   2.446
 5199W        W 9263   9.496   7.077   2.994
 5200W        W 9264   3.145   8.054  10.576
 5201W        W 9265  10.166   2.181   9.936
 5202W        W 9266   7.716   8.983   0.390
 5203W        W 9267   5.829   6.523   1.390
 5204W        W 9268   4.569  10.055   1.305
 5205W        W 9269   7.127   8.572  11.038
 5206W        W 9270   1.457   6.113  11.799
 5207W        W 9271   8.679   5.575  11.195
 5208W        W 9272   2.153   7.871   9.182
 5209W        W 9273   4.213   4.016   3.563
 5210W        W 9274   1.697   9.998   3.164
 5211W        W 9275   7.346   4.115   8.608
 5212W        W 9276   8.052   9.463   9.155
 5213W        W 9277   1.942   5.031   0.116
 5214W        W 9278   4.285   8.370   2.255
 5215W        W 9279   0.420   4.165   2.533
 5216W        W 9280   5.384   6.367   1.701
 5217W        W 9281   7.344   9.010   1.311
 5218W        W 9282   7.716   3.755   1.028
 5219W        W 9283   1.329   4.752   2.748
 5220W        W 9284   4.230   6.199   9.416
 5221W        W 9285   6.092   3.039   1.206
 5222W        W 9286   6.156   9.987  10.578
 5223W        W 9287   7.667   1.840   9.263
 5224W        W 9288   8.096   7.580  11.869
 5225W        W 9289  10.239   1.886   9.528
 5226W        W 9290   5.074   5.044   2.400
 5227W        W 9291   5.796   8.180  10.498
 5228W        W 9292   9.208   5.524   8.786
 5229W        W 9293   1.722  10.289   1.299
 5230W        W 9294   2.663   2.239   9.286
 5231W        W 9295   7.729   6.030   0.483
 5232W        W 9296   4.352   8.582   1.300
 5233W        W 9297   6.879   3.953   1.235
 5234W        W 9298   9.427   5.634   3.178
 5235W        W 9299   5.093   8.606   0.112
 5236W        W 9300   4.821   2.285  10.247
 5237W        W 9301   9.384   1.953   2.922
 5238W        W 9302   2.427   2.781   2.166
 5239W        W 9303   8.748   1.190   2.500
 5240W        W 9304   1.515   9.500   3.062
 5241W        W 9305   7.221   0.569  10.848
 5242W        W 9306   0.815   4.190   2.203
 5243W        W 9307  10.215   4.500   2.153
 5244W        W 9308   5.419   6.098   3.359
 5245W        W 9309   8.632   0.487   0.666
 5246W        W 9310   4.509   4.042   9.325
 5247W        W 9311   6.593   7.429   0.348
 5248W        W 9312   1.480  10.203   0.071
 5249W        W 9313   0.810   2.189   8.486
 5250W        W 9314   2.941   8.112   1.844
 5251W        W 9315   8.479   6.475  10.318
 5252W        W 9316   2.106   4.213   1.863
 5253W        W 9317   5.075  10.080   8.436
 5254W        W 9318   2.043   1.835   1.098
 5255W        W 9319   0.371   3.427   9.481
 5256W        W 9320   9.463   3.302   0.889
 5257W        W 9321   4.958   7.801   1.112
 5258W        W 9322   6.531   3.759   3.487
 5259W        W 9323   9.920   3.062   9.840
 5260W        W 9324   0.483   5.058   1.684
 5261W        W 9325   2.171   2.170   8.514
 5262W        W 9326   9.085   8.671   2.287
 5263W        W 9327   9.494   0.016   9.465
 5264W        W 9328   6.443   8.212  11.841
 5265W        W 9329  10.434   9.759   9.831
 5266W        W 9330   9.692   2.167   9.742
 5267W        W 9331   8.927   0.666   1.273
 5268W        W 9332   9.418   7.411   9.610
 5269W        W 9333   4.864   1.355   0.452
 5270W        W 9334   2.006   6.154   2.723
 5271W        W 9335   6.105   2.235   2.622
 5272W        W 9336   9.758   9.490   0.412
 5273W        W 9337   9.926   1.170   3.009
 5274W        W 9338   3.399   2.806   1.422
 5275W        W 9339   1.775   5.156   2.194
 5276W        W 9340   4.591   3.666   3.499
 5277W        W 9341   4.613   0.945   0.666
 5278W        W 9342   7.600   8.850   3.307
 5279W        W 9343   1.679   5.736  11.504
 5280W        W 9344   4.843   4.381   9.589
 5281W        W 9345   5.543   7.432   0.755
 5282W        W 9346   7.810   8.018  10.938
 5283W        W 9347   3.208   5.531   8.941
 5284W        W 9348   3.922   6.151  11.352
 5285W        W 9349   9.270  10.434   1.773
 5286W        W 9350   7.007   0.787   2.450
 5287W        W 9351   5.229   7.017   2.672
 5288W        W 9352   0.479   6.855   1.445
 5289W        W 9353   2.949   3.228   3.485
 5290W        W 9354   0.857   2.360   2.681
 5291W        W 9355  10.003   4.115  11.357
 5292W        W 9356   0.061   6.064   8.420
 5293W        W 9357   5.056   7.080   3.516
 5294W        W 9358   9.721   2.891   2.959
 5295W        W 9359   7.406  10.007  11.484
 5296W        W 9360  10.426   3.095   0.753
 5297W        W 9361   9.417   9.497   1.009
 5298W        W 9362   4.624   8.120   0.904
 5299W        W 9363   8.869   9.947   0.494
 5300W        W 9364   4.272   0.410   9.910
 5301W        W 9365   8.460   5.398   9.512
 5302W        W 9366  10.405   2.129   9.090
 5303W        W 9367   2.568   9.670   2.277
 5304W        W 9368   5.272   7.404   1.192
 5305W        W 9369   1.737   6.169   0.758
 5306W        W 9370   9.513   0.499  10.968
 5307W        W 9371  10.042   8.860   1.872
 5308W        W 9372   9.714   0.813   9.446
 5309W        W 9373   9.298   5.958   2.815
 5310W        W 9374   5.217   8.298   1.934
 5311W        W 9375   2.149   0.428   9.361
 5312W        W 9376   4.010  10.242   1.379
 5313W        W 9377   0.325   0.290  10.254
 5314W        W 9378   4.055   5.006   1.289
 5315W        W 9379   3.186   0.865   0.444
 5316W        W 9380  10.046   2.390   8.803
 5317W        W 9381  10.301   5.232   3.363
 5318W        W 9382   9.068   3.225   0.409
 5319W        W 9383   6.973  10.438  10.960
 5320W        W 9384   4.064   4.455   1.338
 5321W        W 9385   6.038   9.024  11.353
 5322W        W 9386   1.970   4.242  10.407
 5323W        W 9387   7.570   1.447  11.636
 5324W        W 9388   2.896   9.832   0.474
 5325W        W 9389   7.649   5.239   2.709
 5326W        W 9390   0.959   8.464   8.826
 5327W        W 9391  10.299   4.531  11.361
 5328W        W 9392   0.756   4.504   1.346
 5329W        W 9393   3.047   0.990   9.697
 5330W        W 9394   1.189   8.904   8.988
 5331W        W 9395   7.485   3.810   2.424
 5332W        W 9396   5.228   5.846  11.361
 5333W        W 9397   4.357   7.090   2.862
 5334W        W 9398   7.487   3.722   3.440
 5335W        W 9399   0.224   3.123   3.172
 5336W        W 9400   7.485   7.000   1.967
 5337W        W 9401   2.708   6.503   3.217
 5338W        W 9402   5.076   2.601   2.855
 5339W        W 9403   2.367   6.872   0.613
 5340W        W 9404   9.030   6.913   3.085
 5341W        W 9405   8.356   0.888   0.497
 5342W        W 9406   5.357   6.517   1.201
 5343W        W 9407   2.268   7.550   2.224
 5344W        W 9408   5.036   9.497  11.242
 5345W        W 9409   9.798   0.738   3.213
 5346W        W 9410   9.365   2.884   1.185
 5347W        W 9411   0.801   7.439   9.962
 5348W        W 9412   5.179   4.731   8.732
 5349W        W 9413   6.435   1.399   8.977
 5350W        W 9414   1.509   2.769   1.255
 5351W        W 9415   9.393   8.544  10.362
 5352W        W 9416   0.648   6.464   0.018
 5353W        W 9417   1.352   8.445   9.181
 5354W        W 9418   7.560   7.063   1.170
 5355W        W 9419   4.241   6.774   4.255
 5356W        W 9420   0.487   0.352   1.446
 5357W        W 9421   8.171   8.014  10.562
 5358W        W 9422   4.143   6.149  11.900
 5359W        W 9423   7.959   5.875   9.070
 5360W        W 9424   9.952   7.859   1.792
 5361W        W 9425   5.595   8.950  10.678
 5362W        W 9426   7.827   1.383   2.004
 5363W        W 9427   0.114   0.231   2.959
 5364W        W 9428   1.263   3.666   1.538
 5365W        W 9429   8.403   7.006   0.722
 5366W        W 9430   1.265   7.040   9.477
 5367W        W 9431   4.119   5.355   8.899
 5368W        W 9432   6.134   3.537   2.250
 5369W        W 9433   9.824   2.734   1.972
 5370W        W 9434   6.543   6.171   0.838
 5371W        W 9435   9.404   4.735   9.256
 5372W        W 9436   1.555   1.310   0.551
 5373W        W 9437   9.470   5.634  11.275
 5374W        W 9438   0.766   2.989  10.542
 5375W        W 9439   2.436   5.604   3.232
 5376W        W 9440   0.636   9.391   2.403
 5377W        W 9441   2.419   0.374   9.793
 5378W        W 9442   9.965   1.875   1.280
 5379W        W 9443   2.248   7.300  11.902
 5380W        W 9444   6.945   3.779  11.839
 5381W        W 9445   4.606   8.328   3.187
 5382W        W 9446   5.610   9.836  10.864
 5383W        W 9447   8.339   6.592   9.004
 5384W        W 9448   8.820   9.877  10.228
 5385W        W 9449   4.538   9.069   1.153
 5386W        W 9450   3.196   9.185   1.022
 5387W        W 9451   3.724   8.081   9.009
 5388W        W 9452   5.978   3.591   3.558
 5389W        W 9453   8.363   0.057   0.851
 5390W        W 9454   2.011   9.407   0.358
 5391W        W 9455   4.730   1.496  11.009
 5392W        W 9456   2.325   9.178   2.248
 5393W        W 9457   6.602   4.820  10.910
 5394W        W 9458   0.232   7.409  11.054
 5395W        W 9459   9.246   1.894   0.491
 5396W        W 9460   4.177   0.458   1.749
 5397W        W 9461   2.283   4.387   8.561
 5398W        W 9462   4.123   3.569   2.305
 5399W        W 9463   7.393   6.477   8.473
 5400W        W 9464   2.920   0.363   9.837
 5401W        W 9465   4.765   7.055   8.936
 5402W        W 9466   0.785   3.126   9.478
 5403W        W 9467   0.035   1.167   0.344
 5404W        W 9468   7.494   5.679   9.149
 5405W        W 9469   1.282   1.904   0.872
 5406W        W 9470   5.149   8.965  10.464
 5407W        W 9471  10.404   0.054  10.918
 5408W        W 9472   3.161   7.702   2.239
 5409W        W 9473   2.845   6.133   9.334
 5410W        W 9474   7.078   6.951  10.864
 5411W        W 9475   0.356   5.022  10.764
 5412W        W 9476   3.755   1.274   0.865
 5413W        W 9477   9.088   0.261   0.815
 5414W        W 9478   7.940   3.355  10.200
 5415W        W 9479   8.162   2.735   9.026
 5416W        W 9480   9.886   9.775  10.621
 5417W        W 9481   4.374   8.711   8.406
 5418W        W 9482   6.284  10.311   9.824
 5419W        W 9483  10.323   4.753   9.284
 5420W        W 9484   3.193   6.261   0.290
 5421W        W 9485   5.015   3.843   1.889
 5422W        W 9486  10.214   5.745  11.723
 5423W        W 9487   3.305   5.261   2.265
 5424W        W 9488   1.235   6.565   9.690
 5425W        W 9489   1.691   7.841  10.905
 5426W        W 9490   7.261   7.199  10.000
 5427W        W 9491   5.756   1.777  10.755
 5428W        W 9492   3.048   3.259   9.982
 5429W        W 9493   7.303   6.089   9.942
 5430W        W 9494   6.430   1.207   0.850
 5431W        W 9495   7.558   0.213  11.874
 5432W        W 9496   1.959   9.360   2.811
 5433W        W 9497   8.757   7.024   3.499
 5434W        W 9498   0.450   6.859   2.970
 5435W        W 9499   6.179   0.146   9.420
 5436W        W 9500   1.915   7.591   9.547
 5437W        W 9501   7.156   4.541  10.511
 5438W        W 9502   5.237   2.658   2.368
 5439W        W 9503   5.700   3.895   9.130
 5440W        W 9504   4.318  10.012   8.984
 5441W        W 9505   3.401   7.421   1.843
 5442W        W 9506   5.668   0.288  11.448
 5443W        W 9507   1.250   7.086  10.035
 5444W        W 9508   7.465   8.271  11.912
 5445W        W 9509   2.907   1.019   2.474
 5446W        W 9510   0.071   7.532   0.195
 5447W        W 9511   5.041   7.574   3.471
 5448W        W 9512   1.259   3.699   9.579
 5449W        W 9513   4.711   4.686   2.425
 5450W        W 9514   4.207   9.366   0.874
 5451W        W 9515   3.232   1.443   9.583
 5452W        W 9516   3.175   7.101   3.581
 5453W        W 9517   1.159   5.386   1.874
 5454W        W 9518  10.024   7.044   9.578
 5455W        W 9519   9.792   7.792   8.440
 5456W        W 9520   7.542   8.170   9.909
 5457W        W 9521  10.059   6.374   3.213
 5458W        W 9522   6.532   0.246  11.434
 5459W        W 9523   1.983   4.771   8.977
 5460W        W 9524   5.642   0.906   1.686
 5461W        W 9525   2.419  10.484  10.541
 5462W        W 9526   0.149   9.808   2.350
 5463W        W 9527   2.614   4.302   2.782
 5464W        W 9528   6.103   8.804  11.836
 5465W        W 9529   4.700   6.025   1.532
 5466W        W 9530   7.532   4.267   2.810
 5467W        W 9531   5.271   3.595   0.946
 5468W        W 9532   4.592   5.923   3.814
 5469W        W 9533   9.872   9.756   3.573
 5470W        W 9534   3.432   1.831   1.370
 5471W        W 9535   4.426   5.670   1.283
 5472W        W 9536   7.682   9.963   9.579
 5473W        W 9537   6.041   9.486  10.480
 5474W        W 9538   8.336   7.041   8.670
 5475W        W 9539   8.520   8.033   2.694
 5476W        W 9540   2.875   7.581   1.820
 5477W        W 9541   1.865   1.362   3.694
 5478W        W 9542   3.605   9.185   0.283
 5479W        W 9543   1.410   7.095   1.005
 5480W        W 9544   1.684   0.212   9.376
 5481W        W 9545   6.733   6.569  10.780
 5482W        W 9546   5.602   9.841   9.342
 5483W        W 9547   0.330   0.956   9.503
 5484W        W 9548  10.463   6.167   0.974
 5485W        W 9549   5.078   6.140  10.565
 5486W        W 9550   0.109   9.188  11.338
 5487W        W 9551   7.080   7.142   1.373
 5488W        W 9552   4.945  10.415   8.810
 5489W        W 9553   3.736   6.201   9.178
 5490W        W 9554   3.335   0.474   1.165
 5491W        W 9555   4.809   2.918  10.988
 5492W        W 9556   2.743   3.232  11.262
 5493W        W 9557   6.537   9.796   3.021
 5494W        W 9558   4.247   9.541  11.380
 5495W        W 9559   0.719   9.132   0.646
 5496W        W 9560   9.050   2.318   8.371
 5497W        W 9561   9.959   6.641   9.911
 5498W        W 9562   5.160  10.007  11.103
 5499W        W 9563   7.030   2.656   2.784
 5500W        W 9564   3.806   2.950   9.669
 5501W        W 9565   3.217   2.367  11.282
 5502W        W 9566   6.584   3.804   8.885
 5503W        W 9567   1.033   7.898  11.898
 5504W        W 9568  10.339   3.126  10.125
 5505W        W 9569   3.028   2.815   2.300
 5506W        W 9570   0.465   5.610   2.388
 5507W        W 9571   7.747   1.548   1.065
 5508W        W 9572   1.141   9.734   9.743
 5509W        W 9573   2.161   6.132   9.939
 5510W        W 9574   9.292   6.504   8.746
 5511W        W 9575   0.176   6.074   3.413
 5512W        W 9576   8.070   6.453   0.442
 5513W        W 9577   7.548   1.922   1.342
 5514W        W 9578   9.820   3.361   3.083
 5515W        W 9579   5.437   2.962   8.871
 5516W        W 9580   6.054   6.605   1.849
 5517W        W 9581   6.205   0.852   3.049
 5518W        W 9582   7.595   1.583   9.721
 5519W        W 9583   0.436   6.475  11.262
 5520W        W 9584   6.292   6.150   0.342
 5521W        W 9585   3.836   3.144   2.388
 5522W        W 9586   2.840   0.454   1.307
 5523W        W 9587   3.729   9.518  11.307
 5524W        W 9588   0.669   3.651   3.666
 5525W        W 9589   7.990   6.677   1.829
 5526W        W 9590   9.272   2.840   9.107
 5527W        W 9591   1.274   0.987   9.511
 5528W        W 9592   1.369   1.481   9.526
 5529W        W 9593   1.849   3.787  11.267
 5530W        W 9594   9.071   5.286  11.418
 5531W        W 9595   4.226   8.021   0.157
 5532W        W 9596   5.077   4.093   2.790
 5533W        W 9597   3.739   3.303   9.286
 5534W        W 9598   6.078   3.258   0.188
 5535W        W 9599   3.533   8.010   2.412
 5536W        W 9600   3.330   0.692  10.629
 5537W        W 9601   0.122   7.074   0.885
 5538W        W 9602   4.498   7.601   0.051
 5539W        W 9603   1.881   0.815  10.429
 5540W        W 9604   7.452   5.425   4.073
 5541W        W 9605   1.788   6.661   0.597
 5542W        W 9606   3.944   5.535   1.137
 5543W        W 9607   8.611   8.833   2.263
 5544W        W 9608   5.059   4.896  11.481
 5545W        W 9609   9.078   5.757  11.586
 5546W        W 9610   5.277   6.407   9.952
 5547W        W 9611   5.714   6.419   0.870
 5548W        W 9612   2.421  10.348   3.498
 5549W        W 9613   2.481   0.865  10.932
 5550W        W 9614   1.040   5.677  10.453
 5551W        W 9615   7.135   2.262   1.995
 5552W        W 9616   3.988   0.313  10.940
 5553W        W 9617   7.455   6.274   2.455
 5554W        W 9618   2.266   1.912   9.249
 5555W        W 9619   5.930   7.599   3.544
 5556W        W 9620   4.418  10.334   0.504
 5557W        W 9621   4.137   6.588   8.612
 5558W        W 9622   5.744   2.528  11.828
 5559W        W 9623   6.976   7.139   9.539
 5560W        W 9624   7.408   2.247  10.740
 5561W        W 9625   6.443   5.679   0.133
 5562W        W 9626   3.375   9.531   8.514
 5563W        W 9627   2.170   5.918   0.878
 5564W        W 9628   5.991   2.817   0.434
 5565W        W 9629   6.531   2.453   8.576
 5566W        W 9630   0.817   2.811   2.400
 5567W        W 9631   2.081   8.459   0.716
 5568W        W 9632   4.214   6.104   0.434
 5569W        W 9633   5.722   1.274  10.926
 5570W        W 9634   6.404   9.124   0.914
 5571W        W 9635   0.052   6.418   3.058
 5572W        W 9636   5.153   1.809   8.841
 5573W        W 9637   5.902   0.958   0.440
 5574W        W 9638   2.003   9.940   3.547
 5575W        W 9639   4.672   9.429  10.571
 5576W        W 9640   7.046   8.582   1.265
 5577W        W 9641   1.694   8.525   9.527
 5578W        W 9642   8.054   7.891   2.955
 5579W        W 9643   6.106   0.488  11.128
 5580W        W 9644   1.165   0.426   0.179
 5581W        W 9645   1.508   4.260   0.254
 5582W        W 9646   9.281   4.613   3.551
 5583W        W 9647   3.152   3.622   9.569
 5584W        W 9648   8.888   8.805  11.550
 5585W        W 9649   9.779   7.433   0.707
 5586W        W 9650   3.284   1.569  10.875
 5587W        W 9651   7.404   1.635   0.459
 5588W        W 9652   5.914   8.030   2.349
 5589W        W 9653   6.990   2.762   9.735
 5590W        W 9654   2.667   2.848   0.972
 5591W        W 9655   3.028   9.793   3.170
 5592W        W 9656   9.604   7.192   2.512
 5593W        W 9657   8.200   6.263   3.554
 5594W        W 9658   4.708   0.333  11.954
 5595W        W 9659   0.258   5.426   1.374
 5596W        W 9660   5.983   7.990   1.408
 5597W        W 9661   6.562   3.641  11.030
 5598W        W 9662   7.145   1.361   3.178
 5599W        W 9663   9.988   7.050   2.866
 5600W        W 9664   9.824   0.974  11.215
 5601W        W 9665   5.235   3.156   9.391
 5602W        W 9666   9.301   6.038   8.979
 5603W        W 9667   1.321   9.962   1.893
 5604W        W 9668   6.971   8.104  11.831
 5605W        W 9669   3.130   6.664   0.553
 5606W        W 9670   7.279  10.400  10.041
 5607W        W 9671   7.523   2.376   1.137
 5608W        W 9672   6.590   2.106  10.007
 5609W        W 9673   9.463   1.052   0.930
 5610W        W 9674   2.243   9.136  10.101
 5611W        W 9675   8.085   1.414  11.854
 5612W        W 9676   5.631   3.412   2.356
 5613W        W 9677   3.796   5.951   9.617
 5614W        W 9678  10.446   1.953   0.048
 5615W        W 9679   4.152   1.325   2.245
 5616W        W 9680   4.684   9.289   1.981
 5617W        W 9681   7.844   5.603   0.202
 5618W        W 9682   5.551   8.916   2.504
 5619W        W 9683   0.794   5.189  10.985
 5620W        W 9684   8.988   4.585   0.755
 5621W        W 9685   5.205   9.955   9.044
 5622W        W 9686   0.214   6.951   0.373
 5623W        W 9687   8.017   4.518   9.047
 5624W        W 9688   0.272   2.824   2.402
 5625W        W 9689   7.466   3.139  10.245
 5626W        W 9690   1.440   9.283   3.837
 5627W        W 9691   2.263  10.044  10.921
 5628W        W 9692   8.876   8.833   1.356
 5629W        W 9693   6.565   7.855   2.843
 5630W        W 9694   0.931   8.630   0.127
 5631W        W 9695   4.185   6.097   1.478
 5632W        W 9696   6.560   8.665   0.003
 5633W        W 9697   2.427   1.724   0.189
 5634W        W 9698   0.187   9.944   8.878
 5635W        W 9699   7.591   8.021   2.242
 5636W        W 9700   2.277   5.102   1.998
 5637W        W 9701   2.724   3.570  10.279
 5638W        W 9702   5.282   2.644   1.183
 5639W        W 9703   5.937   9.014   1.189
 5640W        W 9704   7.861   3.229   3.538
 5641W        W 9705   4.675   7.937  11.704
 5642W        W 9706   1.961   8.920   0.201
 5643W        W 9707  10.473   0.247   9.386
 5644W        W 9708   4.985   4.457  10.100
 5645W        W 9709   0.494  10.382   2.936
 5646W        W 9710   4.565   2.878   3.460
 5647W        W 9711   7.259   3.176   1.540
 5648W        W 9712   8.430   8.122   9.802
 5649W        W 9713   1.571   8.542  11.294
 5650W        W 9714   0.865   7.981   1.226
 5651W        W 9715   8.164   3.654   1.231
 5652W        W 9716   1.908   7.862   1.974
 5653W        W 9717   2.863   9.422   1.398
 5654W        W 9718   8.500   2.462   1.242
 5655W        W 9719   1.835   1.172   9.752
 5656W        W 9720   3.319   5.042   1.781
 5657W        W 9721   7.067   5.966   9.085
 5658W        W 9722   0.115   5.391  10.503
 5659W        W 9723   6.076  10.280   1.696
 5660W        W 9724   4.083   2.908  11.378
 5661W        W 9725   6.470   9.272   9.350
 5662W        W 9726   6.917   8.954  11.290
 5663W        W 9727   3.480   2.210   1.021
 5664W        W 9728   3.341   6.733  11.750
 5665W        W 9729   0.594   4.985  11.413
 5666W        W 9730  10.363   5.428  11.351
 5667W        W 9731   5.557   4.128   1.843
 5668W        W 9732   0.826   2.296   3.209
 5669W        W 9733   5.246   7.044   9.129
 5670W        W 9734   3.258   5.142   9.285
 5671W        W 9735   0.498   8.288   8.940
 5672W        W 9736   0.998   7.372   0.772
 5673W        W 9737   1.002   2.134   0.224
 5674W        W 9738   7.855   6.649   0.006
 5675W        W 9739   9.341   0.541   3.099
 5676W        W 9740   4.578   4.564   3.990
 5677W        W 9741   6.426   0.157  11.961
 5678W        W 9742  10.490   3.929   0.154
 5679W        W 9743   6.083   9.327   9.996
 5680W        W 9744   4.552   5.305   9.681
 5681W        W 9745   8.535   5.887   9.538
 5682W        W 9746   9.907   8.288  11.981
 5683W        W 9747   5.643   1.806   8.990
 5684W        W 9748   1.242   0.317  11.033
 5685W        W 9749   3.232   8.359   8.880
 5686W        W 9750   9.467   7.833  10.975
 5687W        W 9751   9.937   9.798   1.664
 5688W        W 9752   5.703   3.474  10.346
 5689W        W 9753   7.381   3.058   8.844
 5690W        W 9754   1.838   7.906   0.467
 5691W        W 9755   1.349   3.830   1.048
 5692W        W 9756   5.143   8.640   0.628
 5693W        W 9757   0.749   0.885  11.547
 5694W        W 9758   1.407   0.234   9.890
 5695W        W 9759   8.145   5.988   1.346
 5696W        W 9760   9.497   5.716   1.231
 5697W        W 9761   0.878   5.430  10.018
 5698W        W 9762   3.668   5.911   3.648
 5699W        W 9763   3.524  10.308   9.387
 5700W        W 9764   7.706   1.827   8.704
 5701W        W 9765   1.294   4.959  10.965
 5702W        W 9766   7.730   6.347   9.776
 5703W        W 9767   5.088   3.655   1.409
 5704W        W 9768   1.216  10.258   1.387
 5705W        W 9769   6.608   3.251   3.308
 5706W        W 9770   0.852   3.991   9.484
 5707W        W 9771   1.296   7.842  10.585
 5708W        W 9772   3.402   7.552   2.693
 5709W        W 9773   2.816   4.073  10.204
 5710W        W 9774   1.669   2.793  11.509
 5711W        W 9775   0.857   6.469  11.563
 5712W        W 9776   5.460   8.437   3.181
 5713W        W 9777   2.175   3.274   1.794
 5714W        W 9778   5.993   5.447  11.980
 5715W        W 9779   7.651   0.107   0.769
 5716W        W 9780   2.110   9.314   9.614
 5717W        W 9781   7.665   1.218   0.662
 5718W        W 9782   3.707   3.627   1.662
 5719W        W 9783   7.095  10.471   3.141
 5720W        W 9784   5.683   0.785  11.137
 5721W        W 9785   7.993   2.623   0.249
 5722W        W 9786   3.327   0.725  11.462
 5723W        W 9787   8.766   2.259   9.879
 5724W        W 9788   2.769   1.460   9.884
 5725W        W 9789   6.931   4.941  10.275
 5726W        W 9790   4.481   5.182   3.647
 5727W        W 9791   1.241   9.282   1.262
 5728W        W 9792   2.400   5.679   9.957
 5729W        W 9793   3.220   3.301   9.118
 5730W        W 9794   9.132   3.283   1.917
 5731W        W 9795   5.498   3.724   0.513
 5732W        W 9796   0.196   9.567  11.950
 5733W        W 9797   5.097   3.155   1.178
 5734W        W 9798   5.675   6.479   3.135
 5735W        W 9799  10.309   7.186  10.846
 5736W        W 9800   9.868   9.048   1.438
 5737W        W 9801   6.877   9.928   2.610
 5738W        W 9802   4.607   2.384   0.698
 5739W        W 9803   1.345   0.876   0.355
 5740W        W 9804   6.148   0.066  10.770
 5741W        W 9805   3.739   5.018   2.138
 5742W        W 9806   1.280   1.018   3.072
 5743W        W 9807   3.879   0.895  11.188
 5744W        W 9808   7.438   9.554   9.755
 5745W        W 9809   7.033   8.148  11.311
 5746W        W 9810  10.074  10.382   2.878
 5747W        W 9811   1.840   1.671   9.599
 5748W        W 9812   4.747  10.464   9.668
 5749W        W 9813   6.350   9.990   8.768
 5750W        W 9814   2.898   7.564   9.350
 5751W        W 9815   2.417   6.114  11.464
 5752W        W 9816   7.601   5.384   2.177
 5753W        W 9817   4.554   3.121   1.808
 5754W        W 9818   8.952   0.496   9.137
 5755W        W 9819   8.329   2.243  10.265
 5756W        W 9820   9.157  10.316   1.268
 5757W        W 9821   6.976   6.096  10.822
 5758W        W 9822   4.441   7.738   1.235
 5759W        W 9823   9.489   2.186   3.392
 5760W        W 9824   4.143   7.014   3.322
 5761W        W 9825   4.580   8.811   2.146
 5762W        W 9826   2.170   2.377   9.542
 5763W        W 9827   4.669   8.381  11.448
 5764W        W 9828   4.521   5.489   9.214
 5765W        W 9829   5.177   0.953  10.933
 5766W        W 9830   9.457   4.859   2.939
 5767W        W 9831  10.406   2.857   3.471
 5768W        W 9832   4.627   0.442   1.514
 5769W        W 9833   3.473   5.590   8.176
 5770W        W 9834   8.608   0.980   0.925
 5771W        W 9835   1.470   9.283   8.755
 5772W        W 9836   2.217   6.412   0.783
 5773W        W 9837   2.908   4.795   0.870
 5774W        W 9838   8.100   8.533   1.131
 5775W        W 9839   8.864   7.411  10.242
 5776W        W 9840   0.972  10.203  10.555
 5777W        W 9841   7.347   4.112   1.031
 5778W        W 9842   1.159   6.521  11.998
 5779W        W 9843   2.481   9.600  10.767
 5780W        W 9844   7.096   9.941  10.237
 5781W        W 9845   3.082   7.990   9.571
 5782W        W 9846   0.422   5.226   9.401
 5783W        W 9847   9.058   7.958   3.328
 5784W        W 9848   0.309   8.609  11.917
 5785W        W 9849   7.478   5.527   3.577
 5786W        W 9850   0.538   8.586  10.608
 5787W        W 9851   8.386   9.474   1.943
 5788W        W 9852   8.942   6.617  11.492
 5789W        W 9853   0.878   2.163   9.014
 5790W        W 9854   7.495   6.486   1.980
 5791W        W 9855   4.534   4.108   1.272
 5792W        W 9856   0.452   4.558  10.530
 5793W        W 9857   3.700   0.795   2.752
 5794W        W 9858   5.529   3.312  10.846
 5795W        W 9859   2.500   1.732  11.337
 5796W        W 9860   2.367   0.332   1.910
 5797W        W 9861   3.188   5.274   3.230
 5798W        W 9862   4.232  10.204  11.724
 5799W        W 9863   0.500   4.606   3.418
 5800W        W 9864   9.143   6.631  10.569
 5801W        W 9865  10.267   7.207   0.477
 5802W        W 9866   0.724   6.081   9.839
 5803W        W 9867   0.185   8.138   0.085
 5804W        W 9868   2.126   2.099   0.028
 5805W        W 9869   3.614   4.970   4.225
 5806W        W 9870   4.594   5.648   2.387
 5807W        W 9871   7.529   2.642   0.005
 5808W        W 9872   9.004   9.466  10.478
 5809W        W 9873   9.996  10.248  11.055
 5810W        W 9874   3.342   8.382   0.606
 5811W        W 9875   0.952  10.400   0.972
 5812W        W 9876   8.448   1.766  10.413
 5813W        W 9877   3.154   4.795   0.381
 5814W        W 9878   5.654   2.298   2.891
 5815W        W 9879   0.500   1.122  10.507
 5816W        W 9880   3.678   8.148   3.367
 5817W        W 9881   9.356   9.422   0.059
 5818W        W 9882   1.679   3.788  10.284
 5819W        W 9883   6.226   7.675  11.125
 5820W        W 9884   2.611  10.388   1.326
 5821W        W 9885   9.094   9.887   0.946
 5822W        W 9886   0.668   8.231  11.966
 5823W        W 9887   9.975   4.622  11.790
 5824W        W 9888   1.480   3.460   2.539
 5825W        W 9889   3.806   9.321   2.672
 5826W        W 9890   3.084   9.597   9.905
 5827W        W 9891   0.380   3.905   9.620
 5828W        W 9892   1.383   3.743   9.093
 5829W        W 9893   0.877   8.578   1.396
 5830W        W 9894   4.082   7.475   9.007
 5831W        W 9895   3.333   0.464   0.158
 5832W        W 9896   9.462   9.980   1.750
 5833W        W 9897   2.313   5.977   0.371
 5834W        W 9898   3.814   0.421  11.952
 5835W        W 9899   1.069   9.932   3.538
 5836W        W 9900   9.507   3.445  11.015
 5837W        W 9901   2.114   4.363   2.787
 5838W        W 9902   4.932   7.138   8.462
 5839W        W 9903   4.235   1.801   9.822
 5840W        W 9904   0.490  10.294   0.787
 5841W        W 9905   2.682   5.945  10.790
 5842W        W 9906   0.786   0.319   9.973
 5843W        W 9907   6.566   1.643  11.841
 5844W        W 9908   4.534   5.058   3.137
 5845W        W 9909   4.019   5.028   3.907
 5846W        W 9910   1.940   4.700   1.986
 5847W        W 9911   1.844   7.020   8.917
 5848W        W 9912   8.276   2.339   9.771
 5849W        W 9913   4.653   5.013  11.756
 5850W        W 9914   5.114   4.969  10.105
 5851W        W 9915   0.218   7.018   1.850
 5852W        W 9916  10.283   0.072   2.101
 5853W        W 9917   6.786   7.006   9.999
 5854W        W 9918   1.062   3.982  10.405
 5855W        W 9919   6.952   4.526   1.960
 5856W        W 9920   5.957   6.458   2.707
 5857W        W 9921   1.979   9.776   9.436
 5858W        W 9922   3.059  10.006  11.981
 5859W        W 9923   2.579   6.602  11.569
 5860W        W 9924   4.721   0.730  11.626
 5861W        W 9925   7.140   1.696   9.979
 5862W        W 9926   2.608  10.274   1.829
 5863W        W 9927  10.056   9.513   2.829
 5864W        W 9928   2.169   2.294   2.325
 5865W        W 9929   1.303   3.102  11.349
 5866W        W 9930   3.750   9.346   9.469
 5867W        W 9931   0.509  10.480  11.869
 5868W        W 9932   0.967   3.356  11.623
 5869W        W 9933  10.301   7.930   9.756
 5870W        W 9934   6.122   6.606   9.542
 5871W        W 9935   0.493   5.738  10.177
 5872W        W 9936   6.729   5.038   4.074
 5873W        W 9937   7.844   3.105   0.194
 5874W        W 9938   3.767   7.134   0.365
 5875W        W 9939   6.482   4.089  10.204
 5876W        W 9940   7.683   8.399   3.542
 5877W        W 9941   6.628   2.607  10.048
 5878W        W 9942   5.986   5.704   1.228
 5879W        W 9943   4.124   4.273   1.816
 5880W        W 9944  10.464  10.405  10.378
 5881W        W 9945   5.544   9.591  11.950
 5882W        W 9946   5.522   0.257   3.226
 5883W        W 9947   6.440   4.037  11.368
 5884W        W 9948   9.486   1.332   2.295
 5885W        W 9949   8.328   5.755  10.877
 5886W        W 9950   5.716   2.142   3.396
 5887W        W 9951   3.087   9.362   1.868
 5888W        W 9952   5.023   5.060   2.916
 5889W        W 9953   2.529   2.755   9.411
 5890W        W 9954   0.334   3.035   9.822
 5891W        W 9955   4.107   3.884  11.293
 5892W        W 9956   1.276   8.994   2.525
 5893W        W 9957   1.977   0.440   3.574
 5894W        W 9958   7.854   8.426   3.069
 5895W        W 9959   6.495   7.288   1.743
 5896W        W 9960   7.263   0.845   9.985
 5897W        W 9961   1.210   8.173   3.528
 5898W        W 9962   6.588   5.697   3.882
 5899W        W 9963   2.315   5.194  10.204
 5900W        W 9964   4.982   3.396   8.075
 5901W        W 9965   1.140   4.313   1.006
 5902W        W 9966   1.605   4.969   9.918
 5903W        W 9967   8.687   1.687   3.504
 5904W        W 9968   3.539   3.100   1.928
 5905W        W 9969   2.223   5.248   3.533
 5906W        W 9970   5.543   2.623   3.310
 5907W        W 9971   7.242   6.217   0.464
 5908W        W 9972   5.229   1.347  11.676
 5909W        W 9973   9.114   7.046   0.690
 5910W        W 9974   2.291   2.797   9.898
 5911W        W 9975  10.032   4.024  10.518
 5912W        W 9976  10.079   1.330  10.217
 5913W        W 9977   7.733   9.473   2.655
 5914W        W 9978   0.863   1.634  10.306
 5915W        W 9979   3.776   8.454  11.019
 5916W        W 9980   3.081   0.025   0.001
 5917W        W 9981   1.990   9.356   1.018
 5918W        W 9982   5.375   6.918   3.150
 5919W        W 9983   9.718  10.413   0.437
 5920W        W 9984   4.305   2.436  10.308
 5921W        W 9985   7.706   8.020   0.290
 5922W        W 9986   4.704   1.385   1.508
 5923W        W 9987   6.581   9.697  11.979
 5924W        W 9988   3.272   5.760   2.313
 5925W        W 9989   6.025   4.290   9.981
 5926W        W 9990   5.020   1.321   9.202
 5927W        W 9991   6.961   9.490  10.523
 5928W        W 9992   0.612   6.622   0.493
 5929W        W 9993   8.905  10.375   9.049
 5930W        W 9994   9.135   7.020   9.847
 5931W        W 9995   9.362   5.161   0.752
 5932W        W 9996   9.897   7.545   9.848
 5933W        W 9997   9.685   0.439   2.406
 5934W        W 9998   2.317   9.787   1.047
 5935W        W 9999   8.180   3.132   1.998
 5936W        W10000   3.322   1.270   2.268
 5937W        W10001   6.031   1.820   2.968
 5938W        W10002   6.065   7.396  10.329
 5939W        W10003   2.432   9.424   2.683
 5940W        W10004   7.233   1.212   9.619
 5941W        W10005   2.707   1.971  10.011
 5942W        W10006   8.640   9.525  10.828
 5943W        W10007   9.383   7.114   2.035
 5944W        W10008   5.724   6.082   2.448
 5945W        W10009   3.923   1.360  11.395
 5946W        W10010   3.241   4.317   1.286
 5947W        W10011   4.539   4.063   9.854
 5948W        W10012   5.195   5.599   3.123
 5949W        W10013   7.973   3.614   2.651
 5950W        W10014   2.790   3.362  10.744
 5951W        W10015   4.765   9.906   8.782
 5952W        W10016   1.873  10.312   8.726
 5953W        W10017   7.420   4.989   9.984
 5954W        W10018   1.908   2.326   0.475
 5955W        W10019   1.087   5.548   1.094
 5956W        W10020  10.269   8.038   1.387
 5957W        W10021   0.830   8.100  11.465
 5958W        W10022   0.969   0.143   8.612
 5959W        W10023   5.422   7.569   4.226
 5960W        W10024   0.020   5.853   2.450
 5961W        W10025   5.441   0.384   9.395
 5962W        W10026  10.451   7.019   9.261
 5963W        W10027   4.607   7.399  11.620
 5964W        W10028   1.315   2.356   9.201
 5965W        W10029   6.993   7.686  11.542
 5966W        W10030   5.286   2.159  10.089
 5967W        W10031   5.477   3.998  11.680
 5968W        W10032   3.316   5.538   3.659
 5969W        W10033   1.785   7.593   3.131
 5970W        W10034   9.027   1.525   2.200
 5971W        W10035   4.370   4.526   9.501
 5972W        W10036   6.590   2.112   0.043
 5973W        W10037   4.638  10.472  11.583
 5974W        W10038   3.195   7.057   9.989
 5975W        W10039   4.621   4.405   8.410
 5976W        W10040   3.242   9.905   2.724
 5977W        W10041   3.391   3.468   3.397
 5978W        W10042   5.756   5.592   8.597
 5979W        W10043   6.056  10.068  11.056
 5980W        W10044   2.548   9.430   1.823
 5981W        W10045   2.956   6.065   3.131
 5982W        W10046  10.015   9.728   0.800
 5983W        W10047   9.785   1.655   3.139
 5984W        W10048   5.554   4.373   8.470
 5985W        W10049   2.544   9.170  10.499
 5986W        W10050   1.260  10.329   0.534
 5987W        W10051   9.190   0.939   2.371
 5988W        W10052   5.077   8.168   0.408
 5989W        W10053  10.212   8.864   9.115
 5990W        W10054   9.522   1.384   2.788
 5991W        W10055  10.027   1.763   9.045
 5992W        W10056   2.513   8.234   0.854
 5993W        W10057   8.463   1.067  10.522
 5994W        W10058   3.712   7.087   1.023
 5995W        W10059   6.625   6.593  10.258
 5996W        W10060   3.042   2.694   9.332
 5997W        W10061   8.926   6.077   3.243
 5998W        W10062   8.670   3.881   3.731
 5999W        W10063   9.121  10.258  11.045
 6000W        W10064   9.788   8.918   3.312
 6001W        W10065   5.702   4.755   9.008
 6002W        W10066   0.283   2.236   1.279
 6003W        W10067   2.660   3.849  10.742
 6004W        W10068  10.265   2.659   1.518
 6005W        W10069   3.376   8.460   2.629
 6006W        W10070   5.479   2.259   8.805
 6007W        W10071   3.695   4.119   3.561
 6008W        W10072   5.614   4.896   8.514
 6009W        W10073   3.314   7.515   9.728
 6010W        W10074   4.669   8.129   1.440
 6011W        W10075   9.062   1.582   2.701
 6012W        W10076   9.505   9.938   1.245
 6013W        W10077   8.699   2.728   9.093
 6014W        W10078   2.625   3.064  10.339
 6015W        W10079   2.273   3.834  10.318
 6016W        W10080   0.636   7.594  10.558
 6017W        W10081   6.696   1.665  11.300
 6018W        W10082   8.562   8.844   0.018
 6019W        W10083   2.267   9.867   1.915
 6020W        W10084   6.365   0.458   9.002
 6021W        W10085   7.342   5.736   0.233
 6022W        W10086   9.848   9.221   8.916
 6023W        W10087   6.716   7.864   3.352
 6024W        W10088   1.846   6.534   1.122
 6025W        W10089   8.085   9.434   1.088
 6026W        W10090   7.407   5.607   0.712
 6027W        W10091   0.277   4.763   9.580
 6028W        W10092   1.642   1.983   0.178
 6029W        W10093   2.226  10.293  11.951
 6030W        W10094   5.703   1.591   0.276
 6031W        W10095   0.795   1.256   9.363
 6032W        W10096   2.637   5.516   9.514
 6033W        W10097   2.789   4.246   3.271
 6034W        W10098   8.874  10.425   2.696
 6035W        W10099   1.861   3.736   8.923
 6036W        W10100   7.905  10.356   9.343
 6037W        W10101   5.220   1.889   1.692
 6038W        W10102   6.604   3.068  11.727
 6039W        W10103   6.389   3.284  10.706
 6040W        W10104   8.122   5.717  11.772
 6041W        W10105   8.950   5.303  11.964
 6042W        W10106   1.876   1.261   8.784
 6043W        W10107   8.793   0.173   1.237
 6044W        W10108   3.325   8.157   1.115
 6045W        W10109   0.693   9.828   8.930
 6046W        W10110   4.232   7.567   3.047
 6047W        W10111   5.492   5.003   9.416
 6048W        W10112   2.403   9.978   0.595
 6049W        W10113   1.789   5.682   2.838
 6050W        W10114   6.519  10.466   1.128
 6051W        W10115   5.069   0.794  10.459
 6052W        W10116   6.040   2.246  10.772
 6053W        W10117   8.152   9.681   2.398
 6054W        W10118   7.281   7.959   1.801
 6055W        W10119   4.150   1.450   3.257
 6056W        W10120   4.084   2.648   2.200
 6057W        W10121   0.266   9.622  11.010
 6058W        W10122   6.915   1.350   1.676
 6059W        W10123   5.162   9.281   1.834
 6060W        W10124   8.193   2.442   0.835
 6061W        W10125   3.794   0.889  10.692
 6062W        W10126   6.007   7.219   2.494
 6063W        W10127   3.318   5.794   0.446
 6064W        W10128   6.884   8.896   9.398
 6065W        W10129   7.652   7.615  10.527
 6066W        W10130   3.478   5.505   0.852
 6067W        W10131   2.025   5.358  11.731
 6068W        W10132   8.556   0.715   0.064
 6069W        W10133   0.400   2.388   0.792
 6070W        W10134   9.780   7.874   9.031
 6071W        W10135   1.808   2.675   0.854
 6072W        W10136   7.884  10.336  10.981
 6073W        W10137   9.146   0.335  10.474
 6074W        W10138   5.848   8.419   8.352
 6075W        W10139   5.112   5.166  11.971
 6076W        W10140   4.695   7.371   1.806
 6077W        W10141   4.310   4.719   2.713
 6078W        W10142   0.985   5.569   2.422
 6079W        W10143   6.132   0.474  11.646
 6080W        W10144   7.931   5.216  11.852
 6081W        W10145   7.157   1.707   9.455
 6082W        W10146   5.724   7.545   9.556
 6083W        W10147   9.286   8.755   9.383
 6084W        W10148   7.589   4.974   1.103
 6085W        W10149   8.822   0.718  10.318
 6086W        W10150   1.732   1.787   0.650
 6087W        W10151   1.692   0.807   1.580
 6088W        W10152   1.183   5.191   3.520
 6089W        W10153  10.253   2.790   2.407
 6090W        W10154   0.009   8.923   1.649
 6091W        W10155   5.684   1.692  11.251
 6092W        W10156   8.077   1.291   0.355
 6093W        W10157   2.183  10.462   9.576
 6094W        W10158   2.651   6.361  11.094
 6095W        W10159   4.153   9.439   3.208
 6096W        W10160   8.854   5.092   0.836
 6097W        W10161   9.532   9.063   0.792
 6098W        W10162   9.295   9.849  10.035
 6099W        W10163   2.871   3.152   9.494
 6100W        W10164   3.122   6.217  10.038
 6101W        W10165   6.672   3.210   2.225
 6102W        W10166   6.986   6.921   3.133
 6103W        W10167   8.679   2.388  11.121
 6104W        W10168   3.143   4.397  11.432
 6105W        W10169   4.183   0.048   9.554
 6106W        W10170   6.631   7.585   9.579
 6107W        W10171   2.458   1.644  10.282
 6108W        W10172   0.235   5.712  11.542
 6109W        W10173   8.411   7.767  11.470
 6110W        W10174   0.210   1.790  11.167
 6111W        W10175   4.552   9.502   9.035
 6112W        W10176   3.541   2.826   9.217
 6113W        W10177   0.073   1.353  10.342
 6114W        W10178   7.615   0.641   0.815
 6115W        W10179   2.193   8.150  10.162
 6116W        W10180   9.003   1.234  10.251
 6117W        W10181   3.832   8.031  11.359
 6118W        W10182   8.994   5.519   0.489
 6119W        W10183   6.462   4.445   8.412
 6120W        W10184   7.940   2.821  11.762
 6121W        W10185   6.393   0.975   0.395
 6122W        W10186   7.057   5.518   3.289
 6123W        W10187   3.463   5.030   0.022
 6124W        W10188   4.638   0.244   3.432
 6125W        W10189   1.545  10.162   3.687
 6126W        W10190   3.625   3.149   8.796
 6127W        W10191   2.859   4.640   2.517
 6128W        W10192   7.103   4.049   2.083
 6129W        W10193   9.819   7.457   3.135
 6130W        W10194   2.676   5.007   0.443
 6131W        W10195   8.882   7.702   9.219
 6132W        W10196   6.860   1.218   9.983
 6133W        W10197   5.893   8.140   0.447
 6134W        W10198   7.164   4.838   3.901
 6135W        W10199   4.566  10.499   1.008
 6136W        W10200   8.543   4.051  11.353
 6137W        W10201   3.169   5.689  11.232
 6138W        W10202   5.617   2.655   1.900
 6139W        W10203   6.388   8.796   9.531
 6140W        W10204   2.570   1.952   2.164
 6141W        W10205   3.367   9.791   1.843
 6142W        W10206   0.458   7.488   8.455
 6143W        W10207   5.629   8.314   1.176
 6144W        W10208   2.483   4.814   9.869
 6145W        W10209   0.246   4.354  11.970
 6146W        W10210   3.712   0.872   1.203
 6147W        W10211   0.479   3.834   9.128
 6148W        W10212   5.920   9.547   2.491
 6149W        W10213   1.711   3.809   1.800
 6150W        W10214   4.774   6.259   2.433
 6151W        W10215   1.701   8.096   3.328
 6152W        W10216   1.757   3.900   9.420
 6153W        W10217   4.721   0.765  11.096
 6154W        W10218   9.902   8.492  11.499
 6155W        W10219   0.411   6.158   2.484
 6156W        W10220   2.346   1.743   9.728
 6157W        W10221   8.014   5.097   2.089
 6158W        W10222   5.482  10.333  10.206
 6159W        W10223   3.331   2.347   2.632
 6160W        W10224   1.820   3.549   3.353
 6161W        W10225   5.133   9.553   0.274
 6162W        W10226   6.029   1.300   2.811
 6163W        W10227   8.952   2.015   2.431
 6164W        W10228   9.137   5.089   1.832
 6165W        W10229   0.718   7.186   1.783
 6166W        W10230   2.269   4.158   0.883
 6167W        W10231   7.133   1.253   0.712
 6168W        W10232   7.603   2.849   0.964
 6169W        W10233   6.774   6.932   2.665
 6170W        W10234   9.476   8.416   2.485
 6171W        W10235   1.219   2.811   9.455
 6172W        W10236   2.220   9.325  11.884
 6173W        W10237   7.497   5.629  10.881
 6174W        W10238   0.382   0.861   0.919
 6175W        W10239   5.597   4.296   2.607
 6176W        W10240   1.424   3.395   0.304
 6177W        W10241   8.907   9.485   1.783
 6178W        W10242   4.710   5.757  11.362
 6179W        W10243   7.237   2.548   0.744
 6180W        W10244   3.699   7.976   1.427
 6181W        W10245   7.735  10.226   0.003
 6182W        W10246   0.386   5.968  11.141
 6183W        W10247   0.791   0.422  11.813
 6184W        W10248   3.111   3.565   0.007
 6185W        W10249   0.358   8.580   3.077
 6186W        W10250   4.255   9.189   9.441
 6187W        W10251   2.374   3.070   0.343
 6188W        W10252   3.155   2.757   3.562
 6189W        W10253   5.217   3.834   8.955
 6190W        W10254   2.830   8.864   1.166
 6191W        W10255  10.345   5.650   1.687
 6192W        W10256   0.953   2.131  10.426
 6193W        W10257   5.543   2.639   0.294
 6194W        W10258   6.457   4.302   8.906
 6195W        W10259   3.263   9.277  11.474
 6196W        W10260   3.773   4.695   0.983
 6197W        W10261   0.830   1.440   1.967
 6198W        W10262   9.531   1.598  11.728
 6199W        W10263   8.082   8.283   0.608
 6200W        W10264   1.832   5.099  10.337
 6201W        W10265   9.957   6.407   1.848
 6202W        W10266   4.943   6.443   0.326
 6203W        W10267   3.372   9.901  10.691
 6204W        W10268   6.553   2.465   2.866
 6205W        W10269   5.279   3.289   8.508
 6206W        W10270   8.946   3.151   8.895
 6207W        W10271   3.203   1.376  10.124
 6208W        W10272   9.780   6.559   8.887
 6209W        W10273   9.924   6.975   8.522
 6210W        W10274   4.612   1.548   2.869
 6211W        W10275   4.631   2.672   2.416
 6212W        W10276   3.980   4.248  11.645
 6213W        W10277   4.419   8.721   9.529
 6214W        W10278   6.251   6.914   0.008
 6215W        W10279   6.116   4.943   0.927
 6216W        W10280   2.761  10.132   2.302
 6217W        W10281   2.132  10.016   9.871
 6218W        W10282   4.692   0.995  10.197
 6219W        W10283   6.563   1.915   1.380
 6220W        W10284   6.085  10.412  10.284
 6221W        W10285   9.341   9.590   2.071
 6222W        W10286   8.640   5.793   8.522
 6223W        W10287   5.483   1.233   0.600
 6224W        W10288   0.637   9.853   9.821
 6225W        W10289   6.854   0.907   1.403
 6226W        W10290   5.222   3.199  11.733
 6227W        W10291   6.053   2.665   9.034
 6228W        W10292   0.431   9.052   3.595
 6229W        W10293   8.140   3.588   8.931
 6230W        W10294   0.693   1.800  11.994
 6231W        W10295   0.973   6.048   9.296
 6232W        W10296   8.073   7.585  10.848
 6233W        W10297   7.957   9.466   1.607
 6234W        W10298   6.959   3.759   9.697
 6235W        W10299   6.063   2.076   1.164
 6236W        W10300   9.300   7.499  10.614
 6237W        W10301   6.624   2.975   2.868
 6238W        W10302   5.634   9.360   1.704
 6239W        W10303   7.082   8.607  11.971
 6240W        W10304   2.845   2.372  10.903
 6241W        W10305   8.572   9.426   8.973
 6242W        W10306   1.287   6.046   0.992
 6243W        W10307   5.259   1.845  10.934
 6244W        W10308   9.081   6.990  11.173
 6245W        W10309   0.012   1.713   1.116
 6246W        W10310   6.571   0.768  10.010
 6247W        W10311   5.932   3.813   8.207
 6248W        W10312   9.250   2.188   9.993
 6249W        W10313   4.075   6.615   1.478
 6250W        W10314   5.183   9.009   9.953
 6251W        W10315   6.103   2.786   1.698
 6252W        W10316   5.222   4.673   9.716
 6253W        W10317   1.730   4.000   3.755
 6254W        W10318   7.361   5.170  11.029
 6255W        W10319   4.530   3.611   9.611
 6256W        W10320   2.015   1.382   2.751
 6257W        W10321   3.081   2.266   8.978
 6258W        W10322   9.476   8.285   0.271
 6259W        W10323   0.828   1.540   8.928
 6260W        W10324   3.839   7.693   1.835
 6261W        W10325   5.601   9.346  10.977
 6262W        W10326   0.714   2.981   1.514
 6263W        W10327   6.866   5.915   1.774
 6264W        W10328   3.075   4.048  11.074
 6265W        W10329   3.066   8.934   9.111
 6266W        W10330   9.858   2.230   0.683
 6267W        W10331   7.933   6.164   1.785
 6268W        W10332  10.234   0.753   0.300
 6269W        W10333   7.516   3.552   8.955
 6270W        W10334   5.926   0.538   9.625
 6271W        W10335   7.910   4.543   2.044
 6272W        W10336   6.911   0.290  10.546
 6273W        W10337   2.169   0.489  11.244
 6274W        W10338   3.317   0.738   2.413
 6275W        W10339   5.821   0.039   9.837
 6276W        W10340  10.213   1.301   3.392
 6277W        W10341   1.233   4.270  11.797
 6278W        W10342   6.672   6.082   8.775
 6279W        W10343   8.015   0.458   3.360
 6280W        W10344   1.407   0.295   2.060
 6281W        W10345   0.331   3.791   1.730
 6282W        W10346   7.944   9.972  10.639
 6283W        W10347   4.140   2.692   0.191
 6284W        W10348   9.539   5.208   9.072
 6285W        W10349   4.180   3.761   1.845
 6286W        W10350   6.630   3.808   2.476
 6287W        W10351   7.714   3.155   1.770
 6288W        W10352   5.388   0.434   2.753
 6289W        W10353   4.883   9.795   3.593
 6290W        W10354   3.795   2.135   8.567
 6291W        W10355   5.469   5.281   9.890
 6292W        W10356   3.108   4.774  10.595
 6293W        W10357   6.965   4.075  10.364
 6294W        W10358   0.265   1.715   3.074
 6295W        W10359   5.582   0.279  11.963
 6296W        W10360   3.296  10.280   3.436
 6297W        W10361   3.426   7.572   3.656
 6298W        W10362   1.253   1.706   0.384
 6299W        W10363   1.757   8.594   4.092
 6300W        W10364   3.731   1.176   3.074
 6301W        W10365   6.035   8.040  11.531
 6302W        W10366   2.859   3.136   0.171
 6303W        W10367   4.246   5.712   9.645
 6304W        W10368   3.671   8.693   1.834
 6305W        W10369   5.558   9.828   0.439
 6306W        W10370   2.279   4.739  11.754
 6307W        W10371   4.168   0.902   2.557
 6308W        W10372   6.780   3.240   1.726
 6309W        W10373   2.444   7.318  10.202
 6310W        W10374   7.922   0.333  11.048
 6311W        W10375   7.361   3.701   1.392
 6312W        W10376   9.851   5.982  11.441
 6313W        W10377   6.234   6.972   9.174
 6314W        W10378   9.158   0.880   9.915
 6315W        W10379   2.758   5.122  10.483
 6316W        W10380   7.478   2.867   2.935
 6317W        W10381   2.260   5.763   1.359
 6318W        W10382   1.221   0.479  11.547
 6319W        W10383   9.462   1.083  11.849
 6320W        W10384   6.081   8.812   9.949
 6321W        W10385   1.396   3.763   3.496
 6322W        W10386   4.828   8.904  11.820
 6323W        W10387   3.320   5.985   2.782
 6324W        W10388   9.060   2.686   9.999
 6325W        W10389   5.253   3.123   2.561
 6326W        W10390   8.950   4.967   1.344
 6327W        W10391   3.763   3.152   1.458
 6328W        W10392   3.205   7.761   1.460
 6329W        W10393  10.117   3.916   9.764
 6330W        W10394   0.022   0.364   1.687
 6331W        W10395   7.113   3.779  10.764
 6332W        W10396   7.895   3.144   8.792
 6333W        W10397   0.157   7.835   2.988
 6334W        W10398   8.442   5.139  11.861
 6335W        W10399   9.075   5.535   1.007
 6336W        W10400   5.771   1.593   3.430
 6337W        W10401   4.056   1.398  10.114
 6338W        W10402   3.180   8.845   1.945
 6339W        W10403   3.346   0.047   9.871
 6340W        W10404   2.444   6.469  10.237
 6341W        W10405   9.362   5.860   0.278
 6342W        W10406   3.128   6.566   3.498
 6343W        W10407   3.807  10.046   1.874
 6344W        W10408   3.335  10.036   9.789
 6345W        W10409   5.028   0.224   1.875
 6346W        W10410   5.295   8.075  10.322
 6347W        W10411   1.372   9.018   2.028
 6348W        W10412   1.395   2.264  10.130
 6349W        W10413   1.856   2.607   3.405
 6350W        W10414   0.191   3.742   2.742
 6351W        W10415   5.762   6.581  11.155
 6352W        W10416   8.026   9.373  11.378
 6353W        W10417   6.174   1.854  11.048
 6354W        W10418   5.097   8.101  11.351
 6355W        W10419   4.525   1.368   9.902
 6356W        W10420   6.155   7.086   0.477
 6357W        W10421   3.062   1.861   0.977
 6358W        W10422   6.962   4.670   1.484
 6359W        W10423   1.017  10.148   8.656
 6360W        W10424   6.331   8.267   3.249
 6361W        W10425   2.468   4.264  10.523
 6362W        W10426   2.126   0.777   9.947
 6363W        W10427   7.203   9.801   0.702
 6364W        W10428   9.479   1.715   1.968
 6365W        W10429   1.796   9.321   9.179
 6366W        W10430   5.584   8.671  11.821
 6367W        W10431   9.768   4.594  11.310
 6368W        W10432   7.103   5.930   2.624
 6369W        W10433   1.835   5.671  10.996
 6370W        W10434   9.350   4.947  11.954
 6371W        W10435   3.091   1.337   9.097
 6372W        W10436   7.876  10.248  11.505
 6373W        W10437   1.551   0.212  11.875
 6374W        W10438   6.350   5.597   2.519
 6375W        W10439   8.556   0.991  11.049
 6376W        W10440   0.632   4.584   1.857
 6377W        W10441   7.511   7.127   0.666
 6378W        W10442   6.640   4.736   3.134
 6379W        W10443   8.535  10.358   3.087
 6380W        W10444   8.004   1.828   2.748
 6381W        W10445   7.062   0.480   0.618
 6382W        W10446   2.238   3.229   2.343
 6383W        W10447   3.188   4.700   9.555
 6384W        W10448   9.295   9.877  10.536
 6385W        W10449   5.345   3.088   2.067
 6386W        W10450   4.206   7.965   3.373
 6387W        W10451   2.356   4.066   2.396
 6388W        W10452   0.729   4.221   0.699
 6389W        W10453   9.433   9.679   9.099
 6390W        W10454   5.750   1.153  11.982
 6391W        W10455   8.902   2.315   2.000
 6392W        W10456   6.945   0.418   8.952
 6393W        W10457   8.940   5.684   1.957
 6394W        W10458   1.716   3.775  10.779
 6395W        W10459   9.680   3.551   3.548
 6396W        W10460   8.458   8.499  10.877
 6397W        W10461   8.088   0.443   0.613
 6398W        W10462   0.784   3.140  10.053
 6399W        W10463   6.221   9.599   0.977
 6400W        W10464   5.314   9.944   0.953
 6401W        W10465  10.063   3.178   2.089
 6402W        W10466  10.381   9.290  10.018
 6403W        W10467   6.017   7.150  11.295
 6404W        W10468   2.359   1.470   1.279
 6405W        W10469   6.710   3.217  10.265
 6406W        W10470   3.674   9.097   3.184
 6407W        W10471   2.849   6.151   8.765
 6408W        W10472   3.270   4.764   2.227
 6409W        W10473   3.586  10.465   0.699
 6410W        W10474   8.966   7.562   8.701
 6411W        W10475   9.701   8.758   9.072
 6412W        W10476  10.393   2.129   2.968
 6413W        W10477   2.373   2.113  10.513
 6414W        W10478   2.057   3.249   9.746
 6415W        W10479   6.877   1.830   1.872
 6416W        W10480   9.934   1.367   2.037
 6417W        W10481   9.806   9.082   2.838
 6418W        W10482   2.964   4.296  10.643
 6419W        W10483   5.595   4.488   9.422
 6420W        W10484   5.532   3.325   3.484
 6421W        W10485   0.453   7.262  11.539
 6422W        W10486   2.177   3.765  11.644
 6423W        W10487  10.070   3.500   8.982
 6424W        W10488   2.733   3.115   9.006
 6425W        W10489   8.613   3.856  10.619
 6426W        W10490   3.767   3.104   3.502
 6427W        W10491   7.279   7.166   2.789
 6428W        W10492   1.856   5.012   1.153
 6429W        W10493   6.839   9.876   9.406
 6430W        W10494   3.604   5.041   2.642
 6431W        W10495   0.389   7.856   0.448
 6432W        W10496   8.966   9.361   1.298
 6433W        W10497   5.794   1.761   9.476
 6434W        W10498   2.178   6.508   0.294
 6435W        W10499   5.324   2.873  10.955
 6436W        W10500   8.983   9.516   9.279
 6437W        W10501   7.202   5.230   8.465
 6438W        W10502   5.146   6.610  10.419
 6439W        W10503   9.486   4.059   0.266
 6440W        W10504   8.342   1.844   0.781
 6441W        W10505   9.152   6.067   3.700
 6442W        W10506   8.841   8.398   3.146
 6443W        W10507   1.716   0.552   0.238
 6444W        W10508   1.305  10.475  11.460
 6445W        W10509   9.974   8.558   2.439
 6446W        W10510   8.432   5.996   1.762
 6447W        W10511   1.224   7.180   3.049
 6448W        W10512   5.692   8.354   9.548
 6449W        W10513   4.279   4.772   8.613
 6450W        W10514   9.966   7.914  11.110
 6451W        W10515   7.323   5.093   3.080
 6452W        W10516   8.060   2.265   1.964
 6453W        W10517   6.456   9.840   0.461
 6454W        W10518   4.987   3.669   9.382
 6455W        W10519   6.164   6.315  11.359
 6456W        W10520   1.889   0.384   3.029
 6457W        W10521   2.202   4.677   9.441
 6458W        W10522   6.494   9.615   9.724
 6459W        W10523   4.936   8.047   2.272
 6460W        W10524   4.428   2.616   1.829
 6461W        W10525  10.257   9.646  10.968
 6462W        W10526   6.230   5.191   2.256
 6463W        W10527   5.463   3.331   1.501
 6464W        W10528   0.723   7.822   9.047
 6465W        W10529   6.205  10.443   3.176
 6466W        W10530   6.327   2.837   0.802
 6467W        W10531   5.448   1.142  10.504
 6468W        W10532   4.680   2.744  10.106
 6469W        W10533   1.835   6.156   2.234
 6470W        W10534   6.233   5.029   3.319
 6471W        W10535   1.623   6.553   8.839
 6472W        W10536   6.063   6.092   1.813
 6473W        W10537   5.692   4.317   1.379
 6474W        W10538   3.828   7.745   0.361
 6475W        W10539   0.417   6.545   3.400
 6476W        W10540   0.879   4.985  10.288
 6477W        W10541   0.155  10.224   2.072
 6478W        W10542   5.272   2.700  11.858
 6479W        W10543   9.572   3.122   0.262
 6480W        W10544  10.186   6.490   8.575
 6481W        W10545   5.249  10.436   2.829
 6482W        W10546   7.436   9.114   9.511
 6483W        W10547   4.471   6.468   0.153
 6484W        W10548   8.670   9.580   2.768
 6485W        W10549   2.382   4.236   1.401
 6486W        W10550  10.369   2.189   0.940
 6487W        W10551   8.007   7.935  10.016
 6488W        W10552   1.457   9.592  11.496
 6489W        W10553   5.604   7.196   3.532
 6490W        W10554   2.857   6.935   8.661
 6491W        W10555   3.022   3.493   0.533
 6492W        W10556   0.371   9.935   3.279
 6493W        W10557   5.503   9.372   2.247
 6494W        W10558   7.694   3.281   1.257
 6495W        W10559   6.253   4.037   4.133
 6496W        W10560   8.102   0.715   1.449
 6497W        W10561   0.404   4.111   1.336
 6498W        W10562   3.543   0.532  11.048
 6499W        W10563   4.788   9.855   1.749
 6500W        W10564   5.041   6.566   3.362
 6501W        W10565   1.840   1.389   0.986
 6502W        W10566   6.212   5.223   1.765
 6503W        W10567  10.034   5.807   2.332
 6504W        W10568   8.620   1.653  11.847
 6505W        W10569   6.047   8.549   1.901
 6506W        W10570   7.402   9.206   2.957
 6507W        W10571   8.868   8.353   1.935
 6508W        W10572   7.404   1.248   2.458
 6509W        W10573   9.572   9.493  11.556
 6510W        W10574   0.959   6.864   0.816
 6511W        W10575   7.000   0.794  11.394
 6512W        W10576   1.233   1.305   2.266
 6513W        W10577   1.671   9.073   3.371
 6514W        W10578   4.036   5.884  10.069
 6515W        W10579   2.649   2.488  11.778
 6516W        W10580   1.592   7.450  10.413
 6517W        W10581   1.173   0.999   1.341
 6518W        W10582   6.121   4.467   1.112
 6519W        W10583   3.341   2.568   1.885
 6520W        W10584   5.820   2.702  10.948
 6521W        W10585   8.316   7.298   1.151
 6522W        W10586   6.245   7.788   0.410
 6523W        W10587   0.550   4.069  10.455
 6524W        W10588   6.538   2.742   2.440
 6525W        W10589   2.202   2.826   1.144
 6526W        W10590   0.633  10.293   1.918
 6527W        W10591   6.300   1.338  10.241
 6528W        W10592   8.921   4.006   9.087
 6529W        W10593   8.819   2.799   0.528
 6530W        W10594   3.199   6.719   1.547
 6531W        W10595   5.191   0.887   1.899
 6532W        W10596   8.067   7.735   1.165
 6533W        W10597   8.260  10.482   9.711
 6534W        W10598   1.761   3.040   2.517
 6535W        W10599   1.792   6.117  10.699
 6536W        W10600   9.434   2.406   1.404
 6537W        W10601   4.932   6.377   1.950
 6538W        W10602   9.396   5.434   2.691
 6539W        W10603   4.810   8.650   9.874
 6540W        W10604   2.163   6.530  11.259
 6541W        W10605   4.662   3.309   2.631
 6542W        W10606   5.702   0.231  10.943
 6543W        W10607   1.404   8.514   2.749
 6544W        W10608   2.730   6.036  10.289
 6545W        W10609   2.792   2.214   0.242
 6546W        W10610   3.773   5.443   3.458
 6547W        W10611   4.569   6.031   2.027
 6548W        W10612   6.445   2.319   9.096
 6549W        W10613   1.859   2.219   2.745
 6550W        W10614   8.806   1.331   3.078
 6551W        W10615   7.186   1.065  10.807
 6552W        W10616   2.387   2.337   1.874
 6553W        W10617   0.929   1.131  10.231
 6554W        W10618   6.598   0.783   2.735
 6555W        W10619   0.366   9.902   2.786
 6556W        W10620   4.510   2.597   9.111
 6557W        W10621   2.186   1.415   9.332
 6558W        W10622   3.685   5.364   0.375
 6559W        W10623   8.544   6.359   0.254
 6560W        W10624   7.235  10.311  11.868
 6561W        W10625   3.623   8.450  10.530
 6562W        W10626   4.702   8.914   2.625
 6563W        W10627   7.916   2.713   2.743
 6564W        W10628   3.206   0.923   0.949
 6565W        W10629   1.582   3.101   0.720
 6566W        W10630   5.428   8.033   2.330
 6567W        W10631   9.348   3.620   2.414
 6568W        W10632   4.256   5.676  11.741
 6569W        W10633   1.137   2.928   8.503
 6570W        W10634   9.066   6.418  11.021
 6571W        W10635   3.778   6.954  10.493
 6572W        W10636   8.825   3.745   1.945
 6573W        W10637   9.946   7.743   3.564
 6574W        W10638   6.609   0.524   0.265
 6575W        W10639   3.315   6.600   9.783
 6576W        W10640  10.078   9.305  11.278
 6577W        W10641   5.798   4.295   3.109
 6578W        W10642   5.613   3.210   0.457
 6579W        W10643   0.773   9.013   3.218
 6580W        W10644   7.787   7.171  10.128
 6581W        W10645   8.474   6.035   9.038
 6582W        W10646   1.494   0.048   2.881
 6583W        W10647   0.426   0.329   0.764
 6584W        W10648   3.621   5.489  10.344
 6585W        W10649   8.832  10.316   0.864
 6586W        W10650   8.584   8.535   8.953
 6587W        W10651   5.859   4.396   2.168
 6588W        W10652   0.182   6.510   8.730
 6589W        W10653   6.567   6.786   8.809
 6590W        W10654   0.116   8.602  10.907
 6591W        W10655   7.844   3.654   9.340
 6592W        W10656   3.010   7.084   1.871
 6593W        W10657   7.872   7.601   2.167
 6594W        W10658   5.169  10.215   1.873
 6595W        W10659   5.732   4.081   4.001
 6596W        W10660   5.491   7.607  11.837
 6597W        W10661   6.167   2.803  11.948
 6598W        W10662   4.899   8.684   8.494
 6599W        W10663   5.516   0.754   0.204
 6600W        W10664   8.354   6.000   0.889
 6601W        W10665   5.157   5.993   2.762
 6602W        W10666   8.583   4.179   1.737
 6603W        W10667   6.206   3.719  10.406
 6604W        W10668   2.193   2.296   0.962
 6605W        W10669   9.430   5.361   0.268
 6606W        W10670   7.463   3.083   9.741
 6607W        W10671   5.803   4.763   3.337
 6608W        W10672   1.982   6.125  11.720
 6609W        W10673   4.140   4.893   9.785
 6610W        W10674   5.903   1.383   9.819
 6611W        W10675   1.857   6.947   1.456
 6612W        W10676   4.998   1.675   2.523
 6613W        W10677   3.753   2.259   2.090
 6614W        W10678   6.946   6.290   9.475
 6615W        W10679   3.405   1.901  11.249
 6616W        W10680   1.800   0.855   0.636
 6617W        W10681   3.338   4.494   0.802
 6618W        W10682   9.756   4.195   2.941
 6619W        W10683   4.439  10.421   8.660
 6620W        W10684   0.265   6.206  10.270
 6621W        W10685   3.304   1.143   2.779
 6622W        W10686   1.813   5.681   8.697
 6623W        W10687   8.557   8.475   8.430
 6624W        W10688   5.091   1.415  10.692
 6625W        W10689   0.772   5.479   1.504
 6626W        W10690   9.257   8.210   2.907
 6627W        W10691   6.520   5.610  11.172
 6628W        W10692  10.364   5.972  11.307
 6629W        W10693   9.472   6.888   0.075
 6630W        W10694   9.677   2.505  11.519
 6631W        W10695   7.542   8.481   8.429
 6632W        W10696   7.956   1.405   9.371
 6633W        W10697   0.813   7.505   1.387
 6634W        W10698   0.902   3.595   0.280
 6635W        W10699   1.606   0.807  11.325
 6636W        W10700  10.255   7.453  11.289
 6637W        W10701   8.426   8.057  11.871
 6638W        W10702   7.032   2.274   3.560
 6639W        W10703   3.111   3.549  11.089
 6640W        W10704   0.334   5.791   1.006
 6641W        W10705   4.261   0.743  10.879
 6642W        W10706   7.971   6.955   0.429
 6643W        W10707   1.400   7.558  11.844
 6644W        W10708   4.966   3.518   9.876
 6645W        W10709   1.896   7.203   2.301
 6646W        W10710   1.283   6.305  11.299
 6647W        W10711   4.195   8.562   1.792
 6648W        W10712   4.951  10.315  10.140
 6649W        W10713   7.980   4.104  10.523
 6650W        W10714   8.971   2.821   9.522
 6651W        W10715   2.421   6.172   9.032
 6652W        W10716   1.028   8.490  10.712
 6653W        W10717   8.991   9.958   1.962
 6654W        W10718   1.267   9.040   3.034
 6655W        W10719   7.259   3.940   9.213
 6656W        W10720   7.172   0.493   0.122
 6657W        W10721   8.713  10.432   9.969
 6658W        W10722   2.779   6.897   2.273
 6659W        W10723   4.743   7.359  11.152
 6660W        W10724   2.203   3.700   0.663
 6661W        W10725   4.761   3.603   1.007
 6662W        W10726   9.224   1.819   3.586
 6663W        W10727   9.883   3.798  10.965
 6664W        W10728   6.398   9.537   3.436
 6665W        W10729   3.305   4.586   2.746
 6666W        W10730   3.287   7.037   0.175
 6667W        W10731   6.717   9.570   0.848
 6668W        W10732   5.651   9.248   3.342
 6669W        W10733   4.248   1.304   0.697
 6670W        W10734   8.810   3.797  11.721
 6671W        W10735  10.037   2.225   0.215
 6672W        W10736   6.104   0.909   8.964
 6673W        W10737   6.349   0.773   3.541
 6674W        W10738   9.127   1.468   1.698
 6675W        W10739   2.293  10.228  11.443
 6676W        W10740   0.689   7.868   9.556
 6677W        W10741   4.345   3.097   2.284
 6678W        W10742   2.456   9.686   9.611
 6679W        W10743   0.779   1.920   1.815
 6680W        W10744   5.573   9.855   2.728
 6681W        W10745   0.032   0.685   2.673
 6682W        W10746   0.374   4.999  10.242
 6683W        W10747   2.840   7.411   9.883
 6684W        W10748   8.675   1.230   1.952
 6685W        W10749   9.972   4.838   3.243
 6686W        W10750  10.091   8.648   2.958
 6687W        W10751   2.661   6.242   9.819
 6688W        W10752   6.637   5.727  10.697
 6689W        W10753   2.162   8.239  11.874
 6690W        W10754   5.282   6.923  10.041
 6691W        W10755   0.250   5.959   2.923
 6692W        W10756   1.017   7.623  11.443
 6693W        W10757   8.123   3.509   0.743
 6694W        W10758  10.442  10.211  11.317
 6695W        W10759   0.564   9.433   2.902
 6696W        W10760   6.464   2.340  10.482
 6697W        W10761   4.216   7.072  11.678
 6698W        W10762   6.387   5.126   2.738
 6699W        W10763   2.221   1.636   0.654
 6700W        W10764   9.018   1.909   9.036
 6701W        W10765   2.276   2.697   3.080
 6702W        W10766   0.373   3.603   1.252
 6703W        W10767   8.852   8.604   9.623
 6704W        W10768   5.989   2.334   0.250
 6705W        W10769   6.319   9.812   1.723
 6706W        W10770   2.563   7.333  10.743
 6707W        W10771   3.232   8.895   0.535
 6708W        W10772   3.316   4.201  10.270
 6709W        W10773   0.033   8.459   9.067
 6710W        W10774   7.409  10.191   0.953
 6711W        W10775   3.165   1.840   9.878
 6712W        W10776   8.087   3.128   2.501
 6713W        W10777   6.013   4.581   8.640
 6714W        W10778   4.591   4.097   1.783
 6715W        W10779   0.192   8.980   8.910
 6716W        W10780   4.168   3.305   2.759
 6717W        W10781   2.665   5.672  11.258
 6718W        W10782   7.068  10.477   0.723
 6719W        W10783   2.296   1.180   0.853
 6720W        W10784   3.771   5.495   2.447
 6721W        W10785   4.024   4.140   9.479
 6722W        W10786   9.774   5.939   1.907
 6723W        W10787   3.229  10.227  11.068
 6724W        W10788   0.034   7.585   0.712
 6725W        W10789   4.118   5.946  10.924
 6726W        W10790   6.995   3.356  11.073
 6727W        W10791   1.276   9.939   2.891
 6728W        W10792   7.396  10.414   9.526
 6729W        W10793   2.307   7.540   3.259
 6730W        W10794  10.375   1.212   8.863
 6731W        W10795   5.177   6.038   1.322
 6732W        W10796   8.322   3.087   3.372
 6733W        W10797   9.923   7.088   3.460
 6734W        W10798   7.008   9.992   3.102
 6735W        W10799   4.283   1.670   1.401
 6736W        W10800   6.562   3.557  11.551
 6737W        W10801   1.335  10.008   0.941
 6738W        W10802   3.664   5.763   8.876
 6739W        W10803   9.972   3.364   0.773
 6740W        W10804   4.470   7.924   2.396
 6741W        W10805   6.523   5.710   1.126
 6742W        W10806   0.903   6.198   0.387
 6743W        W10807   0.875   5.976   1.291
 6744W        W10808  10.330   3.986   0.649
 6745W        W10809   6.554   7.055   2.205
 6746W        W10810   9.518  10.257  10.272
 6747W        W10811   9.598   2.406   2.949
 6748W        W10812   6.377   1.776   1.898
 6749W        W10813   2.188   8.966   0.732
 6750W        W10814   5.080   7.200   0.762
 6751W        W10815   3.277   6.080   1.894
 6752W        W10816   7.568  10.062   0.480
 6753W        W10817   0.391   9.426   0.402
 6754W        W10818   6.967   4.246   8.927
 6755W        W10819   5.685   6.037   1.467
 6756W        W10820   9.191   3.290  11.931
 6757W        W10821   6.572   8.638  10.057
 6758W        W10822   4.654   8.474  10.945
 6759W        W10823   9.951   3.828   3.212
 6760W        W10824   5.111   0.863  11.926
 6761W        W10825   0.241   5.856   9.753
 6762W        W10826   5.546   1.162   1.090
 6763W        W10827   4.171   3.644   3.171
 6764W        W10828   2.275   6.714   3.037
 6765W        W10829   7.665   0.859  10.934
 6766W        W10830   6.862   9.445   2.455
 6767W        W10831  10.258   7.923   9.238
 6768W        W10832   2.624   8.792   2.110
 6769W        W10833   8.983   6.675   0.058
 6770W        W10834   1.613   9.002   1.034
 6771W        W10835   8.003   0.443   0.037
 6772W        W10836   2.319   4.721   1.218
 6773W        W10837   2.596   9.860   1.456
 6774W        W10838   6.657   5.385  10.335
 6775W        W10839   7.449   2.734   8.436
 6776W        W10840   8.856   1.782   0.780
 6777W        W10841   1.232   5.451  10.903
 6778W        W10842   5.305   6.483  11.420
 6779W        W10843   2.362   8.663   1.141
 6780W        W10844   5.485   0.414   9.906
 6781W        W10845   8.871   2.578   2.433
 6782W        W10846   6.690   9.039   8.934
 6783W        W10847   5.436   7.137   9.602
 6784W        W10848   0.158   8.447   8.579
 6785W        W10849   8.566   4.268   0.726
 6786W        W10850   8.924   3.092  10.332
 6787W        W10851   5.194   0.855   3.138
 6788W        W10852   7.633   1.250   0.109
 6789W        W10853   7.645   9.153   0.891
 6790W        W10854   5.561   4.338  10.735
 6791W        W10855   9.809   2.891   0.925
 6792W        W10856   1.756  10.230   0.749
 6793W        W10857   2.385   4.670   1.732
 6794W        W10858   6.347   8.349   0.354
 6795W        W10859   0.251   4.562   1.499
 6796W        W10860   5.212   2.907   1.623
 6797W        W10861   6.782   9.540   9.033
 6798W        W10862   3.507   8.544   3.104
 6799W        W10863   1.434   8.608  10.386
 6800W        W10864   8.917   6.648   1.987
 6801W        W10865   1.732   8.585   3.143
 6802W        W10866   5.092   4.141   3.345
 6803W        W10867   8.172   9.587   3.501
 6804W        W10868   6.171   9.859  10.071
 6805W        W10869   7.796   5.928  10.067
 6806W        W10870   4.166   0.880   0.384
 6807W        W10871   9.837   7.457   9.322
 6808W        W10872   4.285   0.414   0.224
 6809W        W10873   7.136   6.045   8.574
 6810W        W10874   1.250   9.855  10.784
 6811W        W10875   9.378   0.551  11.949
 6812W        W10876  10.256   5.780   0.221
 6813W        W10877   1.656   0.765   3.315
 6814W        W10878   2.456   4.607   0.724
 6815W        W10879   5.532   7.960   9.805
 6816W        W10880   5.189   5.654  10.404
 6817W        W10881   4.717   9.126   9.709
 6818W        W10882   8.333   3.268  11.276
 6819W        W10883  10.042  10.444   9.455
 6820W        W10884   6.881   8.966   1.671
 6821W        W10885   3.241   0.200  10.809
 6822W        W10886   4.473   8.074  10.696
 6823W        W10887   6.812   4.280  11.706
 6824W        W10888   9.845   4.790   2.361
 6825W        W10889   5.777   6.145   0.099
 6826W        W10890   5.114   1.395   1.811
 6827W        W10891   3.561   4.655  10.401
 6828W        W10892   5.669   8.400  11.370
 6829W        W10893   4.585   1.008   2.936
 6830W        W10894   0.546   3.310   2.815
 6831W        W10895   0.138   8.879   9.407
 6832W        W10896   4.968   1.694   0.045
 6833W        W10897  10.356   3.277   1.663
 6834W        W10898   8.979   0.985   8.930
 6835W        W10899   6.428   0.335  10.405
 6836W        W10900   3.328   9.592   0.109
 6837W        W10901   9.939   4.189   2.464
 6838W        W10902  10.285   2.220   2.462
 6839W        W10903   1.215   3.065   1.604
 6840W        W10904   2.981   1.739  11.497
 6841W        W10905   5.423   5.684   2.372
 6842W        W10906   8.876   3.678   9.476
 6843W        W10907   0.725   3.281   3.305
 6844W        W10908   3.949   8.923  11.969
 6845W        W10909   9.429   6.972   3.482
 6846W        W10910   6.633   5.413   1.954
 6847W        W10911   7.590   0.582   1.340
 6848W        W10912   5.597   7.008   2.313
 6849W        W10913   7.132   1.311   0.200
 6850W        W10914   5.439  10.394   0.286
 6851W        W10915   8.535  10.244   8.707
 6852W        W10916   8.892   7.157   0.230
 6853W        W10917   4.070   7.130  10.894
 6854W        W10918   8.837   5.095   9.829
 6855W        W10919   3.739   5.079   9.099
 6856W        W10920   0.377   2.236  11.928
 6857W        W10921   7.232   8.804   8.745
 6858W        W10922   0.069   9.412   3.494
 6859W        W10923   0.290   1.729  11.712
 6860W        W10924   1.772   2.098  11.622
 6861W        W10925   7.713   2.254   8.396
 6862W        W10926   4.016   4.154   3.103
 6863W        W10927   3.271  10.279  11.584
 6864W        W10928   7.582   1.665  10.251
 6865W        W10929   9.272   5.148   3.330
 6866W        W10930   9.585  10.002   0.744
 6867W        W10931   0.583   3.295  11.292
 6868W        W10932   1.766   2.592   9.106
 6869W        W10933   4.923   6.059   3.261
 6870W        W10934   9.891   6.819   2.246
 6871W        W10935   2.466   5.544   2.215
 6872W        W10936   5.010   1.728   3.125
 6873W        W10937   6.753   2.590   0.835
 6874W        W10938   5.459   2.228   9.599
 6875W        W10939   6.406   1.188   9.774
 6876W        W10940   7.958   2.284  11.879
 6877W        W10941   1.336   2.816   8.951
 6878W        W10942   1.267   7.359   0.326
 6879W        W10943   4.934   1.871   0.886
 6880W        W10944   0.836   4.268  10.834
 6881W        W10945   7.372   9.110  11.169
 6882W        W10946  10.035   5.205   9.301
 6883W        W10947   4.323   3.124  11.860
 6884W        W10948   3.396   1.295   0.255
 6885W        W10949   9.946   5.387   9.912
 6886W        W10950   7.466   4.049   3.876
 6887W        W10951   6.260   4.050   2.176
 6888W        W10952   2.101   1.898   1.969
 6889W        W10953   0.610   7.576   2.352
 6890W        W10954   6.447   3.337   9.013
 6891W        W10955   9.706   6.834   1.768
 6892W        W10956   5.666   8.866   3.006
 6893W        W10957  10.442   1.401   2.461
 6894W        W10958   0.330   4.214   2.032
 6895W        W10959   3.958   1.772  11.731
 6896W        W10960   0.367   1.765  10.315
 6897W        W10961   6.633   3.713   2.988
 6898W        W10962   8.605   5.542   0.817
 6899W        W10963   7.970   4.811   3.520
 6900W        W10964   7.155   9.424  11.991
 6901W        W10965   1.787   6.159  11.218
 6902W        W10966   2.616   7.941  11.984
 6903W        W10967   8.501   0.903  11.566
 6904W        W10968  10.091   5.496  10.484
 6905W        W10969   8.467   5.684   3.170
 6906W        W10970   3.699   0.251   9.557
 6907W        W10971   6.032   9.455   1.995
 6908W        W10972   0.877   0.657   8.481
 6909W        W10973   0.521  10.319   8.722
 6910W        W10974   9.006   9.291   8.750
 6911W        W10975   6.153   1.373  11.739
 6912W        W10976   0.058   8.511  10.399
 6913W        W10977   6.513   9.814  10.944
 6914W        W10978   2.692   2.600   8.933
 6915W        W10979   7.902   2.956  11.272
 6916W        W10980   0.899   3.548   9.227
 6917W        W10981   6.646   4.477  10.491
 6918W        W10982   2.590   5.132  11.007
 6919W        W10983   8.616   5.574  11.680
 6920W        W10984   4.422   1.327   0.234
 6921W        W10985   5.206   6.221   0.803
 6922W        W10986   6.466  10.028   8.237
 6923W        W10987   4.225   5.610   2.732
 6924W        W10988   9.953   7.989  10.125
 6925W        W10989   2.415   7.746   0.729
 6926W        W10990   9.005   3.629   1.181
 6927W        W10991   7.352   5.403  11.817
 6928W        W10992   8.321   3.675  11.848
 6929W        W10993   6.471   7.106   9.600
 6930W        W10994   9.962   7.079   0.079
 6931W        W10995   3.783   5.512   2.962
 6932W        W10996  10.481   0.908  11.890
 6933W        W10997   7.604  10.275   2.996
 6934W        W10998   5.113  10.439   3.360
 6935W        W10999   9.514   4.253   1.232
 6936W        W11000   7.567   4.662   3.187
 6937W        W11001   3.211  10.334   2.436
 6938W        W11002   6.941   3.122   3.685
 6939W        W11003   9.374   8.340  10.936
 6940W        W11004   7.940   7.091   3.298
 6941W        W11005   7.526   7.836   9.404
 6942W        W11006   8.447   3.350   2.823
 6943W        W11007   4.603   3.551   2.083
 6944W        W11008   6.446   4.935  10.449
 6945W        W11009   7.555   1.436   1.530
 6946W        W11010   6.039   4.587   0.564
 6947W        W11011   3.862   7.285   2.844
 6948W        W11012   8.571   0.667   1.693
 6949W        W11013   8.519   1.407  11.387
 6950W        W11014   1.240   4.703   1.358
 6951W        W11015   7.466   7.755  11.903
 6952W        W11016  10.335   2.745   9.117
 6953W        W11017   7.939   9.924   2.815
 6954W        W11018   4.501   6.627   2.195
 6955W        W11019   0.820   4.711   0.858
 6956W        W11020   7.068   4.730  11.543
 6957W        W11021   5.198   2.229  10.591
 6958W        W11022   1.692   4.715   0.451
 6959W        W11023   8.525  10.227   1.257
 6960W        W11024   0.114   8.025   1.000
 6961W        W11025   4.634   7.410  10.308
 6962W        W11026   8.409   9.014  11.528
 6963W        W11027   7.176   9.201   9.059
 6964W        W11028   6.275   6.084   9.947
 6965W        W11029   9.864  10.441   8.921
 6966W        W11030   5.942   1.908   0.608
 6967W        W11031   2.765   2.738   0.481
 6968W        W11032   0.277   5.138   2.166
 6969W        W11033   4.053   9.057   1.909
 6970W        W11034   1.883   5.096   1.671
 6971W        W11035   9.026   4.090   0.937
 6972W        W11036   0.406   5.607   0.520
 6973W        W11037   6.718   4.248   3.288
 6974W        W11038  10.450   7.890   3.496
 6975W        W11039   1.999   1.714  10.099
 6976W        W11040   7.597   0.683   3.125
 6977W        W11041   7.571   2.094   3.700
 6978W        W11042   1.218   8.639  11.687
 6979W        W11043   2.781   5.306  10.005
 6980W        W11044   2.428   2.639   3.562
 6981W        W11045  10.329   2.162   1.487
 6982W        W11046   6.017   1.714   8.643
 6983W        W11047   9.377   8.595   1.099
 6984W        W11048   0.763   3.715   0.788
 6985W        W11049   4.189   7.438   1.558
 6986W        W11050   6.328   4.667   0.143
 6987W        W11051   3.582   1.962   9.543
 6988W        W11052   3.112   6.382   3.986
 6989W        W11053   8.574   4.855   2.754
 6990W        W11054   9.348   0.168   9.015
 6991W        W11055   3.633   4.164   1.617
 6992W        W11056   1.607   4.201   0.784
 6993W        W11057   3.395   7.421   9.245
 6994W        W11058   9.885   9.073   9.444
 6995W        W11059   5.642   4.530   0.885
 6996W        W11060   2.234   4.695  10.345
 6997W        W11061  10.027   2.121  10.662
 6998W        W11062   9.245   9.843  11.802
 6999W        W11063   5.115  10.043   0.500
 7000W        W11064   1.191   0.315   2.544
 7001W        W11065   7.475   0.980  11.471
 7002W        W11066   9.976   2.288  11.175
 7003W        W11067   3.378   1.816  10.366
 7004W        W11068   7.992   4.795   9.982
 7005W        W11069   9.356   7.526   2.848
 7006W        W11070   6.405   0.350   2.926
 7007W        W11071   1.728   4.882   9.421
 7008W        W11072   3.696   1.498   9.382
 7009W        W11073   9.915   8.044   0.437
 7010W        W11074   8.843   1.011   0.373
 7011W        W11075   5.504   7.196  10.482
 7012W        W11076   2.397   9.445   0.688
 7013W        W11077   3.840   4.235  10.409
 7014W        W11078   4.822   4.222   2.231
 7015W        W11079   4.603   2.417   0.153
 7016W        W11080   8.425   5.560   0.147
 7017W        W11081   3.666  10.062  11.316
 7018W        W11082   9.067   4.786  11.339
 7019W        W11083   9.638   7.081   9.929
 7020W        W11084   4.592   8.589   8.899
 7021W        W11085   4.799   4.034  10.333
 7022W        W11086   1.963   0.789   9.018
 7023W        W11087   8.442  10.029   2.665
 7024W        W11088  10.096   5.636   3.634
 7025W        W11089   5.199   2.222   3.175
 7026W        W11090   6.906   5.537   0.032
 7027W        W11091   2.237   0.032   9.044
 7028W        W11092   8.125   5.137   2.582
 7029W        W11093   8.305   0.592  10.383
 7030W        W11094  10.018   5.278   8.788
 7031W        W11095   9.237   9.040  10.344
 7032W        W11096  10.054   4.599   2.784
 7033W        W11097   9.012   4.671  10.141
 7034W        W11098   5.762   4.807   1.288
 7035W        W11099   7.224   6.395   3.288
 7036W        W11100   1.689   3.590   9.816
 7037W        W11101   7.565   4.868   2.207
 7038W        W11102   3.730   1.819   8.990
 7039W        W11103   8.602   5.372   2.665
 7040W        W11104   4.066   9.950   3.161
 7041W        W11105   4.215   2.926   1.500
 7042W        W11106   7.128   4.542   3.447
 7043W        W11107   6.936   6.947  11.478
 7044W        W11108   9.788   4.501   0.251
 7045W        W11109   6.650   4.147   1.834
 7046W        W11110   2.635   6.819  10.866
 7047W        W11111   6.898   9.585   0.374
 7048W        W11112   1.885   3.415   8.524
 7049W        W11113  10.435   4.056   8.334
 7050W        W11114   5.440   9.432   9.011
 7051W        W11115   8.943   7.572   9.754
 7052W        W11116   1.309   3.833   0.071
 7053W        W11117   1.033   4.682   8.497
 7054W        W11118   4.555   3.591   9.079
 7055W        W11119   5.537   1.612   8.512
 7056W        W11120   0.860   7.955  10.020
 7057W        W11121  10.438  10.487  11.821
 7058W        W11122   1.441   2.268   1.386
 7059W        W11123   7.370   9.427   2.300
 7060W        W11124   5.533   6.709  11.954
 7061W        W11125   8.852   2.405   0.074
 7062W        W11126   6.427   3.110   8.542
 7063W        W11127   8.950   0.700  11.744
 7064W        W11128   0.295   4.490  11.485
 7065W        W11129   4.709   6.678   8.566
 7066W        W11130   6.708   6.756   9.301
 7067W        W11131   0.561   1.163   0.329
 7068W        W11132   9.261   2.416  11.792
 7069W        W11133   5.294   1.855  11.668
 7070W        W11134   1.183   1.797  11.863
 7071W        W11135   0.066   4.294   9.639
 7072W        W11136   1.023   3.284   2.416
 7073W        W11137   2.710   7.909   1.456
 7074W        W11138   3.265   6.049   9.050
 7075W        W11139   9.819   2.229   2.213
 7076W        W11140   4.279   2.197   1.466
 7077W        W11141   6.511   6.283   1.732
 7078W        W11142   3.085   6.556   2.005
 7079W        W11143   5.443   6.484   2.666
 7080W        W11144   0.827   9.842   3.098
 7081W        W11145   2.797   0.221   3.551
 7082W        W11146   7.883   2.046   0.951
 7083W        W11147   0.498   6.706   0.970
 7084W        W11148   2.203   1.263  10.497
 7085W        W11149   8.450   0.539   1.133
 7086W        W11150   7.889   1.846   1.724
 7087W        W11151   6.470   5.879   2.087
 7088W        W11152   6.659  10.357   2.875
 7089W        W11153   6.991   6.415   2.723
 7090W        W11154   4.285   2.150  11.868
 7091W        W11155   6.501   9.333   1.795
 7092W        W11156   6.096   2.735   2.729
 7093W        W11157   0.704   8.573  11.594
 7094W        W11158   2.289   7.215   1.447
 7095W        W11159   4.171  10.016  11.253
 7096W        W11160  10.286   6.481   2.257
 7097W        W11161  10.326   1.799  11.550
 7098W        W11162   9.302   4.230  10.059
 7099W        W11163   1.320   6.920  11.054
 7100W        W11164   3.738   7.486  10.536
 7101W        W11165   1.314   1.568  11.426
 7102W        W11166   9.575   0.028  11.216
 7103W        W11167   1.145   1.705  10.963
 7104W        W11168   0.372   3.273   1.766
 7105W        W11169   6.524   4.655   0.816
 7106W        W11170   0.037   9.104   0.172
 7107W        W11171   1.822   3.151   1.195
 7108W        W11172   9.868   7.490  10.848
 7109W        W11173   1.439   9.808   0.446
 7110W        W11174   1.602   4.316   1.909
 7111W        W11175   4.668   1.011   1.169
 7112W        W11176   6.889   6.656   1.314
 7113W        W11177   2.816   7.000  10.407
 7114W        W11178   3.539   7.020   9.596
 7115W        W11179   5.113   0.564   1.493
 7116W        W11180   1.989   4.276   0.440
 7117W        W11181   2.754   9.346   9.365
 7118W        W11182   9.178   8.912   3.487
 7119W        W11183   8.399   7.645   8.960
 7120W        W11184   4.044   7.001   9.586
 7121W        W11185   4.325   6.232   4.145
 7122W        W11186   0.817   0.395   1.857
 7123W        W11187   9.472   2.458   0.904
 7124W        W11188   9.853   5.046   1.536
 7125W        W11189   2.552   7.820   9.970
 7126W        W11190  10.223   0.515   3.072
 7127W        W11191   2.834   0.221   1.747
 7128W        W11192   3.334   4.777  11.050
 7129W        W11193   3.584   6.222   8.662
 7130W        W11194   9.553   2.510  11.022
 7131W        W11195   9.584   8.628   2.934
 7132W        W11196   5.538   9.363   9.510
 7133W        W11197   8.455   8.600   9.966
 7134W        W11198   7.864   5.410   8.868
 7135W        W11199   7.000   2.680   2.249
 7136W        W11200   2.661   1.893   2.648
 7137W        W11201   9.770   7.548  11.417
 7138W        W11202   6.925   3.510   9.214
 7139W        W11203   2.283   3.477  10.683
 7140W        W11204   9.179   9.125   0.443
 7141W        W11205   6.569  10.491   8.916
 7142W        W11206   9.017   2.057  10.872
 7143W        W11207   0.938   7.112  11.374
 7144W        W11208   1.425   5.600   3.289
 7145W        W11209   0.319   2.915   9.326
 7146W        W11210  10.313   5.997  10.472
 7147W        W11211   9.153   5.161   9.436
 7148W        W11212   0.523   3.249   2.297
 7149W        W11213   7.471   2.202  11.723
 7150W        W11214   0.197   1.398   3.505
 7151W        W11215  10.263   4.237  10.934
 7152W        W11216  10.372   2.924   9.612
 7153W        W11217   5.479   7.858   0.286
 7154W        W11218   4.767   7.349   1.299
 7155W        W11219   4.620   2.846   0.438
 7156W        W11220   2.373   7.421  11.236
 7157W        W11221   9.350  10.003   2.785
 7158W        W11222   6.553   5.243   3.643
 7159W        W11223   3.592   0.253   3.540
 7160W        W11224   6.214   5.702  10.376
 7161W        W11225   2.586   0.186   0.009
 7162W        W11226   1.451   4.909   1.826
 7163W        W11227   1.872   8.910   9.810
 7164W        W11228  10.262   1.092  10.982
 7165W        W11229   4.312   4.724   0.970
 7166W        W11230   1.812  10.383  11.157
 7167W        W11231   0.388   6.162   0.642
 7168W        W11232   6.784   1.693   0.879
 7169W        W11233   0.908   3.855  11.747
 7170W        W11234   6.166   3.348   8.081
 7171W        W11235   3.591   6.626   0.197
 7172W        W11236   6.984   5.018   9.374
 7173W        W11237   7.352   9.498  11.529
 7174W        W11238   4.616   9.607   1.043
 7175W        W11239   2.605   4.709  10.728
 7176W        W11240   5.474   7.046   4.000
 7177W        W11241   9.700   7.581   2.194
 7178W        W11242   9.718   2.992  11.335
 7179W        W11243   6.236   5.280   1.280
 7180W        W11244   0.321   3.159  10.322
 7181W        W11245   0.410   8.456   9.421
 7182W        W11246   3.792   8.465   2.325
 7183W        W11247   9.617   8.767   2.133
 7184W        W11248   8.345   2.288  11.490
 7185W        W11249   0.181   2.148  10.004
 7186W        W11250   4.980   0.391   9.156
 7187W        W11251   5.108   7.705   0.634
 7188W        W11252  10.039  10.278   0.798
 7189W        W11253   2.307   6.455  10.724
 7190W        W11254   4.990   5.338   1.643
 7191W        W11255   9.466   1.355   1.331
 7192W        W11256   1.880   4.436  11.486
 7193W        W11257   7.703   6.654  11.350
 7194W        W11258   6.649   5.253   3.144
 7195W        W11259   1.266   5.914   1.962
 7196W        W11260   7.135   4.017   3.060
 7197W        W11261   1.819   6.169   0.237
 7198W        W11262   7.555   7.287   2.382
 7199W        W11263   5.534   9.424  10.478
 7200W        W11264   2.697   6.397   2.327
 7201W        W11265   4.057   9.048   0.482
 7202W        W11266   6.092   2.381   0.744
 7203W        W11267   0.809   8.093   2.257
 7204W        W11268   3.183   6.530   8.821
 7205W        W11269   1.704   8.849   8.926
 7206W        W11270   1.315   5.208  10.443
 7207W        W11271   5.559   2.805   2.819
 7208W        W11272   3.222   1.857   0.502
 7209W        W11273   1.623   6.981   1.910
 7210W        W11274   6.215   3.041   9.354
 7211W        W11275   4.816   8.005   3.607
 7212W        W11276   7.505   9.553   9.248
 7213W        W11277   6.657   1.731   2.344
 7214W        W11278   2.793   2.839   9.889
 7215W        W11279  10.262   2.808  10.541
 7216W        W11280   1.787   6.913  11.271
 7217W        W11281   5.942   8.095  11.023
 7218W        W11282   4.134   5.709   2.131
 7219W        W11283   9.977   7.588   1.342
 7220W        W11284   0.822   9.417  10.054
 7221W        W11285   4.186   5.587  11.257
 7222W        W11286   1.340   8.159  11.562
 7223W        W11287   8.605   3.756   1.458
 7224W        W11288   6.887   0.916   0.411
 7225W        W11289   4.732   5.399  10.422
 7226W        W11290   9.832   8.058   2.296
 7227W        W11291   7.098  10.458   8.697
 7228W        W11292   8.116   8.181  11.324
 7229W        W11293   3.041   2.356  10.030
 7230W        W11294   7.585   6.874  10.887
 7231W        W11295   4.094   4.275   9.967
 7232W        W11296  10.293   6.221   0.475
 7233W        W11297   6.398   9.704   2.560
 7234W        W11298   5.057   9.576  11.748
 7235W        W11299   8.642   4.421   2.442
 7236W        W11300   1.622   7.256   2.734
 7237W        W11301   7.443   7.043   3.294
 7238W        W11302   9.402   5.191   1.262
 7239W        W11303   8.283   9.198   2.361
 7240W        W11304   0.319   8.175  11.593
 7241W        W11305   9.735   1.803   3.643
 7242W        W11306   8.475   8.316   2.272
 7243W        W11307   6.912   4.640   8.596
 7244W        W11308   0.597   7.191   1.037
 7245W        W11309   0.778  10.436  10.967
 7246W        W11310   4.184   9.340   2.320
 7247W        W11311   6.513   2.145   0.903
 7248W        W11312   0.794   7.001  10.273
 7249W        W11313   2.809   5.871   3.941
 7250W        W11314   4.073   6.626  11.430
 7251W        W11315   5.940   6.910  10.504
 7252W        W11316   8.378   8.564   9.461
 7253W        W11317   9.441   0.671   9.021
 7254W        W11318   8.101   5.177   0.332
 7255W        W11319   4.786   4.189   0.275
 7256W        W11320   9.874   0.865  10.301
 7257W        W11321   2.914   6.613   9.496
 7258W        W11322   6.853   5.918   0.362
 7259W        W11323  10.425   6.577   1.736
 7260W        W11324   7.387   4.467   9.837
 7261W        W11325   7.961   3.220   3.000
 7262W        W11326   1.386   4.696   0.030
 7263W        W11327   6.277   0.415   1.070
 7264W        W11328   3.122   0.857  10.176
 7265W        W11329   9.492   8.053   1.614
 7266W        W11330   2.113   4.989   0.614
 7267W        W11331   4.210   9.372  11.881
 7268W        W11332   2.803   6.971   0.935
 7269W        W11333   2.760   3.823  11.437
 7270W        W11334   1.705  10.333   9.722
 7271W        W11335   0.901   5.501   8.627
 7272W        W11336   5.943   6.873   3.316
 7273W        W11337   7.408   7.572   0.397
 7274W        W11338   5.204   0.537   2.282
 7275W        W11339   3.277   9.688  11.141
 7276W        W11340   9.257   7.070  10.330
 7277W        W11341   4.983   5.576   0.276
 7278W        W11342   1.777   1.398  11.261
 7279W        W11343   0.542   5.197   8.910
 7280W        W11344   5.739   9.416   0.914
 7281W        W11345   5.017   6.985  11.383
 7282W        W11346   0.871   9.892   1.686
 7283W        W11347   1.686   9.795   8.995
 7284W        W11348   8.981   6.609   9.556
 7285W        W11349   9.911   2.663  11.970
 7286W        W11350   8.076   8.491   8.594
 7287W        W11351   1.980   5.665   2.315
 7288W        W11352   7.877   7.473   9.247
 7289W        W11353   5.480   5.710   9.026
 7290W        W11354   0.300   3.541   9.986
 7291W        W11355  10.365   6.593  11.828
 7292W        W11356   3.336   3.066  11.991
 7293W        W11357   4.559   7.687   9.902
 7294W        W11358   8.422   2.111  11.971
 7295W        W11359   6.527   7.521  10.643
 7296W        W11360   2.856   2.323   2.881
 7297W        W11361   7.428   2.074   9.763
 7298W        W11362   3.641   5.016   9.605
 7299W        W11363   9.397   7.912   2.520
 7300W        W11364   5.951   8.656   0.331
 7301W        W11365   3.603   3.820   9.414
 7302W        W11366   0.278   6.535   2.117
 7303W        W11367   2.365   5.133   9.303
 7304W        W11368   9.794   8.082   1.216
 7305W        W11369   9.354  10.162   8.878
 7306W        W11370   7.368   1.760  11.971
 7307W        W11371   1.498   3.150   2.946
 7308W        W11372   0.775  10.307  10.088
 7309W        W11373   0.878   7.630   3.606
 7310W        W11374   1.253   1.291   9.068
 7311W        W11375   8.072   0.287   9.050
 7312W        W11376   5.083   0.753   0.999
 7313ION    NA+11377   6.452   4.861   8.709
 7314ION    NA+11378   1.831  10.061   2.189
 7315ION    NA+11379   7.759   7.054  11.701
 7316ION    NA+11380   9.072   5.992   1.325
 7317ION    NA+11381   5.502   3.579   9.489
 7318ION    NA+11382   7.902   4.753   0.137
 7319ION    NA+11383   5.518   4.054   0.955
 7320ION    NA+11384   6.212   1.439  10.734
 7321ION    NA+11385   2.622   8.326   9.849
 7322ION    NA+11386   2.742   4.598  10.253
 7323ION    NA+11387   1.514   2.368  10.622
 7324ION    NA+11388  10.103   4.992  11.455
 7325ION    NA+11389   2.679   0.362  10.295
 7326ION    NA+11390   0.607   9.098   9.421
 7327ION    NA+11391   5.163   4.596   2.661
 7328ION    NA+11392   4.194   8.546   0.226
 7329ION    NA+11393   7.464   4.363   2.311
 7330ION    NA+11394   1.128   7.642   2.305
 7331ION    NA+11395   8.846   0.615   9.616
 7332ION    NA+11396   3.715   2.629  10.081
 7333ION    NA+11397   7.317   1.301   1.965
 7334ION    NA+11398   4.992   3.253   0.666
 7335ION    NA+11399   4.218   5.413   0.508
 7336ION    NA+11400   0.616   8.416  11.109
 7337ION    NA+11401   0.664   2.725   1.086
 7338ION    NA+11402   8.275   1.528   1.790
 7339ION    NA+11403   0.799   2.725   9.776
 7340ION    NA+11404   1.510   2.730   0.013
 7341ION    NA+11405   7.077   9.029   9.873
 7342ION    NA+11406   8.454   6.218   3.098
 7343ION    NA+11407   2.925   9.499   2.724
 7344ION    NA+11408   8.919   9.136   2.639
 7345ION    NA+11409   2.398   2.136  11.027
 7346ION    NA+11410   0.918   5.167  11.976
 7347ION    NA+11411   9.657   2.094  11.834
 7348ION    NA+11412   7.057   7.185   0.365
 7349ION    NA+11413   2.298   1.262   9.965
 7350ION    NA+11414   4.985   4.089  11.776
 7351ION    NA+11415   6.539   7.742   9.021
 7352ION    NA+11416   8.630   8.241  11.404
 7353ION    NA+11417   2.699   6.487   0.330
 7354ION    NA+11418   1.658   5.181   2.712
 7355ION    NA+11419   5.149   8.228   0.917
 7356ION    NA+11420   5.637   6.086  11.210
 7357ION    NA+11421   3.046   7.104   9.506
 7358ION    NA+11422   6.710   9.165   3.231
 7359ION    NA+11423   1.708   7.101  10.785
 7360ION    NA+11424   0.011   1.624   9.166
 7361ION    NA+11425   1.429   8.285   0.564
 7362ION    NA+11426   7.890   8.736   9.369
 7363ION    NA+11427   8.386   9.070  10.900
 7364ION    NA+11428   4.402   1.499  11.419
 7365ION    NA+11429   3.119   2.877  11.292
 7366ION    NA+11430   3.810   3.882   0.666
 7367ION    NA+11431   7.666   7.857   1.454
 7368ION    NA+11432   9.022   5.113   2.809
 7369ION    NA+11433   6.754   1.713   3.145
 7370ION    NA+11434   3.448   8.391  11.441
 7371ION    NA+11435   9.873   9.522   1.247
 7372ION    NA+11436   7.069   3.114   2.552
 7373ION    NA+11437   6.197   2.551   1.233
 7374ION    NA+11438   4.002   2.276   0.935
 7375ION    NA+11439   5.992   9.657   9.619
 7376ION    NA+11440   9.957   9.824  11.391
 7377ION    NA+11441   9.024  10.333  10.408
 7378ION    NA+11442   1.196   9.097   0.758
 7379ION    NA+11443   8.532   7.015   2.962
 7380ION    NA+11444   3.739   1.668   3.018
 7381ION    NA+11445   5.991   6.880   8.742
 7382ION    NA+11446   6.574   0.716   0.779
 7383ION    NA+11447   8.449   6.858   0.227
 7384ION    NA+11448   7.077   6.440  11.698
 7385ION    NA+11449   1.372   4.376   8.923
 7386ION    NA+11450   1.666   0.347  10.355
 7387ION    NA+11451   2.987   3.954   0.306
 7388ION    NA+11452   2.088   0.189  11.642
 7389ION    NA+11453   3.864  10.104   0.465
 7390ION    CL-11454   5.837   5.577   2.665
 7391ION    CL-11455   8.173   9.864   1.352
 7392ION    CL-11456   6.205   0.543   0.589
 7393ION    CL-11457   6.575   1.701  10.772
 7394ION    CL-11458   7.484   7.259   9.517
 7395ION    CL-11459  10.172   8.333   0.948
 7396ION    CL-11460   4.083   5.274   9.431
 7397ION    CL-11461   1.570   7.681   2.364
 7398ION    CL-11462   1.918   5.495  10.018
 7399ION    CL-11463   9.396   7.592   3.442
 7400ION    CL-11464   5.540   2.627  11.365
 7401ION    CL-11465   3.017   9.917   8.446
 7402ION    CL-11466   4.116   6.397  10.088
 7403ION    CL-11467   2.335   3.944   3.002
 7404ION    CL-11468   1.202   8.681   0.577
 7405ION    CL-11469  10.448   5.180   9.585
 7406ION    CL-11470   9.175   9.496   2.576
 7407ION    CL-11471   2.111   8.413   3.422
 7408ION    CL-11472  10.246   7.901   0.049
 7409ION    CL-11473   0.280   1.594   0.222
 7410ION    CL-11474   7.797   7.419   1.449
 7411ION    CL-11475   7.691   8.334   9.332
 7412ION    CL-11476   2.906   2.917  11.683
 7413ION    CL-11477   4.247   5.260   0.088
 7414ION    CL-11478   0.640   8.788   9.102
 7415ION    CL-11479   2.013   6.472   1.608
 7416ION    CL-11480   7.878   6.398   9.118
 7417ION    CL-11481   7.360   6.792  11.767
 7418ION    CL-11482   5.473   7.383  11.348
 7419ION    CL-11483   2.774   2.288   3.411
 7420ION    CL-11484   0.976   4.784  11.753
 7421ION    CL-11485   0.293   3.938   0.868
 7422ION    CL-11486   8.669   6.578   2.915
 7423ION    CL-11487   1.052   8.501  11.211
 7424ION    CL-11488  10.203  10.002  11.733
 7425ION    CL-11489   7.256   6.282   1.343
 7426ION    CL-11490   9.692   6.101   3.693
 7427ION    CL-11491   3.904   1.921   1.186
 7428ION    CL-11492   2.929   3.183   2.965
 7429ION    CL-11493   6.232   4.736   9.076
 7430ION    CL-11494   4.479   1.669  11.824
 7431ION    CL-11495   1.907   0.589  11.737
 7432ION    CL-11496   7.859   2.152  10.991
 7433ION    CL-11497   9.840   8.024   9.545
 7434ION    CL-11498   9.709   9.607  11.075
 7435ION    CL-11499   6.507   9.280   2.841
 7436ION    CL-11500  10.069   2.211  11.709
 7437ION    CL-11501   3.417   3.869   0.435
 7438ION    CL-11502   2.248   3.713   2.033
 7439ION    CL-11503   8.860   7.929  11.628
 7440ION    CL-11504   3.685   1.453   2.626
 7441ION    CL-11505  10.380   3.755  10.823
 7442ION    CL-11506   7.346   8.151   1.319
 7443ION    CL-11507   6.756   1.265   9.419
 7444ION    CL-11508   4.135   4.783   1.740
 7445ION    CL-11509   9.317   5.915   1.688
 7446ION    CL-11510   0.250   8.143  11.089
 7447ION    CL-11511   6.315   6.618   1.286
 7448ION    CL-11512   8.649   0.924   9.870
 7449ION    CL-11513   8.812   3.103  11.501
 7450ION    CL-11514   9.372   0.783  11.403
 7451ION    CL-11515   4.786   8.437   9.360
 7452ION    CL-11516   0.046   0.338   0.186
 7453ION    CL-11517   5.092   4.488  11.976
 7454ION    CL-11518   3.808  10.020   9.077
 7455ION    CL-11519   1.295   4.272   2.359
 7456ION    CL-11520   8.144   7.072  11.966
 7457ION    CL-11521   8.872   1.885   3.070
 7458ION    CL-11522   3.250   7.581  10.745
 7459ION    CL-11523   9.570   6.677  10.255
 7460ION    CL-11524   4.444   8.910   0.154
 7461ION    CL-11525   7.704   5.923   2.162
 7462ION    CL-11526   1.487   4.215  10.542
 7463ION    CL-11527   0.718   6.558   2.419
 7464ION    CL-11528   8.361   5.553   8.902
 7465ION    CL-11529  10.144   3.985   8.724
 7466ION    CL-11530   5.076   3.722  11.519
  10.50000  10.50000  12.00000
