Protein in INSANE! Membrane UpperLeaflet>POPC=1.0 LowerLeaflet>POPC=1.0
11125
    1AU     AUC    1   3.173   0.004   5.757 -0.0044  0.0375 -0.0285
    1AU     AUC    2   3.195  -0.024   5.444 -0.0761  0.0001 -0.0527
    1AU     AUC    3   3.395   0.172   5.641 -0.0043  0.0256 -0.0025
    1AU     AUC    4   2.932  -0.193   5.881 -0.0147 -0.0084  0.0541
    1AU     AUC    5   3.102   0.046   6.066 -0.0256  0.0488  0.0411
    1AU     AUC    6   2.877   0.127   5.846 -0.0923 -0.0435 -0.0152
    1AU     AUC    7   3.055   0.248   5.569  0.0462  0.0420 -0.0038
    1AU     AUC    8   3.248  -0.222   5.972  0.0195  0.0849  0.0742
    1AU     AUC    9   3.416  -0.167   5.667  0.0529 -0.0588 -0.0017
    1AU     AUC   10   3.431   0.047   5.926 -0.0619 -0.0510  0.0534
    1AU     AUC   11   3.157   0.325   5.871 -0.0442 -0.0218 -0.0235
    1AU     AUC   12   3.131  -0.275   5.619 -0.0032 -0.1011  0.1382
    1AU     AUC   13   2.916  -0.033   5.562 -0.0305  0.0996  0.1525
    1AU     AUC   14   3.276  -0.032   5.067 -0.0044 -0.0147  0.0152
    1AU     AUC   15   3.477   0.163   5.262  0.0383 -0.0600  0.0544
    1AU     AUC   16   3.665   0.374   5.489  0.0879  0.0139 -0.0238
    1AU     AUC   17   2.714  -0.395   6.043  0.0730  0.0072  0.0192
    1AU     AUC   18   2.842  -0.153   6.275 -0.0039 -0.1262  0.0103
    1AU     AUC   19   3.028   0.124   6.391 -0.0869 -0.0816 -0.0022
    1AU     AUC   20   2.579   0.278   5.930 -0.0041  0.0324  0.0480
    1AU     AUC   21   2.710   0.405   5.593  0.0387 -0.0105  0.0618
    1AU     AUC   22   2.963   0.475   5.362 -0.0195 -0.0800  0.1219
    1AU     AUC   23   3.346  -0.498   6.158  0.0761 -0.0486 -0.0148
    1AU     AUC   24   3.536  -0.432   5.875  0.0278 -0.0266 -0.0079
    1AU     AUC   25   3.728  -0.343   5.569 -0.0322  0.0099 -0.0043
    1AU     AUC   26   3.705   0.134   6.100 -0.0664  0.0437  0.0106
    1AU     AUC   27   3.473   0.403   6.075  0.0762 -0.0148  0.0262
    1AU     AUC   28   3.213   0.626   5.965 -0.0999  0.1284 -0.0084
    1AU     AUC   29   3.102  -0.573   5.456 -0.0070  0.0452  0.0081
    1AU     AUC   30   2.836  -0.392   5.391  0.0363 -0.0194 -0.0260
    1AU     AUC   31   2.645  -0.139   5.369 -0.0472 -0.0849  0.0764
    1AU     AUC   32   3.743   0.230   5.822  0.1198  0.0101  0.1151
    1AU     AUC   33   3.492   0.522   5.755  0.0569 -0.0468  0.0979
    1AU     AUC   34   3.183  -0.326   5.216  0.0462 -0.0583 -0.0768
    1AU     AUC   35   2.969  -0.050   5.171  0.0116  0.0693  0.0761
    1AU     AUC   36   3.359   0.176   6.294 -0.0252 -0.0079 -0.0056
    1AU     AUC   37   3.107   0.422   6.212  0.0098  0.0972  0.0037
    1AU     AUC   38   2.900  -0.510   5.758 -0.0321 -0.0094  0.0406
    1AU     AUC   39   2.646  -0.323   5.714 -0.0236  0.0310  0.0487
    1AU     AUC   40   3.138   0.256   5.162  0.0225 -0.0303  0.0645
    1AU     AUC   41   3.333   0.436   5.420 -0.0062  0.0005  0.0165
    1AU     AUC   42   2.638  -0.057   6.017  0.0130 -0.0115  0.0592
    1AU     AUC   43   2.778   0.228   6.195 -0.1324 -0.0583  0.1018
    1AU     AUC   44   3.528  -0.180   5.319 -0.0213  0.0299 -0.0099
    1AU     AUC   45   3.727  -0.004   5.558  0.0995  0.0878 -0.0368
    1AU     AUC   46   3.044  -0.438   6.144  0.0402 -0.0086  0.0085
    1AU     AUC   47   3.213  -0.166   6.312  0.0005 -0.0727  0.0646
    1AU     AUC   48   2.869   0.511   5.929 -0.0303  0.0380  0.0561
    1AU     AUC   49   3.064   0.577   5.651  0.0397 -0.1022 -0.0548
    1AU     AUC   50   3.533  -0.175   6.173 -0.0757 -0.0549  0.0211
    1AU     AUC   51   3.740  -0.167   5.869 -0.0102 -0.0635  0.0942
    1AU     AUC   52   2.597   0.065   5.647 -0.0917 -0.0044 -0.0323
    1AU     AUC   53   2.782   0.173   5.311  0.0156 -0.0075 -0.0678
    1AU     AUC   54   3.237  -0.574   5.813  0.0735  0.0220  0.0159
    1AU     AUC   55   3.431  -0.472   5.482  0.0289  0.0033 -0.0132
    1AU    AUSL   56   3.919   0.572   5.708  0.0671  0.0010  0.0054
    1AU    AUSL   57   4.056   0.138   5.953 -0.0341  0.0084 -0.0276
    1AU     AUL   58   4.271   0.463   5.757  0.0961 -0.0192  0.1574
    1AU       S   59   4.442   0.054   5.854  0.0729  0.4662 -0.0957
    1AU     LIG   60   4.723   0.394   5.859  0.1766 -0.0453 -0.3782
    1AU     LIG   61   5.121   0.483   6.009 -0.1560 -0.0109  0.1085
    1AU     LIG   62   5.539   0.564   6.228 -0.0601 -0.0800  0.1831
    1AU     LIG   63   5.527   0.763   6.634  0.0126 -0.3840  0.0361
    1AU       S   64   4.182   0.821   6.055 -0.2614  0.0563 -0.0713
    1AU     LIG   65   4.300   0.920   6.455  0.2310 -0.1767  0.0505
    1AU     LIG   66   4.249   1.270   6.659 -0.0669  0.1082 -0.0904
    1AU     LIG   67   4.441   1.589   6.916  0.1274  0.0677 -0.2158
    1AU     LIG   68   4.762   1.722   7.050  0.0106  0.1138 -0.0870
    1AU    AUSL   69   3.819   0.458   6.140  0.0118  0.0002 -0.0320
    1AU    AUSL   70   3.459   0.703   6.313  0.0661 -0.0069  0.0520
    1AU     AUL   71   3.750   0.855   6.274 -0.0220  0.0670  0.1376
    1AU       S   72   4.066   0.540   6.179 -0.0735  0.0823 -0.0960
    1AU     LIG   73   4.500   0.501   6.284 -0.3520  0.1595 -0.3969
    1AU     LIG   74   4.865   0.399   6.463 -0.1281 -0.1554 -0.2287
    1AU     LIG   75   5.311   0.203   6.553  0.0858  0.1733  0.3440
    1AU     LIG   76   5.471  -0.225   6.442  0.2449 -0.2544 -0.0621
    1AU       S   77   3.623   0.759   6.704 -0.1350 -0.2392  0.1239
    1AU     LIG   78   3.711   1.137   6.627 -0.3554  0.1270  0.2814
    1AU     LIG   79   3.568   1.581   6.562 -0.0703 -0.0114 -0.2196
    1AU     LIG   80   3.222   1.797   6.580 -0.0828 -0.0624  0.1367
    1AU     LIG   81   2.894   1.727   6.378  0.4658  0.0275  0.0045
    1AU    AUSL   82   3.502   0.605   5.889  0.0854 -0.0542  0.0156
    1AU    AUSL   83   3.619   0.812   5.491 -0.1150  0.0002 -0.0096
    1AU     AUL   84   3.783   0.892   5.808 -0.0336 -0.0359 -0.1073
    1AU       S   85   3.341   1.152   6.240  0.2153  0.0603  0.1501
    1AU     LIG   86   3.102   1.478   6.039  0.1359  0.1451 -0.1770
    1AU     LIG   87   2.862   1.868   5.899 -0.2894 -0.0246  0.0289
    1AU     LIG   88   2.693   2.282   5.916  0.1588 -0.2103 -0.1160
    1AU     LIG   89   2.629   2.667   5.569 -0.1637 -0.1806 -0.2961
    1AU       S   90   3.628   1.171   5.454 -0.5206  0.0946 -0.1399
    1AU     LIG   91   4.036   1.171   5.570 -0.1572  0.0716  0.2622
    1AU     LIG   92   4.415   1.260   5.771  0.0180 -0.0676  0.1667
    1AU     LIG   93   4.626   1.597   5.800  0.0890  0.1825  0.3799
    1AU     LIG   94   4.872   2.050   5.604  0.3855 -0.0542 -0.0295
    1AU    AUSL   95   3.031  -0.176   4.986 -0.0163 -0.0006  0.0705
    1AU    AUSL   96   2.645   0.058   4.967  0.1007  0.0074  0.0531
    1AU     AUL   97   2.779  -0.099   4.699 -0.0794 -0.0893  0.0748
    1AU       S   98   2.521  -0.475   4.716 -0.2906  0.0307 -0.0765
    1AU     LIG   99   2.060  -0.547   4.598 -0.0185 -0.0722 -0.0169
    1AU     LIG  100   1.667  -0.605   4.853  0.0750 -0.0636 -0.1726
    1AU     LIG  101   1.468  -0.672   5.182  0.2993 -0.0565  0.3652
    1AU     LIG  102   1.194  -0.903   5.375 -0.0382 -0.1019  0.3482
    1AU       S  103   2.623   0.465   4.667  0.0878  0.2464 -0.1602
    1AU     LIG  104   2.290   0.720   4.637  0.5310 -0.1541  0.0040
    1AU     LIG  105   2.160   1.149   4.693  0.0206 -0.1359  0.0430
    1AU     LIG  106   2.200   1.575   4.903 -0.1050  0.0851 -0.2790
    1AU     LIG  107   2.332   2.021   4.741  0.1617 -0.2068  0.0908
    1AU    AUSL  108   2.939  -0.610   4.980  0.1054 -0.0265 -0.0579
    1AU    AUSL  109   3.420  -0.308   4.844  0.0245 -0.0844  0.0777
    1AU     AUL  110   3.139  -0.390   4.728 -0.0899  0.0162 -0.1497
    1AU       S  111   3.556  -0.623   4.600 -0.3482 -0.1380  0.1320
    1AU     LIG  112   4.007  -0.932   4.507  0.0177 -0.2421  0.1921
    1AU     LIG  113   4.124  -1.216   4.896  0.2072 -0.5944 -0.0692
    1AU     LIG  114   4.110  -1.282   5.448 -0.1821  0.3482  0.3126
    1AU     LIG  115   4.238  -1.575   5.792 -0.4450 -0.0283 -0.1567
    1AU       S  116   2.738  -0.614   4.727  0.1370 -0.1399  0.0783
    1AU     LIG  117   2.514  -1.019   4.725  0.0462 -0.3894  0.1559
    1AU     LIG  118   2.651  -1.289   5.078  0.0463 -0.2782  0.2037
    1AU     LIG  119   2.682  -1.447   5.424 -0.0906 -0.0377  0.0249
    1AU     LIG  120   2.706  -1.809   5.672 -0.0629  0.2373 -0.1259
    1AU    AUSL  121   2.674  -0.294   5.202  0.0251  0.0503 -0.0691
    1AU    AUSL  122   2.839  -0.656   5.400 -0.0509  0.0736 -0.0249
    1AU     AUL  123   2.703  -0.789   5.145 -0.0620 -0.0626  0.0523
    1AU       S  124   2.397  -1.022   5.409 -0.2465  0.2072  0.1411
    1AU     LIG  125   2.174  -1.251   5.226 -0.2724  0.2122  0.2620
    1AU     LIG  126   1.834  -1.509   5.073  0.1099 -0.6499 -0.1239
    1AU     LIG  127   1.669  -1.725   4.815 -0.1753 -0.2255  0.0694
    1AU     LIG  128   1.734  -2.164   4.590  0.1706  0.0317 -0.2708
    1AU       S  129   2.496  -0.392   4.912  0.1664 -0.0207  0.4878
    1AU     LIG  130   2.093  -0.219   5.006 -0.2851  0.1466  0.2629
    1AU     LIG  131   1.656  -0.056   4.883  0.1613  0.0965  0.0870
    1AU     LIG  132   1.551   0.258   5.041 -0.2078  0.0807  0.2091
    1AU     LIG  133   1.163   0.525   5.312 -0.2472 -0.0738  0.2563
    1AU    AUSL  134   3.196   0.460   6.587 -0.1228  0.0140 -0.0977
    1AU    AUSL  135   3.040   0.694   6.209  0.0416  0.0787  0.1086
    1AU     AUL  136   3.221   0.768   6.508 -0.0295 -0.0809 -0.0264
    1AU       S  137   3.622   0.560   6.759 -0.0003 -0.6249 -0.1415
    1AU     LIG  138   3.552   0.580   7.191  0.1186 -0.0610 -0.2429
    1AU     LIG  139   3.269   0.644   7.493 -0.4427  0.0524  0.3010
    1AU     LIG  140   3.101   1.121   7.374  0.0434  0.0493  0.1469
    1AU     LIG  141   3.248   1.514   7.266 -0.0177  0.0151  0.2525
    1AU       S  142   2.735   0.754   6.516  0.0411  0.2087 -0.2676
    1AU     LIG  143   2.436   1.002   6.610 -0.3385 -0.0100 -0.0917
    1AU     LIG  144   2.064   1.224   6.687  0.2045  0.0088  0.1469
    1AU     LIG  145   1.663   1.195   6.706  0.2812  0.4365  0.3815
    1AU     LIG  146   1.255   1.100   6.534 -0.1570  0.0259 -0.4870
    1AU    AUSL  147   3.491   0.259   6.342 -0.0298 -0.0486  0.0780
    1AU    AUSL  148   3.327   0.065   6.712  0.0407  0.1056 -0.0410
    1AU     AUL  149   3.227   0.324   6.756 -0.0818 -0.0499 -0.0541
    1AU       S  150   3.608   0.094   6.887 -0.0793 -0.3285 -0.1199
    1AU     LIG  151   3.495  -0.010   7.332  0.2411 -0.1447 -0.3378
    1AU     LIG  152   3.631   0.249   7.569 -0.0153  0.3775 -0.3728
    1AU     LIG  153   3.939   0.155   7.874  0.0212 -0.1311 -0.0129
    1AU     LIG  154   4.423   0.044   7.997 -0.0198 -0.0678  0.0111
    1AU       S  155   3.696   0.483   6.604 -0.0364  0.0418  0.0625
    1AU     LIG  156   4.096   0.480   6.713  0.1882  0.0069 -0.0042
    1AU     LIG  157   4.476   0.295   6.800 -0.1410  0.0736  0.1818
    1AU     LIG  158   4.439  -0.022   7.012 -0.0115 -0.1397  0.3232
    1AU     LIG  159   4.740  -0.441   7.062 -0.1393  0.0172 -0.3437
    1AU    AUSL  160   2.593  -0.672   5.763 -0.0182 -0.0866  0.1335
    1AU    AUSL  161   3.012  -0.815   5.762 -0.0361  0.0282 -0.0751
    1AU     AUL  162   2.866  -1.000   5.555  0.0286  0.0913 -0.0071
    1AU       S  163   2.401  -1.032   5.619  0.0400  0.2006  0.3914
    1AU     LIG  164   2.132  -1.028   5.950 -0.3839 -0.3958  0.0545
    1AU     LIG  165   1.959  -1.347   6.132 -0.2901  0.0110  0.0922
    1AU     LIG  166   2.037  -1.504   6.559 -0.0911 -0.3735  0.1114
    1AU     LIG  167   2.454  -1.587   6.702  0.1037 -0.1722  0.1693
    1AU       S  168   2.839  -1.100   6.003 -0.0910  0.0427 -0.2216
    1AU     LIG  169   2.519  -1.408   6.083  0.3002 -0.1281 -0.3822
    1AU     LIG  170   2.238  -1.743   5.896 -0.1657  0.1499 -0.1260
    1AU     LIG  171   2.123  -2.143   6.033 -0.0922 -0.1909  0.3703
    1AU     LIG  172   2.123  -2.577   6.213 -0.3111  0.1907  0.2620
    1AU    AUSL  173   2.393  -0.535   5.392 -0.0503 -0.0269  0.0362
    1AU    AUSL  174   2.317  -0.424   5.981 -0.0493 -0.0069  0.0279
    1AU     AUL  175   2.232  -0.608   5.724  0.0293  0.0320 -0.0058
    1AU       S  176   1.972  -0.485   6.090 -0.4541 -0.1654  0.0037
    1AU     LIG  177   1.747  -0.827   6.120  0.0057  0.6444 -0.0680
    1AU     LIG  178   1.480  -1.227   6.029 -0.1551  0.3279  0.1041
    1AU     LIG  179   1.085  -1.275   6.223  0.5987  0.1537 -0.0546
    1AU     LIG  180   0.997  -1.225   6.647 -0.1935 -0.1794 -0.0915
    1AU       S  181   2.256  -0.785   5.302  0.0434 -0.0006  0.2901
    1AU     LIG  182   1.903  -0.530   5.343  0.0099  0.1137  0.2555
    1AU     LIG  183   1.492  -0.482   5.657 -0.1975 -0.1452 -0.3712
    1AU     LIG  184   1.058  -0.394   5.839 -0.1192  0.3140  0.0537
    1AU     LIG  185   0.746  -0.341   6.203 -0.0109 -0.2423  0.1356
    1AU    AUSL  186   3.240   0.597   5.038  0.1051 -0.0176  0.0704
    1AU    AUSL  187   3.099   0.211   4.805 -0.0037 -0.0793  0.0141
    1AU     AUL  188   3.235   0.557   4.673 -0.1167  0.0361 -0.0514
    1AU       S  189   2.797   0.385   4.640 -0.1583  0.2455 -0.0293
    1AU     LIG  190   2.855   0.829   4.499  0.0850 -0.6208  0.0386
    1AU     LIG  191   2.985   1.300   4.476 -0.2628 -0.3793 -0.1605
    1AU     LIG  192   3.232   1.644   4.581 -0.2065 -0.0560  0.1239
    1AU     LIG  193   3.417   1.893   4.805 -0.1122  0.0486  0.0109
    1AU       S  194   3.625   0.764   4.835  0.5090  0.0731  0.3349
    1AU     LIG  195   3.480   1.290   4.962 -0.0913 -0.1769  0.3689
    1AU     LIG  196   3.152   1.573   5.106 -0.0526  0.1265 -0.0116
    1AU     LIG  197   3.156   1.981   5.235  0.0977  0.1293  0.0884
    1AU     LIG  198   3.097   2.270   5.521  0.1447 -0.2217 -0.1567
    1AU    AUSL  199   3.524   0.250   4.884  0.1479  0.0049  0.0507
    1AU    AUSL  200   3.909   0.216   5.131  0.0273  0.0171 -0.0748
    1AU     AUL  201   3.856   0.177   4.752 -0.0053 -0.0345  0.1641
    1AU       S  202   3.726   0.618   4.813  0.0456  0.1411  0.0342
    1AU     LIG  203   4.200   0.503   4.831 -0.4305 -0.2160  0.0968
    1AU     LIG  204   4.596   0.465   5.161  0.1482 -0.2122  0.2669
    1AU     LIG  205   4.900   0.364   5.381 -0.2688  0.1865 -0.3079
    1AU     LIG  206   5.251   0.286   5.611  0.1376  0.0229  0.3951
    1AU       S  207   4.261  -0.010   4.953 -0.1402 -0.1112 -0.0568
    1AU     LIG  208   4.734  -0.017   5.012 -0.2025 -0.1692  0.3020
    1AU     LIG  209   4.964  -0.083   4.690  0.3972 -0.6536  0.0062
    1AU     LIG  210   5.322  -0.021   4.699 -0.1858 -0.1412  0.1156
    1AU     LIG  211   5.645  -0.104   4.435  0.3379  0.2373  0.1621
    1AU    AUSL  212   3.555   0.435   5.289  0.0081  0.0398  0.0566
    1AU    AUSL  213   3.189   0.699   5.457 -0.1025  0.0221  0.0778
    1AU     AUL  214   3.372   0.840   5.214  0.0086  0.0912  0.0250
    1AU       S  215   3.385   1.282   5.457 -0.3563  0.1592  0.3872
    1AU     LIG  216   2.900   1.498   5.508  0.0612  0.0782  0.1046
    1AU     LIG  217   2.430   1.675   5.702 -0.1271  0.1886  0.0158
    1AU     LIG  218   2.125   1.990   5.764  0.2510 -0.0527  0.0052
    1AU     LIG  219   1.903   2.315   5.607  0.0526 -0.1797  0.0692
    1AU       S  220   3.777   0.660   5.069  0.3166  0.1874 -0.2336
    1AU     LIG  221   4.122   0.713   5.320 -0.1783  0.1249 -0.1895
    1AU     LIG  222   4.556   0.804   5.554  0.1622  0.0099  0.0978
    1AU     LIG  223   4.724   0.840   5.995 -0.3410  0.1267  0.1661
    1AU     LIG  224   4.822   0.926   6.426 -0.0238 -0.1099  0.3256
    1AU    AUSL  225   2.424   0.218   6.227 -0.0026  0.0171  0.0333
    1AU    AUSL  226   2.840   0.333   6.391  0.0428 -0.0075 -0.0769
    1AU     AUL  227   2.432   0.398   6.524  0.0640  0.1042 -0.0616
    1AU       S  228   2.772   0.612   6.703 -0.2002 -0.1277  0.1800
    1AU     LIG  229   2.390   0.556   6.997  0.0241 -0.3892  0.1672
    1AU     LIG  230   2.156   0.436   7.280  0.2962  0.1715  0.0387
    1AU     LIG  231   1.894   0.396   7.676 -0.1143 -0.0417  0.0699
    1AU     LIG  232   1.522   0.330   7.864  0.0309 -0.2313 -0.2509
    1AU       S  233   2.120   0.427   6.125 -0.0046  0.1248 -0.3144
    1AU     LIG  234   1.860   0.275   6.364 -0.3773  0.0558 -0.2451
    1AU     LIG  235   1.522   0.071   6.407 -0.1888  0.0604  0.2642
    1AU     LIG  236   1.232  -0.221   6.625 -0.3509 -0.1713 -0.4406
    1AU     LIG  237   0.749  -0.329   6.739  0.0713  0.4506 -0.1613
    1AU    AUSL  238   2.594  -0.189   6.208  0.0300  0.0544  0.0929
    1AU    AUSL  239   2.236   0.010   5.919 -0.0414 -0.1112 -0.0269
    1AU     AUL  240   2.219  -0.113   6.218  0.0023 -0.0581  0.0323
    1AU       S  241   2.366  -0.671   6.353 -0.0259 -0.3597  0.0019
    1AU     LIG  242   2.101  -0.967   6.482 -0.0648  0.0478 -0.0745
    1AU     LIG  243   1.724  -1.116   6.749 -0.1089 -0.0355 -0.0156
    1AU     LIG  244   1.352  -1.256   7.012  0.1474 -0.0113 -0.1398
    1AU     LIG  245   1.140  -1.445   7.403 -0.1048 -0.0657 -0.2339
    1AU       S  246   1.887   0.034   5.878 -0.4475  0.1095 -0.3214
    1AU     LIG  247   1.451  -0.019   5.889 -0.0047 -0.1378 -0.2004
    1AU     LIG  248   1.208   0.245   6.000  0.1238  0.0820 -0.1259
    1AU     LIG  249   0.955   0.469   5.801 -0.1010 -0.0155 -0.3216
    1AU     LIG  250   0.632   0.365   5.549  0.2492 -0.1456 -0.1105
    1AU    AUSL  251   2.654   0.010   6.602 -0.0476 -0.1118 -0.0600
    1AU    AUSL  252   2.749  -0.455   6.519  0.0351  0.0020  0.0119
    1AU     AUL  253   2.490  -0.275   6.608 -0.0404  0.0302 -0.0154
    1AU       S  254   2.876  -0.394   6.864 -0.1479  0.0016  0.3052
    1AU     LIG  255   2.518  -0.340   7.142 -0.0356  0.1323  0.0432
    1AU     LIG  256   2.127  -0.305   7.270 -0.0266  0.0841  0.2506
    1AU     LIG  257   1.972  -0.119   7.605  0.3737 -0.0192  0.1722
    1AU     LIG  258   1.714  -0.205   7.870 -0.3410 -0.3473  0.1196
    1AU       S  259   2.656   0.137   6.838 -0.0732  0.0411  0.1532
    1AU     LIG  260   2.612   0.149   7.253  0.0337  0.0042  0.0776
    1AU     LIG  261   2.517  -0.082   7.605 -0.0880 -0.1243 -0.3485
    1AU     LIG  262   2.332  -0.498   7.783 -0.2160  0.0801  0.3145
    1AU     LIG  263   2.332  -0.985   7.883 -0.2597  0.2259 -0.2034
    1AU    AUSL  264   3.950  -0.213   5.306 -0.0223 -0.0428 -0.0078
    1AU    AUSL  265   3.846   0.176   5.573  0.0996 -0.0436  0.0968
    1AU     AUL  266   4.095   0.181   5.357  0.0719  0.0516 -0.0862
    1AU       S  267   4.164  -0.295   5.223  0.1235 -0.3679  0.3148
    1AU     LIG  268   4.560  -0.445   5.366  0.1962 -0.0769 -0.0002
    1AU     LIG  269   4.877  -0.640   5.548  0.3531 -0.2221 -0.0838
    1AU     LIG  270   5.258  -0.667   5.548 -0.0359  0.2441  0.1366
    1AU     LIG  271   5.653  -0.617   5.477  0.1604 -0.0305  0.1295
    1AU       S  272   4.410  -0.016   5.614 -0.0982  0.0164 -0.0483
    1AU     LIG  273   4.892  -0.117   5.517 -0.2368 -0.1569  0.1181
    1AU     LIG  274   5.212  -0.227   5.708 -0.2109 -0.0238  0.1795
    1AU     LIG  275   5.525  -0.402   5.979  0.1212  0.5455 -0.1958
    1AU     LIG  276   5.827  -0.712   5.975 -0.0830  0.4103 -0.1081
    1AU    AUSL  277   3.558  -0.064   5.163  0.0322  0.0196 -0.0315
    1AU    AUSL  278   3.690  -0.512   5.132 -0.0194  0.0309 -0.1187
    1AU     AUL  279   3.764  -0.264   4.921  0.0719  0.0774 -0.0436
    1AU       S  280   4.194  -0.153   4.928  0.1214 -0.0644 -0.0675
    1AU     LIG  281   4.485  -0.470   4.906 -0.2514  0.5176  0.0912
    1AU     LIG  282   4.542  -0.841   4.697 -0.2037 -0.0110  0.2411
    1AU     LIG  283   4.638  -1.268   4.875  0.2450  0.2549  0.0858
    1AU     LIG  284   4.548  -1.424   5.154  0.1770  0.1419 -0.1133
    1AU       S  285   3.697  -0.712   4.834 -0.2345  0.0876 -0.0130
    1AU     LIG  286   4.091  -0.710   5.042  0.2793 -0.0343  0.1750
    1AU     LIG  287   4.524  -0.877   5.222  0.2477  0.0629  0.1400
    1AU     LIG  288   4.974  -1.122   5.332 -0.4698 -0.2380 -0.1682
    1AU     LIG  289   5.058  -1.506   5.406 -0.4871 -0.2454  0.1313
    1AU    AUSL  290   3.185  -0.537   6.451  0.0011 -0.0339  0.0789
    1AU    AUSL  291   2.827  -0.610   6.125 -0.0223  0.0156 -0.0405
    1AU     AUL  292   2.878  -0.706   6.507 -0.0563  0.0227 -0.0258
    1AU       S  293   2.700  -0.917   6.140  0.1247  0.1612 -0.0467
    1AU     LIG  294   2.629  -1.134   6.596 -0.0208  0.5229  0.1355
    1AU     LIG  295   2.714  -1.276   6.988 -0.2472 -0.2165  0.1566
    1AU     LIG  296   3.029  -1.132   7.201 -0.1862  0.2725  0.1249
    1AU     LIG  297   3.489  -1.034   7.199 -0.2305 -0.1153  0.0658
    1AU       S  298   3.018  -0.544   6.939  0.2157 -0.0401  0.4124
    1AU     LIG  299   2.535  -0.771   6.884 -0.1116 -0.4288  0.0497
    1AU     LIG  300   2.156  -0.570   6.843  0.0789 -0.0619 -0.1369
    1AU     LIG  301   1.725  -0.647   6.621 -0.0253  0.0017 -0.2916
    1AU     LIG  302   1.257  -0.782   6.786 -0.1475 -0.1200 -0.3179
    1AU    AUSL  303   3.033  -0.121   6.483  0.0205 -0.0008  0.1086
    1AU    AUSL  304   3.487  -0.229   6.433 -0.0354 -0.0317  0.0155
    1AU     AUL  305   3.352  -0.342   6.710  0.0360  0.0333  0.0122
    1AU       S  306   3.700  -0.103   6.912 -0.3274 -0.2320  0.7149
    1AU     LIG  307   3.544  -0.490   7.105 -0.2776  0.3143 -0.0321
    1AU     LIG  308   3.261  -0.604   7.384 -0.1471 -0.0648  0.1398
    1AU     LIG  309   2.813  -0.732   7.321 -0.1358  0.0347 -0.7258
    1AU     LIG  310   2.431  -0.796   7.367  0.4255  0.1101 -0.2121
    1AU       S  311   2.964  -0.237   6.907  0.1168  0.0064  0.1943
    1AU     LIG  312   2.957  -0.225   7.362  0.0859 -0.1876 -0.1108
    1AU     LIG  313   3.116   0.098   7.629  0.0080  0.3300  0.1826
    1AU     LIG  314   3.260   0.339   7.906  0.1276  0.0748 -0.0841
    1AU     LIG  315   3.614   0.140   8.277 -0.2796 -0.0534  0.0220
    1AU    AUSL  316   2.901   0.781   5.807  0.0229  0.1097 -0.0597
    1AU    AUSL  317   2.610   0.586   6.105 -0.0588  0.0526 -0.0037
    1AU     AUL  318   2.874   0.937   6.120  0.0157 -0.0756 -0.0597
    1AU       S  319   2.500   0.743   6.211  0.3551  0.0530 -0.0952
    1AU     LIG  320   2.032   0.883   6.283 -0.1004  0.0116  0.1790
    1AU     LIG  321   1.687   1.107   6.126 -0.2396  0.1671 -0.1614
    1AU     LIG  322   1.223   1.272   5.985  0.2816 -0.0263  0.2570
    1AU     LIG  323   1.171   1.600   5.652  0.0007 -0.2627 -0.3102
    1AU       S  324   2.619   1.137   5.773  0.0323 -0.4584  0.0860
    1AU     LIG  325   2.583   1.358   6.144 -0.5148 -0.2541  0.3834
    1AU     LIG  326   2.038   1.598   6.244 -0.2124 -0.0385 -0.1387
    1AU     LIG  327   1.918   2.069   6.251 -0.4329  0.2819  0.0338
    1AU     LIG  328   1.485   2.151   6.506 -0.2160 -0.1192 -0.1803
    1AU    AUSL  329   2.473   0.681   5.705 -0.0299  0.0718  0.0855
    1AU    AUSL  330   2.474   0.462   5.288 -0.0567 -0.0148  0.0314
    1AU     AUL  331   2.276   0.736   5.365 -0.0098  0.0165 -0.0322
    1AU       S  332   2.440   0.973   5.739  0.0860  0.1305  0.0194
    1AU     LIG  333   2.132   1.301   5.858 -0.1862  0.0241  0.1215
    1AU     LIG  334   1.763   1.616   5.859  0.1214 -0.3167  0.0987
    1AU     LIG  335   1.516   1.926   5.991 -0.1156  0.2339  0.1006
    1AU     LIG  336   1.527   2.285   6.030 -0.1359  0.0576 -0.0019
    1AU       S  337   2.065   0.360   5.490  0.0645  0.3917 -0.2824
    1AU     LIG  338   1.620   0.406   5.652  0.2540 -0.4100  0.1674
    1AU     LIG  339   1.598   0.570   6.079 -0.2792 -0.1291  0.2056
    1AU     LIG  340   1.217   0.820   6.162 -0.2367 -0.0568  0.5284
    1AU     LIG  341   0.839   1.071   6.240  0.1927  0.1177 -0.3247
    1AU    AUSL  342   2.768   0.785   5.376  0.0114 -0.0802  0.0046
    1AU    AUSL  343   3.305   0.956   5.804  0.0737 -0.0101  0.0900
    1AU     AUL  344   3.003   1.016   5.535  0.0578  0.0375  0.0283
    1AU       S  345   3.409   1.224   5.713  0.0015 -0.1357 -0.0609
    1AU     LIG  346   3.660   1.319   5.939 -0.0004 -0.0665 -0.2968
    1AU     LIG  347   3.957   1.267   6.237  0.0797  0.1318  0.1466
    1AU     LIG  348   4.373   1.398   6.211 -0.0001 -0.1353 -0.2905
    1AU     LIG  349   4.812   1.366   6.249 -0.2278  0.0786  0.3406
    1AU       S  350   2.552   1.099   5.482  0.3887  0.0386  0.0737
    1AU     LIG  351   2.205   1.297   5.335 -0.2008  0.5068  0.1730
    1AU     LIG  352   1.918   1.572   5.375 -0.3092 -0.2450 -0.0808
    1AU     LIG  353   1.609   1.803   5.406  0.0696  0.0890  0.1841
    1AU     LIG  354   1.245   2.134   5.659 -0.2522 -0.1143  0.0116
    1AU    AUSL  355   3.822  -0.209   6.143 -0.0196 -0.0636  0.0494
    1AU    AUSL  356   4.029  -0.232   5.727  0.0867 -0.0512  0.0806
    1AU     AUL  357   4.139  -0.128   6.120  0.0509  0.1101 -0.0877
    1AU       S  358   4.233  -0.537   6.278  0.4393 -0.1415  0.4405
    1AU     LIG  359   4.542  -0.575   6.596 -0.0157 -0.0739 -0.0432
    1AU     LIG  360   4.858  -0.815   6.756 -0.1708 -0.0748 -0.3753
    1AU     LIG  361   5.012  -1.183   6.746 -0.0855 -0.1828 -0.5886
    1AU     LIG  362   5.145  -1.505   7.027  0.2883  0.1131  0.1299
    1AU       S  363   4.245  -0.282   5.685  0.2302 -0.0374  0.0335
    1AU     LIG  364   4.633  -0.432   5.985  0.1246  0.1634  0.1627
    1AU     LIG  365   5.086  -0.654   6.044 -0.0517  0.1208  0.0012
    1AU     LIG  366   5.340  -0.739   6.394  0.1885  0.6568 -0.2333
    1AU     LIG  367   5.760  -0.605   6.593  0.0613 -0.0968 -0.0509
    1AU    AUSL  368   3.643  -0.599   6.286  0.0682  0.0147  0.0639
    1AU    AUSL  369   3.838   0.046   6.464 -0.1654 -0.0175 -0.0402
    1AU     AUL  370   3.830  -0.377   6.490 -0.0132  0.0585  0.0187
    1AU       S  371   4.069  -0.723   6.327 -0.1832  0.2223  0.2703
    1AU     LIG  372   4.138  -0.854   6.775 -0.1255 -0.4744 -0.0099
    1AU     LIG  373   4.347  -0.812   7.085 -0.4170 -0.0689  0.1126
    1AU     LIG  374   4.567  -0.701   7.484  0.1088 -0.3202 -0.3149
    1AU     LIG  375   4.911  -0.805   7.768 -0.2746 -0.1535  0.2298
    1AU       S  376   3.843   0.029   6.728  0.2994  0.0904 -0.1226
    1AU     LIG  377   4.235  -0.150   6.598 -0.1230 -0.5502 -0.0667
    1AU     LIG  378   4.548  -0.099   6.369  0.1637  0.1263  0.0573
    1AU     LIG  379   4.897   0.009   6.061 -0.4974 -0.0188  0.1667
    1AU     LIG  380   5.428   0.115   6.043  0.1128  0.0983 -0.2036
    1AU    AUSL  381   3.884  -0.583   5.922 -0.0888  0.0310 -0.0554
    1AU    AUSL  382   3.449  -0.656   5.895  0.0527 -0.0887  0.0762
    1AU     AUL  383   3.659  -0.877   6.119 -0.0725  0.0822  0.0811
    1AU       S  384   3.835  -0.977   5.719 -0.1409 -0.0061  0.2344
    1AU     LIG  385   4.138  -1.167   6.049 -0.0955 -0.1172  0.1818
    1AU     LIG  386   4.255  -1.176   6.440 -0.1414  0.0472 -0.1114
    1AU     LIG  387   4.520  -1.232   6.761 -0.2656 -0.0049  0.2500
    1AU     LIG  388   4.619  -1.297   7.207 -0.1218  0.5246  0.2695
    1AU       S  389   4.086  -0.597   6.055 -0.1572 -0.2522  0.1208
    1AU     LIG  390   4.563  -0.922   6.118  0.0716 -0.1302 -0.2236
    1AU     LIG  391   5.020  -1.128   6.287 -0.1049  0.3033  0.0344
    1AU     LIG  392   5.399  -1.235   6.296 -0.0739  0.1170  0.3473
    1AU     LIG  393   5.560  -1.527   6.155  0.2637 -0.3658  0.0615
    1AU    AUSL  394   2.351   0.025   5.295  0.0154 -0.0652  0.0612
    1AU    AUSL  395   2.877   0.397   5.148  0.0283 -0.0306  0.1248
    1AU     AUL  396   2.420   0.277   5.058  0.0073 -0.0702  0.0520
    1AU       S  397   1.987   0.257   5.288 -0.1239  0.3262 -0.1376
    1AU     LIG  398   1.760  -0.077   5.391  0.1570 -0.4510 -0.2719
    1AU     LIG  399   1.273   0.006   5.361  0.3278  0.1106 -0.0402
    1AU     LIG  400   1.000   0.044   5.607 -0.1249  0.4222 -0.0350
    1AU     LIG  401   0.716   0.101   5.961 -0.1515 -0.2310 -0.2003
    1AU       S  402   2.756   0.588   4.942 -0.2705  0.1344  0.2781
    1AU     LIG  403   2.524   1.051   4.997 -0.0650 -0.1217  0.0347
    1AU     LIG  404   2.633   1.440   4.882 -0.0636 -0.1800 -0.0335
    1AU     LIG  405   2.631   1.825   5.240 -0.0571 -0.4175 -0.2002
    1AU     LIG  406   2.470   2.207   5.445  0.1611  0.3016 -0.0860
    1AU    AUSL  407   2.485   0.254   5.671  0.0082 -0.0093 -0.0165
    1AU    AUSL  408   2.505  -0.198   5.632  0.0459  0.0355 -0.0382
    1AU     AUL  409   2.187  -0.131   5.568  0.1275  0.0651  0.0269
    1AU       S  410   2.129   0.378   5.634  0.0787  0.4132  0.3904
    1AU     LIG  411   1.972   0.854   5.747  0.0383  0.3167 -0.2710
    1AU     LIG  412   1.758   1.137   5.551 -0.3330  0.0581  0.0162
    1AU     LIG  413   1.437   1.255   5.329 -0.1348  0.2916  0.0464
    1AU     LIG  414   1.220   1.591   5.137  0.2002 -0.0789  0.1909
    1AU       S  415   1.877  -0.288   5.868  0.3443 -0.1436 -0.3544
    1AU     LIG  416   1.526  -0.410   6.181 -0.0288 -0.1386 -0.1005
    1AU     LIG  417   1.254  -0.797   6.233 -0.0729  0.1053 -0.5016
    1AU     LIG  418   0.801  -0.812   6.077  0.1157 -0.2043 -0.0529
    1AU     LIG  419   0.529  -1.098   5.922 -0.1918  0.1165 -0.0794
    1AU    AUSL  420   3.372  -0.872   5.517 -0.0172  0.0086 -0.0147
    1AU    AUSL  421   3.200  -0.855   6.175  0.0481 -0.0572 -0.1010
    1AU     AUL  422   3.290  -1.040   5.853  0.0688  0.0219 -0.0220
    1AU       S  423   2.959  -1.078   6.240  0.1551  0.0978  0.5162
    1AU     LIG  424   3.330  -1.303   6.266 -0.2990  0.2145 -0.3822
    1AU     LIG  425   3.405  -1.617   6.412 -0.1909  0.1906  0.0519
    1AU     LIG  426   3.758  -1.819   6.643  0.0922 -0.1454 -0.2363
    1AU     LIG  427   3.768  -1.840   7.131 -0.0543 -0.0747  0.0634
    1AU       S  428   3.677  -1.078   5.633  0.0262  0.4355  0.1136
    1AU     LIG  429   3.618  -1.369   5.890 -0.2899 -0.0669  0.0791
    1AU     LIG  430   3.861  -1.520   6.221  0.0538 -0.0212 -0.1300
    1AU     LIG  431   4.140  -1.724   6.305 -0.0749  0.3681  0.3040
    1AU     LIG  432   4.260  -2.116   6.091 -0.0159  0.2398  0.2455
    1AU    AUSL  433   3.680  -0.554   5.548  0.0344  0.0104 -0.0800
    1AU    AUSL  434   3.278  -0.553   5.247 -0.1036  0.1048 -0.0208
    1AU     AUL  435   3.546  -0.844   5.252 -0.0066  0.1256  0.0004
    1AU       S  436   3.948  -0.838   5.549  0.0398  0.4259 -0.1391
    1AU     LIG  437   4.333  -0.822   5.681 -0.0352  0.1063 -0.0491
    1AU     LIG  438   4.666  -1.147   5.709 -0.0207  0.1218  0.2069
    1AU     LIG  439   5.052  -1.417   5.888 -0.3918 -0.1579  0.0080
    1AU     LIG  440   5.046  -1.656   6.172  0.3005  0.1868 -0.2069
    1AU       S  441   3.400  -0.757   4.845  0.3567 -0.0462 -0.2377
    1AU     LIG  442   3.589  -1.206   4.836 -0.1004 -0.0985 -0.1826
    1AU     LIG  443   3.705  -1.390   5.152 -0.8063 -0.3802 -0.0106
    1AU     LIG  444   3.710  -1.657   5.543  0.3616 -0.0499 -0.2566
    1AU     LIG  445   3.930  -2.009   5.737 -0.1184  0.2853  0.2555
    2POPC   NC3  446   5.004   2.983   7.590  0.0018 -0.2135 -0.2146
    2POPC   PO4  447   5.169   3.457   7.598  0.2595 -0.0655  0.0662
    2POPC   GL1  448   5.345   3.366   7.224  0.1102  0.2002 -0.2461
    2POPC   GL2  449   5.155   3.215   7.107  0.0940 -0.0910  0.0079
    2POPC   C1A  450   5.550   3.412   6.792 -0.1873  0.0548 -0.1808
    2POPC   D2A  451   5.448   3.333   6.381  0.1569  0.4792  0.1721
    2POPC   C3A  452   5.174   3.125   6.243 -0.1196 -0.0782  0.0088
    2POPC   C4A  453   4.970   2.924   5.970  0.1562  0.1713 -0.0935
    2POPC   C1B  454   4.823   3.239   6.673  0.0458 -0.2811  0.0007
    2POPC   C2B  455   4.645   3.000   6.357 -0.0773  0.0885 -0.2877
    2POPC   C3B  456   4.483   2.973   5.966  0.1988  0.1479  0.0486
    2POPC   C4B  457   4.738   3.145   5.598 -0.1137  0.1557  0.0121
    3POPC   NC3  458   9.852   5.183   7.914 -0.0827 -0.3334 -0.2081
    3POPC   PO4  459   9.810   5.436   7.613 -0.1563 -0.0307  0.1731
    3POPC   GL1  460   9.657   5.445   7.243 -0.2555  0.2843  0.1038
    3POPC   GL2  461   9.337   5.277   7.144  0.1530 -0.0654  0.2066
    3POPC   C1A  462   9.513   5.468   6.785 -0.3677 -0.1470 -0.0188
    3POPC   D2A  463   9.508   5.379   6.354  0.0122 -0.1508 -0.3308
    3POPC   C3A  464   9.923   5.124   6.341  0.0548  0.0679 -0.0830
    3POPC   C4A  465  10.338   5.197   6.435  0.1813 -0.1871  0.0285
    3POPC   C1B  466   9.239   5.108   6.688 -0.0524 -0.0809 -0.3131
    3POPC   C2B  467   9.353   4.889   6.269  0.0223  0.1074  0.0319
    3POPC   C3B  468   9.441   4.653   5.868  0.1391 -0.1752  0.1329
    3POPC   C4B  469   9.652   4.188   5.879 -0.1163 -0.0289  0.7271
    4POPC   NC3  470   9.877   2.726   8.016  0.1671 -0.0513 -0.1392
    4POPC   PO4  471   9.964   3.165   7.708 -0.0805 -0.3115  0.2745
    4POPC   GL1  472  10.191   3.109   7.247 -0.1107  0.1890  0.3794
    4POPC   GL2  473  10.445   3.328   7.204 -0.0968  0.1767 -0.0697
    4POPC   C1A  474  10.057   3.336   6.914  0.1289  0.2871  0.1721
    4POPC   D2A  475   9.788   3.381   6.552  0.0388 -0.0867  0.2704
    4POPC   C3A  476   9.785   3.050   6.229 -0.1118 -0.2699 -0.1711
    4POPC   C4A  477   9.742   2.992   5.791  0.0919  0.1408  0.4630
    4POPC   C1B  478  10.657   3.489   6.799  0.1041 -0.3593 -0.1964
    4POPC   C2B  479  10.828   3.589   6.311  0.0422  0.2808 -0.2397
    4POPC   C3B  480  11.027   3.871   5.976 -0.0416  0.0442  0.3257
    4POPC   C4B  481  11.154   4.095   5.739 -0.0284 -0.0291 -0.3019
    5POPC   NC3  482   6.372   7.404   7.129 -0.1301 -0.1180 -0.0895
    5POPC   PO4  483   6.014   7.387   7.352  0.1787  0.0473 -0.1471
    5POPC   GL1  484   5.908   7.623   7.030  0.2183 -0.0779  0.1849
    5POPC   GL2  485   6.182   7.859   7.039 -0.0239 -0.0243  0.1554
    5POPC   C1A  486   5.743   7.984   6.724 -0.0131 -0.0250  0.0408
    5POPC   D2A  487   5.768   8.212   6.384  0.3481 -0.2129 -0.0351
    5POPC   C3A  488   5.443   8.172   5.957  0.0116 -0.0458  0.2457
    5POPC   C4A  489   5.211   8.316   5.653  0.0410 -0.2411  0.1996
    5POPC   C1B  490   6.148   7.740   6.566  0.0261 -0.5380 -0.0931
    5POPC   C2B  491   6.082   7.786   6.227  0.0221 -0.0377  0.2394
    5POPC   C3B  492   5.779   7.373   6.086 -0.1783 -0.0083 -0.1130
    5POPC   C4B  493   5.692   7.244   5.607  0.3654  0.3047  0.0164
    6POPC   NC3  494   0.302   2.975   7.620 -0.0779  0.0643  0.0265
    6POPC   PO4  495   0.643   3.063   7.384  0.1622 -0.1152 -0.2001
    6POPC   GL1  496   0.872   3.339   7.134 -0.2035  0.1509 -0.0088
    6POPC   GL2  497   1.175   3.518   7.140 -0.0924 -0.2151  0.3619
    6POPC   C1A  498   0.935   3.387   6.645  0.1798  0.0794 -0.2045
    6POPC   D2A  499   1.018   3.443   6.155  0.1558 -0.0204 -0.1341
    6POPC   C3A  500   1.088   3.110   5.878 -0.1931  0.0263  0.1241
    6POPC   C4A  501   1.443   2.763   5.736 -0.1860 -0.1147  0.0517
    6POPC   C1B  502   1.408   3.277   6.890 -0.1677 -0.3627  0.1087
    6POPC   C2B  503   1.432   3.146   6.499  0.3292 -0.1171 -0.0988
    6POPC   C3B  504   1.697   2.836   6.259  0.1923 -0.1407 -0.1660
    6POPC   C4B  505   1.848   3.003   5.811 -0.0294 -0.3281 -0.0951
    7POPC   NC3  506   6.210   2.731   7.701  0.1352  0.1549 -0.1745
    7POPC   PO4  507   6.482   2.544   7.587 -0.0886  0.3390  0.0088
    7POPC   GL1  508   6.633   2.712   7.217 -0.0984  0.2459  0.0469
    7POPC   GL2  509   6.569   2.654   6.963 -0.6963 -0.1123 -0.0591
    7POPC   C1A  510   7.102   2.517   7.037  0.0544  0.2426  0.2154
    7POPC   D2A  511   7.347   2.209   6.945 -0.1418 -0.2013 -0.0883
    7POPC   C3A  512   7.259   2.143   6.483 -0.0582  0.1669 -0.0610
    7POPC   C4A  513   7.183   1.822   6.102 -0.0920  0.0259 -0.3752
    7POPC   C1B  514   6.648   2.453   6.571 -0.1447 -0.1098  0.3050
    7POPC   C2B  515   6.167   2.330   6.419  0.0725 -0.0902  0.0293
    7POPC   C3B  516   6.286   1.911   6.340  0.3292 -0.0095  0.0701
    7POPC   C4B  517   6.146   1.584   6.550  0.3769  0.3452  0.0726
    8POPC   NC3  518   9.888   3.620   7.904  0.0985  0.2634  0.0632
    8POPC   PO4  519  10.146   3.993   7.908  0.3912  0.2019  0.1226
    8POPC   GL1  520  10.304   3.956   7.645 -0.3367  0.1321  0.2420
    8POPC   GL2  521  10.667   4.147   7.539  0.1804  0.1231  0.0525
    8POPC   C1A  522  10.062   4.238   7.248  0.3643 -0.1240  0.0257
    8POPC   D2A  523  10.083   4.374   6.858  0.0614 -0.3906 -0.1703
    8POPC   C3A  524  10.199   4.247   6.449  0.0329  0.1965 -0.0789
    8POPC   C4A  525  10.137   4.259   5.958 -0.1590 -0.0528 -0.3380
    8POPC   C1B  526  10.629   3.786   7.245 -0.2240  0.2466  0.3023
    8POPC   C2B  527  10.255   3.861   6.928 -0.3149  0.0852 -0.1000
    8POPC   C3B  528  10.225   3.669   6.555  0.0565 -0.1474 -0.0034
    8POPC   C4B  529  10.171   3.481   6.109 -0.1687  0.1980 -0.0255
    9POPC   NC3  530   3.939   6.738   7.332  0.2233  0.0442 -0.0607
    9POPC   PO4  531   3.639   6.578   7.463  0.0056 -0.0865 -0.0110
    9POPC   GL1  532   3.635   6.457   7.024 -0.4586  0.0342 -0.1611
    9POPC   GL2  533   3.805   6.155   6.991  0.0477  0.0069  0.1875
    9POPC   C1A  534   3.759   6.384   6.563 -0.1504  0.0014  0.1967
    9POPC   D2A  535   3.869   6.384   6.060  0.1101  0.0262  0.3337
    9POPC   C3A  536   4.023   6.680   5.842 -0.4130 -0.0987  0.1470
    9POPC   C4A  537   3.888   7.007   5.618 -0.1024  0.1472  0.2139
    9POPC   C1B  538   3.776   5.855   6.651 -0.0485  0.2177  0.3690
    9POPC   C2B  539   3.724   5.708   6.233 -0.0628 -0.3038  0.0500
    9POPC   C3B  540   3.851   5.379   5.931 -0.1405 -0.2848 -0.1554
    9POPC   C4B  541   4.200   5.148   5.960 -0.1798  0.0028 -0.2068
   10POPC   NC3  542   3.787   2.236   8.286  0.0106 -0.1428  0.1216
   10POPC   PO4  543   4.012   2.236   7.972 -0.1846 -0.0571 -0.0701
   10POPC   GL1  544   4.159   2.095   7.565 -0.2277  0.0870 -0.0169
   10POPC   GL2  545   4.405   2.310   7.461  0.0212 -0.0738 -0.0071
   10POPC   C1A  546   4.251   1.932   7.202 -0.0793  0.1631 -0.4581
   10POPC   D2A  547   4.580   2.167   6.915  0.0360 -0.1695  0.0968
   10POPC   C3A  548   4.791   2.284   6.552  0.0201 -0.2446 -0.0909
   10POPC   C4A  549   5.176   2.557   6.337  0.2296  0.0758 -0.1573
   10POPC   C1B  550   4.766   2.561   7.199 -0.2252  0.2312 -0.1127
   10POPC   C2B  551   4.927   2.689   6.758 -0.0918  0.1916 -0.1331
   10POPC   C3B  552   5.287   2.944   6.664 -0.2451 -0.2020 -0.2135
   10POPC   C4B  553   5.578   2.841   6.383 -0.0158 -0.1966  0.0224
   11POPC   NC3  554   1.015   2.170   8.374 -0.3856 -0.1505  0.3420
   11POPC   PO4  555   1.266   2.475   8.011 -0.0895  0.0535  0.1335
   11POPC   GL1  556   1.057   2.151   7.833  0.1904  0.1901  0.3743
   11POPC   GL2  557   1.090   2.264   7.563 -0.1260  0.1480  0.1060
   11POPC   C1A  558   1.124   1.680   7.659 -0.1822 -0.2796 -0.2999
   11POPC   D2A  559   1.336   1.334   7.519  0.0519  0.0906  0.0363
   11POPC   C3A  560   1.203   1.075   7.215  0.1836  0.1011  0.2657
   11POPC   C4A  561   1.007   0.724   7.036  0.0657  0.1888 -0.0782
   11POPC   C1B  562   1.405   2.461   7.325 -0.0897 -0.1138 -0.4675
   11POPC   C2B  563   1.479   2.652   6.948  0.0927  0.0271  0.2616
   11POPC   C3B  564   1.329   2.638   6.525 -0.1017 -0.0192  0.1706
   11POPC   C4B  565   1.197   2.639   6.179  0.1078 -0.2620  0.2166
   12POPC   NC3  566   3.795   3.897   7.718  0.1635 -0.3590 -0.0494
   12POPC   PO4  567   4.138   3.581   7.630  0.1676  0.1687 -0.3942
   12POPC   GL1  568   4.223   3.335   7.258  0.3136 -0.1708 -0.0418
   12POPC   GL2  569   4.071   3.057   7.263  0.2092  0.1634  0.0102
   12POPC   C1A  570   4.064   3.255   6.842 -0.2492 -0.2160 -0.0576
   12POPC   D2A  571   3.817   2.982   6.580  0.0271 -0.1647  0.2604
   12POPC   C3A  572   4.141   2.770   6.290 -0.1323 -0.2745 -0.0777
   12POPC   C4A  573   4.528   2.565   6.143 -0.2303 -0.1687 -0.2481
   12POPC   C1B  574   4.349   2.770   7.040 -0.1200 -0.1326 -0.0623
   12POPC   C2B  575   4.395   2.581   6.638 -0.0641  0.4074  0.0730
   12POPC   C3B  576   4.317   2.113   6.524 -0.2759 -0.2960 -0.1607
   12POPC   C4B  577   4.056   1.734   6.513 -0.1816  0.0279  0.1182
   13POPC   NC3  578   9.556   0.829   7.521 -0.0489 -0.1061 -0.4357
   13POPC   PO4  579   9.987   0.993   7.442  0.1253 -0.0777  0.1190
   13POPC   GL1  580   9.793   1.151   7.124 -0.1179 -0.1139  0.1357
   13POPC   GL2  581   9.794   1.608   7.161 -0.0702  0.1989 -0.2767
   13POPC   C1A  582   9.866   1.410   6.713  0.1137 -0.1998  0.1297
   13POPC   D2A  583  10.095   1.370   6.332 -0.2469 -0.0720  0.1865
   13POPC   C3A  584  10.282   1.721   6.119  0.1561 -0.0055 -0.4230
   13POPC   C4A  585  10.465   2.049   5.904  0.2362 -0.1678  0.0279
   13POPC   C1B  586   9.757   1.882   6.853 -0.0084 -0.0956 -0.3068
   13POPC   C2B  587   9.708   2.201   6.681 -0.0152  0.0115  0.2310
   13POPC   C3B  588   9.689   2.606   6.407  0.2242  0.0611  0.2251
   13POPC   C4B  589   9.395   2.701   6.096  0.0630 -0.0521 -0.0920
   14POPC   NC3  590   9.599   1.941   7.842 -0.0570 -0.0443  0.1763
   14POPC   PO4  591   9.983   2.182   7.712  0.0699 -0.1758  0.3475
   14POPC   GL1  592   9.775   2.158   7.297 -0.1561 -0.2154 -0.1142
   14POPC   GL2  593  10.075   2.139   7.126  0.1042 -0.4034  0.1971
   14POPC   C1A  594   9.321   2.139   7.032  0.0593  0.0080 -0.0607
   14POPC   D2A  595   9.037   1.925   6.752 -0.0125 -0.0944 -0.5041
   14POPC   C3A  596   8.734   2.194   6.535  0.1063  0.0253  0.0187
   14POPC   C4A  597   8.418   2.339   6.791  0.0671 -0.0154  0.1184
   14POPC   C1B  598  10.287   2.600   7.086  0.2951  0.0564  0.3058
   14POPC   C2B  599  10.451   2.880   6.872  0.0788  0.0397  0.1046
   14POPC   C3B  600  10.845   3.033   6.804 -0.2610  0.1486 -0.1482
   14POPC   C4B  601  11.234   2.905   6.826  0.1069  0.0664 -0.2040
   15POPC   NC3  602   5.991   6.932   7.663  0.2600 -0.2716 -0.3308
   15POPC   PO4  603   5.853   6.537   7.481  0.1822 -0.1193 -0.0788
   15POPC   GL1  604   5.798   6.504   7.101 -0.3493  0.0575 -0.0694
   15POPC   GL2  605   5.399   6.628   7.093  0.0021 -0.0027  0.1223
   15POPC   C1A  606   5.777   6.713   6.737 -0.0005 -0.1435  0.0497
   15POPC   D2A  607   5.817   6.800   6.236  0.3547  0.0099 -0.0116
   15POPC   C3A  608   6.075   6.554   5.929  0.0759  0.1498  0.0272
   15POPC   C4A  609   6.311   6.419   5.477 -0.1443  0.4505 -0.2385
   15POPC   C1B  610   5.178   6.915   6.906 -0.3998  0.0946  0.3597
   15POPC   C2B  611   5.058   7.283   6.838  0.1574 -0.1707  0.0450
   15POPC   C3B  612   5.404   7.590   6.872  0.3527 -0.0274  0.0132
   15POPC   C4B  613   5.567   7.673   6.386 -0.0514  0.0262  0.1686
   16POPC   NC3  614   5.272   0.746   8.575 -0.4599  0.1907  0.1718
   16POPC   PO4  615   4.986   0.541   8.510 -0.0083 -0.0070 -0.0252
   16POPC   GL1  616   4.838   0.278   8.163  0.0849 -0.1688 -0.1052
   16POPC   GL2  617   5.050   0.185   7.841 -0.1045  0.1367 -0.3130
   16POPC   C1A  618   4.891  -0.210   8.016 -0.0870  0.3035  0.3082
   16POPC   D2A  619   4.899  -0.326   7.643  0.0544 -0.0291  0.2852
   16POPC   C3A  620   4.899  -0.069   7.347  0.2858 -0.1114 -0.0549
   16POPC   C4A  621   4.911  -0.024   6.817 -0.3259  0.2151  0.0998
   16POPC   C1B  622   4.847   0.404   7.621 -0.3153 -0.0330  0.1146
   16POPC   C2B  623   4.735   0.406   7.241  0.2067  0.1818  0.2332
   16POPC   C3B  624   4.402   0.637   7.166 -0.0008 -0.0181 -0.2985
   16POPC   C4B  625   4.039   0.892   6.932  0.0771  0.0856 -0.1079
   17POPC   NC3  626   3.701   5.284   7.982  0.0106  0.0012  0.1155
   17POPC   PO4  627   3.935   5.570   8.029  0.1549  0.0987 -0.3555
   17POPC   GL1  628   3.825   5.556   7.515  0.2248  0.2315  0.0050
   17POPC   GL2  629   3.620   5.291   7.492  0.0458 -0.2501  0.2790
   17POPC   C1A  630   3.744   5.639   7.150 -0.0061 -0.3148  0.1205
   17POPC   D2A  631   3.468   5.348   6.825 -0.3835  0.1105 -0.1812
   17POPC   C3A  632   3.343   5.593   6.479 -0.1769 -0.0473  0.0663
   17POPC   C4A  633   3.010   5.706   6.193  0.1027  0.0920 -0.0779
   17POPC   C1B  634   3.843   5.108   7.120 -0.2286 -0.1185  0.1563
   17POPC   C2B  635   3.844   5.004   6.740 -0.0113 -0.0527  0.3394
   17POPC   C3B  636   3.753   4.787   6.464  0.0976 -0.2016  0.0320
   17POPC   C4B  637   3.862   4.379   6.198  0.2255 -0.0432  0.2465
   18POPC   NC3  638   7.952   8.241   7.615  0.0320 -0.1448 -0.1091
   18POPC   PO4  639   8.338   7.993   7.767  0.2171 -0.0396 -0.0863
   18POPC   GL1  640   8.514   7.730   7.382 -0.0301 -0.0619  0.2453
   18POPC   GL2  641   8.118   7.801   7.197  0.0903  0.1846  0.2396
   18POPC   C1A  642   8.586   7.808   6.919  0.0721  0.0708 -0.0848
   18POPC   D2A  643   8.873   7.891   6.488  0.1291  0.0642 -0.0161
   18POPC   C3A  644   8.803   8.315   6.335  0.4647  0.1393 -0.1993
   18POPC   C4A  645   8.806   8.451   6.009  0.1574  0.0987 -0.0886
   18POPC   C1B  646   8.033   7.927   6.779  0.0559 -0.3789  0.0037
   18POPC   C2B  647   7.798   7.928   6.364  0.1993 -0.0115  0.1930
   18POPC   C3B  648   7.502   7.817   5.999  0.1197 -0.0645 -0.0618
   18POPC   C4B  649   7.100   7.557   5.835  0.0620 -0.1198  0.1806
   19POPC   NC3  650   2.123   7.530   8.047  0.1413 -0.1892 -0.1453
   19POPC   PO4  651   2.133   7.877   8.387 -0.1030  0.3056  0.3947
   19POPC   GL1  652   2.229   8.093   8.008 -0.4383  0.1143  0.1331
   19POPC   GL2  653   2.182   8.037   7.651  0.3247  0.0866 -0.5144
   19POPC   C1A  654   2.576   8.447   7.853  0.2640 -0.2199 -0.0039
   19POPC   D2A  655   2.895   8.491   7.444  0.0736  0.0707 -0.1454
   19POPC   C3A  656   2.876   8.466   7.009 -0.4387 -0.2534 -0.3636
   19POPC   C4A  657   2.937   8.708   6.623 -0.1872  0.2453  0.1121
   19POPC   C1B  658   2.442   8.144   7.379  0.1435 -0.1457 -0.2752
   19POPC   C2B  659   2.880   8.003   7.141 -0.1331 -0.0834 -0.1767
   19POPC   C3B  660   3.317   8.221   6.968 -0.1967  0.3217 -0.1361
   19POPC   C4B  661   3.717   7.955   6.732  0.0242  0.3230 -0.0982
   20POPC   NC3  662   7.686   0.812   7.591  0.2172  0.1580 -0.1051
   20POPC   PO4  663   7.777   1.269   7.475 -0.0565 -0.0734 -0.1530
   20POPC   GL1  664   8.016   1.432   7.240 -0.2451  0.0881 -0.0653
   20POPC   GL2  665   8.377   1.345   7.160  0.2285  0.1103 -0.2729
   20POPC   C1A  666   8.108   1.506   6.833  0.0120 -0.0812  0.0347
   20POPC   D2A  667   8.300   1.355   6.407  0.2200  0.1831 -0.1624
   20POPC   C3A  668   8.014   1.245   6.161  0.2159  0.2265  0.2525
   20POPC   C4A  669   7.786   1.283   6.408 -0.0705  0.2120 -0.3939
   20POPC   C1B  670   8.574   1.205   6.844  0.0268 -0.0419 -0.1842
   20POPC   C2B  671   8.702   0.922   6.490  0.0735 -0.0624  0.0644
   20POPC   C3B  672   8.963   0.909   6.121  0.1679 -0.0332  0.2760
   20POPC   C4B  673   8.848   1.000   5.673 -0.1828 -0.1510  0.2584
   21POPC   NC3  674   1.634   1.406   9.090  0.2134 -0.3088 -0.3418
   21POPC   PO4  675   1.795   1.204   8.643 -0.0380  0.1469 -0.3444
   21POPC   GL1  676   1.782   1.119   8.161 -0.2736  0.4689  0.1211
   21POPC   GL2  677   2.125   1.116   8.013  0.2317  0.1409  0.0073
   21POPC   C1A  678   1.874   1.423   7.707 -0.1204 -0.1690  0.2985
   21POPC   D2A  679   1.639   1.770   7.612 -0.0013 -0.0173 -0.3365
   21POPC   C3A  680   1.547   1.983   7.254 -0.1387 -0.0247  0.3603
   21POPC   C4A  681   1.471   2.091   7.001  0.0417 -0.0446 -0.3864
   21POPC   C1B  682   2.538   0.929   8.068  0.1056 -0.1551  0.0312
   21POPC   C2B  683   2.884   0.610   7.864 -0.0311 -0.0110  0.2084
   21POPC   C3B  684   2.753   0.675   7.357  0.3268 -0.1232 -0.1267
   21POPC   C4B  685   3.123   0.804   6.955  0.2148  0.0038 -0.1047
   22POPC   NC3  686   7.362   4.568   7.429 -0.3952 -0.0390 -0.1013
   22POPC   PO4  687   7.421   5.074   7.455 -0.0522 -0.3130 -0.0224
   22POPC   GL1  688   7.594   5.029   7.074  0.0142 -0.4595 -0.1359
   22POPC   GL2  689   7.369   4.781   6.959 -0.0064 -0.1996  0.1689
   22POPC   C1A  690   7.799   5.175   6.662  0.3026  0.1515 -0.0482
   22POPC   D2A  691   7.750   5.176   6.227  0.1603  0.3461 -0.0512
   22POPC   C3A  692   7.984   4.864   6.033 -0.3004 -0.1094  0.0916
   22POPC   C4A  693   8.257   4.672   5.843 -0.2063 -0.0546 -0.0858
   22POPC   C1B  694   7.321   4.915   6.492  0.1584 -0.2109  0.0461
   22POPC   C2B  695   7.112   5.084   6.121  0.0353  0.2906  0.2547
   22POPC   C3B  696   6.706   5.093   5.870  0.1684  0.3422 -0.2652
   22POPC   C4B  697   6.304   5.091   6.209  0.1339  0.0092 -0.0506
   23POPC   NC3  698   6.547   1.888   7.720 -0.1843  0.1424  0.2945
   23POPC   PO4  699   6.990   1.979   7.671  0.2246 -0.1687 -0.1639
   23POPC   GL1  700   6.894   2.168   7.280 -0.1729  0.0004  0.0016
   23POPC   GL2  701   6.586   2.089   7.222  0.2343 -0.0126  0.0667
   23POPC   C1A  702   6.873   2.117   6.836  0.0710 -0.0235  0.1139
   23POPC   D2A  703   6.749   1.927   6.412 -0.0136 -0.0044 -0.3485
   23POPC   C3A  704   6.570   2.292   6.134 -0.2751  0.1453  0.2293
   23POPC   C4A  705   6.426   2.724   5.984 -0.0852 -0.0190 -0.2084
   23POPC   C1B  706   6.326   1.922   6.925 -0.4517  0.1106  0.2320
   23POPC   C2B  707   5.906   2.015   6.713  0.1966  0.2806 -0.1437
   23POPC   C3B  708   5.569   1.738   6.606  0.0313 -0.0517  0.0878
   23POPC   C4B  709   5.518   1.544   6.260  0.1496  0.2474  0.0998
   24POPC   NC3  710   8.812   0.081   8.006 -0.3712  0.1299  0.0721
   24POPC   PO4  711   8.872   0.208   7.596  0.1396  0.1957  0.0490
   24POPC   GL1  712   8.796   0.452   7.284  0.2588 -0.0134  0.0926
   24POPC   GL2  713   8.727   0.705   7.141 -0.1995 -0.1954 -0.4532
   24POPC   C1A  714   9.069   0.350   6.939  0.0734 -0.1223 -0.3229
   24POPC   D2A  715   9.177   0.533   6.600 -0.0531 -0.1029  0.1962
   24POPC   C3A  716   9.047   0.382   6.233  0.1438  0.0472 -0.4138
   24POPC   C4A  717   9.065   0.153   5.868 -0.1744 -0.0837  0.0532
   24POPC   C1B  718   8.561   0.579   6.815 -0.1200  0.1255  0.0459
   24POPC   C2B  719   8.584   0.464   6.372  0.0738 -0.2148  0.0075
   24POPC   C3B  720   8.606   0.443   5.873  0.1462 -0.0119 -0.1257
   24POPC   C4B  721   8.765   0.300   5.523  0.0474  0.1090 -0.0880
   25POPC   NC3  722   6.622   5.015   7.541 -0.2331  0.0105  0.3025
   25POPC   PO4  723   6.146   4.885   7.587  0.1107 -0.0058 -0.0984
   25POPC   GL1  724   6.289   4.951   7.091  0.1112 -0.1585  0.0291
   25POPC   GL2  725   6.608   5.010   6.968 -0.3521 -0.1843 -0.2354
   25POPC   C1A  726   6.434   4.622   6.742  0.3230 -0.2018  0.1618
   25POPC   D2A  727   6.563   4.242   6.616 -0.0327 -0.6612 -0.0768
   25POPC   C3A  728   6.641   4.189   6.169 -0.1995  0.0904 -0.1347
   25POPC   C4A  729   6.636   4.442   5.791 -0.0595  0.2148  0.1037
   25POPC   C1B  730   6.227   5.151   6.666  0.1074  0.0191 -0.0385
   25POPC   C2B  731   5.758   5.226   6.764  0.3656  0.0559  0.0872
   25POPC   C3B  732   5.453   5.133   6.967  0.3331 -0.2119  0.1799
   25POPC   C4B  733   5.080   5.445   7.080  0.1415  0.1652  0.0913
   26POPC   NC3  734   6.280   7.710   7.670  0.1077 -0.1632 -0.3778
   26POPC   PO4  735   6.620   7.644   7.486  0.1188 -0.1847  0.0533
   26POPC   GL1  736   6.688   7.754   7.013  0.2001 -0.1611  0.0163
   26POPC   GL2  737   6.742   7.514   6.747  0.0184 -0.0656 -0.3350
   26POPC   C1A  738   6.750   8.122   6.828  0.2676  0.1543  0.0281
   26POPC   D2A  739   6.954   8.291   6.428 -0.2035 -0.0759  0.1030
   26POPC   C3A  740   7.435   8.290   6.257  0.3424  0.2836 -0.0979
   26POPC   C4A  741   7.925   8.510   6.228 -0.3666  0.3957  0.1809
   26POPC   C1B  742   6.630   7.797   6.517 -0.0267  0.0287 -0.0727
   26POPC   C2B  743   6.567   7.730   6.125  0.0365  0.2052  0.0621
   26POPC   C3B  744   6.401   7.348   5.876 -0.4030 -0.2785 -0.0606
   26POPC   C4B  745   6.174   6.986   5.736 -0.1326 -0.2308 -0.0323
   27POPC   NC3  746   2.356   3.736   7.660  0.2214  0.0409  0.0462
   27POPC   PO4  747   2.065   3.320   7.608 -0.0520 -0.2342 -0.2493
   27POPC   GL1  748   2.298   3.427   7.190 -0.2545 -0.0300 -0.1275
   27POPC   GL2  749   2.398   3.728   7.155  0.0286  0.2646  0.1991
   27POPC   C1A  750   2.375   3.426   6.733 -0.1078 -0.1382  0.1312
   27POPC   D2A  751   2.338   3.711   6.540 -0.1505 -0.0403  0.1505
   27POPC   C3A  752   2.310   3.569   6.125 -0.2354  0.0495  0.0264
   27POPC   C4A  753   1.972   3.458   5.875 -0.0515 -0.1331 -0.2121
   27POPC   C1B  754   2.091   3.931   6.934  0.1145  0.3078 -0.3927
   27POPC   C2B  755   2.155   4.222   6.602  0.0435  0.1451 -0.3172
   27POPC   C3B  756   2.205   4.304   6.220 -0.0694 -0.0476  0.1072
   27POPC   C4B  757   2.357   4.585   5.718 -0.0872 -0.1306 -0.7537
   28POPC   NC3  758   4.337   3.694   8.084  0.2187 -0.2376 -0.1564
   28POPC   PO4  759   4.512   3.876   7.749 -0.2484  0.0474 -0.1307
   28POPC   GL1  760   4.567   3.762   7.316  0.1833 -0.2780 -0.2775
   28POPC   GL2  761   4.879   3.670   7.258 -0.2173  0.0458  0.0273
   28POPC   C1A  762   4.436   3.670   6.878  0.1426 -0.0243  0.1339
   28POPC   D2A  763   4.528   3.586   6.391 -0.0853 -0.2769 -0.1172
   28POPC   C3A  764   4.166   3.274   6.272  0.0123  0.3336  0.0037
   28POPC   C4A  765   3.799   2.994   6.043  0.1431 -0.0401  0.0126
   28POPC   C1B  766   4.931   3.715   6.863 -0.0082  0.3390  0.0374
   28POPC   C2B  767   5.003   3.838   6.405  0.0948 -0.0982 -0.0719
   28POPC   C3B  768   4.754   3.994   6.090 -0.1515  0.2654  0.3348
   28POPC   C4B  769   4.872   4.048   5.689  0.2044  0.2621 -0.0965
   29POPC   NC3  770   1.377   5.036   7.424  0.2021 -0.3596 -0.0585
   29POPC   PO4  771   1.001   5.112   7.648 -0.1264 -0.0959 -0.1740
   29POPC   GL1  772   0.959   5.120   7.147 -0.0414  0.0291 -0.2387
   29POPC   GL2  773   1.198   5.072   6.856  0.0605 -0.0839  0.3299
   29POPC   C1A  774   0.732   5.263   6.755  0.1266 -0.0444 -0.2228
   29POPC   D2A  775   0.491   5.564   6.548 -0.3720 -0.3784  0.0413
   29POPC   C3A  776   0.080   5.731   6.446  0.1654  0.0113  0.3794
   29POPC   C4A  777  -0.280   5.681   6.329 -0.2759  0.1935 -0.3878
   29POPC   C1B  778   1.557   5.065   6.575  0.3052  0.1880  0.1117
   29POPC   C2B  779   1.556   5.163   6.106 -0.1425  0.1087 -0.1030
   29POPC   C3B  780   1.512   5.326   5.619  0.1382  0.3146  0.0898
   29POPC   C4B  781   1.511   5.390   5.145 -0.3357 -0.1567  0.0297
   30POPC   NC3  782   1.304   1.103   8.484  0.2293  0.0289  0.3905
   30POPC   PO4  783   0.998   1.189   8.216  0.3369  0.2856  0.1465
   30POPC   GL1  784   0.992   1.116   7.868 -0.1024  0.2136  0.0908
   30POPC   GL2  785   0.616   1.250   7.736  0.1676  0.2911  0.0628
   30POPC   C1A  786   1.117   0.767   7.586 -0.1441 -0.2878 -0.0197
   30POPC   D2A  787   1.497   0.607   7.323  0.1914  0.1659  0.0928
   30POPC   C3A  788   1.551   0.755   6.960 -0.0631 -0.1768 -0.3248
   30POPC   C4A  789   1.630   0.661   6.561 -0.0957 -0.1578  0.0399
   30POPC   C1B  790   0.840   1.325   7.419  0.0851  0.8368 -0.1289
   30POPC   C2B  791   1.122   1.554   7.096  0.0220  0.1533 -0.1169
   30POPC   C3B  792   1.299   1.633   6.767 -0.0046  0.1354  0.0657
   30POPC   C4B  793   1.595   1.566   6.391  0.2213  0.0598  0.3162
   31POPC   NC3  794   9.249   3.793   7.590  0.4065  0.1438  0.0871
   31POPC   PO4  795   9.450   3.452   7.622  0.1816  0.0329  0.0117
   31POPC   GL1  796   9.685   3.386   7.310  0.0425  0.0490  0.0633
   31POPC   GL2  797   9.677   3.085   7.021 -0.3271  0.2265  0.1233
   31POPC   C1A  798   9.624   3.634   6.928  0.1109 -0.5479  0.1155
   31POPC   D2A  799   9.806   3.977   6.673  0.1572 -0.0305  0.2473
   31POPC   C3A  800   9.865   3.902   6.260 -0.1652  0.0848 -0.0684
   31POPC   C4A  801   9.681   3.509   6.018 -0.4449 -0.2046  0.3280
   31POPC   C1B  802   9.989   2.928   6.706 -0.1548 -0.1496  0.1405
   31POPC   C2B  803  10.391   3.149   6.482 -0.1742  0.0586  0.0662
   31POPC   C3B  804  10.725   3.051   6.172  0.2014  0.1179  0.0925
   31POPC   C4B  805  11.149   2.991   6.315 -0.0190  0.3094  0.0246
   32POPC   NC3  806   0.352   4.376   8.007 -0.1625 -0.1119  0.1205
   32POPC   PO4  807   0.597   4.754   7.789 -0.1662  0.1122  0.0379
   32POPC   GL1  808   0.729   4.573   7.383 -0.2306  0.1342  0.0294
   32POPC   GL2  809   1.108   4.649   7.323  0.1952 -0.1795  0.0788
   32POPC   C1A  810   0.617   4.767   6.923  0.0111  0.2904  0.0143
   32POPC   D2A  811   0.843   4.846   6.479  0.1829 -0.0663 -0.0143
   32POPC   C3A  812   0.719   4.815   6.041 -0.0900  0.0835 -0.0119
   32POPC   C4A  813   0.523   4.692   5.629  0.1148 -0.2477  0.0372
   32POPC   C1B  814   1.065   4.580   7.016 -0.1065 -0.0536 -0.2137
   32POPC   C2B  815   0.875   4.306   6.660  0.0195 -0.1461 -0.1688
   32POPC   C3B  816   0.692   4.314   6.205 -0.2786  0.3454 -0.0938
   32POPC   C4B  817   0.379   4.336   6.134 -0.1120  0.2427 -0.0874
   33POPC   NC3  818   0.585   6.821   7.798 -0.0021  0.2450 -0.2493
   33POPC   PO4  819   0.918   6.769   7.435 -0.0459 -0.0676  0.1750
   33POPC   GL1  820   1.142   7.014   7.073  0.1374  0.1018  0.4120
   33POPC   GL2  821   1.474   7.099   6.983 -0.0202 -0.0488 -0.0023
   33POPC   C1A  822   1.146   6.925   6.660 -0.1059 -0.2417  0.0445
   33POPC   D2A  823   1.432   6.936   6.354 -0.0342 -0.0079 -0.0975
   33POPC   C3A  824   1.745   6.699   6.545  0.0211 -0.0556 -0.2312
   33POPC   C4A  825   1.997   6.314   6.724  0.2444 -0.4778 -0.0990
   33POPC   C1B  826   1.477   7.423   6.688  0.1059  0.0379  0.0514
   33POPC   C2B  827   1.652   7.762   6.516 -0.3740 -0.0217  0.0503
   33POPC   C3B  828   1.677   7.852   6.106  0.1194 -0.0875  0.2023
   33POPC   C4B  829   1.693   7.999   5.672 -0.2766 -0.0081  0.0324
   34POPC   NC3  830   4.003   2.972   7.757  0.0037 -0.1928 -0.2398
   34POPC   PO4  831   3.964   2.568   7.620 -0.1367  0.1023 -0.0197
   34POPC   GL1  832   3.892   2.539   7.218 -0.2286 -0.0951  0.0424
   34POPC   GL2  833   3.523   2.403   7.250 -0.1827 -0.2374 -0.1677
   34POPC   C1A  834   4.047   2.305   6.937  0.2360  0.2793 -0.0069
   34POPC   D2A  835   3.927   2.442   6.565  0.1994 -0.1571 -0.0290
   34POPC   C3A  836   3.925   2.229   6.169  0.0580  0.3160 -0.2593
   34POPC   C4A  837   3.653   1.805   6.117 -0.0586  0.3956  0.1790
   34POPC   C1B  838   3.122   2.339   7.057 -0.2407 -0.1717  0.0530
   34POPC   C2B  839   2.877   1.923   6.948 -0.0851 -0.2402 -0.0006
   34POPC   C3B  840   2.827   1.477   7.002  0.1180  0.3109  0.2070
   34POPC   C4B  841   2.695   1.032   7.024  0.2752  0.0047 -0.1544
   35POPC   NC3  842   4.297   1.132   8.823 -0.1221 -0.0177  0.1827
   35POPC   PO4  843   4.240   0.608   8.835  0.2292 -0.0985  0.0986
   35POPC   GL1  844   4.369   0.601   8.457 -0.0474  0.0819  0.2034
   35POPC   GL2  845   4.265   0.909   8.365  0.0809 -0.1340  0.1485
   35POPC   C1A  846   4.285   0.538   7.993 -0.1049  0.2277 -0.0376
   35POPC   D2A  847   4.476   0.728   7.658 -0.0664 -0.3234  0.0776
   35POPC   C3A  848   4.572   1.137   7.643 -0.0008  0.0478 -0.1638
   35POPC   C4A  849   4.505   1.671   7.534  0.1159  0.3025 -0.0110
   35POPC   C1B  850   4.053   1.030   7.973  0.3929  0.2358  0.0731
   35POPC   C2B  851   4.114   1.009   7.470 -0.4486  0.1887  0.4288
   35POPC   C3B  852   4.475   1.122   7.167  0.1398 -0.0025 -0.2059
   35POPC   C4B  853   4.772   1.253   6.794  0.1239  0.2899  0.1239
   36POPC   NC3  854   4.418   8.939   9.028 -0.0131 -0.0471  0.0075
   36POPC   PO4  855   4.583   8.734   8.694 -0.1440 -0.2494 -0.2808
   36POPC   GL1  856   4.475   8.936   8.317 -0.0523  0.2255 -0.3318
   36POPC   GL2  857   4.332   8.795   8.065  0.2245 -0.0947 -0.0281
   36POPC   C1A  858   4.476   9.269   8.057 -0.1209  0.0281 -0.4700
   36POPC   D2A  859   4.534   9.673   7.995 -0.1294  0.0564  0.1648
   36POPC   C3A  860   4.365   9.932   7.611 -0.3519 -0.1684 -0.3295
   36POPC   C4A  861   4.335  10.359   7.524  0.1119  0.0051  0.2033
   36POPC   C1B  862   4.103   8.541   7.747  0.1250 -0.3590  0.1246
   36POPC   C2B  863   4.050   8.139   7.576 -0.0357  0.0605  0.3791
   36POPC   C3B  864   4.056   7.887   7.109  0.2147  0.1365  0.1797
   36POPC   C4B  865   4.179   8.076   6.753 -0.3556 -0.1145  0.2196
   37POPC   NC3  866   0.905   8.696   8.713 -0.1133  0.0440 -0.1843
   37POPC   PO4  867   1.193   8.872   8.414 -0.1910  0.0360  0.0064
   37POPC   GL1  868   1.507   8.760   8.103  0.0522 -0.0935  0.0484
   37POPC   GL2  869   1.465   8.558   7.871  0.3232 -0.0157 -0.1121
   37POPC   C1A  870   1.810   9.002   7.900 -0.1618  0.1106  0.2684
   37POPC   D2A  871   1.862   9.341   7.656 -0.0631 -0.1178  0.0566
   37POPC   C3A  872   1.907   9.572   7.952  0.2140 -0.1758 -0.1891
   37POPC   C4A  873   1.915   9.915   8.306  0.0581 -0.1576 -0.2835
   37POPC   C1B  874   1.783   8.390   7.743  0.3960 -0.1008  0.1339
   37POPC   C2B  875   1.896   8.246   7.323 -0.1916 -0.1230 -0.0812
   37POPC   C3B  876   2.136   8.220   6.980  0.1477  0.3343 -0.0428
   37POPC   C4B  877   2.127   8.249   6.520  0.1300  0.3136  0.1177
   38POPC   NC3  878   7.299   5.588   7.277 -0.1369 -0.3314  0.5909
   38POPC   PO4  879   6.948   5.336   7.390  0.1018  0.0625  0.3171
   38POPC   GL1  880   7.105   5.225   6.980  0.1449 -0.0005 -0.0720
   38POPC   GL2  881   7.369   5.447   6.745  0.2042 -0.1078  0.1721
   38POPC   C1A  882   6.898   5.187   6.574  0.0123 -0.1584 -0.3487
   38POPC   D2A  883   6.844   5.469   6.298 -0.1402  0.1614 -0.1923
   38POPC   C3A  884   6.517   5.570   6.348 -0.2572  0.0938  0.2140
   38POPC   C4A  885   6.235   5.882   6.100 -0.2941 -0.1678  0.2288
   38POPC   C1B  886   7.558   5.507   6.412  0.0026  0.2314 -0.5743
   38POPC   C2B  887   7.939   5.720   6.194 -0.0679  0.0819 -0.1541
   38POPC   C3B  888   8.411   5.762   6.010 -0.1869  0.2063  0.0397
   38POPC   C4B  889   8.845   5.759   5.966 -0.0777 -0.1846  0.0395
   39POPC   NC3  890   9.399   2.918   7.510 -0.3024 -0.0756  0.1489
   39POPC   PO4  891   8.987   2.853   7.612 -0.2872  0.0634  0.1487
   39POPC   GL1  892   9.033   2.946   7.218  0.0299 -0.0094  0.2829
   39POPC   GL2  893   9.169   3.273   7.306  0.1271  0.0831  0.1001
   39POPC   C1A  894   9.219   2.800   6.795 -0.0105 -0.0409 -0.2105
   39POPC   D2A  895   9.250   2.408   6.639 -0.0834 -0.2939  0.0554
   39POPC   C3A  896   9.271   2.305   6.385  0.0797 -0.0869  0.2002
   39POPC   C4A  897   9.503   2.187   6.121  0.0952  0.0187  0.2755
   39POPC   C1B  898   9.286   3.323   6.808  0.0922  0.2536 -0.0110
   39POPC   C2B  899   9.357   3.283   6.355  0.1194  0.1940 -0.0470
   39POPC   C3B  900   9.148   3.149   6.000 -0.1426 -0.0248  0.2269
   39POPC   C4B  901   9.350   3.340   5.635  0.2334  0.2718 -0.0375
   40POPC   NC3  902   5.232   5.074   8.448 -0.1132  0.0061 -0.1491
   40POPC   PO4  903   4.940   5.139   8.108 -0.1084  0.0081  0.4225
   40POPC   GL1  904   4.891   4.903   7.728  0.0064 -0.1274 -0.2217
   40POPC   GL2  905   4.676   5.273   7.609 -0.0283  0.0589 -0.1778
   40POPC   C1A  906   4.511   4.793   7.392 -0.0145  0.1383  0.0521
   40POPC   D2A  907   4.147   4.646   7.102 -0.1395 -0.1830  0.3001
   40POPC   C3A  908   4.161   4.586   6.698 -0.3107  0.0007  0.1693
   40POPC   C4A  909   4.217   4.661   6.333 -0.0354  0.0899 -0.2077
   40POPC   C1B  910   4.842   5.038   7.184 -0.0731  0.0178  0.1499
   40POPC   C2B  911   4.863   4.689   7.046 -0.0706  0.0249 -0.4191
   40POPC   C3B  912   4.702   4.627   6.609 -0.0147 -0.0931  0.0513
   40POPC   C4B  913   4.703   4.446   6.211  0.6105  0.2163 -0.3292
   41POPC   NC3  914   5.211   6.244   8.003  0.2277 -0.2246 -0.0748
   41POPC   PO4  915   5.351   6.395   7.611  0.2030  0.2266  0.0486
   41POPC   GL1  916   5.050   6.271   7.254 -0.0009  0.3018 -0.2297
   41POPC   GL2  917   5.194   6.038   6.985 -0.0859 -0.0963 -0.0132
   41POPC   C1A  918   4.699   6.140   7.035 -0.2464 -0.0867  0.3419
   41POPC   D2A  919   4.732   5.869   6.808 -0.0002  0.1467 -0.3154
   41POPC   C3A  920   5.079   5.968   6.465  0.0834 -0.0625  0.0377
   41POPC   C4A  921   5.131   5.880   6.051 -0.3542 -0.0138  0.3041
   41POPC   C1B  922   5.015   6.454   6.746 -0.0095 -0.1206  0.1587
   41POPC   C2B  923   4.768   6.787   6.589 -0.1241  0.0481 -0.0096
   41POPC   C3B  924   4.726   6.954   6.213 -0.1342  0.0891 -0.0514
   41POPC   C4B  925   4.416   7.133   5.891  0.2584 -0.1164 -0.2594
   42POPC   NC3  926   5.517   8.937   7.677  0.0387 -0.0147  0.1682
   42POPC   PO4  927   5.985   8.713   7.640 -0.1393 -0.5619 -0.2608
   42POPC   GL1  928   5.861   8.707   7.342 -0.1566  0.0679  0.3130
   42POPC   GL2  929   5.618   8.942   7.177 -0.0318  0.1016 -0.1889
   42POPC   C1A  930   5.710   8.514   6.979  0.1950 -0.2563  0.1034
   42POPC   D2A  931   5.440   8.502   6.590  0.2023 -0.1787  0.2754
   42POPC   C3A  932   5.268   8.105   6.477  0.2811 -0.0210 -0.0280
   42POPC   C4A  933   5.009   8.107   6.105  0.0322  0.0810 -0.0618
   42POPC   C1B  934   5.681   9.021   6.767  0.1088 -0.2658  0.3368
   42POPC   C2B  935   5.866   9.166   6.463 -0.0051  0.0286 -0.0387
   42POPC   C3B  936   6.186   9.119   6.082  0.2288  0.0717 -0.4525
   42POPC   C4B  937   6.459   9.313   5.851 -0.2270  0.4338  0.0329
   43POPC   NC3  938   1.696   7.763   8.103 -0.0546 -0.0256  0.1844
   43POPC   PO4  939   1.576   7.336   7.780 -0.0273 -0.2559 -0.0673
   43POPC   GL1  940   1.409   7.437   7.376 -0.0515 -0.0067 -0.1069
   43POPC   GL2  941   1.087   7.423   7.332 -0.0179 -0.2093  0.0596
   43POPC   C1A  942   1.444   7.785   7.085  0.0928  0.1224 -0.0037
   43POPC   D2A  943   1.642   8.230   6.881  0.1759  0.0101  0.3445
   43POPC   C3A  944   1.577   8.263   6.355 -0.0801  0.2585 -0.1150
   43POPC   C4A  945   1.645   8.499   5.949 -0.0665 -0.1291  0.0037
   43POPC   C1B  946   1.024   7.493   6.900  0.1794 -0.1586  0.3432
   43POPC   C2B  947   1.029   7.507   6.448  0.0093  0.2077 -0.1839
   43POPC   C3B  948   1.225   7.476   6.080  0.3965  0.5478  0.0138
   43POPC   C4B  949   1.218   7.703   5.740 -0.1554  0.2294  0.2468
   44POPC   NC3  950   0.639   2.390   7.850  0.1849  0.0525 -0.2462
   44POPC   PO4  951   0.243   2.034   7.910 -0.4510 -0.1403  0.1116
   44POPC   GL1  952   0.267   2.166   7.437  0.1694 -0.0896 -0.0653
   44POPC   GL2  953   0.447   2.447   7.383 -0.0647  0.1487  0.1206
   44POPC   C1A  954   0.326   2.130   7.034  0.1335  0.0974  0.0428
   44POPC   D2A  955   0.634   1.981   6.707 -0.1217 -0.2558 -0.4119
   44POPC   C3A  956   0.574   1.815   6.206  0.1642 -0.1842  0.0863
   44POPC   C4A  957   0.741   1.416   5.941  0.0913  0.5745 -0.0244
   44POPC   C1B  958   0.572   2.539   6.932  0.1177  0.1791  0.1380
   44POPC   C2B  959   0.577   2.600   6.498  0.1687  0.1128  0.1229
   44POPC   C3B  960   0.653   2.458   6.106  0.0996  0.1722  0.0633
   44POPC   C4B  961   0.885   2.502   5.782 -0.0935  0.1679  0.0666
   45POPC   NC3  962   6.425   4.041   7.190 -0.1643  0.0583  0.1911
   45POPC   PO4  963   6.766   3.757   7.428  0.2486  0.2171  0.1049
   45POPC   GL1  964   6.763   3.562   7.008  0.2394 -0.0640  0.2040
   45POPC   GL2  965   6.571   3.772   6.823 -0.1019  0.2069 -0.2036
   45POPC   C1A  966   6.824   3.343   6.733  0.0549  0.1821  0.0474
   45POPC   D2A  967   6.740   2.967   6.464  0.0358  0.0815  0.1956
   45POPC   C3A  968   6.933   2.678   6.224 -0.3028  0.0147  0.1718
   45POPC   C4A  969   7.182   2.275   6.025  0.0806  0.2827  0.1344
   45POPC   C1B  970   6.803   3.722   6.471  0.0312 -0.1188  0.2621
   45POPC   C2B  971   7.127   3.804   6.165 -0.0104  0.1571 -0.2251
   45POPC   C3B  972   7.302   3.634   5.720 -0.2398  0.0777  0.0930
   45POPC   C4B  973   7.537   3.403   5.417  0.4437 -0.0516  0.1132
   46POPC   NC3  974   0.858   7.660   8.482  0.2638  0.1544  0.0493
   46POPC   PO4  975   0.819   7.948   8.212  0.1452 -0.0963  0.3268
   46POPC   GL1  976   0.834   7.982   7.668 -0.1395  0.0099 -0.0884
   46POPC   GL2  977   1.040   7.780   7.640 -0.1706 -0.1364  0.4768
   46POPC   C1A  978   0.794   8.369   7.397  0.0704 -0.0341 -0.3868
   46POPC   D2A  979   0.773   8.719   7.060  0.2333  0.3001 -0.1154
   46POPC   C3A  980   0.831   9.166   7.118  0.0500 -0.3605 -0.2314
   46POPC   C4A  981   0.823   9.552   7.074  0.0472  0.2695  0.1254
   46POPC   C1B  982   0.902   7.876   7.226 -0.0079  0.2656  0.0056
   46POPC   C2B  983   0.694   8.127   6.882 -0.1642 -0.2316 -0.0203
   46POPC   C3B  984   0.877   8.374   6.576  0.1716 -0.0118 -0.2740
   46POPC   C4B  985   1.100   8.449   6.231  0.2021  0.2157  0.1329
   47POPC   NC3  986   6.637   0.169   7.742 -0.2054  0.0034  0.0466
   47POPC   PO4  987   6.603  -0.197   7.720 -0.0325  0.0567 -0.0809
   47POPC   GL1  988   6.697  -0.195   7.366  0.0184 -0.2394 -0.1802
   47POPC   GL2  989   6.886   0.096   7.252  0.2715  0.0150 -0.0099
   47POPC   C1A  990   6.523  -0.058   6.885 -0.3296  0.1272  0.0251
   47POPC   D2A  991   6.448  -0.111   6.439 -0.0092 -0.1268 -0.0937
   47POPC   C3A  992   6.427   0.195   6.106 -0.1299 -0.3066 -0.0068
   47POPC   C4A  993   6.322   0.476   5.852  0.0081  0.0025  0.1026
   47POPC   C1B  994   6.959   0.201   6.868  0.3140 -0.1121 -0.0343
   47POPC   C2B  995   7.011   0.437   6.563  0.0647 -0.1332 -0.0291
   47POPC   C3B  996   7.102   0.643   6.182 -0.0961  0.1885 -0.2023
   47POPC   C4B  997   7.321   0.986   6.015 -0.1101 -0.2407 -0.2852
   48POPC   NC3  998   5.323   0.564   8.086 -0.0623 -0.0014  0.0416
   48POPC   PO4  999   5.467   0.940   8.180  0.2167 -0.0398 -0.1783
   48POPC   GL1 1000   5.526   0.834   7.692 -0.1813 -0.3711  0.1222
   48POPC   GL2 1001   5.305   0.635   7.572 -0.0179 -0.0081 -0.1097
   48POPC   C1A 1002   5.677   0.796   7.264 -0.1937  0.3030 -0.2977
   48POPC   D2A 1003   5.964   0.865   6.958 -0.1656  0.2043  0.0979
   48POPC   C3A 1004   6.101   0.701   6.554 -0.0986 -0.0697  0.0912
   48POPC   C4A 1005   6.045   0.450   6.253 -0.0529 -0.0411 -0.1461
   48POPC   C1B 1006   5.251   0.279   7.356  0.1952 -0.0119 -0.0052
   48POPC   C2B 1007   5.358  -0.043   7.107 -0.2754 -0.0006  0.0018
   48POPC   C3B 1008   5.705  -0.095   6.886  0.1022  0.2518 -0.2086
   48POPC   C4B 1009   5.890   0.181   6.627  0.0302  0.0931 -0.0502
   49POPC   NC3 1010   1.133   0.136   8.767 -0.0295 -0.0216 -0.2671
   49POPC   PO4 1011   1.167   0.554   8.577 -0.1298 -0.2350 -0.0325
   49POPC   GL1 1012   1.490   0.649   8.380  0.1089 -0.0034  0.2838
   49POPC   GL2 1013   1.300   0.756   8.068 -0.0931  0.1075  0.0767
   49POPC   C1A 1014   1.910   0.626   8.151 -0.3250  0.0324 -0.2422
   49POPC   D2A 1015   1.911   0.249   8.219  0.0298  0.1305 -0.0880
   49POPC   C3A 1016   2.188  -0.029   8.013 -0.1998  0.0023 -0.1406
   49POPC   C4A 1017   2.673   0.174   7.993 -0.2156 -0.1868  0.1749
   49POPC   C1B 1018   1.590   0.847   7.759 -0.0376 -0.3842 -0.0551
   49POPC   C2B 1019   1.685   1.043   7.370 -0.1873 -0.0730  0.0009
   49POPC   C3B 1020   1.724   1.476   7.084 -0.0662 -0.1759  0.1726
   49POPC   C4B 1021   1.815   1.819   6.769 -0.1167 -0.0428 -0.3287
   50POPC   NC3 1022   8.805   3.387   7.639  0.0721 -0.1309  0.0746
   50POPC   PO4 1023   8.411   3.720   7.609  0.2390 -0.4060  0.0861
   50POPC   GL1 1024   8.674   3.824   7.382 -0.1401 -0.0192  0.1054
   50POPC   GL2 1025   8.854   4.144   7.386 -0.2971  0.2387 -0.0582
   50POPC   C1A 1026   9.104   3.730   6.998  0.0999 -0.1162 -0.0664
   50POPC   D2A 1027   9.335   4.070   6.798  0.1680  0.1689 -0.1260
   50POPC   C3A 1028   9.470   4.355   6.415 -0.3342 -0.0366  0.1699
   50POPC   C4A 1029   9.840   4.595   6.294 -0.0202  0.2334  0.2311
   50POPC   C1B 1030   8.758   4.117   6.923 -0.1434 -0.0475 -0.0813
   50POPC   C2B 1031   8.635   4.091   6.469 -0.1031 -0.1531  0.3842
   50POPC   C3B 1032   8.456   3.695   6.261  0.1973 -0.0181 -0.1463
   50POPC   C4B 1033   8.299   3.327   6.636  0.2489  0.1499 -0.0947
   51POPC   NC3 1034   8.494   6.908   7.263  0.2596  0.2787  0.0718
   51POPC   PO4 1035   8.131   6.893   7.035 -0.0988  0.3192 -0.0806
   51POPC   GL1 1036   8.288   6.740   6.777 -0.0074 -0.0831 -0.0900
   51POPC   GL2 1037   8.058   6.604   6.601 -0.0186 -0.0908  0.1390
   51POPC   C1A 1038   8.625   6.899   6.490  0.4967  0.0444  0.0823
   51POPC   D2A 1039   8.630   7.083   6.083 -0.1121 -0.0670 -0.0090
   51POPC   C3A 1040   8.236   7.142   5.894 -0.0307 -0.0141  0.1477
   51POPC   C4A 1041   8.067   7.240   5.584 -0.2219 -0.0027 -0.1026
   51POPC   C1B 1042   8.246   6.699   6.235  0.0064  0.1703  0.0121
   51POPC   C2B 1043   8.408   6.707   5.801 -0.0530 -0.2589  0.1168
   51POPC   C3B 1044   8.124   6.642   5.610 -0.0926 -0.3422  0.0428
   51POPC   C4B 1045   7.783   6.641   5.793 -0.1372 -0.1109 -0.0344
   52POPC   NC3 1046   8.254   2.430   7.818  0.2370  0.0354  0.0261
   52POPC   PO4 1047   7.830   2.312   7.794 -0.1319 -0.0319 -0.1564
   52POPC   GL1 1048   7.873   2.359   7.308 -0.1893 -0.0241  0.2942
   52POPC   GL2 1049   8.123   2.620   7.292  0.0049 -0.3106 -0.1424
   52POPC   C1A 1050   7.840   2.345   6.913 -0.1766  0.0292  0.1852
   52POPC   D2A 1051   7.582   2.476   6.483  0.0835  0.0773 -0.0409
   52POPC   C3A 1052   7.739   2.325   6.124 -0.1314 -0.0732 -0.0214
   52POPC   C4A 1053   7.625   2.056   5.812 -0.1744  0.1261 -0.1293
   52POPC   C1B 1054   8.433   2.813   7.046 -0.2178 -0.4071  0.1994
   52POPC   C2B 1055   8.794   3.085   6.833 -0.1341 -0.2965  0.2526
   52POPC   C3B 1056   8.751   3.249   6.433  0.0500  0.0560 -0.0416
   52POPC   C4B 1057   8.849   3.499   6.060 -0.0643 -0.1624  0.2533
   53POPC   NC3 1058   0.239   7.186   7.900 -0.1831  0.2170  0.0123
   53POPC   PO4 1059   0.046   6.992   7.551  0.0763 -0.1931  0.1289
   53POPC   GL1 1060  -0.080   7.018   7.132  0.3552  0.2633  0.0573
   53POPC   GL2 1061   0.152   7.228   6.960  0.0708  0.2072 -0.1443
   53POPC   C1A 1062  -0.323   6.981   6.783  0.0893  0.2686  0.1627
   53POPC   D2A 1063  -0.637   7.222   6.626  0.3251 -0.1622 -0.2329
   53POPC   C3A 1064  -0.886   7.155   6.297 -0.2530  0.0805 -0.0075
   53POPC   C4A 1065  -1.129   6.854   6.230  0.2629  0.1217 -0.0420
   53POPC   C1B 1066   0.240   6.983   6.683 -0.0036 -0.0091  0.2551
   53POPC   C2B 1067   0.038   6.847   6.305 -0.0263  0.0176 -0.0070
   53POPC   C3B 1068   0.180   6.622   5.860  0.0807 -0.0298 -0.0987
   53POPC   C4B 1069   0.146   6.583   5.448  0.0514 -0.0032  0.3281
   54POPC   NC3 1070   2.015  10.105   9.348  0.1888 -0.1198 -0.0428
   54POPC   PO4 1071   2.111   9.720   9.207 -0.0862 -0.1398 -0.3940
   54POPC   GL1 1072   2.310   9.808   8.727  0.0378 -0.2314 -0.2072
   54POPC   GL2 1073   2.586   9.730   8.704 -0.1125 -0.0186 -0.0249
   54POPC   C1A 1074   2.335  10.259   8.498 -0.0779  0.0808  0.2747
   54POPC   D2A 1075   2.365  10.727   8.337  0.1374 -0.2871 -0.3380
   54POPC   C3A 1076   2.326  10.769   7.846 -0.1246  0.0849  0.0567
   54POPC   C4A 1077   2.141  11.108   7.564 -0.3094 -0.0650  0.3999
   54POPC   C1B 1078   2.597   9.915   8.296  0.0083 -0.4598 -0.1766
   54POPC   C2B 1079   2.840   9.893   7.901 -0.0090  0.0572 -0.0980
   54POPC   C3B 1080   3.161   9.861   7.785 -0.0659 -0.5215 -0.4263
   54POPC   C4B 1081   3.503  10.064   7.828  0.1548  0.2345 -0.3028
   55POPC   NC3 1082   6.157   1.565   7.685 -0.1346 -0.0345  0.1929
   55POPC   PO4 1083   6.322   1.154   7.631 -0.2931  0.1684  0.2204
   55POPC   GL1 1084   6.107   1.168   7.328  0.0228  0.1534 -0.3444
   55POPC   GL2 1085   6.411   0.907   7.219  0.0724  0.0251 -0.3946
   55POPC   C1A 1086   5.976   1.506   7.004  0.2968 -0.2945 -0.0073
   55POPC   D2A 1087   5.730   1.261   6.742 -0.0122 -0.0512 -0.0122
   55POPC   C3A 1088   5.841   1.076   6.355 -0.1147  0.1099 -0.1418
   55POPC   C4A 1089   6.155   0.909   6.046 -0.1532  0.1620  0.1702
   55POPC   C1B 1090   6.358   1.185   6.852  0.0886 -0.0508  0.0219
   55POPC   C2B 1091   6.368   1.146   6.438  0.0341  0.0656  0.1683
   55POPC   C3B 1092   6.014   1.482   6.116  0.0600  0.1286 -0.2558
   55POPC   C4B 1093   5.726   1.251   5.840  0.0864  0.0279 -0.4023
   56POPC   NC3 1094   4.223   7.304   8.207  0.2511  0.3869  0.0760
   56POPC   PO4 1095   4.118   7.005   7.762 -0.3126 -0.0085 -0.6947
   56POPC   GL1 1096   4.280   7.144   7.340  0.0837 -0.1696 -0.0708
   56POPC   GL2 1097   4.114   7.275   7.130  0.0063  0.0191 -0.1835
   56POPC   C1A 1098   4.573   7.134   6.892  0.1525 -0.0033 -0.0510
   56POPC   D2A 1099   4.667   7.316   6.552  0.2409 -0.2851  0.0892
   56POPC   C3A 1100   4.519   7.738   6.489  0.0016  0.0030  0.1052
   56POPC   C4A 1101   4.643   8.168   6.497  0.0184 -0.0060 -0.0779
   56POPC   C1B 1102   4.125   6.970   6.770  0.2960  0.0650 -0.1010
   56POPC   C2B 1103   4.283   6.765   6.419  0.0242  0.2686  0.1621
   56POPC   C3B 1104   4.391   6.409   6.086 -0.1903 -0.2725  0.2027
   56POPC   C4B 1105   4.311   6.212   5.678 -0.3064  0.0438  0.1234
   57POPC   NC3 1106   5.293   3.794   8.190  0.1195  0.0603 -0.0848
   57POPC   PO4 1107   5.288   4.307   7.993  0.1420 -0.1212  0.3838
   57POPC   GL1 1108   5.133   4.468   7.605 -0.5698  0.0556 -0.1212
   57POPC   GL2 1109   4.999   4.327   7.364 -0.0408 -0.0205 -0.1692
   57POPC   C1A 1110   5.303   4.796   7.258  0.2463 -0.0528  0.2347
   57POPC   D2A 1111   5.781   4.837   7.174 -0.0138 -0.1253  0.0700
   57POPC   C3A 1112   5.974   4.558   6.944 -0.1118  0.1765  0.0042
   57POPC   C4A 1113   5.962   4.257   6.717 -0.0604 -0.0750  0.2734
   57POPC   C1B 1114   5.065   4.214   6.951  0.3304  0.1494 -0.3287
   57POPC   C2B 1115   5.110   4.326   6.449 -0.2266  0.0225  0.1249
   57POPC   C3B 1116   5.170   4.251   6.044 -0.0891 -0.2080  0.0170
   57POPC   C4B 1117   5.532   4.168   5.758  0.0115 -0.1476 -0.2722
   58POPC   NC3 1118   6.134   5.333   7.367  0.0890 -0.1009 -0.0407
   58POPC   PO4 1119   6.483   5.442   7.173  0.0551 -0.1457 -0.4402
   58POPC   GL1 1120   6.368   5.635   6.810 -0.0316  0.4368 -0.2866
   58POPC   GL2 1121   6.532   5.898   6.809 -0.0561  0.3184  0.1023
   58POPC   C1A 1122   6.015   5.650   6.532 -0.1196 -0.0642 -0.0109
   58POPC   D2A 1123   5.825   5.273   6.269  0.2155  0.0217  0.0865
   58POPC   C3A 1124   5.893   5.406   5.831 -0.0746 -0.2009 -0.0381
   58POPC   C4A 1125   5.902   5.696   5.441  0.0422 -0.1646 -0.1472
   58POPC   C1B 1126   6.412   6.143   6.505  0.2465  0.1473  0.3964
   58POPC   C2B 1127   5.990   6.384   6.373 -0.1169  0.0252 -0.2793
   58POPC   C3B 1128   5.617   6.218   6.184 -0.0269 -0.5138 -0.1347
   58POPC   C4B 1129   5.377   6.340   5.749 -0.1189 -0.2219  0.1144
   59POPC   NC3 1130   9.974   6.229   7.637  0.3911  0.1419 -0.0677
   59POPC   PO4 1131   9.941   6.619   7.630 -0.2071  0.1457 -0.4095
   59POPC   GL1 1132   9.958   6.524   7.188 -0.2220  0.2190 -0.0452
   59POPC   GL2 1133   9.949   6.286   7.031  0.0197  0.1966 -0.2041
   59POPC   C1A 1134  10.262   6.549   6.843  0.1314  0.1344 -0.2077
   59POPC   D2A 1135  10.597   6.448   6.560  0.5456 -0.1580 -0.0226
   59POPC   C3A 1136  10.591   6.217   6.214 -0.0021  0.0115  0.0607
   59POPC   C4A 1137  10.311   6.107   5.831 -0.2454 -0.3185  0.1410
   59POPC   C1B 1138   9.896   5.886   6.842 -0.2686 -0.1049  0.2400
   59POPC   C2B 1139   9.996   5.463   6.842 -0.1680  0.0370  0.1513
   59POPC   C3B 1140   9.746   5.032   6.933  0.1334 -0.2453  0.2142
   59POPC   C4B 1141   9.650   4.561   6.917  0.2960  0.1724 -0.0046
   60POPC   NC3 1142   7.815   7.138   7.309  0.0144 -0.1213  0.2815
   60POPC   PO4 1143   8.210   7.281   7.455  0.0767  0.0614 -0.3346
   60POPC   GL1 1144   8.383   7.390   7.071 -0.1463  0.3297 -0.3965
   60POPC   GL2 1145   8.162   7.382   6.837  0.0594  0.2835  0.1036
   60POPC   C1A 1146   8.647   7.349   6.738 -0.1980  0.1392  0.1625
   60POPC   D2A 1147   8.929   7.310   6.435 -0.0451 -0.3591 -0.0859
   60POPC   C3A 1148   9.060   7.491   6.068 -0.0650  0.0891  0.0296
   60POPC   C4A 1149   9.424   7.519   5.773 -0.2594 -0.1793  0.1166
   60POPC   C1B 1150   8.148   7.562   6.488  0.1399 -0.3704 -0.1642
   60POPC   C2B 1151   7.945   7.551   6.083 -0.2508 -0.0503 -0.0261
   60POPC   C3B 1152   7.696   7.203   5.908 -0.0730  0.1357 -0.1514
   60POPC   C4B 1153   7.435   6.952   6.107  0.0605 -0.0873  0.1706
   61POPC   NC3 1154   2.331   2.236   8.258 -0.1485  0.3281 -0.0715
   61POPC   PO4 1155   1.849   2.298   8.078  0.3475 -0.2001  0.0853
   61POPC   GL1 1156   1.894   2.303   7.602  0.5008  0.0895 -0.0102
   61POPC   GL2 1157   2.074   2.105   7.524  0.2147  0.1917 -0.0390
   61POPC   C1A 1158   1.951   2.445   7.105  0.1273  0.3800  0.0586
   61POPC   D2A 1159   1.856   2.466   6.599  0.0781 -0.3070  0.1173
   61POPC   C3A 1160   2.181   2.456   6.212 -0.1138  0.2130 -0.1506
   61POPC   C4A 1161   2.279   2.585   5.843  0.2324  0.0010 -0.0194
   61POPC   C1B 1162   2.073   1.922   7.207  0.1043  0.0071  0.3280
   61POPC   C2B 1163   2.303   1.682   6.879 -0.1025 -0.0975 -0.0182
   61POPC   C3B 1164   2.539   1.480   6.587 -0.1954 -0.2793 -0.1531
   61POPC   C4B 1165   2.945   1.247   6.538  0.1561 -0.1306 -0.0808
   62POPC   NC3 1166   1.011   8.404   8.297 -0.6042 -0.2049 -0.3181
   62POPC   PO4 1167   0.673   8.786   8.282 -0.2995  0.1373 -0.1092
   62POPC   GL1 1168   0.962   8.792   7.994 -0.0295 -0.1218 -0.7677
   62POPC   GL2 1169   0.949   8.551   7.824 -0.0517 -0.3031  0.1915
   62POPC   C1A 1170   0.890   9.101   7.693 -0.2028 -0.0546  0.0410
   62POPC   D2A 1171   0.592   8.797   7.552  0.4189  0.3607 -0.2718
   62POPC   C3A 1172   0.339   8.646   7.225 -0.0689 -0.1048  0.1112
   62POPC   C4A 1173   0.223   8.299   7.021  0.0856  0.0115  0.0124
   62POPC   C1B 1174   1.232   8.266   7.548 -0.0510 -0.0824 -0.0514
   62POPC   C2B 1175   1.165   8.330   7.086  0.0396  0.1284 -0.3219
   62POPC   C3B 1176   1.207   8.016   6.695  0.1009  0.0071 -0.1708
   62POPC   C4B 1177   1.162   7.952   6.256 -0.1438 -0.3525  0.0920
   63POPC   NC3 1178   9.015   4.376   7.881 -0.1262  0.0493 -0.0220
   63POPC   PO4 1179   9.192   4.568   7.573 -0.3125  0.0557  0.0970
   63POPC   GL1 1180   9.164   4.598   7.131 -0.0489 -0.1088 -0.1383
   63POPC   GL2 1181   8.785   4.539   7.068  0.1747  0.1025  0.1506
   63POPC   C1A 1182   9.066   4.581   6.661 -0.1436  0.1225  0.2260
   63POPC   D2A 1183   9.010   4.475   6.214  0.1656 -0.0103  0.0746
   63POPC   C3A 1184   9.033   4.144   6.070 -0.0364 -0.0265  0.1615
   63POPC   C4A 1185   9.348   3.841   5.908  0.1316 -0.0594  0.0518
   63POPC   C1B 1186   8.677   4.840   6.765 -0.0121  0.2024  0.1757
   63POPC   C2B 1187   8.741   5.191   6.477  0.0614  0.0919 -0.2809
   63POPC   C3B 1188   9.033   5.337   6.117 -0.1657  0.1433 -0.0024
   63POPC   C4B 1189   9.372   5.189   5.854 -0.0220 -0.4454 -0.2164
   64POPC   NC3 1190   6.051   9.331   8.308 -0.3608 -0.0780 -0.1146
   64POPC   PO4 1191   5.902   9.194   7.810  0.2168 -0.5177 -0.3976
   64POPC   GL1 1192   6.072   9.170   7.383 -0.1663 -0.2797 -0.1186
   64POPC   GL2 1193   6.327   9.317   7.355  0.2368 -0.0963 -0.2883
   64POPC   C1A 1194   6.095   9.333   6.890 -0.1343  0.1212  0.2577
   64POPC   D2A 1195   6.357   9.291   6.559 -0.3158 -0.0608 -0.1863
   64POPC   C3A 1196   6.425   9.616   6.261 -0.2566  0.0320  0.4423
   64POPC   C4A 1197   6.533   9.852   5.945 -0.1376 -0.0194  0.2309
   64POPC   C1B 1198   6.244   9.756   7.214  0.0167 -0.0366  0.0847
   64POPC   C2B 1199   6.139   9.836   6.749 -0.2091 -0.1373  0.4820
   64POPC   C3B 1200   6.018   9.879   6.277  0.2848  0.1026 -0.3123
   64POPC   C4B 1201   5.979  10.015   5.875  0.3845  0.1257  0.1486
   65POPC   NC3 1202   2.358   5.826   7.529  0.0040 -0.2586 -0.0675
   65POPC   PO4 1203   2.340   6.203   7.627  0.0713 -0.1073  0.4899
   65POPC   GL1 1204   2.512   6.264   7.210  0.0032 -0.2399 -0.2483
   65POPC   GL2 1205   2.475   6.578   7.233 -0.0716 -0.2153 -0.1030
   65POPC   C1A 1206   2.530   6.098   6.823 -0.1542  0.1362 -0.0962
   65POPC   D2A 1207   2.909   5.908   6.649  0.0582 -0.0109  0.3084
   65POPC   C3A 1208   2.965   6.196   6.255  0.1627  0.0227 -0.2583
   65POPC   C4A 1209   2.997   6.104   5.810 -0.0495 -0.0721  0.0354
   65POPC   C1B 1210   2.468   6.665   6.824 -0.1521 -0.1647 -0.1712
   65POPC   C2B 1211   2.219   6.802   6.511 -0.2476 -0.1659  0.0043
   65POPC   C3B 1212   2.308   7.061   6.153 -0.2593  0.1527 -0.0487
   65POPC   C4B 1213   2.420   7.154   5.711 -0.2857  0.5253  0.0458
   66POPC   NC3 1214   8.592   5.323   7.701 -0.0114  0.0105 -0.4003
   66POPC   PO4 1215   8.314   5.618   7.597 -0.0107  0.2567 -0.1208
   66POPC   GL1 1216   8.085   5.568   7.266  0.1051 -0.0984  0.1568
   66POPC   GL2 1217   7.910   5.386   7.229  0.2002  0.1199  0.0671
   66POPC   C1A 1218   8.084   5.523   6.788  0.1150 -0.0828 -0.0645
   66POPC   D2A 1219   8.263   5.360   6.371  0.0981 -0.1545  0.0701
   66POPC   C3A 1220   8.164   5.365   5.942 -0.0143  0.0190  0.2608
   66POPC   C4A 1221   7.992   5.754   5.592 -0.0464  0.0799  0.0397
   66POPC   C1B 1222   8.169   5.080   6.943 -0.0617 -0.1669 -0.0308
   66POPC   C2B 1223   8.244   4.854   6.571  0.1272 -0.3241 -0.0060
   66POPC   C3B 1224   8.534   4.788   6.229 -0.1327 -0.1434  0.0756
   66POPC   C4B 1225   8.615   5.165   5.964  0.2460 -0.2288  0.0516
   67POPC   NC3 1226  10.017   9.788   7.664  0.0883 -0.0039 -0.0156
   67POPC   PO4 1227   9.950   9.927   7.305 -0.0639  0.1529 -0.2942
   67POPC   GL1 1228   9.768   9.678   7.013  0.1003 -0.4229  0.0091
   67POPC   GL2 1229   9.562   9.906   6.966  0.2094 -0.1592 -0.0669
   67POPC   C1A 1230   9.793   9.449   6.656 -0.1339  0.1484  0.0554
   67POPC   D2A 1231  10.015   9.612   6.517  0.0491  0.1571  0.1558
   67POPC   C3A 1232   9.979   9.608   6.102  0.0402  0.0108 -0.2117
   67POPC   C4A 1233   9.679   9.514   5.780  0.2744  0.0313  0.1180
   67POPC   C1B 1234   9.695  10.026   6.538  0.3018  0.2187  0.2658
   67POPC   C2B 1235   9.997  10.159   6.086  0.5096 -0.1746  0.1062
   67POPC   C3B 1236  10.014  10.017   5.774 -0.0279  0.0813 -0.3249
   67POPC   C4B 1237   9.981  10.072   5.286  0.1678 -0.1673 -0.0529
   68POPC   NC3 1238   8.779   9.096   7.936  0.0131 -0.0403  0.1247
   68POPC   PO4 1239   8.413   9.028   7.915 -0.0665  0.1375  0.1923
   68POPC   GL1 1240   8.428   9.266   7.495 -0.1029  0.2677  0.0325
   68POPC   GL2 1241   8.506   9.512   7.478 -0.0142 -0.0196 -0.0763
   68POPC   C1A 1242   8.372   9.003   7.205  0.1039  0.1563  0.1266
   68POPC   D2A 1243   8.083   8.798   6.813 -0.1547  0.1187  0.1244
   68POPC   C3A 1244   7.802   8.377   6.671  0.1302  0.0921 -0.0806
   68POPC   C4A 1245   7.354   8.238   6.805 -0.4834 -0.0891  0.0568
   68POPC   C1B 1246   8.444   9.518   7.042  0.3598  0.1272  0.1951
   68POPC   C2B 1247   8.362   9.236   6.728 -0.1100 -0.2128  0.1062
   68POPC   C3B 1248   8.276   8.917   6.390  0.2840  0.0390  0.0267
   68POPC   C4B 1249   8.411   8.733   5.997  0.0935  0.4951 -0.1492
   69POPC   NC3 1250   3.427   2.137   8.603 -0.0193  0.2292 -0.0750
   69POPC   PO4 1251   3.274   2.290   8.236  0.1019  0.2324  0.0383
   69POPC   GL1 1252   3.533   1.910   7.976 -0.0981 -0.3250 -0.2240
   69POPC   GL2 1253   3.668   2.054   7.639  0.0301  0.0968 -0.0092
   69POPC   C1A 1254   3.771   1.554   7.903 -0.0158 -0.2492 -0.3403
   69POPC   D2A 1255   4.114   1.469   7.668  0.2391 -0.1268  0.3618
   69POPC   C3A 1256   4.061   1.481   7.268 -0.2500 -0.0882 -0.1228
   69POPC   C4A 1257   3.906   1.452   6.912  0.2079 -0.1767 -0.2532
   69POPC   C1B 1258   3.690   1.823   7.229 -0.0868  0.0263 -0.0515
   69POPC   C2B 1259   3.665   1.978   6.783 -0.3324  0.0774 -0.4321
   69POPC   C3B 1260   3.492   2.173   6.431 -0.0928 -0.1739 -0.1326
   69POPC   C4B 1261   3.210   2.208   6.105  0.1630  0.0145 -0.2382
   70POPC   NC3 1262   3.127   3.217   7.625  0.0231  0.1031  0.0463
   70POPC   PO4 1263   3.333   3.666   7.491  0.0844 -0.1114 -0.0218
   70POPC   GL1 1264   3.343   3.430   7.158  0.0091  0.0997  0.1627
   70POPC   GL2 1265   3.367   3.601   6.939  0.0615  0.0085  0.1697
   70POPC   C1A 1266   3.649   3.051   7.057  0.2389 -0.3710  0.1635
   70POPC   D2A 1267   3.518   2.631   6.790  0.2829 -0.0667  0.0652
   70POPC   C3A 1268   3.506   2.655   6.295 -0.3182 -0.2363 -0.3779
   70POPC   C4A 1269   3.459   2.557   5.855 -0.0482  0.0581  0.0064
   70POPC   C1B 1270   3.247   3.704   6.528  0.0274  0.4035  0.3811
   70POPC   C2B 1271   3.211   3.667   6.048 -0.2302 -0.1430 -0.2146
   70POPC   C3B 1272   3.452   3.814   5.737  0.1844 -0.1120 -0.0425
   70POPC   C4B 1273   3.827   3.802   5.611 -0.0882  0.1072 -0.1790
   71POPC   NC3 1274   1.147   7.067   7.691  0.2814 -0.0929  0.1585
   71POPC   PO4 1275   0.744   7.273   7.737 -0.0149  0.0957  0.3251
   71POPC   GL1 1276   0.564   7.256   7.348  0.0462  0.0492  0.0533
   71POPC   GL2 1277   0.494   6.940   7.256  0.0192 -0.0096  0.0019
   71POPC   C1A 1278   0.533   7.574   7.059  0.2199 -0.1112  0.1003
   71POPC   D2A 1279   0.585   7.548   6.603  0.0192 -0.1229 -0.0077
   71POPC   C3A 1280   0.707   7.929   6.399 -0.0765  0.0355 -0.1692
   71POPC   C4A 1281   0.746   8.064   5.988  0.0120  0.1927  0.0480
   71POPC   C1B 1282   0.698   7.117   6.814  0.0040  0.0004  0.1605
   71POPC   C2B 1283   0.718   7.087   6.418  0.0912 -0.2957 -0.0090
   71POPC   C3B 1284   0.531   6.854   6.057  0.0976  0.1970 -0.0664
   71POPC   C4B 1285   0.606   6.824   5.588  0.0348 -0.0276 -0.0384
   72POPC   NC3 1286   1.265   9.758   8.225 -0.0968  0.2739  0.1544
   72POPC   PO4 1287   1.401   9.555   8.535 -0.0619 -0.3146 -0.1578
   72POPC   GL1 1288   1.574   9.306   8.222 -0.1017 -0.1054  0.0329
   72POPC   GL2 1289   1.373   9.291   8.050 -0.0747  0.1533 -0.0465
   72POPC   C1A 1290   1.991   9.132   8.311 -0.2545 -0.2852  0.1371
   72POPC   D2A 1291   2.350   9.488   8.322 -0.2961  0.2069  0.1143
   72POPC   C3A 1292   2.752   9.456   8.130 -0.0501  0.1274  0.1587
   72POPC   C4A 1293   2.899   9.419   7.791 -0.2278  0.1973  0.0412
   72POPC   C1B 1294   1.404   9.147   7.694 -0.2964  0.2516  0.4580
   72POPC   C2B 1295   1.700   8.835   7.437 -0.1858 -0.0539 -0.0245
   72POPC   C3B 1296   1.794   8.711   7.017 -0.2267  0.1532 -0.1546
   72POPC   C4B 1297   1.457   8.749   6.611 -0.1333 -0.1960  0.1926
   73POPC   NC3 1298   3.618   7.820   7.975  0.2276  0.2595 -0.1075
   73POPC   PO4 1299   3.425   8.076   8.352 -0.3131  0.1966  0.0908
   73POPC   GL1 1300   3.027   8.241   7.961  0.1457  0.1983 -0.2218
   73POPC   GL2 1301   3.255   8.538   8.011  0.1107  0.1609  0.0509
   73POPC   C1A 1302   3.246   8.132   7.492 -0.0885 -0.0591  0.4458
   73POPC   D2A 1303   3.570   7.934   7.317  0.2002  0.1920  0.0557
   73POPC   C3A 1304   3.334   7.741   6.990  0.1997  0.3185  0.2173
   73POPC   C4A 1305   2.871   7.662   6.782 -0.0379  0.0397 -0.1918
   73POPC   C1B 1306   3.442   8.972   7.874  0.0064 -0.0504 -0.1398
   73POPC   C2B 1307   3.777   8.968   7.594  0.1440  0.1517 -0.5784
   73POPC   C3B 1308   4.186   9.048   7.630  0.0091 -0.1350 -0.0832
   73POPC   C4B 1309   4.733   8.990   7.717 -0.1303 -0.2239  0.4862
   74POPC   NC3 1310   7.124   7.797   7.622  0.2547 -0.3777 -0.0433
   74POPC   PO4 1311   7.014   8.321   7.561 -0.0949  0.1633  0.0969
   74POPC   GL1 1312   6.861   8.547   7.192  0.0576 -0.0714  0.5222
   74POPC   GL2 1313   6.966   8.812   7.087 -0.0925  0.0566 -0.1859
   74POPC   C1A 1314   6.672   8.599   6.751  0.1442  0.1327  0.2552
   74POPC   D2A 1315   6.534   8.769   6.374  0.0357 -0.3242  0.0865
   74POPC   C3A 1316   6.909   9.055   6.172  0.2672 -0.0566 -0.3852
   74POPC   C4A 1317   6.926   9.462   5.911  0.0463  0.1752  0.2593
   74POPC   C1B 1318   6.876   9.077   6.657  0.1242  0.1431  0.3824
   74POPC   C2B 1319   6.911   9.471   6.447  0.1845 -0.1575 -0.1102
   74POPC   C3B 1320   6.953   9.903   6.293 -0.0391  0.2025  0.3579
   74POPC   C4B 1321   6.899  10.288   6.263 -0.0563 -0.0251  0.0269
   75POPC   NC3 1322   8.693   4.633   7.558 -0.0494 -0.2069 -0.1653
   75POPC   PO4 1323   8.516   4.230   7.705  0.1680 -0.2154 -0.5165
   75POPC   GL1 1324   8.275   4.267   7.411 -0.1738  0.1272 -0.1354
   75POPC   GL2 1325   8.277   4.574   7.170  0.4854  0.6625  0.3948
   75POPC   C1A 1326   8.103   4.125   6.957  0.0698 -0.3315  0.1256
   75POPC   D2A 1327   7.714   4.116   6.582 -0.0648  0.4182 -0.0998
   75POPC   C3A 1328   7.587   4.187   6.232  0.0904  0.0007 -0.2782
   75POPC   C4A 1329   7.422   4.176   5.911  0.1307  0.1242  0.3453
   75POPC   C1B 1330   8.391   4.421   6.721  0.1166 -0.0726 -0.1428
   75POPC   C2B 1331   8.202   4.385   6.274  0.0584  0.2177 -0.1713
   75POPC   C3B 1332   8.385   4.187   5.917 -0.0645 -0.0851 -0.2312
   75POPC   C4B 1333   8.630   3.875   5.761 -0.1413 -0.1620 -0.0483
   76POPC   NC3 1334   2.958   1.440   9.059  0.3691  0.4094 -0.2363
   76POPC   PO4 1335   2.843   1.599   8.695 -0.3560  0.0070  0.1916
   76POPC   GL1 1336   2.697   1.371   8.394 -0.2183 -0.0727 -0.2105
   76POPC   GL2 1337   2.834   1.314   8.178 -0.0032  0.1321 -0.0067
   76POPC   C1A 1338   2.435   1.446   7.979  0.1451  0.0061  0.2398
   76POPC   D2A 1339   2.454   1.727   7.608 -0.0946 -0.0157 -0.3491
   76POPC   C3A 1340   2.784   1.726   7.456  0.0372 -0.0754  0.1026
   76POPC   C4A 1341   3.127   1.986   7.355  0.4695 -0.2178 -0.1487
   76POPC   C1B 1342   2.873   1.266   7.807 -0.3850  0.2117 -0.1071
   76POPC   C2B 1343   2.617   1.194   7.511  0.0471 -0.0003 -0.0055
   76POPC   C3B 1344   2.224   1.288   7.228  0.1017  0.1201  0.0826
   76POPC   C4B 1345   2.068   0.925   7.068 -0.0230 -0.0059 -0.2202
   77POPC   NC3 1346   3.241   4.565   8.054  0.0674 -0.1758  0.1141
   77POPC   PO4 1347   3.629   4.767   8.209  0.0469  0.2685 -0.0201
   77POPC   GL1 1348   3.765   4.845   7.743  0.0300 -0.1897  0.3655
   77POPC   GL2 1349   4.042   5.006   7.770 -0.2569  0.3560  0.0279
   77POPC   C1A 1350   3.752   4.547   7.320  0.2773 -0.0769  0.3322
   77POPC   D2A 1351   3.650   4.550   6.916  0.1634 -0.0777  0.0815
   77POPC   C3A 1352   3.566   4.211   6.652  0.0297 -0.1769 -0.3079
   77POPC   C4A 1353   3.576   3.919   6.209 -0.0448 -0.0007 -0.0782
   77POPC   C1B 1354   4.226   5.216   7.423 -0.2470  0.0881  0.1224
   77POPC   C2B 1355   4.363   5.025   6.929  0.1180 -0.3234 -0.3328
   77POPC   C3B 1356   4.258   5.105   6.489 -0.2261  0.1153  0.1176
   77POPC   C4B 1357   4.110   5.430   6.437  0.2250  0.1079 -0.1461
   78POPC   NC3 1358   0.174   1.297   7.520  0.0215 -0.0525  0.0180
   78POPC   PO4 1359  -0.096   1.768   7.530  0.0309 -0.1063 -0.0154
   78POPC   GL1 1360   0.063   1.661   7.132  0.3912 -0.2348 -0.0784
   78POPC   GL2 1361   0.024   1.444   7.075  0.0763 -0.1321 -0.1800
   78POPC   C1A 1362   0.024   1.817   6.682 -0.0010  0.1543 -0.3770
   78POPC   D2A 1363   0.214   2.141   6.427  0.2666  0.2619  0.0475
   78POPC   C3A 1364  -0.152   2.223   6.139 -0.0436 -0.1590  0.2311
   78POPC   C4A 1365  -0.313   2.576   5.932 -0.0993  0.0326  0.1804
   78POPC   C1B 1366   0.049   1.159   6.725 -0.3104  0.3966 -0.0107
   78POPC   C2B 1367   0.379   0.905   6.541  0.1413  0.0387 -0.2760
   78POPC   C3B 1368   0.730   0.610   6.488 -0.0729  0.1842 -0.1348
   78POPC   C4B 1369   1.126   0.459   6.510  0.0427  0.1834 -0.0327
   79POPC   NC3 1370   3.318   6.381   7.766  0.2672 -0.2734  0.1868
   79POPC   PO4 1371   3.210   6.801   7.661  0.0987 -0.0880  0.3928
   79POPC   GL1 1372   3.197   6.482   7.279 -0.3022 -0.2679  0.2641
   79POPC   GL2 1373   2.946   6.614   7.135  0.1834 -0.3043 -0.0361
   79POPC   C1A 1374   3.039   6.129   7.243  0.2393 -0.2695  0.1372
   79POPC   D2A 1375   2.755   5.838   7.177  0.1004 -0.1638  0.0410
   79POPC   C3A 1376   2.953   5.528   6.934 -0.0404  0.0351 -0.4737
   79POPC   C4A 1377   2.926   5.396   6.631  0.1120 -0.4184 -0.0712
   79POPC   C1B 1378   2.921   6.446   6.759 -0.1823 -0.0839  0.0173
   79POPC   C2B 1379   2.748   6.684   6.366  0.1802  0.2602 -0.1945
   79POPC   C3B 1380   2.809   6.964   6.157  0.0856 -0.1393  0.0871
   79POPC   C4B 1381   2.980   7.137   5.842 -0.1962  0.3146 -0.0720
   80POPC   NC3 1382   5.408   6.956   7.548 -0.1233 -0.1185  0.0647
   80POPC   PO4 1383   5.279   7.407   7.565 -0.3015  0.1716  0.1797
   80POPC   GL1 1384   5.049   7.768   7.302 -0.3231  0.2444  0.5805
   80POPC   GL2 1385   4.954   8.034   7.414 -0.1735 -0.0116  0.1597
   80POPC   C1A 1386   4.862   7.755   6.875  0.3526  0.1662 -0.1230
   80POPC   D2A 1387   5.027   7.658   6.473 -0.0363 -0.0715  0.0490
   80POPC   C3A 1388   4.751   7.472   6.098  0.2737 -0.0840  0.3241
   80POPC   C4A 1389   4.261   7.615   6.031  0.0473 -0.1998  0.1448
   80POPC   C1B 1390   4.533   8.050   7.135 -0.2442 -0.5829 -0.0985
   80POPC   C2B 1391   4.437   8.468   6.897 -0.2659  0.2983  0.0303
   80POPC   C3B 1392   4.141   8.664   6.750 -0.0688  0.0182 -0.0686
   80POPC   C4B 1393   3.770   8.972   6.641  0.2495 -0.0086  0.2762
   81POPC   NC3 1394   9.151   6.980   7.521  0.2127 -0.2395 -0.0507
   81POPC   PO4 1395   9.240   7.469   7.598  0.0287  0.0862  0.1399
   81POPC   GL1 1396   9.193   7.395   7.206  0.0274 -0.0884 -0.0284
   81POPC   GL2 1397   8.856   7.415   7.167 -0.0627 -0.2216  0.1505
   81POPC   C1A 1398   9.084   7.040   6.856  0.0234  0.1177 -0.2262
   81POPC   D2A 1399   8.956   6.575   6.692  0.1696 -0.3431 -0.1173
   81POPC   C3A 1400   8.490   6.274   6.567 -0.1591  0.1832 -0.0357
   81POPC   C4A 1401   8.399   5.824   6.494 -0.0598 -0.4402 -0.1418
   81POPC   C1B 1402   9.116   7.752   6.886  0.0061  0.2717 -0.0330
   81POPC   C2B 1403   9.323   7.649   6.568 -0.0054 -0.0965 -0.2945
   81POPC   C3B 1404   9.720   7.606   6.217 -0.0130 -0.0700  0.0783
   81POPC   C4B 1405  10.065   7.751   5.954 -0.0521 -0.2958 -0.0952
   82POPC   NC3 1406   6.556   0.192   8.412  0.0173  0.1528  0.1217
   82POPC   PO4 1407   6.253   0.372   8.010 -0.1296 -0.1960  0.0554
   82POPC   GL1 1408   6.133   0.258   7.535  0.1178  0.1159  0.0168
   82POPC   GL2 1409   6.196   0.036   7.306  0.2189 -0.0774  0.2588
   82POPC   C1A 1410   5.742   0.359   7.367  0.0043 -0.0514  0.2966
   82POPC   D2A 1411   5.563   0.358   6.944  0.2139 -0.2784  0.0878
   82POPC   C3A 1412   5.139   0.551   6.917  0.3326 -0.0758 -0.1405
   82POPC   C4A 1413   4.766   0.783   6.878  0.3167 -0.0570 -0.2100
   82POPC   C1B 1414   6.341   0.398   6.989 -0.1924  0.0721 -0.0505
   82POPC   C2B 1415   6.536   0.414   6.657  0.1902  0.2758  0.3590
   82POPC   C3B 1416   6.586   0.726   6.278  0.1358 -0.0404  0.0855
   82POPC   C4B 1417   6.675   1.089   5.964  0.2298  0.0876  0.0501
   83POPC   NC3 1418   0.251   8.855   7.875 -0.0501  0.1404 -0.1567
   83POPC   PO4 1419   0.031   9.320   7.869 -0.0152 -0.1974 -0.0151
   83POPC   GL1 1420   0.365   9.250   7.483  0.1434  0.1483 -0.0799
   83POPC   GL2 1421   0.662   9.623   7.545  0.2980 -0.2418 -0.0146
   83POPC   C1A 1422   0.327   9.095   7.112  0.2106 -0.0105 -0.2679
   83POPC   D2A 1423   0.500   8.912   6.690  0.1707 -0.2125  0.1592
   83POPC   C3A 1424   0.539   8.847   6.318 -0.1355 -0.2987 -0.0897
   83POPC   C4A 1425   0.234   8.704   5.921  0.0410 -0.0570 -0.2183
   83POPC   C1B 1426   1.115   9.602   7.480 -0.0990 -0.3258  0.0675
   83POPC   C2B 1427   1.422   9.354   7.261  0.0895 -0.0380  0.1757
   83POPC   C3B 1428   1.890   9.387   7.119  0.0839  0.2068  0.0815
   83POPC   C4B 1429   2.191   9.135   6.943  0.4197  0.0972  0.0907
   84POPC   NC3 1430   9.129   6.422   7.863  0.2026 -0.3308 -0.0871
   84POPC   PO4 1431   8.888   6.542   7.435  0.0950  0.1093  0.2902
   84POPC   GL1 1432   9.039   6.240   7.210  0.0084  0.2694  0.2450
   84POPC   GL2 1433   8.883   6.139   6.930 -0.2576  0.1648  0.1381
   84POPC   C1A 1434   9.416   6.161   6.891 -0.0271 -0.0010 -0.0878
   84POPC   D2A 1435   9.659   6.079   6.483 -0.1096  0.0637 -0.1853
   84POPC   C3A 1436   9.732   6.082   6.095  0.0238  0.1577 -0.3171
   84POPC   C4A 1437   9.951   6.452   6.032 -0.3537 -0.1268  0.5778
   84POPC   C1B 1438   9.058   6.128   6.485 -0.1364  0.0672  0.0202
   84POPC   C2B 1439   9.119   6.211   6.010 -0.1314  0.0345 -0.0449
   84POPC   C3B 1440   9.304   5.916   5.728 -0.5085 -0.3092 -0.0282
   84POPC   C4B 1441   9.559   5.674   5.870  0.0631  0.0526 -0.0330
   85POPC   NC3 1442   8.865   0.559   7.958 -0.0839 -0.2622  0.1801
   85POPC   PO4 1443   9.045   0.782   7.576 -0.0372 -0.0339 -0.1468
   85POPC   GL1 1444   9.255   0.839   7.145  0.1116 -0.2170 -0.2173
   85POPC   GL2 1445   9.529   0.763   6.986  0.3354 -0.0163 -0.3671
   85POPC   C1A 1446   9.120   1.030   6.725  0.0458 -0.0487 -0.0207
   85POPC   D2A 1447   8.986   1.314   6.471  0.1800 -0.0677 -0.4236
   85POPC   C3A 1448   9.444   1.394   6.153 -0.3497  0.0848 -0.0409
   85POPC   C4A 1449   9.829   1.591   5.914  0.0515  0.5817 -0.0016
   85POPC   C1B 1450   9.613   0.922   6.648  0.2864  0.2061 -0.0303
   85POPC   C2B 1451   9.482   0.749   6.183  0.0555  0.0706 -0.0909
   85POPC   C3B 1452   9.488   0.502   5.753  0.4874 -0.2201 -0.1189
   85POPC   C4B 1453   9.109   0.590   5.484 -0.1087  0.3139  0.1645
   86POPC   NC3 1454   0.222   1.856   8.399 -0.0684  0.4054 -0.0263
   86POPC   PO4 1455   0.672   1.892   8.141  0.2275 -0.0436  0.2792
   86POPC   GL1 1456   0.673   1.782   7.661  0.2335 -0.0506  0.0158
   86POPC   GL2 1457   0.449   1.693   7.496  0.2486 -0.1752  0.0426
   86POPC   C1A 1458   0.831   2.023   7.195 -0.0477 -0.0433 -0.0495
   86POPC   D2A 1459   1.037   2.357   6.940  0.1268 -0.1465 -0.1296
   86POPC   C3A 1460   0.977   2.320   6.521  0.2135  0.0832 -0.2327
   86POPC   C4A 1461   1.017   2.129   6.079 -0.2382  0.0951  0.2665
   86POPC   C1B 1462   0.530   1.563   7.055 -0.0871 -0.1903  0.0735
   86POPC   C2B 1463   0.441   1.454   6.596  0.1834  0.0865 -0.0429
   86POPC   C3B 1464   0.385   1.288   6.264 -0.0089 -0.1117  0.0932
   86POPC   C4B 1465   0.201   1.036   6.074  0.3498  0.0819 -0.0354
   87POPC   NC3 1466   2.315   7.024   8.212 -0.3406 -0.1195 -0.2256
   87POPC   PO4 1467   2.451   7.230   7.867  0.1785  0.4610  0.1687
   87POPC   GL1 1468   2.418   7.484   7.560  0.2350  0.1282  0.1793
   87POPC   GL2 1469   2.063   7.559   7.540 -0.0557  0.0559 -0.0024
   87POPC   C1A 1470   2.423   7.667   7.120  0.2219 -0.1372  0.0736
   87POPC   D2A 1471   2.399   7.870   6.720  0.2308 -0.1212  0.1901
   87POPC   C3A 1472   2.694   8.132   6.667  0.2095 -0.0787  0.1134
   87POPC   C4A 1473   3.112   8.051   6.492  0.0703  0.1797  0.2744
   87POPC   C1B 1474   1.911   7.756   7.188  0.1482 -0.2290  0.2676
   87POPC   C2B 1475   1.993   7.535   6.816 -0.1502 -0.2153  0.0041
   87POPC   C3B 1476   1.869   7.223   6.500 -0.1131 -0.1609 -0.0037
   87POPC   C4B 1477   1.860   7.186   6.075  0.1338 -0.1065  0.0260
   88POPC   NC3 1478   0.608   5.795   8.104  0.1137 -0.2126 -0.1003
   88POPC   PO4 1479   0.396   5.770   7.684  0.3126  0.0695 -0.0833
   88POPC   GL1 1480   0.352   5.861   7.322  0.1956  0.0425 -0.0704
   88POPC   GL2 1481   0.559   5.684   7.026 -0.2207  0.0436 -0.0671
   88POPC   C1A 1482   0.208   5.918   6.841  0.2303 -0.1091  0.2395
   88POPC   D2A 1483  -0.139   6.232   6.542  0.1577  0.3609  0.1883
   88POPC   C3A 1484  -0.355   6.538   6.513 -0.0866 -0.0778  0.3091
   88POPC   C4A 1485  -0.451   6.875   6.280 -0.1729 -0.2520 -0.2900
   88POPC   C1B 1486   0.795   6.048   6.793  0.0633 -0.2615  0.0793
   88POPC   C2B 1487   1.034   6.028   6.372  0.2864  0.0523 -0.0298
   88POPC   C3B 1488   1.091   5.763   5.943  0.0247  0.0157  0.1351
   88POPC   C4B 1489   0.972   5.546   5.600 -0.1148 -0.1861  0.2595
   89POPC   NC3 1490   0.018  10.223   7.829 -0.5833  0.1481  0.2992
   89POPC   PO4 1491   0.250  10.597   7.966 -0.0912 -0.1100  0.2279
   89POPC   GL1 1492   0.302  10.465   7.503  0.0028 -0.1486  0.4313
   89POPC   GL2 1493   0.038  10.400   7.330  0.0302 -0.1562 -0.0496
   89POPC   C1A 1494   0.616  10.569   7.173 -0.0191 -0.2888  0.1405
   89POPC   D2A 1495   0.749  10.530   6.884 -0.1139  0.0367  0.1256
   89POPC   C3A 1496   0.483  10.284   6.637  0.0362  0.0320  0.1256
   89POPC   C4A 1497   0.232  10.101   6.239 -0.0669  0.2034  0.1376
   89POPC   C1B 1498   0.147  10.510   6.934 -0.0341 -0.1864 -0.1051
   89POPC   C2B 1499   0.048  10.594   6.539 -0.0604 -0.1458 -0.4882
   89POPC   C3B 1500   0.378  10.742   6.219 -0.1081  0.3598  0.0356
   89POPC   C4B 1501   0.540  10.909   5.942  0.2182  0.1552  0.1476
   90POPC   NC3 1502   9.888   7.443   8.246  0.3347  0.1119  0.3716
   90POPC   PO4 1503  10.039   7.486   7.843  0.1325 -0.0113 -0.0932
   90POPC   GL1 1504   9.940   7.376   7.393 -0.0237 -0.1187 -0.0432
   90POPC   GL2 1505   9.672   7.060   7.366  0.1588 -0.0591  0.0337
   90POPC   C1A 1506   9.680   7.499   7.059 -0.1915  0.0686 -0.1256
   90POPC   D2A 1507   9.898   7.634   6.695 -0.2520 -0.2124 -0.3702
   90POPC   C3A 1508  10.232   7.407   6.492 -0.0983 -0.1210 -0.0588
   90POPC   C4A 1509  10.537   7.396   6.242 -0.0723  0.3224 -0.2739
   90POPC   C1B 1510   9.559   6.792   6.998  0.5456 -0.0078 -0.1817
   90POPC   C2B 1511   9.407   6.764   6.643  0.3585  0.2081 -0.0552
   90POPC   C3B 1512   9.379   6.489   6.335 -0.0011 -0.0134 -0.1255
   90POPC   C4B 1513   9.464   6.572   5.923 -0.1077  0.1401 -0.2498
   91POPC   NC3 1514   5.567   3.039   7.505  0.0565 -0.2172  0.0805
   91POPC   PO4 1515   5.742   2.627   7.522 -0.0604  0.2770  0.0148
   91POPC   GL1 1516   5.700   2.304   7.239 -0.1674  0.1188 -0.2317
   91POPC   GL2 1517   6.117   2.363   7.294  0.1885  0.3441  0.0874
   91POPC   C1A 1518   5.470   2.029   7.105 -0.0314  0.1189 -0.0324
   91POPC   D2A 1519   5.092   2.087   6.857 -0.0655 -0.0777  0.2470
   91POPC   C3A 1520   5.183   1.999   6.433 -0.1075 -0.1948 -0.0086
   91POPC   C4A 1521   5.074   1.760   6.148  0.0143 -0.4025 -0.2821
   91POPC   C1B 1522   6.119   2.498   6.866  0.0490  0.0411 -0.0703
   91POPC   C2B 1523   6.222   2.786   6.467 -0.1764  0.0941  0.1296
   91POPC   C3B 1524   6.033   2.937   6.116  0.0034  0.0396 -0.3177
   91POPC   C4B 1525   6.082   2.979   5.688 -0.4968  0.1504 -0.3901
   92POPC   NC3 1526   0.850   5.885   7.466 -0.0306  0.0031  0.1377
   92POPC   PO4 1527   1.046   6.233   7.337  0.0215  0.0213 -0.1566
   92POPC   GL1 1528   1.072   6.430   7.013 -0.0198 -0.1646 -0.2050
   92POPC   GL2 1529   1.372   6.519   6.955  0.1370 -0.2046 -0.0950
   92POPC   C1A 1530   0.805   6.634   6.760 -0.0841 -0.2529  0.4243
   92POPC   D2A 1531   0.912   6.537   6.328 -0.1869  0.1765  0.0070
   92POPC   C3A 1532   1.080   6.810   6.053  0.3699  0.1059  0.1198
   92POPC   C4A 1533   1.437   7.006   5.848  0.1361 -0.1047 -0.0810
   92POPC   C1B 1534   1.440   6.184   6.632 -0.2370  0.2224 -0.2631
   92POPC   C2B 1535   1.458   6.262   6.188  0.2657 -0.0177  0.0349
   92POPC   C3B 1536   1.258   6.266   5.863 -0.3814  0.0891  0.0300
   92POPC   C4B 1537   1.163   6.667   5.583  0.0991  0.3262  0.2258
   93POPC   NC3 1538   6.152   8.307   7.840 -0.0817  0.0486  0.2768
   93POPC   PO4 1539   6.498   8.551   7.784  0.0750  0.0814 -0.0154
   93POPC   GL1 1540   6.397   8.569   7.351  0.1306  0.0474 -0.1405
   93POPC   GL2 1541   6.495   8.902   7.213 -0.1657  0.0453 -0.1238
   93POPC   C1A 1542   6.304   8.406   7.006 -0.1616 -0.0983 -0.0456
   93POPC   D2A 1543   6.279   8.271   6.609  0.0428  0.1250  0.0923
   93POPC   C3A 1544   6.504   8.222   6.251 -0.4915  0.1251  0.0394
   93POPC   C4A 1545   6.504   8.277   5.862 -0.1523 -0.1339  0.0602
   93POPC   C1B 1546   6.210   8.838   6.808  0.1351 -0.2205  0.2034
   93POPC   C2B 1547   5.995   8.701   6.487 -0.0193  0.0920 -0.0333
   93POPC   C3B 1548   6.015   8.430   6.075 -0.0559  0.2225 -0.0969
   93POPC   C4B 1549   6.024   8.093   5.801  0.2782  0.1254 -0.0440
   94POPC   NC3 1550   7.928   0.347   8.307 -0.1236 -0.3436  0.3031
   94POPC   PO4 1551   7.800   0.357   7.914 -0.1212  0.1878  0.0457
   94POPC   GL1 1552   7.592   0.214   7.415  0.1445 -0.0028 -0.0434
   94POPC   GL2 1553   7.540   0.455   7.247 -0.2377  0.2022  0.0648
   94POPC   C1A 1554   7.755   0.005   6.985  0.3076 -0.1661 -0.2144
   94POPC   D2A 1555   7.462  -0.155   6.696 -0.1081 -0.1243 -0.3549
   94POPC   C3A 1556   6.985  -0.343   6.778 -0.1882  0.0636  0.1797
   94POPC   C4A 1557   6.604  -0.559   6.869  0.0691  0.1513  0.0028
   94POPC   C1B 1558   7.415   0.359   6.842  0.1007 -0.1990 -0.3159
   94POPC   C2B 1559   7.410   0.288   6.416 -0.0276 -0.2496  0.0258
   94POPC   C3B 1560   7.465   0.221   6.114 -0.2289 -0.0726 -0.4084
   94POPC   C4B 1561   7.353  -0.114   5.988 -0.0593  0.0624 -0.0588
   95POPC   NC3 1562   2.011   4.607   7.543  0.1892  0.2454 -0.2181
   95POPC   PO4 1563   1.566   4.596   7.566 -0.1441  0.3034  0.2300
   95POPC   GL1 1564   1.685   4.793   7.097 -0.3633  0.1748 -0.0491
   95POPC   GL2 1565   1.940   4.968   6.992 -0.0414 -0.0867  0.0956
   95POPC   C1A 1566   1.631   4.623   6.787 -0.0399  0.0309 -0.1194
   95POPC   D2A 1567   1.277   4.645   6.591 -0.0379  0.1055 -0.0996
   95POPC   C3A 1568   1.237   4.859   6.176 -0.3010  0.0908  0.0017
   95POPC   C4A 1569   1.114   5.070   5.796  0.3354 -0.0740  0.3354
   95POPC   C1B 1570   2.135   4.747   6.585  0.0183  0.2559  0.1375
   95POPC   C2B 1571   2.331   4.799   6.229  0.1110  0.0680 -0.0600
   95POPC   C3B 1572   2.568   5.022   5.849  0.0001  0.2347  0.0677
   95POPC   C4B 1573   3.018   5.170   6.021 -0.4849  0.2078  0.2583
   96POPC   NC3 1574   2.878   7.380   7.761  0.0639  0.1671  0.0101
   96POPC   PO4 1575   3.402   7.512   7.626 -0.0872  0.2266 -0.0829
   96POPC   GL1 1576   3.269   7.199   7.256 -0.0211 -0.2293  0.2562
   96POPC   GL2 1577   3.348   6.929   7.210  0.2637 -0.1491  0.0085
   96POPC   C1A 1578   3.315   7.282   6.806  0.1765  0.1777 -0.1576
   96POPC   D2A 1579   3.615   7.195   6.688 -0.0018  0.1412  0.1696
   96POPC   C3A 1580   3.544   7.623   6.375  0.2191  0.2544 -0.0505
   96POPC   C4A 1581   3.848   7.848   6.306 -0.0208  0.1675  0.1724
   96POPC   C1B 1582   3.215   6.806   6.737  0.0949 -0.0092  0.0388
   96POPC   C2B 1583   3.256   6.916   6.390  0.2617  0.0581  0.1956
   96POPC   C3B 1584   3.433   7.288   6.007  0.0998  0.1921  0.2283
   96POPC   C4B 1585   3.291   7.443   5.586 -0.0584 -0.1483 -0.0717
   97POPC   NC3 1586   4.125   8.557   8.534  0.3338 -0.0327  0.0693
   97POPC   PO4 1587   3.965   8.722   8.929  0.3253  0.0898 -0.1907
   97POPC   GL1 1588   3.620   9.004   8.774  0.0919 -0.0318 -0.0003
   97POPC   GL2 1589   3.475   9.002   8.422 -0.0654  0.1711 -0.0057
   97POPC   C1A 1590   3.466   9.406   8.672 -0.2318 -0.0620  0.1864
   97POPC   D2A 1591   3.510   9.787   8.440  0.0918  0.1400 -0.0202
   97POPC   C3A 1592   3.206  10.040   8.228 -0.0716 -0.2611  0.0072
   97POPC   C4A 1593   3.026  10.425   8.408 -0.0836 -0.1375  0.0792
   97POPC   C1B 1594   3.042   9.028   8.220 -0.1915  0.1230 -0.1530
   97POPC   C2B 1595   2.795   8.950   7.806  0.3801  0.1558  0.0230
   97POPC   C3B 1596   2.598   8.893   7.488 -0.0794 -0.2521  0.1482
   97POPC   C4B 1597   2.365   8.596   7.197  0.0478 -0.0059  0.0449
   98POPC   NC3 1598   7.982   9.284   7.757 -0.1641 -0.1175  0.2040
   98POPC   PO4 1599   7.593   9.380   7.559 -0.0081  0.3197 -0.2841
   98POPC   GL1 1600   7.731   9.148   7.308  0.3495  0.3591 -0.0111
   98POPC   GL2 1601   7.906   9.156   7.141 -0.0886 -0.1376  0.1746
   98POPC   C1A 1602   7.590   8.819   6.984  0.4442  0.1440 -0.3434
   98POPC   D2A 1603   7.293   8.688   6.640 -0.3943  0.1385 -0.0841
   98POPC   C3A 1604   7.335   8.802   6.185  0.0039 -0.1810 -0.3083
   98POPC   C4A 1605   7.472   8.575   5.761  0.0012 -0.1649 -0.1276
   98POPC   C1B 1606   7.823   9.309   6.765 -0.2756 -0.1648 -0.1498
   98POPC   C2B 1607   7.861   9.434   6.419 -0.0503  0.1130 -0.4245
   98POPC   C3B 1608   7.858   9.575   5.998 -0.1368 -0.1269  0.1618
   98POPC   C4B 1609   8.089   9.740   5.610 -0.0803 -0.1226  0.3298
   99POPC   NC3 1610   0.453   1.094   8.199  0.0594 -0.1300 -0.0076
   99POPC   PO4 1611   0.310   0.830   7.827 -0.3430  0.4431  0.1405
   99POPC   GL1 1612   0.365   0.756   7.381 -0.1659 -0.2398 -0.0350
   99POPC   GL2 1613   0.095   0.710   7.168  0.1062  0.0028 -0.0446
   99POPC   C1A 1614   0.501   1.070   7.023  0.0445 -0.1601 -0.2704
   99POPC   D2A 1615   0.862   1.249   6.802 -0.1216 -0.1964  0.2726
   99POPC   C3A 1616   0.921   1.508   6.421  0.3220 -0.2295  0.0253
   99POPC   C4A 1617   1.127   1.690   6.140 -0.1696  0.1695 -0.2103
   99POPC   C1B 1618  -0.174   0.694   6.838 -0.4433  0.0028 -0.1708
   99POPC   C2B 1619  -0.145   0.763   6.294  0.0672  0.1832  0.0023
   99POPC   C3B 1620  -0.387   0.912   5.927  0.2412  0.0282 -0.2713
   99POPC   C4B 1621  -0.859   1.038   5.803 -0.0771 -0.1146 -0.1073
  100POPC   NC3 1622   7.060   1.167   8.120  0.0089  0.2784 -0.1183
  100POPC   PO4 1623   6.977   1.531   7.919  0.0795  0.0668 -0.2502
  100POPC   GL1 1624   6.754   1.428   7.587  0.0370  0.1707 -0.2009
  100POPC   GL2 1625   6.927   1.633   7.340 -0.0756 -0.2624 -0.0624
  100POPC   C1A 1626   6.848   1.142   7.193  0.2159 -0.0763 -0.0967
  100POPC   D2A 1627   7.083   1.201   6.870  0.0738 -0.1594  0.1509
  100POPC   C3A 1628   7.287   0.888   6.571 -0.0413 -0.0485 -0.0191
  100POPC   C4A 1629   7.678   0.770   6.606 -0.1881  0.0101 -0.1160
  100POPC   C1B 1630   6.806   1.656   6.978  0.1372  0.2790 -0.1719
  100POPC   C2B 1631   6.671   1.500   6.596 -0.4258  0.0955 -0.0676
  100POPC   C3B 1632   6.628   1.514   6.138  0.1465 -0.4227 -0.1903
  100POPC   C4B 1633   7.018   1.429   5.811 -0.0837 -0.0872  0.1237
  101POPC   NC3 1634   6.617   3.192   7.410 -0.3033 -0.2289 -0.0609
  101POPC   PO4 1635   6.301   3.554   7.296  0.1379 -0.0593  0.0320
  101POPC   GL1 1636   6.367   3.190   6.985 -0.1012  0.0294  0.1602
  101POPC   GL2 1637   6.083   2.908   7.160 -0.3456  0.1286  0.1378
  101POPC   C1A 1638   6.372   3.420   6.562 -0.0460 -0.1525  0.0952
  101POPC   D2A 1639   6.387   3.248   6.128  0.1302  0.0767  0.1449
  101POPC   C3A 1640   6.082   3.434   5.864 -0.2015 -0.0866  0.3546
  101POPC   C4A 1641   5.712   3.698   5.846  0.0179  0.0552  0.0991
  101POPC   C1B 1642   5.770   2.925   6.854 -0.1091 -0.0992 -0.0691
  101POPC   C2B 1643   5.942   3.209   6.516  0.1830 -0.0124  0.3440
  101POPC   C3B 1644   5.889   3.665   6.349 -0.0581 -0.2645 -0.0245
  101POPC   C4B 1645   6.268   3.901   6.424 -0.0498 -0.0302 -0.3261
  102POPC   NC3 1646   0.275   9.581   8.305  0.0574  0.0169  0.1760
  102POPC   PO4 1647   0.280   9.804   7.879 -0.1351 -0.1241  0.3212
  102POPC   GL1 1648   0.227   9.912   7.400  0.0423  0.2217 -0.2152
  102POPC   GL2 1649   0.149   9.616   7.288  0.0796  0.1293  0.0279
  102POPC   C1A 1650   0.481  10.045   7.177 -0.1954  0.0185  0.4048
  102POPC   D2A 1651   0.902  10.077   7.210 -0.1149 -0.0371 -0.0749
  102POPC   C3A 1652   1.262   9.847   7.090  0.3518  0.0909  0.0468
  102POPC   C4A 1653   1.640   9.777   7.411  0.2215 -0.1754 -0.0557
  102POPC   C1B 1654   0.038   9.504   6.939 -0.1259  0.3794  0.0172
  102POPC   C2B 1655   0.036   9.174   6.705 -0.4077  0.2640  0.0218
  102POPC   C3B 1656   0.174   9.191   6.324 -0.1931 -0.2528 -0.0153
  102POPC   C4B 1657   0.339   9.621   6.038 -0.1900  0.4882  0.1746
  103POPC   NC3 1658   7.982   1.767   7.594 -0.1227 -0.0676  0.1719
  103POPC   PO4 1659   8.308   2.050   7.463  0.2168 -0.1238 -0.0481
  103POPC   GL1 1660   8.122   1.954   7.120 -0.2229 -0.1000  0.2400
  103POPC   GL2 1661   7.813   1.831   7.094 -0.0158  0.2558  0.0028
  103POPC   C1A 1662   8.171   1.949   6.634  0.0585 -0.0282 -0.1710
  103POPC   D2A 1663   8.226   2.343   6.307  0.4353  0.3082  0.2523
  103POPC   C3A 1664   8.197   2.356   5.838 -0.2941  0.2780  0.1526
  103POPC   C4A 1665   8.579   2.130   5.557 -0.0019  0.0110 -0.2148
  103POPC   C1B 1666   7.693   1.877   6.664 -0.0356  0.2715 -0.0378
  103POPC   C2B 1667   7.722   1.782   6.320  0.2618  0.2832 -0.0809
  103POPC   C3B 1668   8.082   1.761   6.107 -0.1603  0.2764  0.3499
  103POPC   C4B 1669   8.424   1.872   5.960  0.1081  0.1742  0.0588
  104POPC   NC3 1670   6.132   6.187   7.571  0.2898 -0.0253  0.1517
  104POPC   PO4 1671   6.084   5.741   7.589  0.2870  0.1707  0.0590
  104POPC   GL1 1672   6.161   5.871   7.200 -0.0069  0.2192  0.1984
  104POPC   GL2 1673   5.915   5.688   7.008  0.1521  0.0097 -0.2493
  104POPC   C1A 1674   5.945   6.130   6.805 -0.1600  0.0862 -0.1114
  104POPC   D2A 1675   5.501   6.251   6.659  0.0566  0.0500 -0.0849
  104POPC   C3A 1676   5.405   6.602   6.475 -0.0620 -0.2415  0.2197
  104POPC   C4A 1677   5.147   6.520   6.146 -0.0540 -0.1068  0.1235
  104POPC   C1B 1678   5.555   5.738   6.770  0.0215  0.0163  0.0458
  104POPC   C2B 1679   5.174   5.463   6.546 -0.2602 -0.1628  0.2110
  104POPC   C3B 1680   5.152   5.332   6.135 -0.0070 -0.2646  0.2570
  104POPC   C4B 1681   4.923   5.151   5.718 -0.3934 -0.1293  0.1034
  105POPC   NC3 1682   5.271   7.905   7.789 -0.1533 -0.0347  0.1591
  105POPC   PO4 1683   4.897   7.670   7.782 -0.0244 -0.1367 -0.0333
  105POPC   GL1 1684   4.778   7.259   7.366  0.1980  0.0063  0.1115
  105POPC   GL2 1685   4.598   7.548   7.265 -0.0907  0.0399 -0.1522
  105POPC   C1A 1686   4.800   6.740   7.164 -0.1104  0.1298  0.1976
  105POPC   D2A 1687   4.454   6.597   6.915  0.0625  0.2060  0.4503
  105POPC   C3A 1688   4.456   6.278   6.555 -0.0518 -0.3542 -0.0846
  105POPC   C4A 1689   4.702   6.074   6.204 -0.0734 -0.1850 -0.1739
  105POPC   C1B 1690   4.393   7.614   6.911 -0.3911  0.0450  0.1963
  105POPC   C2B 1691   4.135   7.451   6.488 -0.3795  0.1972 -0.0525
  105POPC   C3B 1692   3.941   7.123   6.160  0.0437 -0.0193 -0.1614
  105POPC   C4B 1693   3.792   6.817   6.350  0.0985 -0.1922 -0.0728
  106POPC   NC3 1694   1.747   4.018   7.821  0.0184  0.0622 -0.0314
  106POPC   PO4 1695   2.147   4.192   7.769  0.0833  0.0804 -0.0195
  106POPC   GL1 1696   2.325   4.190   7.305 -0.0548 -0.0372  0.1658
  106POPC   GL2 1697   2.160   4.460   7.086 -0.0524  0.3093  0.3515
  106POPC   C1A 1698   2.543   4.124   6.949 -0.0002 -0.1793  0.1257
  106POPC   D2A 1699   2.769   3.981   6.524  0.1344  0.2444  0.2473
  106POPC   C3A 1700   2.587   3.983   6.088 -0.0502  0.0224  0.0613
  106POPC   C4A 1701   2.654   4.221   5.625  0.3072  0.0434  0.0901
  106POPC   C1B 1702   2.456   4.640   6.951 -0.4595  0.3679 -0.1567
  106POPC   C2B 1703   2.580   4.434   6.535 -0.1183 -0.2352 -0.2140
  106POPC   C3B 1704   2.679   4.475   6.060 -0.0323  0.0109 -0.0030
  106POPC   C4B 1705   3.013   4.687   5.820 -0.0747  0.1046  0.0514
  107POPC   NC3 1706   5.775   4.586   7.731  0.0768  0.1042 -0.1437
  107POPC   PO4 1707   5.678   4.048   7.802 -0.2037  0.3020 -0.3352
  107POPC   GL1 1708   5.469   3.960   7.538 -0.0670  0.1921  0.0882
  107POPC   GL2 1709   5.330   3.891   7.234  0.0047 -0.1000 -0.2015
  107POPC   C1A 1710   5.567   4.291   7.149 -0.0174 -0.0103  0.0058
  107POPC   D2A 1711   5.451   4.549   6.768  0.0854 -0.1925 -0.1571
  107POPC   C3A 1712   5.572   4.362   6.309 -0.0699  0.0094 -0.2793
  107POPC   C4A 1713   5.870   4.159   6.140 -0.1895  0.3718 -0.1220
  107POPC   C1B 1714   5.526   3.929   6.717 -0.0819  0.2451  0.0007
  107POPC   C2B 1715   5.424   3.827   6.235 -0.3701 -0.2886  0.0508
  107POPC   C3B 1716   5.225   3.768   5.843 -0.0384  0.0842  0.1005
  107POPC   C4B 1717   5.390   3.727   5.425 -0.0133  0.0462  0.0429
  108POPC   NC3 1718   9.535   9.889   7.584  0.1261  0.1710  0.0309
  108POPC   PO4 1719   9.689  10.294   7.458  0.0085 -0.0207 -0.0017
  108POPC   GL1 1720   9.841  10.338   6.983 -0.1193  0.1208 -0.0969
  108POPC   GL2 1721   9.554  10.426   6.869  0.2226  0.1884 -0.0314
  108POPC   C1A 1722  10.165  10.122   6.701 -0.0526  0.0142 -0.1062
  108POPC   D2A 1723  10.505   9.848   6.731  0.0308 -0.0290 -0.1805
  108POPC   C3A 1724  10.541   9.594   6.538  0.0699 -0.0646  0.2251
  108POPC   C4A 1725  10.902   9.371   6.580 -0.1773  0.0279  0.1854
  108POPC   C1B 1726   9.764  10.637   6.475  0.1452 -0.1033 -0.1222
  108POPC   C2B 1727   9.913  10.596   5.923  0.0957  0.4676 -0.1552
  108POPC   C3B 1728  10.107  10.489   5.540  0.1164 -0.1734  0.0777
  108POPC   C4B 1729  10.468  10.400   5.310 -0.0252 -0.0113 -0.3297
  109POPC   NC3 1730   4.500   4.868   8.029  0.3659  0.0095 -0.1011
  109POPC   PO4 1731   4.225   4.459   8.013 -0.0037  0.0791  0.0778
  109POPC   GL1 1732   4.181   4.448   7.563 -0.3383 -0.0453 -0.0120
  109POPC   GL2 1733   4.140   4.161   7.429 -0.1065  0.0338 -0.2062
  109POPC   C1A 1734   4.541   4.292   7.164  0.1871  0.1786  0.1097
  109POPC   D2A 1735   4.616   4.137   6.736  0.1510 -0.0020  0.2075
  109POPC   C3A 1736   4.305   4.115   6.341  0.1242  0.2179  0.0367
  109POPC   C4A 1737   4.026   3.968   6.039 -0.0888 -0.0453  0.3565
  109POPC   C1B 1738   4.115   4.072   6.865 -0.0683 -0.0364  0.0593
  109POPC   C2B 1739   3.855   3.744   6.709 -0.0108 -0.0815  0.1942
  109POPC   C3B 1740   3.697   3.455   6.421  0.0777  0.0328 -0.1820
  109POPC   C4B 1741   3.760   3.484   5.998  0.0706 -0.0215 -0.0458
  110POPC   NC3 1742   5.145   2.450   8.159  0.1882  0.1266 -0.2269
  110POPC   PO4 1743   5.341   2.748   7.819 -0.2371  0.1270 -0.0418
  110POPC   GL1 1744   5.235   2.503   7.518 -0.4014 -0.1411  0.2423
  110POPC   GL2 1745   5.292   2.627   7.225 -0.3075  0.0835 -0.1606
  110POPC   C1A 1746   5.032   2.126   7.367  0.1757  0.2844  0.0926
  110POPC   D2A 1747   5.084   1.674   7.531  0.0946  0.3352 -0.0473
  110POPC   C3A 1748   4.876   1.387   7.300 -0.0479  0.0353 -0.1856
  110POPC   C4A 1749   4.900   0.870   7.332  0.0696  0.1589  0.0259
  110POPC   C1B 1750   5.436   2.536   6.858 -0.0560 -0.0377  0.1715
  110POPC   C2B 1751   5.606   2.285   6.500  0.1513 -0.0719  0.1619
  110POPC   C3B 1752   5.809   2.027   6.167 -0.0402 -0.0191  0.3648
  110POPC   C4B 1753   5.534   1.915   5.753 -0.0212  0.0675  0.2564
  111POPC   NC3 1754   2.641   2.873   7.846 -0.1799  0.0005  0.1658
  111POPC   PO4 1755   3.101   2.702   7.789 -0.0673 -0.1562  0.0161
  111POPC   GL1 1756   3.013   2.800   7.358  0.0958 -0.0640 -0.2761
  111POPC   GL2 1757   2.802   2.566   7.310 -0.1342 -0.1377 -0.0898
  111POPC   C1A 1758   3.148   2.976   6.973 -0.0420  0.0912  0.4445
  111POPC   D2A 1759   3.335   3.118   6.643 -0.3105 -0.1392 -0.0554
  111POPC   C3A 1760   3.224   3.188   6.236 -0.0376  0.2779  0.1819
  111POPC   C4A 1761   3.348   3.278   5.791 -0.1004  0.0138 -0.0997
  111POPC   C1B 1762   2.689   2.584   6.875 -0.0026 -0.1512 -0.1123
  111POPC   C2B 1763   2.529   2.612   6.512 -0.2980 -0.1838 -0.1000
  111POPC   C3B 1764   2.639   2.728   6.164  0.0142  0.0881  0.1812
  111POPC   C4B 1765   2.890   2.943   5.914 -0.1011  0.0959 -0.0708
  112POPC   NC3 1766   9.506   5.017   7.541  0.1901  0.0276 -0.1036
  112POPC   PO4 1767  10.014   4.897   7.570 -0.0723  0.0359  0.1419
  112POPC   GL1 1768  10.210   4.800   7.151 -0.0053 -0.1392  0.0611
  112POPC   GL2 1769  10.447   4.511   7.209 -0.1136 -0.0708 -0.2975
  112POPC   C1A 1770  10.423   4.717   6.704  0.2809  0.0818  0.1697
  112POPC   D2A 1771  10.282   4.711   6.166  0.2467 -0.0076  0.2918
  112POPC   C3A 1772  10.417   5.092   5.921 -0.0667  0.3113  0.0430
  112POPC   C4A 1773  10.698   5.313   5.612  0.0470 -0.1202 -0.2610
  112POPC   C1B 1774  10.636   4.200   6.957 -0.1031  0.0192  0.0339
  112POPC   C2B 1775  10.694   4.026   6.527  0.0878  0.1213 -0.0119
  112POPC   C3B 1776  10.448   3.865   6.099  0.1270 -0.2142 -0.1604
  112POPC   C4B 1777  10.571   3.639   5.729 -0.0373  0.2807  0.1379
  113POPC   NC3 1778   9.138   9.362   8.236  0.3676  0.0011 -0.2314
  113POPC   PO4 1779   9.177   9.459   7.836 -0.2087  0.5006 -0.0665
  113POPC   GL1 1780   9.180   9.378   7.507  0.0622 -0.1835  0.3451
  113POPC   GL2 1781   8.895   9.224   7.358 -0.0454  0.0803 -0.1049
  113POPC   C1A 1782   9.383   9.405   7.164  0.3237 -0.0618  0.1616
  113POPC   D2A 1783   9.809   9.117   7.031  0.2694 -0.1992  0.0715
  113POPC   C3A 1784   9.821   8.950   6.611  0.1703 -0.0852 -0.0412
  113POPC   C4A 1785   9.811   8.602   6.338  0.0089 -0.0498 -0.2935
  113POPC   C1B 1786   8.901   9.229   6.963 -0.1548 -0.0137  0.0145
  113POPC   C2B 1787   8.822   9.468   6.664  0.0980  0.3169 -0.2343
  113POPC   C3B 1788   8.767   9.796   6.396  0.2510 -0.0359  0.1233
  113POPC   C4B 1789   8.706  10.082   6.062  0.0974 -0.2995  0.0065
  114POPC   NC3 1790   7.856   3.603   8.160  0.0873 -0.1393 -0.0509
  114POPC   PO4 1791   8.024   3.405   7.799  0.0224 -0.2053  0.1755
  114POPC   GL1 1792   8.035   3.214   7.409  0.1367 -0.1343  0.0491
  114POPC   GL2 1793   8.024   3.516   7.280  0.3618  0.1736 -0.1371
  114POPC   C1A 1794   8.017   3.121   6.980  0.2698 -0.0832  0.1528
  114POPC   D2A 1795   8.081   2.787   6.670  0.1005  0.4267  0.0235
  114POPC   C3A 1796   8.333   2.892   6.319  0.0234  0.2918  0.0725
  114POPC   C4A 1797   8.629   3.041   5.945  0.0560 -0.0023 -0.1941
  114POPC   C1B 1798   8.302   3.688   7.020  0.1674 -0.0871  0.1595
  114POPC   C2B 1799   8.587   3.696   6.736 -0.0221 -0.2621 -0.0444
  114POPC   C3B 1800   8.950   3.696   6.495 -0.1233  0.1797  0.0651
  114POPC   C4B 1801   9.348   3.752   6.392  0.0628 -0.1423 -0.0701
  115POPC   NC3 1802   8.020   3.963   7.698  0.1168 -0.1510 -0.0451
  115POPC   PO4 1803   7.699   4.197   7.507 -0.1035  0.0923 -0.0977
  115POPC   GL1 1804   7.677   4.419   7.068  0.0663  0.2238 -0.1177
  115POPC   GL2 1805   7.838   4.581   6.845 -0.0224  0.1082 -0.0050
  115POPC   C1A 1806   7.362   4.361   6.725 -0.1321  0.0620 -0.1943
  115POPC   D2A 1807   7.067   4.252   6.416 -0.5375 -0.3676 -0.2564
  115POPC   C3A 1808   7.172   4.527   6.168 -0.0564 -0.0034 -0.0030
  115POPC   C4A 1809   7.141   4.527   5.676 -0.1754 -0.2656  0.0833
  115POPC   C1B 1810   7.783   4.707   6.402  0.0133  0.0950 -0.5029
  115POPC   C2B 1811   7.579   4.681   6.026 -0.0553  0.1532 -0.1762
  115POPC   C3B 1812   7.500   4.963   5.763 -0.4325  0.0525 -0.5287
  115POPC   C4B 1813   7.170   5.223   5.637  0.1332 -0.0315  0.1070
  116POPC   NC3 1814   1.886   2.777   7.637  0.0826 -0.2281  0.0130
  116POPC   PO4 1815   2.188   2.646   7.933  0.0808 -0.0340  0.0398
  116POPC   GL1 1816   2.299   2.579   7.523 -0.0378  0.3799  0.3149
  116POPC   GL2 1817   2.334   2.942   7.434  0.0538 -0.1436 -0.0261
  116POPC   C1A 1818   2.396   2.294   7.241  0.0352  0.0285  0.1566
  116POPC   D2A 1819   2.268   2.201   6.821  0.1150 -0.0116  0.0998
  116POPC   C3A 1820   2.497   2.108   6.529 -0.2916 -0.0403  0.0407
  116POPC   C4A 1821   2.402   1.867   6.156 -0.2457  0.0683  0.2268
  116POPC   C1B 1822   2.250   2.824   7.034  0.0274 -0.0708  0.1624
  116POPC   C2B 1823   2.097   2.972   6.549 -0.2048 -0.0653  0.1309
  116POPC   C3B 1824   2.228   3.110   6.102 -0.2458 -0.3420 -0.1378
  116POPC   C4B 1825   2.446   3.117   5.758 -0.1226  0.2050  0.0309
  117POPC   NC3 1826   1.868   7.133   7.351 -0.2212  0.0222 -0.0840
  117POPC   PO4 1827   2.288   7.028   7.371  0.3141 -0.0380  0.2107
  117POPC   GL1 1828   2.475   7.147   7.092 -0.1081 -0.0763 -0.2281
  117POPC   GL2 1829   2.830   7.167   7.004  0.3825 -0.1159  0.2366
  117POPC   C1A 1830   2.382   7.314   6.682 -0.0077  0.0106 -0.2778
  117POPC   D2A 1831   2.564   7.441   6.322  0.2152 -0.3608  0.1107
  117POPC   C3A 1832   2.706   7.816   6.251  0.0287  0.2370 -0.0076
  117POPC   C4A 1833   2.669   8.305   6.159  0.4374  0.0513 -0.0572
  117POPC   C1B 1834   2.820   7.193   6.655  0.1533  0.1082  0.1299
  117POPC   C2B 1835   3.063   7.432   6.394 -0.0764 -0.0551  0.1075
  117POPC   C3B 1836   3.168   7.659   6.041 -0.0023  0.4320  0.1113
  117POPC   C4B 1837   3.081   8.010   5.856 -0.0729 -0.0185 -0.0568
  118POPC   NC3 1838   0.748   0.211   8.264  0.0505  0.1654  0.0752
  118POPC   PO4 1839   0.903  -0.149   8.387 -0.0954 -0.4728 -0.1450
  118POPC   GL1 1840   1.093  -0.086   7.962  0.0379  0.2058 -0.1243
  118POPC   GL2 1841   1.050   0.222   7.826  0.0579 -0.1258  0.1613
  118POPC   C1A 1842   1.251  -0.118   7.550 -0.1236  0.0504 -0.1272
  118POPC   D2A 1843   1.552   0.049   7.308 -0.0530  0.0523  0.0151
  118POPC   C3A 1844   1.695  -0.182   6.897  0.0118  0.1685  0.1269
  118POPC   C4A 1845   1.924  -0.177   6.599  0.0774 -0.0449 -0.4078
  118POPC   C1B 1846   1.051   0.325   7.393 -0.2505  0.2868 -0.2471
  118POPC   C2B 1847   1.266   0.253   6.974 -0.2750 -0.1857 -0.1642
  118POPC   C3B 1848   1.784   0.282   6.891  0.0900  0.2343  0.0383
  118POPC   C4B 1849   2.212   0.066   6.918 -0.0357  0.2380 -0.1248
  119POPC   NC3 1850   2.450   3.460   8.268  0.0295  0.2271 -0.0897
  119POPC   PO4 1851   2.507   3.340   7.967  0.1539  0.1940  0.1115
  119POPC   GL1 1852   2.629   3.292   7.550 -0.0699  0.0789 -0.0592
  119POPC   GL2 1853   2.857   3.457   7.288  0.1024 -0.4190 -0.2385
  119POPC   C1A 1854   2.649   3.106   7.119  0.0237  0.2149  0.1332
  119POPC   D2A 1855   2.784   3.052   6.661  0.0182  0.0489 -0.1888
  119POPC   C3A 1856   3.049   2.744   6.536  0.0007  0.0734 -0.0078
  119POPC   C4A 1857   3.019   2.321   6.572 -0.2039 -0.0333  0.1731
  119POPC   C1B 1858   2.867   3.499   6.872 -0.0962 -0.2456 -0.2146
  119POPC   C2B 1859   2.777   3.447   6.370  0.0230  0.0959 -0.2247
  119POPC   C3B 1860   2.780   3.452   5.947 -0.1562  0.0172  0.0267
  119POPC   C4B 1861   2.888   3.317   5.548 -0.2397  0.0877  0.1165
  120POPC   NC3 1862   8.836   1.216   7.879 -0.2199 -0.0513 -0.2535
  120POPC   PO4 1863   8.561   0.858   7.749 -0.0590 -0.0936  0.1202
  120POPC   GL1 1864   8.171   0.724   7.365  0.2671  0.1434 -0.0717
  120POPC   GL2 1865   8.052   0.914   7.180 -0.0713 -0.2930  0.1496
  120POPC   C1A 1866   7.953   0.470   7.030  0.1617  0.0759 -0.2930
  120POPC   D2A 1867   7.989   0.410   6.649  0.0223 -0.0515 -0.1085
  120POPC   C3A 1868   7.845   0.033   6.401 -0.1334 -0.2734  0.0653
  120POPC   C4A 1869   7.768  -0.356   6.356 -0.3335 -0.1563  0.1004
  120POPC   C1B 1870   8.098   0.994   6.821  0.1555  0.1538 -0.0223
  120POPC   C2B 1871   8.199   0.783   6.391  0.2709 -0.1925  0.2525
  120POPC   C3B 1872   8.130   0.350   6.095  0.3963  0.1965  0.3144
  120POPC   C4B 1873   7.835  -0.074   5.891 -0.2499 -0.3840 -0.1896
  121POPC   NC3 1874   7.037   4.256   7.828  0.1089 -0.0015 -0.2068
  121POPC   PO4 1875   6.866   4.289   7.412  0.0600 -0.0431  0.0390
  121POPC   GL1 1876   7.030   4.340   7.039 -0.0286  0.3079 -0.0695
  121POPC   GL2 1877   7.084   3.984   6.976  0.1306 -0.2968 -0.0208
  121POPC   C1A 1878   6.967   4.601   6.728  0.0355 -0.0770 -0.1732
  121POPC   D2A 1879   6.702   4.699   6.283  0.0799 -0.0625 -0.2083
  121POPC   C3A 1880   6.205   4.594   6.289  0.0648 -0.2445 -0.1230
  121POPC   C4A 1881   5.862   4.781   6.457  0.2475 -0.2364 -0.0633
  121POPC   C1B 1882   7.376   3.766   6.748  0.3606  0.4410  0.0811
  121POPC   C2B 1883   7.469   3.307   6.727  0.0308 -0.2534 -0.1950
  121POPC   C3B 1884   7.786   3.105   6.414  0.0278  0.0061 -0.2355
  121POPC   C4B 1885   8.032   3.255   6.118 -0.1516 -0.0205  0.2833
  122POPC   NC3 1886   4.581   5.860   7.985  0.1174 -0.0113  0.0082
  122POPC   PO4 1887   4.768   6.212   7.656  0.1503 -0.2491 -0.1451
  122POPC   GL1 1888   4.710   5.774   7.438 -0.0263 -0.2043 -0.0155
  122POPC   GL2 1889   4.353   5.664   7.528  0.0081 -0.0764  0.0777
  122POPC   C1A 1890   4.595   5.466   7.140  0.0643 -0.0681 -0.0560
  122POPC   D2A 1891   4.736   5.283   6.766 -0.0951 -0.2322 -0.0684
  122POPC   C3A 1892   5.126   4.983   6.606  0.0014 -0.0226  0.0881
  122POPC   C4A 1893   5.420   4.901   6.283 -0.0970 -0.2833 -0.1033
  122POPC   C1B 1894   4.189   5.876   7.203 -0.0601  0.1120 -0.1018
  122POPC   C2B 1895   4.235   5.855   6.772 -0.2967 -0.1591 -0.0791
  122POPC   C3B 1896   4.158   5.947   6.284  0.3417 -0.4394  0.1955
  122POPC   C4B 1897   4.238   5.739   5.897  0.2395  0.0900 -0.3409
  123POPC   NC3 1898   6.839   8.870   7.607  0.0762  0.1368  0.2564
  123POPC   PO4 1899   7.123   9.163   7.506 -0.0390  0.1283 -0.0237
  123POPC   GL1 1900   7.287   9.212   7.007 -0.2628 -0.0879 -0.2395
  123POPC   GL2 1901   7.376   9.538   7.012 -0.2817 -0.0236  0.0317
  123POPC   C1A 1902   7.351   9.149   6.611  0.2925 -0.2506 -0.2409
  123POPC   D2A 1903   7.728   8.904   6.429 -0.0771  0.1191  0.0764
  123POPC   C3A 1904   7.937   9.016   5.996 -0.0515 -0.0439  0.3230
  123POPC   C4A 1905   8.060   8.758   5.684 -0.1064  0.1467 -0.3017
  123POPC   C1B 1906   7.428   9.628   6.562 -0.0351  0.1324  0.0343
  123POPC   C2B 1907   7.358   9.524   6.186 -0.2415 -0.1877  0.0141
  123POPC   C3B 1908   7.356   9.231   5.865  0.2020  0.0907 -0.2918
  123POPC   C4B 1909   7.391   9.091   5.462 -0.0246 -0.0326 -0.0747
  124POPC   NC3 1910   9.903   8.933   7.853  0.0566  0.2305  0.1628
  124POPC   PO4 1911   9.629   8.627   7.937 -0.0822 -0.4120 -0.0163
  124POPC   GL1 1912   9.537   8.686   7.466 -0.0750  0.0279 -0.1083
  124POPC   GL2 1913   9.264   8.844   7.303 -0.0409  0.1638 -0.1000
  124POPC   C1A 1914   9.744   8.598   7.015  0.0854  0.1849  0.2002
  124POPC   D2A 1915  10.169   8.718   6.859 -0.1516  0.1576 -0.1583
  124POPC   C3A 1916  10.335   8.586   6.508 -0.1700 -0.3251 -0.1184
  124POPC   C4A 1917  10.672   8.363   6.283 -0.0300  0.2110 -0.0922
  124POPC   C1B 1918   9.286   8.865   6.907 -0.2336 -0.2244 -0.0138
  124POPC   C2B 1919   9.279   9.145   6.578  0.1282 -0.2370  0.1965
  124POPC   C3B 1920   9.580   9.290   6.220  0.1506 -0.1846  0.0414
  124POPC   C4B 1921   9.887   9.128   6.081 -0.1314  0.3257  0.1410
  125POPC   NC3 1922   8.660   1.897   8.543 -0.0678  0.0868  0.2646
  125POPC   PO4 1923   8.869   1.772   8.068 -0.3917  0.3856 -0.4316
  125POPC   GL1 1924   8.930   1.661   7.496 -0.3263  0.0135  0.1322
  125POPC   GL2 1925   8.735   1.778   7.287 -0.2131 -0.1080 -0.2997
  125POPC   C1A 1926   9.038   1.446   7.067 -0.0097  0.0596 -0.0537
  125POPC   D2A 1927   9.350   1.556   6.727  0.3202  0.1754 -0.2903
  125POPC   C3A 1928   9.371   1.807   6.401  0.4154  0.0927  0.1045
  125POPC   C4A 1929   9.865   1.861   6.349 -0.0126  0.3016  0.3161
  125POPC   C1B 1930   8.555   1.757   6.852  0.1449 -0.1905 -0.3306
  125POPC   C2B 1931   8.674   1.720   6.416  0.4456  0.3435  0.1705
  125POPC   C3B 1932   8.986   1.878   6.071  0.1180  0.1094  0.1239
  125POPC   C4B 1933   9.231   1.830   5.797 -0.0431  0.0456 -0.0284
  126POPC   NC3 1934   8.742   7.718   7.770  0.1157 -0.1827 -0.1964
  126POPC   PO4 1935   9.184   7.939   7.761 -0.1468  0.1507 -0.0694
  126POPC   GL1 1936   9.404   7.961   7.321  0.1558 -0.2084  0.1168
  126POPC   GL2 1937   9.349   8.311   7.237 -0.4266 -0.2031  0.1045
  126POPC   C1A 1938   9.507   8.028   6.869 -0.2066 -0.2890  0.4448
  126POPC   D2A 1939   9.432   8.199   6.475  0.3796  0.4584  0.0315
  126POPC   C3A 1940   9.217   7.982   6.098  0.3364  0.0613  0.0459
  126POPC   C4A 1941   8.792   7.945   5.971  0.2036  0.1811  0.1046
  126POPC   C1B 1942   9.057   8.321   6.800 -0.1116  0.1538 -0.0317
  126POPC   C2B 1943   9.243   8.631   6.398 -0.0725 -0.0074  0.0687
  126POPC   C3B 1944   9.296   8.917   6.129  0.3569  0.1872  0.1916
  126POPC   C4B 1945   9.469   9.065   5.741 -0.3751  0.0050 -0.0432
  127POPC   NC3 1946   1.116   4.687   7.811 -0.4299  0.1678 -0.2800
  127POPC   PO4 1947   1.273   4.209   7.875 -0.0456  0.0952 -0.0084
  127POPC   GL1 1948   1.246   4.203   7.405 -0.1469  0.2444  0.3094
  127POPC   GL2 1949   0.952   4.124   7.387  0.0726 -0.1274  0.0423
  127POPC   C1A 1950   1.354   4.100   6.878  0.1254  0.1175  0.0345
  127POPC   D2A 1951   1.672   4.137   6.642  0.2646 -0.2034 -0.2316
  127POPC   C3A 1952   1.686   4.312   6.320  0.1607 -0.0809 -0.0743
  127POPC   C4A 1953   1.802   4.742   6.250 -0.0418  0.0331  0.1058
  127POPC   C1B 1954   0.882   3.920   7.031  0.0075 -0.1509  0.2119
  127POPC   C2B 1955   1.005   3.831   6.584 -0.1259 -0.1689  0.1192
  127POPC   C3B 1956   1.189   4.092   6.344  0.2011  0.0675  0.2031
  127POPC   C4B 1957   1.299   4.407   6.050  0.3775 -0.2273  0.0241
  128POPC   NC3 1958   1.868   4.994   7.887 -0.0409 -0.1772  0.2528
  128POPC   PO4 1959   1.975   5.104   7.436 -0.0510 -0.0739 -0.1912
  128POPC   GL1 1960   2.186   5.380   7.260 -0.2718 -0.0561 -0.0476
  128POPC   GL2 1961   1.980   5.644   7.209  0.1640 -0.1502 -0.0893
  128POPC   C1A 1962   2.427   5.630   6.923 -0.2014 -0.2083  0.0827
  128POPC   D2A 1963   2.421   5.746   6.525 -0.3011 -0.2029  0.1436
  128POPC   C3A 1964   2.651   5.348   6.261 -0.2996  0.2451 -0.0942
  128POPC   C4A 1965   2.759   4.925   6.399  0.2015  0.0217  0.0807
  128POPC   C1B 1966   1.995   5.825   6.764  0.1844  0.2036  0.0963
  128POPC   C2B 1967   1.889   6.019   6.333 -0.1542  0.1962  0.0306
  128POPC   C3B 1968   1.864   6.160   5.984 -0.0211 -0.2133  0.0181
  128POPC   C4B 1969   2.024   5.996   5.578 -0.0477  0.2833 -0.2842
  129POPC   NC3 1970   1.152   3.786   7.631 -0.4180 -0.0423 -0.2435
  129POPC   PO4 1971   1.505   3.641   7.476  0.1013 -0.3171 -0.3160
  129POPC   GL1 1972   1.626   3.728   7.008 -0.2145 -0.3249  0.1272
  129POPC   GL2 1973   1.875   3.516   6.876  0.2552  0.0500  0.3476
  129POPC   C1A 1974   1.455   3.670   6.516 -0.0274 -0.0345  0.1973
  129POPC   D2A 1975   1.529   3.491   6.081 -0.0890  0.0315 -0.1321
  129POPC   C3A 1976   1.351   3.873   5.906 -0.2331  0.0736  0.3964
  129POPC   C4A 1977   1.574   4.149   5.613 -0.1942 -0.1363 -0.1668
  129POPC   C1B 1978   1.923   3.464   6.442 -0.1640 -0.0743 -0.4462
  129POPC   C2B 1979   1.925   3.868   6.198 -0.1970 -0.1080  0.0257
  129POPC   C3B 1980   1.947   3.923   5.815  0.1510 -0.1364  0.1033
  129POPC   C4B 1981   2.179   4.083   5.488 -0.0016 -0.0528 -0.1058
  130POPC   NC3 1982   3.168   8.817   8.811 -0.1133  0.0945  0.0374
  130POPC   PO4 1983   2.915   9.220   9.046  0.1713  0.0373  0.0216
  130POPC   GL1 1984   2.887   9.276   8.591  0.1919  0.2700 -0.2346
  130POPC   GL2 1985   3.074   9.561   8.465 -0.1168 -0.2388  0.0760
  130POPC   C1A 1986   2.535   9.025   8.360  0.0346  0.0021  0.1426
  130POPC   D2A 1987   2.211   8.671   8.135  0.0611 -0.0403  0.3011
  130POPC   C3A 1988   2.164   8.733   7.673 -0.1120 -0.0798 -0.0065
  130POPC   C4A 1989   2.145   9.013   7.375 -0.0565 -0.1814  0.1287
  130POPC   C1B 1990   3.400   9.374   8.122  0.2729 -0.0696 -0.0091
  130POPC   C2B 1991   3.621   9.491   7.777  0.1289 -0.1885  0.1629
  130POPC   C3B 1992   4.025   9.537   7.477 -0.1641 -0.2061  0.1232
  130POPC   C4B 1993   4.057   9.857   7.021 -0.4842  0.2493  0.3180
  131POPC   NC3 1994   1.298   5.809   7.573  0.0004  0.0496  0.1742
  131POPC   PO4 1995   1.198   5.515   7.309  0.0604  0.5804  0.2331
  131POPC   GL1 1996   1.193   5.586   6.820  0.0032 -0.2162 -0.0771
  131POPC   GL2 1997   1.533   5.623   6.661  0.1590  0.0299  0.0529
  131POPC   C1A 1998   1.030   5.496   6.413  0.0081  0.0105 -0.0953
  131POPC   D2A 1999   0.758   5.376   6.058  0.0792  0.2755 -0.1265
  131POPC   C3A 2000   0.634   5.799   5.830  0.4385 -0.1430  0.0022
  131POPC   C4A 2001   0.734   6.302   5.902  0.0128 -0.2413 -0.0210
  131POPC   C1B 2002   1.502   5.701   6.255 -0.0716 -0.1475 -0.1142
  131POPC   C2B 2003   1.858   5.582   5.963 -0.0981 -0.2092  0.2772
  131POPC   C3B 2004   2.283   5.879   6.075  0.1553 -0.2009 -0.1930
  131POPC   C4B 2005   2.390   6.247   6.384  0.0903 -0.0472 -0.1534
  132POPC   NC3 2006   7.950   2.815   7.734  0.5841 -0.1635  0.3419
  132POPC   PO4 2007   7.500   2.703   7.618  0.1247  0.1250 -0.2138
  132POPC   GL1 2008   7.648   2.933   7.290 -0.2868  0.1118 -0.1391
  132POPC   GL2 2009   7.604   3.263   7.183 -0.0353  0.2465  0.0732
  132POPC   C1A 2010   7.537   2.775   6.934 -0.1134  0.0311 -0.0543
  132POPC   D2A 2011   7.173   2.753   6.606  0.0773 -0.1227  0.1770
  132POPC   C3A 2012   7.306   3.079   6.332  0.1654  0.1564 -0.0021
  132POPC   C4A 2013   7.482   3.461   6.137 -0.2832  0.1728 -0.0294
  132POPC   C1B 2014   7.862   3.598   6.834 -0.0314 -0.2426  0.0349
  132POPC   C2B 2015   7.948   3.668   6.423  0.2118  0.2039  0.2121
  132POPC   C3B 2016   7.970   3.925   6.174  0.0045 -0.1047 -0.0360
  132POPC   C4B 2017   7.785   3.716   5.808  0.0629  0.1333  0.0922
  133POPC   NC3 2018   7.054   6.029   7.545  0.0002 -0.4124 -0.0464
  133POPC   PO4 2019   6.762   6.260   7.319 -0.2160 -0.1381 -0.2183
  133POPC   GL1 2020   6.812   6.324   6.845  0.1386  0.2217  0.0531
  133POPC   GL2 2021   6.566   6.635   6.678 -0.1368  0.1823  0.2904
  133POPC   C1A 2022   6.864   6.235   6.349 -0.0715 -0.1629  0.0836
  133POPC   D2A 2023   7.266   5.985   6.272  0.0525 -0.1467 -0.1112
  133POPC   C3A 2024   7.168   5.701   6.025  0.1550 -0.0966 -0.4011
  133POPC   C4A 2025   7.332   5.783   5.487 -0.1846  0.2612 -0.1751
  133POPC   C1B 2026   6.516   6.625   6.264  0.0170  0.1474 -0.3064
  133POPC   C2B 2027   6.609   6.385   5.874 -0.1940 -0.0682 -0.0945
  133POPC   C3B 2028   6.783   6.571   5.530  0.2614 -0.0684  0.0207
  133POPC   C4B 2029   6.692   6.611   5.046  0.1769  0.1241  0.0882
  134POPC   NC3 2030   2.816   6.185   8.514  0.1162 -0.1195 -0.1902
  134POPC   PO4 2031   2.982   5.795   8.221 -0.0754  0.0764 -0.3327
  134POPC   GL1 2032   2.966   5.440   7.891 -0.4361  0.1300  0.0317
  134POPC   GL2 2033   3.278   5.454   7.802  0.0662  0.0935 -0.0622
  134POPC   C1A 2034   2.866   5.396   7.406  0.0577  0.0276 -0.0069
  134POPC   D2A 2035   2.616   5.177   7.082  0.4171 -0.0261 -0.2690
  134POPC   C3A 2036   2.364   5.217   6.632  0.4388 -0.1472 -0.1576
  134POPC   C4A 2037   2.102   5.238   6.277  0.2944 -0.1287  0.1381
  134POPC   C1B 2038   3.321   5.700   7.416 -0.1426 -0.3166  0.1267
  134POPC   C2B 2039   3.361   5.855   6.913 -0.1098  0.0550 -0.0325
  134POPC   C3B 2040   3.393   6.068   6.466  0.0536 -0.1541  0.2473
  134POPC   C4B 2041   3.412   6.478   6.223  0.2330  0.3271 -0.1270
  135POPC   NC3 2042   6.879   6.764   7.176 -0.0039  0.1975 -0.1127
  135POPC   PO4 2043   6.742   7.066   6.960 -0.1967 -0.0608 -0.2118
  135POPC   GL1 2044   6.347   7.117   6.746  0.2344  0.2645 -0.1191
  135POPC   GL2 2045   6.380   7.284   6.421 -0.3402 -0.2817  0.4204
  135POPC   C1A 2046   5.902   7.265   6.584  0.0263  0.2685 -0.1777
  135POPC   D2A 2047   5.444   7.130   6.550  0.0686  0.3535  0.0805
  135POPC   C3A 2048   5.381   6.995   6.137 -0.0500 -0.5324  0.1981
  135POPC   C4A 2049   5.306   6.899   5.572 -0.0641  0.1323 -0.0407
  135POPC   C1B 2050   6.811   7.294   6.289  0.0455  0.2332 -0.1592
  135POPC   C2B 2051   7.237   7.311   6.383 -0.0846  0.2490  0.0511
  135POPC   C3B 2052   7.665   7.305   6.467 -0.0781  0.0412  0.0853
  135POPC   C4B 2053   8.031   7.110   6.378 -0.2112  0.0031 -0.0146
  136POPC   NC3 2054   7.847   7.569   7.753 -0.1355 -0.1975  0.2232
  136POPC   PO4 2055   7.508   7.506   7.478  0.2637  0.2968 -0.0070
  136POPC   GL1 2056   7.518   7.481   7.056 -0.1240 -0.1992 -0.1651
  136POPC   GL2 2057   7.630   7.651   6.820 -0.2824  0.0083 -0.2496
  136POPC   C1A 2058   7.329   7.204   6.817  0.0230  0.2345 -0.3265
  136POPC   D2A 2059   7.122   6.804   6.705  0.0397 -0.1144 -0.1685
  136POPC   C3A 2060   6.990   6.795   6.220  0.1208  0.1793 -0.1392
  136POPC   C4A 2061   6.648   6.937   5.902 -0.1665  0.0284 -0.1839
  136POPC   C1B 2062   7.218   7.705   6.728 -0.1277 -0.1449 -0.2455
  136POPC   C2B 2063   7.076   7.814   6.268 -0.2223 -0.1145  0.1868
  136POPC   C3B 2064   7.066   8.031   5.933  0.2335 -0.1514 -0.0860
  136POPC   C4B 2065   6.931   8.460   5.975  0.0382 -0.2097 -0.0056
  137POPC   NC3 2066   7.158   9.644   7.483 -0.2554  0.4534  0.1858
  137POPC   PO4 2067   7.597   9.924   7.683  0.1732 -0.0970  0.0929
  137POPC   GL1 2068   7.721   9.747   7.322 -0.1601  0.0114 -0.0095
  137POPC   GL2 2069   8.035   9.608   7.402 -0.0958  0.3364 -0.0254
  137POPC   C1A 2070   7.866   9.773   6.844  0.1622 -0.1357  0.1009
  137POPC   D2A 2071   8.216   9.719   6.604 -0.0639 -0.0891  0.1779
  137POPC   C3A 2072   8.336   9.419   6.232 -0.0611  0.0007  0.0067
  137POPC   C4A 2073   8.592   9.574   5.995 -0.0350  0.0992 -0.2000
  137POPC   C1B 2074   8.207   9.970   7.107 -0.0965 -0.1851 -0.0400
  137POPC   C2B 2075   8.231  10.201   6.732  0.0818  0.0617  0.0436
  137POPC   C3B 2076   8.369  10.195   6.369  0.1686  0.1180 -0.2464
  137POPC   C4B 2077   8.239   9.898   6.140 -0.3281 -0.1545  0.0619
  138POPC   NC3 2078   3.762   0.460   9.048 -0.1175 -0.1015 -0.0007
  138POPC   PO4 2079   3.420   0.741   9.013 -0.0369 -0.1086  0.2517
  138POPC   GL1 2080   3.525   0.529   8.621 -0.0547  0.1383  0.0238
  138POPC   GL2 2081   3.349   0.771   8.386  0.6005  0.1420  0.0210
  138POPC   C1A 2082   3.843   0.648   8.156 -0.1730 -0.0229  0.0254
  138POPC   D2A 2083   3.700   0.709   7.774  0.3939  0.2512 -0.1036
  138POPC   C3A 2084   4.006   0.558   7.514  0.1961 -0.0412  0.1907
  138POPC   C4A 2085   3.977   0.282   7.137 -0.2808  0.2335 -0.3148
  138POPC   C1B 2086   3.242   1.007   7.960 -0.0666  0.0198 -0.1168
  138POPC   C2B 2087   3.575   1.154   7.630 -0.1084 -0.2545 -0.0425
  138POPC   C3B 2088   3.565   1.112   7.155 -0.3542  0.1173  0.0807
  138POPC   C4B 2089   3.305   1.275   6.850 -0.1403 -0.0195 -0.0156
  139POPC   NC3 2090   0.435   7.861   7.875  0.2208 -0.3448 -0.1437
  139POPC   PO4 2091   0.019   7.978   7.741  0.2113  0.1863  0.1372
  139POPC   GL1 2092  -0.177   7.843   7.396  0.1153  0.0420 -0.0485
  139POPC   GL2 2093  -0.056   7.740   7.157  0.0887  0.2403 -0.3130
  139POPC   C1A 2094  -0.326   8.139   7.104  0.1856 -0.0153  0.0599
  139POPC   D2A 2095  -0.239   8.247   6.686 -0.0480 -0.1197  0.2114
  139POPC   C3A 2096  -0.276   8.012   6.379  0.1982  0.2209 -0.2638
  139POPC   C4A 2097  -0.549   8.080   5.965  0.1309 -0.0711 -0.0800
  139POPC   C1B 2098   0.121   7.841   6.784 -0.3171  0.0959  0.0484
  139POPC   C2B 2099   0.253   7.875   6.294  0.1176  0.1596  0.0319
  139POPC   C3B 2100   0.304   7.810   5.878  0.3547 -0.0885 -0.0469
  139POPC   C4B 2101   0.652   7.792   5.576 -0.0404 -0.0596  0.3793
  140POPC   NC3 2102   8.227   8.460   8.489  0.0120  0.2477  0.0809
  140POPC   PO4 2103   8.268   8.504   7.998 -0.1315  0.1915  0.2506
  140POPC   GL1 2104   8.398   8.429   7.461  0.0047 -0.1643 -0.0579
  140POPC   GL2 2105   8.369   8.206   7.313  0.1093  0.3359 -0.2254
  140POPC   C1A 2106   8.668   8.560   7.129 -0.2724 -0.1470 -0.1499
  140POPC   D2A 2107   8.649   8.745   6.689 -0.1170  0.0614  0.1495
  140POPC   C3A 2108   8.839   9.029   6.370 -0.2012  0.2048 -0.0118
  140POPC   C4A 2109   9.032   9.385   6.092 -0.4616  0.0370 -0.1312
  140POPC   C1B 2110   8.287   8.351   6.894 -0.1320 -0.0654  0.1023
  140POPC   C2B 2111   8.260   8.255   6.510 -0.2630 -0.1664  0.0489
  140POPC   C3B 2112   8.335   8.079   6.220  0.1122 -0.2838 -0.0839
  140POPC   C4B 2113   8.222   7.813   5.803  0.0658  0.1372 -0.2314
  141POPC   NC3 2114   8.039  10.201   7.682 -0.1954 -0.0851 -0.0103
  141POPC   PO4 2115   8.497  10.071   7.680  0.2027  0.0755  0.2341
  141POPC   GL1 2116   8.689   9.969   7.252 -0.2315 -0.1343 -0.1830
  141POPC   GL2 2117   8.925   9.665   7.180  0.0874 -0.1271 -0.3669
  141POPC   C1A 2118   8.682  10.069   6.814 -0.0331  0.2051  0.0381
  141POPC   D2A 2119   8.828  10.287   6.561 -0.0924 -0.2563  0.0994
  141POPC   C3A 2120   9.182  10.108   6.425  0.0821  0.0811 -0.0979
  141POPC   C4A 2121   9.514  10.301   6.202  0.1708  0.1308 -0.1558
  141POPC   C1B 2122   9.139   9.812   6.828  0.0079  0.0712  0.2170
  141POPC   C2B 2123   9.359   9.648   6.524 -0.2533 -0.2238 -0.0137
  141POPC   C3B 2124   9.446   9.790   6.141 -0.1331  0.2291  0.0546
  141POPC   C4B 2125   9.531  10.053   5.820 -0.1784  0.1307  0.0856
  142POPC   NC3 2126   8.786   2.123   7.705  0.4844  0.1703 -0.0938
  142POPC   PO4 2127   9.165   2.061   7.848  0.0961  0.2236  0.2171
  142POPC   GL1 2128   9.147   2.415   7.386 -0.0437  0.0344 -0.1502
  142POPC   GL2 2129   9.406   2.561   7.188 -0.3481  0.0993  0.1030
  142POPC   C1A 2130   8.919   2.488   6.985  0.2501  0.0183  0.0914
  142POPC   D2A 2131   8.741   2.690   6.583  0.1437  0.1588 -0.0455
  142POPC   C3A 2132   8.868   2.717   6.243  0.1255  0.4330  0.2032
  142POPC   C4A 2133   8.712   2.391   5.928  0.0848  0.0682 -0.3014
  142POPC   C1B 2134   9.800   2.566   6.991  0.1866 -0.1191 -0.2422
  142POPC   C2B 2135  10.136   2.492   6.627 -0.0239 -0.0217  0.1845
  142POPC   C3B 2136  10.322   2.689   6.373  0.0705  0.0639  0.0455
  142POPC   C4B 2137  10.272   2.942   5.998 -0.1374  0.3533  0.0360
  143POPC   NC3 2138   8.152   6.566   7.520  0.1908 -0.0645  0.1342
  143POPC   PO4 2139   7.938   6.044   7.594  0.2446 -0.0799 -0.0159
  143POPC   GL1 2140   8.124   6.158   7.242  0.1964  0.3152  0.1191
  143POPC   GL2 2141   8.445   5.869   7.094 -0.0203  0.2270 -0.0079
  143POPC   C1A 2142   8.094   6.095   6.805  0.0243 -0.1232  0.1189
  143POPC   D2A 2143   7.746   6.078   6.457  0.0924 -0.1208 -0.0477
  143POPC   C3A 2144   7.870   6.336   6.176  0.3064 -0.3394  0.2365
  143POPC   C4A 2145   8.126   6.194   5.852  0.0012  0.1553  0.1346
  143POPC   C1B 2146   8.546   5.392   7.051 -0.0225 -0.0553  0.2506
  143POPC   C2B 2147   8.855   5.336   7.005  0.2660 -0.0061 -0.0542
  143POPC   C3B 2148   9.041   5.570   6.686 -0.0216 -0.0187 -0.1374
  143POPC   C4B 2149   9.216   5.772   6.248 -0.1946 -0.0676  0.1401
  144POPC   NC3 2150   3.883   8.245   9.027  0.2551  0.0444 -0.1086
  144POPC   PO4 2151   3.926   8.111   8.550  0.0922  0.1551 -0.2003
  144POPC   GL1 2152   3.764   8.309   8.058 -0.0043 -0.1659 -0.1859
  144POPC   GL2 2153   3.804   8.678   8.181  0.1691  0.0481  0.3720
  144POPC   C1A 2154   3.630   8.371   7.670  0.0352 -0.0111  0.2185
  144POPC   D2A 2155   3.386   8.690   7.390 -0.2366 -0.0008  0.2005
  144POPC   C3A 2156   3.341   8.758   6.922  0.1225  0.3134  0.1569
  144POPC   C4A 2157   3.185   9.143   6.714 -0.2085 -0.0904 -0.1021
  144POPC   C1B 2158   3.961   9.079   8.159  0.0311  0.2254 -0.3082
  144POPC   C2B 2159   3.931   9.449   8.251 -0.2520  0.0179  0.0462
  144POPC   C3B 2160   4.005   9.796   7.896  0.2545 -0.3063 -0.1887
  144POPC   C4B 2161   3.871   9.973   7.464  0.3704 -0.2904 -0.1145
  145POPC   NC3 2162   5.315   1.279   7.835 -0.1713 -0.1577  0.3513
  145POPC   PO4 2163   5.652   1.557   7.684 -0.1032 -0.1120  0.4424
  145POPC   GL1 2164   5.675   1.378   7.381  0.1676 -0.0124 -0.0044
  145POPC   GL2 2165   5.364   1.215   7.374  0.0391  0.1229 -0.2019
  145POPC   C1A 2166   5.430   1.514   7.014  0.0464 -0.0389  0.1102
  145POPC   D2A 2167   5.119   1.556   6.667 -0.0116  0.0741 -0.3614
  145POPC   C3A 2168   4.699   1.772   6.491  0.2688 -0.2979 -0.2124
  145POPC   C4A 2169   4.507   2.010   6.063 -0.1831 -0.1151 -0.0739
  145POPC   C1B 2170   5.272   1.071   6.937  0.3588  0.2283 -0.0826
  145POPC   C2B 2171   5.242   1.154   6.453 -0.1458  0.2739 -0.0350
  145POPC   C3B 2172   5.226   1.062   6.035 -0.0291  0.1694  0.0366
  145POPC   C4B 2173   5.264   1.450   5.779 -0.1135  0.1422 -0.5138
  146POPC   NC3 2174   5.407   9.749   8.947  0.0710 -0.2064 -0.0514
  146POPC   PO4 2175   5.345   9.817   8.507  0.2268  0.0187  0.0823
  146POPC   GL1 2176   5.361   9.894   8.059 -0.1172  0.0333 -0.0895
  146POPC   GL2 2177   5.672   9.758   7.803 -0.0148  0.0472 -0.2131
  146POPC   C1A 2178   5.401  10.083   7.602  0.1746  0.0361  0.0412
  146POPC   D2A 2179   5.740   9.941   7.312 -0.1970  0.3378 -0.0069
  146POPC   C3A 2180   5.687   9.608   7.110  0.0479  0.1329  0.1626
  146POPC   C4A 2181   5.342   9.326   6.935  0.1108 -0.2964 -0.0709
  146POPC   C1B 2182   5.371   9.589   7.574  0.2814  0.0990 -0.1337
  146POPC   C2B 2183   5.181   9.692   7.278  0.2871 -0.0190 -0.2118
  146POPC   C3B 2184   5.218   9.785   6.817 -0.1018 -0.1766 -0.0235
  146POPC   C4B 2185   4.990   9.868   6.459  0.3426  0.0866  0.3743
  147POPC   NC3 2186   2.666   5.316   8.411 -0.0037  0.3759 -0.3311
  147POPC   PO4 2187   2.685   5.061   8.114 -0.0533 -0.0096  0.2317
  147POPC   GL1 2188   2.959   4.920   7.687  0.2259  0.0496 -0.4290
  147POPC   GL2 2189   3.237   4.991   7.665 -0.1892  0.1256  0.0746
  147POPC   C1A 2190   2.891   4.772   7.258  0.0013  0.0328  0.3456
  147POPC   D2A 2191   3.126   4.468   7.044 -0.1944 -0.2788 -0.3277
  147POPC   C3A 2192   3.048   4.332   6.697  0.0920 -0.1679  0.0822
  147POPC   C4A 2193   3.157   4.192   6.217  0.1651  0.3504  0.3923
  147POPC   C1B 2194   3.246   5.166   7.197 -0.0545  0.0226 -0.1422
  147POPC   C2B 2195   3.195   4.954   6.774  0.1664  0.2619  0.0440
  147POPC   C3B 2196   3.182   4.715   6.293  0.0880  0.3054  0.0361
  147POPC   C4B 2197   3.476   4.519   5.980  0.0579 -0.2496  0.3527
  148POPC   NC3 2198   4.756   8.533   8.274  0.1958  0.1271  0.2394
  148POPC   PO4 2199   5.159   8.555   7.969  0.2089 -0.3248  0.2524
  148POPC   GL1 2200   5.222   8.525   7.547 -0.3388  0.1456  0.1359
  148POPC   GL2 2201   5.519   8.338   7.410  0.1133 -0.1006 -0.0222
  148POPC   C1A 2202   4.840   8.500   7.323  0.2688  0.1625 -0.2137
  148POPC   D2A 2203   4.422   8.412   7.409 -0.2438 -0.4033 -0.1177
  148POPC   C3A 2204   4.154   8.662   7.251  0.0082 -0.3041 -0.1078
  148POPC   C4A 2205   3.995   9.139   7.174  0.1143  0.2161  0.0265
  148POPC   C1B 2206   5.357   8.117   6.981  0.1546 -0.4688 -0.1761
  148POPC   C2B 2207   4.908   8.261   6.894 -0.0613 -0.2315 -0.0278
  148POPC   C3B 2208   4.859   8.610   6.618  0.2609 -0.0196 -0.2848
  148POPC   C4B 2209   4.594   8.787   6.238 -0.2121 -0.1242  0.1167
  149POPC   NC3 2210   7.387   0.222   8.131 -0.0448 -0.3296  0.4348
  149POPC   PO4 2211   7.259   0.584   7.723 -0.0306 -0.0919 -0.2063
  149POPC   GL1 2212   7.053   0.594   7.421  0.1479 -0.2003  0.0979
  149POPC   GL2 2213   6.794   0.598   7.185 -0.0854 -0.1511  0.0456
  149POPC   C1A 2214   7.240   0.796   7.044  0.2191  0.4380 -0.0641
  149POPC   D2A 2215   7.518   1.062   7.104 -0.2388 -0.0597 -0.0779
  149POPC   C3A 2216   7.550   1.368   6.810  0.0228  0.0744 -0.0642
  149POPC   C4A 2217   7.267   1.686   6.824 -0.0572  0.2679  0.0068
  149POPC   C1B 2218   6.782   0.816   6.790 -0.2310  0.1810  0.1875
  149POPC   C2B 2219   6.906   1.101   6.390  0.1813 -0.0130 -0.2712
  149POPC   C3B 2220   7.261   1.355   6.339  0.1750  0.1357 -0.0115
  149POPC   C4B 2221   7.551   1.426   5.943 -0.1413  0.2007  0.1001
  150POPC   NC3 2222   9.722   5.092   4.121 -0.2556 -0.2134 -0.1701
  150POPC   PO4 2223   9.619   4.774   4.014 -0.0679 -0.0799 -0.0665
  150POPC   GL1 2224   9.420   4.769   4.383 -0.4323 -0.1478 -0.2693
  150POPC   GL2 2225   9.692   4.560   4.502 -0.2575  0.0088 -0.3707
  150POPC   C1A 2226   9.390   4.759   4.845 -0.0607  0.0158  0.0919
  150POPC   D2A 2227   9.065   4.619   5.025  0.1937  0.1412 -0.1359
  150POPC   C3A 2228   8.939   4.700   5.400 -0.1341 -0.2029 -0.1291
  150POPC   C4A 2229   8.666   4.493   5.673 -0.1629  0.0895  0.3603
  150POPC   C1B 2230  10.087   4.298   4.730 -0.0214  0.0789  0.0417
  150POPC   C2B 2231  10.254   3.867   4.847  0.2220  0.0139 -0.0765
  150POPC   C3B 2232  10.249   3.714   5.322 -0.1416  0.2581  0.2185
  150POPC   C4B 2233  10.187   3.306   5.649  0.1868  0.0424 -0.2182
  151POPC   NC3 2234   9.747   9.698   3.875  0.0849  0.0820  0.1437
  151POPC   PO4 2235  10.066   9.466   3.811 -0.2665 -0.0188 -0.1832
  151POPC   GL1 2236  10.153   9.687   4.202  0.0414 -0.0232  0.0869
  151POPC   GL2 2237  10.516   9.423   4.332  0.1999  0.1005  0.6523
  151POPC   C1A 2238  10.338   9.752   4.627  0.2988  0.0503  0.2404
  151POPC   D2A 2239  10.741   9.701   4.640 -0.1584  0.1054 -0.0724
  151POPC   C3A 2240  11.013  10.040   4.736  0.0796 -0.0006 -0.0740
  151POPC   C4A 2241  11.442  10.002   4.897  0.1146 -0.4292 -0.2375
  151POPC   C1B 2242  10.546   9.242   4.792  0.0076 -0.0919  0.1039
  151POPC   C2B 2243  10.542   9.498   5.202 -0.0441 -0.0285 -0.0914
  151POPC   C3B 2244  10.384   9.807   5.554 -0.4216 -0.1409  0.2535
  151POPC   C4B 2245  10.469  10.273   5.797 -0.1188  0.1935 -0.4188
  152POPC   NC3 2246   0.795   8.415   3.750 -0.2932  0.2005  0.1497
  152POPC   PO4 2247   0.487   7.981   3.858 -0.2429 -0.1056  0.1472
  152POPC   GL1 2248   0.410   7.792   4.226 -0.1436 -0.0403 -0.2975
  152POPC   GL2 2249   0.056   7.767   4.332 -0.1755  0.1064 -0.0396
  152POPC   C1A 2250   0.445   7.708   4.675 -0.0169  0.1157 -0.1273
  152POPC   D2A 2251   0.493   7.380   4.989 -0.3027 -0.2306 -0.1909
  152POPC   C3A 2252   0.772   7.339   5.328  0.0745  0.1740 -0.2148
  152POPC   C4A 2253   0.966   7.181   5.748 -0.0904  0.0473  0.2732
  152POPC   C1B 2254   0.172   8.141   4.476 -0.0727  0.0592  0.0091
  152POPC   C2B 2255   0.142   8.632   4.370 -0.0306 -0.0164 -0.1455
  152POPC   C3B 2256   0.025   8.826   4.760  0.2200  0.0420 -0.1907
  152POPC   C4B 2257   0.016   9.032   5.185  0.0602 -0.2397 -0.2263
  153POPC   NC3 2258   7.795   4.558   3.785  0.1761 -0.0228  0.3040
  153POPC   PO4 2259   7.564   4.216   3.750  0.0237  0.2153 -0.1391
  153POPC   GL1 2260   7.508   4.395   4.183  0.3681 -0.2454  0.1673
  153POPC   GL2 2261   7.612   4.705   4.254  0.0966  0.0055 -0.1312
  153POPC   C1A 2262   7.220   4.432   4.518 -0.2925  0.0437 -0.1431
  153POPC   D2A 2263   6.886   4.197   4.859  0.0738  0.0536  0.1800
  153POPC   C3A 2264   6.725   3.914   4.653 -0.1495  0.1403  0.0435
  153POPC   C4A 2265   6.824   3.504   4.644 -0.0701 -0.1039  0.1291
  153POPC   C1B 2266   7.663   4.773   4.683  0.0821  0.6734  0.0420
  153POPC   C2B 2267   7.669   4.588   4.999 -0.0209 -0.1489 -0.2501
  153POPC   C3B 2268   7.697   4.546   5.455  0.0334 -0.1406  0.1192
  153POPC   C4B 2269   7.914   4.302   5.760  0.2966  0.1532 -0.0106
  154POPC   NC3 2270   8.987   4.527   3.486  0.1332  0.2807  0.1183
  154POPC   PO4 2271   9.441   4.415   3.695 -0.0669  0.1112 -0.2676
  154POPC   GL1 2272   9.245   4.373   4.107 -0.0213  0.3454  0.1454
  154POPC   GL2 2273   9.032   4.510   4.080  0.0975  0.2237  0.0614
  154POPC   C1A 2274   9.352   4.247   4.538 -0.2835 -0.2065  0.1360
  154POPC   D2A 2275   9.574   4.247   4.878  0.1369 -0.1124 -0.0729
  154POPC   C3A 2276   9.463   4.415   5.246 -0.0008 -0.0724  0.2213
  154POPC   C4A 2277   9.418   4.835   5.399  0.1348  0.1892  0.1594
  154POPC   C1B 2278   8.839   4.447   4.457  0.0463 -0.0067 -0.1699
  154POPC   C2B 2279   8.686   4.379   4.958 -0.2585  0.3971 -0.0783
  154POPC   C3B 2280   8.849   4.091   5.256 -0.2136  0.0759 -0.2094
  154POPC   C4B 2281   8.994   3.699   5.500  0.1035 -0.0680 -0.2259
  155POPC   NC3 2282   2.821   9.832   4.276  0.1950 -0.3967  0.1441
  155POPC   PO4 2283   2.607  10.250   4.262 -0.0712 -0.0454 -0.0088
  155POPC   GL1 2284   2.252  10.446   4.387  0.0467  0.2810 -0.0186
  155POPC   GL2 2285   2.259  10.259   4.629 -0.0286  0.3192 -0.0362
  155POPC   C1A 2286   1.926  10.602   4.723  0.1194  0.2123  0.0011
  155POPC   D2A 2287   1.935  10.926   5.010 -0.0253  0.0148 -0.2012
  155POPC   C3A 2288   1.582  11.013   5.260  0.0073 -0.1843 -0.1468
  155POPC   C4A 2289   1.383  11.067   5.680 -0.1245 -0.2878  0.0799
  155POPC   C1B 2290   1.818  10.047   4.458 -0.2020 -0.3762 -0.2539
  155POPC   C2B 2291   1.443   9.942   4.302 -0.0972 -0.3193  0.0892
  155POPC   C3B 2292   1.039  10.262   4.363 -0.1518  0.0923 -0.2004
  155POPC   C4B 2293   0.789  10.581   4.382 -0.1954 -0.2503  0.1463
  156POPC   NC3 2294   3.976   7.278   3.125  0.3466 -0.5130 -0.1054
  156POPC   PO4 2295   4.048   7.421   3.589 -0.3616 -0.1470 -0.0816
  156POPC   GL1 2296   4.040   7.616   3.950 -0.0345  0.1048 -0.0635
  156POPC   GL2 2297   4.127   7.482   4.234  0.0557  0.0111  0.2012
  156POPC   C1A 2298   3.967   7.989   4.168 -0.0427 -0.0827 -0.1597
  156POPC   D2A 2299   3.997   8.148   4.569  0.1048 -0.3934  0.0836
  156POPC   C3A 2300   4.254   8.012   4.769  0.1167 -0.0088 -0.3310
  156POPC   C4A 2301   4.720   7.978   4.592 -0.0029  0.1354  0.0468
  156POPC   C1B 2302   4.347   7.587   4.543 -0.4169 -0.2282 -0.0660
  156POPC   C2B 2303   4.652   7.554   4.851 -0.0452 -0.2978  0.1604
  156POPC   C3B 2304   4.841   7.394   5.247  0.1953  0.2079 -0.1112
  156POPC   C4B 2305   4.962   7.301   5.685  0.2957 -0.1142 -0.2786
  157POPC   NC3 2306   1.806   5.418   3.972 -0.4272  0.1650 -0.0900
  157POPC   PO4 2307   1.673   5.807   3.705 -0.0656  0.0763 -0.0569
  157POPC   GL1 2308   1.579   5.825   4.115  0.0082  0.0822  0.0825
  157POPC   GL2 2309   1.383   6.014   4.051  0.1887 -0.0504  0.0880
  157POPC   C1A 2310   1.730   5.824   4.562  0.0952 -0.2868 -0.0889
  157POPC   D2A 2311   1.936   6.124   4.738 -0.1032 -0.1198  0.0547
  157POPC   C3A 2312   1.824   6.202   5.182  0.3817 -0.0313 -0.0374
  157POPC   C4A 2313   1.659   6.330   5.541  0.0684 -0.0501  0.1357
  157POPC   C1B 2314   1.346   6.156   4.408 -0.2418  0.0195 -0.3327
  157POPC   C2B 2315   1.439   6.122   4.822 -0.2608  0.1569 -0.0353
  157POPC   C3B 2316   1.446   5.911   5.233 -0.1408  0.1089 -0.0252
  157POPC   C4B 2317   1.523   5.808   5.677  0.1748 -0.1703  0.1381
  158POPC   NC3 2318   6.092   1.867   3.611  0.3633 -0.4444  0.0459
  158POPC   PO4 2319   5.757   1.880   3.956 -0.3616 -0.0687 -0.0284
  158POPC   GL1 2320   5.794   2.205   4.227 -0.1193  0.0514 -0.2240
  158POPC   GL2 2321   5.468   2.291   4.171  0.1718  0.0868 -0.0861
  158POPC   C1A 2322   5.820   2.114   4.597  0.1627  0.1516 -0.2743
  158POPC   D2A 2323   5.575   2.021   4.955  0.0089 -0.0620 -0.1561
  158POPC   C3A 2324   5.139   1.998   5.065  0.0847 -0.2458  0.0162
  158POPC   C4A 2325   4.983   1.564   4.896  0.1561 -0.0130  0.0439
  158POPC   C1B 2326   5.371   2.365   4.542 -0.0678  0.0660 -0.0318
  158POPC   C2B 2327   5.325   2.459   5.018 -0.0881 -0.2643 -0.0639
  158POPC   C3B 2328   5.341   2.299   5.463 -0.0393 -0.1850  0.0745
  158POPC   C4B 2329   5.404   2.291   5.954 -0.0959  0.0362  0.1430
  159POPC   NC3 2330   2.044   2.997   3.043 -0.1614 -0.1535 -0.1777
  159POPC   PO4 2331   1.647   3.184   3.406 -0.2004  0.0803 -0.1601
  159POPC   GL1 2332   1.554   3.273   3.831  0.1098 -0.1295  0.2667
  159POPC   GL2 2333   1.225   3.384   3.930  0.0353  0.1071  0.1862
  159POPC   C1A 2334   1.743   3.425   4.184 -0.0421  0.0503  0.1890
  159POPC   D2A 2335   1.833   3.683   4.636  0.1727  0.0022 -0.0611
  159POPC   C3A 2336   1.796   3.396   4.970 -0.0335  0.1641  0.0899
  159POPC   C4A 2337   2.111   3.308   5.314  0.3453 -0.2569  0.1281
  159POPC   C1B 2338   1.313   3.632   4.318 -0.1168 -0.1429  0.0053
  159POPC   C2B 2339   1.391   3.829   4.725 -0.1950  0.1414 -0.0152
  159POPC   C3B 2340   1.581   3.847   5.087 -0.0110 -0.1733  0.1186
  159POPC   C4B 2341   1.686   3.656   5.450 -0.0135  0.1507 -0.0321
  160POPC   NC3 2342   7.500   0.750   3.888  0.0025 -0.3096 -0.1611
  160POPC   PO4 2343   7.980   0.553   3.839 -0.0836 -0.1763 -0.2242
  160POPC   GL1 2344   8.060   0.553   4.232  0.2478 -0.1121 -0.0955
  160POPC   GL2 2345   8.376   0.354   4.179  0.1488  0.3346 -0.1310
  160POPC   C1A 2346   8.265   0.671   4.610 -0.0450  0.1806 -0.0750
  160POPC   D2A 2347   8.109   0.949   4.988 -0.0817 -0.1999  0.0063
  160POPC   C3A 2348   7.970   0.827   5.379  0.3772  0.1995  0.1498
  160POPC   C4A 2349   7.900   0.389   5.594 -0.1863  0.1333  0.0745
  160POPC   C1B 2350   8.601   0.222   4.529  0.0003  0.2982  0.0203
  160POPC   C2B 2351   8.558   0.268   4.941  0.1212  0.0488  0.2918
  160POPC   C3B 2352   8.292   0.151   5.380 -0.0963  0.0396  0.0025
  160POPC   C4B 2353   8.291   0.018   5.752 -0.3952  0.2742 -0.2517
  161POPC   NC3 2354   7.606   9.170   3.672 -0.4093 -0.1797  0.2978
  161POPC   PO4 2355   7.326   9.286   3.994  0.4211  0.0862  0.1862
  161POPC   GL1 2356   7.073   9.287   4.399 -0.4190 -0.0196 -0.0729
  161POPC   GL2 2357   7.288   9.433   4.530  0.1759  0.1378  0.0656
  161POPC   C1A 2358   6.831   9.094   4.812 -0.1117 -0.0892 -0.2368
  161POPC   D2A 2359   6.456   8.887   5.095  0.1187  0.2727 -0.0667
  161POPC   C3A 2360   6.365   8.908   5.532 -0.0415 -0.3254 -0.1624
  161POPC   C4A 2361   6.457   8.743   5.893  0.2474 -0.1764  0.2616
  161POPC   C1B 2362   7.267   9.341   5.009 -0.1856 -0.2146  0.2756
  161POPC   C2B 2363   6.974   9.498   5.188 -0.0847  0.0573  0.0531
  161POPC   C3B 2364   6.512   9.389   5.174 -0.0760  0.1586 -0.2213
  161POPC   C4B 2365   6.296   9.701   5.446 -0.2497 -0.0234  0.2073
  162POPC   NC3 2366   5.339   6.942   3.992 -0.0559 -0.1511  0.2606
  162POPC   PO4 2367   5.122   6.550   3.835  0.1325 -0.0258  0.1965
  162POPC   GL1 2368   5.038   6.573   4.295 -0.1596 -0.1698 -0.3055
  162POPC   GL2 2369   5.199   6.151   4.434  0.2296  0.0733 -0.0610
  162POPC   C1A 2370   5.203   6.783   4.569  0.0804 -0.0168  0.1300
  162POPC   D2A 2371   5.451   6.732   4.904 -0.0372 -0.0504 -0.1075
  162POPC   C3A 2372   5.320   6.412   5.119 -0.0989 -0.1177  0.0694
  162POPC   C4A 2373   5.536   6.026   5.373  0.1369  0.0291  0.2695
  162POPC   C1B 2374   4.955   6.375   4.791 -0.2109 -0.2472  0.3081
  162POPC   C2B 2375   4.706   6.694   4.672 -0.1716  0.0329 -0.0664
  162POPC   C3B 2376   4.535   6.929   4.932 -0.3158  0.0928 -0.2822
  162POPC   C4B 2377   4.326   7.226   5.367 -0.2770  0.1665 -0.1030
  163POPC   NC3 2378   9.027   5.488   3.690  0.2221 -0.0136 -0.0368
  163POPC   PO4 2379   9.246   5.814   3.692 -0.2541 -0.0089  0.1649
  163POPC   GL1 2380   9.234   5.731   4.130  0.1494 -0.3026 -0.1096
  163POPC   GL2 2381   9.399   5.974   4.295  0.1785 -0.0312 -0.0929
  163POPC   C1A 2382   8.996   5.622   4.521 -0.1650 -0.1793  0.0168
  163POPC   D2A 2383   8.819   5.742   4.970 -0.0143 -0.1586  0.0015
  163POPC   C3A 2384   9.007   5.667   5.312 -0.0438  0.0369  0.2032
  163POPC   C4A 2385   9.431   5.499   5.342 -0.1865  0.1384  0.1138
  163POPC   C1B 2386   9.687   5.884   4.600  0.3033 -0.2379  0.0019
  163POPC   C2B 2387   9.883   6.181   4.869 -0.0426  0.2277 -0.1185
  163POPC   C3B 2388  10.210   6.150   5.205  0.1830  0.0706  0.0246
  163POPC   C4B 2389  10.396   5.768   5.423  0.2143  0.0562 -0.2573
  164POPC   NC3 2390   4.861   4.004   3.665 -0.2802  0.1220  0.0970
  164POPC   PO4 2391   5.145   3.752   3.821  0.0082  0.0560 -0.2724
  164POPC   GL1 2392   5.206   3.691   4.222 -0.0275  0.0962  0.3920
  164POPC   GL2 2393   5.124   3.399   4.350 -0.3158 -0.0711 -0.2750
  164POPC   C1A 2394   5.188   3.796   4.632 -0.2916  0.2051 -0.3367
  164POPC   D2A 2395   5.134   3.735   5.034 -0.0055  0.1667 -0.2008
  164POPC   C3A 2396   4.740   4.104   5.233  0.0285 -0.1866  0.1536
  164POPC   C4A 2397   4.516   4.448   5.479  0.0077 -0.1636  0.1221
  164POPC   C1B 2398   5.286   3.349   4.756 -0.3311 -0.1165  0.0562
  164POPC   C2B 2399   5.260   3.229   5.291  0.2790 -0.2241 -0.1397
  164POPC   C3B 2400   5.158   3.310   5.705 -0.4521  0.1501  0.2697
  164POPC   C4B 2401   4.906   3.498   6.075 -0.2766 -0.1488  0.3717
  165POPC   NC3 2402   9.707   9.282   3.102 -0.0953 -0.1545 -0.2681
  165POPC   PO4 2403   9.689   9.368   3.530  0.1445 -0.2487  0.1118
  165POPC   GL1 2404   9.603   9.148   3.893 -0.1479 -0.1961  0.1084
  165POPC   GL2 2405   9.786   9.305   4.197 -0.0942 -0.1761 -0.1447
  165POPC   C1A 2406   9.365   8.931   4.247  0.1223 -0.1667  0.1765
  165POPC   D2A 2407   9.085   8.901   4.635 -0.1479 -0.2351  0.2515
  165POPC   C3A 2408   9.269   8.718   5.002  0.1689  0.1666 -0.1013
  165POPC   C4A 2409   9.445   8.621   5.381 -0.0233  0.0265  0.0834
  165POPC   C1B 2410  10.079   9.320   4.485  0.1703 -0.2823  0.3851
  165POPC   C2B 2411   9.856   9.387   4.915  0.0814  0.1153  0.1726
  165POPC   C3B 2412   9.921   9.427   5.382  0.0102  0.1633  0.3803
  165POPC   C4B 2413  10.297   9.290   5.666 -0.0034 -0.1346 -0.1834
  166POPC   NC3 2414   5.287   5.058   4.112 -0.3068  0.0374  0.0936
  166POPC   PO4 2415   5.017   4.748   4.009  0.0707  0.0679  0.2014
  166POPC   GL1 2416   4.904   4.662   4.382 -0.1429 -0.6452  0.1931
  166POPC   GL2 2417   4.688   4.469   4.534 -0.1280  0.0738 -0.0715
  166POPC   C1A 2418   5.109   4.819   4.730  0.2178  0.0353  0.0564
  166POPC   D2A 2419   5.395   4.638   4.973  0.0340 -0.1860 -0.0317
  166POPC   C3A 2420   5.732   4.860   5.074 -0.2073  0.3699 -0.0573
  166POPC   C4A 2421   5.857   5.125   5.437 -0.0847 -0.2517  0.2524
  166POPC   C1B 2422   4.696   4.559   4.889 -0.2224  0.2079 -0.1869
  166POPC   C2B 2423   4.972   4.678   5.269 -0.0063 -0.0416 -0.1348
  166POPC   C3B 2424   4.927   4.568   5.718 -0.1034 -0.1588  0.0124
  166POPC   C4B 2425   5.051   4.780   6.025 -0.1968  0.0002 -0.1354
  167POPC   NC3 2426   0.008   4.765   3.877  0.0090  0.1091  0.2248
  167POPC   PO4 2427  -0.013   5.235   3.913 -0.0862 -0.3423  0.0685
  167POPC   GL1 2428   0.003   5.260   4.260  0.0333 -0.0207  0.0506
  167POPC   GL2 2429  -0.072   4.919   4.371  0.0174 -0.1048  0.1541
  167POPC   C1A 2430  -0.058   5.323   4.743 -0.0877  0.4868 -0.1441
  167POPC   D2A 2431   0.077   5.268   5.267 -0.1230  0.2131  0.4446
  167POPC   C3A 2432  -0.023   4.846   5.523 -0.0679 -0.0511 -0.1783
  167POPC   C4A 2433  -0.328   4.670   5.669  0.2105 -0.0499 -0.0313
  167POPC   C1B 2434  -0.204   4.843   4.881  0.0549  0.3243  0.0364
  167POPC   C2B 2435  -0.289   4.544   5.133 -0.0424  0.1810 -0.0440
  167POPC   C3B 2436  -0.277   4.201   5.467  0.0683 -0.0462 -0.1911
  167POPC   C4B 2437  -0.247   3.821   5.744 -0.2095 -0.0201 -0.1521
  168POPC   NC3 2438   8.125   2.844   3.753  0.0064  0.0383 -0.1071
  168POPC   PO4 2439   8.421   3.128   3.896 -0.0753 -0.0842  0.0321
  168POPC   GL1 2440   8.503   3.057   4.291 -0.0040 -0.0041  0.2266
  168POPC   GL2 2441   8.328   3.135   4.434 -0.0398  0.0414  0.1663
  168POPC   C1A 2442   8.845   2.982   4.460 -0.0448 -0.0110 -0.5301
  168POPC   D2A 2443   8.976   2.805   4.828 -0.2950 -0.1348  0.0963
  168POPC   C3A 2444   8.847   2.801   5.201 -0.2020 -0.2013 -0.1628
  168POPC   C4A 2445   8.531   2.708   5.526 -0.0730  0.2214 -0.3180
  168POPC   C1B 2446   8.529   3.048   4.868  0.4083  0.0621 -0.1107
  168POPC   C2B 2447   8.309   3.120   5.297 -0.0347  0.1697  0.0608
  168POPC   C3B 2448   7.967   3.156   5.644  0.1985 -0.1747 -0.0388
  168POPC   C4B 2449   7.552   3.113   5.798  0.0940  0.1725 -0.0328
  169POPC   NC3 2450   1.599   4.807   3.396 -0.3576 -0.0292 -0.1613
  169POPC   PO4 2451   1.799   4.965   3.744  0.1702 -0.3753 -0.4084
  169POPC   GL1 2452   1.740   5.003   4.266 -0.0496  0.0240  0.1360
  169POPC   GL2 2453   1.548   4.712   4.326  0.1350 -0.1466 -0.2893
  169POPC   C1A 2454   1.959   4.755   4.596  0.0426 -0.1662 -0.5018
  169POPC   D2A 2455   2.132   4.621   5.032 -0.0866  0.1487  0.1213
  169POPC   C3A 2456   2.402   4.403   5.186 -0.0133  0.2663 -0.0275
  169POPC   C4A 2457   2.536   4.073   5.112 -0.2215 -0.0747  0.0830
  169POPC   C1B 2458   1.537   4.626   4.736  0.0001  0.3196 -0.2011
  169POPC   C2B 2459   1.600   4.497   5.172 -0.4656 -0.0369  0.1877
  169POPC   C3B 2460   1.948   4.527   5.462 -0.1411 -0.0752 -0.1423
  169POPC   C4B 2461   1.852   4.429   5.898  0.0379 -0.2093 -0.1747
  170POPC   NC3 2462   1.147   9.624   3.721  0.2758 -0.0032  0.2229
  170POPC   PO4 2463   0.820   9.486   3.793  0.3452 -0.3649  0.0605
  170POPC   GL1 2464   0.702   9.623   4.119 -0.2272  0.4788  0.0329
  170POPC   GL2 2465   0.887   9.762   4.358 -0.3024 -0.1003  0.1871
  170POPC   C1A 2466   0.775   9.266   4.551  0.2837  0.0510  0.1048
  170POPC   D2A 2467   0.937   9.092   4.980 -0.0922  0.0580  0.1128
  170POPC   C3A 2468   0.733   9.189   5.243 -0.0299 -0.0443  0.0920
  170POPC   C4A 2469   0.635   9.459   5.572 -0.2598  0.0035  0.2248
  170POPC   C1B 2470   0.546  10.041   4.264  0.2566 -0.0945 -0.1255
  170POPC   C2B 2471   0.104  10.097   4.258  0.2267 -0.0448 -0.1085
  170POPC   C3B 2472  -0.224  10.107   4.444 -0.1719 -0.0630  0.2755
  170POPC   C4B 2473  -0.447  10.012   4.857 -0.1549  0.0643 -0.3123
  171POPC   NC3 2474   4.129   9.892   3.842 -0.1742 -0.0659  0.1498
  171POPC   PO4 2475   3.950  10.270   4.034 -0.1228 -0.2124  0.3063
  171POPC   GL1 2476   4.151  10.101   4.401 -0.2002  0.2054 -0.2860
  171POPC   GL2 2477   4.072   9.763   4.598  0.2160  0.2017  0.2067
  171POPC   C1A 2478   4.483  10.306   4.533  0.0494 -0.0764 -0.0913
  171POPC   D2A 2479   4.661  10.616   4.584  0.2080 -0.0410 -0.0676
  171POPC   C3A 2480   4.508  11.007   4.527 -0.0335 -0.1657 -0.1277
  171POPC   C4A 2481   4.438  11.144   5.009 -0.2207 -0.1107  0.0325
  171POPC   C1B 2482   4.504   9.766   4.390  0.0037 -0.0323 -0.1155
  171POPC   C2B 2483   4.982   9.660   4.461 -0.2668  0.1249  0.0010
  171POPC   C3B 2484   5.358   9.646   4.698 -0.3319  0.0313  0.2325
  171POPC   C4B 2485   5.415   9.418   4.983 -0.3446  0.1978 -0.0213
  172POPC   NC3 2486   6.012   6.947   3.294 -0.1790 -0.0077  0.2288
  172POPC   PO4 2487   5.809   7.487   3.404 -0.3757 -0.2754 -0.1516
  172POPC   GL1 2488   5.864   7.656   3.897 -0.1400 -0.1709  0.1451
  172POPC   GL2 2489   5.965   7.916   3.929  0.1434  0.0681  0.0019
  172POPC   C1A 2490   5.725   7.503   4.337  0.1495 -0.1412 -0.0621
  172POPC   D2A 2491   5.471   7.154   4.440 -0.0051  0.1331 -0.2121
  172POPC   C3A 2492   5.344   7.297   4.829 -0.3313  0.3374 -0.1279
  172POPC   C4A 2493   5.311   7.537   5.243  0.1832 -0.1208  0.0485
  172POPC   C1B 2494   6.030   7.892   4.351 -0.2593  0.2521  0.0171
  172POPC   C2B 2495   6.161   7.806   4.732 -0.0954 -0.2965  0.1677
  172POPC   C3B 2496   6.178   7.651   5.112  0.3577  0.1953  0.0773
  172POPC   C4B 2497   6.241   7.620   5.522 -0.1656  0.0675  0.2563
  173POPC   NC3 2498   2.983   2.967   3.643  0.1813  0.1579  0.1819
  173POPC   PO4 2499   2.624   3.270   3.628  0.0406 -0.3921 -0.2290
  173POPC   GL1 2500   2.441   3.512   3.939 -0.0526  0.0212  0.1606
  173POPC   GL2 2501   2.612   3.809   4.009  0.1148 -0.2821 -0.1806
  173POPC   C1A 2502   2.241   3.574   4.305 -0.3959  0.1606 -0.3701
  173POPC   D2A 2503   2.358   3.353   4.862 -0.3959  0.1316  0.1654
  173POPC   C3A 2504   2.583   3.559   5.263  0.0823  0.0032  0.0241
  173POPC   C4A 2505   2.399   3.681   5.656 -0.0518 -0.0196 -0.3978
  173POPC   C1B 2506   2.594   4.195   4.383 -0.2723  0.3524  0.0737
  173POPC   C2B 2507   2.771   4.394   4.827  0.0931  0.2027 -0.2057
  173POPC   C3B 2508   3.024   4.317   5.195  0.1055 -0.0180  0.2413
  173POPC   C4B 2509   3.211   4.272   5.541  0.0569 -0.1123 -0.0240
  174POPC   NC3 2510   7.297   3.781   3.755  0.0749 -0.0019  0.2615
  174POPC   PO4 2511   7.442   3.345   3.803  0.2667  0.0520 -0.0704
  174POPC   GL1 2512   7.306   3.211   4.183 -0.0325 -0.0899 -0.1778
  174POPC   GL2 2513   7.593   3.215   4.407  0.1633  0.0672  0.0762
  174POPC   C1A 2514   7.174   3.170   4.615  0.1841  0.0358 -0.4220
  174POPC   D2A 2515   7.121   3.291   5.039  0.0692 -0.0502  0.0726
  174POPC   C3A 2516   6.870   3.145   5.364  0.1997  0.0454  0.0214
  174POPC   C4A 2517   6.578   3.107   5.675 -0.1300  0.3910  0.1005
  174POPC   C1B 2518   7.572   3.442   4.699 -0.0797 -0.3731  0.1301
  174POPC   C2B 2519   7.763   3.725   5.039 -0.0972 -0.1154  0.0268
  174POPC   C3B 2520   7.944   3.934   5.437 -0.1827  0.2330  0.0785
  174POPC   C4B 2521   8.346   4.161   5.364  0.1077  0.1445  0.1384
  175POPC   NC3 2522   1.970   7.343   3.501 -0.3158  0.0029 -0.1313
  175POPC   PO4 2523   2.343   7.091   3.700  0.1365 -0.1246 -0.1054
  175POPC   GL1 2524   2.177   7.333   4.022  0.2660  0.0515  0.4489
  175POPC   GL2 2525   2.123   7.570   3.897  0.2818  0.0137 -0.2733
  175POPC   C1A 2526   2.218   7.230   4.376  0.0124 -0.0946 -0.3376
  175POPC   D2A 2527   2.085   7.008   4.738  0.1605  0.4516 -0.0053
  175POPC   C3A 2528   1.904   7.203   5.128 -0.0052  0.2893  0.4740
  175POPC   C4A 2529   1.713   7.445   5.501 -0.1890 -0.1749 -0.1328
  175POPC   C1B 2530   2.078   7.707   4.396  0.1634 -0.1180  0.0917
  175POPC   C2B 2531   2.016   7.760   4.877  0.1728 -0.0274  0.0046
  175POPC   C3B 2532   1.964   7.757   5.248 -0.1314 -0.2734  0.0513
  175POPC   C4B 2533   2.126   8.082   5.514  0.1366  0.2959  0.2289
  176POPC   NC3 2534   9.736   1.163   3.811 -0.1040 -0.1176  0.1114
  176POPC   PO4 2535   9.344   1.179   3.686  0.1585 -0.0171 -0.1867
  176POPC   GL1 2536   9.308   1.123   4.150 -0.0383  0.2998  0.2589
  176POPC   GL2 2537   9.309   1.413   4.357 -0.1254 -0.1440  0.2598
  176POPC   C1A 2538   9.210   0.819   4.480  0.1118 -0.1288 -0.0592
  176POPC   D2A 2539   9.224   0.617   4.807  0.0477 -0.0498 -0.0610
  176POPC   C3A 2540   9.501   0.608   5.117  0.0448  0.0568 -0.0356
  176POPC   C4A 2541   9.909   0.654   5.384  0.1921 -0.3275 -0.1082
  176POPC   C1B 2542   9.530   1.195   4.685  0.0378 -0.1892  0.1114
  176POPC   C2B 2543   9.514   1.109   5.188 -0.0592  0.3525  0.1994
  176POPC   C3B 2544   9.815   1.149   5.483 -0.0255 -0.0441 -0.0830
  176POPC   C4B 2545  10.230   1.193   5.629  0.1301 -0.3711  0.2550
  177POPC   NC3 2546   4.864   2.612   3.503  0.0827  0.1567 -0.0926
  177POPC   PO4 2547   4.857   2.192   3.650  0.3428  0.4203  0.0762
  177POPC   GL1 2548   4.725   2.512   3.999 -0.1879 -0.2709  0.1935
  177POPC   GL2 2549   4.958   2.363   4.250 -0.0669  0.1176 -0.0623
  177POPC   C1A 2550   4.473   2.401   4.403  0.0350 -0.2692  0.0496
  177POPC   D2A 2551   4.218   2.278   4.777 -0.3437 -0.2082  0.0268
  177POPC   C3A 2552   4.359   2.222   5.269  0.0660 -0.0537 -0.0168
  177POPC   C4A 2553   4.426   2.318   5.678  0.1269  0.1004 -0.2979
  177POPC   C1B 2554   4.883   2.488   4.704 -0.0524  0.0913  0.0185
  177POPC   C2B 2555   4.800   2.375   5.139  0.2649 -0.2398  0.0082
  177POPC   C3B 2556   4.497   2.718   5.304 -0.2064  0.0430  0.0024
  177POPC   C4B 2557   4.212   2.817   5.607  0.0797  0.2161 -0.0990
  178POPC   NC3 2558   8.448   0.770   3.854  0.0620  0.0190  0.1122
  178POPC   PO4 2559   8.840   0.943   3.705 -0.0959 -0.0424 -0.1834
  178POPC   GL1 2560   8.812   1.120   4.155  0.0995  0.0595 -0.1747
  178POPC   GL2 2561   8.460   1.018   4.275 -0.3335 -0.1868 -0.0581
  178POPC   C1A 2562   8.870   1.163   4.600  0.0961  0.0254 -0.3168
  178POPC   D2A 2563   9.035   1.018   5.068 -0.1506 -0.2637  0.2658
  178POPC   C3A 2564   9.065   1.526   5.376  0.0987  0.1129 -0.0492
  178POPC   C4A 2565   9.026   1.926   5.158 -0.1180 -0.0372 -0.0941
  178POPC   C1B 2566   8.103   1.169   4.502 -0.1909  0.0922  0.2827
  178POPC   C2B 2567   7.836   1.326   4.743  0.2038 -0.0350 -0.0811
  178POPC   C3B 2568   7.928   1.358   5.203 -0.1160  0.1306 -0.2720
  178POPC   C4B 2569   7.992   1.401   5.647  0.3509  0.2277 -0.2614
  179POPC   NC3 2570   7.070   5.241   3.913  0.2155  0.0377  0.1925
  179POPC   PO4 2571   7.422   5.476   3.784 -0.3179  0.1227 -0.1502
  179POPC   GL1 2572   7.603   5.523   4.086  0.1776 -0.0379 -0.1536
  179POPC   GL2 2573   7.771   5.263   4.226  0.2471 -0.2701 -0.0447
  179POPC   C1A 2574   7.595   5.769   4.517  0.0318  0.2900  0.0332
  179POPC   D2A 2575   7.521   5.877   5.028  0.1466 -0.1169 -0.1651
  179POPC   C3A 2576   7.399   6.343   5.156  0.1189 -0.1942  0.1314
  179POPC   C4A 2577   7.342   6.522   5.608 -0.1980 -0.0050 -0.0390
  179POPC   C1B 2578   7.598   5.293   4.622 -0.0049 -0.2000 -0.0387
  179POPC   C2B 2579   7.381   5.334   5.032 -0.2132  0.1639  0.0119
  179POPC   C3B 2580   7.598   5.407   5.394 -0.1237 -0.1496  0.1733
  179POPC   C4B 2581   7.660   5.426   5.770  0.0097  0.0981 -0.1778
  180POPC   NC3 2582   8.371   8.046   3.743  0.1049  0.2743  0.5412
  180POPC   PO4 2583   8.741   8.001   3.946  0.1938 -0.2596  0.2481
  180POPC   GL1 2584   8.879   8.341   4.272  0.2588  0.0894  0.0720
  180POPC   GL2 2585   9.161   8.154   4.354  0.0172  0.0795 -0.1395
  180POPC   C1A 2586   8.754   8.542   4.727 -0.1402 -0.0847  0.1844
  180POPC   D2A 2587   8.744   8.838   5.047 -0.1232 -0.0286  0.3768
  180POPC   C3A 2588   8.991   8.929   5.348 -0.3998 -0.0082  0.1179
  180POPC   C4A 2589   8.909   8.942   5.765  0.1814  0.0234  0.2025
  180POPC   C1B 2590   9.129   8.277   4.783 -0.0848  0.2573  0.0758
  180POPC   C2B 2591   8.964   8.348   5.156 -0.2208 -0.0630 -0.0285
  180POPC   C3B 2592   9.046   8.452   5.500  0.0318 -0.3362 -0.1986
  180POPC   C4B 2593   9.275   8.467   5.888  0.2010 -0.2823 -0.0910
  181POPC   NC3 2594   4.756   6.279   3.985  0.3905 -0.0565 -0.0068
  181POPC   PO4 2595   4.914   5.895   4.029 -0.1225  0.0327 -0.2153
  181POPC   GL1 2596   4.787   5.751   4.429  0.1491 -0.1063 -0.2391
  181POPC   GL2 2597   4.528   5.556   4.646  0.1531 -0.0829  0.0015
  181POPC   C1A 2598   4.806   5.816   4.924  0.0950 -0.0386  0.2858
  181POPC   D2A 2599   4.645   6.002   5.229 -0.1464  0.4552 -0.2397
  181POPC   C3A 2600   4.319   5.801   5.434 -0.1595  0.0599  0.0600
  181POPC   C4A 2601   4.049   5.640   5.383  0.0997  0.0491 -0.0529
  181POPC   C1B 2602   4.530   5.416   5.130  0.0182 -0.1892 -0.0505
  181POPC   C2B 2603   4.450   5.350   5.622  0.1524 -0.0499 -0.2266
  181POPC   C3B 2604   4.626   5.414   6.051 -0.0491 -0.0312 -0.0076
  181POPC   C4B 2605   4.540   5.600   6.386 -0.0077  0.0802  0.0869
  182POPC   NC3 2606   4.611   8.279   3.749 -0.0696  0.0456 -0.2051
  182POPC   PO4 2607   4.917   7.906   3.942 -0.0649  0.3290  0.0059
  182POPC   GL1 2608   5.310   8.093   4.219 -0.3322 -0.8231 -0.1576
  182POPC   GL2 2609   5.443   7.926   4.268 -0.2802 -0.1500  0.1692
  182POPC   C1A 2610   5.275   8.153   4.725  0.0131  0.1181 -0.1038
  182POPC   D2A 2611   5.310   8.034   5.303 -0.0526 -0.0214  0.1677
  182POPC   C3A 2612   4.936   7.826   5.566  0.1900  0.0975  0.0177
  182POPC   C4A 2613   4.653   7.869   5.821 -0.1511  0.2006 -0.1617
  182POPC   C1B 2614   5.637   7.753   4.785 -0.1060  0.1833  0.1438
  182POPC   C2B 2615   5.713   7.804   5.293  0.0427  0.2344 -0.1055
  182POPC   C3B 2616   5.572   7.743   5.717  0.0985  0.0202  0.2229
  182POPC   C4B 2617   5.227   7.652   5.995 -0.0056 -0.0678 -0.1113
  183POPC   NC3 2618   3.758   8.698   4.141  0.2162 -0.1569 -0.2814
  183POPC   PO4 2619   3.620   8.389   3.758 -0.0222  0.1107 -0.1993
  183POPC   GL1 2620   3.509   8.186   4.125  0.2184  0.1168  0.0182
  183POPC   GL2 2621   3.232   7.927   4.108 -0.1862  0.1955 -0.1838
  183POPC   C1A 2622   3.451   7.969   4.518 -0.0691  0.2321 -0.2471
  183POPC   D2A 2623   3.306   7.586   4.671  0.1634 -0.0452  0.1105
  183POPC   C3A 2624   3.387   7.357   5.051 -0.0848 -0.1929 -0.2836
  183POPC   C4A 2625   3.426   7.061   5.341 -0.0072  0.2079  0.1216
  183POPC   C1B 2626   2.920   7.877   4.438 -0.0662  0.0425  0.1007
  183POPC   C2B 2627   2.585   7.710   4.600 -0.2490 -0.2310  0.1082
  183POPC   C3B 2628   2.460   7.431   4.908 -0.1298  0.3013 -0.1689
  183POPC   C4B 2629   2.404   7.495   5.310  0.0214  0.0085 -0.3029
  184POPC   NC3 2630   2.368   7.757   3.376  0.4218  0.2382  0.0662
  184POPC   PO4 2631   1.866   7.883   3.512  0.2099 -0.1784 -0.2866
  184POPC   GL1 2632   1.681   7.972   3.972 -0.2670 -0.1715 -0.1696
  184POPC   GL2 2633   1.474   8.249   4.058  0.0520 -0.0042 -0.1127
  184POPC   C1A 2634   1.350   7.849   4.325 -0.0201  0.2788  0.0086
  184POPC   D2A 2635   1.089   7.708   4.784 -0.0236 -0.2175  0.1398
  184POPC   C3A 2636   1.003   7.325   4.860 -0.0240 -0.0278  0.0949
  184POPC   C4A 2637   1.052   6.927   5.194 -0.2033  0.2235 -0.3892
  184POPC   C1B 2638   1.356   8.326   4.446  0.1123 -0.1646 -0.1393
  184POPC   C2B 2639   1.199   8.176   4.895 -0.0333 -0.2594 -0.0285
  184POPC   C3B 2640   1.350   8.242   5.359  0.0141  0.1789  0.1842
  184POPC   C4B 2641   1.155   8.237   5.787  0.0262 -0.0354 -0.1209
  185POPC   NC3 2642   7.458   6.830   3.486 -0.1763  0.3838  0.1318
  185POPC   PO4 2643   7.427   7.219   3.623 -0.0591 -0.5470 -0.2209
  185POPC   GL1 2644   7.319   7.353   4.055 -0.0334 -0.1332  0.0720
  185POPC   GL2 2645   7.389   7.140   4.221 -0.2806 -0.0372  0.3615
  185POPC   C1A 2646   7.568   7.594   4.358 -0.1292  0.1033 -0.0719
  185POPC   D2A 2647   7.729   7.644   4.741 -0.3006 -0.0453 -0.0837
  185POPC   C3A 2648   7.584   7.703   5.087  0.1917  0.0787 -0.2041
  185POPC   C4A 2649   7.747   7.697   5.605 -0.0582  0.1250  0.0904
  185POPC   C1B 2650   7.041   7.116   4.480 -0.3424  0.1326 -0.0453
  185POPC   C2B 2651   6.662   6.982   4.632  0.2979  0.1437  0.1320
  185POPC   C3B 2652   6.315   7.021   4.911  0.1086 -0.0231 -0.0183
  185POPC   C4B 2653   6.133   6.857   5.277 -0.2102  0.0321  0.0347
  186POPC   NC3 2654   8.277   6.262   3.623  0.4550 -0.1191  0.0289
  186POPC   PO4 2655   7.789   6.360   3.752 -0.0201 -0.1672  0.1626
  186POPC   GL1 2656   7.616   6.317   4.157  0.1014 -0.0523 -0.1854
  186POPC   GL2 2657   7.779   6.516   4.296 -0.2364 -0.0391 -0.1147
  186POPC   C1A 2658   7.366   6.249   4.617  0.3500  0.1116  0.3224
  186POPC   D2A 2659   7.028   6.299   4.842  0.0655  0.2833 -0.1193
  186POPC   C3A 2660   6.938   6.132   5.374  0.1232 -0.2072  0.1211
  186POPC   C4A 2661   7.088   6.202   5.864 -0.1859  0.1369  0.4643
  186POPC   C1B 2662   7.926   6.168   4.624  0.2271  0.0340 -0.2642
  186POPC   C2B 2663   7.963   6.257   5.065 -0.0722 -0.0652 -0.6117
  186POPC   C3B 2664   7.777   6.270   5.490  0.1675 -0.1123 -0.2750
  186POPC   C4B 2665   7.646   6.062   5.842  0.2181  0.0862  0.0624
  187POPC   NC3 2666   0.408   0.779   3.219 -0.1241 -0.1517 -0.0584
  187POPC   PO4 2667   0.613   1.029   3.489  0.3368 -0.1675 -0.2455
  187POPC   GL1 2668   0.468   0.671   3.746 -0.1783  0.0045 -0.0931
  187POPC   GL2 2669   0.771   0.576   3.893 -0.2759  0.2219  0.0653
  187POPC   C1A 2670   0.454   0.705   4.171 -0.1444  0.0318  0.2086
  187POPC   D2A 2671   0.282   0.894   4.573  0.3303 -0.2023  0.1496
  187POPC   C3A 2672   0.503   0.861   4.834  0.1807  0.2119 -0.0028
  187POPC   C4A 2673   0.739   0.682   5.133 -0.1673  0.2070  0.2654
  187POPC   C1B 2674   0.931   0.946   4.224  0.1801  0.1970 -0.1663
  187POPC   C2B 2675   1.227   1.097   4.470  0.0073 -0.1070  0.1205
  187POPC   C3B 2676   1.533   1.240   4.701  0.1800 -0.0647  0.0389
  187POPC   C4B 2677   1.759   1.177   4.961 -0.0426  0.1237  0.0307
  188POPC   NC3 2678   8.023   1.858   3.806  0.1129 -0.0660 -0.0193
  188POPC   PO4 2679   7.896   2.259   3.779 -0.1125 -0.0056  0.1476
  188POPC   GL1 2680   7.936   2.469   4.083  0.2864 -0.2656 -0.0986
  188POPC   GL2 2681   8.035   2.787   4.256  0.2891 -0.2802 -0.1351
  188POPC   C1A 2682   8.099   2.322   4.558  0.1213  0.2179  0.0236
  188POPC   D2A 2683   8.220   2.209   4.852  0.1929  0.0675  0.0930
  188POPC   C3A 2684   8.037   2.171   5.249 -0.0799 -0.0441  0.0397
  188POPC   C4A 2685   8.113   1.891   5.541 -0.0165  0.1743 -0.2587
  188POPC   C1B 2686   8.074   2.833   4.724  0.2391 -0.0350 -0.1981
  188POPC   C2B 2687   8.171   2.606   5.116 -0.1435 -0.5151 -0.0610
  188POPC   C3B 2688   7.918   2.639   5.555 -0.0087  0.1027  0.1956
  188POPC   C4B 2689   7.922   2.784   5.974 -0.0417  0.1973  0.0423
  189POPC   NC3 2690   9.448   7.884   3.747 -0.2868  0.0691 -0.0921
  189POPC   PO4 2691   9.708   8.309   3.705 -0.0411 -0.0591  0.2453
  189POPC   GL1 2692   9.629   8.499   4.064 -0.2581  0.2942 -0.1862
  189POPC   GL2 2693   9.821   8.804   4.206 -0.0845  0.0054 -0.0509
  189POPC   C1A 2694   9.430   8.514   4.472  0.2139  0.0171  0.0916
  189POPC   D2A 2695   9.647   8.450   4.862 -0.1145  0.0817 -0.1504
  189POPC   C3A 2696   9.442   8.186   5.181  0.0239 -0.2451  0.2655
  189POPC   C4A 2697   9.457   7.644   5.306  0.0980 -0.2486  0.0030
  189POPC   C1B 2698   9.797   8.913   4.600  0.1091  0.0733  0.4498
  189POPC   C2B 2699   9.812   8.900   5.159  0.2427 -0.0334 -0.0751
  189POPC   C3B 2700   9.935   8.916   5.579  0.1305  0.2354 -0.0673
  189POPC   C4B 2701   9.770   8.639   5.865  0.0639 -0.0580 -0.2246
  190POPC   NC3 2702   4.446   4.539   3.579  0.0731 -0.0828 -0.0396
  190POPC   PO4 2703   4.733   4.330   3.980  0.1451 -0.1694  0.3911
  190POPC   GL1 2704   4.859   4.066   4.219  0.2228 -0.1614  0.0719
  190POPC   GL2 2705   4.522   4.059   4.347 -0.1121  0.0561  0.0793
  190POPC   C1A 2706   4.743   3.616   4.475  0.1173 -0.2243  0.1345
  190POPC   D2A 2707   4.741   3.363   4.789 -0.1076 -0.2706 -0.1402
  190POPC   C3A 2708   4.817   3.414   5.106 -0.2364 -0.1335 -0.2134
  190POPC   C4A 2709   4.824   3.637   5.456  0.2075 -0.2107  0.2483
  190POPC   C1B 2710   4.331   4.132   4.663  0.0423  0.0915 -0.0334
  190POPC   C2B 2711   4.271   4.146   5.067  0.1030 -0.0734  0.0908
  190POPC   C3B 2712   3.999   4.322   5.370 -0.0750  0.3088 -0.0198
  190POPC   C4B 2713   3.807   4.326   5.694 -0.2355 -0.1526 -0.2341
  191POPC   NC3 2714   6.518   9.062   3.366  0.0324  0.2038 -0.0411
  191POPC   PO4 2715   6.613   8.718   3.740 -0.3062  0.0726  0.1902
  191POPC   GL1 2716   6.364   8.444   4.063  0.0282 -0.1085  0.0691
  191POPC   GL2 2717   5.995   8.463   3.999  0.0185  0.3005  0.0911
  191POPC   C1A 2718   6.389   8.235   4.526 -0.2649  0.1351 -0.1147
  191POPC   D2A 2719   6.452   8.296   4.949 -0.0269 -0.0361 -0.2845
  191POPC   C3A 2720   6.519   7.998   5.195  0.5170 -0.3858  0.1265
  191POPC   C4A 2721   6.688   7.837   5.561 -0.1030  0.0066 -0.3058
  191POPC   C1B 2722   5.838   8.369   4.334  0.0204  0.0872  0.0606
  191POPC   C2B 2723   5.797   8.234   4.672  0.1085 -0.0411  0.1043
  191POPC   C3B 2724   6.017   8.150   5.125  0.2762  0.0382  0.0646
  191POPC   C4B 2725   6.197   8.431   5.399 -0.3236  0.1100 -0.0559
  192POPC   NC3 2726   4.477   5.370   4.079 -0.1823 -0.1989  0.2385
  192POPC   PO4 2727   4.902   5.321   3.941 -0.1309 -0.0168  0.2284
  192POPC   GL1 2728   4.817   5.181   4.345 -0.0335  0.0379  0.2518
  192POPC   GL2 2729   4.653   5.096   4.454  0.1071 -0.0142 -0.0580
  192POPC   C1A 2730   4.973   5.296   4.785 -0.1490 -0.2230  0.0103
  192POPC   D2A 2731   5.019   5.233   5.248 -0.2660  0.1628 -0.1463
  192POPC   C3A 2732   5.310   5.061   5.428  0.3288 -0.1041 -0.1641
  192POPC   C4A 2733   5.480   5.096   5.826 -0.0295 -0.4769  0.2841
  192POPC   C1B 2734   4.583   5.017   4.869 -0.0634  0.1587 -0.0980
  192POPC   C2B 2735   4.596   4.950   5.326  0.2961  0.3270 -0.1130
  192POPC   C3B 2736   4.530   4.833   5.811  0.0407 -0.0633  0.2337
  192POPC   C4B 2737   4.667   4.975   6.249 -0.0198  0.1811 -0.0332
  193POPC   NC3 2738   5.751   7.971   3.206 -0.0759  0.1176 -0.0576
  193POPC   PO4 2739   5.683   8.218   3.675  0.1571  0.0085  0.2795
  193POPC   GL1 2740   5.492   8.599   3.970 -0.2598 -0.0999 -0.3719
  193POPC   GL2 2741   5.284   8.603   4.208 -0.2368  0.1377  0.2300
  193POPC   C1A 2742   5.720   8.883   4.150 -0.0921  0.1404  0.1376
  193POPC   D2A 2743   6.013   9.143   4.324 -0.0171  0.0864  0.2722
  193POPC   C3A 2744   6.272   9.451   4.260  0.1195  0.1141 -0.0311
  193POPC   C4A 2745   6.383   9.867   4.311  0.1944  0.0606  0.2577
  193POPC   C1B 2746   5.525   8.648   4.646 -0.0324 -0.0413  0.0442
  193POPC   C2B 2747   5.362   8.922   5.033  0.2246  0.1449 -0.1697
  193POPC   C3B 2748   5.467   9.105   5.446 -0.0562  0.0788  0.2005
  193POPC   C4B 2749   5.446   9.206   5.894  0.3788  0.0278  0.0418
  194POPC   NC3 2750   9.187   9.290   3.742 -0.0606  0.0068 -0.2215
  194POPC   PO4 2751   9.242   9.683   3.566 -0.1100  0.0921 -0.3980
  194POPC   GL1 2752   9.241   9.641   4.077 -0.3473 -0.1986 -0.1690
  194POPC   GL2 2753   9.314   9.476   4.271  0.2015 -0.0923 -0.3120
  194POPC   C1A 2754   9.281   9.855   4.541  0.1788  0.3235 -0.0386
  194POPC   D2A 2755   9.221   9.724   4.956  0.4055  0.3280  0.1167
  194POPC   C3A 2756   8.823   9.809   5.132  0.1123 -0.1018  0.3120
  194POPC   C4A 2757   8.644   9.978   5.540 -0.1435 -0.0355  0.2279
  194POPC   C1B 2758   9.423   9.213   4.723  0.1710  0.0668 -0.2101
  194POPC   C2B 2759   9.466   9.225   5.247 -0.0535 -0.0577 -0.1598
  194POPC   C3B 2760   9.145   9.438   5.569 -0.0320 -0.1471 -0.1881
  194POPC   C4B 2761   9.048   9.838   5.791 -0.0920  0.0588  0.3881
  195POPC   NC3 2762   2.798   4.729   3.626 -0.1188 -0.1914  0.0362
  195POPC   PO4 2763   3.195   4.744   3.852  0.0716 -0.1466  0.0845
  195POPC   GL1 2764   3.489   4.732   4.149  0.1543 -0.0768 -0.1144
  195POPC   GL2 2765   3.488   4.341   4.057  0.3010 -0.0236  0.1125
  195POPC   C1A 2766   3.669   4.859   4.555 -0.1534 -0.1877 -0.4815
  195POPC   D2A 2767   3.713   4.936   5.033 -0.1739  0.1577 -0.1913
  195POPC   C3A 2768   3.312   5.213   5.275  0.0395 -0.1389  0.0012
  195POPC   C4A 2769   2.932   5.212   5.535  0.0557 -0.0045 -0.3932
  195POPC   C1B 2770   3.431   4.400   4.556  0.3078 -0.2124  0.1729
  195POPC   C2B 2771   3.464   4.521   5.065  0.0590  0.2308 -0.3061
  195POPC   C3B 2772   3.550   4.684   5.429  0.1941  0.0912  0.4491
  195POPC   C4B 2773   3.375   4.998   5.758 -0.0260 -0.0447  0.1112
  196POPC   NC3 2774   3.905   1.238   4.046 -0.2102 -0.2590  0.1196
  196POPC   PO4 2775   3.735   1.631   3.914  0.0305  0.0070 -0.0231
  196POPC   GL1 2776   3.792   1.770   4.306 -0.1579 -0.2444 -0.0506
  196POPC   GL2 2777   4.078   1.965   4.270  0.2203 -0.1214 -0.2222
  196POPC   C1A 2778   3.913   1.792   4.709  0.1578  0.3167  0.1102
  196POPC   D2A 2779   4.225   1.811   5.020  0.0237  0.1206  0.0785
  196POPC   C3A 2780   4.251   1.745   5.426  0.1782 -0.0148 -0.3402
  196POPC   C4A 2781   4.141   1.701   5.939  0.0566  0.1692  0.1228
  196POPC   C1B 2782   4.341   1.848   4.480 -0.2272  0.1978 -0.2755
  196POPC   C2B 2783   4.651   2.033   4.824 -0.2100  0.2780 -0.0037
  196POPC   C3B 2784   4.700   1.801   5.231 -0.0304 -0.2857  0.2997
  196POPC   C4B 2785   5.062   1.589   5.372  0.2218  0.1453  0.1983
  197POPC   NC3 2786   2.014   9.786   3.771 -0.1340 -0.3244 -0.1675
  197POPC   PO4 2787   1.715   9.351   3.731 -0.0852 -0.1625  0.1606
  197POPC   GL1 2788   1.634   9.357   4.137 -0.1269  0.2279  0.1314
  197POPC   GL2 2789   1.378   9.471   4.180  0.1432 -0.1354  0.0254
  197POPC   C1A 2790   1.759   9.338   4.457  0.0577 -0.0169  0.2606
  197POPC   D2A 2791   2.010   9.265   4.878  0.0089 -0.1922 -0.4711
  197POPC   C3A 2792   1.726   9.154   5.241  0.0698  0.1605 -0.3436
  197POPC   C4A 2793   1.638   9.208   5.664  0.1647  0.0700 -0.2547
  197POPC   C1B 2794   1.269   9.551   4.592  0.2782 -0.2560  0.0297
  197POPC   C2B 2795   0.961   9.572   4.942  0.0443  0.2989 -0.1307
  197POPC   C3B 2796   0.877   9.816   5.341  0.1427 -0.2171  0.2499
  197POPC   C4B 2797   0.601   9.975   5.640 -0.0403 -0.1065  0.0775
  198POPC   NC3 2798   3.182   5.891   3.978 -0.0773 -0.0294 -0.1315
  198POPC   PO4 2799   3.608   5.809   3.949  0.1364  0.1073 -0.1550
  198POPC   GL1 2800   3.700   5.913   4.303 -0.0378 -0.0754 -0.0822
  198POPC   GL2 2801   3.516   6.034   4.424 -0.0404  0.3924 -0.0273
  198POPC   C1A 2802   3.763   5.752   4.740 -0.1122 -0.3521 -0.3606
  198POPC   D2A 2803   3.612   5.613   5.109  0.1094 -0.0323 -0.2256
  198POPC   C3A 2804   3.697   5.957   5.558  0.2434  0.0081  0.2166
  198POPC   C4A 2805   3.430   6.015   5.957  0.1893  0.0843 -0.0252
  198POPC   C1B 2806   3.263   5.897   4.722  0.2834 -0.0960 -0.2498
  198POPC   C2B 2807   2.918   6.079   4.949 -0.0471  0.0514 -0.1432
  198POPC   C3B 2808   2.772   6.087   5.355 -0.0967 -0.0675  0.0494
  198POPC   C4B 2809   2.499   6.176   5.741  0.0290 -0.0226 -0.1429
  199POPC   NC3 2810   2.888   8.415   4.014 -0.1620  0.0347  0.1985
  199POPC   PO4 2811   3.250   8.662   4.020 -0.0919  0.0121 -0.2056
  199POPC   GL1 2812   3.288   8.657   4.357  0.1607 -0.0468 -0.1609
  199POPC   GL2 2813   3.091   8.318   4.500 -0.3208 -0.0215 -0.0512
  199POPC   C1A 2814   3.481   8.406   4.791 -0.0489 -0.1738  0.2422
  199POPC   D2A 2815   3.556   8.353   5.115 -0.0073  0.0994  0.1194
  199POPC   C3A 2816   3.887   8.048   5.273  0.0864 -0.3608 -0.1534
  199POPC   C4A 2817   4.091   7.644   5.082 -0.2867  0.2752  0.0918
  199POPC   C1B 2818   3.141   7.978   4.905 -0.0670 -0.0606 -0.2907
  199POPC   C2B 2819   2.925   7.912   5.384 -0.1606  0.3330  0.1063
  199POPC   C3B 2820   2.524   7.986   5.765 -0.1172 -0.0216  0.2162
  199POPC   C4B 2821   2.123   7.607   5.746  0.0457 -0.2331 -0.1037
  200POPC   NC3 2822   0.513   4.599   3.276  0.2018  0.0795 -0.2857
  200POPC   PO4 2823   0.355   4.398   3.745  0.2657 -0.3508  0.2300
  200POPC   GL1 2824   0.546   4.563   4.247  0.0667  0.0483  0.0939
  200POPC   GL2 2825   0.884   4.460   4.288 -0.2456  0.1742 -0.1324
  200POPC   C1A 2826   0.292   4.697   4.625 -0.0090  0.0202  0.0650
  200POPC   D2A 2827   0.324   4.745   5.027 -0.0609  0.3479 -0.1310
  200POPC   C3A 2828   0.203   4.444   5.302  0.2189  0.0970  0.0939
  200POPC   C4A 2829   0.408   4.165   5.613  0.0407 -0.1009 -0.2074
  200POPC   C1B 2830   0.824   4.670   4.702  0.1380 -0.1045  0.2309
  200POPC   C2B 2831   1.115   4.733   5.023  0.2799  0.0276  0.1138
  200POPC   C3B 2832   1.306   4.885   5.351 -0.2800  0.2482 -0.1942
  200POPC   C4B 2833   1.602   4.802   5.667  0.0603 -0.0708 -0.1641
  201POPC   NC3 2834   3.012   9.065   4.203  0.1472 -0.0833 -0.1380
  201POPC   PO4 2835   3.130   9.405   4.461 -0.0654 -0.0682 -0.0488
  201POPC   GL1 2836   3.039   9.135   4.785 -0.0273 -0.2734 -0.2600
  201POPC   GL2 2837   3.142   9.167   5.133 -0.0672  0.1794  0.1253
  201POPC   C1A 2838   3.107   8.737   4.955  0.3395  0.2563 -0.4417
  201POPC   D2A 2839   2.999   8.492   5.195  0.0249  0.3566 -0.5013
  201POPC   C3A 2840   2.699   8.297   5.049 -0.0088 -0.2750 -0.0169
  201POPC   C4A 2841   2.455   7.949   5.160  0.1843 -0.0744  0.1249
  201POPC   C1B 2842   3.296   8.860   5.437  0.2966  0.0465  0.2447
  201POPC   C2B 2843   3.056   8.779   5.774  0.1582 -0.4479 -0.1291
  201POPC   C3B 2844   3.151   8.489   5.963  0.1091  0.2316 -0.0184
  201POPC   C4B 2845   3.484   8.212   6.136  0.2423  0.1346  0.0044
  202POPC   NC3 2846   7.746   7.587   3.394 -0.5610 -0.1657  0.0847
  202POPC   PO4 2847   7.520   7.786   3.643  0.2380 -0.3398 -0.3011
  202POPC   GL1 2848   7.374   7.977   4.143 -0.0256 -0.0046  0.0232
  202POPC   GL2 2849   7.444   8.335   4.254  0.3753  0.1127 -0.2798
  202POPC   C1A 2850   7.345   8.013   4.623 -0.0387  0.0542 -0.1638
  202POPC   D2A 2851   7.332   8.183   5.057  0.0340 -0.3212 -0.3394
  202POPC   C3A 2852   7.678   8.175   5.465  0.0595  0.2447 -0.3643
  202POPC   C4A 2853   7.882   8.192   5.855  0.0111  0.3572 -0.0367
  202POPC   C1B 2854   7.113   8.477   4.578 -0.1765 -0.0391  0.2145
  202POPC   C2B 2855   6.667   8.663   4.629 -0.1038 -0.2279 -0.0507
  202POPC   C3B 2856   6.244   8.726   4.537  0.0816 -0.3287  0.0704
  202POPC   C4B 2857   6.007   8.629   4.876  0.1291  0.0789  0.5153
  203POPC   NC3 2858   1.256   2.294   3.801  0.0019  0.2382 -0.0278
  203POPC   PO4 2859   0.680   2.282   3.839  0.2071  0.3202 -0.1831
  203POPC   GL1 2860   0.466   2.067   4.104  0.1557 -0.1235 -0.0510
  203POPC   GL2 2861   0.058   2.197   4.152  0.2425  0.0321  0.0437
  203POPC   C1A 2862   0.459   1.940   4.495  0.0311  0.1524 -0.4419
  203POPC   D2A 2863   0.673   1.781   4.861  0.2418  0.3118  0.0818
  203POPC   C3A 2864   0.905   1.940   5.181 -0.1945  0.2503  0.0846
  203POPC   C4A 2865   1.110   2.240   5.254  0.1317 -0.1286  0.2226
  203POPC   C1B 2866  -0.053   2.285   4.585 -0.0424 -0.3365 -0.2456
  203POPC   C2B 2867   0.097   2.519   5.042 -0.0834 -0.1770  0.1438
  203POPC   C3B 2868   0.013   2.906   5.225 -0.0165  0.0859 -0.2476
  203POPC   C4B 2869  -0.415   2.995   5.285  0.0269 -0.0462 -0.1894
  204POPC   NC3 2870   8.402  10.063   3.894  0.0191  0.1133  0.1264
  204POPC   PO4 2871   8.601  10.512   3.730  0.0837 -0.2452 -0.0176
  204POPC   GL1 2872   8.838  10.583   4.047  0.1202 -0.2447 -0.1756
  204POPC   GL2 2873   8.756  10.841   4.261 -0.3211 -0.2256  0.1489
  204POPC   C1A 2874   9.065  10.526   4.448 -0.0243 -0.3718 -0.1193
  204POPC   D2A 2875   9.403  10.368   4.691 -0.2430  0.0959 -0.0719
  204POPC   C3A 2876   9.471  10.356   5.070 -0.1310 -0.0450 -0.1496
  204POPC   C4A 2877   9.650  10.441   5.392 -0.2947 -0.2019 -0.2949
  204POPC   C1B 2878   8.747  10.928   4.721 -0.2039  0.1669  0.0634
  204POPC   C2B 2879   8.766  10.850   5.183  0.0804  0.0235  0.2129
  204POPC   C3B 2880   8.445  10.912   5.468 -0.1748 -0.0131  0.1892
  204POPC   C4B 2881   8.258  10.997   5.862  0.1436 -0.0753  0.1548
  205POPC   NC3 2882   0.009   6.850   3.900 -0.4158  0.1532  0.0728
  205POPC   PO4 2883   0.011   7.139   4.164 -0.1411 -0.0387  0.0814
  205POPC   GL1 2884   0.127   7.134   4.593  0.0875 -0.2717 -0.1693
  205POPC   GL2 2885   0.059   7.440   4.761 -0.1395  0.3630 -0.0040
  205POPC   C1A 2886   0.069   7.084   5.107 -0.0282 -0.0489 -0.3045
  205POPC   D2A 2887   0.158   7.090   5.522 -0.2112  0.0038  0.0565
  205POPC   C3A 2888   0.463   7.360   5.769  0.2262 -0.2325 -0.1098
  205POPC   C4A 2889   0.736   7.523   5.998  0.3996  0.1494 -0.2802
  205POPC   C1B 2890   0.083   7.903   4.961  0.1310  0.0462 -0.1089
  205POPC   C2B 2891   0.264   8.125   5.245 -0.3174 -0.1987  0.2501
  205POPC   C3B 2892   0.216   8.229   5.698  0.0473  0.1250  0.2259
  205POPC   C4B 2893  -0.064   8.351   6.037  0.3255 -0.1514 -0.1695
  206POPC   NC3 2894   5.089   0.555   3.448  0.0504  0.1192 -0.1529
  206POPC   PO4 2895   5.285   0.157   3.696  0.0873  0.0452 -0.0495
  206POPC   GL1 2896   5.308   0.376   4.003 -0.1662 -0.0028  0.0249
  206POPC   GL2 2897   5.565   0.523   4.125 -0.0409  0.2149 -0.3374
  206POPC   C1A 2898   5.148   0.616   4.426  0.1226  0.3693 -0.0369
  206POPC   D2A 2899   5.060   0.470   4.856 -0.0093 -0.4014 -0.1251
  206POPC   C3A 2900   5.312   0.196   5.108  0.2466 -0.0754  0.0225
  206POPC   C4A 2901   5.594  -0.085   5.409 -0.0268  0.0804 -0.0204
  206POPC   C1B 2902   5.607   0.871   4.352 -0.1568 -0.0096 -0.0607
  206POPC   C2B 2903   5.889   0.834   4.705  0.1732 -0.0386 -0.0059
  206POPC   C3B 2904   5.975   1.052   5.003  0.0802  0.3357 -0.2548
  206POPC   C4B 2905   5.954   1.263   5.179 -0.2424 -0.1311 -0.4508
  207POPC   NC3 2906   0.904   1.366   3.711 -0.2100 -0.3332 -0.0219
  207POPC   PO4 2907   1.106   1.765   3.586 -0.0941 -0.0443  0.1490
  207POPC   GL1 2908   0.980   1.894   3.992 -0.3730 -0.1707 -0.1704
  207POPC   GL2 2909   0.768   1.639   4.177  0.3646  0.0569  0.0399
  207POPC   C1A 2910   0.909   2.081   4.397  0.3171  0.3307 -0.0193
  207POPC   D2A 2911   1.130   2.282   4.717  0.1100 -0.2572 -0.2778
  207POPC   C3A 2912   1.462   2.004   4.923 -0.3033  0.1976 -0.1084
  207POPC   C4A 2913   1.732   1.696   4.804  0.4514  0.2784 -0.1012
  207POPC   C1B 2914   0.684   1.300   4.505 -0.1199  0.2359 -0.0276
  207POPC   C2B 2915   0.743   1.311   4.980 -0.3359  0.0630 -0.1149
  207POPC   C3B 2916   0.683   1.477   5.361  0.1870 -0.1922  0.1309
  207POPC   C4B 2917   0.304   1.594   5.708  0.0392 -0.1490 -0.1694
  208POPC   NC3 2918   1.169  10.218   3.403  0.1903 -0.2693  0.0925
  208POPC   PO4 2919   1.141  10.602   3.636  0.0895  0.1031 -0.1778
  208POPC   GL1 2920   1.332  10.689   4.046 -0.1781 -0.1365  0.2809
  208POPC   GL2 2921   1.587  10.928   3.802  0.0893  0.2337  0.0439
  208POPC   C1A 2922   1.246  10.791   4.373 -0.0556 -0.1821  0.0026
  208POPC   D2A 2923   0.983  10.957   4.706  0.3704 -0.1433 -0.1113
  208POPC   C3A 2924   1.166  11.192   5.063 -0.0215  0.0945 -0.1308
  208POPC   C4A 2925   0.971  11.301   5.505  0.0716  0.2959 -0.1688
  208POPC   C1B 2926   1.631  11.318   4.017  0.3654 -0.0711 -0.3902
  208POPC   C2B 2927   1.669  11.684   4.277 -0.2628  0.1671 -0.1066
  208POPC   C3B 2928   2.013  11.798   4.403  0.1052  0.1129  0.0799
  208POPC   C4B 2929   2.468  11.812   4.458  0.2408 -0.2684  0.1863
  209POPC   NC3 2930   9.703   5.933   3.932  0.1468 -0.1728  0.1923
  209POPC   PO4 2931   9.947   6.156   3.699 -0.1511 -0.4524 -0.0260
  209POPC   GL1 2932  10.190   6.349   4.059  0.2025 -0.2240  0.2097
  209POPC   GL2 2933  10.528   6.338   4.197  0.2646 -0.3450 -0.0759
  209POPC   C1A 2934  10.035   6.561   4.402  0.3502 -0.0341  0.0076
  209POPC   D2A 2935   9.980   6.760   4.825 -0.0129 -0.1802 -0.0626
  209POPC   C3A 2936   9.898   6.583   5.275  0.4279  0.1550 -0.1239
  209POPC   C4A 2937   9.936   6.777   5.689 -0.1293 -0.0723 -0.3345
  209POPC   C1B 2938  10.798   6.168   4.542  0.1163 -0.0398 -0.0232
  209POPC   C2B 2939  11.108   5.989   4.640 -0.0389  0.0487  0.0906
  209POPC   C3B 2940  11.184   5.996   5.036 -0.3628  0.1014 -0.0905
  209POPC   C4B 2941  11.199   6.014   5.452  0.2089  0.1762 -0.0969
  210POPC   NC3 2942   5.303   1.928   3.875  0.2170 -0.0141 -0.2992
  210POPC   PO4 2943   5.316   1.477   3.699 -0.1270 -0.0443 -0.0787
  210POPC   GL1 2944   5.417   1.535   4.115 -0.1072  0.0120 -0.0854
  210POPC   GL2 2945   5.620   1.414   4.261 -0.0277  0.2210  0.1460
  210POPC   C1A 2946   5.400   1.663   4.579 -0.1710  0.0294  0.1829
  210POPC   D2A 2947   5.440   1.516   5.024  0.2475 -0.2802  0.4048
  210POPC   C3A 2948   5.676   1.671   5.283  0.0705 -0.1859  0.1167
  210POPC   C4A 2949   5.939   1.683   5.632 -0.0019  0.0880  0.4181
  210POPC   C1B 2950   5.887   1.377   4.502 -0.0117 -0.0162 -0.1135
  210POPC   C2B 2951   5.895   1.572   4.849  0.1413 -0.1850 -0.0407
  210POPC   C3B 2952   6.114   1.970   5.115  0.1414 -0.0589  0.0259
  210POPC   C4B 2953   5.841   2.116   5.438  0.3681 -0.3231 -0.2465
  211POPC   NC3 2954   8.314   3.495   3.635 -0.4428 -0.2658  0.2486
  211POPC   PO4 2955   8.646   3.691   3.744 -0.1205 -0.2458 -0.2306
  211POPC   GL1 2956   8.633   3.544   4.173 -0.1950 -0.0404 -0.0071
  211POPC   GL2 2957   8.874   3.436   4.181  0.0839 -0.0220  0.0893
  211POPC   C1A 2958   8.633   3.501   4.649  0.0025  0.1518  0.0849
  211POPC   D2A 2959   8.665   3.621   5.091 -0.3241 -0.3931  0.0552
  211POPC   C3A 2960   8.388   3.629   5.361  0.0812  0.0121  0.0989
  211POPC   C4A 2961   8.405   3.458   5.861 -0.0559 -0.2886  0.0117
  211POPC   C1B 2962   9.260   3.386   4.521  0.0644  0.1531 -0.3423
  211POPC   C2B 2963   9.101   3.305   4.836  0.2857 -0.1167 -0.0927
  211POPC   C3B 2964   9.014   3.286   5.220  0.0195 -0.4420 -0.0048
  211POPC   C4B 2965   8.770   3.230   5.535  0.0319  0.2110 -0.0536
  212POPC   NC3 2966   0.143   0.104   3.648  0.0952  0.1834  0.0161
  212POPC   PO4 2967   0.027   0.535   3.550  0.1020 -0.4809 -0.2366
  212POPC   GL1 2968  -0.007   0.622   3.995  0.3583 -0.3144 -0.1285
  212POPC   GL2 2969  -0.025   1.002   4.134  0.0423 -0.3014 -0.0588
  212POPC   C1A 2970   0.062   0.446   4.439  0.3407 -0.0959  0.1332
  212POPC   D2A 2971   0.104   0.537   4.804 -0.2457  0.0094  0.2168
  212POPC   C3A 2972   0.549   0.225   4.840  0.1014  0.2674 -0.2591
  212POPC   C4A 2973   0.764   0.070   5.138 -0.1823  0.1282 -0.1892
  212POPC   C1B 2974   0.212   1.336   4.384 -0.1946 -0.1257 -0.0805
  212POPC   C2B 2975   0.241   1.466   4.875 -0.3088 -0.1278 -0.1742
  212POPC   C3B 2976   0.289   1.227   5.249 -0.1205 -0.2093  0.2662
  212POPC   C4B 2977   0.511   1.106   5.625 -0.2973 -0.1235  0.2035
  213POPC   NC3 2978   5.370   9.542   3.707 -0.1680  0.1704  0.2178
  213POPC   PO4 2979   5.778   9.467   3.659 -0.0542  0.0004 -0.3326
  213POPC   GL1 2980   5.755   9.558   4.136 -0.0153 -0.0323  0.1347
  213POPC   GL2 2981   5.408   9.528   4.199  0.1651  0.1742 -0.2828
  213POPC   C1A 2982   5.907   9.577   4.544 -0.1985  0.0175 -0.0425
  213POPC   D2A 2983   5.760   9.846   4.979  0.0864  0.1890 -0.1010
  213POPC   C3A 2984   5.740  10.352   4.942  0.3131 -0.0684 -0.2388
  213POPC   C4A 2985   5.641  10.620   4.585 -0.2661 -0.0026  0.0354
  213POPC   C1B 2986   5.501   9.236   4.441 -0.0079 -0.0918 -0.1912
  213POPC   C2B 2987   5.803   9.077   4.753  0.0840  0.1449 -0.4324
  213POPC   C3B 2988   5.898   8.939   5.190 -0.2578  0.1917  0.0341
  213POPC   C4B 2989   5.865   8.847   5.725  0.2826 -0.1125  0.2963
  214POPC   NC3 2990   8.819   6.258   3.430  0.3434 -0.0698  0.2230
  214POPC   PO4 2991   8.753   5.852   3.473 -0.1031 -0.2360 -0.1134
  214POPC   GL1 2992   8.777   5.817   3.994  0.0358  0.0464  0.0644
  214POPC   GL2 2993   8.711   5.546   4.086 -0.1779 -0.0875 -0.0973
  214POPC   C1A 2994   8.523   5.835   4.417  0.2398 -0.0938 -0.2019
  214POPC   D2A 2995   8.402   6.030   4.835 -0.2823 -0.1110 -0.2624
  214POPC   C3A 2996   8.474   6.370   5.000  0.2922  0.0847 -0.0194
  214POPC   C4A 2997   8.559   6.543   5.376 -0.1241  0.0215  0.0540
  214POPC   C1B 2998   8.565   5.290   4.449  0.1430  0.2066 -0.1509
  214POPC   C2B 2999   8.452   5.418   4.839  0.1310 -0.2415  0.3198
  214POPC   C3B 3000   8.306   5.423   5.244 -0.1997 -0.0201  0.1131
  214POPC   C4B 3001   8.535   5.550   5.603 -0.3118  0.0822 -0.2157
  215POPC   NC3 3002   0.171   7.558   3.885 -0.0250  0.1073 -0.1385
  215POPC   PO4 3003  -0.221   7.276   3.735  0.3937 -0.1698 -0.3484
  215POPC   GL1 3004  -0.373   7.496   4.096  0.1491  0.0177 -0.3703
  215POPC   GL2 3005  -0.576   7.395   4.366 -0.1812 -0.1839  0.4376
  215POPC   C1A 3006  -0.310   7.714   4.581  0.1490 -0.2573 -0.1098
  215POPC   D2A 3007  -0.402   7.899   4.988 -0.0469 -0.1018  0.0684
  215POPC   C3A 3008  -0.118   7.794   5.442  0.3608  0.3153  0.0374
  215POPC   C4A 3009   0.180   7.527   5.363  0.2403  0.1154 -0.2780
  215POPC   C1B 3010  -0.431   7.311   4.799  0.1243 -0.0215  0.4668
  215POPC   C2B 3011  -0.310   7.375   5.207  0.2055 -0.0946 -0.0625
  215POPC   C3B 3012  -0.295   7.280   5.603 -0.0432 -0.0620 -0.1561
  215POPC   C4B 3013  -0.222   7.221   6.010  0.0680  0.2414 -0.2846
  216POPC   NC3 3014   6.638   5.744   3.347 -0.0942  0.0936  0.1271
  216POPC   PO4 3015   6.937   5.703   3.766 -0.3769  0.1736 -0.1443
  216POPC   GL1 3016   7.107   5.733   4.193 -0.1108 -0.3735 -0.0492
  216POPC   GL2 3017   7.168   5.487   4.351 -0.0797 -0.2436  0.3817
  216POPC   C1A 3018   6.829   5.900   4.422  0.2300  0.4213 -0.1563
  216POPC   D2A 3019   6.610   5.581   4.748  0.3328  0.0119  0.0312
  216POPC   C3A 3020   6.907   5.289   4.925  0.0808  0.3443  0.0232
  216POPC   C4A 3021   6.899   5.027   5.265  0.1058 -0.0091 -0.1614
  216POPC   C1B 3022   7.109   5.694   4.747  0.0532 -0.0050 -0.0096
  216POPC   C2B 3023   6.928   5.695   5.167  0.1380  0.3418  0.2653
  216POPC   C3B 3024   6.712   5.444   5.435 -0.0940  0.0759  0.0473
  216POPC   C4B 3025   6.406   5.463   5.760  0.1705  0.1394 -0.1304
  217POPC   NC3 3026   7.952   7.110   3.478  0.0293 -0.0792  0.1117
  217POPC   PO4 3027   8.180   7.560   3.595 -0.3580 -0.2577 -0.2675
  217POPC   GL1 3028   8.220   7.504   4.068  0.1791 -0.2615  0.0002
  217POPC   GL2 3029   8.105   7.649   4.346  0.3210 -0.0387 -0.0417
  217POPC   C1A 3030   7.999   7.227   4.254  0.1852 -0.0307  0.0291
  217POPC   D2A 3031   7.666   7.075   4.595  0.0391 -0.5070 -0.0532
  217POPC   C3A 3032   7.566   7.176   4.995  0.0278  0.0539 -0.0971
  217POPC   C4A 3033   7.449   7.342   5.445  0.0012  0.3403  0.0254
  217POPC   C1B 3034   8.263   7.952   4.766 -0.3542  0.1150 -0.0298
  217POPC   C2B 3035   8.566   8.060   5.000  0.1862  0.4962 -0.2828
  217POPC   C3B 3036   8.741   7.993   5.475  0.1732  0.0410  0.1688
  217POPC   C4B 3037   9.188   8.014   5.585  0.0341 -0.0505 -0.1978
  218POPC   NC3 3038   1.659   8.838   3.605  0.1999 -0.2332  0.1708
  218POPC   PO4 3039   1.261   8.576   3.705 -0.0433  0.3744 -0.1379
  218POPC   GL1 3040   1.266   8.712   4.066 -0.0636  0.2890  0.1321
  218POPC   GL2 3041   0.992   8.652   4.229  0.0618 -0.0766  0.4473
  218POPC   C1A 3042   1.673   8.739   4.333  0.0880 -0.1759 -0.2919
  218POPC   D2A 3043   2.071   8.813   4.590 -0.0035 -0.1828 -0.1680
  218POPC   C3A 3044   2.296   8.558   4.936 -0.0971  0.0089 -0.4424
  218POPC   C4A 3045   2.293   8.495   5.377  0.0034  0.0745  0.0246
  218POPC   C1B 3046   1.100   8.698   4.691 -0.1965 -0.3476 -0.0620
  218POPC   C2B 3047   0.931   8.579   5.029 -0.1464 -0.1472  0.0355
  218POPC   C3B 3048   0.903   8.711   5.403  0.1187 -0.2024 -0.4061
  218POPC   C4B 3049   1.013   8.967   5.689 -0.0513  0.1072  0.2103
  219POPC   NC3 3050   5.703   5.390   3.641 -0.0886 -0.0155  0.0390
  219POPC   PO4 3051   5.688   5.772   3.833 -0.0022  0.4410  0.0724
  219POPC   GL1 3052   5.715   5.793   4.242 -0.0606  0.2165  0.0166
  219POPC   GL2 3053   5.899   5.567   4.494 -0.2963 -0.0415  0.2392
  219POPC   C1A 3054   5.518   5.736   4.738  0.1920  0.1918 -0.1093
  219POPC   D2A 3055   5.298   5.979   4.933  0.2366  0.0546 -0.2511
  219POPC   C3A 3056   5.141   5.812   5.285 -0.1383 -0.4406  0.0608
  219POPC   C4A 3057   4.897   5.621   5.674  0.1344 -0.2321  0.2862
  219POPC   C1B 3058   5.945   5.482   4.932 -0.3769 -0.0643  0.0604
  219POPC   C2B 3059   6.301   5.545   5.149  0.1552  0.2341 -0.1201
  219POPC   C3B 3060   6.492   5.914   5.561  0.0663 -0.2048  0.2564
  219POPC   C4B 3061   6.727   5.885   5.970  0.1119 -0.1144  0.2014
  220POPC   NC3 3062   3.247   6.223   3.390  0.1191 -0.0707  0.4679
  220POPC   PO4 3063   2.991   6.401   3.852  0.1425 -0.1741  0.0867
  220POPC   GL1 3064   2.749   6.274   4.246  0.0552 -0.0562 -0.3947
  220POPC   GL2 3065   2.905   6.049   4.413  0.0826 -0.2788 -0.2826
  220POPC   C1A 3066   2.436   6.041   4.507 -0.0342  0.1349  0.0604
  220POPC   D2A 3067   2.374   5.998   5.003  0.2266 -0.2104  0.0670
  220POPC   C3A 3068   2.408   5.775   5.331 -0.0504  0.0074  0.1596
  220POPC   C4A 3069   2.753   5.720   5.688 -0.0317  0.1671  0.0824
  220POPC   C1B 3070   2.716   6.509   4.650  0.1683  0.2725 -0.0777
  220POPC   C2B 3071   2.747   6.550   5.128  0.1682 -0.0003 -0.0883
  220POPC   C3B 3072   2.570   6.681   5.546  0.1498 -0.1087 -0.1221
  220POPC   C4B 3073   2.447   6.639   5.962  0.1782 -0.0308 -0.1177
  221POPC   NC3 3074   3.752   6.718   3.829  0.2283  0.1036 -0.1130
  221POPC   PO4 3075   3.508   6.373   3.978 -0.0323 -0.0258  0.0411
  221POPC   GL1 3076   3.444   6.638   4.252 -0.1265  0.3453 -0.1090
  221POPC   GL2 3077   3.140   6.647   4.306  0.1339  0.0075  0.0304
  221POPC   C1A 3078   3.641   6.723   4.633 -0.0743 -0.0919  0.2207
  221POPC   D2A 3079   3.763   6.791   5.032  0.1091 -0.2028 -0.0878
  221POPC   C3A 3080   4.140   6.810   5.214  0.4700  0.1669  0.0917
  221POPC   C4A 3081   4.359   6.627   5.448 -0.0612  0.0914  0.1136
  221POPC   C1B 3082   3.222   6.393   4.636 -0.1181 -0.2180  0.0997
  221POPC   C2B 3083   3.271   6.495   5.088  0.1594 -0.2425 -0.3104
  221POPC   C3B 3084   3.097   6.601   5.443  0.2863  0.3618 -0.0085
  221POPC   C4B 3085   2.944   6.628   5.854 -0.2274 -0.1623  0.2334
  222POPC   NC3 3086   3.468   0.881   4.131  0.0819 -0.0698 -0.0216
  222POPC   PO4 3087   3.771   0.856   4.371 -0.1509  0.0691  0.0762
  222POPC   GL1 3088   4.048   0.966   4.639 -0.3236 -0.2182  0.1618
  222POPC   GL2 3089   4.301   1.259   4.404  0.1123  0.1326  0.0086
  222POPC   C1A 3090   3.965   1.153   5.036  0.0740  0.1420 -0.2616
  222POPC   D2A 3091   3.865   1.553   5.181  0.3824 -0.3850 -0.2198
  222POPC   C3A 3092   3.691   1.689   5.551 -0.1117  0.0100 -0.1254
  222POPC   C4A 3093   3.325   1.796   5.767 -0.3261  0.1012 -0.4497
  222POPC   C1B 3094   4.289   1.379   4.794 -0.1843  0.1305 -0.1054
  222POPC   C2B 3095   4.542   1.336   5.265  0.2924 -0.1866  0.0517
  222POPC   C3B 3096   4.867   1.150   5.684 -0.2362 -0.1237  0.3842
  222POPC   C4B 3097   5.114   0.789   5.566  0.0781  0.1215 -0.1144
  223POPC   NC3 3098   6.983   8.031   3.181  0.4055 -0.0463 -0.1381
  223POPC   PO4 3099   6.615   7.843   3.396 -0.0515 -0.1045  0.0772
  223POPC   GL1 3100   6.500   7.736   3.826 -0.2279  0.0139  0.1220
  223POPC   GL2 3101   6.439   7.925   3.999 -0.0468  0.1055 -0.1621
  223POPC   C1A 3102   6.227   7.448   4.097  0.1024 -0.2453  0.0783
  223POPC   D2A 3103   6.224   7.260   4.505 -0.3696  0.0759  0.0574
  223POPC   C3A 3104   5.978   7.378   4.780 -0.1063  0.1480  0.0558
  223POPC   C4A 3105   5.748   7.114   5.016 -0.1455 -0.0731  0.3369
  223POPC   C1B 3106   6.521   7.751   4.425  0.1654 -0.0909  0.0669
  223POPC   C2B 3107   6.581   7.474   4.789 -0.0066  0.0639 -0.1515
  223POPC   C3B 3108   6.577   7.264   5.239 -0.1465 -0.2839 -0.0821
  223POPC   C4B 3109   6.767   7.305   5.553  0.3088  0.1517  0.2780
  224POPC   NC3 3110   6.980   0.726   3.726  0.2497 -0.1157 -0.1044
  224POPC   PO4 3111   7.223   0.366   3.723  0.0715  0.2187  0.4166
  224POPC   GL1 3112   7.244   0.298   4.108 -0.0850  0.0838 -0.0598
  224POPC   GL2 3113   7.560   0.404   4.337 -0.2328  0.0298  0.0272
  224POPC   C1A 3114   7.089   0.205   4.501  0.1532  0.0360 -0.1507
  224POPC   D2A 3115   6.726  -0.016   4.658  0.1602  0.1352  0.1452
  224POPC   C3A 3116   6.778   0.015   5.137 -0.2164  0.0429  0.1005
  224POPC   C4A 3117   6.497   0.270   5.470 -0.5727 -0.1766  0.3229
  224POPC   C1B 3118   7.626   0.218   4.658 -0.0148  0.0839  0.0615
  224POPC   C2B 3119   7.518   0.034   5.085  0.0382 -0.0671  0.2749
  224POPC   C3B 3120   7.248  -0.267   5.224  0.0061 -0.0674  0.0566
  224POPC   C4B 3121   6.999  -0.426   5.541  0.2855 -0.4163  0.1347
  225POPC   NC3 3122   7.661   2.027   4.163 -0.2133 -0.0394 -0.0552
  225POPC   PO4 3123   7.229   2.022   4.102  0.1956  0.2113 -0.2777
  225POPC   GL1 3124   7.083   2.170   4.475 -0.0057 -0.0206  0.0699
  225POPC   GL2 3125   6.962   1.879   4.624  0.0945 -0.1378 -0.1275
  225POPC   C1A 3126   7.178   2.211   4.968  0.0618  0.4237 -0.0471
  225POPC   D2A 3127   7.396   2.243   5.397 -0.1748  0.2456 -0.1382
  225POPC   C3A 3128   7.405   2.538   5.698  0.1946  0.1397 -0.1668
  225POPC   C4A 3129   7.431   2.694   6.102 -0.0649  0.0404  0.0636
  225POPC   C1B 3130   6.632   1.584   4.646  0.0681 -0.0997 -0.3739
  225POPC   C2B 3131   6.399   1.616   4.907  0.2277  0.0635 -0.1391
  225POPC   C3B 3132   6.330   1.570   5.357 -0.3735  0.0133  0.3489
  225POPC   C4B 3133   6.261   1.278   5.723 -0.1170 -0.2057  0.2110
  226POPC   NC3 3134   8.883   3.311   3.609  0.5455 -0.2275  0.2405
  226POPC   PO4 3135   9.207   3.531   3.790  0.0953  0.1437 -0.0032
  226POPC   GL1 3136   9.334   3.784   4.260 -0.0856 -0.0868 -0.3928
  226POPC   GL2 3137   8.999   3.979   4.311  0.1776 -0.0318 -0.1020
  226POPC   C1A 3138   9.559   3.742   4.673 -0.1159 -0.1561 -0.1001
  226POPC   D2A 3139   9.806   3.886   5.037 -0.0897 -0.2656 -0.0002
  226POPC   C3A 3140   9.498   3.941   5.394  0.0323 -0.2291 -0.0561
  226POPC   C4A 3141   9.238   4.265   5.621  0.0322 -0.2336  0.2984
  226POPC   C1B 3142   8.922   3.877   4.715  0.3686 -0.0659  0.2496
  226POPC   C2B 3143   9.185   3.839   5.030 -0.0255  0.0152  0.2660
  226POPC   C3B 3144   9.496   3.534   5.124 -0.0631 -0.3315 -0.3837
  226POPC   C4B 3145   9.794   3.461   5.408 -0.2812 -0.1997 -0.1967
  227POPC   NC3 3146   4.018   3.678   3.806 -0.0761 -0.1586 -0.1737
  227POPC   PO4 3147   4.248   3.328   3.943 -0.0725 -0.0058 -0.0213
  227POPC   GL1 3148   4.028   3.091   4.251  0.0166 -0.0405  0.1264
  227POPC   GL2 3149   3.675   3.125   4.306 -0.0633 -0.0328  0.0875
  227POPC   C1A 3150   4.036   2.742   4.585  0.0675  0.1549 -0.0404
  227POPC   D2A 3151   4.099   2.703   4.987 -0.0161 -0.0746  0.0837
  227POPC   C3A 3152   3.886   2.579   5.299 -0.2690  0.1358  0.3211
  227POPC   C4A 3153   3.635   2.817   5.504 -0.0318  0.0389 -0.0539
  227POPC   C1B 3154   3.449   3.301   4.704 -0.2125 -0.1319 -0.1544
  227POPC   C2B 3155   3.217   3.572   4.867 -0.0429 -0.1559 -0.3332
  227POPC   C3B 3156   3.208   3.820   5.231 -0.1100  0.1914  0.0859
  227POPC   C4B 3157   2.962   3.851   5.527  0.0127  0.0187 -0.0320
  228POPC   NC3 3158   8.638   7.006   3.423 -0.0680 -0.2312 -0.1350
  228POPC   PO4 3159   8.319   6.751   3.539  0.0129 -0.2015 -0.0137
  228POPC   GL1 3160   8.663   6.624   3.805  0.2019 -0.1613 -0.0926
  228POPC   GL2 3161   8.599   6.280   4.024 -0.1073 -0.1398  0.0508
  228POPC   C1A 3162   8.744   6.667   4.255  0.0544  0.2653 -0.0511
  228POPC   D2A 3163   8.382   6.399   4.471  0.0054  0.0308  0.0007
  228POPC   C3A 3164   8.097   6.630   4.720  0.1446 -0.1388  0.1934
  228POPC   C4A 3165   7.729   6.671   4.886 -0.0984  0.4103 -0.3364
  228POPC   C1B 3166   8.898   6.121   4.364 -0.1084 -0.2221 -0.1684
  228POPC   C2B 3167   9.077   6.306   4.692  0.1517 -0.1073 -0.2347
  228POPC   C3B 3168   8.950   6.299   5.134 -0.2380  0.1164 -0.0693
  228POPC   C4B 3169   9.040   6.315   5.503  0.1994 -0.0226  0.2567
  229POPC   NC3 3170   6.743   8.199   3.698  0.0923  0.0783  0.3124
  229POPC   PO4 3171   7.129   8.292   3.738 -0.2011  0.0311 -0.0452
  229POPC   GL1 3172   6.948   8.403   4.076 -0.1115 -0.0983  0.0563
  229POPC   GL2 3173   6.961   8.767   4.125  0.1086  0.2075 -0.3671
  229POPC   C1A 3174   6.864   8.091   4.376 -0.3661 -0.1422 -0.0872
  229POPC   D2A 3175   6.881   8.013   4.827 -0.0290 -0.0419 -0.3550
  229POPC   C3A 3176   7.027   7.770   5.192  0.0063 -0.0018 -0.2406
  229POPC   C4A 3177   7.286   7.891   5.479  0.0774  0.2160 -0.0514
  229POPC   C1B 3178   6.579   9.019   4.268  0.0517  0.1450  0.0339
  229POPC   C2B 3179   6.282   9.212   4.722  0.1762  0.1027  0.2373
  229POPC   C3B 3180   5.964   9.419   5.085 -0.2349  0.2327  0.0044
  229POPC   C4B 3181   6.011   9.267   5.566  0.0018  0.3253  0.0227
  230POPC   NC3 3182   1.767   4.144   3.601 -0.2162 -0.1006  0.4003
  230POPC   PO4 3183   1.449   4.395   3.615 -0.1158 -0.1361  0.1719
  230POPC   GL1 3184   1.325   4.283   4.066  0.1119  0.1177 -0.1496
  230POPC   GL2 3185   1.142   4.074   4.134 -0.1097 -0.2159 -0.0393
  230POPC   C1A 3186   1.254   4.297   4.539 -0.3560 -0.2178  0.2247
  230POPC   D2A 3187   1.161   4.162   4.953 -0.0531 -0.1722 -0.0995
  230POPC   C3A 3188   1.192   4.276   5.346 -0.1839 -0.3882 -0.2911
  230POPC   C4A 3189   1.038   4.583   5.668  0.0791 -0.2642  0.2598
  230POPC   C1B 3190   0.939   3.934   4.552 -0.1956  0.2175 -0.1968
  230POPC   C2B 3191   0.956   3.662   4.892  0.1620 -0.1855  0.0038
  230POPC   C3B 3192   0.822   3.383   5.158  0.0561 -0.3956  0.2861
  230POPC   C4B 3193   0.870   3.365   5.533 -0.0268 -0.2067  0.0251
  231POPC   NC3 3194  10.212   2.715   3.417  0.0763 -0.1653 -0.0527
  231POPC   PO4 3195   9.979   2.957   3.652  0.0990 -0.2622 -0.1596
  231POPC   GL1 3196   9.772   3.006   4.071 -0.2978  0.0310  0.0249
  231POPC   GL2 3197   9.383   2.985   4.166  0.0281 -0.0015 -0.0880
  231POPC   C1A 3198   9.826   3.060   4.453  0.0318 -0.0985 -0.0339
  231POPC   D2A 3199   9.873   3.342   4.869  0.2269 -0.1663  0.2269
  231POPC   C3A 3200  10.361   3.308   4.937  0.1409 -0.4029  0.1676
  231POPC   C4A 3201  10.567   3.340   5.346 -0.2562 -0.0857 -0.0820
  231POPC   C1B 3202   9.388   2.863   4.556  0.2450 -0.0457 -0.0381
  231POPC   C2B 3203   9.450   3.000   4.958 -0.1280 -0.1617 -0.1301
  231POPC   C3B 3204   9.306   2.881   5.382 -0.0783 -0.0831  0.1302
  231POPC   C4B 3205   9.055   2.763   5.711  0.1517  0.0441 -0.1484
  232POPC   NC3 3206   1.271   2.459   3.012  0.2386  0.1082  0.0836
  232POPC   PO4 3207   1.497   2.591   3.412  0.4240 -0.1687 -0.0984
  232POPC   GL1 3208   1.456   2.762   3.831 -0.0954 -0.1697  0.2506
  232POPC   GL2 3209   1.138   2.902   3.985 -0.3595 -0.0111 -0.0544
  232POPC   C1A 3210   1.776   2.919   4.144 -0.1432  0.0797  0.0158
  232POPC   D2A 3211   2.020   3.058   4.491 -0.0351  0.1141 -0.3101
  232POPC   C3A 3212   2.347   2.873   4.825  0.1873 -0.1935  0.0967
  232POPC   C4A 3213   2.567   3.031   5.220  0.1654 -0.3141 -0.1095
  232POPC   C1B 3214   1.353   2.991   4.338  0.3285 -0.1618 -0.1111
  232POPC   C2B 3215   1.570   2.975   4.704 -0.0076  0.3067 -0.1517
  232POPC   C3B 3216   1.818   2.865   5.059 -0.1091  0.0794  0.1036
  232POPC   C4B 3217   2.013   2.776   5.387  0.1055  0.1009 -0.4441
  233POPC   NC3 3218   8.339   1.207   3.784  0.4773 -0.0392 -0.0529
  233POPC   PO4 3219   8.298   1.547   4.015 -0.0141 -0.0941  0.3124
  233POPC   GL1 3220   8.266   1.664   4.495 -0.3234 -0.0870  0.3470
  233POPC   GL2 3221   7.997   1.810   4.605 -0.1512  0.0397 -0.0026
  233POPC   C1A 3222   8.403   1.379   4.821 -0.2541 -0.0934  0.0482
  233POPC   D2A 3223   8.593   1.112   5.101  0.0065 -0.0170  0.0561
  233POPC   C3A 3224   8.397   1.183   5.557  0.2312  0.0226 -0.1227
  233POPC   C4A 3225   8.525   1.150   6.019 -0.0884  0.1568  0.1940
  233POPC   C1B 3226   8.159   1.756   5.012  0.1389 -0.0209 -0.1269
  233POPC   C2B 3227   8.497   1.660   5.358  0.0968  0.1025  0.1543
  233POPC   C3B 3228   8.709   1.573   5.689 -0.0198 -0.0183 -0.1798
  233POPC   C4B 3229   9.002   1.365   5.983  0.1656  0.0636  0.5652
  234POPC   NC3 3230   4.492   4.834   4.064  0.2024  0.1288 -0.1162
  234POPC   PO4 3231   4.182   4.542   4.150  0.1890 -0.3902  0.0258
  234POPC   GL1 3232   4.075   4.546   4.556  0.1375  0.2709  0.2088
  234POPC   GL2 3233   4.225   4.725   4.653  0.0441 -0.0653 -0.1735
  234POPC   C1A 3234   3.851   4.293   4.805  0.2000 -0.0233  0.2628
  234POPC   D2A 3235   3.753   3.948   5.134  0.0471 -0.2570 -0.1553
  234POPC   C3A 3236   3.697   3.592   5.087 -0.0978 -0.1314 -0.1726
  234POPC   C4A 3237   3.347   3.285   5.305 -0.0737 -0.1052 -0.1929
  234POPC   C1B 3238   4.228   4.638   5.066 -0.1722 -0.0156  0.0155
  234POPC   C2B 3239   4.022   4.797   5.543  0.1691  0.1726 -0.1856
  234POPC   C3B 3240   3.810   4.867   5.976 -0.1370  0.0269 -0.4178
  234POPC   C4B 3241   3.515   5.132   6.249 -0.0847 -0.0921 -0.1634
  235POPC   NC3 3242   0.877   4.330   3.737  0.1684  0.1240 -0.1843
  235POPC   PO4 3243   1.152   4.795   3.554  0.1426 -0.0093 -0.1306
  235POPC   GL1 3244   1.283   5.016   3.982  0.1511 -0.0103 -0.2415
  235POPC   GL2 3245   1.243   5.338   4.107 -0.3552  0.0477 -0.1656
  235POPC   C1A 3246   0.928   4.950   4.327  0.1902  0.2595 -0.0091
  235POPC   D2A 3247   0.938   5.187   4.752  0.2551  0.1163  0.0572
  235POPC   C3A 3248   1.430   5.127   4.754 -0.1544 -0.2867 -0.3553
  235POPC   C4A 3249   1.794   5.338   4.640  0.0282 -0.1458 -0.2169
  235POPC   C1B 3250   1.226   5.588   4.354  0.0121  0.0239 -0.0942
  235POPC   C2B 3251   1.333   5.639   4.707  0.0945 -0.0482  0.1269
  235POPC   C3B 3252   1.056   5.504   5.115  0.3145  0.0281 -0.1023
  235POPC   C4B 3253   0.624   5.667   5.312 -0.1808  0.2455 -0.1049
  236POPC   NC3 3254   6.771   7.209   3.266 -0.4134  0.0779  0.0556
  236POPC   PO4 3255   7.016   6.759   3.337 -0.0090  0.0988 -0.1168
  236POPC   GL1 3256   7.014   6.926   3.691 -0.0865 -0.0088 -0.2606
  236POPC   GL2 3257   6.890   7.264   3.728 -0.0732  0.1965  0.3078
  236POPC   C1A 3258   6.765   6.822   4.008 -0.0998 -0.2062  0.2924
  236POPC   D2A 3259   6.431   6.970   4.147  0.0759 -0.1150  0.1751
  236POPC   C3A 3260   6.271   6.689   4.517  0.3521 -0.3436  0.4475
  236POPC   C4A 3261   6.141   6.509   4.900 -0.1947  0.3274 -0.0093
  236POPC   C1B 3262   6.796   7.403   4.063 -0.4191  0.0363 -0.3719
  236POPC   C2B 3263   6.989   7.642   4.434 -0.0013  0.1378  0.0495
  236POPC   C3B 3264   7.165   7.537   4.746 -0.2981  0.1007  0.0830
  236POPC   C4B 3265   7.102   7.331   5.060  0.0665  0.1675  0.0156
  237POPC   NC3 3266   6.596   2.111   4.211 -0.2517 -0.0294  0.2850
  237POPC   PO4 3267   6.288   2.368   4.152  0.1215 -0.0675  0.3275
  237POPC   GL1 3268   6.122   2.555   4.443  0.2153 -0.1340  0.0984
  237POPC   GL2 3269   5.770   2.642   4.456  0.2562  0.1150 -0.1973
  237POPC   C1A 3270   6.160   2.789   4.811 -0.2399 -0.0476 -0.0846
  237POPC   D2A 3271   6.141   3.101   5.006  0.2113  0.0686  0.2304
  237POPC   C3A 3272   6.479   3.407   5.061 -0.0828  0.0579 -0.0396
  237POPC   C4A 3273   6.580   3.802   5.118 -0.3324  0.0982 -0.3500
  237POPC   C1B 3274   5.791   2.501   4.896  0.0663 -0.0380  0.1182
  237POPC   C2B 3275   6.085   2.473   5.166 -0.0957  0.0462 -0.1733
  237POPC   C3B 3276   6.106   2.503   5.594 -0.0069 -0.0237 -0.3643
  237POPC   C4B 3277   5.951   2.449   6.006 -0.2094  0.0642  0.2373
  238POPC   NC3 3278   0.940   5.227   3.721  0.2595  0.1900 -0.1586
  238POPC   PO4 3279   0.688   5.576   3.568  0.2413  0.0863 -0.1819
  238POPC   GL1 3280   0.528   5.540   3.924  0.0608 -0.3408 -0.1709
  238POPC   GL2 3281   0.462   5.185   3.929 -0.0921 -0.0567 -0.1729
  238POPC   C1A 3282   0.313   5.854   4.267  0.0233  0.2149 -0.1396
  238POPC   D2A 3283   0.076   6.025   4.664  0.0485  0.2305 -0.1124
  238POPC   C3A 3284  -0.195   5.716   5.012 -0.2074  0.0591 -0.2363
  238POPC   C4A 3285  -0.317   5.680   5.435 -0.0375  0.2170  0.1145
  238POPC   C1B 3286   0.453   5.095   4.368  0.1174  0.0424 -0.0054
  238POPC   C2B 3287   0.394   5.151   4.726  0.1983 -0.0926  0.0668
  238POPC   C3B 3288   0.544   5.293   5.058 -0.3498  0.0780  0.0036
  238POPC   C4B 3289   0.731   4.989   5.278 -0.1482 -0.2506  0.0771
  239POPC   NC3 3290   5.155   8.288   3.791  0.0996  0.0910 -0.1140
  239POPC   PO4 3291   4.927   8.662   3.712  0.0174  0.1158 -0.1698
  239POPC   GL1 3292   4.742   8.625   4.119 -0.1338 -0.3303 -0.2424
  239POPC   GL2 3293   4.840   8.335   4.184  0.3780  0.1217 -0.4930
  239POPC   C1A 3294   4.942   8.562   4.617 -0.3584 -0.0475 -0.0834
  239POPC   D2A 3295   5.087   8.496   5.008  0.2845  0.3071 -0.2324
  239POPC   C3A 3296   5.540   8.448   5.200  0.1364 -0.2619 -0.0116
  239POPC   C4A 3297   5.674   8.421   5.639 -0.3427 -0.3084 -0.1970
  239POPC   C1B 3298   4.500   8.422   4.481  0.2851 -0.2395 -0.2183
  239POPC   C2B 3299   4.558   8.355   4.941  0.0345 -0.1293  0.2542
  239POPC   C3B 3300   4.799   8.259   5.355 -0.3341  0.3058 -0.1682
  239POPC   C4B 3301   4.697   8.357   5.752 -0.1318  0.0633  0.0815
  240POPC   NC3 3302   9.472   6.781   3.248  0.2603 -0.0623  0.0265
  240POPC   PO4 3303   9.115   6.695   3.468 -0.0428 -0.4547  0.3468
  240POPC   GL1 3304   9.207   6.813   3.928  0.0413  0.3883  0.2541
  240POPC   GL2 3305   9.520   6.962   4.096  0.1900 -0.1355 -0.1421
  240POPC   C1A 3306   9.231   6.570   4.273  0.1299 -0.0482 -0.3174
  240POPC   D2A 3307   9.525   6.518   4.596 -0.0350  0.1959 -0.1450
  240POPC   C3A 3308   9.442   6.556   4.960  0.1349 -0.0530 -0.2445
  240POPC   C4A 3309   9.472   6.568   5.401  0.0342  0.2787 -0.3876
  240POPC   C1B 3310   9.507   6.992   4.560  0.1127  0.0754  0.1627
  240POPC   C2B 3311   9.538   7.010   5.043 -0.2467 -0.0486 -0.0644
  240POPC   C3B 3312   9.497   7.056   5.437  0.0925 -0.0193  0.3221
  240POPC   C4B 3313   9.512   7.004   5.889  0.1599 -0.2067  0.0290
  241POPC   NC3 3314   0.232   2.495   3.814  0.0071  0.2261  0.1397
  241POPC   PO4 3315  -0.158   2.356   3.718 -0.1086 -0.1475  0.2064
  241POPC   GL1 3316  -0.266   2.586   4.064 -0.0960 -0.1352  0.0247
  241POPC   GL2 3317  -0.533   2.494   4.277 -0.2228  0.1122  0.0946
  241POPC   C1A 3318  -0.011   2.743   4.417  0.1010 -0.0590 -0.0267
  241POPC   D2A 3319  -0.110   2.908   4.769  0.0700  0.0167 -0.0075
  241POPC   C3A 3320  -0.421   2.637   4.997 -0.2327  0.0941 -0.0936
  241POPC   C4A 3321  -0.498   2.551   5.493  0.1250  0.0857  0.1183
  241POPC   C1B 3322  -0.684   2.351   4.647 -0.2119  0.0819  0.0965
  241POPC   C2B 3323  -0.787   2.251   5.036 -0.0068  0.0497  0.1241
  241POPC   C3B 3324  -0.732   1.954   5.261 -0.1933  0.0254  0.0069
  241POPC   C4B 3325  -0.691   1.572   5.435  0.0804 -0.0127 -0.1463
  242POPC   NC3 3326   6.143   5.607   4.047  0.5015 -0.0787  0.0447
  242POPC   PO4 3327   6.161   5.224   3.863  0.1392  0.1070  0.0609
  242POPC   GL1 3328   6.174   5.042   4.159 -0.3612 -0.1919 -0.0921
  242POPC   GL2 3329   6.232   4.745   4.412  0.0944 -0.0181  0.0250
  242POPC   C1A 3330   6.245   5.281   4.630 -0.0526 -0.1799 -0.0836
  242POPC   D2A 3331   6.414   5.117   4.955  0.3723 -0.0255 -0.0676
  242POPC   C3A 3332   6.388   5.091   5.394  0.4592 -0.0670 -0.3219
  242POPC   C4A 3333   6.262   4.865   5.725  0.0535  0.2088 -0.2228
  242POPC   C1B 3334   6.182   4.699   4.802 -0.3164  0.0542 -0.2653
  242POPC   C2B 3335   6.189   4.611   5.306 -0.1533  0.1160 -0.3571
  242POPC   C3B 3336   5.970   4.487   5.692  0.0974 -0.1453 -0.0574
  242POPC   C4B 3337   5.832   4.775   5.953  0.4443  0.2292  0.0257
  243POPC   NC3 3338   7.367   8.740   3.845 -0.0398  0.1911 -0.1616
  243POPC   PO4 3339   7.773   8.819   4.038 -0.2991 -0.0590 -0.2581
  243POPC   GL1 3340   7.466   8.852   4.305  0.2038 -0.0037 -0.4335
  243POPC   GL2 3341   7.623   9.091   4.412  0.1694 -0.1847 -0.0928
  243POPC   C1A 3342   7.306   8.937   4.767 -0.0751  0.1006 -0.1792
  243POPC   D2A 3343   7.223   8.806   5.041 -0.2771  0.1425  0.2049
  243POPC   C3A 3344   6.918   8.963   5.316 -0.0500 -0.1424 -0.0073
  243POPC   C4A 3345   6.981   8.913   5.673  0.0463 -0.0112  0.1399
  243POPC   C1B 3346   7.736   9.152   4.850  0.0041  0.0561  0.0543
  243POPC   C2B 3347   7.996   8.905   5.007  0.0917 -0.2115  0.0400
  243POPC   C3B 3348   8.325   8.917   5.270  0.0256 -0.1670  0.0826
  243POPC   C4B 3349   8.548   8.617   5.470  0.6500  0.1145  0.1049
  244POPC   NC3 3350   6.561   3.952   3.995  0.3225 -0.3350 -0.0026
  244POPC   PO4 3351   6.957   4.121   3.962  0.0450 -0.2728  0.3833
  244POPC   GL1 3352   7.170   4.012   4.278 -0.1043 -0.0052 -0.0357
  244POPC   GL2 3353   7.232   3.713   4.471  0.0318  0.4175 -0.0031
  244POPC   C1A 3354   7.536   4.047   4.544 -0.1401 -0.1431  0.1871
  244POPC   D2A 3355   7.920   4.097   4.436 -0.3745 -0.1426 -0.0979
  244POPC   C3A 3356   8.152   4.398   4.717  0.1238 -0.2070 -0.1213
  244POPC   C4A 3357   8.149   4.598   5.094  0.0369 -0.1442 -0.0210
  244POPC   C1B 3358   7.252   3.790   4.884 -0.2117  0.2619  0.3412
  244POPC   C2B 3359   7.030   3.681   5.346 -0.1196  0.0586 -0.1523
  244POPC   C3B 3360   6.620   3.606   5.589  0.1380 -0.2778  0.0183
  244POPC   C4B 3361   6.667   3.638   6.028  0.1728 -0.0888 -0.0948
  245POPC   NC3 3362   3.761   5.405   3.609  0.1410 -0.1790 -0.0265
  245POPC   PO4 3363   4.071   4.971   3.815  0.1526 -0.1185  0.0804
  245POPC   GL1 3364   3.891   5.061   4.214  0.1039  0.0139  0.1704
  245POPC   GL2 3365   4.174   5.191   4.383 -0.4444  0.3547  0.1450
  245POPC   C1A 3366   3.620   5.372   4.434  0.2664  0.1427  0.0500
  245POPC   D2A 3367   3.505   5.282   4.761 -0.1343 -0.1465 -0.0646
  245POPC   C3A 3368   3.109   5.351   4.851 -0.0150  0.2315 -0.0212
  245POPC   C4A 3369   2.995   5.589   5.247  0.0964  0.2569 -0.0358
  245POPC   C1B 3370   4.073   5.206   4.799  0.1031  0.0168 -0.2388
  245POPC   C2B 3371   4.087   5.181   5.185 -0.1530  0.0650  0.1999
  245POPC   C3B 3372   3.721   5.281   5.478 -0.1262 -0.0567 -0.1949
  245POPC   C4B 3373   3.447   5.576   5.740  0.0471 -0.1610  0.0621
  246POPC   NC3 3374   8.328   8.981   3.943 -0.2162  0.0487  0.0128
  246POPC   PO4 3375   8.747   9.074   3.810  0.0614 -0.1963 -0.1319
  246POPC   GL1 3376   8.677   8.854   4.285 -0.1353 -0.1602 -0.0107
  246POPC   GL2 3377   8.430   8.621   4.285 -0.3205 -0.0697 -0.0515
  246POPC   C1A 3378   8.588   9.039   4.639 -0.0363  0.0066 -0.0323
  246POPC   D2A 3379   8.325   9.424   4.730  0.0734  0.3361  0.1290
  246POPC   C3A 3380   8.167   9.410   5.143  0.2434 -0.0027  0.1276
  246POPC   C4A 3381   7.927   9.169   5.466 -0.2063 -0.0499  0.3304
  246POPC   C1B 3382   8.285   8.489   4.749 -0.1171  0.1059  0.0246
  246POPC   C2B 3383   8.068   8.453   5.178 -0.0244  0.1187 -0.0533
  246POPC   C3B 3384   8.261   8.208   5.400 -0.0306 -0.0172 -0.1847
  246POPC   C4B 3385   8.430   8.256   5.770  0.0523 -0.1527 -0.0227
  247POPC   NC3 3386   4.493   6.075   3.508  0.2196 -0.1018  0.0751
  247POPC   PO4 3387   4.413   5.837   3.817 -0.2122 -0.2513  0.1902
  247POPC   GL1 3388   4.380   5.934   4.291 -0.1190  0.0349  0.2241
  247POPC   GL2 3389   4.184   5.787   4.405  0.0427 -0.1335  0.0429
  247POPC   C1A 3390   4.488   6.265   4.601 -0.1536  0.1770 -0.0036
  247POPC   D2A 3391   4.468   6.421   5.015 -0.0611  0.0605 -0.1612
  247POPC   C3A 3392   4.740   6.478   5.246  0.3580  0.2003 -0.0349
  247POPC   C4A 3393   4.915   6.261   5.593  0.1903  0.1606 -0.0713
  247POPC   C1B 3394   4.192   5.895   4.924  0.1559  0.2816  0.1616
  247POPC   C2B 3395   4.063   6.286   5.251  0.0003  0.0404  0.2270
  247POPC   C3B 3396   3.632   6.441   5.533  0.4741 -0.2377 -0.0199
  247POPC   C4B 3397   3.431   6.754   5.783  0.2663  0.0380 -0.2273
  248POPC   NC3 3398   7.901   8.099   3.488 -0.1027 -0.1600  0.1449
  248POPC   PO4 3399   7.924   7.943   3.958  0.2182  0.0099 -0.1859
  248POPC   GL1 3400   7.897   8.138   4.379  0.1455  0.3598 -0.0451
  248POPC   GL2 3401   7.831   8.515   4.471  0.2640  0.1894 -0.2130
  248POPC   C1A 3402   7.835   8.163   4.868  0.1936  0.0277  0.0187
  248POPC   D2A 3403   8.067   7.815   5.200  0.0834  0.3149  0.3037
  248POPC   C3A 3404   8.016   7.395   5.066  0.1726  0.2698 -0.0529
  248POPC   C4A 3405   8.125   7.112   4.771 -0.0653 -0.2838 -0.2588
  248POPC   C1B 3406   7.633   8.581   4.784 -0.1625  0.3919  0.0720
  248POPC   C2B 3407   7.612   8.620   5.211 -0.1168  0.1496  0.1906
  248POPC   C3B 3408   7.116   8.481   5.439 -0.2522 -0.3388 -0.1674
  248POPC   C4B 3409   6.679   8.497   5.409  0.0834 -0.0651 -0.0720
  249POPC   NC3 3410   6.106   0.557   3.811 -0.2094  0.2031  0.0953
  249POPC   PO4 3411   6.083   0.959   4.007  0.0898  0.0344 -0.2178
  249POPC   GL1 3412   6.244   0.824   4.332  0.0579  0.0923  0.0246
  249POPC   GL2 3413   6.035   0.580   4.362 -0.0123 -0.0790  0.1059
  249POPC   C1A 3414   6.335   1.067   4.677 -0.1051 -0.1060 -0.2801
  249POPC   D2A 3415   6.485   1.139   5.082 -0.0602  0.0013 -0.0485
  249POPC   C3A 3416   6.813   1.352   5.136  0.1229 -0.5932 -0.0306
  249POPC   C4A 3417   6.807   1.779   5.190 -0.2380  0.2494 -0.8244
  249POPC   C1B 3418   6.211   0.479   4.756 -0.1903 -0.2223  0.1780
  249POPC   C2B 3419   6.109   0.623   5.235  0.0387  0.1646  0.0801
  249POPC   C3B 3420   5.950   0.881   5.555 -0.0257  0.3678  0.0979
  249POPC   C4B 3421   5.622   0.774   5.770  0.3163  0.4034 -0.1238
  250POPC   NC3 3422   2.178   4.933   4.006  0.2041  0.1301 -0.2075
  250POPC   PO4 3423   2.311   5.399   4.025 -0.0451 -0.1440  0.3913
  250POPC   GL1 3424   2.143   5.649   4.319 -0.0589 -0.1422  0.3729
  250POPC   GL2 3425   2.070   5.906   4.148 -0.0192  0.2003  0.0842
  250POPC   C1A 3426   2.187   5.590   4.812  0.0365 -0.0142  0.0764
  250POPC   D2A 3427   1.940   5.773   5.145  0.1376  0.1382  0.2462
  250POPC   C3A 3428   1.972   5.372   5.423  0.0185 -0.0832 -0.3850
  250POPC   C4A 3429   2.310   5.456   5.706  0.1487  0.1180  0.4150
  250POPC   C1B 3430   1.822   6.272   4.279  0.1319 -0.3185  0.0732
  250POPC   C2B 3431   1.740   6.557   4.710  0.0845 -0.0419 -0.2313
  250POPC   C3B 3432   1.773   6.704   5.119 -0.2843  0.2901 -0.2071
  250POPC   C4B 3433   1.535   6.900   5.351 -0.0384 -0.0870  0.3515
  251POPC   NC3 3434   2.102   3.362   3.333 -0.1380  0.0999  0.2762
  251POPC   PO4 3435   2.348   3.009   3.385 -0.0676  0.0395  0.1697
  251POPC   GL1 3436   2.391   2.779   3.836 -0.4739  0.1630 -0.0961
  251POPC   GL2 3437   2.412   2.478   3.911  0.2187 -0.0406  0.2370
  251POPC   C1A 3438   2.483   3.086   4.250  0.1534 -0.3088 -0.0419
  251POPC   D2A 3439   2.686   3.428   4.521 -0.2003  0.2901 -0.0469
  251POPC   C3A 3440   2.862   3.197   4.881  0.0717  0.2170 -0.2036
  251POPC   C4A 3441   3.131   3.006   4.976  0.0603  0.1520 -0.1094
  251POPC   C1B 3442   2.277   2.648   4.280  0.0957 -0.1683 -0.0366
  251POPC   C2B 3443   2.141   2.465   4.649  0.4100  0.0032 -0.1428
  251POPC   C3B 3444   1.997   2.412   5.051 -0.0845 -0.0839 -0.2162
  251POPC   C4B 3445   1.980   2.036   5.204 -0.1859 -0.1450 -0.0257
  252POPC   NC3 3446   3.775   1.815   3.364 -0.2973  0.2141 -0.1593
  252POPC   PO4 3447   3.602   2.032   3.425 -0.0948  0.0113  0.0873
  252POPC   GL1 3448   3.524   2.058   3.895  0.3238  0.2459  0.2976
  252POPC   GL2 3449   3.719   2.287   4.090 -0.0925  0.0504  0.0147
  252POPC   C1A 3450   3.262   2.102   4.348 -0.0557  0.2923  0.1084
  252POPC   D2A 3451   3.171   2.361   4.773  0.1669  0.0398 -0.0170
  252POPC   C3A 3452   3.352   2.563   5.165 -0.1673  0.0148  0.2277
  252POPC   C4A 3453   3.158   2.818   5.457  0.1073  0.1330 -0.1700
  252POPC   C1B 3454   3.778   2.311   4.554  0.1040  0.1854 -0.3920
  252POPC   C2B 3455   3.688   2.320   4.891  0.1557 -0.1005 -0.1290
  252POPC   C3B 3456   3.769   2.075   5.144 -0.2675 -0.2134  0.2155
  252POPC   C4B 3457   3.945   2.220   5.645  0.0886 -0.1899  0.2561
  253POPC   NC3 3458   3.592   7.378   3.781 -0.0376 -0.0029  0.1856
  253POPC   PO4 3459   3.788   7.186   4.052  0.0756  0.1073 -0.1071
  253POPC   GL1 3460   4.068   6.992   4.345  0.3223 -0.0337  0.1689
  253POPC   GL2 3461   4.433   7.108   4.444  0.0313  0.0696  0.3087
  253POPC   C1A 3462   4.165   6.664   4.677 -0.0584 -0.0112  0.1035
  253POPC   D2A 3463   3.944   6.286   4.759  0.2313  0.4974 -0.0154
  253POPC   C3A 3464   3.582   6.091   5.079  0.0345 -0.0073  0.1119
  253POPC   C4A 3465   3.224   6.007   5.421 -0.1361 -0.0097 -0.2804
  253POPC   C1B 3466   4.130   7.181   4.846 -0.0121 -0.0166 -0.0209
  253POPC   C2B 3467   3.842   7.257   5.205  0.1802 -0.0803  0.3385
  253POPC   C3B 3468   3.794   7.497   5.540  0.2410  0.0845 -0.1270
  253POPC   C4B 3469   3.610   7.764   5.839 -0.1296 -0.1156  0.1160
  254POPC   NC3 3470   2.958   4.099   3.399  0.1382  0.3601  0.3229
  254POPC   PO4 3471   2.779   4.250   3.681  0.0524  0.0346  0.1278
  254POPC   GL1 3472   2.957   4.366   4.007  0.1108  0.0155 -0.1077
  254POPC   GL2 3473   3.081   4.142   4.258  0.0914  0.1250  0.0521
  254POPC   C1A 3474   2.989   4.627   4.431 -0.3263  0.0202  0.3480
  254POPC   D2A 3475   3.190   4.903   4.722 -0.2622  0.1823 -0.3175
  254POPC   C3A 3476   3.031   4.832   5.109  0.0075  0.1769  0.2246
  254POPC   C4A 3477   2.775   4.720   5.433  0.0484 -0.1733 -0.0640
  254POPC   C1B 3478   3.093   3.628   4.349 -0.2707  0.0127 -0.0386
  254POPC   C2B 3479   3.051   3.128   4.435  0.1095 -0.1230  0.3022
  254POPC   C3B 3480   2.755   2.769   4.617 -0.0612  0.1697  0.0402
  254POPC   C4B 3481   2.722   2.424   4.453  0.3326  0.0360 -0.1545
  255POPC   NC3 3482   2.395   6.281   3.903  0.0474  0.2618 -0.0084
  255POPC   PO4 3483   2.555   6.624   3.709 -0.0494 -0.1496  0.0955
  255POPC   GL1 3484   2.341   6.787   4.099 -0.0510  0.3651  0.1890
  255POPC   GL2 3485   2.591   6.862   4.324  0.0090 -0.0383  0.0826
  255POPC   C1A 3486   2.196   6.570   4.484  0.2235 -0.2793  0.0022
  255POPC   D2A 3487   2.265   6.504   4.924 -0.1789 -0.3766 -0.0578
  255POPC   C3A 3488   2.281   6.331   5.299 -0.0575 -0.0320 -0.1735
  255POPC   C4A 3489   2.087   6.473   5.646 -0.0267 -0.0819  0.0509
  255POPC   C1B 3490   2.556   6.939   4.803  0.1222  0.0248 -0.2149
  255POPC   C2B 3491   2.367   6.948   5.156 -0.1127  0.2085 -0.2115
  255POPC   C3B 3492   1.998   6.930   5.592  0.2983 -0.0905  0.0934
  255POPC   C4B 3493   1.736   6.658   5.968  0.0992  0.0794  0.0725
  256POPC   NC3 3494   0.041   4.074   3.581  0.0150 -0.3388 -0.4503
  256POPC   PO4 3495  -0.209   3.752   3.635  0.2654  0.1397 -0.1537
  256POPC   GL1 3496  -0.102   3.948   4.092  0.1499  0.2923  0.1846
  256POPC   GL2 3497  -0.415   4.056   4.278  0.0479  0.2684  0.3854
  256POPC   C1A 3498   0.201   3.869   4.285  0.0133 -0.2449 -0.1054
  256POPC   D2A 3499   0.340   4.160   4.446 -0.0085 -0.3925  0.1948
  256POPC   C3A 3500   0.616   4.262   4.753  0.0417 -0.0017 -0.3924
  256POPC   C4A 3501   0.721   4.266   5.240  0.2457  0.1563 -0.0308
  256POPC   C1B 3502  -0.298   3.636   4.407  0.0268 -0.0893 -0.1220
  256POPC   C2B 3503  -0.014   3.413   4.464 -0.0166  0.0845  0.4054
  256POPC   C3B 3504   0.412   3.106   4.590  0.2435  0.1744 -0.0771
  256POPC   C4B 3505   0.571   2.935   4.991 -0.0787  0.2536 -0.0693
  257POPC   NC3 3506   5.927   3.315   3.340  0.0830  0.2736 -0.0107
  257POPC   PO4 3507   5.911   3.199   3.750  0.1287  0.0191 -0.2439
  257POPC   GL1 3508   5.918   3.158   4.271  0.3067 -0.3887  0.1012
  257POPC   GL2 3509   6.231   3.040   4.357 -0.0442 -0.0058 -0.1440
  257POPC   C1A 3510   5.813   3.445   4.650  0.1787 -0.5112  0.0455
  257POPC   D2A 3511   5.636   3.559   5.019 -0.2611  0.1723  0.0558
  257POPC   C3A 3512   5.713   3.335   5.435 -0.1893 -0.1186 -0.1566
  257POPC   C4A 3513   5.613   3.187   5.885  0.0739 -0.0606 -0.1338
  257POPC   C1B 3514   6.309   3.378   4.622 -0.0204 -0.2353  0.0068
  257POPC   C2B 3515   6.238   3.771   4.789 -0.0712 -0.0835 -0.2014
  257POPC   C3B 3516   5.952   3.991   4.747  0.0917  0.1035 -0.2277
  257POPC   C4B 3517   5.556   4.032   4.815  0.0512  0.0589  0.1838
  258POPC   NC3 3518   6.631   4.502   3.795  0.1095  0.3156 -0.0666
  258POPC   PO4 3519   6.617   4.879   3.950 -0.1970 -0.0708  0.3312
  258POPC   GL1 3520   6.746   4.875   4.410  0.0768 -0.0044 -0.0636
  258POPC   GL2 3521   6.841   5.202   4.446 -0.1705 -0.0601  0.0264
  258POPC   C1A 3522   6.704   4.685   4.800 -0.0710  0.0614 -0.2409
  258POPC   D2A 3523   6.685   4.528   5.200  0.0752  0.1224  0.0611
  258POPC   C3A 3524   6.844   4.166   5.386 -0.1921  0.2640 -0.0420
  258POPC   C4A 3525   6.906   4.062   5.736 -0.1960  0.1109  0.2199
  258POPC   C1B 3526   7.204   4.972   4.732  0.0096  0.0470 -0.0197
  258POPC   C2B 3527   7.129   4.681   4.988  0.0873 -0.1181  0.3388
  258POPC   C3B 3528   7.310   4.267   5.165  0.1645  0.2282 -0.1305
  258POPC   C4B 3529   7.416   4.047   5.434  0.0617 -0.0646  0.3057
  259POPC   NC3 3530   5.039   6.961   3.498  0.1819  0.0273  0.2496
  259POPC   PO4 3531   4.788   6.976   3.851  0.0881 -0.1752 -0.2728
  259POPC   GL1 3532   4.885   7.151   4.186  0.2509 -0.1386 -0.1009
  259POPC   GL2 3533   4.731   7.466   4.256 -0.0766 -0.0994  0.4249
  259POPC   C1A 3534   4.890   7.159   4.648 -0.0067 -0.0869  0.2222
  259POPC   D2A 3535   5.066   6.946   5.068  0.1465 -0.1024 -0.1037
  259POPC   C3A 3536   4.758   6.941   5.422 -0.2038  0.1048  0.0714
  259POPC   C4A 3537   4.730   6.761   5.749  0.0032  0.0798  0.2449
  259POPC   C1B 3538   5.099   7.653   4.569 -0.1582  0.0879  0.2013
  259POPC   C2B 3539   4.974   7.862   5.034  0.3154 -0.3802  0.1139
  259POPC   C3B 3540   4.529   7.885   5.223  0.3772  0.2413  0.1046
  259POPC   C4B 3541   4.210   7.775   5.570 -0.1938 -0.1808  0.0287
  260POPC   NC3 3542   6.119   4.692   3.835  0.3383  0.2720  0.3607
  260POPC   PO4 3543   5.669   4.908   3.815  0.1336 -0.3244  0.1662
  260POPC   GL1 3544   5.718   4.785   4.167 -0.2090 -0.1539  0.1051
  260POPC   GL2 3545   5.462   4.586   4.245  0.3047 -0.3878  0.0748
  260POPC   C1A 3546   5.787   4.955   4.593  0.1329  0.1396 -0.1021
  260POPC   D2A 3547   5.469   5.220   4.882 -0.0712 -0.0345 -0.1258
  260POPC   C3A 3548   5.465   5.430   5.235 -0.1050 -0.2357  0.1912
  260POPC   C4A 3549   5.463   5.583   5.672 -0.0039 -0.2774 -0.2981
  260POPC   C1B 3550   5.236   4.296   4.507 -0.0335  0.0985 -0.0373
  260POPC   C2B 3551   5.088   4.279   4.908 -0.0826  0.2159 -0.1515
  260POPC   C3B 3552   5.280   4.256   5.328  0.2135  0.2168 -0.0386
  260POPC   C4B 3553   5.498   4.642   5.590 -0.0622 -0.1116 -0.0219
  261POPC   NC3 3554   8.454   5.272   3.616 -0.0801  0.1356  0.0901
  261POPC   PO4 3555   8.763   5.001   3.779 -0.1992 -0.3080  0.1609
  261POPC   GL1 3556   8.591   4.877   4.196  0.2129  0.3856  0.0083
  261POPC   GL2 3557   8.902   5.002   4.343 -0.4563  0.3043 -0.1147
  261POPC   C1A 3558   8.497   4.789   4.607  0.2403 -0.0793 -0.0319
  261POPC   D2A 3559   8.625   4.902   5.025  0.0073 -0.1284  0.0274
  261POPC   C3A 3560   8.425   4.834   5.425  0.2308 -0.2806 -0.4858
  261POPC   C4A 3561   7.993   5.012   5.563 -0.0799  0.0841 -0.2291
  261POPC   C1B 3562   9.006   5.125   4.741  0.0456 -0.0588  0.0525
  261POPC   C2B 3563   9.077   5.139   5.135  0.0928  0.4049 -0.0267
  261POPC   C3B 3564   8.931   5.184   5.555  0.0412  0.1135  0.1459
  261POPC   C4B 3565   8.974   4.838   5.877 -0.2018 -0.0036 -0.3133
  262POPC   NC3 3566   0.973   5.806   2.905 -0.2695  0.1690 -0.0873
  262POPC   PO4 3567   0.945   6.019   3.361 -0.1675 -0.3160  0.0374
  262POPC   GL1 3568   0.853   6.088   3.798  0.2489  0.2517  0.1085
  262POPC   GL2 3569   0.982   6.318   4.053  0.4144 -0.0126  0.5888
  262POPC   C1A 3570   0.777   5.922   4.158 -0.2012 -0.3304 -0.0527
  262POPC   D2A 3571   0.718   5.531   4.441 -0.3148  0.0596 -0.2471
  262POPC   C3A 3572   0.533   5.695   4.824 -0.1920 -0.0029 -0.0324
  262POPC   C4A 3573   0.428   6.079   5.000 -0.1120  0.1128  0.1246
  262POPC   C1B 3574   0.914   6.469   4.418 -0.2417 -0.4380 -0.1320
  262POPC   C2B 3575   0.804   6.457   4.834 -0.0344 -0.1765 -0.0274
  262POPC   C3B 3576   0.782   6.418   5.214 -0.0109  0.1421  0.2076
  262POPC   C4B 3577   0.522   6.181   5.461  0.0272 -0.1307 -0.0945
  263POPC   NC3 3578   4.672   9.118   3.620 -0.4406  0.2525  0.3797
  263POPC   PO4 3579   4.337   9.385   3.742 -0.1490 -0.4062 -0.2568
  263POPC   GL1 3580   4.423   9.239   4.178 -0.0732  0.0631  0.0634
  263POPC   GL2 3581   4.686   9.227   4.128 -0.0313  0.0721 -0.1694
  263POPC   C1A 3582   4.314   8.868   4.426 -0.2352 -0.0301 -0.0956
  263POPC   D2A 3583   3.913   8.669   4.611 -0.1211  0.2862 -0.1410
  263POPC   C3A 3584   4.073   8.479   5.006  0.2015 -0.0860  0.0946
  263POPC   C4A 3585   4.273   8.408   5.418  0.0721  0.1565  0.2361
  263POPC   C1B 3586   4.927   9.107   4.469  0.3293  0.0191  0.1297
  263POPC   C2B 3587   4.983   9.298   4.827  0.2745  0.0126 -0.2947
  263POPC   C3B 3588   4.928   9.620   5.030 -0.1207  0.1387 -0.2172
  263POPC   C4B 3589   5.257   9.902   5.146 -0.0539 -0.2582  0.1974
  264POPC   NC3 3590   9.752   0.639   3.783  0.0717 -0.0080  0.0739
  264POPC   PO4 3591   9.585   0.233   3.829  0.2352  0.3300 -0.1322
  264POPC   GL1 3592   9.779   0.432   4.258 -0.0670 -0.0302  0.3385
  264POPC   GL2 3593   9.730   0.857   4.259  0.1083  0.0283  0.0863
  264POPC   C1A 3594   9.763   0.503   4.706  0.0427  0.1070  0.2090
  264POPC   D2A 3595   9.994   0.257   5.012 -0.0026  0.0889 -0.2709
  264POPC   C3A 3596  10.242   0.057   4.861  0.3984  0.2008  0.1316
  264POPC   C4A 3597  10.520  -0.279   5.018 -0.0255 -0.1893  0.0518
  264POPC   C1B 3598  10.034   0.996   4.580  0.0076  0.0077  0.0502
  264POPC   C2B 3599  10.093   0.967   5.067 -0.1765 -0.2068  0.3698
  264POPC   C3B 3600  10.420   0.700   5.346 -0.1275 -0.1195  0.1684
  264POPC   C4B 3601  10.267   0.682   5.785 -0.3403 -0.2004  0.0577
  265POPC   NC3 3602   6.002   2.708   3.970  0.0945  0.0318  0.1455
  265POPC   PO4 3603   5.620   2.847   4.057  0.2946 -0.1472  0.1505
  265POPC   GL1 3604   5.378   2.968   4.405 -0.0311  0.5306  0.0391
  265POPC   GL2 3605   5.001   2.982   4.557 -0.0045 -0.1941  0.2173
  265POPC   C1A 3606   5.646   2.980   4.807 -0.3911 -0.1012  0.0079
  265POPC   D2A 3607   5.667   3.035   5.102  0.2427  0.0346  0.0027
  265POPC   C3A 3608   5.726   2.799   5.401 -0.1617 -0.1901 -0.0963
  265POPC   C4A 3609   5.409   2.750   5.691 -0.0651 -0.2819 -0.1025
  265POPC   C1B 3610   4.945   2.930   4.949  0.0377  0.0866 -0.0713
  265POPC   C2B 3611   5.071   2.772   5.302  0.0818  0.0739  0.3134
  265POPC   C3B 3612   4.820   2.580   5.630 -0.4409  0.1667  0.4790
  265POPC   C4B 3613   4.901   2.286   6.003  0.0144  0.2935  0.2098
  266POPC   NC3 3614   5.700   4.106   3.528 -0.0300  0.2100  0.0709
  266POPC   PO4 3615   5.776   4.335   3.977  0.4887  0.1452 -0.0747
  266POPC   GL1 3616   5.937   4.333   4.285 -0.2051 -0.2751 -0.0132
  266POPC   GL2 3617   6.280   4.253   4.214 -0.0805  0.1580  0.1630
  266POPC   C1A 3618   5.765   4.439   4.647  0.1075 -0.1604  0.0850
  266POPC   D2A 3619   5.773   4.359   5.144 -0.0644 -0.0088  0.1666
  266POPC   C3A 3620   5.801   3.937   5.415  0.1749  0.1626  0.1977
  266POPC   C4A 3621   6.114   3.573   5.325 -0.0296  0.0060 -0.0691
  266POPC   C1B 3622   6.338   4.264   4.628 -0.0172  0.1290 -0.0571
  266POPC   C2B 3623   6.352   4.222   5.005 -0.2568  0.1347 -0.0519
  266POPC   C3B 3624   6.257   4.071   5.431  0.1746  0.1099 -0.3372
  266POPC   C4B 3625   6.279   3.930   5.804 -0.0636  0.1605  0.0470
  267POPC   NC3 3626  10.004   1.893   3.528  0.0828  0.0634  0.0773
  267POPC   PO4 3627  10.066   1.524   3.744 -0.1162 -0.1287 -0.1517
  267POPC   GL1 3628  10.131   1.663   4.145 -0.2662  0.0076  0.0263
  267POPC   GL2 3629   9.837   1.404   4.265 -0.1992 -0.1346 -0.1463
  267POPC   C1A 3630  10.198   1.798   4.505  0.1918 -0.1822 -0.2887
  267POPC   D2A 3631  10.359   1.931   4.905  0.3150  0.1176 -0.0251
  267POPC   C3A 3632  10.528   1.777   5.268 -0.0323 -0.0585 -0.2823
  267POPC   C4A 3633  10.962   1.920   5.663  0.0101 -0.0160 -0.2127
  267POPC   C1B 3634   9.929   1.463   4.775 -0.2898  0.1716 -0.0242
  267POPC   C2B 3635   9.996   1.544   5.202  0.0603 -0.2435  0.1410
  267POPC   C3B 3636  10.091   1.759   5.529  0.0733 -0.2282  0.0641
  267POPC   C4B 3637   9.752   2.069   5.690 -0.1720 -0.2241 -0.1297
  268POPC   NC3 3638   4.601   3.303   3.546 -0.1495 -0.1020  0.2687
  268POPC   PO4 3639   4.829   3.357   3.908  0.0061 -0.1513  0.2868
  268POPC   GL1 3640   4.618   3.192   4.240 -0.4290 -0.2683 -0.0792
  268POPC   GL2 3641   4.487   2.897   4.319  0.1336 -0.0159 -0.1243
  268POPC   C1A 3642   4.327   3.297   4.612 -0.0589 -0.0273  0.0077
  268POPC   D2A 3643   3.949   3.212   4.801 -0.0373  0.2516 -0.1209
  268POPC   C3A 3644   3.919   3.113   5.189  0.1802  0.1639 -0.0553
  268POPC   C4A 3645   3.836   3.311   5.537  0.0400 -0.0112  0.0482
  268POPC   C1B 3646   4.511   2.857   4.729  0.3560 -0.0871 -0.0920
  268POPC   C2B 3647   4.435   3.146   5.116 -0.2500  0.0100  0.2156
  268POPC   C3B 3648   4.326   3.366   5.518  0.1803 -0.1096 -0.0852
  268POPC   C4B 3649   4.348   3.611   5.922  0.0369 -0.1260 -0.0921
  269POPC   NC3 3650  10.194   7.650   3.370 -0.0211 -0.1029 -0.0798
  269POPC   PO4 3651  10.015   7.818   3.727 -0.1896  0.3225  0.1406
  269POPC   GL1 3652   9.860   7.993   4.070  0.2784 -0.0420 -0.0091
  269POPC   GL2 3653   9.641   7.949   4.311 -0.1408  0.0402 -0.1188
  269POPC   C1A 3654   9.929   8.246   4.501 -0.1824  0.1239  0.0937
  269POPC   D2A 3655  10.147   8.391   4.964 -0.0357 -0.2826 -0.0118
  269POPC   C3A 3656  10.185   8.504   5.322 -0.0295 -0.0234 -0.1269
  269POPC   C4A 3657   9.852   8.247   5.555 -0.2545  0.0696  0.0361
  269POPC   C1B 3658   9.430   7.820   4.659  0.2719 -0.1812 -0.0818
  269POPC   C2B 3659   9.307   7.504   4.754  0.0202  0.3511  0.0380
  269POPC   C3B 3660   8.978   7.233   5.029  0.2084 -0.0990 -0.3219
  269POPC   C4B 3661   8.644   7.141   5.380  0.0824  0.0712 -0.1332
  270POPC   NC3 3662   6.049   6.635   3.711  0.1718 -0.1234  0.0084
  270POPC   PO4 3663   5.590   6.758   3.609  0.0304 -0.0801  0.0213
  270POPC   GL1 3664   5.615   6.527   4.006 -0.1144  0.0777  0.5150
  270POPC   GL2 3665   5.880   6.217   4.010  0.1230 -0.1755 -0.1804
  270POPC   C1A 3666   5.696   6.537   4.452  0.0504  0.1133  0.2424
  270POPC   D2A 3667   5.719   6.310   4.803  0.0808  0.2247 -0.0828
  270POPC   C3A 3668   5.766   6.504   5.219  0.0271  0.1898 -0.1898
  270POPC   C4A 3669   5.750   6.670   5.537 -0.1329  0.0307 -0.1244
  270POPC   C1B 3670   6.104   6.134   4.441  0.0460 -0.0013  0.1336
  270POPC   C2B 3671   6.144   5.925   4.794  0.0139 -0.4223  0.1682
  270POPC   C3B 3672   5.975   6.081   5.144 -0.1352  0.0829 -0.4794
  270POPC   C4B 3673   5.894   6.151   5.627 -0.0285  0.2983 -0.3591
  271POPC   NC3 3674   9.260   4.892   3.708  0.1117 -0.1205 -0.2364
  271POPC   PO4 3675   9.208   5.205   4.077  0.1069  0.0561  0.0074
  271POPC   GL1 3676   9.433   5.346   4.536  0.2194  0.0394  0.0395
  271POPC   GL2 3677   9.688   5.149   4.600 -0.2263 -0.1294  0.2175
  271POPC   C1A 3678   9.367   5.602   4.860 -0.2533 -0.3714 -0.1536
  271POPC   D2A 3679   9.361   5.942   4.935 -0.0331  0.0060 -0.4113
  271POPC   C3A 3680   9.625   6.011   5.246  0.0674  0.0390 -0.0347
  271POPC   C4A 3681   9.829   6.230   5.606  0.1328 -0.0580  0.2627
  271POPC   C1B 3682   9.695   5.240   4.970 -0.0597  0.0346 -0.1929
  271POPC   C2B 3683   9.796   5.128   5.440  0.2222 -0.0036  0.1823
  271POPC   C3B 3684   9.936   5.270   5.821  0.0888  0.0788 -0.1349
  271POPC   C4B 3685  10.204   5.572   5.893  0.0183 -0.2324 -0.1414
  272POPC   NC3 3686   4.346   0.414   3.909 -0.2927 -0.2168 -0.0407
  272POPC   PO4 3687   4.690   0.707   3.731 -0.0688 -0.2628 -0.0487
  272POPC   GL1 3688   4.737   1.061   4.157  0.0704  0.0191 -0.2618
  272POPC   GL2 3689   4.958   1.289   4.069  0.0141 -0.0499 -0.1787
  272POPC   C1A 3690   4.776   1.248   4.563  0.2055 -0.0460 -0.0807
  272POPC   D2A 3691   4.909   0.949   4.828  0.0985  0.1574  0.1875
  272POPC   C3A 3692   5.178   1.141   5.124 -0.2296  0.3569  0.2835
  272POPC   C4A 3693   5.526   1.118   5.412  0.1817  0.1847 -0.2534
  272POPC   C1B 3694   5.205   1.171   4.362  0.2601  0.2344 -0.1251
  272POPC   C2B 3695   5.516   1.178   4.758 -0.3778  0.0600  0.2770
  272POPC   C3B 3696   5.441   0.811   4.935  0.0769  0.1527 -0.2489
  272POPC   C4B 3697   5.537   0.566   5.304 -0.1621  0.2236 -0.1062
  273POPC   NC3 3698   6.010   9.933   3.781  0.1083 -0.1960 -0.2562
  273POPC   PO4 3699   5.793  10.380   3.766  0.2833  0.3152 -0.0656
  273POPC   GL1 3700   5.956  10.304   4.126  0.0457 -0.3142 -0.3589
  273POPC   GL2 3701   6.244  10.305   4.030  0.0168  0.0693 -0.3208
  273POPC   C1A 3702   6.102  10.202   4.589 -0.2272 -0.1961 -0.1428
  273POPC   D2A 3703   6.281  10.289   5.013  0.3327  0.1531  0.2191
  273POPC   C3A 3704   6.139  10.234   5.395  0.0826  0.1503  0.1107
  273POPC   C4A 3705   5.822  10.516   5.596  0.1129 -0.1623  0.0907
  273POPC   C1B 3706   6.418  10.497   4.339  0.0035  0.1316 -0.0133
  273POPC   C2B 3707   6.715  10.750   4.551 -0.0728  0.0512  0.0304
  273POPC   C3B 3708   6.621  10.846   5.014 -0.1684  0.3415 -0.0346
  273POPC   C4B 3709   6.569  11.065   5.440 -0.3285 -0.2599  0.1442
  274POPC   NC3 3710   8.798   9.626   3.806  0.2356 -0.1208 -0.0855
  274POPC   PO4 3711   8.436   9.457   3.815 -0.2906  0.1286 -0.2858
  274POPC   GL1 3712   8.269   9.820   4.301 -0.0783  0.0722  0.0734
  274POPC   GL2 3713   8.119  10.129   4.332  0.0743 -0.1061 -0.0997
  274POPC   C1A 3714   8.449   9.879   4.707 -0.3036 -0.4382  0.0190
  274POPC   D2A 3715   8.288   9.903   5.204  0.4789  0.0364  0.0827
  274POPC   C3A 3716   7.899  10.130   5.388 -0.0928  0.0154 -0.1417
  274POPC   C4A 3717   7.514  10.295   5.559  0.1210 -0.0788 -0.3067
  274POPC   C1B 3718   8.131  10.388   4.702  0.1846 -0.1572 -0.0305
  274POPC   C2B 3719   7.940  10.694   5.024  0.1759  0.2357 -0.2864
  274POPC   C3B 3720   7.504  10.769   5.264  0.0907 -0.0853 -0.0069
  274POPC   C4B 3721   7.358  10.736   5.746  0.0547 -0.0231  0.1557
  275POPC   NC3 3722   7.138   2.922   3.699 -0.1173 -0.1260  0.2212
  275POPC   PO4 3723   6.910   3.068   3.980  0.0520 -0.0864 -0.2114
  275POPC   GL1 3724   6.742   3.054   4.357  0.2708  0.1687  0.0320
  275POPC   GL2 3725   6.645   2.715   4.403 -0.1516  0.1269 -0.1709
  275POPC   C1A 3726   6.683   3.016   4.841 -0.1892  0.3172 -0.1295
  275POPC   D2A 3727   6.491   2.768   5.204  0.2144  0.2631 -0.2078
  275POPC   C3A 3728   6.599   2.576   5.447  0.0474  0.1483  0.2865
  275POPC   C4A 3729   6.911   2.259   5.555  0.1074 -0.1720  0.3529
  275POPC   C1B 3730   6.643   2.518   4.768  0.1280 -0.0457 -0.0883
  275POPC   C2B 3731   6.568   2.191   5.099  0.0488 -0.0109  0.3241
  275POPC   C3B 3732   6.403   2.103   5.609 -0.0631 -0.3840  0.2836
  275POPC   C4B 3733   6.224   1.947   5.846 -0.0948 -0.0162 -0.2496
  276POPC   NC3 3734   9.144   0.172   3.596 -0.0584 -0.1143 -0.1522
  276POPC   PO4 3735   9.084  -0.119   3.895 -0.2187  0.1688  0.0821
  276POPC   GL1 3736   8.883  -0.142   4.228  0.3894 -0.1796  0.1111
  276POPC   GL2 3737   8.784  -0.458   4.354 -0.0004 -0.0543 -0.0665
  276POPC   C1A 3738   8.893  -0.118   4.755 -0.2044 -0.1219 -0.0642
  276POPC   D2A 3739   8.982   0.117   5.146 -0.2408 -0.2359  0.0790
  276POPC   C3A 3740   9.240  -0.111   5.427 -0.0116 -0.3826 -0.0623
  276POPC   C4A 3741   9.537  -0.421   5.325 -0.4153  0.1108 -0.0586
  276POPC   C1B 3742   8.941  -0.805   4.592 -0.1364 -0.0170  0.1044
  276POPC   C2B 3743   8.941  -0.925   4.957  0.1465 -0.1925 -0.3411
  276POPC   C3B 3744   8.708  -0.856   5.377 -0.1595 -0.2718 -0.0436
  276POPC   C4B 3745   8.448  -1.083   5.702  0.0278 -0.3252 -0.0974
  277POPC   NC3 3746   7.034   1.568   3.724 -0.2600  0.0183 -0.2176
  277POPC   PO4 3747   6.844   1.173   3.889  0.1060 -0.0079 -0.3136
  277POPC   GL1 3748   6.877   1.197   4.420  0.0940 -0.1478  0.0884
  277POPC   GL2 3749   7.235   1.299   4.590 -0.1238 -0.0348  0.0864
  277POPC   C1A 3750   6.850   0.996   4.767 -0.2770 -0.0947  0.1258
  277POPC   D2A 3751   7.081   0.870   5.118 -0.1797  0.0995 -0.1461
  277POPC   C3A 3752   7.045   0.851   5.545 -0.3830 -0.2202 -0.3257
  277POPC   C4A 3753   6.873   0.604   5.782 -0.2613 -0.1810 -0.0841
  277POPC   C1B 3754   7.328   1.399   4.979  0.1578 -0.0034  0.2124
  277POPC   C2B 3755   7.229   1.521   5.362 -0.1574 -0.0506 -0.0613
  277POPC   C3B 3756   7.161   1.844   5.625  0.1395  0.0236 -0.0841
  277POPC   C4B 3757   6.771   1.904   5.847  0.0093  0.1929  0.2407
  278POPC   NC3 3758  10.124   8.600   3.727 -0.1636  0.1865  0.1773
  278POPC   PO4 3759  10.592   8.567   3.791  0.0881 -0.1256  0.3419
  278POPC   GL1 3760  10.702   8.922   4.137  0.0710 -0.1328 -0.0752
  278POPC   GL2 3761  11.071   9.085   4.121  0.2733 -0.0905  0.0857
  278POPC   C1A 3762  10.818   8.818   4.577 -0.0193  0.0903  0.2359
  278POPC   D2A 3763  10.686   8.488   4.777 -0.0275  0.0212  0.1491
  278POPC   C3A 3764  10.622   8.647   5.149  0.0465 -0.0987  0.0419
  278POPC   C4A 3765  10.619   8.777   5.479 -0.3478  0.0462  0.0210
  278POPC   C1B 3766  11.453   9.062   4.393  0.1928 -0.0370  0.0550
  278POPC   C2B 3767  11.701   9.095   4.796 -0.1706  0.3852 -0.3681
  278POPC   C3B 3768  11.539   8.902   5.173  0.1874 -0.0519 -0.3662
  278POPC   C4B 3769  11.643   8.713   5.539  0.6111  0.1131 -0.0214
  279POPC   NC3 3770   8.660   4.134   3.326 -0.1160 -0.3931  0.2700
  279POPC   PO4 3771   8.262   4.061   3.531 -0.2224 -0.1526  0.0762
  279POPC   GL1 3772   8.125   4.113   3.918  0.0097 -0.0076  0.1463
  279POPC   GL2 3773   8.105   3.772   4.036  0.2422 -0.1177  0.0410
  279POPC   C1A 3774   8.426   4.143   4.273 -0.0095  0.2482  0.3336
  279POPC   D2A 3775   8.444   3.990   4.642  0.1119  0.0566 -0.2928
  279POPC   C3A 3776   8.192   3.961   4.926 -0.2253 -0.2858 -0.1884
  279POPC   C4A 3777   7.902   4.163   5.037 -0.0415  0.1176  0.0607
  279POPC   C1B 3778   8.102   3.604   4.431 -0.1526  0.2356 -0.0697
  279POPC   C2B 3779   8.066   3.369   4.881  0.0306 -0.0121  0.2663
  279POPC   C3B 3780   7.855   3.074   5.145 -0.0131 -0.2479  0.2990
  279POPC   C4B 3781   7.499   2.927   5.324  0.2886 -0.0438 -0.1922
  280POPC   NC3 3782   1.319   3.888   3.684  0.0334 -0.0110  0.0332
  280POPC   PO4 3783   1.658   3.671   3.523  0.0631 -0.0214  0.0572
  280POPC   GL1 3784   1.964   3.787   3.869 -0.1889 -0.0695 -0.2798
  280POPC   GL2 3785   1.688   3.904   4.013 -0.4314  0.0395 -0.0783
  280POPC   C1A 3786   2.207   4.037   4.163 -0.1878  0.1975 -0.0568
  280POPC   D2A 3787   2.173   4.342   4.561 -0.1582  0.0088  0.1923
  280POPC   C3A 3788   2.498   4.657   4.494 -0.1380 -0.1486 -0.0227
  280POPC   C4A 3789   2.606   4.935   4.891 -0.1912  0.4977  0.1903
  280POPC   C1B 3790   1.674   4.118   4.375 -0.1371 -0.1440 -0.1174
  280POPC   C2B 3791   1.764   4.186   4.737 -0.2995  0.0518 -0.2064
  280POPC   C3B 3792   1.979   4.130   5.061  0.0344  0.1228  0.1078
  280POPC   C4B 3793   2.061   3.755   5.159 -0.2293  0.2173  0.0317
  281POPC   NC3 3794   1.456   7.166   2.911 -0.1014  0.2000  0.1376
  281POPC   PO4 3795   1.517   7.224   3.373 -0.1048  0.0024  0.1294
  281POPC   GL1 3796   1.541   7.448   3.747 -0.1789 -0.3143 -0.0476
  281POPC   GL2 3797   1.265   7.492   3.921 -0.1687 -0.0305  0.1359
  281POPC   C1A 3798   1.725   7.475   4.194 -0.1014 -0.2710  0.0622
  281POPC   D2A 3799   1.595   7.523   4.588 -0.0004  0.4434 -0.2087
  281POPC   C3A 3800   1.546   7.819   5.013 -0.0472  0.0853 -0.2607
  281POPC   C4A 3801   1.107   7.789   5.293  0.2111 -0.0122 -0.2775
  281POPC   C1B 3802   1.261   7.292   4.283 -0.1999 -0.2686 -0.1109
  281POPC   C2B 3803   1.127   6.927   4.482  0.1126  0.1386 -0.1443
  281POPC   C3B 3804   1.292   6.587   4.793  0.1119 -0.1424 -0.0160
  281POPC   C4B 3805   1.262   6.366   5.210  0.1964 -0.0720 -0.4221
  282POPC   NC3 3806   2.886   5.512   3.663 -0.0525  0.2884  0.1815
  282POPC   PO4 3807   3.344   5.248   3.771  0.3076  0.0451  0.1014
  282POPC   GL1 3808   3.155   5.235   4.195  0.3384  0.2207  0.3580
  282POPC   GL2 3809   2.994   5.545   4.356 -0.2148 -0.0113  0.1803
  282POPC   C1A 3810   2.839   5.101   4.480  0.0787 -0.2319  0.1862
  282POPC   D2A 3811   2.326   5.192   4.514  0.4676  0.2569 -0.0343
  282POPC   C3A 3812   2.134   5.109   4.957 -0.2576 -0.0303  0.0663
  282POPC   C4A 3813   1.766   4.967   5.164 -0.2108  0.0393 -0.0590
  282POPC   C1B 3814   2.671   5.506   4.773  0.4014  0.0746 -0.0262
  282POPC   C2B 3815   2.555   5.338   5.209  0.2016  0.1323  0.2731
  282POPC   C3B 3816   2.341   4.986   5.439 -0.0924 -0.0311 -0.0869
  282POPC   C4B 3817   2.056   5.007   5.853  0.2493  0.2352  0.0640
  283POPC   NC3 3818   1.260   7.998   3.637  0.0134  0.1452 -0.1399
  283POPC   PO4 3819   0.821   7.773   3.469  0.1599 -0.0057 -0.1226
  283POPC   GL1 3820   0.915   7.920   4.002  0.2843  0.4159 -0.2053
  283POPC   GL2 3821   1.002   8.167   4.123  0.1048  0.1563 -0.0822
  283POPC   C1A 3822   0.842   7.646   4.321 -0.0478  0.0252  0.0747
  283POPC   D2A 3823   0.645   7.272   4.503 -0.0691  0.0137  0.1003
  283POPC   C3A 3824   0.733   6.910   4.829 -0.0850 -0.1577  0.1807
  283POPC   C4A 3825   0.475   6.812   5.130 -0.1472  0.1978  0.1702
  283POPC   C1B 3826   0.745   8.104   4.608 -0.0576 -0.1623  0.1138
  283POPC   C2B 3827   0.720   8.005   5.061 -0.0574 -0.1562  0.2583
  283POPC   C3B 3828   0.703   8.275   5.501 -0.2757  0.0568 -0.0052
  283POPC   C4B 3829   0.716   8.556   5.878 -0.1188  0.2099 -0.0947
  284POPC   NC3 3830   2.935   6.960   3.930 -0.1071  0.2563  0.2062
  284POPC   PO4 3831   3.134   7.373   4.027  0.0497 -0.0060  0.0607
  284POPC   GL1 3832   3.382   7.132   4.382  0.0718  0.3487  0.1158
  284POPC   GL2 3833   3.700   7.222   4.595 -0.1157  0.0557 -0.2051
  284POPC   C1A 3834   3.213   6.911   4.687  0.0764 -0.2314 -0.1034
  284POPC   D2A 3835   3.005   6.960   5.021  0.0738 -0.2837  0.2726
  284POPC   C3A 3836   2.804   7.150   5.339 -0.0817  0.0767 -0.1815
  284POPC   C4A 3837   2.755   7.546   5.700  0.2463 -0.0368 -0.0333
  284POPC   C1B 3838   3.821   7.598   4.674 -0.1304  0.1299  0.0868
  284POPC   C2B 3839   3.675   7.811   4.941 -0.0010  0.1492  0.2204
  284POPC   C3B 3840   3.441   7.842   5.339 -0.4537 -0.1538  0.0721
  284POPC   C4B 3841   3.324   8.199   5.519  0.3848  0.4263  0.1623
  285POPC   NC3 3842   2.046   1.746   3.463  0.0431 -0.2839 -0.0199
  285POPC   PO4 3843   2.089   2.146   3.198 -0.0662  0.1098 -0.0022
  285POPC   GL1 3844   2.172   2.182   3.639 -0.1539 -0.2578  0.1548
  285POPC   GL2 3845   2.489   2.005   3.773  0.2807  0.0546  0.0368
  285POPC   C1A 3846   1.947   2.412   4.004  0.1766 -0.0385  0.0369
  285POPC   D2A 3847   1.555   2.456   4.327 -0.1783  0.0442 -0.1572
  285POPC   C3A 3848   1.564   2.459   4.765 -0.0828 -0.2520 -0.0578
  285POPC   C4A 3849   1.521   2.495   5.150  0.0193  0.1511 -0.0785
  285POPC   C1B 3850   2.360   2.113   4.206  0.4025 -0.0818 -0.0146
  285POPC   C2B 3851   1.857   2.096   4.474 -0.1876  0.0341  0.0125
  285POPC   C3B 3852   1.506   1.945   4.440 -0.1274 -0.1091 -0.0074
  285POPC   C4B 3853   1.181   1.628   4.675  0.0587  0.1104  0.2047
  286POPC   NC3 3854   1.341   6.206   3.545  0.2745 -0.0711  0.3508
  286POPC   PO4 3855   0.961   6.504   3.530  0.0170  0.1740  0.3491
  286POPC   GL1 3856   1.326   6.648   3.817 -0.1485 -0.1384  0.0734
  286POPC   GL2 3857   1.273   6.956   3.881  0.1060 -0.0371  0.0054
  286POPC   C1A 3858   1.440   6.637   4.260  0.1749  0.1163 -0.2833
  286POPC   D2A 3859   1.664   6.977   4.410  0.0027 -0.0502 -0.1919
  286POPC   C3A 3860   1.457   7.089   4.826 -0.3838  0.0501  0.2324
  286POPC   C4A 3861   1.370   7.394   5.181 -0.2625  0.0469  0.2294
  286POPC   C1B 3862   0.848   6.944   4.061 -0.0564  0.1275  0.0913
  286POPC   C2B 3863   0.557   6.827   4.311 -0.2444  0.3007 -0.0779
  286POPC   C3B 3864   0.378   6.695   4.585  0.2235 -0.1553 -0.2590
  286POPC   C4B 3865   0.184   6.511   4.916  0.1170  0.1968 -0.1583
  287POPC   NC3 3866   8.729   7.510   3.825 -0.0673  0.0260  0.0092
  287POPC   PO4 3867   8.904   7.184   3.868  0.0582 -0.1534 -0.0877
  287POPC   GL1 3868   8.872   7.107   4.229  0.0601  0.0483 -0.4291
  287POPC   GL2 3869   9.062   7.204   4.501  0.1211  0.0418  0.3033
  287POPC   C1A 3870   8.567   7.054   4.581  0.1770 -0.0999  0.2532
  287POPC   D2A 3871   8.516   6.899   4.949 -0.3827  0.0143 -0.1563
  287POPC   C3A 3872   8.086   6.889   5.212  0.2174  0.0068 -0.0722
  287POPC   C4A 3873   7.682   6.875   5.370 -0.1084  0.2827  0.0320
  287POPC   C1B 3874   9.022   6.829   4.682  0.3228 -0.1075 -0.0759
  287POPC   C2B 3875   9.044   6.782   5.264 -0.2415 -0.0882 -0.1496
  287POPC   C3B 3876   8.863   6.627   5.829 -0.0162 -0.2194 -0.0039
  287POPC   C4B 3877   8.737   6.536   6.183  0.1523  0.1325  0.0265
  288POPC   NC3 3878   2.962   1.276   3.341  0.1939 -0.1796  0.1075
  288POPC   PO4 3879   3.196   0.977   3.605 -0.1047 -0.1638  0.0503
  288POPC   GL1 3880   2.909   0.958   4.022  0.1654 -0.1449 -0.0801
  288POPC   GL2 3881   2.541   0.651   4.071  0.0390 -0.1217  0.1815
  288POPC   C1A 3882   2.530   1.159   4.230 -0.1761  0.2756  0.2561
  288POPC   D2A 3883   2.145   0.963   4.168  0.3314 -0.1558 -0.1487
  288POPC   C3A 3884   1.758   0.843   4.443 -0.1242 -0.1169 -0.2018
  288POPC   C4A 3885   1.512   0.706   4.778 -0.0971 -0.2281 -0.1498
  288POPC   C1B 3886   2.141   0.544   3.928  0.2709 -0.3347  0.0171
  288POPC   C2B 3887   1.774   0.327   4.224 -0.0791 -0.2315  0.0836
  288POPC   C3B 3888   1.523   0.185   4.506  0.1756 -0.2174  0.0115
  288POPC   C4B 3889   1.099   0.268   4.769  0.0018  0.0653  0.2707
  289POPC   NC3 3890   2.581   2.058   3.299 -0.1521  0.0462  0.4080
  289POPC   PO4 3891   2.769   1.751   3.432  0.0603 -0.1069  0.1672
  289POPC   GL1 3892   2.954   2.032   3.738 -0.0551  0.1363  0.1669
  289POPC   GL2 3893   3.072   1.863   3.936  0.2017 -0.0313  0.1622
  289POPC   C1A 3894   2.905   2.328   3.996  0.0917 -0.2329  0.0598
  289POPC   D2A 3895   2.876   2.779   4.098  0.0832  0.4323  0.1205
  289POPC   C3A 3896   3.260   2.683   4.437  0.1548 -0.2429 -0.1787
  289POPC   C4A 3897   3.589   2.806   4.752 -0.3944  0.3487  0.1069
  289POPC   C1B 3898   2.818   1.940   4.315  0.3149  0.3046  0.0023
  289POPC   C2B 3899   2.802   1.984   4.776  0.2522  0.1051 -0.0319
  289POPC   C3B 3900   2.683   2.302   5.004  0.0460 -0.3336 -0.2908
  289POPC   C4B 3901   2.826   2.599   5.131 -0.0257 -0.0201 -0.0837
  290POPC   NC3 3902   0.777   3.246   3.768 -0.0324 -0.0559 -0.1845
  290POPC   PO4 3903   0.606   2.850   3.763 -0.1762  0.4904 -0.2137
  290POPC   GL1 3904   0.672   2.866   4.201 -0.1819 -0.1237  0.0315
  290POPC   GL2 3905   0.529   2.601   4.234  0.3922  0.0949  0.3600
  290POPC   C1A 3906   0.941   2.775   4.606 -0.3076  0.1396  0.0628
  290POPC   D2A 3907   1.205   2.782   4.938 -0.0465 -0.2094  0.0103
  290POPC   C3A 3908   1.081   2.897   5.375  0.2680  0.0146 -0.0981
  290POPC   C4A 3909   0.606   2.971   5.511 -0.1296  0.2933  0.0416
  290POPC   C1B 3910   0.469   2.460   4.679 -0.0509  0.2443  0.2568
  290POPC   C2B 3911   0.575   2.267   5.002 -0.1682 -0.3718  0.0119
  290POPC   C3B 3912   0.611   2.479   5.342 -0.0436 -0.0987  0.0348
  290POPC   C4B 3913   0.323   2.593   5.770  0.1524 -0.4354 -0.0707
  291POPC   NC3 3914   7.028   6.109   3.483  0.1678  0.1505 -0.0987
  291POPC   PO4 3915   7.425   6.330   3.396 -0.2955 -0.1195 -0.1091
  291POPC   GL1 3916   7.148   6.462   3.819  0.0595  0.1147  0.0593
  291POPC   GL2 3917   7.311   6.710   3.977  0.0222  0.1014  0.1406
  291POPC   C1A 3918   6.942   6.387   4.109 -0.1972 -0.2144  0.0650
  291POPC   D2A 3919   6.745   6.529   4.439  0.2113 -0.3795  0.1782
  291POPC   C3A 3920   6.514   6.294   4.714 -0.1860 -0.3632  0.1847
  291POPC   C4A 3921   6.552   6.046   5.016  0.1467  0.0363 -0.2001
  291POPC   C1B 3922   7.248   6.650   4.391  0.0108 -0.1230 -0.2777
  291POPC   C2B 3923   7.260   6.804   4.825 -0.0355 -0.1746 -0.2212
  291POPC   C3B 3924   7.069   6.905   5.254 -0.1838 -0.1416  0.0385
  291POPC   C4B 3925   7.088   7.007   5.784  0.1268  0.2222 -0.2023
  292POPC   NC3 3926   7.689   2.626   3.439  0.0595 -0.2351 -0.0609
  292POPC   PO4 3927   7.339   2.418   3.746 -0.0890  0.1082  0.0727
  292POPC   GL1 3928   7.417   2.509   4.222  0.1838 -0.1809  0.1986
  292POPC   GL2 3929   7.155   2.735   4.335  0.1499 -0.0192  0.2856
  292POPC   C1A 3930   7.631   2.584   4.543 -0.0771  0.1320 -0.1026
  292POPC   D2A 3931   7.664   2.396   4.921 -0.0507 -0.4440 -0.5792
  292POPC   C3A 3932   7.651   2.011   4.964  0.1706  0.1010  0.0811
  292POPC   C4A 3933   7.637   1.775   5.328  0.0148  0.0494 -0.2730
  292POPC   C1B 3934   7.173   2.661   4.796  0.0860 -0.1247 -0.0108
  292POPC   C2B 3935   7.127   2.645   5.235  0.0076  0.2788  0.0605
  292POPC   C3B 3936   6.961   2.781   5.702 -0.0242 -0.3403 -0.3416
  292POPC   C4B 3937   6.921   3.198   6.034 -0.1191  0.1183 -0.0560
  293POPC   NC3 3938   7.337  10.063   3.890 -0.1200  0.3442 -0.0320
  293POPC   PO4 3939   7.495   9.729   3.821 -0.2544  0.4926  0.0606
  293POPC   GL1 3940   7.516   9.779   4.244  0.0725  0.1306 -0.0744
  293POPC   GL2 3941   7.370  10.085   4.379 -0.2707  0.1802 -0.0735
  293POPC   C1A 3942   7.852   9.611   4.483  0.1763 -0.2057 -0.1428
  293POPC   D2A 3943   7.921   9.885   4.694 -0.2160 -0.1687 -0.1720
  293POPC   C3A 3944   7.664   9.688   5.143  0.2662 -0.2748 -0.3368
  293POPC   C4A 3945   7.519   9.750   5.633 -0.0646 -0.2966 -0.3567
  293POPC   C1B 3946   7.330   9.934   4.713 -0.1530 -0.2713  0.2050
  293POPC   C2B 3947   6.954   9.766   4.745 -0.1932  0.2721  0.1914
  293POPC   C3B 3948   6.650   9.537   4.543  0.0725  0.1795  0.0937
  293POPC   C4B 3949   6.287   9.801   4.847  0.1198 -0.2925  0.2032
  294POPC   NC3 3950   9.348   7.407   3.992 -0.0549  0.0563  0.1484
  294POPC   PO4 3951   9.138   7.704   4.096  0.0855 -0.0464 -0.1086
  294POPC   GL1 3952   8.909   7.697   4.461 -0.0973  0.2356  0.1135
  294POPC   GL2 3953   8.589   7.620   4.395 -0.3849 -0.0067  0.0179
  294POPC   C1A 3954   8.884   7.823   4.766 -0.2646 -0.1659  0.1455
  294POPC   D2A 3955   9.051   7.799   5.078  0.0836 -0.0839  0.0808
  294POPC   C3A 3956   8.997   7.488   5.496  0.0040  0.0360  0.2144
  294POPC   C4A 3957   9.062   7.104   5.725  0.3445 -0.0134  0.0407
  294POPC   C1B 3958   8.520   7.478   4.885 -0.1412 -0.0547 -0.0095
  294POPC   C2B 3959   8.438   7.612   5.410  0.1325  0.0509 -0.0404
  294POPC   C3B 3960   8.599   7.469   5.784  0.0428  0.1894 -0.0121
  294POPC   C4B 3961   8.578   7.571   6.231  0.0307  0.0088  0.1548
  295POPC   NC3 3962   8.984   2.049   3.629  0.1226  0.0745  0.0094
  295POPC   PO4 3963   9.398   2.048   3.661 -0.3601 -0.3830  0.0246
  295POPC   GL1 3964   9.342   2.260   4.083  0.0263  0.0019 -0.2732
  295POPC   GL2 3965   9.288   1.986   4.203  0.0655 -0.0834  0.1286
  295POPC   C1A 3966   9.116   2.501   4.406  0.0182  0.1608  0.1982
  295POPC   D2A 3967   8.991   2.261   4.794 -0.0235 -0.0115  0.0688
  295POPC   C3A 3968   9.116   1.836   4.682 -0.0657 -0.2061  0.0285
  295POPC   C4A 3969   8.774   1.612   4.403 -0.0494 -0.0661 -0.2032
  295POPC   C1B 3970   9.633   1.815   4.490 -0.2277 -0.1329 -0.3173
  295POPC   C2B 3971   9.832   1.937   4.847 -0.2197 -0.2392  0.1056
  295POPC   C3B 3972  10.047   2.157   5.209  0.1287  0.0602 -0.1622
  295POPC   C4B 3973  10.361   2.234   5.462 -0.2734  0.0462  0.1407
  296POPC   NC3 3974   7.277   1.566   4.165 -0.0867  0.1508 -0.0804
  296POPC   PO4 3975   7.430   1.186   4.079 -0.0490  0.3508  0.0424
  296POPC   GL1 3976   7.519   0.932   4.363 -0.2905  0.0359 -0.0704
  296POPC   GL2 3977   7.767   0.843   4.631  0.0201  0.1181  0.3271
  296POPC   C1A 3978   7.264   0.718   4.631  0.1031 -0.0185  0.0995
  296POPC   D2A 3979   7.054   0.390   4.901 -0.0791  0.4608 -0.2565
  296POPC   C3A 3980   6.983   0.412   5.309  0.2817 -0.0032 -0.0585
  296POPC   C4A 3981   6.983   0.132   5.634  0.1863  0.0316  0.0834
  296POPC   C1B 3982   7.561   0.988   5.035 -0.0404  0.1853  0.1092
  296POPC   C2B 3983   7.523   1.068   5.546 -0.0652 -0.2705 -0.0976
  296POPC   C3B 3984   7.773   0.930   5.850  0.0964 -0.0763  0.0673
  296POPC   C4B 3985   7.721   0.638   6.146  0.0728  0.1399  0.1705
  297POPC   NC3 3986   3.963   4.498   3.716 -0.0098  0.1172 -0.0103
  297POPC   PO4 3987   4.262   4.155   3.786  0.3478  0.1569  0.1507
  297POPC   GL1 3988   3.995   4.065   4.194  0.2061  0.0709  0.1820
  297POPC   GL2 3989   3.769   4.097   4.368  0.0227  0.3976 -0.0019
  297POPC   C1A 3990   4.057   3.719   4.475  0.0296  0.0904  0.3037
  297POPC   D2A 3991   4.188   3.602   5.019  0.2332  0.0824  0.0830
  297POPC   C3A 3992   4.336   3.903   5.517 -0.1032 -0.1028 -0.0134
  297POPC   C4A 3993   4.400   4.141   5.829  0.0650 -0.1016 -0.0497
  297POPC   C1B 3994   3.580   3.821   4.624 -0.4092  0.0975 -0.0559
  297POPC   C2B 3995   3.172   4.094   4.776  0.0863 -0.2996 -0.1275
  297POPC   C3B 3996   2.762   3.865   4.731  0.1337 -0.2114 -0.2720
  297POPC   C4B 3997   2.294   3.878   4.746  0.1433  0.1990  0.1096
  298POPC   NC3 3998   2.211   8.635   3.644 -0.0208  0.1158 -0.0384
  298POPC   PO4 3999   2.434   8.541   3.993 -0.1134 -0.1361 -0.0163
  298POPC   GL1 4000   2.407   8.223   4.242 -0.0372  0.0948  0.2800
  298POPC   GL2 4001   2.589   8.202   4.533  0.1869  0.2591 -0.1102
  298POPC   C1A 4002   2.539   7.770   4.117 -0.3360 -0.2636  0.2218
  298POPC   D2A 4003   2.696   7.366   4.284 -0.0144 -0.0706 -0.0390
  298POPC   C3A 4004   2.912   7.342   4.630 -0.3931  0.4269 -0.2583
  298POPC   C4A 4005   2.946   7.524   5.049  0.0496  0.4225  0.1604
  298POPC   C1B 4006   2.274   8.113   4.690  0.2196  0.4069  0.0747
  298POPC   C2B 4007   1.973   8.204   5.054 -0.0298 -0.0858  0.1363
  298POPC   C3B 4008   1.788   8.416   5.411 -0.1341  0.1696 -0.0358
  298POPC   C4B 4009   1.900   8.789   5.629  0.0593 -0.0658  0.0406
  299POPC   NC3 4010   0.658   3.485   3.345  0.0401 -0.0208  0.2107
  299POPC   PO4 4011   0.863   3.726   3.705  0.2437 -0.2514  0.0211
  299POPC   GL1 4012   0.736   3.591   4.136  0.2926  0.1085  0.0812
  299POPC   GL2 4013   0.422   3.397   4.209  0.2112  0.0294  0.2024
  299POPC   C1A 4014   0.916   3.253   4.420  0.0637 -0.1953 -0.4058
  299POPC   D2A 4015   1.233   3.323   4.684  0.0181  0.0818  0.0683
  299POPC   C3A 4016   1.311   3.327   5.104  0.2484 -0.0553  0.1029
  299POPC   C4A 4017   1.547   3.184   5.483  0.1318  0.1203  0.0870
  299POPC   C1B 4018   0.542   3.633   4.664  0.1830  0.1135  0.1487
  299POPC   C2B 4019   0.469   3.773   5.019 -0.1878  0.0806  0.1799
  299POPC   C3B 4020   0.652   3.803   5.359  0.1329 -0.0321 -0.2432
  299POPC   C4B 4021   1.148   3.801   5.419  0.4156  0.3581 -0.0084
  300POPC   NC3 4022   7.848   5.820   3.751  0.1673 -0.3924  0.1221
  300POPC   PO4 4023   8.355   5.746   3.766  0.0810  0.2348 -0.1096
  300POPC   GL1 4024   8.202   5.536   4.110 -0.1885  0.2315 -0.3321
  300POPC   GL2 4025   8.229   5.167   4.055 -0.1203 -0.1043 -0.3965
  300POPC   C1A 4026   8.071   5.587   4.600  0.3173  0.1446  0.3533
  300POPC   D2A 4027   8.038   5.755   5.022 -0.2265  0.4295  0.0421
  300POPC   C3A 4028   8.362   5.978   5.295  0.0481  0.1196  0.1074
  300POPC   C4A 4029   8.583   6.199   5.681 -0.0709  0.0025  0.1850
  300POPC   C1B 4030   8.117   5.010   4.439 -0.1617  0.0211 -0.0918
  300POPC   C2B 4031   8.096   5.062   4.817  0.1807  0.2279  0.0384
  300POPC   C3B 4032   7.829   5.080   5.117 -0.1913 -0.1873  0.1286
  300POPC   C4B 4033   7.437   4.958   5.316  0.6119 -0.1763  0.2222
  301POPC   NC3 4034   9.582   2.593   3.615  0.0393  0.1330  0.1243
  301POPC   PO4 4035   9.131   2.513   3.743  0.0650 -0.2213  0.0555
  301POPC   GL1 4036   8.826   2.335   4.047  0.0040  0.0488  0.0914
  301POPC   GL2 4037   8.456   2.532   4.196  0.3426  0.0749 -0.0665
  301POPC   C1A 4038   8.698   2.141   4.424 -0.1160  0.3779  0.1265
  301POPC   D2A 4039   8.627   1.923   4.792  0.2470 -0.1370 -0.1008
  301POPC   C3A 4040   8.821   1.551   4.920 -0.0532 -0.0596  0.1467
  301POPC   C4A 4041   9.339   1.550   4.950 -0.1497 -0.0463 -0.1049
  301POPC   C1B 4042   8.527   2.600   4.632  0.2226  0.1613  0.1592
  301POPC   C2B 4043   8.624   2.414   5.084  0.1895 -0.1955  0.3250
  301POPC   C3B 4044   8.993   2.331   5.441  0.1773  0.0801  0.0274
  301POPC   C4B 4045   9.320   2.340   5.703  0.1071  0.0083 -0.0809
  302W        W 4046  10.000   9.041   0.337  0.0052 -0.0693 -0.2321
  303W        W 4047   5.647   6.413  10.549 -0.1851 -0.2554  0.1534
  304W        W 4048   3.443   3.627   8.730 -0.0403  0.3083 -0.0812
  305W        W 4049   6.297   9.050   1.066 -0.0640 -0.1310  0.0613
  306W        W 4050   5.146   9.315   0.776 -0.2712  0.1702 -0.4135
  307W        W 4051   8.347   6.865   3.030  0.3784 -0.1607  0.1626
  308W        W 4052   1.281   6.094   8.881  0.0664 -0.4185 -0.0707
  309W        W 4053   6.673   3.581   1.249 -0.0495  0.6660  0.1171
  310W        W 4054   1.622   1.630  11.886 -0.1055 -0.3204  0.4096
  311W        W 4055   8.170   5.013   1.961  0.2259  0.2415 -0.1245
  312W        W 4056   7.724   4.897  10.775 -0.0175 -0.2272 -0.1437
  313W        W 4057   5.975   2.543   2.124  0.1788  0.0565  0.1583
  314W        W 4058   5.629   5.711  11.772  0.3743  0.1185  0.0319
  315W        W 4059   6.309   4.295  11.150  0.2388 -0.0396 -0.2000
  316W        W 4060   8.309   6.321   9.993 -0.0812  0.0565  0.0223
  317W        W 4061   6.636   0.192  12.065 -0.0194  0.0262 -0.0111
  318W        W 4062   2.198   5.778   3.679 -0.0906 -0.3545  0.2764
  319W        W 4063   1.206   4.986   3.088  0.0278 -0.1911  0.0158
  320W        W 4064   5.725   1.053   0.688 -0.0052 -0.1423  0.0725
  321W        W 4065   8.960   7.904   8.208  0.1169 -0.0089 -0.2326
  322W        W 4066   8.391   8.940   8.386  0.1301 -0.0189  0.3310
  323W        W 4067   2.479   4.686   3.166 -0.3217 -0.1096  0.0446
  324W        W 4068   2.412   3.881  10.592  0.0733 -0.1632  0.0730
  325W        W 4069   1.945   2.546  10.414 -0.1053 -0.2737 -0.0801
  326W        W 4070   8.812   3.268   3.094 -0.0564  0.0079  0.1470
  327W        W 4071   9.722   9.104  11.010  0.1194  0.4398 -0.3185
  328W        W 4072   8.776   0.719   9.063  0.0104 -0.2119 -0.2017
  329W        W 4073   4.738   8.302   7.774 -0.1550 -0.0279 -0.0934
  330W        W 4074   4.954   0.281   1.775  0.1780  0.0492 -0.0801
  331W        W 4075   3.187   7.841  10.556 -0.0122  0.0322 -0.3041
  332W        W 4076   3.761   3.405   0.611 -0.0602  0.1152  0.0787
  333W        W 4077  10.102   8.857   2.726 -0.0318  0.3065  0.2158
  334W        W 4078   3.311   3.722  11.748  0.0216 -0.0582 -0.2689
  335W        W 4079   1.473   7.683   2.720  0.3372 -0.2413 -0.1103
  336W        W 4080   4.549   1.877   3.401 -0.3197  0.0814 -0.1119
  337W        W 4081   1.234   0.037   0.740 -0.2170 -0.0419  0.1550
  338W        W 4082   8.605   6.464  10.384  0.0105  0.0401 -0.0690
  339W        W 4083   9.385   7.476   9.947  0.2285 -0.1135  0.0104
  340W        W 4084   9.455   1.943  10.444 -0.3576  0.1365 -0.2013
  341W        W 4085   0.194   2.269   0.645  0.0714 -0.3429  0.1905
  342W        W 4086   6.434   1.248   1.236 -0.0426  0.1056 -0.0186
  343W        W 4087   4.677   3.123   7.147  0.2047  0.2431 -0.0160
  344W        W 4088   5.496   9.072  11.450 -0.2159  0.0162 -0.0660
  345W        W 4089   2.140   7.212   2.263 -0.1271  0.1384  0.3757
  346W        W 4090   5.684   4.151  10.116 -0.0500 -0.4792  0.0139
  347W        W 4091   4.106   9.619   2.077  0.1179  0.0503  0.1952
  348W        W 4092   1.340   7.441   9.504 -0.0671 -0.1450 -0.2950
  349W        W 4093   3.417   0.718   0.767 -0.0951 -0.0297 -0.0490
  350W        W 4094   5.781   0.867   3.095  0.1790  0.1401  0.1281
  351W        W 4095   0.587   8.315  11.341 -0.0858 -0.0951  0.1619
  352W        W 4096   5.759   6.264   7.987 -0.0720 -0.1602 -0.0243
  353W        W 4097   0.414   4.178   1.253 -0.1566  0.1987  0.2352
  354W        W 4098   1.742   2.832   8.792  0.0508 -0.1584 -0.1547
  355W        W 4099   1.114   0.944   8.992 -0.2324 -0.1656 -0.3333
  356W        W 4100   4.412   4.603  10.550  0.0527  0.2564  0.2331
  357W        W 4101   3.484   5.070   8.940 -0.3701 -0.0356 -0.0721
  358W        W 4102   0.739  10.028  11.971 -0.0732  0.0485  0.1119
  359W        W 4103   5.309   3.647  11.947  0.4276  0.1796  0.0753
  360W        W 4104   5.334   5.416   0.746 -0.0392  0.1100  0.0913
  361W        W 4105   1.863   1.258   3.267 -0.2745 -0.0506 -0.2091
  362W        W 4106  10.037   3.013   0.343 -0.0854 -0.2709 -0.0755
  363W        W 4107   9.766   0.885   7.997  0.0822 -0.4832 -0.0472
  364W        W 4108   1.308   5.880  12.049  0.0205  0.1077  0.0003
  365W        W 4109   2.693   0.434   0.757 -0.2227  0.2227  0.2922
  366W        W 4110   9.277   8.249   1.186  0.0470 -0.1676 -0.2392
  367W        W 4111   3.802   1.524   8.874 -0.1172  0.2855 -0.1514
  368W        W 4112   5.085   9.160   0.309 -0.2273 -0.2310  0.1470
  369W        W 4113   1.828   3.115   2.604  0.1277  0.0688 -0.0061
  370W        W 4114   1.826   8.912   2.473 -0.1871  0.0516  0.1538
  371W        W 4115   7.591   5.091   1.889  0.3057 -0.2308 -0.2305
  372W        W 4116   4.021  10.023   0.792  0.0076 -0.2599 -0.1827
  373W        W 4117   5.234   4.296   9.120  0.1118  0.0489  0.1916
  374W        W 4118   8.874   2.642  10.397 -0.0670 -0.0270 -0.1921
  375W        W 4119   6.127   1.584   8.294  0.1285 -0.1993 -0.1074
  376W        W 4120   0.089   8.284  11.233  0.3568 -0.0759  0.0271
  377W        W 4121   3.694   8.880   9.818 -0.0814  0.2653 -0.2022
  378W        W 4122   4.631   9.150   0.001  0.0609  0.0587  0.2573
  379W        W 4123   9.875   7.812   2.444  0.2009 -0.1963 -0.3466
  380W        W 4124   1.853   8.992  11.247  0.0841 -0.1791  0.0220
  381W        W 4125   3.258   0.254   9.096 -0.3057  0.1827 -0.2028
  382W        W 4126  10.190   0.762   1.384 -0.0161 -0.2582 -0.2637
  383W        W 4127   6.086   6.916  10.552 -0.0300  0.0929 -0.1868
  384W        W 4128   4.192   1.556   9.822 -0.1066 -0.0793  0.0668
  385W        W 4129   0.750   4.305   2.982 -0.1353  0.1054 -0.0500
  386W        W 4130   4.387   5.792   1.632  0.1065  0.1403 -0.1296
  387W        W 4131   5.637   7.326   2.445 -0.0275 -0.2096 -0.0406
  388W        W 4132   8.387   0.931   1.551 -0.1291 -0.0235 -0.2982
  389W        W 4133   2.428   3.253   1.020  0.0965  0.3044  0.1028
  390W        W 4134   4.270   7.114  11.135 -0.4217 -0.1239 -0.2821
  391W        W 4135   1.522   9.222   9.227 -0.0084 -0.1660  0.2854
  392W        W 4136   7.554   1.015   3.100 -0.0788  0.1643 -0.0084
  393W        W 4137   0.850   6.599   2.403 -0.0685  0.0320  0.0435
  394W        W 4138   9.158   7.397   1.691  0.3298  0.0633 -0.3420
  395W        W 4139   3.773   0.714   1.466  0.0125 -0.1857  0.0370
  396W        W 4140   4.849   1.156   0.788 -0.0011 -0.0565  0.1201
  397W        W 4141   7.737   7.817   8.958 -0.2267  0.0645  0.0596
  398W        W 4142  10.221  10.140   0.634  0.0054 -0.1148 -0.0406
  399W        W 4143   4.274   3.787  10.800 -0.2679 -0.0759  0.0274
  400W        W 4144   2.060   3.472   0.198  0.1111  0.1957 -0.0332
  401W        W 4145   2.800   4.343   0.066 -0.1503  0.0157 -0.0491
  402W        W 4146   7.439   5.825   7.965  0.1230  0.2903  0.1639
  403W        W 4147   5.053   1.854   4.306  0.1277 -0.0537 -0.1056
  404W        W 4148   6.258   9.996   0.791 -0.4291 -0.2781 -0.2321
  405W        W 4149   9.877   9.653  11.106 -0.1122  0.1328 -0.1588
  406W        W 4150   4.541   2.097   8.706  0.1600  0.0196 -0.2922
  407W        W 4151   8.695   2.389   0.197  0.2217  0.0934 -0.1494
  408W        W 4152   5.809   2.938   7.943 -0.1510  0.1543 -0.1353
  409W        W 4153   7.674   6.331   7.000  0.1882  0.2424  0.3015
  410W        W 4154   4.428   0.409   3.340 -0.1055  0.0202 -0.1267
  411W        W 4155   6.261   3.229   9.322 -0.1283 -0.1607  0.0713
  412W        W 4156   0.476   0.090  10.249 -0.0197  0.0191 -0.0997
  413W        W 4157   6.903   3.271   8.068  0.2136  0.1469  0.0519
  414W        W 4158   8.492   1.047   0.512 -0.1078  0.1399 -0.4282
  415W        W 4159   8.754   7.438   1.984 -0.0690  0.0096  0.0515
  416W        W 4160   7.121   9.254   9.211 -0.0255  0.1258 -0.0957
  417W        W 4161   2.833   5.543  10.522  0.1997 -0.0105  0.1364
  418W        W 4162   5.654   1.399   8.285 -0.0672 -0.0750  0.0051
  419W        W 4163   2.546   6.611   1.218  0.0534 -0.1399 -0.0006
  420W        W 4164   6.416   1.984   2.682  0.2220 -0.0363  0.1037
  421W        W 4165   8.611   1.601   1.847  0.0665  0.2574 -0.0442
  422W        W 4166   4.417   1.436   2.574 -0.0262  0.1352  0.2668
  423W        W 4167   1.720   1.908   9.069  0.1746  0.0371  0.0356
  424W        W 4168   8.898   2.923   3.880 -0.1698 -0.2220 -0.0836
  425W        W 4169   6.261   7.752   0.320  0.1133  0.1775 -0.2092
  426W        W 4170   6.392   4.703   8.288  0.1974 -0.1972 -0.0277
  427W        W 4171  10.133   3.050  11.833 -0.1561 -0.3130 -0.5099
  428W        W 4172   3.347   1.436   4.135  0.1334  0.0214  0.2567
  429W        W 4173   5.222   5.562  11.986  0.1009 -0.1447 -0.0073
  430W        W 4174   1.259   6.411   7.775  0.3612  0.2250 -0.1113
  431W        W 4175   8.525   2.310  10.524 -0.2193  0.2658 -0.1605
  432W        W 4176   2.028   0.586   0.934  0.1721  0.2517  0.0603
  433W        W 4177   8.078   7.169   2.592  0.1542  0.1710  0.0970
  434W        W 4178   9.859   4.414   0.057 -0.0203 -0.0151 -0.1932
  435W        W 4179   4.272   1.944   1.974  0.1272 -0.1976  0.2980
  436W        W 4180   1.897   2.067   8.505  0.0299  0.1018  0.0130
  437W        W 4181   0.927   9.274   8.423  0.2002  0.0898 -0.3540
  438W        W 4182   0.567   0.371   9.395 -0.0529 -0.1556 -0.0122
  439W        W 4183   2.483   9.890   1.381 -0.2045  0.2568 -0.1236
  440W        W 4184   2.322   5.431   1.146 -0.0691 -0.0116  0.0971
  441W        W 4185   7.086   2.788  11.497 -0.1975 -0.1944 -0.1515
  442W        W 4186   9.223  10.192  10.686  0.0630  0.1566  0.0466
  443W        W 4187   6.631   9.203   1.531  0.1283 -0.1280  0.0249
  444W        W 4188   9.586   6.379   0.521  0.1098  0.1430  0.1656
  445W        W 4189   6.012   5.401  11.517  0.0268 -0.0851 -0.1732
  446W        W 4190   6.268   5.626  10.474  0.3563 -0.1680  0.0531
  447W        W 4191   2.277   0.344  11.684  0.1420  0.1457 -0.0908
  448W        W 4192   3.191   5.420  11.570 -0.2479  0.1628 -0.1183
  449W        W 4193   7.066   5.717   3.079  0.1826  0.0528  0.2054
  450W        W 4194   5.847   8.302   8.299 -0.0127 -0.3035  0.0677
  451W        W 4195   8.984   8.039   9.558  0.2966 -0.1470  0.1367
  452W        W 4196   9.231   9.043  10.934 -0.2647 -0.2855  0.3244
  453W        W 4197   9.050   0.332   1.065  0.0287 -0.0366 -0.0212
  454W        W 4198   9.276   0.012   7.789  0.0106 -0.0678 -0.0437
  455W        W 4199   1.917   1.850  11.523  0.3200  0.3850 -0.0012
  456W        W 4200   9.637   4.158   0.504  0.0507  0.2333  0.0119
  457W        W 4201   8.779   1.007   1.152 -0.0663  0.1530 -0.1338
  458W        W 4202   7.957   9.855   3.841 -0.0490  0.5631 -0.2191
  459W        W 4203   5.708   9.277   1.732  0.0390  0.0719 -0.0350
  460W        W 4204   9.473   4.197   7.873 -0.1226 -0.2785  0.3949
  461W        W 4205   2.301   5.656   1.648 -0.1604  0.2283  0.0420
  462W        W 4206   8.552   5.179   8.215 -0.1365 -0.0299  0.0796
  463W        W 4207   5.903   2.657   3.035  0.1516 -0.1085  0.0414
  464W        W 4208   2.953   3.565  10.475  0.1278  0.0907  0.0585
  465W        W 4209   5.691   4.677   1.474  0.1156 -0.1098  0.0647
  466W        W 4210   8.077   2.813   8.585 -0.3598 -0.3991  0.2212
  467W        W 4211   8.437   6.796  11.356  0.0117  0.0257 -0.3188
  468W        W 4212   8.719   6.807   1.474  0.2400 -0.0624  0.2172
  469W        W 4213   7.481   1.386  11.364  0.0204  0.2129  0.0089
  470W        W 4214   9.651   5.503   0.083 -0.0745 -0.0593 -0.1029
  471W        W 4215   8.914   2.317   9.290  0.0944  0.0163 -0.0363
  472W        W 4216   5.679   5.273  12.004  0.0298  0.1892 -0.0606
  473W        W 4217   2.061   2.643   8.411  0.3572 -0.0137 -0.2951
  474W        W 4218   5.591   7.579   9.189  0.3126  0.0009 -0.3221
  475W        W 4219   7.397   0.924   2.127 -0.0259 -0.0205 -0.1762
  476W        W 4220   8.586   2.599   3.663 -0.0914 -0.4255 -0.1935
  477W        W 4221   2.063   9.658   3.257 -0.0218  0.4262  0.0631
  478W        W 4222   1.589   0.029   3.791 -0.1250 -0.0711  0.1145
  479W        W 4223   9.282   6.829   2.756  0.1399  0.1090 -0.4381
  480W        W 4224   7.272   8.762   9.788 -0.1077  0.0449  0.0231
  481W        W 4225   5.137   8.795   0.667 -0.1730  0.0606 -0.1466
  482W        W 4226   3.813   7.477   2.436 -0.0856  0.4997  0.0109
  483W        W 4227   1.577   6.768  11.369  0.3336  0.2491  0.2331
  484W        W 4228   9.764   9.997  10.020  0.4081  0.0887 -0.1717
  485W        W 4229   8.147   6.309   8.555 -0.0384 -0.2482 -0.2428
  486W        W 4230   9.206   4.347  11.326 -0.2366  0.1211 -0.1237
  487W        W 4231   4.133   3.246  10.480  0.2238 -0.2498 -0.0707
  488W        W 4232   2.731   0.986   2.022  0.1220  0.1893 -0.1452
  489W        W 4233   9.193   7.429   9.480 -0.0306  0.0059 -0.0503
  490W        W 4234   2.997  10.138   0.106 -0.0260 -0.1900  0.3340
  491W        W 4235   7.999   6.889   2.145 -0.1599 -0.0792  0.1946
  492W        W 4236   9.580   3.501  11.204 -0.2608 -0.0056  0.3397
  493W        W 4237   7.289   2.330   1.646  0.0526  0.0510  0.0822
  494W        W 4238   1.221   7.442  10.665 -0.0593  0.0175 -0.1457
  495W        W 4239   8.783   9.431   9.394  0.1620 -0.0689  0.0636
  496W        W 4240   9.031   7.114   1.203 -0.0248  0.2635 -0.0211
  497W        W 4241   8.361   5.303   1.527 -0.0096  0.0154 -0.2611
  498W        W 4242   0.096   0.188   9.427 -0.1694  0.1240 -0.0709
  499W        W 4243   4.660   4.679   3.139  0.3104 -0.2266 -0.0827
  500W        W 4244   9.138   6.110   2.061  0.0438 -0.1666  0.1406
  501W        W 4245   8.952   8.332   1.593 -0.2595 -0.0635  0.0375
  502W        W 4246   5.882   3.856   0.012 -0.5120  0.1845  0.1010
  503W        W 4247   0.568   8.554  10.137  0.1510  0.0320 -0.2692
  504W        W 4248   5.705   6.277   3.545 -0.1112  0.2324 -0.0233
  505W        W 4249   0.687   0.819   0.644 -0.2648 -0.1887  0.1534
  506W        W 4250   0.343   4.100  11.617 -0.1423  0.1354 -0.0145
  507W        W 4251   6.250   9.436   0.665  0.0182  0.0934 -0.0165
  508W        W 4252   6.556   3.370   8.880  0.0074 -0.1976 -0.2021
  509W        W 4253   4.578   7.072   0.360  0.2147  0.0865 -0.0621
  510W        W 4254   4.937   5.126  10.637 -0.1211 -0.3624 -0.0495
  511W        W 4255   4.700   2.520  10.888  0.2122  0.0483 -0.1895
  512W        W 4256   9.542  10.086   4.197  0.1804  0.2654 -0.1091
  513W        W 4257   3.208   6.441   0.539 -0.1414  0.1862  0.1544
  514W        W 4258   1.141   5.492   7.965  0.0046 -0.3191 -0.1636
  515W        W 4259   7.053   7.500  10.217 -0.1120  0.1906 -0.1527
  516W        W 4260   0.784   8.037   1.473  0.3559  0.1074  0.0210
  517W        W 4261   0.682   6.338   7.677  0.1019 -0.3067  0.0588
  518W        W 4262   8.133   8.824  11.086 -0.0786  0.2320  0.1438
  519W        W 4263   0.713   4.877   9.525 -0.1328  0.0846 -0.0728
  520W        W 4264   5.742   3.095  11.313 -0.0160 -0.4081  0.0888
  521W        W 4265   1.585   1.052  12.145  0.1479  0.2109  0.3974
  522W        W 4266   3.505   2.926   0.675  0.0981  0.1299 -0.0058
  523W        W 4267   4.690   4.989   3.609  0.1437 -0.1678  0.0178
  524W        W 4268   3.495   3.183   1.070  0.1806  0.1621  0.1358
  525W        W 4269   6.684   9.709  11.259 -0.0882 -0.2386  0.2260
  526W        W 4270   3.314   6.771   8.282  0.1858 -0.2734 -0.0086
  527W        W 4271   3.345   4.370   2.237  0.2848  0.0444 -0.0944
  528W        W 4272   7.502   9.725  10.001  0.0278  0.0375  0.0946
  529W        W 4273   1.975   6.629   7.439  0.0147 -0.1300  0.1717
  530W        W 4274   3.129   0.284   1.009 -0.0417  0.1381  0.1804
  531W        W 4275   2.913   2.891   9.658 -0.0158 -0.2685  0.1363
  532W        W 4276   8.198   9.729   2.108 -0.1853  0.1582  0.0043
  533W        W 4277   6.867   3.684   9.538 -0.0093  0.2546  0.0069
  534W        W 4278   1.042   8.867   2.019  0.0936 -0.0392 -0.0239
  535W        W 4279   5.642   3.217  10.394  0.0450 -0.4368 -0.2345
  536W        W 4280   8.234   7.344   3.155 -0.0194  0.0914 -0.3051
  537W        W 4281   5.506   6.252  10.092  0.0499  0.2681  0.0534
  538W        W 4282   6.432   9.428   1.982 -0.1722 -0.3456 -0.3437
  539W        W 4283   2.985   0.969   0.848  0.0481 -0.2686  0.0543
  540W        W 4284   1.517   9.923  10.404  0.1826  0.2360  0.1282
  541W        W 4285   9.624   4.384   9.573 -0.1249 -0.0802  0.1636
  542W        W 4286   8.391   8.067   4.279 -0.1082  0.0132  0.5353
  543W        W 4287   5.802   6.799   1.680  0.0227 -0.1541  0.0074
  544W        W 4288   8.938   3.444  11.173  0.0771  0.2003 -0.5460
  545W        W 4289   3.593   0.803   0.109  0.2498 -0.0228 -0.1676
  546W        W 4290   2.304   0.534   8.886 -0.2423 -0.1066 -0.3640
  547W        W 4291   1.063   4.079   3.306 -0.0823  0.2263 -0.0542
  548W        W 4292   6.277   3.251  11.044  0.1381 -0.0256  0.2637
  549W        W 4293   1.061   6.043   1.275 -0.0857  0.1174  0.1368
  550W        W 4294   0.707   7.487   3.873  0.1401 -0.0496 -0.1324
  551W        W 4295   7.166   2.266   2.963  0.0716  0.1205 -0.1109
  552W        W 4296   0.474   7.843   0.545 -0.0748  0.0002 -0.1093
  553W        W 4297   6.770   2.781   0.343  0.6000  0.2947  0.0789
  554W        W 4298   0.765   2.889   3.168  0.0155 -0.0071  0.1324
  555W        W 4299   0.408   1.672   1.409  0.0967  0.0815 -0.3724
  556W        W 4300   7.846   4.143   8.112 -0.0891  0.1205 -0.0161
  557W        W 4301   4.179   8.027   3.674  0.2506 -0.0671 -0.1006
  558W        W 4302   2.095   9.308   1.070  0.0462 -0.1494  0.0759
  559W        W 4303   0.186   1.767  10.321  0.0926  0.1957 -0.0211
  560W        W 4304   3.339   0.221   1.473 -0.1031 -0.1390 -0.3603
  561W        W 4305   5.622  10.212  10.592  0.0444  0.0068  0.3434
  562W        W 4306  10.155   0.724   3.053  0.1073  0.0368 -0.0426
  563W        W 4307   5.452   7.211   1.607 -0.1230  0.0476  0.0584
  564W        W 4308   5.288   7.299   9.738 -0.0830 -0.1884  0.0845
  565W        W 4309   5.529   4.969   9.749 -0.3577  0.0974  0.0768
  566W        W 4310   3.763   9.368   9.589 -0.1617  0.1972 -0.1607
  567W        W 4311   8.834   3.562  11.639 -0.0990  0.0687 -0.0799
  568W        W 4312   5.686   1.755   2.944 -0.3743  0.2206  0.1012
  569W        W 4313   9.647   2.932   8.650  0.1371  0.2356  0.1038
  570W        W 4314   4.987   2.537   2.148 -0.3910 -0.1147  0.1111
  571W        W 4315   0.106   5.889  10.099 -0.0572 -0.0919 -0.0796
  572W        W 4316   7.631   5.377   1.073  0.2741  0.0187  0.0090
  573W        W 4317   8.902   7.072   9.705  0.2409 -0.0722 -0.1545
  574W        W 4318   8.350   1.120   2.008  0.0460 -0.2142  0.0378
  575W        W 4319   6.798   2.300   0.157 -0.1939  0.1586  0.0904
  576W        W 4320   8.841   3.875   2.274  0.1389 -0.1146 -0.1049
  577W        W 4321   8.489   0.398   9.426 -0.0681 -0.2441 -0.0337
  578W        W 4322   6.742   3.894   3.529  0.0641  0.1283 -0.0959
  579W        W 4323   5.052   8.877   8.866  0.0826  0.0386 -0.1380
  580W        W 4324  10.031   4.950   0.947 -0.1889  0.1160  0.1143
  581W        W 4325   7.663   6.860   6.859  0.0319  0.3478 -0.0711
  582W        W 4326   2.996  10.098   8.847 -0.0561 -0.0399  0.1255
  583W        W 4327   0.692   7.991   9.507 -0.3292 -0.3163 -0.0267
  584W        W 4328   9.232   0.645  11.078  0.1399 -0.0515  0.1102
  585W        W 4329   7.078   1.118   8.623  0.4098  0.0761 -0.0700
  586W        W 4330  10.109   7.587   8.656 -0.3403  0.1849 -0.1281
  587W        W 4331   0.028   8.987  11.674  0.1628 -0.1592  0.1237
  588W        W 4332   1.008   7.304  11.542 -0.1549 -0.5691  0.1895
  589W        W 4333   5.524   7.027  10.334  0.0984 -0.2210  0.1968
  590W        W 4334   9.259   8.232  11.140  0.1373  0.0990 -0.0809
  591W        W 4335   8.643   6.483   7.957 -0.0079  0.0857 -0.3640
  592W        W 4336   9.773   8.104  11.801 -0.0343  0.0745  0.3383
  593W        W 4337   8.153   1.580  10.790  0.0984  0.0640 -0.2077
  594W        W 4338   7.438   5.626   2.075  0.1781  0.0673 -0.0184
  595W        W 4339   5.257   6.874  10.685 -0.0667  0.1681 -0.0443
  596W        W 4340   0.833   0.577   1.171 -0.1087 -0.0523  0.0232
  597W        W 4341   0.192   8.764   9.777 -0.1579  0.0078  0.1029
  598W        W 4342  10.055   5.440  10.993  0.1535 -0.1321  0.0868
  599W        W 4343   0.435   4.449   9.517  0.1171  0.1201 -0.2072
  600W        W 4344   6.068   6.974  11.064  0.3887 -0.1791 -0.0790
  601W        W 4345   2.271   4.593   1.195 -0.0784 -0.3500 -0.2881
  602W        W 4346   1.836   5.888   0.118  0.0797  0.0706  0.0840
  603W        W 4347   8.650   7.070  10.933 -0.2763 -0.0181  0.0856
  604W        W 4348  10.069   2.671   2.913 -0.1371 -0.1279  0.1624
  605W        W 4349   6.089   3.623   9.099 -0.2519  0.1220  0.2434
  606W        W 4350   8.908   0.230   3.013 -0.2126  0.0194  0.0007
  607W        W 4351   8.001   2.021   3.311 -0.2129  0.2231  0.3769
  608W        W 4352   3.680   9.102  11.036  0.0679 -0.0508  0.0630
  609W        W 4353   7.391   4.282   2.310  0.0081 -0.2908  0.2800
  610W        W 4354   3.281   0.548   2.305 -0.0841 -0.0696  0.0838
  611W        W 4355   6.789   6.010  11.749  0.3112  0.5284  0.1599
  612W        W 4356   1.324   7.406   8.567  0.1555  0.3983 -0.1431
  613W        W 4357   7.360   9.963   8.325 -0.2397  0.2820 -0.1363
  614W        W 4358   5.409   5.138   1.788 -0.1241 -0.3264 -0.0517
  615W        W 4359   6.180   5.971   8.038  0.1396  0.2053 -0.0304
  616W        W 4360   0.931   3.950   2.452  0.1087  0.2061  0.2427
  617W        W 4361   1.342   1.667  11.413 -0.2302 -0.2462 -0.0883
  618W        W 4362   7.624   0.112   9.067 -0.3478 -0.2519  0.0685
  619W        W 4363   9.865   4.686  10.988  0.0132 -0.3288 -0.3484
  620W        W 4364   0.390   2.827   0.181 -0.0598  0.3281 -0.4140
  621W        W 4365   2.723   8.208  10.388  0.1970 -0.0091  0.0878
  622W        W 4366   1.102   4.573   9.761  0.0373 -0.1761 -0.0184
  623W        W 4367   2.504  10.071   3.307  0.2819  0.1847 -0.0761
  624W        W 4368   0.873   3.815   2.951 -0.0226 -0.0695  0.1450
  625W        W 4369   5.337   3.097   1.615 -0.1809  0.2063  0.0466
  626W        W 4370   1.338   6.766   9.854  0.0834 -0.0297 -0.0832
  627W        W 4371   3.836   3.733   3.006  0.0490  0.1414  0.1212
  628W        W 4372   6.725   0.381  11.532 -0.1857  0.0649 -0.0253
  629W        W 4373   2.130   7.062   0.481  0.1172  0.1043  0.4189
  630W        W 4374   3.310   4.461   9.568 -0.0092 -0.4095  0.1803
  631W        W 4375   3.046   4.106  10.343 -0.0339 -0.2215 -0.2752
  632W        W 4376   0.368   9.725   9.434 -0.1976  0.0607 -0.0758
  633W        W 4377   4.542   0.186  10.951  0.5102 -0.0529  0.1749
  634W        W 4378   4.756   6.551   3.513  0.0515 -0.0246  0.0062
  635W        W 4379   1.154   4.846   0.967  0.1289 -0.2096 -0.0956
  636W        W 4380   6.775   7.005   9.528  0.2011  0.3126  0.1266
  637W        W 4381   5.449   1.586   8.752  0.2902 -0.1026  0.2178
  638W        W 4382   2.360   3.645  11.899 -0.1037 -0.1124  0.1147
  639W        W 4383   6.361   7.327   0.914  0.0559 -0.0106 -0.1785
  640W        W 4384   4.690   9.611  11.064 -0.1298 -0.1692 -0.0236
  641W        W 4385   6.343   5.603  11.144 -0.0327  0.2240 -0.0486
  642W        W 4386   4.357   8.064   0.504 -0.0300  0.2342  0.0697
  643W        W 4387   4.916   9.322   2.984  0.0438 -0.1855  0.0672
  644W        W 4388   9.607   6.185   1.824 -0.0433 -0.0363 -0.2993
  645W        W 4389   0.968   6.279  11.820  0.1344  0.2066  0.0837
  646W        W 4390   5.090   3.503   0.814 -0.1462  0.1736  0.0990
  647W        W 4391   4.099   4.752  11.013 -0.1404  0.0921 -0.2755
  648W        W 4392   4.280   5.367  11.682 -0.3371  0.6083 -0.2397
  649W        W 4393   1.553   1.780  10.532  0.0467  0.1902  0.1393
  650W        W 4394   5.416   0.563  12.115 -0.0328 -0.0627 -0.1097
  651W        W 4395   0.637   9.035   1.199  0.1308 -0.2328  0.0787
  652W        W 4396   6.970   4.836   3.581  0.1242  0.0489 -0.0177
  653W        W 4397   3.860   0.921   3.110 -0.0805  0.0763 -0.0121
  654W        W 4398   9.475   8.661   9.552  0.0151 -0.2838  0.0223
  655W        W 4399   7.529   9.351   1.223 -0.1293  0.1734 -0.1756
  656W        W 4400   0.192   1.226   1.341  0.1462 -0.1252  0.1827
  657W        W 4401   4.196   5.008   1.879  0.2224 -0.0626 -0.0449
  658W        W 4402   0.266   8.647   1.019  0.0914  0.3288 -0.0920
  659W        W 4403   5.329   7.556   3.268 -0.3309 -0.1992 -0.1545
  660W        W 4404   4.947   3.269   8.508 -0.0809  0.0387 -0.0788
  661W        W 4405   2.802   8.020   3.265  0.3164 -0.0476  0.0095
  662W        W 4406   2.799   1.835   1.242 -0.0568  0.0981 -0.0314
  663W        W 4407   8.969   4.745  10.833  0.1542 -0.3486  0.0179
  664W        W 4408   5.242   2.457   3.799 -0.0097 -0.0327  0.1053
  665W        W 4409   6.510   7.830   9.455  0.0931 -0.3104  0.0390
  666W        W 4410   6.751   2.320   8.490 -0.1286 -0.1001 -0.0609
  667W        W 4411   6.828   4.923  10.623  0.2171 -0.0938  0.3218
  668W        W 4412   8.585   1.803  11.664  0.1438 -0.0477 -0.0095
  669W        W 4413   9.683   6.785   2.338 -0.0125 -0.0462 -0.1069
  670W        W 4414   0.574   0.995  11.239 -0.1053 -0.0441  0.3283
  671W        W 4415   7.924   9.062  11.551 -0.0477  0.1179 -0.1187
  672W        W 4416   7.093   7.292   1.597 -0.0145  0.0025  0.0074
  673W        W 4417  10.006   8.431  10.838 -0.1372 -0.2166  0.1076
  674W        W 4418   6.416   1.251   9.262  0.2972  0.0545 -0.2934
  675W        W 4419   5.421   8.608   3.434  0.1090  0.0250 -0.1390
  676W        W 4420   8.646   5.148   9.209  0.2185  0.1617 -0.1771
  677W        W 4421   4.915   5.359   0.207  0.3162  0.1971  0.2477
  678W        W 4422   1.255   0.305  10.801 -0.0462  0.0732 -0.0325
  679W        W 4423   9.240   1.311  11.992  0.1487  0.0237  0.0492
  680W        W 4424   0.442   9.499   3.334 -0.0943  0.0646  0.1075
  681W        W 4425   0.485   3.719  11.305  0.0553 -0.0595 -0.1431
  682W        W 4426   1.068   7.909   2.439 -0.3281  0.1409 -0.0346
  683W        W 4427   3.923   1.214  11.292  0.0728 -0.2542 -0.0476
  684W        W 4428   0.986   1.372   9.897  0.1079 -0.0683 -0.3046
  685W        W 4429   8.127   4.553  10.006  0.2446 -0.2598  0.0025
  686W        W 4430   4.874   8.173   9.929 -0.0468  0.0270  0.0689
  687W        W 4431   5.856   0.373   2.199  0.0818  0.2433 -0.1160
  688W        W 4432   4.704   0.894   0.407  0.2352 -0.2138 -0.0034
  689W        W 4433   2.685   3.184  11.469  0.1055 -0.2043 -0.0566
  690W        W 4434   8.164   3.275  10.148 -0.0427 -0.3090  0.1951
  691W        W 4435   1.367   8.189   1.775  0.0126  0.2244  0.1718
  692W        W 4436   5.789   8.358   0.057 -0.0259  0.0469  0.1131
  693W        W 4437   1.702   2.172   3.642  0.0731  0.2549  0.1077
  694W        W 4438   1.271   0.199   8.296 -0.3329  0.0027  0.1856
  695W        W 4439   5.586   7.815   7.344  0.0743 -0.2292 -0.2833
  696W        W 4440   4.387   0.871   9.263 -0.2856 -0.2215 -0.0111
  697W        W 4441   0.307   6.987   0.459 -0.1417  0.0336 -0.3108
  698W        W 4442   6.662   2.555  11.539 -0.0433 -0.1617 -0.2967
  699W        W 4443   7.321   9.559   0.707 -0.1545  0.2770  0.1184
  700W        W 4444   7.212   6.696  11.374  0.2616  0.0655 -0.1390
  701W        W 4445   2.650   8.603   1.461 -0.0634  0.2231 -0.1468
  702W        W 4446   1.075   4.227  11.426 -0.0670  0.2394  0.1820
  703W        W 4447   4.143   0.545  10.747 -0.0715  0.0664 -0.2762
  704W        W 4448   7.814   6.467   1.800  0.1618  0.1798 -0.2609
  705W        W 4449   4.018   5.549   0.049 -0.0614 -0.0882  0.0662
  706W        W 4450   1.728   7.501  12.081 -0.0022 -0.3220  0.0713
  707W        W 4451   0.057   7.349   1.729  0.0326 -0.4427  0.0674
  708W        W 4452   0.297   2.625   9.878  0.1364  0.1707  0.0981
  709W        W 4453   4.371   1.369   8.080  0.2633  0.0641  0.0439
  710W        W 4454   8.532   3.386   8.022 -0.0506 -0.0534  0.1207
  711W        W 4455   8.929   1.897  11.995  0.1662 -0.0973  0.2772
  712W        W 4456   0.938   4.918   2.287  0.1940  0.1055  0.3742
  713W        W 4457   2.267   9.497   1.524  0.2847  0.0935  0.0649
  714W        W 4458   6.339   2.457   0.283 -0.0575  0.0551  0.3006
  715W        W 4459   6.070   5.937  10.877 -0.4746  0.4277  0.0938
  716W        W 4460   4.801   5.376  11.659  0.1273 -0.3454  0.0508
  717W        W 4461   4.886   2.517   0.825  0.0096 -0.2041 -0.1396
  718W        W 4462   2.437   3.073  11.917 -0.1231  0.2032  0.2677
  719W        W 4463   9.768   0.325  11.898  0.1335 -0.3424 -0.0419
  720W        W 4464   4.820   9.544   2.094 -0.0051 -0.1740  0.1491
  721W        W 4465   6.089   3.695   1.916  0.0978  0.1313 -0.1487
  722W        W 4466   0.058   3.028   8.041 -0.0531  0.1024 -0.2628
  723W        W 4467   9.437   4.488  11.873  0.1356 -0.1404 -0.2934
  724W        W 4468   4.820   5.302  11.136 -0.0636 -0.0829  0.2150
  725W        W 4469   8.324   0.735  10.414 -0.1685 -0.1370 -0.4082
  726W        W 4470   9.882   7.433   2.084 -0.1550  0.1763  0.2919
  727W        W 4471   7.961   4.977   3.353 -0.1396  0.3844 -0.1174
  728W        W 4472   5.663   0.117  11.852  0.0690 -0.2334 -0.0093
  729W        W 4473   1.125   1.577  11.872 -0.0403  0.1024 -0.0812
  730W        W 4474   7.677   2.388   2.924  0.1358 -0.1309 -0.2194
  731W        W 4475   1.612   5.428   0.577  0.0879 -0.1267 -0.0907
  732W        W 4476   6.102   5.061   1.381  0.0875 -0.3714  0.4379
  733W        W 4477   5.629   6.070   9.254  0.1178  0.1182 -0.1012
  734W        W 4478  10.216   7.009   8.847 -0.1033  0.3438  0.0376
  735W        W 4479   6.986   4.911   1.324  0.0050  0.0697  0.0365
  736W        W 4480   0.839   7.561  11.160  0.2408 -0.1526 -0.1352
  737W        W 4481   6.239   6.459   3.201  0.0659  0.0188  0.1131
  738W        W 4482   5.680   1.789   0.169 -0.2604  0.2328  0.0389
  739W        W 4483   2.397   7.103   1.425 -0.0349 -0.1177 -0.1358
  740W        W 4484   2.720   0.047   1.109 -0.0704 -0.0102 -0.4436
  741W        W 4485   0.416   6.834   2.151 -0.1579  0.4902  0.3763
  742W        W 4486   3.365   7.536   8.481 -0.2971  0.0562  0.0852
  743W        W 4487  10.028   0.065   2.968 -0.0717  0.3535 -0.1413
  744W        W 4488   8.222   3.095  10.689 -0.2582  0.2624 -0.0584
  745W        W 4489   4.977   0.710  10.326  0.1742  0.1717  0.0829
  746W        W 4490   5.689   2.687   1.705  0.1121  0.4517  0.0729
  747W        W 4491   3.348   3.803  10.723 -0.3039 -0.0600  0.1719
  748W        W 4492   4.883   0.369   3.047 -0.0172 -0.2195  0.0791
  749W        W 4493   1.745   9.946   1.641  0.1114 -0.0306 -0.0657
  750W        W 4494   9.796   7.242   8.697  0.0703 -0.4444 -0.1395
  751W        W 4495   6.681   2.079  11.437  0.0910  0.1785  0.0218
  752W        W 4496   6.846   3.027  10.323  0.2649  0.0019 -0.0425
  753W        W 4497   0.129   5.576   1.903 -0.1873  0.1997  0.1563
  754W        W 4498   9.183  10.221   8.810 -0.0639 -0.0282 -0.1660
  755W        W 4499   9.280   7.740  10.979  0.2633 -0.5289  0.1378
  756W        W 4500   6.256   7.797  11.220 -0.2552  0.0690 -0.3349
  757W        W 4501   4.820   8.246   0.333 -0.0725 -0.0976 -0.0754
  758W        W 4502   1.973   3.593  10.439  0.1785  0.1519  0.1763
  759W        W 4503   5.732   9.161   0.694  0.1052 -0.1188 -0.0218
  760W        W 4504   9.162   5.472  11.922 -0.4137 -0.1227 -0.3577
  761W        W 4505   3.981   2.982   1.138  0.0537  0.0402  0.0657
  762W        W 4506   9.726   3.513   3.050 -0.3144  0.1317 -0.2697
  763W        W 4507   3.882   2.363   1.868 -0.1728  0.0585 -0.0773
  764W        W 4508   7.763   9.699   8.588 -0.2488  0.2051 -0.1149
  765W        W 4509   0.434   4.038   8.762  0.0300 -0.1537 -0.0748
  766W        W 4510   1.854   3.908   0.501  0.2214  0.0862 -0.0210
  767W        W 4511   6.447   9.045   8.518 -0.0929  0.1287  0.1515
  768W        W 4512   8.147   4.120   1.583  0.1308  0.2106 -0.1076
  769W        W 4513   0.650   2.064   0.325 -0.2350 -0.2019  0.1423
  770W        W 4514   1.740   8.081   3.072 -0.1383  0.0587  0.2466
  771W        W 4515   6.763   2.078  10.639  0.1802 -0.2012  0.0120
  772W        W 4516   1.483   6.767   0.352 -0.0954 -0.0527 -0.2557
  773W        W 4517   9.554  10.055   3.572 -0.1076 -0.1483  0.1624
  774W        W 4518   6.929   2.274  11.829 -0.2117 -0.1355  0.0079
  775W        W 4519   6.887   5.413   1.164  0.1610 -0.1547 -0.2230
  776W        W 4520   7.483   2.212  11.532  0.2981 -0.1246  0.0390
  777W        W 4521   7.635   7.704  11.530  0.0187  0.0457 -0.0569
  778W        W 4522   7.577   6.631   7.603  0.0460 -0.0084  0.0154
  779W        W 4523   3.334   6.848   2.634  0.3420  0.0567  0.0831
  780W        W 4524   4.482   7.073  10.208 -0.0510 -0.2404  0.1339
  781W        W 4525   5.267   4.863   1.281 -0.2939  0.0269 -0.0558
  782W        W 4526   8.785   6.049   1.698  0.2815 -0.2008  0.1071
  783W        W 4527   7.033   1.420  12.127  0.1306  0.0592 -0.3383
  784W        W 4528   6.303   4.261   1.277  0.2266 -0.2273  0.0158
  785W        W 4529   6.000   3.850   0.483 -0.1949  0.0875  0.1012
  786W        W 4530   2.123   6.439   2.534 -0.2317  0.2106  0.0063
  787W        W 4531   0.621   9.907   2.605 -0.0478 -0.0347 -0.1926
  788W        W 4532   2.507   0.874   9.453 -0.1111  0.0107 -0.0451
  789W        W 4533   3.474   5.263   3.231  0.1546 -0.1194 -0.0409
  790W        W 4534   3.264   0.515  11.924 -0.0609  0.0635  0.3729
  791W        W 4535   6.068   1.799   9.936 -0.1555  0.0836  0.1058
  792W        W 4536   5.901   1.885  10.433 -0.1921  0.1072  0.0638
  793W        W 4537   7.279   6.033  10.868 -0.0849 -0.0905  0.3585
  794W        W 4538   1.862   0.717  11.881 -0.2335  0.0573 -0.0402
  795W        W 4539   1.110   4.813   0.493 -0.1206  0.1537 -0.1132
  796W        W 4540   4.257   3.432   9.754  0.0220 -0.0229 -0.0583
  797W        W 4541   8.225   7.189   8.442 -0.2344  0.2828  0.2240
  798W        W 4542   8.914   0.927   8.316  0.2027  0.1346  0.1512
  799W        W 4543   6.144   8.018   1.791  0.3027  0.0548  0.0898
  800W        W 4544   5.583   9.976  11.073 -0.1777 -0.1346 -0.0338
  801W        W 4545  10.085   8.670   0.032 -0.0679  0.0198 -0.1868
  802W        W 4546   0.168   6.661   9.229 -0.0066 -0.2531  0.0014
  803W        W 4547  10.178   2.657  10.765  0.1870  0.3771 -0.0487
  804W        W 4548   3.039   0.490   4.190 -0.0561  0.2256 -0.3168
  805W        W 4549   0.066   5.952   2.311 -0.4109  0.2534  0.2535
  806W        W 4550   3.191   6.901   3.116  0.5630 -0.0968 -0.2365
  807W        W 4551   0.060   7.990   3.051  0.2195 -0.0994  0.3169
  808W        W 4552   1.957   1.386   1.931 -0.0205  0.1610  0.1672
  809W        W 4553   1.429   8.852   0.386 -0.0864 -0.0392  0.0975
  810W        W 4554   2.144   2.326   0.929 -0.0400  0.1750  0.1979
  811W        W 4555   9.219   6.365   9.690 -0.2093  0.0502 -0.0700
  812W        W 4556   9.119   1.679   8.703  0.2028 -0.2194 -0.0929
  813W        W 4557   3.938   8.098  11.692  0.4080  0.0358  0.3426
  814W        W 4558   0.029   7.710  10.420  0.5595  0.0424  0.0104
  815W        W 4559  10.157   0.233   8.306 -0.0898  0.2764 -0.0316
  816W        W 4560   9.590   9.024   8.615 -0.2888  0.1552 -0.0912
  817W        W 4561   6.767   1.014   1.565  0.2100 -0.2966  0.0637
  818W        W 4562   0.445   3.823   7.981  0.1436 -0.1477  0.0497
  819W        W 4563   6.356   3.207  10.361 -0.0499 -0.1338 -0.0262
  820W        W 4564   4.309   6.419  11.498 -0.2159  0.2586 -0.0905
  821W        W 4565   0.673   4.429   9.066  0.1473  0.1321  0.1098
  822W        W 4566   4.797   3.794  10.817  0.0273  0.3015  0.0703
  823W        W 4567   4.482   6.368   1.785 -0.3660 -0.0088 -0.3495
  824W        W 4568   7.287   5.107   2.357  0.5204 -0.2395 -0.1338
  825W        W 4569   6.757   2.340   7.954  0.1424 -0.4913  0.2946
  826W        W 4570   8.483   8.103   9.573  0.0034  0.2333  0.0771
  827W        W 4571   9.576   6.643  10.798  0.1934  0.1579  0.0415
  828W        W 4572   0.112   7.648   8.219  0.2015 -0.0496  0.0387
  829W        W 4573   3.587   0.015   9.367  0.0175  0.0821 -0.0789
  830W        W 4574   5.330   4.899   2.262  0.1357  0.1544  0.0705
  831W        W 4575   9.185   3.626   2.878 -0.0310 -0.0324 -0.0730
  832W        W 4576  10.142   9.557  11.626 -0.0066 -0.0668 -0.1859
  833W        W 4577   9.972   2.385   2.443 -0.1005  0.1091 -0.3842
  834W        W 4578   3.122   7.883  11.103  0.1340  0.3645  0.0715
  835W        W 4579   6.153   1.475  10.722 -0.2956 -0.0634  0.3583
  836W        W 4580   6.899   8.340   8.216  0.1171 -0.3500  0.2432
  837W        W 4581   2.283   1.106   2.247 -0.3211 -0.0299 -0.0354
  838W        W 4582   3.668   2.047   2.861  0.1928 -0.0672  0.2267
  839W        W 4583   7.480   1.300   1.762 -0.0585  0.3200  0.1097
  840W        W 4584  10.157   1.647   1.399  0.0442  0.0840 -0.2622
  841W        W 4585   0.566  10.132   0.354 -0.1931  0.1025  0.2234
  842W        W 4586   8.128   9.055   4.436  0.1319  0.2139  0.0711
  843W        W 4587   6.826   1.320   9.048 -0.2617  0.0789 -0.1640
  844W        W 4588   8.399   6.839   0.406  0.0909  0.3421 -0.1939
  845W        W 4589   0.795   8.908   3.691 -0.4803  0.1461  0.0747
  846W        W 4590   3.505   6.588  10.160  0.0690  0.0616 -0.2367
  847W        W 4591   4.109   3.901  11.289 -0.0994  0.3759  0.0885
  848W        W 4592  10.048   3.972  11.645  0.0168 -0.2700  0.0692
  849W        W 4593   5.202   9.075   8.030 -0.0931 -0.2199  0.0528
  850W        W 4594   6.451   1.292   2.444 -0.2504  0.1014  0.0801
  851W        W 4595   2.116   4.568   1.681 -0.2187 -0.2527  0.2149
  852W        W 4596   3.170   0.045   4.363 -0.0862  0.1604  0.1909
  853W        W 4597   9.373   0.802   8.405  0.0045  0.0016  0.0225
  854W        W 4598   4.922   7.813   3.066  0.1487  0.1418  0.0203
  855W        W 4599   1.753   6.847   1.238 -0.0680 -0.5239  0.0551
  856W        W 4600   6.622   6.112   9.681  0.0995 -0.4205  0.0494
  857W        W 4601   9.140  10.039   1.910 -0.4100  0.0449 -0.0909
  858W        W 4602   8.794   0.958   2.030  0.0463 -0.0302  0.0039
  859W        W 4603   1.622   3.015  11.163  0.1002  0.3711  0.1127
  860W        W 4604   4.788   4.556   9.190  0.1078 -0.1249 -0.3151
  861W        W 4605   7.854   9.336   2.067  0.0567  0.2268  0.0222
  862W        W 4606   6.061   1.030   3.491  0.0886  0.1840  0.0265
  863W        W 4607   7.467   6.911   1.818 -0.1694 -0.1129 -0.0998
  864W        W 4608   5.368   8.846  10.567 -0.0641  0.2752 -0.1309
  865W        W 4609   1.722   6.905   2.516 -0.0924 -0.0025  0.0849
  866W        W 4610   1.489   4.500   9.503  0.0687  0.0462  0.3219
  867W        W 4611   9.098   7.290  10.773 -0.0130 -0.2200  0.2498
  868W        W 4612   4.452   9.000   3.031  0.1812  0.1001 -0.3091
  869W        W 4613   4.503   1.249   9.586  0.0048 -0.0309 -0.5726
  870W        W 4614   8.096   8.937   8.813  0.0948 -0.0091  0.9506
  871W        W 4615   9.893   1.567  11.082 -0.1743 -0.2848  0.0487
  872W        W 4616   1.909   0.891   1.880  0.1220  0.3019 -0.0724
  873W        W 4617   1.101   6.714  11.622  0.0394 -0.2049  0.0933
  874W        W 4618   6.835   2.633   2.749  0.2635 -0.1785  0.1188
  875W        W 4619   9.165   1.723   0.680 -0.2704  0.2648  0.0294
  876W        W 4620   8.506   3.106   9.699  0.0138 -0.0808 -0.0442
  877W        W 4621   3.151   8.299   3.573 -0.0362  0.2285 -0.0244
  878W        W 4622   8.016   6.558  11.150 -0.0879 -0.2095  0.3663
  879W        W 4623   6.575   8.360   1.775  0.2622  0.2275 -0.0013
  880W        W 4624   0.031   3.787   9.541 -0.2460 -0.1773 -0.0146
  881W        W 4625   2.077   0.246   0.528  0.0531 -0.1771 -0.0301
  882W        W 4626   9.206   1.327   8.312  0.0915  0.1179 -0.5236
  883W        W 4627   3.104   3.322   3.158 -0.1104  0.2217 -0.1516
  884W        W 4628   4.225   7.866   8.956 -0.0787 -0.1479 -0.0503
  885W        W 4629   1.646   3.194   8.426  0.0914 -0.0523  0.4600
  886W        W 4630   3.881   3.364   1.533  0.0972  0.0299  0.4032
  887W        W 4631   8.531   0.580  11.029  0.1029 -0.1433 -0.1170
  888W        W 4632   9.773   2.923   0.821  0.3934  0.1153  0.1910
  889W        W 4633   6.070   4.745  11.235 -0.0100  0.2243 -0.0522
  890W        W 4634   0.246   0.387   9.827  0.1757 -0.0153  0.1144
  891W        W 4635   1.415   6.951   9.384 -0.1063  0.0924 -0.0296
  892W        W 4636   5.127   2.183   2.999 -0.1456  0.1696  0.0316
  893W        W 4637   1.230   9.642   9.289  0.3590 -0.2581  0.3447
  894W        W 4638   4.939   1.726   8.898  0.0643 -0.1841  0.3097
  895W        W 4639   3.730   9.923   9.753  0.0940 -0.0920  0.3040
  896W        W 4640   1.859   5.919   7.640  0.0314 -0.3930 -0.0574
  897W        W 4641   7.670   3.729   1.624  0.4555  0.2029 -0.2941
  898W        W 4642   1.243   7.046   2.423 -0.1102  0.2909  0.0674
  899W        W 4643   9.110   8.956   0.163 -0.0783  0.1496  0.1034
  900W        W 4644   5.370   1.349   9.311 -0.1120  0.1585  0.3074
  901W        W 4645   1.411   8.177   0.834 -0.1476  0.0705  0.2689
  902W        W 4646   3.180   8.029   9.432 -0.1460 -0.0564  0.2462
  903W        W 4647   3.321   6.771   2.074 -0.2581 -0.3831  0.1831
  904W        W 4648   9.431   7.586  10.502  0.1832  0.3391 -0.4809
  905W        W 4649   7.409   7.719  10.558  0.0374  0.2042  0.0431
  906W        W 4650   1.473   1.972   8.160  0.0872 -0.0329  0.0577
  907W        W 4651  10.024   2.833   8.984 -0.0574 -0.0180 -0.1971
  908W        W 4652   1.327   3.806   9.652  0.2364  0.0569 -0.3906
  909W        W 4653   9.299   0.680   3.467 -0.0547 -0.2880 -0.3018
  910W        W 4654   8.015   1.062  10.672 -0.0196  0.1008 -0.0627
  911W        W 4655   3.817   5.942   0.402  0.1781  0.1930 -0.0415
  912W        W 4656   4.813   0.407   4.110 -0.1297  0.0805  0.1831
  913W        W 4657   9.210   0.438  12.134  0.0305 -0.0806 -0.1766
  914W        W 4658   6.545   9.477   1.136  0.2178 -0.4058  0.1804
  915W        W 4659   5.575   9.331   3.212 -0.1357  0.1151 -0.2404
  916W        W 4660   7.494   5.675   0.410 -0.1489 -0.1238 -0.0263
  917W        W 4661   7.000   9.163   2.390 -0.1716 -0.1534 -0.0102
  918W        W 4662   4.996   1.203  10.327  0.2332  0.0119 -0.1702
  919W        W 4663   8.474   2.116  10.022 -0.0668  0.3939  0.2608
  920W        W 4664   2.401   2.663   9.918 -0.2570 -0.0544  0.0203
  921W        W 4665   2.828   8.516  10.886 -0.2356 -0.0495 -0.0435
  922W        W 4666   2.008   4.983   0.426 -0.3177  0.1820 -0.1177
  923W        W 4667   1.673   7.854   9.507 -0.2989  0.1162  0.2815
  924W        W 4668   4.747   1.144   2.278 -0.0276  0.0503  0.2541
  925W        W 4669   1.843   0.218  11.856  0.1942  0.1867 -0.5676
  926W        W 4670   0.405   5.239   1.436 -0.1488  0.0326 -0.1976
  927W        W 4671   4.021   4.271  11.615  0.3650 -0.1435 -0.1782
  928W        W 4672   0.235   9.471   9.862 -0.0302 -0.2369  0.2353
  929W        W 4673   7.875   0.912  12.103 -0.1031  0.2534  0.2490
  930W        W 4674   3.115   8.448   2.457 -0.2725  0.2239  0.1252
  931W        W 4675   0.668   4.339  11.951 -0.0081 -0.1317  0.1586
  932W        W 4676   3.389   7.147   0.126 -0.0899  0.2764  0.0921
  933W        W 4677   1.723   7.264  10.659 -0.2546 -0.2637 -0.0018
  934W        W 4678   5.529   3.918   2.829 -0.0472 -0.1093  0.0255
  935W        W 4679   0.156   7.548  12.019  0.0854 -0.1289  0.1140
  936W        W 4680   6.425   1.156  10.453 -0.3681 -0.1793  0.1485
  937W        W 4681   5.073   3.071  10.194 -0.1334 -0.3771 -0.0054
  938W        W 4682   0.506   8.869  10.580 -0.0546  0.0542  0.0600
  939W        W 4683   7.011   3.596   1.900 -0.3981 -0.1140 -0.3521
  940W        W 4684   4.871   6.778   8.910 -0.0396  0.1877  0.6376
  941W        W 4685   4.309   4.288   1.409  0.1907  0.2540 -0.0038
  942W        W 4686   6.400   5.054   0.405 -0.4075 -0.4015 -0.0526
  943W        W 4687   5.908   1.019  11.373 -0.0375  0.0967  0.0965
  944W        W 4688   6.478   2.883   3.942  0.2211 -0.1253  0.1296
  945W        W 4689   8.292   7.426  10.834 -0.4297  0.2573 -0.0816
  946W        W 4690   4.136   9.506   0.769 -0.1498 -0.0122  0.0564
  947W        W 4691   3.844  10.181   2.711 -0.3043  0.3141  0.1690
  948W        W 4692   6.450   8.523   0.858  0.2127 -0.0770 -0.1069
  949W        W 4693   1.028   4.322   8.643 -0.1559 -0.1823 -0.1994
  950W        W 4694   6.500   6.768  10.842 -0.0832  0.0609 -0.4053
  951W        W 4695   3.806   3.298  10.098  0.2648  0.0273  0.3333
  952W        W 4696   5.325   5.782   8.977  0.1614  0.0754  0.0652
  953W        W 4697   4.934   5.961   1.849 -0.2167 -0.5480  0.2010
  954W        W 4698   8.003   0.636   9.594  0.0778 -0.2644  0.4464
  955W        W 4699   4.288   2.215   2.741 -0.0010 -0.0544 -0.0430
  956W        W 4700   2.410   1.270  10.368 -0.0230  0.0181 -0.0297
  957W        W 4701   1.872   9.190   1.554 -0.0427 -0.2809 -0.1622
  958W        W 4702   7.831   7.248   8.160 -0.0411  0.3398  0.0744
  959W        W 4703   3.656   2.609  11.983 -0.0882  0.4334 -0.0380
  960W        W 4704   0.896   1.741   1.259  0.1797  0.1354  0.0772
  961W        W 4705   8.833   2.670   1.558 -0.0856 -0.0005  0.1899
  962W        W 4706   3.542   9.171   3.291  0.1688  0.0627 -0.1911
  963W        W 4707   7.830   3.782   3.574  0.2834 -0.1976 -0.2041
  964W        W 4708   2.579   4.798   0.272  0.1725  0.2068  0.0476
  965W        W 4709   3.867   9.583   0.373  0.0815 -0.1651  0.0433
  966W        W 4710  10.104   9.194   7.419  0.0392 -0.0631  0.2410
  967W        W 4711   6.563   4.929  10.207  0.1811  0.1463 -0.3189
  968W        W 4712   4.582   9.902   3.507  0.0906  0.0241  0.3011
  969W        W 4713   6.350   0.787  10.072 -0.1600 -0.3473 -0.1217
  970W        W 4714   3.761   7.307   8.026  0.1914  0.0502 -0.1942
  971W        W 4715   9.975   6.168   9.795 -0.1894  0.1292  0.0108
  972W        W 4716   8.145   8.638   1.677  0.1198 -0.3988 -0.3604
  973W        W 4717   8.913   3.035   8.100  0.1280 -0.1650 -0.0188
  974W        W 4718   0.080   4.867   7.943 -0.1712  0.1700  0.1294
  975W        W 4719   4.414   8.940  10.223  0.1029  0.2418  0.0819
  976W        W 4720   5.141  10.121   2.196  0.0922 -0.2525  0.1103
  977W        W 4721   5.922   6.685   2.177  0.0263 -0.1340  0.1965
  978W        W 4722   9.666   8.543   2.605 -0.2822 -0.2560 -0.1051
  979W        W 4723   8.920   4.411   1.593  0.4186 -0.0558  0.3033
  980W        W 4724   6.094   3.897  11.527  0.0139  0.0825 -0.3083
  981W        W 4725   3.966   6.475  11.847 -0.5032  0.2811 -0.0185
  982W        W 4726   7.415   9.437  11.625  0.3758  0.2629  0.0530
  983W        W 4727   3.685   8.685   0.952 -0.1529 -0.0275 -0.2048
  984W        W 4728   6.262   2.328  11.404  0.0320  0.1123 -0.0974
  985W        W 4729   0.107   2.961   4.020  0.3153 -0.0394  0.0041
  986W        W 4730   5.085   2.438   9.580 -0.5822  0.1343 -0.0406
  987W        W 4731   3.430   0.073  10.446  0.0687  0.0204  0.3252
  988W        W 4732   9.889   4.616   0.594 -0.2682  0.0717 -0.0115
  989W        W 4733   0.837   3.101   2.107  0.0251  0.2522  0.1194
  990W        W 4734   0.845   5.310   9.306  0.0224 -0.2040 -0.0017
  991W        W 4735   0.527   8.013   9.960  0.1449  0.1011 -0.1848
  992W        W 4736   2.636   2.299   1.625 -0.0479 -0.0273  0.1640
  993W        W 4737   5.381   6.837   0.484  0.0421 -0.1485 -0.1005
  994W        W 4738   5.734   8.717  10.279 -0.0099  0.3549  0.1102
  995W        W 4739   1.972   5.459   2.258  0.2236 -0.0994  0.0162
  996W        W 4740   2.984   2.897   0.471 -0.3405 -0.1975  0.0662
  997W        W 4741   7.179   3.519   7.219  0.0410 -0.1185  0.4258
  998W        W 4742   1.662   1.158   1.432 -0.1733  0.0861 -0.3399
  999W        W 4743   2.998   0.021   0.602  0.4853  0.3433  0.1566
 1000W        W 4744   0.541   5.719   2.600 -0.5759  0.0473 -0.1625
 1001W        W 4745   9.565   5.588  10.874  0.1367  0.1258  0.1914
 1002W        W 4746   6.989   0.938  12.064  0.0703 -0.1859 -0.1455
 1003W        W 4747   1.438   6.307  11.664  0.0506 -0.1702  0.0552
 1004W        W 4748   0.593   1.095   9.157  0.0820  0.3184  0.2881
 1005W        W 4749   4.059   0.542   9.495  0.1836 -0.0570 -0.1012
 1006W        W 4750   5.297   9.786  10.733  0.1256  0.0971 -0.2670
 1007W        W 4751   0.111   5.708   2.892 -0.0622 -0.0553 -0.0004
 1008W        W 4752   0.896  10.008  10.319 -0.1232  0.1921 -0.1348
 1009W        W 4753   7.850   0.887   0.863  0.0194  0.2565 -0.1190
 1010W        W 4754   6.490   8.367   9.807 -0.0519 -0.0235 -0.2724
 1011W        W 4755   4.734   9.820   2.996  0.1544  0.1184 -0.0038
 1012W        W 4756   0.784   6.944  11.960 -0.1337  0.0910  0.1826
 1013W        W 4757   6.521   0.137   1.853 -0.1972 -0.0648 -0.0734
 1014W        W 4758   1.613   1.166   9.997 -0.6009 -0.1433  0.0419
 1015W        W 4759   3.406   8.478   9.634  0.2195 -0.1988 -0.5437
 1016W        W 4760   1.625   5.468   7.633  0.0236 -0.0112  0.1223
 1017W        W 4761   2.123   0.946   1.376  0.0304 -0.3028 -0.1227
 1018W        W 4762  10.167   3.009   1.129  0.2002 -0.0938 -0.2258
 1019W        W 4763   7.767   1.368   3.726  0.1430 -0.2717 -0.0266
 1020W        W 4764   8.924   0.262   9.121  0.0461  0.0183 -0.2070
 1021W        W 4765   7.609   6.914   0.039 -0.0270 -0.1512  0.2339
 1022W        W 4766   7.567   3.728   0.640 -0.1401 -0.1056 -0.0379
 1023W        W 4767   9.365   6.876   0.414 -0.5380  0.0470  0.0130
 1024W        W 4768   6.680   9.015   0.784 -0.3092 -0.0934  0.2519
 1025W        W 4769   4.484   3.532  11.255 -0.0270 -0.1501 -0.0126
 1026W        W 4770   2.631   8.096   8.285 -0.3556  0.1202 -0.0664
 1027W        W 4771   9.905  10.003   2.577 -0.0540 -0.0346  0.0764
 1028W        W 4772   8.256   1.296   0.091 -0.0729  0.3029  0.4002
 1029W        W 4773   3.213   7.167   3.551 -0.0035 -0.1212 -0.1748
 1030W        W 4774   2.960   0.893  10.913  0.1197  0.1402  0.1073
 1031W        W 4775   2.665   7.032   0.605 -0.0352 -0.1107  0.1465
 1032W        W 4776   2.430   8.372   8.641  0.2725  0.1952  0.1181
 1033W        W 4777   8.948   3.020   9.302  0.0494 -0.1000  0.1347
 1034W        W 4778   6.775   0.797   9.267  0.2622 -0.1870 -0.0142
 1035W        W 4779   8.311   9.856   8.456  0.1292  0.1261  0.1575
 1036W        W 4780   6.942   6.726   2.807 -0.0285 -0.2031 -0.2333
 1037W        W 4781   7.047   7.037   0.210 -0.0228 -0.3211 -0.1149
 1038W        W 4782   9.580   7.402   0.320  0.1054 -0.3061  0.0058
 1039W        W 4783   0.170   0.124  11.275  0.0972  0.3250 -0.1569
 1040W        W 4784   2.070   5.456   7.795  0.2548 -0.0008  0.1994
 1041W        W 4785   9.114   3.043   8.549 -0.0915 -0.2516 -0.1006
 1042W        W 4786   8.852   6.033  12.067 -0.0632 -0.0447  0.4668
 1043W        W 4787   4.482   6.660   1.349 -0.1613  0.3440 -0.1633
 1044W        W 4788   4.222   9.742   9.225 -0.2239 -0.0894  0.0418
 1045W        W 4789   2.901   0.340  11.143  0.1302  0.1881  0.1974
 1046W        W 4790   6.174   9.437   1.500  0.1765  0.0982  0.1339
 1047W        W 4791   0.081   1.526   9.335 -0.3299  0.2150 -0.0701
 1048W        W 4792   4.405   3.138   8.029  0.1349 -0.0106 -0.1207
 1049W        W 4793   5.236   9.740   3.030  0.2708 -0.0878 -0.0528
 1050W        W 4794   1.106   1.230   1.064  0.2063  0.0082  0.1680
 1051W        W 4795   2.503   6.710   2.283  0.3617  0.0417 -0.2154
 1052W        W 4796   6.130   2.944   9.691  0.3529 -0.1889  0.0192
 1053W        W 4797   2.228  10.213  10.788 -0.0093  0.1109 -0.2102
 1054W        W 4798   9.428   8.242   8.186 -0.0022  0.0086 -0.1032
 1055W        W 4799   4.338   0.964  11.569 -0.2248 -0.1271  0.0433
 1056W        W 4800   5.113   3.942   1.998  0.2938 -0.0178  0.1095
 1057W        W 4801   0.858   4.431   0.325 -0.0395 -0.0619  0.0643
 1058W        W 4802   2.055   0.963   3.622  0.2611  0.1083 -0.0504
 1059W        W 4803   2.716   6.853  10.455 -0.0647  0.2711 -0.0540
 1060W        W 4804   0.685   7.222  10.274  0.1057 -0.4180  0.0838
 1061W        W 4805   4.618   1.408   1.365  0.0265 -0.0446  0.2395
 1062W        W 4806  10.002   9.185   9.721  0.1514 -0.1498  0.2969
 1063W        W 4807  10.154   0.768   0.835 -0.0500 -0.2494  0.2337
 1064W        W 4808   4.905   7.804   8.544 -0.3496 -0.0946  0.0573
 1065W        W 4809   6.192   1.351   9.676  0.4592 -0.2480  0.0322
 1066W        W 4810   9.133   6.313   8.700 -0.1289 -0.0176 -0.0737
 1067W        W 4811   9.838   4.170   1.966  0.3153 -0.2540 -0.4452
 1068W        W 4812   2.836   4.046  11.822  0.0975 -0.0863 -0.2181
 1069W        W 4813   5.091   6.108   3.539  0.2487  0.2665  0.0984
 1070W        W 4814  10.120   4.195   0.474 -0.1824  0.0677  0.0944
 1071W        W 4815   9.746   5.204   9.210 -0.2739  0.1777 -0.0085
 1072W        W 4816   0.300   3.202   8.468  0.1670  0.3361 -0.0510
 1073W        W 4817  10.034   3.494   1.149  0.1378  0.1952 -0.1628
 1074W        W 4818   3.397   9.244   9.238  0.3145 -0.4426 -0.1753
 1075W        W 4819   7.627   6.703   9.073 -0.0321  0.3393 -0.1484
 1076W        W 4820   6.903   5.551   9.416  0.1159  0.1682 -0.1888
 1077W        W 4821   5.547   0.595   1.608  0.0921  0.3054  0.1478
 1078W        W 4822   6.890   3.052   3.191 -0.1043  0.0400  0.0689
 1079W        W 4823   6.763   1.525   2.819  0.1623 -0.0877  0.0730
 1080W        W 4824   7.482   4.893   1.406 -0.0886 -0.1751 -0.3974
 1081W        W 4825   8.212   4.224   0.104  0.2799 -0.2257 -0.0682
 1082W        W 4826   0.744   0.830   2.453 -0.4187 -0.1145 -0.2291
 1083W        W 4827   2.697   6.937   2.886 -0.2571  0.1831 -0.0230
 1084W        W 4828   8.710   0.308  10.369 -0.2641  0.1839  0.1696
 1085W        W 4829   2.063   0.665  11.349 -0.2717 -0.2219  0.0374
 1086W        W 4830   3.782   3.980  10.876  0.1826 -0.1190 -0.2558
 1087W        W 4831   8.097   5.175   9.145 -0.0767 -0.0557  0.0400
 1088W        W 4832   4.219  10.106   2.317  0.1214  0.1027 -0.0593
 1089W        W 4833   2.465   2.724   0.204  0.0508 -0.1901 -0.0428
 1090W        W 4834   3.321   9.226   3.762 -0.1291 -0.4517 -0.1695
 1091W        W 4835   2.259  10.103   1.742  0.2081 -0.0900  0.0380
 1092W        W 4836   0.345   0.327   0.735  0.0322  0.1779  0.2127
 1093W        W 4837   9.785   6.902  11.263 -0.2797  0.2516 -0.0654
 1094W        W 4838   2.271   5.587   2.764  0.3245  0.0889 -0.1396
 1095W        W 4839   1.841   1.636  11.009  0.1671 -0.0263 -0.0531
 1096W        W 4840   2.081   8.399   2.810 -0.1668 -0.0041 -0.1088
 1097W        W 4841   0.579   7.396   0.340 -0.1313 -0.3862  0.2833
 1098W        W 4842   2.588   1.666   2.548 -0.2150  0.0721  0.0070
 1099W        W 4843  10.215   5.736   3.933 -0.0195 -0.1123 -0.3490
 1100W        W 4844   8.801   6.520   9.944 -0.1846  0.3728  0.1634
 1101W        W 4845   2.766   0.228   9.903 -0.0968  0.0121  0.0921
 1102W        W 4846   6.590   1.205  11.999  0.0638  0.0168 -0.0472
 1103W        W 4847   7.242   8.451   2.055 -0.1501 -0.0712  0.1721
 1104W        W 4848   8.042   9.331   1.019 -0.0640  0.4963 -0.2471
 1105W        W 4849   8.246   7.823   8.694  0.4247 -0.0647 -0.1994
 1106W        W 4850   0.678   1.997  11.960 -0.0289  0.0520 -0.2691
 1107W        W 4851   7.122   4.700   4.038 -0.1148  0.0831  0.0669
 1108W        W 4852   5.793   2.071   9.492 -0.0130  0.0695 -0.1489
 1109W        W 4853   3.539   4.925  10.373 -0.0573  0.1627  0.3578
 1110W        W 4854   8.981   3.759   3.362 -0.0746  0.3472  0.0635
 1111W        W 4855   4.499   9.131  11.151  0.0325  0.0919 -0.0435
 1112W        W 4856   9.821   3.246   8.253  0.3577  0.0075 -0.0738
 1113W        W 4857   7.547   0.025   3.427 -0.1215  0.1872  0.1993
 1114W        W 4858   7.871   5.431   0.508  0.2576 -0.2880 -0.0500
 1115W        W 4859   8.043   3.758   9.937 -0.0441  0.0461  0.0276
 1116W        W 4860   0.206   8.522  11.713 -0.1845 -0.0777  0.2183
 1117W        W 4861   8.483   1.588   7.719 -0.1726 -0.1455 -0.2969
 1118W        W 4862   6.378   8.869  10.222 -0.0672 -0.1299 -0.0383
 1119W        W 4863   5.075   9.303  11.279 -0.1593 -0.1112  0.2795
 1120W        W 4864   3.413   3.575  10.221  0.0462 -0.1023 -0.0299
 1121W        W 4865   7.969  10.064   0.636  0.1089  0.3494  0.2401
 1122W        W 4866   6.291   7.142   8.861  0.1562 -0.1226 -0.0157
 1123W        W 4867   8.104   7.637   0.580 -0.1069 -0.0086 -0.1040
 1124W        W 4868   1.003   9.328   1.872 -0.5191  0.2144  0.3630
 1125W        W 4869   9.391   7.695   0.656  0.2323 -0.3447  0.1461
 1126W        W 4870   5.992   6.063   2.977 -0.0195 -0.0127  0.0737
 1127W        W 4871   6.989   3.938   3.092  0.6089 -0.1490  0.2992
 1128W        W 4872   6.488   3.823   2.202  0.0351 -0.1804  0.0657
 1129W        W 4873   6.090   2.772  11.516  0.1495  0.1234  0.0310
 1130W        W 4874   3.701   7.631   0.984  0.0223 -0.0656 -0.1605
 1131W        W 4875   2.925   9.443   9.557 -0.0067 -0.3216 -0.1612
 1132W        W 4876   0.821   6.931   1.360 -0.1464 -0.2184 -0.1450
 1133W        W 4877   6.540   7.327  11.100 -0.1125 -0.1616 -0.1204
 1134W        W 4878   2.787   8.008   3.791  0.2266 -0.2036  0.0577
 1135W        W 4879   8.383   2.780   9.188  0.3298  0.1299  0.1574
 1136W        W 4880   2.242   3.464  11.421  0.1982 -0.0719 -0.0645
 1137W        W 4881   2.135   2.108  10.146  0.0522  0.0510 -0.0319
 1138W        W 4882   3.012   2.010   8.891  0.3320  0.0462  0.0226
 1139W        W 4883   3.087   5.088  11.231  0.3685 -0.0939 -0.2400
 1140W        W 4884   5.165   2.144   9.984  0.3252  0.2435 -0.0053
 1141W        W 4885   9.471   9.073  11.876 -0.2934 -0.0573  0.2979
 1142W        W 4886   7.978   8.114   9.335 -0.1022 -0.1108  0.1554
 1143W        W 4887   2.480   1.248   0.730  0.2869 -0.2448 -0.1668
 1144W        W 4888   4.108   1.067   2.657 -0.1151 -0.2329  0.1300
 1145W        W 4889   5.615   9.427   1.268  0.1305 -0.1468  0.1332
 1146W        W 4890   1.627   9.725   8.928 -0.1816 -0.2667 -0.2893
 1147W        W 4891   7.307   1.549   9.317  0.0565 -0.3294 -0.1610
 1148W        W 4892   2.928   2.556   0.839 -0.0090 -0.1620 -0.0331
 1149W        W 4893   7.020   8.095   2.629 -0.0642  0.0313  0.0657
 1150W        W 4894   4.915   9.739   9.265 -0.0741  0.2479  0.1671
 1151W        W 4895   3.075   5.462   9.711  0.1142  0.1636  0.1275
 1152W        W 4896   7.211   8.935   8.837 -0.4057 -0.4006  0.2009
 1153W        W 4897   7.772   0.294  11.528 -0.0304 -0.0607 -0.2945
 1154W        W 4898   4.071   0.595   2.011 -0.1444  0.0981 -0.1963
 1155W        W 4899   4.859   1.976   1.917 -0.0978  0.1624  0.1015
 1156W        W 4900   9.469   1.504  11.284 -0.2066 -0.2053  0.2655
 1157W        W 4901   4.047   0.918  11.996 -0.1285 -0.1233  0.0155
 1158W        W 4902   7.927   5.661   9.413 -0.1974  0.0292 -0.1822
 1159W        W 4903   0.576   0.176  10.786  0.4410  0.0555 -0.2355
 1160W        W 4904   7.584   7.338   1.444 -0.1892 -0.1236 -0.4608
 1161W        W 4905   7.227   4.695   9.977 -0.3327  0.1531  0.0652
 1162W        W 4906   6.514   8.352   9.338 -0.0412 -0.0991  0.0473
 1163W        W 4907   1.436   5.818   3.218 -0.2118 -0.1416 -0.1251
 1164W        W 4908   9.321   7.996  10.142 -0.0161 -0.0171  0.1276
 1165W        W 4909   7.984   4.420  10.991  0.1046 -0.0348 -0.0267
 1166W        W 4910   5.319   1.086  11.324  0.0590 -0.1905 -0.3955
 1167W        W 4911   7.412   2.901   1.533 -0.1221  0.1448 -0.2942
 1168W        W 4912   1.490   2.849  10.085 -0.0197 -0.2080 -0.0684
 1169W        W 4913   4.819   7.038   2.616 -0.1622  0.0056 -0.3315
 1170W        W 4914   2.576   3.797   1.974  0.0271 -0.0978  0.2130
 1171W        W 4915   6.673   0.572   1.673 -0.0281 -0.0136 -0.4153
 1172W        W 4916   5.765   1.068   1.523 -0.3511 -0.1745  0.0491
 1173W        W 4917   9.573   9.266   0.187  0.0732 -0.0064  0.0076
 1174W        W 4918   3.946   6.419   0.260  0.2468 -0.0378 -0.1116
 1175W        W 4919   4.534   5.794   2.148  0.0694  0.1194 -0.0655
 1176W        W 4920   4.563   5.346   1.779  0.2623  0.2120 -0.1737
 1177W        W 4921   3.856   8.072   9.906 -0.1083 -0.2409  0.2521
 1178W        W 4922   4.752   2.500   2.635  0.3466 -0.1019 -0.1973
 1179W        W 4923   0.155   4.697   0.620  0.1847  0.2380  0.1968
 1180W        W 4924   4.216   3.149   2.427  0.1081 -0.2018  0.0251
 1181W        W 4925   9.886   8.070   3.301  0.3711  0.0362 -0.2361
 1182W        W 4926   5.090   4.614   9.624 -0.1673 -0.1324 -0.2573
 1183W        W 4927   5.858   4.892  11.703  0.1629 -0.5978 -0.2050
 1184W        W 4928   6.260   2.510   2.546  0.2476 -0.4178 -0.1042
 1185W        W 4929   7.441   7.386   0.200  0.0307 -0.1131  0.1466
 1186W        W 4930   4.995   2.077  10.614 -0.2169  0.2474 -0.3753
 1187W        W 4931   7.596   9.190  10.568 -0.2977  0.0435 -0.0526
 1188W        W 4932   3.713   1.383   3.045  0.1926  0.1722 -0.1379
 1189W        W 4933   3.971   3.302   8.104  0.1864  0.0350 -0.1857
 1190W        W 4934   8.767   3.239   2.178  0.0474  0.0021 -0.1727
 1191W        W 4935   0.634   5.313   2.078 -0.0193  0.1797 -0.2523
 1192W        W 4936   2.006   7.470   9.641 -0.2339 -0.3409 -0.0591
 1193W        W 4937   4.366   2.750   2.814 -0.1578 -0.3879  0.2347
 1194W        W 4938   6.030   2.840   0.360  0.1871 -0.1259  0.3167
 1195W        W 4939   3.921   7.600  11.594 -0.1698 -0.1111 -0.0935
 1196W        W 4940   0.380   7.469  11.320 -0.0786  0.0193  0.3484
 1197W        W 4941   3.600   2.943  11.557 -0.0022 -0.3472  0.2629
 1198W        W 4942   3.408   8.395  11.689 -0.0966  0.1205  0.0108
 1199W        W 4943   2.512   0.437  10.803 -0.0311  0.1187 -0.1479
 1200W        W 4944   3.351   9.877   0.348 -0.1739 -0.1524 -0.2269
 1201W        W 4945   0.246   0.902   0.439 -0.2614  0.1226  0.0569
 1202W        W 4946   6.121   3.738  10.270 -0.4716 -0.2498  0.3135
 1203W        W 4947   3.493   4.119   7.282 -0.1777  0.1768 -0.3686
 1204W        W 4948   9.664   1.759   1.184  0.2363 -0.0966 -0.1770
 1205W        W 4949   7.895   9.365   9.839 -0.0860 -0.1285  0.0314
 1206W        W 4950   2.227   6.887   2.665 -0.1332 -0.1212 -0.0209
 1207W        W 4951   2.351   2.062   2.744 -0.0265  0.2950  0.1468
 1208W        W 4952   7.229   3.496  11.760  0.1327  0.0261 -0.0730
 1209W        W 4953   0.315   1.533   8.026 -0.1341  0.0142 -0.0645
 1210W        W 4954   1.236  10.033  10.823 -0.1024  0.1788  0.0306
 1211W        W 4955   3.983   5.945   2.781  0.0603  0.2935  0.2621
 1212W        W 4956   2.968   2.181  10.533 -0.0235  0.1567  0.1412
 1213W        W 4957   4.610   5.703  10.687  0.2947  0.2434 -0.1440
 1214W        W 4958   3.865   9.638   4.161 -0.3437 -0.4085 -0.1435
 1215W        W 4959   4.960   9.494   3.431 -0.2244  0.1071  0.0252
 1216W        W 4960   3.016   4.108   0.974  0.1243  0.3577 -0.1356
 1217W        W 4961   6.423   1.233   4.235 -0.0764  0.0187  0.3192
 1218W        W 4962   5.344   8.924   1.706 -0.1410  0.3112  0.2415
 1219W        W 4963   4.794   6.384   9.235 -0.1055  0.2819 -0.0052
 1220W        W 4964   3.725   5.493   2.610 -0.0957  0.0596 -0.0476
 1221W        W 4965   3.157   4.975   3.423  0.1270  0.1577 -0.1672
 1222W        W 4966   2.640   2.447  11.953  0.0516  0.0900 -0.0764
 1223W        W 4967   3.461  10.062   3.109 -0.1188 -0.2206  0.0749
 1224W        W 4968   0.313   5.436  11.157  0.2631 -0.1498 -0.0229
 1225W        W 4969   4.257   6.542   2.647 -0.1514  0.0554 -0.1864
 1226W        W 4970   9.131   0.433  10.074 -0.2681  0.1789  0.0022
 1227W        W 4971   9.928   3.911   2.357 -0.2332 -0.1872 -0.2400
 1228W        W 4972   6.308   9.926   2.787 -0.2106  0.0503 -0.0440
 1229W        W 4973   3.250   9.265   9.861  0.2083  0.1071  0.0413
 1230W        W 4974   1.078   2.148  10.681  0.1567 -0.1991  0.2415
 1231W        W 4975   3.833   4.159   1.000 -0.0819 -0.0615  0.2247
 1232W        W 4976   7.247   7.336   2.045 -0.0374 -0.1323  0.2012
 1233W        W 4977   7.806  10.068   8.166 -0.1101 -0.2835 -0.0881
 1234W        W 4978   2.843   9.186   2.113  0.1785  0.2691  0.0358
 1235W        W 4979   5.531   9.990   3.442 -0.0145  0.0421  0.1729
 1236W        W 4980   3.902   0.701  11.322 -0.3076  0.0003  0.2199
 1237W        W 4981   1.342   3.854  10.877 -0.0728  0.5477  0.4309
 1238W        W 4982   0.640   5.420   7.415  0.1842 -0.1039  0.0830
 1239W        W 4983   9.837   3.727   0.716  0.1313 -0.1183 -0.2072
 1240W        W 4984   1.496   6.426   8.221 -0.1778  0.3449 -0.0121
 1241W        W 4985   0.819   0.419   2.152  0.1675 -0.0841  0.2143
 1242W        W 4986   7.037   9.567   0.272 -0.0648 -0.0606 -0.3876
 1243W        W 4987   0.070   6.451   3.555 -0.3027  0.1505  0.2510
 1244W        W 4988   3.873   9.256  11.992  0.2074 -0.0950 -0.4646
 1245W        W 4989   5.327   4.809   7.990  0.2443 -0.1373  0.0412
 1246W        W 4990   8.932   0.610   2.392  0.1013 -0.0587 -0.0562
 1247W        W 4991   3.282   3.387   1.527  0.1419  0.3083  0.1231
 1248W        W 4992   0.136   5.129  10.758  0.2480 -0.0041  0.0392
 1249W        W 4993   3.311   4.057  11.119 -0.3129 -0.2294  0.0637
 1250W        W 4994   0.878   3.489   2.556 -0.7139 -0.2014  0.2507
 1251W        W 4995   5.556   1.145   3.412 -0.1424 -0.0421  0.1285
 1252W        W 4996   6.103   8.061   8.620  0.2994 -0.4174 -0.0707
 1253W        W 4997   6.777   9.943   8.524  0.1598 -0.3020  0.1766
 1254W        W 4998   9.414   7.133   8.344 -0.1490  0.1255 -0.0143
 1255W        W 4999   8.769   3.468   2.651 -0.1928  0.0924 -0.0834
 1256W        W 5000   8.630   4.120   1.917  0.0501 -0.1867  0.0455
 1257W        W 5001   6.712   1.622   4.108  0.2524  0.0575 -0.1356
 1258W        W 5002   7.653   4.361   2.739  0.4710 -0.1137 -0.3175
 1259W        W 5003   3.175   7.813   3.023  0.2607 -0.0915  0.2850
 1260W        W 5004   3.484   3.463   9.748 -0.1951 -0.1234 -0.1405
 1261W        W 5005   7.443   2.728  10.958  0.1475 -0.0923  0.2141
 1262W        W 5006   6.210   0.449   0.138 -0.2559  0.2290 -0.2017
 1263W        W 5007   7.495   4.899   3.129  0.1481  0.0041 -0.0451
 1264W        W 5008   7.947   4.130   0.747 -0.3720  0.1359  0.2996
 1265W        W 5009   0.922   2.925  11.283 -0.1263  0.3401  0.2494
 1266W        W 5010   0.701   9.198  11.945  0.0222  0.2136  0.0938
 1267W        W 5011   9.977   4.945   8.860  0.0582 -0.1264  0.0223
 1268W        W 5012   5.457   6.587   9.066 -0.1659 -0.1381  0.1646
 1269W        W 5013   1.485   0.864   3.341  0.0428  0.2183  0.3202
 1270W        W 5014   6.019   8.323  10.108 -0.1570 -0.3135  0.2908
 1271W        W 5015   5.341   0.176  11.347  0.0700 -0.0416  0.0705
 1272W        W 5016   2.697   3.024  10.935  0.1309  0.0698  0.0298
 1273W        W 5017   4.377   1.868   2.420 -0.2432 -0.0248  0.1273
 1274W        W 5018   9.379   7.810   9.183 -0.1018  0.0507  0.0737
 1275W        W 5019   6.349   9.856   2.274 -0.2289 -0.2368  0.4310
 1276W        W 5020   2.212   1.433   3.928 -0.0587 -0.1409  0.3137
 1277W        W 5021   7.975   9.471   1.490 -0.1290 -0.1077 -0.0216
 1278W        W 5022   9.155   1.350  10.483  0.2302 -0.3075 -0.0177
 1279W        W 5023   8.131   4.614   8.714 -0.0410  0.0755 -0.2347
 1280W        W 5024   9.098   2.949   1.917  0.0043  0.0592  0.0375
 1281W        W 5025   0.886   1.233  11.556  0.4744 -0.0348 -0.1422
 1282W        W 5026   7.684   5.177   9.450 -0.0661 -0.1297  0.0391
 1283W        W 5027   3.873   3.547   2.484  0.1676  0.2428 -0.2675
 1284W        W 5028   0.787   8.557   1.009 -0.1188  0.0740  0.0469
 1285W        W 5029   7.441   7.848  10.038  0.0656 -0.0694  0.1150
 1286W        W 5030   2.565   3.385   3.124  0.1954 -0.2690  0.0167
 1287W        W 5031   4.851   5.035   1.519  0.0013  0.0716 -0.2652
 1288W        W 5032   0.904   2.451  11.489  0.1554 -0.1189 -0.1086
 1289W        W 5033   3.096   7.972  11.865 -0.0375 -0.0906  0.1675
 1290W        W 5034   1.441   4.769  10.055  0.2177  0.0086  0.0392
 1291W        W 5035   7.325   6.996   7.304  0.0063  0.2410  0.0054
 1292W        W 5036   1.479   3.379   0.737  0.0940 -0.1934 -0.0697
 1293W        W 5037   7.796  10.196  10.730 -0.0516  0.3566 -0.0367
 1294W        W 5038   4.793   5.774  11.168 -0.0638  0.0507 -0.0744
 1295W        W 5039   9.767   4.684   7.964  0.1667  0.1681  0.2231
 1296W        W 5040   8.275   8.820   2.945  0.3222  0.4306 -0.2299
 1297W        W 5041   8.407   1.094   8.148  0.0275 -0.1981 -0.2599
 1298W        W 5042   2.003   6.201   8.449 -0.1994 -0.0426  0.0800
 1299W        W 5043   7.974   1.297  11.212  0.1524 -0.2502 -0.2412
 1300W        W 5044   1.576   5.529   9.573 -0.3503  0.2162  0.2931
 1301W        W 5045   8.168   2.487   2.107 -0.2777  0.0567 -0.0298
 1302W        W 5046   0.783   2.122   3.329  0.1708  0.0500 -0.0456
 1303W        W 5047   4.427   9.567   2.427 -0.1734 -0.1727  0.4607
 1304W        W 5048   6.208   4.241   3.134  0.3845 -0.2117  0.0366
 1305W        W 5049   5.284   4.629   0.380 -0.1471  0.1218 -0.1797
 1306W        W 5050   6.568   3.037  11.687  0.4600  0.0942  0.1746
 1307W        W 5051   6.980   5.596  11.889  0.2758  0.0447  0.0274
 1308W        W 5052   7.240   0.040   9.400 -0.0160  0.0466  0.3252
 1309W        W 5053   9.113   8.754   3.868 -0.1236  0.0597  0.1691
 1310W        W 5054   5.327   6.893   2.503 -0.2144  0.0851  0.1755
 1311W        W 5055   9.493   4.767  11.472 -0.3178 -0.3043  0.4456
 1312W        W 5056   6.284   1.797   9.373  0.1780  0.0843  0.0556
 1313W        W 5057   8.692   9.120  12.008 -0.1404 -0.0859 -0.0066
 1314W        W 5058   9.776   2.544   9.384 -0.0915  0.0337  0.2263
 1315W        W 5059   1.256   3.693  11.467 -0.1564  0.1717 -0.1250
 1316W        W 5060   0.424   0.569  10.531 -0.1039  0.1142  0.0766
 1317W        W 5061   6.340   9.747   9.603  0.0558  0.0364  0.1841
 1318W        W 5062   3.241   4.891   9.844 -0.2097 -0.1594 -0.2043
 1319W        W 5063   6.117   8.005  10.740  0.0942 -0.0520 -0.1766
 1320W        W 5064   3.252   2.922  11.067  0.1434  0.2095  0.3922
 1321W        W 5065   1.548   4.026  11.289 -0.1435 -0.0639 -0.0250
 1322W        W 5066  10.151   7.269  11.260  0.0446  0.4120 -0.0501
 1323W        W 5067   9.949   5.597   2.359 -0.2794  0.4065 -0.3745
 1324W        W 5068   7.680   3.328   9.161  0.1613  0.0606 -0.2024
 1325W        W 5069   3.057   0.991   9.345  0.0520 -0.2691  0.1012
 1326W        W 5070   3.065   4.814  12.130  0.5773  0.0002 -0.1145
 1327W        W 5071   9.429   4.754  10.584 -0.0302 -0.1489 -0.2124
 1328W        W 5072   5.028   7.077   8.351 -0.3313 -0.1191  0.2089
 1329W        W 5073   5.529  10.178   9.156 -0.3702  0.1569 -0.0306
 1330W        W 5074   3.677   5.997  11.481  0.1734 -0.1217 -0.0911
 1331W        W 5075   0.878   0.245   0.092 -0.1362  0.1209 -0.1592
 1332W        W 5076   1.933   5.481  11.918 -0.2134  0.0430  0.0902
 1333W        W 5077   3.245   5.029   0.472 -0.4231  0.0676 -0.4150
 1334W        W 5078   2.157   9.062  11.965  0.0611 -0.0628  0.2666
 1335W        W 5079   3.322   6.540  10.720  0.1496  0.0093 -0.3460
 1336W        W 5080   8.517   3.500   0.825 -0.0060 -0.0031  0.0922
 1337W        W 5081   4.002   6.176  10.255 -0.1741  0.1604  0.0539
 1338W        W 5082   9.030   0.775   1.587 -0.0144  0.2763 -0.1702
 1339W        W 5083   7.480   1.765   4.608 -0.1424 -0.0047 -0.4189
 1340W        W 5084   8.679   0.066   0.204 -0.0696  0.0688  0.1094
 1341W        W 5085   3.807   6.489  10.595  0.0138  0.0469  0.2428
 1342W        W 5086  10.112   8.498   7.931  0.3984  0.0972 -0.0466
 1343W        W 5087   1.916   0.714   0.442 -0.1731 -0.1479 -0.0230
 1344W        W 5088   0.158   9.209   2.419  0.0171  0.0064 -0.3891
 1345W        W 5089   2.414   6.653   7.845  0.0803 -0.2499 -0.0655
 1346W        W 5090   9.298   5.565   8.500 -0.3283  0.1868  0.2485
 1347W        W 5091   2.805   6.904  11.370  0.4661 -0.1346 -0.1976
 1348W        W 5092   6.201   3.401  11.513  0.1657  0.0508  0.2228
 1349W        W 5093   4.778   6.166  10.769 -0.3565 -0.1860 -0.1208
 1350W        W 5094   7.461   7.109   7.818  0.3238  0.1340  0.2408
 1351W        W 5095   2.299   8.937   1.632 -0.1320  0.1976 -0.0132
 1352W        W 5096  10.004   0.724   0.212  0.3488 -0.2003 -0.1302
 1353W        W 5097   7.138   5.305   3.363  0.1333 -0.1285 -0.1285
 1354W        W 5098   8.604   6.921  10.152  0.2273 -0.0456  0.1699
 1355W        W 5099   6.645   2.714   2.271  0.0105 -0.0501 -0.2389
 1356W        W 5100   4.042   5.572   0.756  0.2278  0.3147 -0.3787
 1357W        W 5101   7.322   4.815   8.210 -0.1864  0.1412  0.4035
 1358W        W 5102   9.337   0.941  11.427  0.2208 -0.2198 -0.1078
 1359W        W 5103   3.458   2.549   2.376 -0.1304  0.0300  0.0957
 1360W        W 5104   7.665   4.870   2.537 -0.2516  0.1831  0.2798
 1361W        W 5105  10.018   5.739   0.321  0.0116  0.0390 -0.5956
 1362W        W 5106   2.414   8.639  10.542  0.1154  0.0204 -0.0643
 1363W        W 5107   1.413   8.900   1.658  0.0989 -0.1884  0.2255
 1364W        W 5108   9.792   8.930  10.525 -0.1501 -0.0411 -0.3368
 1365W        W 5109   7.534   3.220   7.757 -0.1295  0.1846 -0.1178
 1366W        W 5110   2.774   1.499   3.828 -0.5697 -0.0124  0.1149
 1367W        W 5111   1.730   3.134   0.426  0.0848  0.1282 -0.0491
 1368W        W 5112   5.750   7.433   2.924 -0.1252 -0.0552  0.0878
 1369W        W 5113   5.995   2.719   9.310  0.2098 -0.3161 -0.3705
 1370W        W 5114   5.867   6.934   0.362  0.0618 -0.1166 -0.1802
 1371W        W 5115   1.808   1.795   3.961 -0.0779 -0.0517  0.1194
 1372W        W 5116   7.370   6.513  10.451 -0.1788 -0.3279 -0.0492
 1373W        W 5117   6.270   5.366   9.428 -0.0819  0.4254 -0.0654
 1374W        W 5118   8.559   2.446   2.567 -0.2899  0.0353  0.0257
 1375W        W 5119   6.061   4.833   8.647 -0.0682 -0.1259  0.0853
 1376W        W 5120   7.529   0.837  11.395 -0.0606 -0.0274 -0.0634
 1377W        W 5121   3.145   2.175   3.232  0.0843  0.0499  0.0542
 1378W        W 5122   7.649   9.068   0.818 -0.2170 -0.2957 -0.1549
 1379W        W 5123   0.697   3.599   8.555  0.1465 -0.1412 -0.6514
 1380W        W 5124   6.344   6.829   0.714 -0.3133 -0.0613  0.1921
 1381W        W 5125   0.979   0.697   0.204  0.0925  0.1299 -0.0079
 1382W        W 5126   9.110   1.402   9.998  0.2633  0.2103  0.1964
 1383W        W 5127   3.735   6.081   7.567  0.2391  0.0426  0.1820
 1384W        W 5128   3.960   9.647   1.242 -0.0582  0.2635  0.1136
 1385W        W 5129   5.118   1.129  10.820  0.0080 -0.1668  0.0052
 1386W        W 5130   9.311   3.376   3.291 -0.3119  0.2429 -0.1778
 1387W        W 5131   4.634   3.777   1.412 -0.0563 -0.2697  0.3925
 1388W        W 5132   6.998   1.858  10.997 -0.1547  0.0485 -0.2786
 1389W        W 5133   6.598   4.228   8.205 -0.1588  0.0910  0.0229
 1390W        W 5134   7.167   8.380  11.247 -0.1692  0.0571  0.1669
 1391W        W 5135  10.148   6.826   1.372  0.0588 -0.2111  0.0682
 1392W        W 5136   5.082   5.644   8.097  0.1246  0.1848  0.2193
 1393W        W 5137   4.053   1.890  11.736  0.2754 -0.0917  0.3305
 1394W        W 5138   4.196   3.143  11.387 -0.0044  0.0428  0.1355
 1395W        W 5139   1.563   5.583   1.079 -0.2785 -0.0415 -0.0812
 1396W        W 5140   1.603   6.306   7.436  0.2832  0.1745  0.3881
 1397W        W 5141   0.124   6.640   0.871  0.2331  0.3656  0.0142
 1398W        W 5142   0.685   9.732   1.945  0.3599  0.2710  0.0578
 1399W        W 5143   3.770   9.506   3.656 -0.1923  0.1560  0.0707
 1400W        W 5144   9.489   2.144  11.355 -0.2435 -0.1017  0.1048
 1401W        W 5145   4.174   1.546   1.671 -0.0263 -0.0767  0.0572
 1402W        W 5146   4.329   9.347   0.357 -0.1320  0.0466  0.0209
 1403W        W 5147   8.419   2.791   0.116 -0.0489 -0.0545  0.1283
 1404W        W 5148   8.533  10.169   8.872 -0.2324 -0.1945  0.1861
 1405W        W 5149   3.280   3.330   0.635 -0.0198  0.5106  0.1576
 1406W        W 5150   6.346   8.191   1.318 -0.0388 -0.0422  0.3711
 1407W        W 5151   9.748   3.068   2.779 -0.0657 -0.0733  0.0404
 1408W        W 5152   9.116   4.801   2.793 -0.0035 -0.0254 -0.1897
 1409W        W 5153   9.755   0.715   2.046 -0.1191  0.1568 -0.1022
 1410W        W 5154   6.611   4.709   9.258 -0.1009  0.1871  0.0350
 1411W        W 5155   0.804   8.048   2.042  0.0665  0.2840  0.1121
 1412W        W 5156   6.971   7.510   8.378  0.1659  0.1151 -0.1671
 1413W        W 5157   6.424   3.154   0.225 -0.2401 -0.0579 -0.0479
 1414W        W 5158   3.481   7.810   1.440 -0.4033  0.0692 -0.2440
 1415W        W 5159   7.671   2.744  11.544 -0.0912  0.3616 -0.0099
 1416W        W 5160   4.392   8.511   2.839 -0.0443  0.2435 -0.1518
 1417W        W 5161   6.207   5.613   3.560 -0.0713 -0.0096  0.1332
 1418W        W 5162   6.010   4.977   8.073 -0.2580  0.0507  0.1585
 1419W        W 5163   5.128   8.567   9.690  0.1479 -0.0474 -0.0402
 1420W        W 5164   9.505   5.742   2.150 -0.0442 -0.0167 -0.1748
 1421W        W 5165   9.143   4.846   1.808 -0.1574 -0.0296 -0.0143
 1422W        W 5166   0.588   1.757   3.703  0.0277  0.1260  0.0404
 1423W        W 5167   3.410   5.551   8.303 -0.1039 -0.0745  0.3219
 1424W        W 5168   3.687   0.192   9.844  0.0721 -0.0407  0.1931
 1425W        W 5169   7.960   0.387   2.618 -0.1992 -0.5290  0.1668
 1426W        W 5170   3.815   5.505  11.470 -0.1630 -0.3258 -0.1058
 1427W        W 5171   0.808   4.811  10.553  0.3910  0.0738  0.4042
 1428W        W 5172   5.063   7.151   1.154  0.1143  0.2707  0.0922
 1429W        W 5173   5.064   2.886   4.007 -0.1197 -0.3710  0.0526
 1430W        W 5174   1.934  10.222   9.808 -0.1110  0.1621  0.3002
 1431W        W 5175   6.482   3.429   7.832 -0.2331  0.0395 -0.2124
 1432W        W 5176   2.363   1.553   0.146 -0.3535  0.0470  0.2765
 1433W        W 5177   2.598   9.348   0.141  0.0374 -0.1927  0.1443
 1434W        W 5178   1.129   2.279   9.390  0.1076  0.0684 -0.0057
 1435W        W 5179   8.813   5.236   1.865 -0.0626  0.0813 -0.0564
 1436W        W 5180   1.656   5.995  11.235 -0.0447 -0.0939 -0.2229
 1437W        W 5181   9.447   3.461   9.493 -0.1861 -0.0075  0.1900
 1438W        W 5182   9.388   3.062  11.155 -0.0042  0.0249 -0.0447
 1439W        W 5183   1.668   9.661   0.253 -0.0869  0.0343 -0.0183
 1440W        W 5184   7.485   7.980   0.010  0.0817 -0.1209 -0.0608
 1441W        W 5185   6.891   7.711   9.180  0.1102 -0.2358  0.2092
 1442W        W 5186   8.070   8.450   9.784  0.1527  0.2355  0.0728
 1443W        W 5187   8.030   4.516   7.758  0.1225 -0.0098 -0.2353
 1444W        W 5188   8.217   9.916   1.062 -0.1055  0.3088 -0.0289
 1445W        W 5189   8.059   7.161   9.475 -0.0384 -0.2202  0.0301
 1446W        W 5190   7.210   8.893   8.292 -0.1307 -0.5147 -0.1806
 1447W        W 5191   3.596   0.768  10.006 -0.0765  0.1718  0.1516
 1448W        W 5192   8.918   2.226   8.793 -0.1431  0.1531 -0.1097
 1449W        W 5193   3.738   2.103  11.377  0.1729 -0.0099  0.0386
 1450W        W 5194  10.053   8.710   7.463 -0.3221 -0.1528 -0.0951
 1451W        W 5195   7.653   1.808   2.942 -0.1675  0.2011 -0.2654
 1452W        W 5196   1.575   2.123   2.652  0.0556  0.1048 -0.2480
 1453W        W 5197   7.603   4.700   9.667 -0.3758 -0.3964 -0.0500
 1454W        W 5198   0.231   2.220   9.593 -0.2083 -0.1330  0.0687
 1455W        W 5199   5.435   2.755  10.428  0.1838 -0.1614 -0.0754
 1456W        W 5200   5.485   4.816  12.126 -0.0173  0.0933  0.0321
 1457W        W 5201  10.033  10.019   3.401  0.1316  0.4854  0.1200
 1458W        W 5202   3.357   1.643  12.071  0.0194  0.0259 -0.0607
 1459W        W 5203   8.785   7.747   8.689  0.0338  0.2614 -0.1412
 1460W        W 5204   5.658   5.631   0.188  0.0003 -0.2058 -0.2320
 1461W        W 5205   4.089   5.399   8.515 -0.1341 -0.1298 -0.1355
 1462W        W 5206   7.093  10.205   0.160  0.1486 -0.2073  0.0982
 1463W        W 5207   7.895   1.904   8.098 -0.1272  0.0130  0.1331
 1464W        W 5208   7.123   2.608   3.341  0.0961  0.1330  0.0947
 1465W        W 5209   0.839   6.790   9.997 -0.3476 -0.0402 -0.1457
 1466W        W 5210   0.456   2.819   2.778 -0.0303 -0.0755 -0.4922
 1467W        W 5211   8.509   4.042  11.809 -0.0790 -0.0984  0.0251
 1468W        W 5212   6.621   4.546   7.791  0.2395  0.0343  0.0177
 1469W        W 5213   2.896   6.656   2.561  0.0181  0.0489 -0.0690
 1470W        W 5214   4.132   9.360  10.271 -0.1039  0.0996 -0.2309
 1471W        W 5215   3.077   7.733   8.064 -0.0638  0.1860  0.0786
 1472W        W 5216   6.948   5.951   0.432 -0.1136  0.0634 -0.1660
 1473W        W 5217   0.505   4.814  11.998  0.0692 -0.2059  0.1483
 1474W        W 5218   0.609   0.005   0.991  0.1073  0.2851 -0.0360
 1475W        W 5219   0.600   7.684   2.366  0.0676 -0.1067 -0.1965
 1476W        W 5220   5.924  10.059   2.495  0.2542  0.2522  0.1831
 1477W        W 5221   5.576   2.630  11.250  0.2194  0.4206  0.3682
 1478W        W 5222   1.307   5.037   9.587 -0.0623  0.2521  0.1655
 1479W        W 5223   7.501   0.665  11.865  0.2506 -0.0089 -0.2149
 1480W        W 5224   8.113   6.303  10.628  0.0503  0.0575 -0.1158
 1481W        W 5225   2.773   9.145  10.306 -0.1479 -0.3883 -0.2095
 1482W        W 5226   1.823   5.355   8.678 -0.1362  0.1102  0.0462
 1483W        W 5227   8.410   9.452   9.820 -0.0965  0.0134  0.0164
 1484W        W 5228   9.288   7.945   1.626  0.0814  0.3432  0.1657
 1485W        W 5229   9.345   7.590   2.219  0.1641  0.2139 -0.1027
 1486W        W 5230   4.373   2.461   1.102 -0.0484  0.0866 -0.2063
 1487W        W 5231   4.944   0.781  12.043  0.1296  0.5682 -0.1968
 1488W        W 5232   5.176   1.226   2.625 -0.0626  0.3760  0.0849
 1489W        W 5233   1.865   6.702   9.169  0.1212  0.0751  0.0240
 1490W        W 5234   8.640   7.353  10.451  0.0396  0.0718 -0.1704
 1491W        W 5235   6.872   2.738   0.804 -0.0585  0.0640 -0.2542
 1492W        W 5236   6.966   0.486   0.287  0.0166 -0.1339 -0.0297
 1493W        W 5237   0.707   3.594   7.562  0.2642 -0.3241  0.1948
 1494W        W 5238   4.155   6.313   3.120  0.4683  0.1063 -0.3669
 1495W        W 5239   5.632   3.744   3.822 -0.1706 -0.0254  0.3165
 1496W        W 5240   9.079   6.224   3.920 -0.2576  0.1167 -0.1233
 1497W        W 5241   7.980   3.871   3.145 -0.1676  0.0121  0.1827
 1498W        W 5242   6.759   0.043   3.052 -0.1331 -0.1381 -0.2179
 1499W        W 5243   5.378   9.868  10.050  0.0072  0.1703  0.1456
 1500W        W 5244   7.525   9.166   9.538 -0.0019 -0.0657 -0.0130
 1501W        W 5245   2.007   7.127   9.294 -0.0178 -0.0079 -0.0904
 1502W        W 5246   7.459   2.636   0.731 -0.0575 -0.1997  0.0942
 1503W        W 5247   6.936   6.499   8.225  0.1165 -0.2564  0.2912
 1504W        W 5248   4.570   0.443   9.349  0.2663  0.1288 -0.1772
 1505W        W 5249   7.666   2.154   0.802  0.2658  0.0385  0.0189
 1506W        W 5250   4.515   2.913   3.820  0.0294 -0.1325  0.5253
 1507W        W 5251   0.783   5.429  11.230  0.1565  0.1078 -0.2853
 1508W        W 5252   2.382   5.227   0.046 -0.0845 -0.0896  0.2776
 1509W        W 5253   0.171   4.245   3.080 -0.3061 -0.1322 -0.0712
 1510W        W 5254   8.656   9.212   8.859  0.0735  0.2362  0.1181
 1511W        W 5255   7.868   8.495   3.060 -0.0730  0.1058 -0.0109
 1512W        W 5256   6.194   3.759   3.678 -0.1236  0.3886 -0.2584
 1513W        W 5257   0.984   6.266  11.291  0.1427  0.1649 -0.3485
 1514W        W 5258   4.136   9.574   9.824 -0.0693 -0.2166  0.0068
 1515W        W 5259   1.694   7.775  11.625 -0.2932 -0.1758  0.0502
 1516W        W 5260   4.823   7.134  10.787 -0.1403  0.2411  0.1442
 1517W        W 5261   8.504   9.644  10.856 -0.2293  0.3511  0.1307
 1518W        W 5262   4.878  10.125   8.511 -0.0785  0.0917  0.0025
 1519W        W 5263   0.145   2.172   2.222  0.0321 -0.3002  0.2051
 1520W        W 5264   6.462   4.068   7.727 -0.0749  0.0882  0.1381
 1521W        W 5265   7.950   2.612  12.091 -0.2741  0.2681  0.2661
 1522W        W 5266   7.009   8.587   1.628 -0.1729 -0.1250 -0.0253
 1523W        W 5267   0.858   5.876  10.496 -0.0693  0.0009  0.0305
 1524W        W 5268   8.106   7.272   1.271  0.0645  0.0503 -0.1064
 1525W        W 5269   4.097   6.703   8.778 -0.0508 -0.0233  0.0287
 1526W        W 5270   7.782   0.985  10.253  0.4120  0.1819  0.1831
 1527W        W 5271   0.824   7.414   3.094  0.0465 -0.2264  0.0557
 1528W        W 5272   2.010  10.160   3.356 -0.4413 -0.0149  0.0716
 1529W        W 5273   0.930   6.973   2.787  0.1913 -0.2463  0.0856
 1530W        W 5274   4.557   2.278   2.228 -0.4001  0.3122  0.0636
 1531W        W 5275   2.115   9.558  10.212 -0.0062  0.1147 -0.0796
 1532W        W 5276   2.798   1.240   0.364 -0.3566  0.2443  0.0471
 1533W        W 5277   8.774   3.332   8.432  0.0553  0.1281  0.2690
 1534W        W 5278   1.883   2.122   9.508  0.2623 -0.0421 -0.0486
 1535W        W 5279   7.991   3.905  10.830 -0.0990  0.1223 -0.0599
 1536W        W 5280  10.010   2.113  11.959  0.2277  0.2848  0.0589
 1537W        W 5281   5.176   6.982  11.751  0.0685  0.1467  0.0610
 1538W        W 5282   8.035   0.065   3.586 -0.0597 -0.1022 -0.0533
 1539W        W 5283   1.155   0.880   2.846 -0.1803  0.2568  0.0869
 1540W        W 5284   2.365   3.615   0.570  0.0611 -0.0839  0.2650
 1541W        W 5285   0.896   4.968   8.156 -0.1605 -0.0271 -0.0720
 1542W        W 5286   9.005   2.277  11.652  0.0159  0.1048 -0.2089
 1543W        W 5287   3.253   8.856   0.763  0.3667  0.1429 -0.1526
 1544W        W 5288   0.819   8.400  10.892 -0.0181 -0.2507  0.0683
 1545W        W 5289   6.401   6.070   0.495  0.2715 -0.0732 -0.3165
 1546W        W 5290   7.265   1.586  10.735  0.1148 -0.2439 -0.0984
 1547W        W 5291   4.047   5.484   3.086  0.1460 -0.2972  0.1896
 1548W        W 5292   6.152   0.403  11.127 -0.1595 -0.2785  0.0573
 1549W        W 5293   1.640   7.878   7.569  0.1202  0.2302  0.1185
 1550W        W 5294   2.538   9.490   3.500  0.0833 -0.1550  0.2010
 1551W        W 5295   8.608   4.986  10.643  0.0311 -0.0886 -0.0881
 1552W        W 5296   3.634   4.504   2.655  0.1631  0.3176 -0.0215
 1553W        W 5297   7.391   0.657  10.084  0.0195  0.3352 -0.0563
 1554W        W 5298   4.402   0.120   8.456 -0.0011  0.1714 -0.3588
 1555W        W 5299   8.591   9.863  11.978 -0.2417  0.1705 -0.1563
 1556W        W 5300   7.710   2.393   8.700 -0.0774  0.0736  0.0077
 1557W        W 5301   8.582   3.343   7.198 -0.0347 -0.1176  0.0903
 1558W        W 5302   8.051   1.413   1.771 -0.1819  0.0467 -0.1386
 1559W        W 5303   6.444   9.690   9.127 -0.0568 -0.0854 -0.0841
 1560W        W 5304   4.079   8.825  12.035 -0.1804 -0.1771  0.2309
 1561W        W 5305  10.108   6.609   2.614  0.0519 -0.0303  0.0188
 1562W        W 5306   6.073   1.591   2.636  0.0778 -0.0258  0.3629
 1563W        W 5307   0.547   1.534  10.960 -0.1734 -0.0392  0.0341
 1564W        W 5308   6.885   2.544   3.972 -0.1979 -0.0624  0.0368
 1565W        W 5309   5.754   7.318  10.744  0.1248 -0.1679 -0.1039
 1566W        W 5310   7.133   8.589  10.794  0.1350  0.0116 -0.1383
 1567W        W 5311   2.052   9.922   2.810  0.0662  0.1039 -0.0158
 1568W        W 5312   8.648   7.384   1.388 -0.1424  0.2668  0.0805
 1569W        W 5313   0.783   9.618  11.783  0.5352 -0.1667  0.2148
 1570W        W 5314   3.501   5.692  11.892  0.0752 -0.1963 -0.1966
 1571W        W 5315   9.846   6.403  11.167  0.0158 -0.0771  0.1623
 1572W        W 5316   8.965   8.478  11.379  0.0325 -0.0194  0.2995
 1573W        W 5317   5.131  10.224  10.375 -0.2350  0.0401  0.5151
 1574W        W 5318   8.305   7.408   7.896 -0.1624  0.2050 -0.0509
 1575W        W 5319   4.314   3.870   1.050 -0.1999  0.0443 -0.0949
 1576W        W 5320   4.165   0.086   3.562  0.0962  0.0275  0.0553
 1577W        W 5321   2.420   2.820  10.518 -0.1444  0.2562 -0.0611
 1578W        W 5322   8.702   8.934  11.060 -0.1869  0.1031 -0.0021
 1579W        W 5323  10.217   2.488   1.075  0.0061  0.3396 -0.3240
 1580W        W 5324   4.455   1.894  10.760  0.1485  0.1401  0.0482
 1581W        W 5325   8.287   3.891   8.085  0.5654 -0.1566 -0.0094
 1582W        W 5326   7.450   8.170   3.253 -0.2616  0.1336 -0.0407
 1583W        W 5327   1.313   7.632  11.271 -0.0664 -0.3073  0.0222
 1584W        W 5328   7.050   0.824  11.580  0.0918 -0.1393  0.3996
 1585W        W 5329   4.471   4.904   8.948 -0.1483  0.0401 -0.2002
 1586W        W 5330   2.585   1.731  10.478  0.0404  0.2425  0.1019
 1587W        W 5331   3.440   3.898   1.299 -0.0020  0.0341  0.0417
 1588W        W 5332   0.678   1.778   2.793 -0.1178 -0.2051  0.2303
 1589W        W 5333   9.317   8.122  10.651 -0.0393 -0.2963  0.0213
 1590W        W 5334   5.591   6.333   1.710  0.1972  0.1675 -0.0567
 1591W        W 5335   2.491   3.435   2.425 -0.2192 -0.1333  0.3273
 1592W        W 5336   6.836   7.597   1.889 -0.2355  0.1935  0.1971
 1593W        W 5337   5.208   1.789   0.490 -0.0409 -0.1640  0.2500
 1594W        W 5338   3.203   5.201   1.819  0.3483 -0.2368 -0.1321
 1595W        W 5339   0.031   1.682   2.058 -0.2886  0.0272 -0.1017
 1596W        W 5340   2.511   1.816   0.582  0.1957 -0.1115 -0.0404
 1597W        W 5341   0.176   8.630   8.337  0.1310 -0.1730  0.3594
 1598W        W 5342   9.995   3.325  10.119  0.0836  0.1888  0.1744
 1599W        W 5343   9.200   3.352   2.392 -0.1397  0.0492 -0.1909
 1600W        W 5344   1.876   8.036   0.248 -0.0170 -0.0816 -0.1882
 1601W        W 5345   1.776   7.428   0.432 -0.2726  0.2213 -0.0950
 1602W        W 5346   1.344   5.295   8.469  0.0245  0.0341 -0.0370
 1603W        W 5347   0.631   4.341  11.245 -0.3825  0.2215 -0.0039
 1604W        W 5348   8.330   7.889   3.228  0.0995  0.1844 -0.0765
 1605W        W 5349   3.778   5.141  11.788 -0.2225 -0.1259 -0.1548
 1606W        W 5350   1.753   2.551  10.863  0.1295  0.0069 -0.1778
 1607W        W 5351   9.173   9.834   9.443 -0.3348 -0.1382 -0.1122
 1608W        W 5352   0.378   9.699   0.600  0.0977  0.1319  0.0526
 1609W        W 5353   9.580   6.688   7.987  0.1928  0.3218  0.0582
 1610W        W 5354   7.651   8.903   2.822 -0.2576 -0.2168  0.1859
 1611W        W 5355   5.725   0.431   0.970  0.0513 -0.0905 -0.3113
 1612W        W 5356   1.482   9.440   1.064 -0.0269  0.1617 -0.0556
 1613W        W 5357   4.106   4.122  10.466 -0.2335 -0.1335  0.2296
 1614W        W 5358   5.863   7.601   1.650  0.2066  0.3063  0.4357
 1615W        W 5359   6.689   6.828   9.028  0.0781  0.1304 -0.2593
 1616W        W 5360   6.968   3.269   8.538  0.0433 -0.2097 -0.1521
 1617W        W 5361   2.829   6.124   0.895 -0.3351  0.0277  0.2812
 1618W        W 5362   3.725  10.137   1.288 -0.3709 -0.0112  0.1242
 1619W        W 5363   1.296   1.189  11.277  0.2580  0.0891  0.0056
 1620W        W 5364   3.460   4.071   9.246 -0.2474 -0.0824 -0.1933
 1621W        W 5365   4.543   5.470   9.832  0.3547 -0.1136 -0.2513
 1622W        W 5366   8.255   8.275   8.967 -0.1307  0.1875 -0.3976
 1623W        W 5367   3.173   8.807   3.509 -0.0950  0.1513  0.1175
 1624W        W 5368   3.743   1.642   1.471  0.1785 -0.2830 -0.0785
 1625W        W 5369   8.107   3.684   0.651 -0.0401  0.1712  0.2804
 1626W        W 5370   5.948   0.979   8.416 -0.0500  0.2642 -0.4884
 1627W        W 5371   7.370   9.378   8.503 -0.1103  0.2245 -0.0728
 1628W        W 5372   6.722   9.361  10.729  0.0203 -0.1519  0.2003
 1629W        W 5373   1.409   1.564  10.062 -0.2070 -0.3248 -0.2285
 1630W        W 5374   7.404   3.749   9.817  0.1154  0.1349 -0.0964
 1631W        W 5375   0.292   0.080   2.197 -0.2264  0.4854  0.0478
 1632W        W 5376   3.864   3.634   1.022 -0.2642 -0.1233  0.0341
 1633W        W 5377   0.930   4.224   9.442  0.2567 -0.2605 -0.0297
 1634W        W 5378   6.642   1.053   9.749 -0.2526  0.0556  0.1693
 1635W        W 5379   8.487   5.091  11.111 -0.2374 -0.0254 -0.1231
 1636W        W 5380   1.140   6.344   1.685  0.0520  0.1332  0.2785
 1637W        W 5381   8.407   4.133   9.973 -0.2780 -0.2256  0.2471
 1638W        W 5382   4.750   1.441   9.969 -0.1297  0.0036  0.1087
 1639W        W 5383   7.675   4.384   1.609 -0.1452  0.3352 -0.1818
 1640W        W 5384   3.991   1.944   9.986  0.3608 -0.0317  0.1098
 1641W        W 5385   4.035   5.102   9.612  0.1291  0.0493 -0.0638
 1642W        W 5386   7.837   4.427   0.336  0.4037  0.0513  0.0324
 1643W        W 5387   8.965   5.875   8.824 -0.0905 -0.2457 -0.1673
 1644W        W 5388   7.185   9.955   2.692  0.0463  0.0725 -0.0041
 1645W        W 5389   7.219   9.553  10.747  0.3883  0.1746  0.4741
 1646W        W 5390   9.609   7.390  11.079 -0.0487 -0.1007 -0.1545
 1647W        W 5391   1.642   0.512  11.023  0.1279  0.0824  0.1727
 1648W        W 5392   2.235   3.027  11.127  0.0008 -0.4293 -0.0637
 1649W        W 5393   3.131   5.268   8.641 -0.0009 -0.3172  0.2034
 1650W        W 5394   6.227   3.784   1.443 -0.1734 -0.1631  0.0645
 1651W        W 5395   0.909   8.930  10.835  0.2947 -0.2249 -0.1924
 1652W        W 5396   9.507   3.297   0.823  0.0691 -0.1118 -0.2061
 1653W        W 5397   9.509   3.416   8.620  0.2644 -0.2403 -0.4034
 1654W        W 5398   0.966   6.713   8.045  0.2002  0.1423  0.1288
 1655W        W 5399   1.801   7.855   0.848 -0.1710  0.0430 -0.1669
 1656W        W 5400   3.205   6.047  11.187 -0.0311  0.0156 -0.0947
 1657W        W 5401   5.707   0.922   0.131 -0.0797 -0.0117 -0.1354
 1658W        W 5402   3.598   9.914   3.812  0.3442 -0.0650 -0.0861
 1659W        W 5403   8.200   1.338   9.155  0.4396 -0.0603 -0.3279
 1660W        W 5404   4.126   6.878   0.215  0.0446  0.0125  0.0345
 1661W        W 5405  10.164   8.325   2.696  0.0044  0.2039 -0.0361
 1662W        W 5406   4.506   0.285   9.866 -0.1762  0.1772  0.1515
 1663W        W 5407   0.704   1.358  10.382  0.0385 -0.0967 -0.0684
 1664W        W 5408   1.089   4.533  11.981 -0.1543  0.0775 -0.1987
 1665W        W 5409   8.282   4.307   2.910 -0.5031 -0.1400  0.0433
 1666W        W 5410   9.721   4.221  11.266  0.0848  0.2095  0.1147
 1667W        W 5411  10.191   8.997   4.000  0.1390  0.2842 -0.1326
 1668W        W 5412   0.604   9.894  11.214 -0.1684  0.1586 -0.2206
 1669W        W 5413   0.423   9.218   0.363 -0.2570 -0.1188 -0.1424
 1670W        W 5414   5.523   3.748   0.384  0.1177  0.3612  0.2592
 1671W        W 5415   3.671   6.918   0.591 -0.0500  0.1673 -0.0566
 1672W        W 5416   1.420   1.373   8.001 -0.0460 -0.2449  0.0305
 1673W        W 5417   1.447   2.632   2.531  0.1764  0.1792 -0.3214
 1674W        W 5418   6.175   1.036   2.781 -0.0191  0.0894  0.1416
 1675W        W 5419   9.919  10.211  10.419  0.0257 -0.2717 -0.3649
 1676W        W 5420   6.329   0.166   2.359 -0.0846  0.4613 -0.2166
 1677W        W 5421   4.006   1.708  11.233 -0.1417 -0.2285 -0.3800
 1678W        W 5422   5.234   7.353   2.837  0.1178 -0.2393 -0.1640
 1679W        W 5423   5.860   7.834   2.642 -0.1070  0.0132 -0.1101
 1680W        W 5424   3.826   4.428   8.515 -0.2405 -0.0320  0.2347
 1681W        W 5425   7.780   3.474   2.122  0.1812  0.1305  0.2864
 1682W        W 5426   8.841   9.680   1.524 -0.4998 -0.1032 -0.3283
 1683W        W 5427   0.898   5.518   0.142 -0.0486 -0.1257 -0.1537
 1684W        W 5428   6.560   3.553  10.714  0.0906 -0.0470 -0.1417
 1685W        W 5429   0.387   3.214  11.402 -0.0910 -0.6296 -0.0098
 1686W        W 5430   8.090   8.951  11.991 -0.0650  0.3887 -0.0487
 1687W        W 5431   6.736   8.840   8.111 -0.0727 -0.3665 -0.0957
 1688W        W 5432   8.574   8.125   2.391  0.2854 -0.5170 -0.0843
 1689W        W 5433   1.769   3.042   9.218 -0.3032 -0.1047 -0.1936
 1690W        W 5434   3.701   6.787   2.964 -0.4022 -0.1650 -0.1367
 1691W        W 5435   6.308   0.849   8.070 -0.1292  0.1402 -0.0221
 1692W        W 5436   4.319   1.190   0.882 -0.2588 -0.1879  0.0990
 1693W        W 5437   5.477   2.595   2.188  0.2408  0.0582 -0.0106
 1694W        W 5438   5.032   3.448   2.265 -0.0538 -0.0592 -0.0126
 1695W        W 5439   6.810   4.459  10.249 -0.1112  0.1833  0.0188
 1696W        W 5440   3.291   2.594  10.451 -0.3731  0.3347  0.0662
 1697W        W 5441   8.077   0.764   7.898 -0.2472  0.0940 -0.1060
 1698W        W 5442   6.020   1.376  10.215 -0.0956 -0.0665 -0.1093
 1699W        W 5443   0.471   4.669   2.031  0.3104  0.0751  0.1754
 1700W        W 5444   0.296   5.794   1.452 -0.0307  0.0116  0.1350
 1701W        W 5445   5.980   8.935   9.959 -0.2155 -0.0062 -0.1943
 1702W        W 5446   3.786   2.992  11.082  0.0122 -0.2603  0.2906
 1703W        W 5447   3.490   7.274   2.854 -0.3412 -0.0928  0.0200
 1704W        W 5448   1.916   8.715   0.198 -0.0725  0.1428 -0.4746
 1705W        W 5449   6.675   6.296   7.809  0.1591 -0.2498 -0.0452
 1706W        W 5450   6.036   8.484   1.573 -0.2895 -0.3981 -0.3809
 1707W        W 5451   6.213   8.834  11.039 -0.0456  0.1584  0.1784
 1708W        W 5452   5.835   1.857   8.001  0.3992 -0.1385 -0.1993
 1709W        W 5453   3.379   7.516   9.558  0.0917  0.0957  0.2168
 1710W        W 5454   2.074   4.991   1.381 -0.0726 -0.2249 -0.3113
 1711W        W 5455   9.774   6.921   2.812  0.0600  0.0306 -0.1123
 1712W        W 5456   5.892   6.031   0.437 -0.3085  0.0274 -0.0244
 1713W        W 5457   1.418   0.675   1.739 -0.0560  0.0046 -0.0938
 1714W        W 5458   2.294  10.006   2.340 -0.2323  0.0091 -0.1394
 1715W        W 5459   5.249   8.276  10.704  0.1940 -0.0064 -0.1858
 1716W        W 5460   5.537   8.505   1.431 -0.1570 -0.2875 -0.0475
 1717W        W 5461   2.749   6.999   3.407  0.1294 -0.0155 -0.0834
 1718W        W 5462   0.109   1.559  10.791  0.2410 -0.0621 -0.0744
 1719W        W 5463   4.531   8.627  11.234 -0.1626 -0.4445  0.0475
 1720W        W 5464   7.952   0.731  11.630  0.0057 -0.1434 -0.1813
 1721W        W 5465   2.715   5.055  10.467 -0.3399 -0.0896 -0.0592
 1722W        W 5466   6.414   3.133   3.180 -0.2398  0.0106 -0.4271
 1723W        W 5467   7.976   2.189  11.594 -0.0607  0.0687  0.0488
 1724W        W 5468   6.766   3.244   9.367 -0.2363  0.0870 -0.0313
 1725W        W 5469   1.080   5.377   1.984 -0.3367  0.0842 -0.3125
 1726W        W 5470   3.589   7.891   0.465 -0.1863 -0.2503 -0.0636
 1727W        W 5471  10.113   3.999  12.141  0.1248  0.4859  0.3517
 1728W        W 5472   5.480   2.032  10.858 -0.1941  0.2855 -0.0499
 1729W        W 5473   9.385   8.152   2.396  0.3032  0.0844 -0.0727
 1730W        W 5474   5.650   4.087   8.327 -0.1192  0.1290  0.3053
 1731W        W 5475   2.642   9.772  11.563  0.1827  0.2562 -0.2730
 1732W        W 5476   3.812   3.692   7.200  0.1445 -0.0288  0.0489
 1733W        W 5477   3.417   1.254   0.915 -0.3995  0.2081 -0.1284
 1734W        W 5478   3.722   5.835   2.249  0.1481 -0.2084 -0.2051
 1735W        W 5479   3.366   7.351  10.868  0.1150 -0.1028 -0.4058
 1736W        W 5480   5.661   5.941  10.607  0.0306 -0.0772 -0.1962
 1737W        W 5481   9.366   8.467   3.306  0.0894 -0.0860  0.0287
 1738W        W 5482   2.143   8.011   9.032 -0.1553 -0.0378  0.1043
 1739W        W 5483   3.718   0.206   3.537  0.1130 -0.2964 -0.3025
 1740W        W 5484   9.046   5.718   0.802 -0.2345 -0.3683  0.2268
 1741W        W 5485   7.239   3.342   9.541 -0.1201 -0.2731  0.0322
 1742W        W 5486   0.128   6.641  10.699 -0.0910  0.0236 -0.2386
 1743W        W 5487   0.553   9.949   1.480 -0.0502  0.1831  0.2116
 1744W        W 5488   5.085  10.001  11.258  0.1410  0.2732 -0.0822
 1745W        W 5489   8.217   5.753  10.664 -0.1576  0.1019  0.2555
 1746W        W 5490   6.503   1.423  10.041  0.0279  0.0858 -0.0212
 1747W        W 5491   9.383   1.250   7.377  0.1975 -0.4748  0.0634
 1748W        W 5492   0.466  10.137   9.144  0.1709  0.0070  0.2504
 1749W        W 5493  10.087   3.619   7.353 -0.0860  0.0533  0.3645
 1750W        W 5494   8.301   0.031   8.185  0.3166 -0.1769  0.0491
 1751W        W 5495   6.653   7.554   8.801 -0.3491 -0.2603  0.2534
 1752W        W 5496   2.539   5.012   1.178 -0.0717 -0.1340  0.1969
 1753W        W 5497   2.952   8.952   1.604  0.0426 -0.2005 -0.0352
 1754W        W 5498   2.670   8.790   8.808 -0.0505 -0.0894 -0.0293
 1755W        W 5499   3.094   8.205   1.615  0.0061  0.0290  0.0193
 1756W        W 5500   8.690   7.916   2.840 -0.3094 -0.3600 -0.2236
 1757W        W 5501   3.633   1.222   1.333 -0.0917  0.1601  0.0857
 1758W        W 5502   5.451   9.227  10.875  0.1426 -0.0137  0.1244
 1759W        W 5503   7.005   1.316  11.696  0.1215  0.4943  0.3349
 1760W        W 5504   7.270   4.061   1.764  0.0298  0.2260 -0.1252
 1761W        W 5505   4.213   0.666   1.056  0.3384 -0.0200 -0.3302
 1762W        W 5506   5.927   1.988   2.231 -0.1225 -0.1321  0.0549
 1763W        W 5507   5.504   3.992   1.670  0.1083 -0.0503  0.0050
 1764W        W 5508   5.824   3.348   9.518  0.2425  0.2849 -0.0772
 1765W        W 5509   5.044   2.764   8.581 -0.1519  0.1691  0.0747
 1766W        W 5510   1.137   9.235   2.360 -0.1145 -0.0100  0.2332
 1767W        W 5511   3.596   9.426   6.709  0.1474  0.0194  0.1062
 1768W        W 5512   9.455   1.206   1.393 -0.0310  0.0739  0.0676
 1769W        W 5513   4.938   1.554   9.376  0.3519 -0.1717 -0.2486
 1770W        W 5514   2.910   9.364   2.740  0.1094  0.2034 -0.0415
 1771W        W 5515   7.698   1.730   8.601  0.2750 -0.1380  0.0366
 1772W        W 5516   5.786   3.450   0.821  0.2663 -0.0231  0.0979
 1773W        W 5517   1.998   9.145   2.852  0.2171  0.1100 -0.2484
 1774W        W 5518   3.000   0.806   9.800  0.1499  0.3340  0.0323
 1775W        W 5519   9.728   5.599  11.359  0.0860  0.3607 -0.0135
 1776W        W 5520   1.866   4.770  10.249  0.0287  0.1083  0.1913
 1777W        W 5521   7.896   2.834   0.976  0.1539 -0.1983 -0.0676
 1778W        W 5522   8.127   7.266  10.332 -0.0913  0.0870  0.2016
 1779W        W 5523   6.253   0.900   1.592 -0.0672  0.0010 -0.1104
 1780W        W 5524   1.479   3.084   1.118 -0.0271 -0.4002 -0.1542
 1781W        W 5525   4.831   7.310   3.145 -0.0562  0.0207 -0.1023
 1782W        W 5526   7.427   3.058   3.357  0.0763 -0.0015  0.1924
 1783W        W 5527   8.542   2.107  11.303 -0.2477 -0.0570 -0.2647
 1784W        W 5528   3.392   5.968   0.659 -0.2765 -0.1764 -0.0982
 1785W        W 5529   6.096   9.405   9.417  0.0971  0.2872  0.0818
 1786W        W 5530   9.781  10.152   7.950 -0.0929  0.0056 -0.2101
 1787W        W 5531   9.881   5.031   3.596 -0.0645  0.1999 -0.1172
 1788W        W 5532   7.075   0.833   4.209 -0.2489 -0.2266 -0.0671
 1789W        W 5533   9.321   1.789  11.682 -0.2085 -0.1168 -0.1498
 1790W        W 5534   7.852   5.514   9.932  0.2157  0.0387 -0.4219
 1791W        W 5535   0.121   1.961   9.204 -0.3735  0.1531  0.0439
 1792W        W 5536   3.967   2.820   3.185 -0.0365 -0.1352 -0.0058
 1793W        W 5537   4.754   2.528   7.764  0.0169  0.0536 -0.0700
 1794W        W 5538   1.186   0.743   2.158  0.0553  0.0697 -0.1534
 1795W        W 5539   8.542   4.292   0.652 -0.2237  0.1723 -0.0831
 1796W        W 5540   5.185   4.064   9.859 -0.1940  0.1213  0.2996
 1797W        W 5541   0.857   5.529   1.564 -0.0708  0.0391 -0.1320
 1798W        W 5542   5.423   7.862   2.841  0.1636 -0.2133 -0.0564
 1799W        W 5543   6.415   0.487   0.639  0.1103 -0.1246  0.0521
 1800W        W 5544   6.570   8.008   2.801 -0.3528 -0.1886  0.2627
 1801W        W 5545   0.662   0.228   3.539  0.0061  0.1701  0.0652
 1802W        W 5546   4.369   0.078  11.594 -0.0771 -0.1574 -0.1105
 1803W        W 5547   7.423   1.456   3.235  0.1999 -0.2122 -0.0561
 1804W        W 5548   6.854   1.434  10.389 -0.2494  0.1891 -0.2412
 1805W        W 5549   7.814   3.242   1.568  0.2579  0.0071  0.0672
 1806W        W 5550   7.944   8.037  11.928  0.4339 -0.0232 -0.2752
 1807W        W 5551   1.237   9.303  12.042  0.0683 -0.1365  0.1411
 1808W        W 5552   9.336   9.739  10.055 -0.2411 -0.2029 -0.1834
 1809W        W 5553   3.683   3.086   0.182  0.0683 -0.1368  0.0499
 1810W        W 5554   9.588   4.256  10.433  0.3283 -0.0832  0.5492
 1811W        W 5555   6.794   1.849   9.072 -0.1445  0.3129  0.0106
 1812W        W 5556   2.717   0.002  11.779  0.4959  0.0116  0.0389
 1813W        W 5557   5.719   9.781  12.064 -0.2162  0.0988 -0.3565
 1814W        W 5558   9.741   9.744   4.444 -0.0344  0.0899  0.0713
 1815W        W 5559   8.302   4.535   3.352 -0.3169  0.1656  0.2057
 1816W        W 5560   0.702   1.281   1.492 -0.0929 -0.3845 -0.1009
 1817W        W 5561   7.564   3.111  11.872  0.1512 -0.0245 -0.1917
 1818W        W 5562   2.898   7.402  11.119 -0.0854  0.0193 -0.1407
 1819W        W 5563   0.864   2.816   7.745  0.0136 -0.0224 -0.1614
 1820W        W 5564   7.441   1.873   7.904 -0.2829  0.0012  0.2582
 1821W        W 5565   4.535  10.166   9.370  0.2795  0.1066 -0.1041
 1822W        W 5566   1.310   4.017   2.738 -0.0232 -0.1670  0.0277
 1823W        W 5567   9.095   4.700   8.578  0.2788  0.1264  0.0489
 1824W        W 5568   9.513   6.425   8.382 -0.2962  0.0530  0.1485
 1825W        W 5569   1.077   1.857   1.772 -0.2392 -0.4027 -0.0406
 1826W        W 5570   6.517   2.784  10.647 -0.0773  0.2995  0.0769
 1827W        W 5571   1.451   1.196   1.937 -0.0261 -0.1851 -0.2453
 1828W        W 5572   8.314   3.020   0.761  0.0695 -0.1320  0.4841
 1829W        W 5573   2.643   9.370  11.231 -0.3222 -0.0185 -0.0610
 1830W        W 5574   7.751   8.280  10.114  0.2978 -0.1539 -0.2384
 1831W        W 5575   4.330   6.511   3.792  0.1478  0.0264  0.0926
 1832W        W 5576   5.807   3.793   7.228  0.0401 -0.2376  0.2542
 1833W        W 5577   8.223   1.177   7.626 -0.1027  0.2815  0.0683
 1834W        W 5578   9.377   9.717   2.749 -0.0538  0.2520  0.1611
 1835W        W 5579   3.350   6.798   0.961  0.1484 -0.1567 -0.2793
 1836W        W 5580  10.084   0.716   9.765  0.1957 -0.0962 -0.1291
 1837W        W 5581   2.913   6.660   8.595  0.1476 -0.1138 -0.0308
 1838W        W 5582   1.009   5.691   2.342  0.3792  0.2079  0.2470
 1839W        W 5583   0.533   0.831   1.526 -0.1849  0.1729 -0.3239
 1840W        W 5584   6.843   0.308   9.260 -0.1409  0.3097 -0.2864
 1841W        W 5585   3.389   1.267   0.286 -0.1466 -0.0475 -0.0629
 1842W        W 5586   7.521   4.957   3.816  0.2030 -0.3215 -0.1939
 1843W        W 5587   8.330   8.403   3.292  0.1857 -0.2598 -0.0306
 1844W        W 5588   7.464   9.320   2.512 -0.1650  0.1496  0.0721
 1845W        W 5589   9.978   9.495   2.698  0.0558 -0.1208 -0.4018
 1846W        W 5590   5.920   5.224   0.264  0.2446 -0.0465 -0.1630
 1847W        W 5591   2.598   6.062   2.573  0.2105 -0.2327  0.2881
 1848W        W 5592   5.467   2.052   8.896  0.6425 -0.2785 -0.0569
 1849W        W 5593   6.536   2.337   1.330 -0.1002  0.0042 -0.0867
 1850W        W 5594   8.633   8.580   0.651  0.3753 -0.0517 -0.0081
 1851W        W 5595   7.689   0.583   8.722 -0.0438 -0.2321 -0.1613
 1852W        W 5596   4.965   6.849  11.165 -0.4243  0.2990  0.0249
 1853W        W 5597   0.108   3.524   8.141  0.0542 -0.1168  0.1774
 1854W        W 5598   7.250   7.277   0.659 -0.4282  0.3032  0.2798
 1855W        W 5599   3.718   2.907  10.586  0.0317  0.1083 -0.0523
 1856W        W 5600   7.311   4.485   1.274  0.0957  0.1083 -0.1509
 1857W        W 5601   8.849   1.812   1.441 -0.0058 -0.0186 -0.3833
 1858W        W 5602   3.936  10.207   0.342 -0.1208  0.1627  0.2489
 1859W        W 5603   4.581   4.328   2.670  0.1091  0.0168 -0.1860
 1860W        W 5604   8.512   1.451   1.351 -0.0201  0.0544  0.1649
 1861W        W 5605   0.607   1.058   9.991 -0.1688  0.0460 -0.2152
 1862W        W 5606   6.807   9.650   9.800  0.1379 -0.2561  0.1920
 1863W        W 5607   6.551   7.564  10.209  0.4894 -0.0832 -0.0316
 1864W        W 5608   6.390   1.798   1.402  0.2015  0.2399  0.0661
 1865W        W 5609   1.151   6.908   3.248 -0.3245  0.1987  0.2896
 1866W        W 5610   0.552   3.639  10.702 -0.1959 -0.4064 -0.1306
 1867W        W 5611   6.570   8.441   0.014 -0.1291  0.1087  0.2004
 1868W        W 5612   5.059   9.982   3.656  0.1134  0.0659 -0.2993
 1869W        W 5613   9.445   8.839  11.382 -0.3951  0.0851  0.0571
 1870W        W 5614   7.620   0.501   3.377 -0.1051 -0.1100 -0.0920
 1871W        W 5615   8.667   2.276   1.921 -0.0896 -0.3318  0.1488
 1872W        W 5616   2.093   0.642   2.662 -0.0039  0.2225  0.1829
 1873W        W 5617   6.038   0.736   0.489  0.1819  0.1709 -0.1367
 1874W        W 5618   4.524   1.091  12.066 -0.1694  0.1923  0.2190
 1875W        W 5619   5.157   4.762  10.985  0.0425  0.0405  0.2694
 1876W        W 5620   3.595   7.637   4.234  0.0106  0.3171 -0.1210
 1877W        W 5621   4.525   3.426   2.127  0.0752 -0.1385 -0.0511
 1878W        W 5622   6.251   9.722  12.064  0.1736 -0.2774 -0.1741
 1879W        W 5623   4.470   5.404   0.746  0.0800 -0.0331  0.1763
 1880W        W 5624   9.448   3.709  12.116  0.0929  0.1249  0.2090
 1881W        W 5625   9.535   0.526   9.573 -0.0357  0.0119  0.0080
 1882W        W 5626   0.732   3.464  12.090  0.0214  0.1291  0.1198
 1883W        W 5627   8.744   7.880   1.620 -0.2328  0.0182 -0.3639
 1884W        W 5628   2.150   8.855   0.802  0.2405  0.0493  0.0117
 1885W        W 5629   0.016   2.584   1.912 -0.3038  0.0414  0.1043
 1886W        W 5630   8.236   2.047  10.849  0.1565  0.0105 -0.1078
 1887W        W 5631   7.002   9.615   8.844  0.0569  0.0512 -0.0161
 1888W        W 5632   4.031   0.976  10.393 -0.0048  0.1314 -0.1500
 1889W        W 5633   6.414   0.026   9.366  0.1565  0.1918  0.0578
 1890W        W 5634   6.735   2.888   7.810  0.3394 -0.3576  0.0239
 1891W        W 5635   9.702   6.581  11.637 -0.1872 -0.1352 -0.2114
 1892W        W 5636   5.451   0.864  10.401 -0.3084  0.2605  0.1277
 1893W        W 5637   1.304   4.473   3.033 -0.3237  0.1506  0.5371
 1894W        W 5638   2.173   7.630   0.600  0.1628  0.0725  0.2196
 1895W        W 5639   7.559   5.959   9.992 -0.2020  0.2665 -0.0643
 1896W        W 5640   3.502   3.521   3.396  0.3884 -0.1417  0.2300
 1897W        W 5641   1.544   8.563   2.057 -0.0716 -0.4122  0.2630
 1898W        W 5642   3.931   2.049   8.772 -0.1122 -0.0517  0.0287
 1899W        W 5643   6.664   8.803  10.723 -0.2505 -0.2555 -0.1096
 1900W        W 5644   1.270   0.415   9.894 -0.2688  0.0840 -0.0695
 1901W        W 5645   5.915   6.528   0.821 -0.0904 -0.1637  0.2538
 1902W        W 5646   2.627   7.713   2.853  0.2498  0.2758 -0.1191
 1903W        W 5647   7.297   6.462   1.869 -0.1018  0.0354 -0.2251
 1904W        W 5648   7.038   6.743   7.738  0.1698  0.2632  0.0743
 1905W        W 5649   0.368   0.245   4.082 -0.0567  0.1372 -0.1660
 1906W        W 5650   9.882   7.378  10.221  0.0030 -0.1300 -0.1295
 1907W        W 5651  10.131   9.911   8.264 -0.1768  0.1931  0.0295
 1908W        W 5652   4.052   6.468   7.786  0.2013  0.3173 -0.0134
 1909W        W 5653   6.182   1.801   3.059 -0.0956  0.0805  0.0660
 1910W        W 5654   9.238   6.592  10.239  0.0254 -0.1486  0.1906
 1911W        W 5655   2.484   4.377   8.451 -0.1869  0.0553 -0.1717
 1912W        W 5656   4.716   7.796   9.576  0.1098  0.2458  0.0847
 1913W        W 5657   6.826   0.938   7.757  0.3197 -0.0360  0.2757
 1914W        W 5658   1.549   0.103  10.141 -0.2517  0.2323 -0.2895
 1915W        W 5659   8.332   3.907   1.117  0.0813  0.1820 -0.2093
 1916W        W 5660   3.091   1.409   1.290  0.2687  0.0281 -0.0541
 1917W        W 5661   2.706   0.177   1.672 -0.1063  0.0693  0.1375
 1918W        W 5662   9.277   6.818   9.792 -0.0803 -0.1805  0.0265
 1919W        W 5663   4.553   2.789   2.043 -0.2897 -0.1417 -0.0560
 1920W        W 5664   3.022  10.219   2.885 -0.0219 -0.2461  0.0118
 1921W        W 5665   8.587   2.707   3.030  0.1031  0.0205  0.0371
 1922W        W 5666   1.667   2.799   8.120 -0.0998  0.2238 -0.1592
 1923W        W 5667   5.523   8.891   1.073  0.2782  0.3869 -0.3376
 1924W        W 5668   7.114   0.750  11.090 -0.0564  0.1240  0.2452
 1925W        W 5669   5.430   7.954  11.698 -0.0246  0.1536  0.2708
 1926W        W 5670   1.049   0.289   9.447 -0.0281  0.1069 -0.0909
 1927W        W 5671   9.864   2.504   8.584 -0.1845 -0.1355  0.3112
 1928W        W 5672   5.047   4.124  11.713 -0.2887  0.3410 -0.0311
 1929W        W 5673   2.065   8.743   3.141 -0.1750 -0.3298 -0.3473
 1930W        W 5674  10.058   5.793   7.798  0.2712  0.0756  0.3256
 1931W        W 5675   5.781   5.640  10.160  0.2348  0.2599 -0.1012
 1932W        W 5676   3.897   8.952  10.305  0.2839  0.0788  0.0641
 1933W        W 5677   8.239   0.261   0.411 -0.0272 -0.2640 -0.2293
 1934W        W 5678   1.635   1.342   0.993 -0.2959 -0.1157  0.1009
 1935W        W 5679   8.333   1.662   8.201  0.2447 -0.2283  0.1463
 1936W        W 5680   8.483   1.356   3.076 -0.0880 -0.1169 -0.1514
 1937W        W 5681   6.831   2.892   8.804 -0.3650  0.2070 -0.4090
 1938W        W 5682   7.924   1.010   8.892 -0.1609 -0.1393  0.1543
 1939W        W 5683   0.212   3.335   0.013 -0.1181 -0.1034  0.0010
 1940W        W 5684   2.550   8.233  11.173 -0.4366 -0.0208 -0.0699
 1941W        W 5685   1.447   9.992   1.179  0.2242  0.1709 -0.4007
 1942W        W 5686   6.389   2.621   8.152 -0.0021  0.1564  0.0051
 1943W        W 5687   8.347   0.932   9.311  0.2599  0.3046 -0.0604
 1944W        W 5688   6.640   5.276   3.608  0.0067  0.0194  0.1104
 1945W        W 5689   3.860   4.057   1.501 -0.0610 -0.1733  0.0404
 1946W        W 5690   7.422   3.991   0.143  0.2077 -0.2477 -0.2181
 1947W        W 5691   7.390   2.451  10.212  0.0604  0.1007 -0.0025
 1948W        W 5692   9.453   3.732  10.394 -0.2430 -0.0689  0.0338
 1949W        W 5693   3.877   1.678   2.607 -0.2197  0.0105  0.0677
 1950W        W 5694   4.557   9.708   9.579 -0.1277  0.3196  0.1177
 1951W        W 5695   5.038   5.487   1.893 -0.0802  0.3055  0.1336
 1952W        W 5696  10.187   2.935   9.438 -0.3634  0.0093  0.1473
 1953W        W 5697   4.278   4.006  12.095  0.3075 -0.2010  0.0677
 1954W        W 5698   7.611   1.193   0.389 -0.2220 -0.1761  0.0060
 1955W        W 5699   6.878   2.775  11.951 -0.2325 -0.1250  0.0368
 1956W        W 5700   8.557   3.600   9.950 -0.0216  0.2116 -0.1645
 1957W        W 5701   5.824   6.583  12.132  0.1905 -0.0688  0.0641
 1958W        W 5702   3.264   1.570   7.760  0.2998 -0.1764 -0.0619
 1959W        W 5703   9.085   1.760   2.440  0.1064  0.0590  0.2020
 1960W        W 5704   9.870   7.905   8.116  0.2818  0.2260  0.0553
 1961W        W 5705   1.423   2.521   9.020  0.2381 -0.0674  0.2240
 1962W        W 5706   1.675   3.286  10.187 -0.1852 -0.0159  0.1777
 1963W        W 5707   7.155   0.301   2.684 -0.3786  0.2094  0.1095
 1964W        W 5708   6.706   2.586   1.767  0.1366 -0.0396 -0.3831
 1965W        W 5709   0.509   3.320   2.888 -0.1805 -0.2632 -0.1754
 1966W        W 5710   6.914   8.782   1.187  0.0896  0.0954 -0.2105
 1967W        W 5711   2.555   3.306   1.862  0.1033  0.0582  0.3246
 1968W        W 5712   1.146   1.985   3.021  0.0063 -0.1614 -0.1441
 1969W        W 5713   0.811   5.361   9.815 -0.1555 -0.2335  0.1050
 1970W        W 5714   1.417   9.814   0.693  0.0693 -0.0548 -0.0520
 1971W        W 5715   1.599   3.242   7.876 -0.5589  0.1283  0.0772
 1972W        W 5716   8.250   5.024   7.469 -0.2429 -0.2075  0.1716
 1973W        W 5717   0.875   4.162   0.971 -0.3214 -0.0523 -0.0753
 1974W        W 5718   3.496   8.718   2.772 -0.2078 -0.0516  0.0848
 1975W        W 5719   4.135   4.167   2.885 -0.1747 -0.2394 -0.3153
 1976W        W 5720   8.128   3.198   8.928 -0.1199 -0.0844  0.2143
 1977W        W 5721   8.900   9.793   0.373  0.0882 -0.1078  0.2027
 1978W        W 5722   8.527   2.139   0.678  0.1263 -0.3211 -0.3270
 1979W        W 5723   4.811   2.235   0.445  0.1075 -0.2848  0.0295
 1980W        W 5724   0.446   4.034   2.497 -0.1330  0.1811 -0.3569
 1981W        W 5725   4.413   9.833   1.154 -0.0238  0.2871 -0.1492
 1982W        W 5726   8.012   8.138  11.432 -0.1967 -0.0077  0.1782
 1983W        W 5727   4.724   7.917  12.136 -0.2476 -0.0391  0.3745
 1984W        W 5728   5.241   7.813  11.228 -0.0560  0.0598 -0.0505
 1985W        W 5729   9.358   7.291   8.933  0.2931  0.2028 -0.0739
 1986W        W 5730   9.055   9.418   0.118  0.0493 -0.2058  0.2026
 1987W        W 5731   8.881   7.145   8.548 -0.2249  0.1562 -0.2085
 1988W        W 5732   0.793   7.002  11.259  0.0329 -0.1210 -0.0962
 1989W        W 5733   2.624   5.293   9.605 -0.0588  0.2901  0.2444
 1990W        W 5734   8.481   4.602  10.956 -0.1750  0.0825 -0.2351
 1991W        W 5735   6.316   5.352   2.436 -0.1867 -0.2643 -0.1577
 1992W        W 5736   8.971   8.056   9.054 -0.1984 -0.0059  0.3005
 1993W        W 5737   1.639  10.042  11.653  0.2388 -0.0437 -0.3357
 1994W        W 5738   9.679   9.377   7.639 -0.2237  0.1181 -0.3662
 1995W        W 5739   2.487   2.719  11.435  0.0593 -0.1357 -0.1315
 1996W        W 5740   9.451   0.124  10.293 -0.4228 -0.1588 -0.1362
 1997W        W 5741   5.184   1.389   2.172  0.1144  0.2959  0.0789
 1998W        W 5742   8.349   0.407   2.257 -0.0015  0.0792 -0.1053
 1999W        W 5743   9.525   8.604  10.901 -0.2479 -0.2520  0.0217
 2000W        W 5744   4.879   2.827   1.677  0.1722 -0.0458  0.0142
 2001W        W 5745   0.224   9.270   0.885 -0.4272  0.1409 -0.1562
 2002W        W 5746   8.322   8.548   1.048 -0.0733 -0.2834  0.2133
 2003W        W 5747   3.351   2.380   3.638 -0.0389  0.1992  0.1788
 2004W        W 5748   3.792   1.333  10.038  0.2656 -0.1914 -0.2762
 2005W        W 5749   1.698   8.429   1.317  0.0860  0.0406 -0.1355
 2006W        W 5750   8.247   3.671   9.061  0.0555  0.3373 -0.1291
 2007W        W 5751   8.266   6.675   1.642 -0.0141  0.1545  0.1236
 2008W        W 5752   3.081   6.532  11.155 -0.1334  0.0503  0.2624
 2009W        W 5753   5.185   3.397  10.632  0.3113 -0.0879  0.2721
 2010W        W 5754   4.755   3.251   2.949  0.4326  0.0430  0.0912
 2011W        W 5755   6.003   7.240  10.209 -0.2065  0.1714 -0.1393
 2012W        W 5756   5.206   6.122   1.434 -0.2663  0.2682 -0.2154
 2013W        W 5757   5.892   4.227   2.026  0.2453 -0.2028  0.3616
 2014W        W 5758   0.699   5.066   3.305  0.3916 -0.2293 -0.0559
 2015W        W 5759   8.505   7.842   9.134 -0.0980 -0.0924  0.1551
 2016W        W 5760   6.996   7.113   8.721  0.1164 -0.4864  0.0029
 2017W        W 5761   9.730   4.365   2.405 -0.2642  0.0105 -0.0535
 2018W        W 5762   9.772   3.934   7.560  0.0420  0.0572  0.3382
 2019W        W 5763   1.858   2.543   9.251  0.0921 -0.1850 -0.2078
 2020W        W 5764   2.775   9.680   2.352 -0.1676  0.5357  0.0356
 2021W        W 5765   0.088   6.665   1.760 -0.2663  0.0036  0.1139
 2022W        W 5766   6.660   0.421  11.022 -0.2776  0.1971  0.0080
 2023W        W 5767   6.393   5.454   1.503 -0.1583  0.0709 -0.0306
 2024W        W 5768   2.449   4.202   2.259 -0.0711 -0.1259 -0.0168
 2025W        W 5769   9.189   8.292   3.795  0.1832 -0.1230 -0.2529
 2026W        W 5770   2.680   9.939   1.937  0.3404  0.1042  0.1478
 2027W        W 5771   8.942   9.525  11.747  0.2434  0.2907  0.0641
 2028W        W 5772   9.084   2.643   2.864  0.0374 -0.2181 -0.2307
 2029W        W 5773   5.318   7.560  10.510  0.0456 -0.0091 -0.1544
 2030W        W 5774   1.155   0.942   3.753 -0.1433  0.3151 -0.3735
 2031W        W 5775   3.273   6.318   1.022  0.1396  0.0957 -0.0229
 2032W        W 5776   3.724   9.616   3.145  0.1234 -0.4199  0.2383
 2033W        W 5777   9.886   3.593  11.895 -0.1146  0.0700 -0.4631
 2034W        W 5778   8.221   9.913   2.955 -0.0319 -0.1080 -0.2193
 2035W        W 5779   8.535   1.954   9.058 -0.0215 -0.0940  0.4267
 2036W        W 5780   1.446   8.660  11.436  0.0653 -0.1937 -0.0060
 2037W        W 5781   7.517   7.269  10.306  0.3110  0.0267  0.0712
 2038W        W 5782   4.079   6.017   7.932 -0.0133 -0.0040  0.1188
 2039W        W 5783   8.857   9.513   0.838  0.5147 -0.1986 -0.1674
 2040W        W 5784   2.446   2.314  10.519  0.0426 -0.0951  0.0171
 2041W        W 5785   7.072   8.708   3.389 -0.1438 -0.0231 -0.1278
 2042W        W 5786   0.778   2.421   2.901 -0.2538  0.1119 -0.1337
 2043W        W 5787   3.506   7.240  11.711  0.4355  0.0129  0.1298
 2044W        W 5788   2.991   1.342  11.167  0.0276 -0.2687 -0.1527
 2045W        W 5789   7.921   8.506   7.192 -0.0206  0.2773 -0.2373
 2046W        W 5790   5.481   2.227  10.388  0.0909  0.1731  0.2085
 2047W        W 5791   8.118   2.415   0.751  0.1372  0.1366 -0.1745
 2048W        W 5792   0.959   2.926  11.886 -0.1344  0.2696 -0.1600
 2049W        W 5793   2.526   7.085  10.840 -0.3689  0.2274 -0.1707
 2050W        W 5794   9.127   8.616   0.813  0.3445 -0.0316 -0.1702
 2051W        W 5795   5.378   0.214   3.223  0.1380  0.0629  0.0932
 2052W        W 5796   4.312   2.341   0.519 -0.0414 -0.1503 -0.0541
 2053W        W 5797   7.843   3.238   3.537 -0.0127 -0.1126  0.2000
 2054W        W 5798   8.542   2.932   8.737 -0.1525  0.1463  0.2347
 2055W        W 5799   1.475   1.351  10.804 -0.0342  0.1128  0.0167
 2056W        W 5800   0.473   4.968   7.351  0.1973 -0.1222  0.1442
 2057W        W 5801   6.969   7.927   0.898 -0.0604  0.1819 -0.2721
 2058W        W 5802   3.860   2.446   3.577  0.1451 -0.4215  0.2886
 2059W        W 5803   4.603   4.351  11.781 -0.3232 -0.0911 -0.0758
 2060W        W 5804   0.494   8.269   8.547 -0.0194 -0.2167 -0.0605
 2061W        W 5805   5.187   5.564  11.378  0.4512  0.0966 -0.0400
 2062W        W 5806   5.271   5.600   4.249 -0.1356  0.0022 -0.2644
 2063W        W 5807   7.775   6.948   3.894 -0.0212 -0.2485 -0.0135
 2064W        W 5808   5.138  10.166   4.216  0.0043  0.0294  0.0173
 2065W        W 5809  10.148   0.239   0.175 -0.1620 -0.1813  0.0293
 2066W        W 5810   3.612   3.717   1.738  0.2075 -0.3710  0.2879
 2067W        W 5811   5.072   0.536   9.026  0.1427 -0.0765 -0.1024
 2068W        W 5812   5.274   1.730   2.629 -0.1334  0.0396 -0.0465
 2069W        W 5813   7.449   6.751   8.205 -0.1468  0.1946 -0.0445
 2070W        W 5814   2.362   4.728   0.744 -0.1238  0.1853  0.0645
 2071W        W 5815   4.895   7.865   0.643  0.0990 -0.2935  0.3455
 2072W        W 5816   6.603   1.344   0.357 -0.0425  0.0417  0.1754
 2073W        W 5817   5.547   7.835  10.854 -0.0509 -0.0035 -0.2281
 2074W        W 5818   5.444   0.874   9.199 -0.1050 -0.2002 -0.2323
 2075W        W 5819   6.191   8.074   3.538 -0.4191  0.1809  0.0138
 2076W        W 5820   6.208   9.865   1.772  0.0375 -0.3289 -0.2432
 2077W        W 5821   6.638   7.605  11.682 -0.1521  0.1695  0.1248
 2078W        W 5822   6.751   9.985   1.048  0.1084 -0.1983  0.0051
 2079W        W 5823   3.359   4.572   8.578  0.0282 -0.0910  0.2308
 2080W        W 5824   5.847   8.081   1.279  0.0757  0.0427  0.1410
 2081W        W 5825   9.910   1.937   8.426 -0.3096 -0.1170 -0.0574
 2082W        W 5826   0.187   6.107   8.360  0.1619  0.1756 -0.0642
 2083W        W 5827   5.473   5.098   2.715  0.0389  0.3309 -0.0419
 2084W        W 5828   9.971   7.655   2.924  0.1531 -0.1536  0.0287
 2085W        W 5829   8.423   7.308  11.309 -0.0648 -0.1360  0.2188
 2086W        W 5830   6.213   5.215  11.988  0.0508 -0.5995  0.0140
 2087W        W 5831   8.794   0.022   1.584 -0.0116 -0.1744  0.2325
 2088W        W 5832   6.002   9.666  10.041 -0.0305 -0.1336  0.1094
 2089W        W 5833   7.977   8.584  11.679  0.3740  0.1030  0.1135
 2090W        W 5834   8.258   2.520  11.257  0.0671 -0.2848  0.0430
 2091W        W 5835   1.004   5.840  11.006  0.0492 -0.2206 -0.1387
 2092W        W 5836   1.613   0.920   9.052  0.0521 -0.1622  0.0885
 2093W        W 5837   8.338   4.453   1.201 -0.0695  0.1178  0.2314
 2094W        W 5838   8.437  10.128   0.685 -0.0914 -0.1271  0.0743
 2095W        W 5839   5.305   0.416  10.657  0.3230  0.0018 -0.2522
 2096W        W 5840   4.193  10.152   9.809 -0.1268  0.4882  0.0562
 2097W        W 5841   7.384   4.987   9.084 -0.1960  0.1060 -0.0910
 2098W        W 5842   1.406   6.596   2.260 -0.0946 -0.0184  0.1023
 2099W        W 5843   3.363   9.044  10.280 -0.0978 -0.2512 -0.0951
 2100W        W 5844   9.195  10.117   7.293 -0.0691 -0.0410 -0.0278
 2101W        W 5845   3.723   8.082   1.767 -0.0959  0.0686  0.0407
 2102W        W 5846   3.590   2.956   1.469 -0.2220 -0.1356  0.0755
 2103W        W 5847   9.974   5.929   1.952 -0.0321 -0.1779 -0.0150
 2104W        W 5848   6.650   4.644   0.320  0.0818  0.1868 -0.1369
 2105W        W 5849   9.667   6.435   2.776 -0.1137 -0.0208  0.1247
 2106W        W 5850   4.911   7.278   0.666 -0.1810 -0.1028  0.2469
 2107W        W 5851   1.489   2.935   2.999 -0.1305  0.3106  0.0815
 2108W        W 5852   4.772   9.065   9.743 -0.1644  0.1372 -0.0301
 2109W        W 5853   3.980   4.516  10.209  0.0890 -0.0610 -0.0409
 2110W        W 5854   4.159   8.554   9.927  0.0333 -0.0645 -0.2925
 2111W        W 5855   9.571   3.705   1.968  0.2586  0.1371 -0.1521
 2112W        W 5856   2.480   1.817  11.772  0.2392  0.3889 -0.0630
 2113W        W 5857   2.283   6.531   9.648  0.2193  0.0566 -0.1967
 2114W        W 5858   8.684   3.291   0.020 -0.4499  0.1782  0.2695
 2115W        W 5859   0.476   9.668   1.099  0.1076 -0.0084 -0.1423
 2116W        W 5860   9.863   6.420   8.775  0.0456  0.0908  0.0829
 2117W        W 5861   1.526   9.248   3.281 -0.5725  0.0504  0.1220
 2118W        W 5862   1.610   4.456   1.731 -0.0855 -0.1691  0.1348
 2119W        W 5863   7.252   2.942   1.090 -0.0830 -0.1363  0.0988
 2120W        W 5864   0.664   8.947   9.678 -0.4810  0.0710  0.0252
 2121W        W 5865   7.111   3.856  10.177 -0.4042 -0.1712 -0.2256
 2122W        W 5866   4.486   3.610   8.994  0.0077  0.1392  0.1538
 2123W        W 5867   2.182   3.758   1.023  0.1828 -0.1039 -0.3409
 2124W        W 5868   2.954   9.259   3.392 -0.0823  0.2361 -0.1362
 2125W        W 5869   0.513   1.830   0.717  0.2470  0.3288  0.1514
 2126W        W 5870   6.364   5.687   1.046 -0.0823  0.3990  0.0756
 2127W        W 5871   8.321   6.370   3.110  0.2811 -0.2428 -0.0653
 2128W        W 5872   1.176   3.297   2.903 -0.1988  0.2290 -0.2202
 2129W        W 5873   8.160   5.157  10.750 -0.0107  0.1190 -0.2091
 2130W        W 5874   4.623   0.949   1.187 -0.0479 -0.4454 -0.0723
 2131W        W 5875   1.854   4.468   3.989  0.2378 -0.0728 -0.0540
 2132W        W 5876   9.707   9.667   8.088  0.0830  0.1803  0.3425
 2133W        W 5877   9.619   1.887   3.235  0.2652 -0.1292  0.1802
 2134W        W 5878   9.320   9.299  11.406 -0.1371 -0.3553 -0.3300
 2135W        W 5879   2.308   6.237   2.046  0.1226  0.2212 -0.1120
 2136W        W 5880   3.272   4.399  12.027  0.0866  0.2190  0.2525
 2137W        W 5881   6.980   3.016   1.940 -0.1418 -0.1890  0.0365
 2138W        W 5882   9.848   7.847   9.038  0.1215 -0.0862 -0.2295
 2139W        W 5883   9.495   1.429   2.901  0.5094  0.0869 -0.2485
 2140W        W 5884   6.032   3.462  10.696  0.2972  0.1445 -0.2825
 2141W        W 5885   7.877   0.669   0.400  0.0769 -0.0798  0.0481
 2142W        W 5886   9.551   3.793   3.388 -0.0738 -0.1668 -0.1060
 2143W        W 5887   5.883   9.547   2.149  0.3827  0.2445  0.2281
 2144W        W 5888   6.431   1.742  10.422  0.2192 -0.2581 -0.0284
 2145W        W 5889  10.006   4.616  10.433  0.0348  0.1896 -0.1940
 2146W        W 5890   9.847   9.760   1.856 -0.0632  0.2128 -0.1594
 2147W        W 5891   4.765   8.301   2.061  0.1115 -0.3602  0.1534
 2148W        W 5892   9.679   5.575   9.493  0.2973 -0.2679 -0.0207
 2149W        W 5893   0.576   7.639  10.513 -0.2083 -0.1069  0.0711
 2150W        W 5894   0.833   9.569   2.938  0.2780 -0.0153 -0.0518
 2151W        W 5895   4.682  10.057   2.502 -0.0040 -0.2199  0.3887
 2152W        W 5896   5.839   4.232   1.016  0.2264  0.0153  0.2239
 2153W        W 5897   1.330   4.184   1.410 -0.0387  0.1562 -0.0406
 2154W        W 5898   0.820   7.616   9.909  0.2663 -0.2179  0.0244
 2155W        W 5899   8.115   5.005  10.068 -0.1384  0.0985 -0.0024
 2156W        W 5900   2.490   1.471  10.938 -0.0557 -0.0924 -0.0621
 2157W        W 5901   3.492   6.081  10.313 -0.0694 -0.2041 -0.0297
 2158W        W 5902   0.931   8.158   0.728 -0.0157  0.0911 -0.1877
 2159W        W 5903   9.875   4.334   3.849  0.0514  0.2935 -0.0734
 2160W        W 5904   0.515   7.046   3.746  0.1341 -0.1929  0.1320
 2161W        W 5905   4.011   2.470  10.591  0.0934 -0.0033 -0.2456
 2162W        W 5906   2.762   5.604   2.746  0.0194  0.1822  0.3700
 2163W        W 5907   4.474   0.578  11.259 -0.4864  0.1021  0.4219
 2164W        W 5908   1.953   1.642   8.765 -0.2058  0.0199  0.0809
 2165W        W 5909   5.044   9.125  11.807  0.0111  0.1484 -0.1677
 2166W        W 5910   4.149   7.889  11.268 -0.0197 -0.2695 -0.0084
 2167W        W 5911   3.760   5.169   2.108 -0.2609 -0.2708  0.3714
 2168W        W 5912   2.695   5.631   0.816 -0.1910 -0.0681 -0.1241
 2169W        W 5913   8.429   6.402   9.428 -0.0315  0.0222  0.0357
 2170W        W 5914   6.301   0.715  11.458  0.0799  0.0307 -0.0425
 2171W        W 5915   9.784   4.217   9.136  0.3068  0.0534 -0.0778
 2172W        W 5916   2.603   8.184  11.773 -0.2046  0.1845 -0.1403
 2173W        W 5917   9.690   3.526   2.533  0.4490  0.1213  0.2563
 2174W        W 5918   0.272   6.234  11.405 -0.0537 -0.1519  0.0093
 2175W        W 5919  10.168   0.649  11.333  0.1762  0.2695  0.2914
 2176W        W 5920   3.856   2.547   1.327  0.1920  0.3543 -0.5098
 2177W        W 5921  10.022  10.073  10.892  0.0064  0.3608  0.4862
 2178W        W 5922   5.221   1.189  11.983 -0.0833  0.0517 -0.0424
 2179W        W 5923   1.747   4.091   8.760 -0.0695  0.0094  0.1122
 2180W        W 5924   2.528   2.794   1.701  0.1648 -0.1920 -0.0114
 2181W        W 5925   1.759   9.181   0.177  0.2334  0.0822  0.1138
 2182W        W 5926   9.654   6.431   4.059  0.0144  0.1503 -0.1435
 2183W        W 5927   1.882   9.735   0.989 -0.1720  0.0666  0.2588
 2184W        W 5928   7.001   8.182  10.473 -0.2356 -0.1630 -0.0811
 2185W        W 5929   0.129   1.281  12.085  0.1988  0.0209  0.2599
 2186W        W 5930   5.827   8.891   0.217 -0.0179 -0.0340 -0.3201
 2187W        W 5931   2.784   1.431  11.955 -0.2924  0.0379 -0.0365
 2188W        W 5932   8.158   8.883   2.124 -0.0818 -0.1966 -0.2346
 2189W        W 5933   0.037   7.180   8.387 -0.0658  0.2548 -0.0742
 2190W        W 5934   7.422   2.986   8.579  0.0105 -0.0723 -0.0830
 2191W        W 5935   5.657   5.043   0.691 -0.1816  0.0638  0.0583
 2192W        W 5936   2.466   1.335   3.417 -0.0515 -0.1681 -0.2933
 2193W        W 5937   2.787   5.897   1.813  0.0786  0.1687  0.0883
 2194W        W 5938   1.759   5.092  11.591  0.0771  0.1517  0.0208
 2195W        W 5939   9.271   9.427   9.179  0.0243 -0.0551 -0.1114
 2196W        W 5940   6.514   4.630   2.000  0.0639 -0.0535 -0.2889
 2197W        W 5941   8.751   5.310  11.542  0.2293 -0.1810  0.3161
 2198W        W 5942   5.996   9.970   0.347 -0.0224 -0.4150  0.0033
 2199W        W 5943   1.215   1.131  10.414 -0.0375  0.0217  0.0554
 2200W        W 5944   5.143   4.821   2.956  0.0081 -0.1404 -0.1839
 2201W        W 5945   5.106   2.609   0.045  0.1193 -0.1950  0.2376
 2202W        W 5946   9.993   0.485   9.247  0.1390  0.1139 -0.2901
 2203W        W 5947   5.539   1.996  11.399  0.2978  0.0530  0.0421
 2204W        W 5948   7.776   5.215   2.888  0.0719  0.0385 -0.0066
 2205W        W 5949   5.417   7.816   3.739  0.1148  0.0645  0.2170
 2206W        W 5950   9.960   0.417   1.666 -0.0150  0.1171  0.0413
 2207W        W 5951   6.199   8.089  12.107  0.1966  0.1802 -0.0009
 2208W        W 5952   6.982   4.792  12.145 -0.2677  0.1200 -0.0734
 2209W        W 5953   2.957   3.737   1.549 -0.4433  0.1104  0.2094
 2210W        W 5954   9.431   2.895   9.109  0.3053 -0.2000 -0.3048
 2211W        W 5955   2.260   5.124  10.189 -0.0714  0.4596 -0.2450
 2212W        W 5956   1.331   6.675   2.762  0.1312 -0.0217  0.2319
 2213W        W 5957   5.017   0.361   9.966  0.1221  0.0915  0.2071
 2214W        W 5958   0.239   5.831   0.638  0.1232  0.1435  0.0419
 2215W        W 5959   3.376   9.712   4.199  0.0057 -0.3298  0.0071
 2216W        W 5960   2.783   4.975   9.966  0.0246 -0.3123 -0.0640
 2217W        W 5961   2.079   1.869   7.940 -0.1523 -0.0185 -0.0256
 2218W        W 5962   9.673   0.923   0.587  0.0641  0.1489  0.1445
 2219W        W 5963   5.310   0.204   8.707  0.2808 -0.0890  0.2156
 2220W        W 5964   1.620   0.391   0.776 -0.3191 -0.2272  0.0850
 2221W        W 5965   0.086   0.394  11.757 -0.3041  0.1086  0.3075
 2222W        W 5966   9.510   2.090   9.491  0.0838  0.1411  0.0432
 2223W        W 5967   9.031   6.163   9.221 -0.1077  0.0509 -0.0255
 2224W        W 5968   2.084   5.504   0.291  0.1285 -0.2966  0.2340
 2225W        W 5969   9.507   6.136  10.618 -0.1933  0.1975  0.0861
 2226W        W 5970   5.534   2.915   9.369  0.2814  0.0268  0.1275
 2227W        W 5971   3.268   5.521   2.748 -0.0789 -0.3063 -0.0745
 2228W        W 5972   1.179   9.219   9.853  0.3535  0.1104 -0.0520
 2229W        W 5973   5.947   8.589   1.073 -0.3240  0.5063  0.2229
 2230W        W 5974   9.614   8.368   8.734  0.0447 -0.0201 -0.0923
 2231W        W 5975   7.087   4.151  10.616 -0.1087 -0.1228  0.1748
 2232W        W 5976   8.488   1.578   0.457 -0.0347  0.0795  0.3235
 2233W        W 5977   3.191   7.317   0.841  0.4841  0.1507 -0.1208
 2234W        W 5978   0.285   1.312   2.947  0.1517 -0.2635  0.0861
 2235W        W 5979   7.767   8.766   9.486  0.0320 -0.0674  0.1302
 2236W        W 5980   6.326   0.667   3.124  0.0952  0.2744  0.0807
 2237W        W 5981   5.611   1.910   9.917 -0.0762  0.1470  0.1016
 2238W        W 5982   8.375   9.358  11.682 -0.1780  0.0733  0.2913
 2239W        W 5983   5.417   7.036   2.053 -0.0007 -0.0183 -0.2184
 2240W        W 5984   9.858   3.495   0.296 -0.1923  0.0753  0.4141
 2241W        W 5985   9.451   0.511   7.907  0.4479  0.1191  0.0251
 2242W        W 5986   4.668   2.349   9.890 -0.2438 -0.2296 -0.0877
 2243W        W 5987   6.208   0.974   0.051  0.1467 -0.1250  0.1215
 2244W        W 5988   4.124   9.359   2.907  0.1550 -0.1367  0.0589
 2245W        W 5989   6.191   6.873   9.297  0.1073 -0.0430  0.2773
 2246W        W 5990   6.967   2.395   2.140 -0.1032  0.0901 -0.1276
 2247W        W 5991   1.373   9.825  11.230  0.0637 -0.0231  0.0676
 2248W        W 5992   2.340   2.471   9.406  0.0024  0.1488  0.3730
 2249W        W 5993   6.687  10.111  10.252  0.0338 -0.2644 -0.2682
 2250W        W 5994   9.746   9.355   9.010  0.0113 -0.2479 -0.0366
 2251W        W 5995  10.155   9.505   3.309 -0.1310 -0.0556  0.2286
 2252W        W 5996   8.970   3.767  10.750  0.3260 -0.0261 -0.2361
 2253W        W 5997   3.159   5.346  12.079 -0.0069  0.0027  0.1394
 2254W        W 5998   2.755   5.088   8.939  0.1287  0.1874  0.0042
 2255W        W 5999   1.299   1.278   9.532  0.3976 -0.2940 -0.0511
 2256W        W 6000   6.571   3.540   8.406 -0.0205 -0.1901  0.0684
 2257W        W 6001   2.080   0.758   9.668 -0.0529  0.1192  0.1429
 2258W        W 6002   9.005   9.289  10.159 -0.2293 -0.3662 -0.0638
 2259W        W 6003   4.269   9.109   9.833 -0.0407 -0.0370  0.2255
 2260W        W 6004   5.515   3.895   2.268 -0.1572 -0.0390  0.0225
 2261W        W 6005   0.968   0.317  11.624 -0.1450 -0.2191  0.2023
 2262W        W 6006   2.864   8.750   1.045 -0.1583 -0.2642 -0.1246
 2263W        W 6007   7.744   1.423   9.919  0.0949 -0.1284 -0.1533
 2264W        W 6008   9.382   1.075  10.890  0.0079 -0.0589 -0.1953
 2265W        W 6009   5.064   9.019   3.366 -0.0573  0.0613 -0.1459
 2266W        W 6010  10.037   9.029   3.466 -0.2793 -0.1576 -0.0712
 2267W        W 6011   4.897   4.764   8.767 -0.0268 -0.2380  0.1326
 2268W        W 6012   0.765   3.749   0.395  0.1866 -0.2383  0.0195
 2269W        W 6013   5.093   0.690   0.865  0.1522 -0.3652  0.3440
 2270W        W 6014   0.573   3.261   7.939 -0.3083  0.2664  0.0908
 2271W        W 6015   5.101   2.881   0.511  0.1144 -0.0531 -0.1286
 2272W        W 6016   3.023   3.764   8.269 -0.0336  0.0811  0.3121
 2273W        W 6017   1.595   0.595   2.856 -0.0144  0.0896 -0.2476
 2274W        W 6018   8.787   1.977   9.711 -0.1863  0.1566  0.0853
 2275W        W 6019   7.404   8.685   7.463 -0.1806  0.0036  0.3333
 2276W        W 6020   4.392   7.348   9.384  0.2716  0.1959  0.1399
 2277W        W 6021  10.059   6.395   2.179 -0.2498  0.0258 -0.0490
 2278W        W 6022   0.622   9.753   8.599 -0.1369 -0.2856 -0.1171
 2279W        W 6023   2.538   3.992   8.089  0.0259 -0.1904 -0.2122
 2280W        W 6024   2.505   2.780   0.876  0.3268  0.1597 -0.2099
 2281W        W 6025   7.234  10.007   0.911 -0.1361 -0.3389  0.1890
 2282W        W 6026   4.583   4.642   1.742 -0.2687 -0.0745 -0.3194
 2283W        W 6027   0.406   8.678   8.800 -0.0337  0.4618 -0.2620
 2284W        W 6028   3.560   8.605   2.256 -0.2357 -0.1348 -0.0348
 2285W        W 6029   6.775   6.493   0.538  0.0954  0.1974  0.1757
 2286W        W 6030   6.137   7.402   8.034  0.0499 -0.1951 -0.0726
 2287W        W 6031   2.941   8.725  10.469  0.0678 -0.1327 -0.0703
 2288W        W 6032   2.657   4.801   2.695 -0.2849  0.3502  0.2917
 2289W        W 6033   3.639   2.304  10.136 -0.0526 -0.2466  0.2632
 2290W        W 6034   7.063   8.460   2.944 -0.1413  0.1412  0.5496
 2291W        W 6035   3.873   5.997  12.052  0.1290  0.0443  0.0329
 2292W        W 6036   7.331   7.158  11.489  0.0788  0.2054  0.2204
 2293W        W 6037   9.574   8.771   9.063  0.0541  0.3223 -0.3291
 2294W        W 6038   4.896  10.214  11.672 -0.0037 -0.0270 -0.1957
 2295W        W 6039   8.484  10.006   9.954  0.0747 -0.1500  0.0856
 2296W        W 6040   7.600   7.254   9.098 -0.4311  0.1471  0.1820
 2297W        W 6041   4.778  10.209   0.289 -0.0209 -0.0484 -0.2014
 2298W        W 6042   2.407   7.969   0.298 -0.0046  0.0982 -0.0383
 2299W        W 6043   0.566   9.082   2.891 -0.2042  0.3249 -0.1614
 2300W        W 6044   5.602   8.124   1.778 -0.1156  0.0871 -0.0983
 2301W        W 6045   3.032   7.699   9.087  0.0637  0.0722 -0.0344
 2302W        W 6046   8.083   0.033   9.303 -0.0989 -0.0503  0.0563
 2303W        W 6047   3.951   2.635   0.756  0.2691  0.1443  0.0445
 2304W        W 6048   0.733   0.124   2.539 -0.3138  0.1463 -0.1255
 2305W        W 6049   5.598   9.550   9.387 -0.2547 -0.0648  0.0102
 2306W        W 6050   5.046   6.763   9.377  0.0028  0.0952  0.2417
 2307W        W 6051   3.526   1.828   1.062 -0.4336  0.2011  0.0019
 2308W        W 6052   7.859   8.101   8.072 -0.1417 -0.7189  0.0139
 2309W        W 6053   6.531   8.090   8.875 -0.1049  0.1534 -0.4110
 2310W        W 6054   8.081   3.356   3.085 -0.0136 -0.1530  0.0498
 2311W        W 6055   4.955  10.159   3.237 -0.2237 -0.2144 -0.0227
 2312W        W 6056   1.045   2.805   1.244 -0.0515  0.3128 -0.0730
 2313W        W 6057   2.984  10.174  10.246  0.1268 -0.1710 -0.2405
 2314W        W 6058   0.311   7.210   9.318 -0.1256  0.4342  0.0078
 2315W        W 6059   9.720   8.321  11.318  0.1559  0.0461  0.1926
 2316W        W 6060   7.878   5.043  11.694 -0.2546 -0.0781  0.2671
 2317W        W 6061   3.539   7.590   3.308 -0.1894 -0.1895 -0.0377
 2318W        W 6062   5.719   9.500   8.651  0.1113  0.1012  0.1408
 2319W        W 6063   2.457   2.450   2.459  0.0244 -0.3052 -0.0760
 2320W        W 6064   0.203   5.255   7.026 -0.1872  0.3070  0.0295
 2321W        W 6065   4.373   8.777  10.720  0.0812  0.2253  0.0748
 2322W        W 6066   3.954   9.208   4.017 -0.0157  0.3531  0.0630
 2323W        W 6067   9.835   6.639  12.114 -0.3524 -0.0174 -0.1743
 2324W        W 6068   5.230   1.622   9.788 -0.2181 -0.1707 -0.2709
 2325W        W 6069   0.081   9.657  10.821 -0.2064  0.1415  0.4375
 2326W        W 6070   6.313   7.516   1.828 -0.1053 -0.1907  0.1609
 2327W        W 6071   3.321   7.649   2.553  0.2815  0.0304  0.3004
 2328W        W 6072   3.347   4.398   3.540 -0.0408  0.0582  0.3303
 2329W        W 6073   4.634   7.880   8.131 -0.0581 -0.0670  0.0151
 2330W        W 6074   5.734   0.387   2.833  0.1584  0.0951  0.0922
 2331W        W 6075   9.181   5.793   3.202  0.4604  0.2360 -0.1681
 2332W        W 6076   7.342   0.695   0.848 -0.0863 -0.1265 -0.2689
 2333W        W 6077   4.694   2.548   8.868 -0.0673  0.2205 -0.0207
 2334W        W 6078   1.688   9.690   9.421 -0.0144  0.4162 -0.1185
 2335W        W 6079   1.809   1.348  11.425 -0.0332  0.0247 -0.2121
 2336W        W 6080   9.208   0.803   1.135 -0.0871 -0.1823  0.1090
 2337W        W 6081   5.909   0.353   3.293  0.2362  0.0372 -0.0155
 2338W        W 6082   9.022   3.437   0.870  0.0171 -0.1705  0.1589
 2339W        W 6083   9.091   0.898   0.656 -0.0414 -0.2433  0.0425
 2340W        W 6084   6.890  10.034   2.111 -0.1733  0.0332 -0.0791
 2341W        W 6085   6.602   5.978   1.396  0.0894  0.0998 -0.1885
 2342W        W 6086   4.793   3.063   0.119  0.1636 -0.0720  0.0692
 2343W        W 6087   0.493   5.048  10.151  0.0160  0.3063  0.3346
 2344W        W 6088   9.952  10.193   3.929 -0.1974  0.0405 -0.0597
 2345W        W 6089   7.094   6.997  10.250  0.2631  0.1768 -0.1300
 2346W        W 6090  10.085   5.102   8.368  0.1381 -0.1453  0.1986
 2347W        W 6091   7.976   6.134   9.643  0.1759 -0.0090  0.0222
 2348W        W 6092   1.589   4.067   8.311 -0.1357 -0.0052 -0.1855
 2349W        W 6093   5.230   2.024   1.364 -0.2993 -0.0370  0.3179
 2350W        W 6094   5.758   4.025  10.596 -0.1677  0.1643  0.1860
 2351W        W 6095   9.215   6.372   1.600 -0.0646 -0.0755  0.1011
 2352W        W 6096   9.802   2.854  10.184 -0.1036  0.1487 -0.1447
 2353W        W 6097   1.489  10.073   8.588  0.0633  0.0397  0.0044
 2354W        W 6098   3.818   0.494  10.366 -0.0818 -0.0211 -0.2572
 2355W        W 6099   2.829   3.815   2.943  0.1216 -0.2488  0.3441
 2356W        W 6100   9.157   7.663   1.194  0.1487 -0.1969 -0.0475
 2357W        W 6101   6.988   5.509  10.746 -0.0415  0.0049  0.0685
 2358W        W 6102   8.771   5.489   9.792 -0.0414  0.1048  0.0796
 2359W        W 6103   0.120   3.081   9.876 -0.0211 -0.1930 -0.4564
 2360W        W 6104   4.674   5.772   0.459  0.1358 -0.4328  0.1216
 2361W        W 6105   9.594   5.086  10.198  0.3070  0.0610 -0.0929
 2362W        W 6106   0.506   2.384   1.938  0.3602 -0.0687  0.1987
 2363W        W 6107   7.239   2.555   9.020 -0.0046 -0.1459 -0.1004
 2364W        W 6108   6.202   5.594   2.904  0.3391 -0.0619  0.0803
 2365W        W 6109   0.021   3.913   0.940  0.1173  0.2694  0.0233
 2366W        W 6110   6.376   2.620  11.970 -0.0898 -0.2516  0.0750
 2367W        W 6111   9.480   1.284   0.904 -0.0862  0.2982 -0.2431
 2368W        W 6112   1.936   4.494   8.521  0.1675  0.1372 -0.1341
 2369W        W 6113   2.991   3.054   0.989  0.0860  0.0125  0.2741
 2370W        W 6114   8.993   4.751   9.192  0.1157 -0.0361 -0.0196
 2371W        W 6115   9.842   9.449  10.634 -0.0987 -0.0462 -0.0168
 2372W        W 6116   6.683   4.678  11.428  0.2171  0.4733 -0.0998
 2373W        W 6117   8.779   0.981   0.096  0.2129  0.1782  0.1142
 2374W        W 6118   8.222   8.974   0.750 -0.1250  0.1618 -0.0047
 2375W        W 6119   5.102   5.016  11.389 -0.0077 -0.0254  0.0128
 2376W        W 6120   4.837   9.624   3.921 -0.4430  0.0086  0.0995
 2377W        W 6121   2.242   4.133   3.614  0.1324 -0.1305 -0.0995
 2378W        W 6122   4.374   8.719   1.803  0.1281 -0.0150 -0.0827
 2379W        W 6123   4.023   7.884   0.014  0.2081  0.0374  0.1525
 2380W        W 6124   4.612   2.324   3.146 -0.1811 -0.2526 -0.1942
 2381W        W 6125   1.089   2.102  11.192  0.1617  0.3992  0.2650
 2382W        W 6126   0.641   8.888   0.650  0.1420  0.1838 -0.3812
 2383W        W 6127   0.184   0.753  12.083  0.2317 -0.5202 -0.1665
 2384W        W 6128  10.055   4.630   1.990  0.0041  0.1566  0.0064
 2385W        W 6129  10.135   1.946   0.365 -0.0967  0.3264  0.0213
 2386W        W 6130   0.557   6.264   9.264  0.1464  0.1466 -0.0895
 2387W        W 6131   7.023   1.306  11.172  0.0721  0.1837  0.2239
 2388W        W 6132   0.065   1.826  11.206 -0.1571  0.0415 -0.0465
 2389W        W 6133   9.492   6.513   7.466  0.2441  0.2021  0.0168
 2390W        W 6134   7.027   2.848   9.852  0.0803  0.0115  0.2227
 2391W        W 6135   3.584   9.696   0.815  0.0244 -0.0079 -0.0916
 2392W        W 6136   0.917   0.004   9.867  0.0463 -0.0109  0.1830
 2393W        W 6137   0.266   0.453   1.761 -0.1620  0.0948 -0.2274
 2394W        W 6138   1.191   8.218   1.304 -0.2775  0.1089 -0.2365
 2395W        W 6139   8.989   2.585   1.100 -0.3276  0.2394 -0.0187
 2396W        W 6140   2.938   7.450   3.232 -0.0447  0.0971  0.0191
 2397W        W 6141   0.745   2.939   9.045  0.0259  0.1195  0.0654
 2398W        W 6142   6.439   8.663   8.951  0.3177 -0.0839  0.0274
 2399W        W 6143   0.596   6.217   2.733 -0.3830 -0.1219 -0.1209
 2400W        W 6144   4.634  10.007   2.006 -0.2766 -0.2077 -0.1212
 2401W        W 6145   7.633   6.428  10.865 -0.0783  0.2628 -0.3290
 2402W        W 6146   6.733   2.377   9.040 -0.1215  0.1099 -0.0125
 2403W        W 6147   9.213   0.685   2.047 -0.3831 -0.0167 -0.1526
 2404W        W 6148   2.212   7.834  11.916  0.0310 -0.3054 -0.2360
 2405W        W 6149   6.402   2.598   3.030 -0.1174  0.0862  0.1528
 2406W        W 6150   4.990   4.365   2.927 -0.0219  0.0697  0.1849
 2407W        W 6151   9.894   8.782   1.891 -0.0515  0.3166 -0.3478
 2408W        W 6152   1.725   8.226   8.195  0.0422 -0.2437  0.3345
 2409W        W 6153   8.205   7.667   2.772 -0.0049  0.0706 -0.2045
 2410W        W 6154   2.135   3.036  10.141 -0.2514  0.0268  0.0427
 2411W        W 6155   7.424   9.541   3.359  0.0334 -0.1848  0.4004
 2412W        W 6156   1.319   6.843   8.406 -0.3082 -0.3522  0.0625
 2413W        W 6157   4.297   2.129   9.666 -0.0365 -0.0498 -0.2451
 2414W        W 6158   8.163   8.481   0.548 -0.0018 -0.1448  0.1564
 2415W        W 6159   5.727   4.891  10.822 -0.2238 -0.1815 -0.0175
 2416W        W 6160  10.120   4.612   3.397  0.3548 -0.0958 -0.0144
 2417W        W 6161   2.522   8.384   0.964  0.0189  0.0226 -0.1552
 2418W        W 6162   2.434   6.970   1.910 -0.0756 -0.2414  0.1101
 2419W        W 6163   9.869   2.017  10.954  0.1289 -0.1928 -0.1101
 2420W        W 6164   7.758   4.476   1.033 -0.1836  0.2032  0.1739
 2421W        W 6165   2.416   1.618   3.027  0.0340 -0.0075  0.2727
 2422W        W 6166   0.498   6.806   8.903 -0.0275 -0.2307 -0.1086
 2423W        W 6167   1.359   8.180  11.679 -0.2126  0.0090 -0.0945
 2424W        W 6168   2.944   2.024   1.972  0.1244 -0.2549 -0.3820
 2425W        W 6169   0.725   9.652   9.050  0.1614  0.3734 -0.0749
 2426W        W 6170   9.270   2.295   0.061 -0.1231 -0.1203 -0.1893
 2427W        W 6171   4.028   1.362   8.423 -0.2299  0.1906 -0.0617
 2428W        W 6172   2.748   5.624  11.938 -0.2138 -0.0183 -0.1923
 2429W        W 6173   8.175  10.056  11.544 -0.1324  0.0322  0.0041
 2430W        W 6174   5.359   3.447  11.449  0.1523 -0.1371 -0.1048
 2431W        W 6175   0.174   5.729  11.801 -0.0579  0.0507 -0.5123
 2432W        W 6176   8.467   2.361   9.415  0.2122  0.2981  0.0722
 2433W        W 6177  10.161   9.446   9.286 -0.2005 -0.0445 -0.0254
 2434W        W 6178   1.177   9.422  11.522  0.0208 -0.0221 -0.0314
 2435W        W 6179   5.468   7.546   1.939 -0.0640  0.2976 -0.1082
 2436W        W 6180   9.333   4.216   0.129  0.1742  0.1607  0.1526
 2437W        W 6181   7.496   6.072   7.414  0.1093 -0.4331  0.0558
 2438W        W 6182   5.800   2.850   2.555 -0.2598  0.1031  0.1374
 2439W        W 6183   6.258   4.410  11.715  0.0875  0.3982 -0.0730
 2440W        W 6184   4.850   3.786   8.522  0.1701  0.0006 -0.0810
 2441W        W 6185   5.507   0.078   2.443 -0.0781 -0.1960  0.0075
 2442W        W 6186  10.105   8.594   1.337 -0.0453  0.1179 -0.0419
 2443W        W 6187   5.536   6.338   0.394 -0.1238 -0.1719 -0.2039
 2444W        W 6188   8.230   3.889   2.064  0.3078  0.3388 -0.1150
 2445W        W 6189   0.213   5.777  10.743  0.0215  0.2370 -0.1583
 2446W        W 6190   9.066   2.232  10.632  0.0555 -0.3631  0.0068
 2447W        W 6191   9.715   0.340   8.458 -0.0126 -0.0741  0.0981
 2448W        W 6192   8.454   9.083  10.148 -0.0907 -0.4641  0.0403
 2449W        W 6193   6.480   7.168   7.622  0.4107 -0.0146  0.3918
 2450W        W 6194   9.471   6.295   3.562  0.3828 -0.1430  0.1636
 2451W        W 6195   6.852   2.769   8.280 -0.2587 -0.1165 -0.0454
 2452W        W 6196   9.447   5.768   1.058 -0.0623  0.1127 -0.0063
 2453W        W 6197   4.941   6.684   7.605  0.0493  0.0797  0.0638
 2454W        W 6198   2.330   2.123   9.687  0.0267 -0.2393 -0.0973
 2455W        W 6199   9.617   6.220   2.323 -0.3623 -0.0913 -0.0529
 2456W        W 6200   9.141   5.776  10.653  0.0486  0.0314 -0.1217
 2457W        W 6201   0.199   5.065   1.881 -0.2122  0.2974  0.0326
 2458W        W 6202   3.281   5.902   1.960  0.0024  0.3554 -0.0023
 2459W        W 6203   2.168   7.459   2.676  0.2879 -0.2654  0.2936
 2460W        W 6204   8.089   5.735  12.005 -0.2156  0.1136 -0.2806
 2461W        W 6205   8.560   9.289   2.357 -0.1623 -0.1920  0.2477
 2462W        W 6206   2.851   8.293   0.602 -0.0417 -0.0194 -0.0425
 2463W        W 6207   6.249   3.494  11.976  0.2569  0.0167 -0.0969
 2464W        W 6208   0.825   0.798  10.412  0.2226 -0.2472 -0.2105
 2465W        W 6209   8.939   1.408   0.301 -0.2209  0.1729 -0.3207
 2466W        W 6210   7.222   5.708   0.873  0.3764 -0.0371  0.2851
 2467W        W 6211   3.856   5.802  11.067 -0.1783  0.1328  0.1823
 2468W        W 6212   6.301   3.283   0.667  0.0120  0.0537  0.1579
 2469W        W 6213   0.858   4.521   1.406  0.1716 -0.2410  0.1099
 2470W        W 6214   0.124   4.250   2.213  0.0034  0.1821 -0.1367
 2471W        W 6215   4.147   9.153   8.615  0.0454  0.0148  0.2623
 2472W        W 6216   5.622   8.432   8.767 -0.1051  0.0373 -0.0115
 2473W        W 6217   2.204  10.034  11.619 -0.0892 -0.2231 -0.2944
 2474W        W 6218   4.602   5.026  12.049 -0.0179  0.0205 -0.0079
 2475W        W 6219   6.429   3.829   8.750 -0.2757 -0.1612  0.1660
 2476W        W 6220   4.322   7.508   9.881  0.0521 -0.0429 -0.0293
 2477W        W 6221   0.468   5.598   1.028 -0.1930  0.0562 -0.1350
 2478W        W 6222   5.666   0.291  10.998 -0.1711 -0.4700  0.2269
 2479W        W 6223   0.086  10.168  10.034  0.2037  0.1006 -0.5149
 2480W        W 6224   0.619   2.201   1.507 -0.0316 -0.3220 -0.0385
 2481W        W 6225   4.537   0.033   0.828  0.2940 -0.1135  0.0513
 2482W        W 6226   5.377   0.725   9.918 -0.0069  0.1938 -0.0678
 2483W        W 6227   2.429   1.479   9.028  0.0809 -0.0332  0.6546
 2484W        W 6228   6.777   1.593   8.561  0.0801  0.1027  0.1249
 2485W        W 6229   3.752   7.582   9.951  0.0490 -0.1364  0.0180
 2486W        W 6230   8.421   5.962   0.149  0.1136 -0.0720 -0.0931
 2487W        W 6231   0.795   9.343   0.735  0.2365 -0.3609 -0.1479
 2488W        W 6232   5.585   6.522   9.573  0.1397 -0.0467  0.4598
 2489W        W 6233   3.632   9.208   0.930  0.0549 -0.0552  0.1408
 2490W        W 6234   0.711   0.497   9.917 -0.1987 -0.0987 -0.3439
 2491W        W 6235   9.483   7.706   2.733  0.2728 -0.2309  0.0865
 2492W        W 6236   9.774   4.199   1.030 -0.0279 -0.0557 -0.2872
 2493W        W 6237   2.267   8.210  10.108  0.3784 -0.1828 -0.0655
 2494W        W 6238   0.990   5.293   8.861 -0.0832  0.0046 -0.1575
 2495W        W 6239   3.304   3.050  10.127 -0.1790  0.1671 -0.0215
 2496W        W 6240   9.781   1.689   0.008 -0.0685 -0.0182  0.0499
 2497W        W 6241   4.338   8.765   9.510  0.0396  0.1999  0.2444
 2498W        W 6242   6.219   0.418   1.468 -0.1596  0.0187 -0.1400
 2499W        W 6243   1.722   2.766  11.866 -0.2234  0.0288  0.2139
 2500W        W 6244   5.464   5.744   1.728  0.0355  0.1243  0.0405
 2501W        W 6245   2.105   1.209   9.904 -0.1306 -0.0775 -0.0612
 2502W        W 6246   3.841   8.020   2.302  0.1126 -0.0909  0.0593
 2503W        W 6247   6.391   2.586   8.754 -0.1334  0.3373 -0.1487
 2504W        W 6248   4.870   5.014   2.033 -0.0200 -0.0311 -0.1361
 2505W        W 6249   8.682   1.867   3.993  0.5414 -0.1693 -0.1517
 2506W        W 6250   1.498  10.140   9.183  0.1874 -0.2588 -0.1211
 2507W        W 6251   3.245   9.362  10.665  0.1250  0.3569 -0.2489
 2508W        W 6252  10.086   4.840   1.446  0.2083  0.0546  0.1443
 2509W        W 6253   6.700   3.516  11.817 -0.0284  0.0614 -0.0352
 2510W        W 6254   6.065   2.252   8.318  0.1227 -0.0348  0.0759
 2511W        W 6255   2.841   5.464   2.014 -0.0770  0.0780  0.1280
 2512W        W 6256   8.803  10.039   8.462  0.2553 -0.1357 -0.1525
 2513W        W 6257   0.989   2.604   3.479 -0.2619 -0.1967  0.1954
 2514W        W 6258   2.582   7.249   2.479 -0.1592  0.2257  0.1116
 2515W        W 6259   6.544   0.976   3.482 -0.0930 -0.0215 -0.1552
 2516W        W 6260   8.611   1.562   9.960 -0.0749  0.0564 -0.1166
 2517W        W 6261   3.766   7.262   9.354 -0.0934  0.0075 -0.2520
 2518W        W 6262   8.803   8.713   7.627  0.2000 -0.2919  0.1730
 2519W        W 6263   0.957   1.751   2.329 -0.0398  0.1373  0.0403
 2520W        W 6264   6.985   3.023  10.945 -0.0951 -0.1944  0.1251
 2521W        W 6265   8.623   4.930   9.672  0.1566 -0.0292 -0.2275
 2522W        W 6266   4.840   8.649   1.693  0.1762 -0.1320  0.0660
 2523W        W 6267   7.556   5.073  11.298 -0.0586 -0.0009  0.1104
 2524W        W 6268   9.764   9.294   0.912 -0.2292 -0.2557 -0.0422
 2525W        W 6269   6.172   4.602   9.120  0.0234 -0.1532 -0.0439
 2526W        W 6270   3.132   2.836  11.645  0.3543  0.3083  0.3868
 2527W        W 6271   0.316   3.392  10.200  0.3148  0.1345  0.0459
 2528W        W 6272   7.785   1.548   4.223 -0.1759 -0.0873 -0.0551
 2529W        W 6273   0.321   1.366   1.834  0.0998 -0.0770 -0.0544
 2530W        W 6274   1.683   9.194  10.776 -0.0035  0.1277  0.2231
 2531W        W 6275   0.188   2.482   9.110 -0.0394 -0.1328  0.0213
 2532W        W 6276   4.144   2.575   2.286  0.0812 -0.0022  0.3977
 2533W        W 6277   9.709   8.215   1.547 -0.2499  0.1707  0.1575
 2534W        W 6278   8.075   5.512  11.116 -0.2231 -0.0237 -0.0944
 2535W        W 6279   0.129   8.196   1.364  0.0673  0.2802  0.1031
 2536W        W 6280   2.515   0.875   9.980  0.2429 -0.1759 -0.1253
 2537W        W 6281   0.209   6.325   9.634  0.1506  0.1205 -0.0699
 2538W        W 6282   3.202   1.838   1.522 -0.2175 -0.1131  0.1360
 2539W        W 6283   3.092   8.665   0.215  0.1284  0.1042  0.0649
 2540W        W 6284   9.567   9.123   9.392 -0.1035  0.2348 -0.0148
 2541W        W 6285   1.415   2.032   2.188 -0.1668 -0.2268 -0.0986
 2542W        W 6286   5.506   2.033   7.662 -0.0574  0.3368  0.0220
 2543W        W 6287   1.517   1.009  11.660 -0.3212 -0.1030 -0.2813
 2544W        W 6288   1.585   2.183  11.392  0.1451 -0.1108 -0.2481
 2545W        W 6289   0.837   9.881   0.759  0.0928  0.0784  0.0818
 2546W        W 6290   8.825   3.879   0.962  0.1928  0.2405  0.0606
 2547W        W 6291   0.496   3.196   1.117 -0.0290 -0.1934  0.4136
 2548W        W 6292   2.880   3.551  11.829 -0.0602 -0.2550 -0.0374
 2549W        W 6293   9.615   0.226  10.880 -0.0765 -0.1361 -0.5882
 2550W        W 6294   3.260   0.375   3.161 -0.0616  0.0090 -0.1248
 2551W        W 6295   1.502   5.021   9.067 -0.2680 -0.1467 -0.0270
 2552W        W 6296   3.120   2.522   8.674  0.2618 -0.2784 -0.4300
 2553W        W 6297   2.263   8.993  10.164 -0.0626 -0.0965 -0.1657
 2554W        W 6298   7.437   1.635   7.398 -0.0677 -0.0858 -0.2018
 2555W        W 6299   8.944   7.545   0.754 -0.3503 -0.1049 -0.0412
 2556W        W 6300   8.417   3.084   2.792  0.2526 -0.1462  0.0369
 2557W        W 6301   4.299   7.562   1.479  0.3268  0.0243  0.0518
 2558W        W 6302   3.125   8.469   3.018  0.0689  0.0280  0.0513
 2559W        W 6303   1.990  10.033  10.338 -0.0832  0.2212  0.0681
 2560W        W 6304   5.226   7.587   1.022 -0.2135  0.0526  0.2040
 2561W        W 6305   9.722   1.710   0.610  0.2361  0.0897  0.0710
 2562W        W 6306   5.918   2.182   2.858 -0.3137 -0.0190  0.1785
 2563W        W 6307   4.496   4.771   2.228 -0.2509  0.0055 -0.1925
 2564W        W 6308  10.113   1.672   9.865  0.1223 -0.2126 -0.2446
 2565W        W 6309   6.804   0.346   2.214  0.0303 -0.1720 -0.0723
 2566W        W 6310   3.123   8.967   3.020  0.0518 -0.1219  0.0392
 2567W        W 6311   9.208   8.973   3.349 -0.1996 -0.1950 -0.0542
 2568W        W 6312   6.556   5.696   7.607  0.0822  0.0168 -0.1177
 2569W        W 6313   2.450   6.584  11.369  0.0606 -0.0768  0.1432
 2570W        W 6314   5.716   4.269   8.820 -0.1141 -0.0245 -0.0692
 2571W        W 6315   8.586   8.949   9.304  0.0354 -0.1858 -0.0374
 2572W        W 6316   9.090   7.529  11.400  0.0454 -0.1885 -0.0114
 2573W        W 6317   5.101   3.975  11.200  0.0100 -0.2377  0.0586
 2574W        W 6318   8.063  10.132   2.540 -0.3246 -0.2564  0.0835
 2575W        W 6319   1.620  10.155   0.274 -0.0306  0.1951 -0.1068
 2576W        W 6320   9.185   6.350   2.554 -0.0617  0.2667 -0.3445
 2577W        W 6321   7.711   8.559   1.946  0.0389  0.0905 -0.2335
 2578W        W 6322   5.012   5.837   2.285 -0.1467  0.3476 -0.1452
 2579W        W 6323   5.139   3.066   3.505 -0.2664  0.3943  0.0795
 2580W        W 6324   0.715  10.226   3.086 -0.1184  0.2015  0.0769
 2581W        W 6325   0.817   8.815   2.494 -0.1701  0.2262  0.3077
 2582W        W 6326   7.042   1.413   9.932 -0.3425 -0.0133 -0.0692
 2583W        W 6327   2.711   6.318   0.391  0.0480  0.4314 -0.2684
 2584W        W 6328   6.113   5.611   2.081 -0.1666 -0.2872 -0.0562
 2585W        W 6329   9.473   7.024  12.048  0.2423  0.2465  0.2846
 2586W        W 6330   7.761   7.335   2.940 -0.0364  0.2513 -0.0372
 2587W        W 6331   4.113   2.636   0.160  0.2356  0.0906  0.0498
 2588W        W 6332   7.593   8.126   2.250  0.3097 -0.0608  0.1915
 2589W        W 6333   8.037   8.881  10.511 -0.0623 -0.0239  0.1102
 2590W        W 6334   3.755   4.110   2.100  0.4427  0.2380  0.0095
 2591W        W 6335   8.996   6.008  11.164 -0.1441 -0.0977 -0.0109
 2592W        W 6336   0.957   8.415  11.748  0.2042 -0.3989 -0.1372
 2593W        W 6337   1.762   7.001   3.909 -0.3667 -0.0954 -0.0606
 2594W        W 6338   6.719   8.027  11.262 -0.0385  0.0510  0.1618
 2595W        W 6339   6.410   0.064   0.337 -0.0840  0.3020 -0.2021
 2596W        W 6340   0.489   2.693  11.455 -0.1912 -0.0839 -0.1963
 2597W        W 6341   3.739   7.922   9.437  0.0621 -0.1618  0.2204
 2598W        W 6342   3.118   6.780   9.806 -0.0522 -0.0886  0.0812
 2599W        W 6343   1.691  10.215   2.097 -0.1141 -0.1324 -0.0255
 2600W        W 6344   9.457   8.983   1.998 -0.0733 -0.1556  0.0301
 2601W        W 6345   4.597   2.594   9.343 -0.3315 -0.1647  0.0041
 2602W        W 6346   3.589   2.447   3.114 -0.0935  0.1844 -0.1879
 2603W        W 6347   0.585   7.207   9.725  0.0214 -0.2876 -0.2500
 2604W        W 6348   9.602   3.120   2.227  0.2075 -0.4112 -0.0977
 2605W        W 6349   4.211   3.716   1.743  0.2325  0.1404  0.1345
 2606W        W 6350   7.818   8.896  10.022 -0.2430 -0.2479 -0.1053
 2607W        W 6351   9.553   3.723   1.117  0.3960  0.0802  0.0156
 2608W        W 6352   8.552   6.334   1.417  0.1907  0.2522  0.1041
 2609W        W 6353   5.448   5.303   8.095 -0.1625 -0.3353  0.2158
 2610W        W 6354   8.940   0.905  10.674  0.0935  0.3755  0.5539
 2611W        W 6355   3.178   7.844   0.774 -0.2563 -0.1073 -0.2159
 2612W        W 6356   9.643   1.547   8.663  0.1476 -0.0251 -0.3873
 2613W        W 6357   3.764   1.357   4.526  0.2455  0.2193 -0.3154
 2614W        W 6358   5.535   1.105   8.738 -0.1055  0.1090 -0.2262
 2615W        W 6359   8.680   1.135   9.659 -0.1140 -0.0616  0.3557
 2616W        W 6360   2.891   4.743   8.425 -0.3103 -0.0469 -0.0897
 2617W        W 6361   9.385   6.510  11.246 -0.1245  0.1127  0.0820
 2618W        W 6362   3.581   4.618   0.281 -0.0126 -0.0104  0.1706
 2619W        W 6363   7.669  10.014   9.587  0.0423 -0.0143 -0.3034
 2620W        W 6364  10.018   1.357   8.945  0.1933 -0.0700  0.3242
 2621W        W 6365   4.757   4.773   0.387 -0.1163  0.4127 -0.3375
 2622W        W 6366   0.609   1.701   9.991 -0.1793  0.1727  0.0454
 2623W        W 6367   0.843   3.219   9.553 -0.0839  0.0833 -0.1138
 2624W        W 6368   8.912   4.463   2.086  0.0036  0.1112  0.0243
 2625W        W 6369   0.294   8.798  11.199  0.1711 -0.0286 -0.3048
 2626W        W 6370   7.799   3.957   2.513  0.0348  0.0605  0.1815
 2627W        W 6371   2.864   7.178  10.007 -0.0144 -0.1780 -0.0496
 2628W        W 6372   5.601   1.189   2.141 -0.4962  0.3516  0.1050
 2629W        W 6373   7.439   0.599   9.346  0.1170 -0.1272 -0.1678
 2630W        W 6374   0.102   6.648   0.180 -0.0162 -0.3159 -0.0386
 2631W        W 6375  10.008   9.695   8.705  0.0760  0.0229 -0.5381
 2632W        W 6376   2.791   0.500   1.284 -0.2258  0.0496 -0.1362
 2633W        W 6377   4.473   1.722   9.387 -0.1473  0.0739  0.1183
 2634W        W 6378   8.095   2.323  10.289 -0.0235 -0.3352  0.0638
 2635W        W 6379   0.999   6.234   2.121 -0.0428  0.0196  0.2490
 2636W        W 6380   6.208   9.846  11.235  0.2340  0.3874  0.0342
 2637W        W 6381   1.271   7.578   8.087  0.4846 -0.0494 -0.1516
 2638W        W 6382   4.401   5.818   3.006 -0.0113 -0.1001  0.0623
 2639W        W 6383   5.168   1.391   8.324 -0.2919  0.2889  0.2886
 2640W        W 6384   2.386   1.994   8.702  0.1745 -0.1428 -0.1427
 2641W        W 6385   2.144   6.118   9.992 -0.0442 -0.1587 -0.0317
 2642W        W 6386   1.565   7.848   9.011 -0.1927  0.1516 -0.0548
 2643W        W 6387   1.939   3.376   0.916  0.0880 -0.3837 -0.1580
 2644W        W 6388   0.436   4.140   0.593 -0.2014  0.1787  0.0371
 2645W        W 6389   5.195   1.152   9.723  0.0169  0.0615 -0.0258
 2646W        W 6390   3.073   3.236   8.141 -0.2010 -0.0397  0.0209
 2647W        W 6391   5.728   2.122   0.635 -0.1878  0.2949  0.2914
 2648W        W 6392   0.019   3.824  10.020 -0.0118  0.0459  0.0461
 2649W        W 6393  10.178   4.593   8.347 -0.1727 -0.0567  0.0164
 2650W        W 6394   8.219   6.009   9.085  0.0182  0.1639  0.0092
 2651W        W 6395   1.432   2.564   8.524  0.4715  0.2294 -0.2582
 2652W        W 6396   6.548   8.294  10.906 -0.0590  0.5568  0.2911
 2653W        W 6397   8.352   3.457   2.340 -0.0867 -0.3788 -0.2283
 2654W        W 6398   5.248   3.490   2.771  0.0161  0.1622 -0.3118
 2655W        W 6399   4.893   3.661  10.323  0.0647 -0.0178 -0.0543
 2656W        W 6400   2.184   4.096   1.737 -0.2003 -0.0724  0.2957
 2657W        W 6401   7.391   3.774   2.176  0.0842  0.1217  0.2429
 2658W        W 6402   8.258   7.637   9.546 -0.1998 -0.4222  0.2709
 2659W        W 6403   2.504   4.651   9.024  0.2555 -0.2880  0.1725
 2660W        W 6404   2.283   2.786   9.032  0.2314 -0.3749  0.0172
 2661W        W 6405   5.313   1.151   1.717 -0.4718 -0.1541 -0.2670
 2662W        W 6406   5.200   5.150   3.607  0.3145 -0.0493  0.0053
 2663W        W 6407   1.817   1.123   9.510 -0.2458  0.1748 -0.1207
 2664W        W 6408   1.551   9.447  10.193  0.1881 -0.0194  0.0475
 2665W        W 6409   6.915   6.000   9.154  0.0771 -0.0556 -0.1111
 2666W        W 6410   8.355   1.897   1.540 -0.0778  0.3358  0.0258
 2667W        W 6411   1.752   4.245   7.248  0.2465 -0.3797  0.1826
 2668W        W 6412   1.637   4.305  10.161  0.0899 -0.2012  0.1035
 2669W        W 6413   6.235   0.593   8.561  0.1763 -0.4500  0.1600
 2670W        W 6414   2.192   7.738   1.671 -0.4010  0.2780  0.1756
 2671W        W 6415   1.832   5.086   1.821  0.1667  0.1454  0.3390
 2672W        W 6416   9.546   5.945   7.445 -0.2483 -0.2446 -0.2912
 2673W        W 6417   3.985   9.759  11.561 -0.2293  0.0556  0.3093
 2674W        W 6418   5.357   1.514  11.068 -0.0804 -0.0787 -0.0146
 2675W        W 6419   1.504   4.633  11.585  0.2871 -0.2122  0.0695
 2676W        W 6420   1.566   7.949   2.231  0.1555  0.0129 -0.0209
 2677W        W 6421   4.905   2.175   9.169  0.4724  0.1711 -0.0510
 2678W        W 6422   8.266   4.914   2.517  0.0864  0.0670  0.1358
 2679W        W 6423   6.625   6.446   3.580 -0.1104  0.0529  0.0110
 2680W        W 6424   4.124   0.641   9.984 -0.0162 -0.0536  0.0466
 2681W        W 6425   5.866   4.572   9.682  0.2135 -0.1504  0.1950
 2682W        W 6426   7.510   2.070   8.334  0.1488  0.1740  0.1349
 2683W        W 6427   0.694   9.479   2.371 -0.0569  0.0176 -0.2896
 2684W        W 6428   0.958   7.842  11.879  0.1472  0.2456  0.2073
 2685W        W 6429   9.496   7.223   2.554 -0.3173 -0.0010  0.3699
 2686W        W 6430   4.740   0.687   1.994 -0.1102 -0.0612  0.3725
 2687W        W 6431   0.786   3.143   8.428 -0.1845  0.2322 -0.0383
 2688W        W 6432   6.589   0.694  11.944  0.0564 -0.2553 -0.0491
 2689W        W 6433   7.621   6.884  11.136  0.1377  0.1549  0.1443
 2690W        W 6434   0.784   8.714   9.207 -0.0654  0.0900 -0.0592
 2691W        W 6435   5.216   2.498  10.801 -0.2134  0.0448 -0.2748
 2692W        W 6436   9.189   2.909   0.783 -0.2387 -0.3330  0.2714
 2693W        W 6437   7.217   3.008   0.515  0.1119  0.0637  0.0385
 2694W        W 6438   4.158   7.180  11.760  0.0964  0.1767  0.0123
 2695W        W 6439   1.433   5.186   2.351  0.1360  0.1021  0.4216
 2696W        W 6440   4.043  10.221   9.194  0.0657  0.0147  0.2982
 2697W        W 6441   7.399   5.537   9.303  0.2634  0.2120  0.0098
 2698W        W 6442   0.983   8.101   8.713  0.0013 -0.1287 -0.1229
 2699W        W 6443   8.312   5.763   1.377 -0.0170  0.1889 -0.2389
 2700W        W 6444   0.020   3.971   9.041 -0.1005 -0.2015  0.0286
 2701W        W 6445   3.986   5.860   3.481  0.2098 -0.1716  0.2212
 2702W        W 6446   1.165   5.241  10.848  0.2567 -0.0456 -0.1428
 2703W        W 6447   4.969   5.252   9.681  0.0158  0.0615 -0.1308
 2704W        W 6448   6.191   2.635   1.680  0.0006  0.1106 -0.0003
 2705W        W 6449   1.246   3.542  10.067  0.2021  0.2051  0.0247
 2706W        W 6450   8.386   9.902   1.533 -0.0679  0.2126  0.1300
 2707W        W 6451   6.985   5.816   6.638  0.1917  0.2057  0.0560
 2708W        W 6452   0.769   4.961   1.676  0.1101 -0.0630  0.2113
 2709W        W 6453   2.132   3.054   1.982 -0.1832  0.1161 -0.0022
 2710W        W 6454   7.797   6.453   0.916  0.0201  0.0497  0.0607
 2711W        W 6455   2.644   6.706   9.980 -0.4252 -0.1670  0.1598
 2712W        W 6456   2.912   5.340   1.122 -0.2119 -0.0092 -0.2200
 2713W        W 6457   1.663   0.359   3.413 -0.1802  0.1220  0.4697
 2714W        W 6458   4.054   8.405   1.488 -0.0358 -0.2862  0.0692
 2715W        W 6459   3.831   6.979   2.526  0.2690 -0.2285 -0.1171
 2716W        W 6460   4.031   9.489  11.144 -0.0643  0.3914 -0.0413
 2717W        W 6461   2.276   1.084   8.491 -0.0108  0.0463  0.2665
 2718W        W 6462   4.784   7.583   1.940  0.1393 -0.0667 -0.1999
 2719W        W 6463   9.197   4.777   1.271 -0.2471  0.2127  0.1327
 2720W        W 6464   9.260   9.413   9.696 -0.2291 -0.1001  0.0634
 2721W        W 6465   9.565   2.159  11.826  0.1721 -0.2023 -0.0395
 2722W        W 6466   3.002   9.557   0.199 -0.1667 -0.0220  0.0118
 2723W        W 6467   9.106   3.564   1.955 -0.0165  0.0784  0.0855
 2724W        W 6468   8.177   7.492   2.175 -0.0328 -0.0954  0.0069
 2725W        W 6469   8.740   2.671  11.905 -0.2149  0.1462  0.2811
 2726W        W 6470   3.202   3.311  12.098 -0.0026  0.0036  0.2936
 2727W        W 6471  10.227   3.132  10.598  0.4133  0.1182 -0.3055
 2728W        W 6472   8.277   9.429   8.168 -0.2499 -0.0111  0.1216
 2729W        W 6473   9.084  10.142   2.632 -0.0174 -0.0859 -0.0671
 2730W        W 6474   4.608   4.934   0.989 -0.2028 -0.0125  0.1299
 2731W        W 6475   6.417   1.340   3.134  0.1211  0.1171 -0.0992
 2732W        W 6476   1.909   8.629   1.696 -0.0315 -0.1077 -0.0951
 2733W        W 6477   3.701   7.866   3.707  0.0939  0.2415 -0.1519
 2734W        W 6478   8.480   8.909   3.413  0.3615  0.0990 -0.1455
 2735W        W 6479   0.545   7.362   8.252 -0.2355 -0.2538 -0.1369
 2736W        W 6480   1.321   5.351   1.547  0.1995  0.2329  0.0499
 2737W        W 6481   0.157   1.616   3.359 -0.1074 -0.1770  0.2511
 2738W        W 6482  10.065   9.499   2.205 -0.1591 -0.0609 -0.1677
 2739W        W 6483   2.183   6.854  10.126 -0.2611 -0.0383  0.1036
 2740W        W 6484   2.072   7.731   2.137 -0.2144 -0.0878  0.1413
 2741W        W 6485   9.312   6.201   0.869 -0.0942 -0.2503 -0.0860
 2742W        W 6486   8.915   5.039   7.383 -0.2147  0.0263 -0.0689
 2743W        W 6487   3.270   6.347   2.399  0.1595  0.1234  0.0753
 2744W        W 6488   1.722   1.563   8.319 -0.2176 -0.2323 -0.1728
 2745W        W 6489   3.519   3.742   4.103  0.1860  0.2987  0.1753
 2746W        W 6490   7.121   2.172   9.337 -0.3593  0.3109 -0.1507
 2747W        W 6491   1.124   8.982   0.774 -0.3960 -0.0148  0.0508
 2748W        W 6492   4.320   4.137   9.966  0.2639  0.1010  0.2356
 2749W        W 6493   6.370   8.075  11.658  0.2255  0.1166 -0.2226
 2750W        W 6494   9.163   5.823   2.547  0.1421 -0.1700  0.5704
 2751W        W 6495   4.779   0.199   3.631 -0.1128 -0.3048 -0.1561
 2752W        W 6496   9.530   0.775  11.905 -0.1052 -0.0748  0.0838
 2753W        W 6497   4.359   3.378  11.821  0.4146  0.0370  0.2249
 2754W        W 6498   4.279   9.680  10.726 -0.0131 -0.2142 -0.0382
 2755W        W 6499   7.052  10.161  11.398 -0.6373 -0.1625 -0.0200
 2756W        W 6500   6.273   9.476   3.066  0.0435  0.0812 -0.4481
 2757W        W 6501   6.940   2.367   9.748 -0.1901 -0.1488  0.2486
 2758W        W 6502   6.790   3.957   1.627 -0.2356 -0.2980  0.0017
 2759W        W 6503   3.923   8.858   2.986  0.0951  0.0917 -0.1079
 2760W        W 6504   1.637   6.282   2.513 -0.1953 -0.0485 -0.1426
 2761W        W 6505   8.649   1.494  10.640  0.0846 -0.0511  0.1604
 2762W        W 6506   0.394   0.864   1.041 -0.2296 -0.0776  0.0371
 2763W        W 6507   0.227   1.032   8.714 -0.1406 -0.1067  0.2950
 2764W        W 6508   6.269   1.600  12.083  0.0455  0.1043 -0.0842
 2765W        W 6509   5.643   0.765  11.069 -0.0372  0.5984 -0.3246
 2766W        W 6510   3.530   3.246   1.926  0.3269  0.2452 -0.1343
 2767W        W 6511   7.729   6.851   2.805  0.4027  0.1351  0.0902
 2768W        W 6512   9.019   1.406   2.117 -0.2560 -0.1536  0.1021
 2769W        W 6513   6.022   4.207   7.439 -0.1445  0.0857  0.0214
 2770W        W 6514   8.511   0.970  11.814  0.0617 -0.1493 -0.2724
 2771W        W 6515   6.613   6.832   7.988 -0.0353 -0.3021 -0.1443
 2772W        W 6516  10.117   5.911  11.248  0.1671 -0.0415  0.0760
 2773W        W 6517   1.270   5.723   0.408  0.1870 -0.1975 -0.0066
 2774W        W 6518   2.323   5.321   8.839 -0.0127 -0.4009  0.1530
 2775W        W 6519   6.085   6.003   9.007  0.0875 -0.2116 -0.1146
 2776W        W 6520   7.180   7.110   1.149  0.0606  0.0240  0.1576
 2777W        W 6521   1.779   6.824   0.742  0.0493 -0.3197  0.1092
 2778W        W 6522   3.061   2.165   7.823  0.1411  0.1466  0.3705
 2779W        W 6523   4.354   1.635   8.872  0.1388  0.0032 -0.0256
 2780W        W 6524   6.193   9.987   8.584 -0.1528 -0.0380 -0.1916
 2781W        W 6525   0.420   0.803   9.586  0.3662 -0.1298  0.0306
 2782W        W 6526   8.929   4.975   7.899 -0.4298  0.0111  0.2672
 2783W        W 6527   0.333   3.666   3.728  0.0288  0.0476 -0.2405
 2784W        W 6528   8.212   1.016   9.961 -0.0814 -0.0641 -0.0167
 2785W        W 6529  10.050   5.521  10.516 -0.2503 -0.1898 -0.2819
 2786W        W 6530   6.632   8.667  11.228 -0.0304 -0.2069 -0.1888
 2787W        W 6531   3.228   3.058   8.725  0.2251 -0.0767  0.0280
 2788W        W 6532   3.689   1.128   3.513  0.0028 -0.4358  0.1205
 2789W        W 6533   4.927   8.880  10.968 -0.2992 -0.0022  0.2215
 2790W        W 6534   6.315   0.538   9.145  0.3629  0.1176  0.2363
 2791W        W 6535   1.524   6.795   7.910 -0.2424  0.0403 -0.2632
 2792W        W 6536   4.447   7.904   7.615 -0.0729  0.0262 -0.1349
 2793W        W 6537   0.669   0.450   2.925  0.3406  0.0480 -0.1795
 2794W        W 6538   3.015   6.520  10.283 -0.1367  0.1613 -0.1860
 2795W        W 6539   3.697   4.396  11.181  0.0684  0.0749  0.2186
 2796W        W 6540   2.700   5.709   8.746 -0.0659  0.0296  0.0419
 2797W        W 6541   5.553  10.070   2.912 -0.3858  0.0452 -0.2280
 2798W        W 6542   1.158   6.103   2.599 -0.1948  0.0776 -0.0374
 2799W        W 6543   9.830   1.070   2.787 -0.1359 -0.1682  0.0663
 2800W        W 6544   8.836   6.112   2.893  0.1531 -0.0724 -0.1971
 2801W        W 6545   8.056   1.926   9.076 -0.0730  0.2634 -0.0579
 2802W        W 6546   6.683   8.868   9.824 -0.0598 -0.2278 -0.0529
 2803W        W 6547   5.009   7.090  10.285  0.3558 -0.0878  0.0421
 2804W        W 6548   8.087   6.522  11.673  0.1628 -0.0282 -0.0591
 2805W        W 6549   2.814   1.396   1.736 -0.1915 -0.3912 -0.0952
 2806W        W 6550   0.228   0.295   3.167  0.1728  0.2771 -0.2482
 2807W        W 6551   4.992   0.222   0.759  0.0681  0.2524  0.1355
 2808W        W 6552   8.230   9.888  10.537  0.2095 -0.0764  0.0351
 2809W        W 6553   8.439   6.255  11.906 -0.1878 -0.1589 -0.4513
 2810W        W 6554   0.087   3.533   3.272 -0.0765  0.1598 -0.2915
 2811W        W 6555   5.701   1.622   1.866 -0.0753  0.1871  0.3894
 2812W        W 6556   6.591   9.170   0.301 -0.0797  0.1934  0.1215
 2813W        W 6557   4.712   0.836   8.822 -0.0507 -0.2140 -0.2443
 2814W        W 6558   7.817   8.220   8.674 -0.1549 -0.1594 -0.0588
 2815W        W 6559   7.826   1.957  10.530 -0.0222  0.2973  0.1717
 2816W        W 6560   0.398   7.012  11.620  0.0718 -0.2933  0.0534
 2817W        W 6561   1.496   3.842  10.338  0.1036  0.0429 -0.2168
 2818W        W 6562   0.433   2.737   8.699 -0.1699  0.2890 -0.1824
 2819W        W 6563   0.136   9.835   3.733  0.1264  0.1308 -0.1150
 2820W        W 6564   2.339   1.647  10.005 -0.0555 -0.3955 -0.1112
 2821W        W 6565   3.872   7.584   8.515 -0.1591 -0.1746  0.0048
 2822W        W 6566   8.069   8.423   4.042  0.0077  0.2672  0.1505
 2823W        W 6567   9.809   7.695   0.018  0.0069  0.0709  0.0059
 2824W        W 6568   3.453   1.993  10.479  0.2191  0.1188  0.0119
 2825W        W 6569   6.447   4.833   3.450 -0.2045 -0.2284  0.3765
 2826W        W 6570   9.473   3.192   1.778 -0.0046 -0.1798  0.0972
 2827W        W 6571   7.478   9.654   8.983  0.1473 -0.0840 -0.2039
 2828W        W 6572   8.431   8.887  11.537 -0.1480 -0.0229  0.1263
 2829W        W 6573   2.103   1.518   9.473 -0.1718 -0.1221  0.3486
 2830W        W 6574   7.446   0.207   0.735  0.0516 -0.0536 -0.0797
 2831W        W 6575   9.377   4.961  11.893 -0.0572 -0.0367 -0.2473
 2832W        W 6576   6.093  10.112   7.864 -0.1860  0.0495 -0.2665
 2833W        W 6577   9.322   3.009  10.415 -0.0038  0.1304  0.3983
 2834W        W 6578   9.937   6.910   0.507 -0.3134  0.3223  0.2354
 2835W        W 6579   3.280   1.830   2.591  0.0613 -0.0539  0.1244
 2836W        W 6580   3.986   5.976   1.800 -0.1276  0.0995 -0.3407
 2837W        W 6581   5.279   6.568  11.544  0.0490  0.2154  0.0950
 2838W        W 6582   9.945   3.391   9.652  0.0792  0.2473 -0.0581
 2839W        W 6583   6.978   8.134   1.814  0.2366  0.1459 -0.0186
 2840W        W 6584   9.708   3.751   9.908 -0.0021 -0.2370 -0.0106
 2841W        W 6585   4.415   4.581   8.419  0.0665 -0.1239 -0.0011
 2842W        W 6586   4.495   3.880  11.653  0.0381 -0.0427  0.1444
 2843W        W 6587   7.961   3.406  11.094  0.1875  0.0324 -0.1793
 2844W        W 6588   1.330   7.703   3.224 -0.2781  0.0036 -0.0541
 2845W        W 6589   2.126   6.664  11.789  0.0451 -0.1269  0.0818
 2846W        W 6590   5.401   8.409  11.647  0.1274  0.3264  0.3051
 2847W        W 6591   9.621   6.069  11.570  0.1377 -0.3826 -0.0576
 2848W        W 6592   6.461   7.855   0.898  0.1366 -0.0315  0.6171
 2849W        W 6593   4.859   0.775   2.681  0.0227 -0.1735 -0.0180
 2850W        W 6594   4.987   5.281   9.007  0.2785 -0.0326 -0.1484
 2851W        W 6595   6.568   5.022   1.586  0.0322  0.2610 -0.0691
 2852W        W 6596   1.237   9.136   3.810 -0.0484  0.0087  0.2433
 2853W        W 6597   3.747   4.027   2.630  0.1822  0.3628 -0.1613
 2854W        W 6598   6.376   9.344  11.140 -0.1151  0.0249  0.0322
 2855W        W 6599  10.055  10.144   2.116  0.2357 -0.3562  0.0723
 2856W        W 6600   0.355   8.605   2.670  0.2624  0.2458  0.0476
 2857W        W 6601   4.442   4.522   0.083  0.1527  0.1120  0.1060
 2858W        W 6602   9.933   5.092   2.184 -0.1125  0.0958 -0.1915
 2859W        W 6603   1.271   4.782   1.502  0.3814  0.2814 -0.2670
 2860W        W 6604   2.573  10.029   2.810 -0.3014 -0.1864  0.0884
 2861W        W 6605   6.710   4.368   3.251 -0.1274 -0.0759  0.0464
 2862W        W 6606   3.928   4.603   1.626  0.3120  0.0569 -0.0867
 2863W        W 6607   9.071   3.133  11.925  0.2463  0.1598 -0.1954
 2864W        W 6608   0.129   6.143   7.901  0.2920 -0.1831 -0.1495
 2865W        W 6609   0.113   9.284   1.836 -0.0612  0.0285 -0.0464
 2866W        W 6610   5.204   9.324   9.036  0.1679  0.0123  0.0740
 2867W        W 6611   1.875   5.559  11.365 -0.1187 -0.1768  0.0009
 2868W        W 6612   7.564   6.794  10.043  0.0065 -0.2068 -0.3387
 2869W        W 6613   1.355   9.045  11.113  0.2191 -0.2878 -0.0009
 2870W        W 6614   0.758   9.015  10.171  0.3516 -0.2968 -0.0329
 2871W        W 6615   0.362   5.329   9.508  0.0149  0.2394 -0.3432
 2872W        W 6616   8.185   2.764   9.897 -0.2685 -0.2312  0.3568
 2873W        W 6617   2.435   7.217  10.343 -0.0900  0.1190  0.2648
 2874W        W 6618   6.584   0.680   1.167 -0.0099 -0.2338  0.0363
 2875W        W 6619   6.979   2.802   9.331  0.0492  0.0082  0.1259
 2876W        W 6620   9.118   4.330  10.409 -0.1052 -0.0887 -0.0676
 2877W        W 6621   5.757   2.458  10.737  0.0162  0.0350  0.0434
 2878W        W 6622   5.793   7.464  11.218  0.0120 -0.2011  0.0024
 2879W        W 6623  10.060   2.951   2.409  0.1713  0.2464 -0.0388
 2880W        W 6624   6.654   5.086   0.896 -0.1750  0.0465  0.0356
 2881W        W 6625   4.585   5.027   2.685  0.1411 -0.0486  0.0915
 2882W        W 6626   5.035   0.081  10.899 -0.1944 -0.1372  0.1154
 2883W        W 6627   6.909   9.254   8.524 -0.2227  0.0288  0.1154
 2884W        W 6628   8.409   6.155   2.633 -0.3186  0.0673  0.0620
 2885W        W 6629   5.469   2.409   8.515  0.0739 -0.4688 -0.2461
 2886W        W 6630   8.055   8.047   0.235 -0.0480 -0.1211 -0.1284
 2887W        W 6631   5.897   7.089   0.918  0.1108  0.1500  0.1561
 2888W        W 6632   6.565   6.514   1.513 -0.1446 -0.1226 -0.2267
 2889W        W 6633   5.140   6.466  10.380 -0.3325 -0.0980 -0.2408
 2890W        W 6634   9.687   2.091   0.263 -0.1024  0.0773 -0.1815
 2891W        W 6635   8.009   0.633   1.316  0.0218 -0.1481 -0.0659
 2892W        W 6636   6.623   5.651   8.146 -0.2065  0.0295  0.1753
 2893W        W 6637   0.014   5.301   9.148 -0.3332 -0.2328  0.0174
 2894W        W 6638   7.074   1.014   1.124  0.0463  0.1671 -0.0464
 2895W        W 6639   1.945   1.443  10.319  0.0061 -0.1708  0.1847
 2896W        W 6640   9.599   1.049  10.438  0.1855  0.3474 -0.1874
 2897W        W 6641   7.850   1.242  11.746  0.1083 -0.5478  0.2196
 2898W        W 6642   9.812   8.356   9.291  0.0769  0.2018 -0.1032
 2899W        W 6643   4.076   0.434   4.341  0.0175  0.0379  0.1809
 2900W        W 6644   6.412   0.459   9.632  0.2371  0.1923  0.1413
 2901W        W 6645   1.668   9.291   9.758 -0.0898  0.1366  0.0631
 2902W        W 6646   9.901   3.867  10.384 -0.4016 -0.2131  0.1940
 2903W        W 6647   6.024   6.496   8.948 -0.1333  0.0276  0.1837
 2904W        W 6648   8.103   0.128   1.351 -0.0510  0.0619 -0.3013
 2905W        W 6649   7.626   0.514   1.814 -0.0349  0.2470 -0.3998
 2906W        W 6650  10.218   7.268   9.676 -0.0000  0.0079 -0.1952
 2907W        W 6651   4.673   0.839   3.214  0.0805  0.0152 -0.2627
 2908W        W 6652   4.111   2.191   3.199  0.3050  0.6508  0.1022
 2909W        W 6653   6.787   9.195  10.192  0.2026 -0.0250  0.1694
 2910W        W 6654   1.023   4.019   0.069  0.1293  0.0089  0.1787
 2911W        W 6655   4.437   6.711   2.251  0.0919  0.0564  0.0797
 2912W        W 6656   9.933   7.459  10.734  0.0242 -0.0242 -0.0227
 2913W        W 6657   8.618   6.430   0.201  0.1122  0.1985  0.0180
 2914W        W 6658   2.623   1.353   9.589  0.0075  0.0526  0.0072
 2915W        W 6659   7.409   2.548  11.946  0.1889  0.0153  0.0204
 2916W        W 6660   2.862   4.509   2.303 -0.1537 -0.1762 -0.2324
 2917W        W 6661   0.499   6.879   8.360 -0.0427 -0.3982 -0.0278
 2918W        W 6662   6.626   0.305   3.843  0.0763  0.1796  0.1366
 2919W        W 6663   5.985   7.902   9.456  0.4121 -0.0804 -0.3039
 2920W        W 6664   9.003   1.232   9.276  0.2107  0.2230 -0.1905
 2921W        W 6665   4.735   9.962  10.706 -0.1642  0.2060 -0.0872
 2922W        W 6666  10.119   2.332   8.210 -0.3587 -0.0703  0.3316
 2923W        W 6667   8.764   5.550   8.477  0.0638 -0.3938  0.0597
 2924W        W 6668   1.844   5.487   1.530  0.3192 -0.0108  0.0405
 2925W        W 6669   5.435   5.008  10.420  0.0777  0.2077 -0.0916
 2926W        W 6670   8.615   5.513  12.014 -0.0322 -0.1084  0.2197
 2927W        W 6671   7.262   3.274  10.041 -0.1986 -0.0751  0.0972
 2928W        W 6672   6.093   4.136   9.153  0.1935 -0.1106 -0.1663
 2929W        W 6673   3.967   7.888   3.273  0.2320 -0.3042 -0.3945
 2930W        W 6674   8.414   2.171   3.600 -0.0306  0.1795 -0.1977
 2931W        W 6675   9.792   8.648  11.778 -0.0708 -0.1329  0.1158
 2932W        W 6676   4.434   5.228  10.851 -0.1465  0.1997  0.0020
 2933W        W 6677   2.075   4.697  11.668  0.0663 -0.4299 -0.0187
 2934W        W 6678   0.074   2.177  10.684 -0.0348 -0.0728  0.1281
 2935W        W 6679   6.805   7.464   9.721  0.2239  0.1194  0.0419
 2936W        W 6680   4.650   7.927  11.360  0.1451  0.0196  0.3288
 2937W        W 6681   6.453   0.657  10.572 -0.0222  0.2051  0.0708
 2938W        W 6682   8.043   9.362  10.351  0.0902 -0.0157  0.1522
 2939W        W 6683   4.418   3.774   9.455 -0.1581 -0.0269  0.1902
 2940W        W 6684   3.861   9.278   9.084  0.0102 -0.2438  0.2256
 2941W        W 6685   9.384   9.557  10.985 -0.0341 -0.1000 -0.0009
 2942W        W 6686   6.412   2.286   2.107  0.1658 -0.0504  0.1951
 2943W        W 6687   0.491   6.744   9.631  0.2467 -0.0611 -0.0369
 2944W        W 6688   6.977   4.224   2.631 -0.0654 -0.1918  0.2799
 2945W        W 6689   1.533   8.369   2.487 -0.0681  0.1218 -0.1002
 2946W        W 6690   9.393   3.895  11.667  0.2269  0.0466 -0.1251
 2947W        W 6691   0.941   9.623   0.233  0.1410 -0.1561  0.0895
 2948W        W 6692   7.627   4.188   9.340 -0.0669 -0.1099 -0.0681
 2949W        W 6693   2.186   9.529  11.689  0.0903  0.0829  0.1395
 2950W        W 6694   3.711   5.290  10.635  0.1917 -0.0725  0.0696
 2951W        W 6695   7.474   2.084   2.575 -0.0847  0.2091 -0.0328
 2952W        W 6696   9.828   0.653  10.946 -0.0290 -0.6167 -0.1945
 2953W        W 6697   6.202   6.338   9.936 -0.1480 -0.4253 -0.0650
 2954W        W 6698   6.528   2.866   9.132  0.0389  0.0126 -0.1364
 2955W        W 6699   9.965   7.863   0.514  0.1814  0.1253  0.1923
 2956W        W 6700   1.649   3.942   2.303 -0.1113 -0.1773 -0.2561
 2957W        W 6701   4.227   8.850   3.773 -0.0853  0.1757  0.0378
 2958W        W 6702   6.021   0.853   1.061  0.2760  0.0905 -0.1736
 2959W        W 6703   8.200   0.513   1.784 -0.0026 -0.2314  0.1172
 2960W        W 6704   5.625   7.278   7.935 -0.1235 -0.0790  0.2183
 2961W        W 6705   9.685   4.668   1.192 -0.1285  0.1918 -0.1255
 2962W        W 6706   4.022   1.953  10.474  0.1686 -0.0998 -0.0388
 2963W        W 6707   8.476   4.200   2.360  0.6024  0.2261 -0.0973
 2964W        W 6708   6.551   0.787   3.994  0.1976  0.2394  0.1256
 2965W        W 6709   8.090   5.478   1.008 -0.1666  0.0342 -0.0868
 2966W        W 6710   7.543   4.804   0.011  0.0658 -0.1506 -0.0184
 2967W        W 6711   3.129   1.081   8.712  0.0903  0.1853  0.2504
 2968W        W 6712   5.640   0.834   2.459  0.1124  0.4153  0.1618
 2969W        W 6713   6.469   6.853  11.322  0.0455  0.0340 -0.2743
 2970W        W 6714   5.518   2.154   2.523  0.1654  0.0356 -0.1960
 2971W        W 6715   8.176   1.990   8.565 -0.1524  0.1454  0.1038
 2972W        W 6716   7.263   0.394   8.928  0.0215  0.1146  0.1702
 2973W        W 6717   9.336   6.956   9.301 -0.0194  0.1565  0.2053
 2974W        W 6718   7.828  10.111   0.023 -0.1984  0.3224 -0.1148
 2975W        W 6719   4.602   0.531  11.696 -0.1327  0.0442 -0.1343
 2976W        W 6720   4.886   3.860   2.877 -0.0652 -0.0320 -0.2332
 2977W        W 6721   1.092   4.433  10.302  0.0039 -0.0266  0.2279
 2978W        W 6722   7.085   6.536   0.131 -0.2493 -0.1742  0.2064
 2979W        W 6723   2.114   1.571   2.429  0.2437 -0.0825 -0.2534
 2980W        W 6724   3.838   3.990   8.848  0.2587  0.2360 -0.1240
 2981W        W 6725   4.395   4.508  11.375 -0.2049 -0.0154 -0.0555
 2982W        W 6726   3.049  10.156   3.417  0.1755 -0.0315 -0.0562
 2983W        W 6727   5.066   1.169   1.254  0.3416 -0.1464 -0.3679
 2984W        W 6728   4.064   4.943   8.300 -0.0860  0.2376 -0.0506
 2985W        W 6729   9.954   4.243  10.064  0.1000  0.0947  0.0004
 2986W        W 6730   8.266   4.813   3.754  0.2731  0.0382 -0.0195
 2987W        W 6731   7.931   1.671   0.135 -0.0677  0.2614 -0.0684
 2988W        W 6732   0.199   2.820   0.676 -0.2815  0.1771  0.0972
 2989W        W 6733   9.369   2.525  10.355  0.0087  0.2668  0.1456
 2990W        W 6734   6.521   3.950  12.052 -0.0233 -0.0138 -0.1142
 2991W        W 6735   3.641   1.557  10.505  0.1304 -0.1497  0.0291
 2992W        W 6736   4.902   5.523  10.173 -0.1533 -0.0337  0.0010
 2993W        W 6737   2.935   3.401   8.615 -0.3351  0.1548  0.1080
 2994W        W 6738   7.850   7.425   8.667  0.0903 -0.0390 -0.2510
 2995W        W 6739   9.494   0.784   2.481 -0.1209  0.1791  0.2388
 2996W        W 6740   6.349   9.723  10.770  0.0367  0.2923  0.0204
 2997W        W 6741   8.340   5.212   0.662  0.3895  0.2545  0.0225
 2998W        W 6742   6.275  10.099   1.368 -0.1255 -0.0158  0.1674
 2999W        W 6743   6.065   8.687   8.654 -0.0999  0.2259  0.2286
 3000W        W 6744   9.252   0.387  11.643 -0.0680  0.1241 -0.0330
 3001W        W 6745   3.672   1.531   9.538  0.0684  0.0798 -0.2402
 3002W        W 6746   8.080   4.870  11.240  0.0861 -0.3384 -0.0172
 3003W        W 6747   2.094   4.896  11.200 -0.3136  0.2326 -0.0341
 3004W        W 6748   5.948   3.362   0.314 -0.2534 -0.1804  0.1077
 3005W        W 6749   9.128   8.207   8.592 -0.1375  0.4164 -0.0047
 3006W        W 6750   3.302   6.333   9.347 -0.2002  0.1213  0.0484
 3007W        W 6751   8.082   3.369   1.036  0.0746  0.4861 -0.3115
 3008W        W 6752   7.189   1.702   2.703  0.1406  0.0722  0.0768
 3009W        W 6753   5.300   7.569   8.165  0.3809 -0.0634 -0.0932
 3010W        W 6754   4.054   6.244   8.495 -0.3806  0.1052 -0.0105
 3011W        W 6755   2.186   2.639  11.919  0.2875 -0.0155 -0.1057
 3012W        W 6756   8.476   6.778  12.047 -0.1638 -0.0592 -0.1044
 3013W        W 6757   1.403   8.564  12.001 -0.1837 -0.3347 -0.4692
 3014W        W 6758   6.680   0.469   2.792  0.0592 -0.1303 -0.0910
 3015W        W 6759   7.749   9.779   1.888  0.1321 -0.2870  0.1835
 3016W        W 6760   1.703   3.221   1.583  0.2405  0.1333  0.0388
 3017W        W 6761   8.961   1.258   1.629 -0.1059 -0.1375  0.1266
 3018W        W 6762   3.292   7.203   8.007  0.0856  0.2520 -0.0425
 3019W        W 6763   5.997   0.099   1.796 -0.1345 -0.0958  0.1340
 3020W        W 6764   3.204   7.574  11.499  0.2436  0.0007  0.2283
 3021W        W 6765   2.278   7.418   8.544 -0.0033  0.0989 -0.1083
 3022W        W 6766   5.159   7.905   1.964 -0.1711 -0.1773 -0.1187
 3023W        W 6767   8.230   1.587   3.467 -0.1524 -0.1899  0.0265
 3024W        W 6768   1.991   3.082  10.677 -0.2628 -0.0183  0.3313
 3025W        W 6769   3.147   2.256  10.052 -0.1639  0.1199  0.1288
 3026W        W 6770   6.358   1.034   8.790 -0.4250 -0.2306 -0.1842
 3027W        W 6771   5.690   6.525   2.587  0.0043 -0.1419 -0.0426
 3028W        W 6772   9.663  10.077  12.045  0.1088  0.4319  0.4823
 3029W        W 6773   1.895   6.251   1.592  0.4400  0.0350 -0.2772
 3030W        W 6774   5.823   6.609  10.141 -0.1807 -0.1356 -0.1578
 3031W        W 6775   4.397   6.751  11.961  0.0979  0.0596  0.1703
 3032W        W 6776   6.729   4.114  11.009  0.2755 -0.0044 -0.2041
 3033W        W 6777   2.079   9.132   2.116  0.2500  0.2522  0.0964
 3034W        W 6778   7.421   1.098   9.130 -0.1116  0.1934 -0.0137
 3035W        W 6779   1.178   6.000   0.814  0.1651  0.2831 -0.1225
 3036W        W 6780   4.086   4.149   9.244  0.0215 -0.0340 -0.3412
 3037W        W 6781   0.416   9.700  10.358  0.3404  0.0104 -0.1483
 3038W        W 6782   7.247   4.212   9.701  0.1374 -0.4167 -0.1715
 3039W        W 6783   0.676   0.022   1.824  0.1248 -0.0056  0.0723
 3040W        W 6784   7.455   9.246  10.111  0.1652 -0.0063  0.0814
 3041W        W 6785   6.422   4.344   9.541 -0.2753  0.1027 -0.0702
 3042W        W 6786   9.746   0.542   2.877 -0.2511 -0.0656  0.2446
 3043W        W 6787   0.464   7.942  11.073  0.0553  0.1147  0.2370
 3044W        W 6788   8.522   9.467   1.235  0.1126 -0.2020 -0.1812
 3045W        W 6789   7.416   6.230   0.507  0.2205  0.0283 -0.0020
 3046W        W 6790   4.873   8.738   2.942 -0.0308 -0.1032 -0.1464
 3047W        W 6791   3.237   4.054   7.897 -0.0624 -0.0041  0.2968
 3048W        W 6792   1.680   5.895   9.840 -0.1535  0.2028 -0.3329
 3049W        W 6793   2.967   7.941   0.322 -0.2276  0.2157 -0.0060
 3050W        W 6794   2.916   7.581   2.225 -0.2798 -0.1061 -0.1279
 3051W        W 6795   5.989   4.609   2.829 -0.5401 -0.0710  0.0546
 3052W        W 6796   2.632   6.532   1.693 -0.1211 -0.4055 -0.2932
 3053W        W 6797   7.553   0.584   2.907  0.0453 -0.1223 -0.1702
 3054W        W 6798   8.091   9.149   9.242  0.4066 -0.2362 -0.0974
 3055W        W 6799   4.901   3.946   0.002  0.0937  0.1387  0.1573
 3056W        W 6800   0.914   3.909   8.990  0.0672  0.1295  0.1103
 3057W        W 6801  10.133   1.354   2.584  0.2060  0.0336 -0.2787
 3058W        W 6802   0.211   7.538  10.870  0.0107  0.0630 -0.0407
 3059W        W 6803   2.333   6.544   9.022  0.2020 -0.2310  0.1232
 3060W        W 6804   0.213   1.302  10.111  0.0226 -0.0566  0.0598
 3061W        W 6805   8.201   4.713  10.572  0.0891 -0.2195  0.0135
 3062W        W 6806   6.467   9.976  11.661 -0.1886 -0.0432 -0.0960
 3063W        W 6807   9.369   1.826   8.275 -0.0349 -0.0640 -0.1595
 3064W        W 6808   9.109   2.255   1.593  0.0796  0.0342 -0.2368
 3065W        W 6809   3.349   0.975   1.694  0.3440 -0.0060 -0.2758
 3066W        W 6810   5.828   2.320   3.722 -0.0710  0.1028  0.1418
 3067W        W 6811   9.005   6.167  10.321  0.1443 -0.0609  0.2951
 3068W        W 6812   2.346   1.906  11.199 -0.0129  0.2794 -0.0199
 3069W        W 6813   4.936   9.670  10.378  0.1134  0.0547  0.3712
 3070W        W 6814   1.458   4.275  10.600 -0.5376  0.1896  0.1655
 3071W        W 6815   5.279   6.440   0.779 -0.0239 -0.2997  0.2493
 3072W        W 6816   7.217   6.390   9.098  0.2220 -0.1965  0.1587
 3073W        W 6817   4.942   9.704   8.769 -0.0555 -0.0804 -0.2731
 3074W        W 6818   1.286   8.116   2.855 -0.1546  0.2247  0.0070
 3075W        W 6819   5.482   5.661   9.530 -0.6449  0.0353  0.1713
 3076W        W 6820   2.645   7.530   8.255 -0.0381 -0.0310 -0.4106
 3077W        W 6821   0.703   8.169  10.482 -0.1299 -0.0535 -0.2469
 3078W        W 6822   2.112   2.094   1.384  0.2195  0.2343 -0.3445
 3079W        W 6823   1.694   9.823   9.867  0.0368  0.3592 -0.0046
 3080W        W 6824   6.737   5.138   2.635  0.0612  0.1890  0.0770
 3081W        W 6825   0.603   9.419   1.549  0.0764 -0.1413  0.0747
 3082W        W 6826  10.085   6.740   9.786 -0.1743  0.0357  0.0216
 3083W        W 6827   7.350   2.175   7.432 -0.0067 -0.2853 -0.1831
 3084W        W 6828   9.434   5.418   0.660  0.0762 -0.0033 -0.0367
 3085W        W 6829   6.185   1.597   2.117  0.0134 -0.1331 -0.0402
 3086W        W 6830   9.176   3.540   1.405 -0.2250  0.3963  0.1913
 3087W        W 6831   6.206   2.199   9.716 -0.2307  0.0813  0.1016
 3088W        W 6832   8.654   5.331   1.018 -0.3028  0.2006  0.1110
 3089W        W 6833   2.850   9.706   3.158 -0.1840 -0.2433 -0.0543
 3090W        W 6834   1.955   3.126  11.538  0.1138  0.2651 -0.1278
 3091W        W 6835   8.661   5.686   9.321 -0.0901  0.0668  0.0850
 3092W        W 6836   7.275   5.649   2.537  0.0078 -0.4710  0.0779
 3093W        W 6837   7.277   4.005   7.458  0.0129  0.0968 -0.1643
 3094W        W 6838   4.117   5.646  10.601  0.2274  0.1590 -0.3105
 3095W        W 6839   1.887   6.243   9.492  0.2573  0.0171  0.3285
 3096W        W 6840   9.698   7.542   3.434 -0.3553  0.0293 -0.0219
 3097W        W 6841   2.452   4.593  10.991  0.0734 -0.2091 -0.0602
 3098W        W 6842   2.762   7.278  11.676  0.2073 -0.1284  0.0892
 3099W        W 6843   1.477   8.716  10.757  0.2814 -0.0178 -0.0667
 3100W        W 6844   6.877   5.838   8.575  0.1048 -0.1200  0.1480
 3101W        W 6845   1.702   3.506  11.202 -0.0964 -0.1818  0.3121
 3102W        W 6846   3.113   8.378   8.497  0.1579 -0.3625  0.1542
 3103W        W 6847   2.723   8.284   0.072  0.3338 -0.2373 -0.2008
 3104W        W 6848   5.634   4.146  11.847 -0.1174 -0.3107  0.1153
 3105W        W 6849   2.713   9.479  10.712  0.1980  0.3785  0.1932
 3106W        W 6850   8.033   6.974   7.820 -0.0534  0.2054  0.3524
 3107W        W 6851   2.788   4.286   8.856 -0.2118  0.0309  0.2349
 3108W        W 6852   4.826   6.483  11.818  0.1907  0.0814 -0.1018
 3109W        W 6853   0.264   7.392   2.177  0.2966  0.0461 -0.0235
 3110W        W 6854   6.687   5.068   8.042  0.1216  0.1547 -0.0814
 3111W        W 6855   1.071   3.441  10.676  0.1460  0.0320 -0.0911
 3112W        W 6856   7.670   8.913   2.316  0.3072 -0.1440  0.0825
 3113W        W 6857   0.610   1.398   0.986  0.0428  0.0480 -0.0214
 3114W        W 6858   9.409   4.459   1.620  0.1800 -0.5066 -0.0237
 3115W        W 6859   5.544   9.412   8.171 -0.2831 -0.2246 -0.0561
 3116W        W 6860   5.633   2.841   3.560 -0.1103  0.1127 -0.0117
 3117W        W 6861   9.926   5.547   3.550  0.1293  0.0723 -0.1025
 3118W        W 6862   4.985   4.523   3.530 -0.0055 -0.0350 -0.1708
 3119W        W 6863   8.531   7.065   2.326 -0.1146 -0.2440 -0.1320
 3120W        W 6864   5.373   9.319   2.651 -0.1085  0.1853  0.1452
 3121W        W 6865   6.931   3.339  11.346 -0.2190 -0.0115  0.2362
 3122W        W 6866   6.500   1.963   8.223  0.2266  0.2956 -0.2402
 3123W        W 6867   5.070   7.365   2.252 -0.0391 -0.0141 -0.2029
 3124W        W 6868   6.503   9.687   0.334  0.0024  0.3824  0.0763
 3125W        W 6869   1.357   3.861   0.523  0.0051 -0.2065 -0.1709
 3126W        W 6870   7.037   7.418   7.172 -0.0161  0.0926  0.0102
 3127W        W 6871   9.108   0.479   8.731 -0.1581 -0.0798 -0.0989
 3128W        W 6872   7.642   7.993  11.073  0.0465  0.0460 -0.3230
 3129W        W 6873   6.001   6.956   8.301  0.0044 -0.0273 -0.3716
 3130W        W 6874   0.173   6.116   1.001  0.0296  0.0742  0.2483
 3131W        W 6875   4.923   0.471   0.270 -0.1913  0.2857 -0.2429
 3132W        W 6876   3.920   8.059   0.887  0.0423  0.3227  0.0126
 3133W        W 6877   3.480   0.636   2.796 -0.0760 -0.0919 -0.0458
 3134W        W 6878   0.387   7.791   8.586  0.4412 -0.3521  0.2752
 3135W        W 6879   9.701   9.410  10.104 -0.3081 -0.0837 -0.2088
 3136W        W 6880   7.667   3.641  11.457  0.0347  0.0275  0.1990
 3137W        W 6881   0.813   5.420   8.421 -0.2048  0.0205  0.0564
 3138W        W 6882   8.071   4.706  11.982  0.3076  0.0842 -0.2761
 3139W        W 6883   7.473   5.825   3.394 -0.2262  0.1713  0.3837
 3140W        W 6884   3.425   2.568   9.110  0.1252  0.0455  0.1272
 3141W        W 6885   5.167   5.351   3.116  0.0701  0.2143  0.0442
 3142W        W 6886   3.860   0.966   0.934 -0.0443 -0.3671 -0.1511
 3143W        W 6887   2.985   4.957   1.420 -0.0796 -0.1417  0.2808
 3144W        W 6888   5.572   2.593   0.648  0.1346 -0.2197 -0.0658
 3145W        W 6889   8.350   9.280  11.161  0.1863  0.0712 -0.1148
 3146W        W 6890   2.202   4.966   2.741 -0.0598 -0.0975 -0.0866
 3147W        W 6891   8.415   9.147  10.684 -0.0245 -0.2136 -0.0046
 3148W        W 6892   4.249   4.673   2.843 -0.0658 -0.0354 -0.0445
 3149W        W 6893   0.215   0.773  10.133  0.0070  0.5896  0.0525
 3150W        W 6894   5.409  10.093   1.276  0.2777  0.1398 -0.0460
 3151W        W 6895   9.552   9.426   2.271 -0.5390 -0.1150  0.1625
 3152W        W 6896   7.397   4.621   8.704 -0.3032  0.1366  0.1009
 3153W        W 6897   0.506   0.517  11.408  0.0076  0.0660  0.0566
 3154W        W 6898   9.934   9.143  12.022 -0.1118  0.0650 -0.0197
 3155W        W 6899   9.033   3.375   8.862  0.0886 -0.3151  0.0912
 3156W        W 6900   4.195   4.651   9.821  0.0054  0.0890 -0.1510
 3157W        W 6901   6.092   6.507  11.385  0.0603 -0.1836 -0.2189
 3158W        W 6902   0.514   6.149  11.952  0.4256 -0.0692  0.3119
 3159W        W 6903   2.283   1.479  11.497 -0.0428 -0.1132  0.1491
 3160W        W 6904   8.929   1.170   3.264 -0.0908  0.1662  0.1119
 3161W        W 6905   4.908   6.138   0.056 -0.2023  0.0284 -0.2645
 3162W        W 6906   0.938   9.101   0.300 -0.0409 -0.2682 -0.1211
 3163W        W 6907   3.341  10.197  11.048  0.1446 -0.0042  0.3936
 3164W        W 6908   3.361   1.483   1.790 -0.0863  0.1129 -0.1218
 3165W        W 6909   6.038   3.743   7.677 -0.1426 -0.0685  0.2191
 3166W        W 6910   2.002   1.877   0.488  0.0270  0.3922 -0.0367
 3167W        W 6911   6.505   4.808  12.010 -0.0788  0.1442 -0.0847
 3168W        W 6912   9.161   5.861   7.787 -0.1852 -0.0001  0.0418
 3169W        W 6913   8.451   3.079  11.184  0.3966 -0.0607 -0.3109
 3170W        W 6914   2.323   1.111  11.201  0.0299  0.0093  0.3173
 3171W        W 6915   1.437   0.179   1.615  0.2183 -0.4371  0.0363
 3172W        W 6916   9.615   7.083  10.619  0.0725  0.3842  0.1990
 3173W        W 6917   2.185   8.804   8.867 -0.1164 -0.3149 -0.3603
 3174W        W 6918   6.527   5.275  10.790 -0.2341 -0.2353  0.0226
 3175W        W 6919  10.218   7.820   0.954  0.4856 -0.4913 -0.0141
 3176W        W 6920   2.635   7.937   7.825  0.0733  0.2562  0.4375
 3177W        W 6921   7.525   5.704  12.050 -0.0065 -0.0183 -0.0000
 3178W        W 6922   0.861   8.720   0.024  0.1135  0.3477 -0.1638
 3179W        W 6923   3.651   5.540   1.788  0.0331 -0.1024 -0.2247
 3180W        W 6924   8.761   8.375   1.103  0.1778  0.0624  0.1848
 3181W        W 6925   5.302   6.685   8.555  0.1163 -0.0783  0.2069
 3182W        W 6926   3.269   9.028   2.404 -0.0455 -0.0270 -0.3292
 3183W        W 6927   6.304   9.519   3.577  0.1874 -0.1278 -0.0401
 3184W        W 6928   7.107   8.082   8.611  0.0852 -0.4560  0.1051
 3185W        W 6929   5.757   4.687  10.165  0.2111  0.1861 -0.0209
 3186W        W 6930   6.975   3.058   2.511 -0.1021  0.1158  0.1524
 3187W        W 6931   9.984  10.206   8.747 -0.1805 -0.0268 -0.1797
 3188W        W 6932   2.639   4.110   1.300  0.3123  0.4519  0.2375
 3189W        W 6933   3.101   1.724   8.256 -0.1449  0.0557 -0.2154
 3190W        W 6934   9.004   7.188  11.888  0.1302  0.0214 -0.0696
 3191W        W 6935   9.376   0.520   0.701 -0.2155 -0.2024  0.1630
 3192W        W 6936   7.917   8.847   1.254 -0.1302  0.0042  0.0771
 3193W        W 6937   2.818   6.324   2.195 -0.0708  0.0951  0.3189
 3194W        W 6938   3.356   9.527   2.237  0.0150  0.0167  0.3995
 3195W        W 6939   2.886   2.848  12.094 -0.0526  0.0840 -0.0621
 3196W        W 6940   9.039   4.686   0.078 -0.2753  0.0453  0.1257
 3197W        W 6941   1.819   7.569   3.111 -0.0262 -0.2048 -0.4833
 3198W        W 6942   7.081   1.029   0.440 -0.0649  0.0218 -0.2013
 3199W        W 6943   7.065   6.125  11.321  0.1740 -0.0617  0.1151
 3200W        W 6944   2.493   2.035   0.082  0.5899  0.0276 -0.1635
 3201W        W 6945   9.080   9.738  10.483  0.2607  0.4121 -0.4629
 3202W        W 6946   6.040   0.762   7.619 -0.1756  0.1163 -0.1667
 3203W        W 6947   7.920   2.901   9.464 -0.3030  0.1568 -0.3378
 3204W        W 6948   7.666   3.939   7.059  0.0400 -0.2158 -0.2234
 3205W        W 6949   4.278   0.943  11.022  0.0904  0.1334 -0.1262
 3206W        W 6950   5.161   2.351   1.716  0.1047  0.2452 -0.0834
 3207W        W 6951   6.000   9.655   1.047  0.2778 -0.0799 -0.1896
 3208W        W 6952   6.414   9.045   7.809 -0.1185 -0.0552 -0.0146
 3209W        W 6953   1.546   3.658   0.120  0.3415 -0.0797  0.1557
 3210W        W 6954   8.017   8.158   1.703  0.0194  0.1656 -0.0467
 3211W        W 6955   8.158   9.778   7.858  0.2133  0.1385  0.0771
 3212W        W 6956   8.795   8.998   2.882 -0.2127  0.2825  0.4161
 3213W        W 6957   1.588   6.603   3.323 -0.2225  0.0571 -0.0793
 3214W        W 6958   9.952   3.719   8.434  0.0930 -0.0655 -0.2244
 3215W        W 6959   3.258   4.080   8.771  0.2262  0.2236 -0.2226
 3216W        W 6960   4.391   6.922   1.817  0.1395  0.1702  0.1571
 3217W        W 6961   8.214   7.659   1.681 -0.1658  0.0255  0.0166
 3218W        W 6962   9.002   9.882   7.684 -0.1628 -0.0248 -0.0470
 3219W        W 6963   4.164   5.907  11.593  0.3184 -0.0912 -0.0154
 3220W        W 6964   5.247   9.978   9.536  0.1267 -0.0904 -0.2116
 3221W        W 6965   1.146   8.927  11.707  0.0638 -0.1325 -0.4118
 3222W        W 6966   4.629   3.147   9.054  0.1775 -0.3301  0.2345
 3223W        W 6967   2.114   9.634   9.727  0.2920 -0.1593 -0.0181
 3224W        W 6968   7.048   9.106   0.467  0.2023  0.0802  0.1182
 3225W        W 6969   7.871   4.747   7.364 -0.2207 -0.1590 -0.2408
 3226W        W 6970  10.199   0.383   2.667 -0.0523  0.0453  0.3641
 3227W        W 6971   5.001   6.477   1.761  0.2519 -0.0815  0.1883
 3228W        W 6972   8.874   8.579  10.729  0.2556 -0.2226 -0.1271
 3229W        W 6973   7.339   8.639   9.268 -0.0075  0.0971 -0.1505
 3230W        W 6974   5.570   4.739  11.338 -0.0343 -0.0213 -0.1109
 3231W        W 6975   2.128   0.794  10.354 -0.0819  0.0182 -0.1081
 3232W        W 6976   6.784   5.061   2.161  0.0746  0.0798  0.2372
 3233W        W 6977   7.915   1.050   4.102  0.1836  0.0841 -0.2689
 3234W        W 6978   5.341   9.636   2.016  0.0592 -0.1576  0.0750
 3235W        W 6979   3.010   8.384   9.035  0.2494 -0.0425  0.2158
 3236W        W 6980   2.461   5.634   3.269 -0.0376 -0.2368 -0.0083
 3237W        W 6981   9.309   0.380   7.392 -0.4323  0.1156 -0.0531
 3238W        W 6982   6.886   8.645  10.171  0.2861 -0.1589 -0.1750
 3239W        W 6983   0.456   5.389   8.798 -0.0425  0.1652 -0.2910
 3240W        W 6984   1.602   7.868  10.887 -0.0206 -0.2916  0.1435
 3241W        W 6985   6.931   6.425  10.935 -0.2296  0.0293 -0.3922
 3242W        W 6986   8.744   8.528   8.247  0.2049  0.2551 -0.1785
 3243W        W 6987   4.192   8.503   0.971 -0.1849  0.0679  0.2342
 3244W        W 6988   0.541   6.006  11.020  0.0211  0.1325 -0.2907
 3245W        W 6989   0.326   3.451   2.005 -0.0954  0.0644 -0.0512
 3246W        W 6990   1.381   2.812   7.658  0.0106  0.1649  0.2551
 3247W        W 6991   4.197   5.809   8.779  0.2838 -0.3666  0.2023
 3248W        W 6992   2.526   5.627   7.961 -0.0471 -0.2262  0.1450
 3249W        W 6993   7.860   6.632   3.262  0.1567 -0.0637 -0.2229
 3250W        W 6994   9.262   8.936   7.831 -0.3810  0.3677  0.1638
 3251W        W 6995   3.584   4.159   3.106 -0.1461 -0.0790 -0.0975
 3252W        W 6996   0.656   5.458  10.773  0.1986 -0.1603  0.0912
 3253W        W 6997   7.431   7.246   8.465  0.1051 -0.0976 -0.0084
 3254W        W 6998   3.946   0.421   0.115 -0.1228 -0.0148  0.0957
 3255W        W 6999   5.003   2.939  10.716 -0.0840 -0.1259  0.1033
 3256W        W 7000   4.155   2.170  11.062  0.0993 -0.2428  0.4180
 3257W        W 7001   5.162   4.660   1.715  0.0315  0.1828  0.0530
 3258W        W 7002   1.069   4.246  10.913  0.2307  0.1411 -0.1246
 3259W        W 7003   7.708   2.119  10.028  0.2956  0.0798 -0.0156
 3260W        W 7004   4.961   6.738   3.069  0.2141  0.1101  0.0338
 3261W        W 7005   2.168   3.782   8.766 -0.0076  0.2144  0.2299
 3262W        W 7006   5.575   3.902  11.351  0.0160 -0.0166 -0.0484
 3263W        W 7007   1.677   9.450  11.284 -0.3173  0.1397 -0.0170
 3264W        W 7008   1.717   6.398  10.007 -0.1442 -0.3997 -0.0910
 3265W        W 7009   2.665   8.629  10.058 -0.1806 -0.0094 -0.3375
 3266W        W 7010   2.676   5.750   4.039  0.1220  0.0530  0.0546
 3267W        W 7011   9.816   7.953  10.485  0.1253  0.0531  0.1555
 3268W        W 7012   4.411   8.004   1.025 -0.1298 -0.2047 -0.1686
 3269W        W 7013   3.433   0.488   9.548 -0.2642 -0.1610 -0.0326
 3270W        W 7014   7.998   2.463   9.214 -0.2703 -0.1466 -0.0684
 3271W        W 7015   5.298   7.690   0.400  0.0690  0.2659 -0.0336
 3272W        W 7016   8.535   6.715   8.624 -0.0194 -0.0235 -0.1468
 3273W        W 7017   7.192   5.448   8.775 -0.0969  0.1454 -0.1661
 3274W        W 7018   6.735   4.517   1.532  0.0516  0.0136  0.1153
 3275W        W 7019   2.032   0.716  10.813  0.1436 -0.0971  0.0619
 3276W        W 7020   5.023   8.664   1.209  0.1390 -0.1676 -0.2623
 3277W        W 7021   2.007   6.177   7.191 -0.3520  0.0215  0.0515
 3278W        W 7022   3.370   8.236   0.192  0.0826 -0.0031  0.0004
 3279W        W 7023   3.193   2.739   3.210  0.1074 -0.1892 -0.3090
 3280W        W 7024   3.504   0.495   1.842  0.0374  0.1153 -0.3478
 3281W        W 7025   3.347   3.974   9.911 -0.0405 -0.0993 -0.1060
 3282W        W 7026   8.923   8.190  11.956 -0.1517 -0.0511  0.2749
 3283W        W 7027   4.781   1.006  11.152  0.0291  0.0522  0.2375
 3284W        W 7028   4.687   1.931   1.451 -0.2801  0.0132  0.0802
 3285W        W 7029   4.423   5.316   8.029 -0.2930 -0.0704  0.0653
 3286W        W 7030   0.604   2.136   2.416 -0.1673  0.0688  0.1966
 3287W        W 7031   8.377   2.179   2.956 -0.2883 -0.0706  0.0651
 3288W        W 7032   8.417   5.866   3.062 -0.2393  0.0084  0.1214
 3289W        W 7033   7.027   3.025   7.045 -0.3994  0.2259  0.3459
 3290W        W 7034   8.855   5.690   1.997 -0.1380 -0.1849  0.0364
 3291W        W 7035   6.866   8.873  12.023  0.1503 -0.2675 -0.2419
 3292W        W 7036   2.037   0.201   2.958  0.0965 -0.3596 -0.2105
 3293W        W 7037   9.983   2.658   9.796  0.0935  0.0506 -0.0744
 3294W        W 7038   5.266   6.506   3.338  0.1670 -0.2092 -0.0333
 3295W        W 7039   0.964   2.940  10.815  0.0681 -0.1358 -0.1878
 3296W        W 7040   5.373   2.528   1.253  0.0850  0.2573  0.0715
 3297W        W 7041   9.984   1.204  10.745  0.2307 -0.0913 -0.0967
 3298W        W 7042   7.602   7.392  11.886 -0.0537  0.2973  0.1315
 3299W        W 7043   7.641   9.832   2.380 -0.1354 -0.2322 -0.2109
 3300W        W 7044   8.171   4.657   0.725 -0.2811  0.1382  0.2945
 3301W        W 7045   0.530   8.386   8.059  0.1365 -0.1403  0.1427
 3302W        W 7046   7.703   8.601   7.945  0.1022 -0.1074 -0.1480
 3303W        W 7047   3.035   2.479  11.188 -0.0767 -0.3131 -0.2756
 3304W        W 7048   4.456  10.059   8.889 -0.0449  0.0380 -0.0803
 3305W        W 7049   9.823   1.579   1.735  0.1178  0.0534  0.0519
 3306W        W 7050   3.292   2.054   0.191  0.1024  0.1465  0.0984
 3307W        W 7051   2.034   7.200   1.679  0.0379  0.1229 -0.0109
 3308W        W 7052   1.067   0.782  11.414  0.3501  0.4288  0.2665
 3309W        W 7053   9.382   8.467  10.058  0.0095  0.0139  0.1313
 3310W        W 7054   4.467   7.172   3.411 -0.1203 -0.1789 -0.1132
 3311W        W 7055   7.141   3.578   7.710 -0.0474 -0.1278 -0.1545
 3312W        W 7056   2.509   2.332   0.578 -0.0386 -0.0638 -0.2610
 3313W        W 7057   6.721   0.992   2.876  0.1048 -0.1461  0.1179
 3314W        W 7058   7.213   5.014  10.920 -0.3165  0.1138  0.2639
 3315W        W 7059   8.723   0.695   9.956  0.2054  0.0664 -0.1363
 3316W        W 7060   7.084   7.368  11.882 -0.4381 -0.0329 -0.0753
 3317W        W 7061   6.633   7.757  10.854 -0.0796  0.0923  0.0588
 3318W        W 7062   7.608   5.324   3.350 -0.4111 -0.1706  0.2512
 3319W        W 7063   1.963   2.196  11.099  0.0236 -0.1337  0.1873
 3320W        W 7064   1.660   5.329   7.115  0.1169  0.2905  0.1445
 3321W        W 7065   4.592   8.330   1.408 -0.1639 -0.0879 -0.0326
 3322W        W 7066   7.179   6.913   9.759  0.2296  0.5981 -0.1777
 3323W        W 7067   1.029   7.447   2.620 -0.1397 -0.1505 -0.1471
 3324W        W 7068   4.251   3.886   2.314 -0.1527 -0.0928  0.1351
 3325W        W 7069   3.770   4.428  10.684 -0.0795  0.0937 -0.0944
 3326W        W 7070   0.632   6.544  11.494 -0.0066  0.2061 -0.0830
 3327W        W 7071   2.440   4.340  11.433  0.3026 -0.3391  0.0348
 3328W        W 7072   7.527   1.160  10.896  0.1802  0.1273  0.0496
 3329W        W 7073   2.842  10.145  10.728 -0.0805  0.1580  0.1537
 3330W        W 7074   3.358   6.838   8.807 -0.0986  0.2529 -0.0301
 3331W        W 7075   3.042   5.024   2.946 -0.0763 -0.0924  0.2497
 3332W        W 7076   8.052   6.515   0.058  0.1568 -0.1164  0.3476
 3333W        W 7077   7.288   4.302   8.283  0.0374  0.2242 -0.1893
 3334W        W 7078   8.814   9.353   3.397 -0.2950 -0.1242 -0.0019
 3335W        W 7079   6.996   5.997   8.095  0.1294 -0.1239  0.1884
 3336W        W 7080   7.917   0.724   2.147  0.1743 -0.2054 -0.0628
 3337W        W 7081   3.346   8.164   2.088 -0.0074  0.0868 -0.1841
 3338W        W 7082   0.601   8.761  11.661 -0.1175 -0.2093  0.0820
 3339W        W 7083   6.586   5.840  10.785 -0.0197 -0.0589 -0.2961
 3340W        W 7084   0.565   6.636  10.979 -0.2081 -0.1677  0.0308
 3341W        W 7085   7.730   3.764   8.966 -0.5413 -0.5727 -0.0599
 3342W        W 7086   9.320   4.393   0.904  0.1488  0.0612  0.0764
 3343W        W 7087   7.032   9.717   4.120 -0.1639  0.1218 -0.1843
 3344W        W 7088   1.595   5.065   1.252  0.0993  0.4502  0.1240
 3345W        W 7089   4.035   1.044   9.677 -0.1919  0.1370  0.2278
 3346W        W 7090   8.436   8.070   8.264 -0.0086  0.1875  0.3549
 3347W        W 7091   9.425   9.769   0.257  0.5117 -0.2936 -0.1506
 3348W        W 7092   2.072   9.491   0.600  0.4555  0.0828  0.0738
 3349W        W 7093   8.100   1.917   0.563  0.3233 -0.1322  0.3482
 3350W        W 7094   9.806   1.416   7.676 -0.1123  0.3445 -0.2646
 3351W        W 7095   0.646  10.094   7.758 -0.2902 -0.0628  0.0040
 3352W        W 7096   9.987   1.265   2.084  0.0716  0.2138 -0.0009
 3353W        W 7097   9.064   5.434  11.057 -0.1781  0.2042 -0.0088
 3354W        W 7098   5.816   8.643   3.091 -0.0424  0.1750  0.0775
 3355W        W 7099   6.475   3.875   9.305 -0.1784  0.0858 -0.0305
 3356W        W 7100   2.708   4.363  10.643  0.0130  0.1459 -0.0371
 3357W        W 7101   2.751   8.616   8.259  0.1794  0.0345  0.2642
 3358W        W 7102   8.480   7.264  11.767 -0.3982  0.1219  0.2040
 3359W        W 7103   5.076   1.187   8.886 -0.1467 -0.0255 -0.1345
 3360W        W 7104   7.986   9.813  10.095 -0.2732 -0.0615  0.1004
 3361W        W 7105   1.103   1.666   8.287  0.4359 -0.1375 -0.1771
 3362W        W 7106   0.539   3.995   3.383 -0.1784  0.0529  0.4168
 3363W        W 7107   8.393   7.124   1.770 -0.2685 -0.0599  0.1222
 3364W        W 7108   0.337   0.540   2.343 -0.0238 -0.0487  0.4649
 3365W        W 7109  10.061   8.885   0.868 -0.0475  0.0196  0.0331
 3366W        W 7110   3.914   0.923   9.156  0.2036 -0.0315 -0.0479
 3367W        W 7111   4.276   0.901   3.985 -0.1045 -0.0140 -0.2125
 3368W        W 7112   7.452   9.082   3.203  0.0153  0.2130 -0.3585
 3369W        W 7113   3.486   7.121   9.884 -0.0567  0.1666 -0.2342
 3370W        W 7114   9.290   6.981  11.092 -0.0924 -0.1292  0.0642
 3371W        W 7115   6.537   8.512   3.296 -0.0570  0.2133  0.0196
 3372W        W 7116   4.205   0.206  10.219 -0.3471  0.0155 -0.0049
 3373W        W 7117   6.124   6.215   8.500 -0.3227  0.1618 -0.4132
 3374W        W 7118   9.376   5.489   9.883 -0.1196 -0.1537  0.0492
 3375W        W 7119   6.068   3.491   2.367  0.0850 -0.1088 -0.1239
 3376W        W 7120   5.136   4.976   0.794 -0.0897  0.1963 -0.4630
 3377W        W 7121   6.539   3.033   1.543 -0.2587 -0.2923 -0.4736
 3378W        W 7122   9.517   1.812   9.056 -0.1933  0.0276 -0.1679
 3379W        W 7123   4.313   5.369   3.584  0.0449 -0.0330 -0.1225
 3380W        W 7124   3.336   2.413   0.625 -0.0936  0.0821 -0.0918
 3381W        W 7125   1.086   1.082  11.970  0.0629 -0.1123 -0.1049
 3382W        W 7126   5.735   3.393  11.803  0.1691 -0.2399  0.1714
 3383W        W 7127   7.871   1.759   1.421  0.1382  0.2348 -0.0081
 3384W        W 7128   9.992   3.294   8.708 -0.3230  0.2152  0.0419
 3385W        W 7129   2.223   0.441   3.394 -0.2147 -0.0718  0.0774
 3386W        W 7130   2.864   2.480   2.078 -0.0344  0.2801  0.1022
 3387W        W 7131   4.362   8.025   9.953  0.2099  0.1270 -0.0842
 3388W        W 7132   6.125   4.314   7.987  0.0761  0.1870  0.1002
 3389W        W 7133   9.601   8.836   3.559 -0.1727  0.2910 -0.0743
 3390W        W 7134   9.278   5.240  10.598  0.0717 -0.1820 -0.1736
 3391W        W 7135   9.193   5.776   9.508 -0.0167 -0.1276  0.2178
 3392W        W 7136   2.505   8.921   9.255 -0.0278 -0.1178  0.4834
 3393W        W 7137   5.031   5.234   2.487  0.0716  0.0788 -0.1130
 3394W        W 7138   4.681   3.314  10.023 -0.0529  0.0522  0.0380
 3395W        W 7139   9.179   9.784  11.440 -0.0364 -0.1699 -0.0320
 3396W        W 7140   2.831   3.657   7.792 -0.3986 -0.0533  0.0539
 3397W        W 7141   2.244   5.732   8.523  0.0531 -0.0811  0.1980
 3398W        W 7142   2.843   3.879   2.429  0.0375  0.1103  0.0351
 3399W        W 7143   3.237   6.276   9.875  0.1673  0.3263 -0.1123
 3400W        W 7144   7.725   3.186   0.666 -0.0964 -0.2278  0.2785
 3401W        W 7145   6.370   1.424   3.735  0.1231 -0.0265  0.1675
 3402W        W 7146   0.292   3.057   3.186  0.0701 -0.3047 -0.2299
 3403W        W 7147   1.276   6.482  10.305  0.1521  0.0283  0.1101
 3404W        W 7148   8.902   9.423   2.707 -0.3348 -0.4887  0.2037
 3405W        W 7149   6.893  10.217   4.059  0.5693  0.2128 -0.1747
 3406W        W 7150  10.122   5.150   2.690  0.1024 -0.2914 -0.1618
 3407W        W 7151   3.968   5.271   9.160 -0.1110 -0.0418  0.1867
 3408W        W 7152   8.529   7.240   9.356 -0.3010 -0.2856  0.0769
 3409W        W 7153   9.915   8.189   1.086  0.0109  0.0987 -0.1546
 3410W        W 7154   4.080   6.747   8.266 -0.1110  0.1916  0.2376
 3411W        W 7155   5.815   5.987   9.749  0.1063 -0.1315  0.0120
 3412W        W 7156   8.996   6.512   1.133 -0.3819  0.0518 -0.0881
 3413W        W 7157   0.420   1.446  11.418 -0.0234 -0.2957  0.1191
 3414W        W 7158   7.532   0.119   8.589  0.0423 -0.1437  0.2774
 3415W        W 7159   6.275   6.921   1.809 -0.1085 -0.3555  0.2061
 3416W        W 7160   4.208   3.009  10.035 -0.1801  0.2754  0.0518
 3417W        W 7161   6.521   5.891   1.949  0.0562  0.1214 -0.1363
 3418W        W 7162   2.846   6.510   3.333 -0.4747 -0.2308 -0.1308
 3419W        W 7163   4.334   2.170   9.133 -0.0837 -0.0850 -0.0920
 3420W        W 7164   2.405   2.432  11.063 -0.1099 -0.1883  0.3579
 3421W        W 7165   5.807   2.993   1.352  0.0320 -0.0743 -0.0310
 3422W        W 7166   6.364   1.594   8.869 -0.3783 -0.1002 -0.0248
 3423W        W 7167   8.875   0.318  10.834 -0.4504  0.1823 -0.0971
 3424W        W 7168   1.531   1.709   0.645 -0.0325  0.0383 -0.2942
 3425W        W 7169   0.972   5.777   9.039  0.1574  0.1545  0.3337
 3426W        W 7170   5.059   1.131   3.386  0.1790 -0.1928 -0.0321
 3427W        W 7171   6.279   6.424  11.820 -0.0109  0.4848 -0.0923
 3428W        W 7172   9.287   5.722  11.494 -0.0483  0.3864 -0.0608
 3429W        W 7173   5.655   1.247   2.708  0.0960  0.2255  0.1010
 3430W        W 7174   2.452   0.625   1.794 -0.1329 -0.0602  0.1250
 3431W        W 7175   0.877   1.490   9.342 -0.2347  0.1086  0.1689
 3432W        W 7176   9.542   2.515   9.905 -0.0846  0.1365 -0.0321
 3433W        W 7177   5.581   6.770   8.004  0.2556  0.0829 -0.1337
 3434W        W 7178   2.206   4.354  10.595 -0.1099  0.3703  0.0614
 3435W        W 7179   6.382   1.884  11.049  0.3463 -0.3531  0.2140
 3436W        W 7180   9.514   4.905   9.672  0.2971  0.1712  0.2157
 3437W        W 7181   1.552   2.970   2.067  0.0465 -0.2340 -0.0861
 3438W        W 7182   8.072   3.180  11.505  0.1133 -0.0945 -0.1742
 3439W        W 7183   7.162   9.910   1.721  0.0699  0.2606  0.0328
 3440W        W 7184   7.574   8.903  12.017 -0.1598  0.3465  0.1817
 3441W        W 7185   6.949   1.287   3.322 -0.0483 -0.0142  0.0751
 3442W        W 7186   7.829   7.747  10.279 -0.2933 -0.0490  0.0527
 3443W        W 7187   5.443   1.675  10.498 -0.0673  0.0526 -0.2424
 3444W        W 7188   9.848   5.975  10.259 -0.3201  0.0048  0.2149
 3445W        W 7189   1.450   3.252   9.666 -0.1015  0.2071  0.0413
 3446W        W 7190   1.984   2.159   2.331  0.1564 -0.2395 -0.1744
 3447W        W 7191   6.016   5.128  10.253  0.0436 -0.0095  0.0486
 3448W        W 7192   9.295   0.886   0.201  0.2523  0.2000 -0.0797
 3449W        W 7193   3.401   2.857   2.769 -0.0683  0.1970  0.1710
 3450W        W 7194   0.268   4.937   2.953 -0.3118  0.1385 -0.4250
 3451W        W 7195   3.636  10.082   4.425  0.2348 -0.1379  0.1629
 3452W        W 7196   2.585   3.567  11.039 -0.2554 -0.0646  0.0241
 3453W        W 7197   7.493   0.781  10.591  0.1902 -0.0779  0.1790
 3454W        W 7198   9.471   1.761   2.112 -0.1732 -0.3351 -0.0092
 3455W        W 7199   0.467   6.441   3.248  0.0027  0.0273 -0.2229
 3456W        W 7200   6.422   6.655   9.653 -0.1627 -0.1321 -0.1230
 3457W        W 7201   7.697   1.747  10.964 -0.0712  0.1193  0.1747
 3458W        W 7202   7.786   4.137   2.033  0.0280  0.0559  0.0053
 3459W        W 7203   3.173   4.652   2.655  0.2043 -0.0453 -0.0880
 3460W        W 7204   1.281   9.383   0.488 -0.0019  0.0045 -0.1909
 3461W        W 7205   8.886   0.008  11.592  0.2642 -0.2536 -0.0836
 3462W        W 7206   0.690   8.673   3.261  0.2989 -0.2188  0.0872
 3463W        W 7207   1.328   8.059   7.998 -0.0359 -0.0813  0.1153
 3464W        W 7208   6.968   8.355   9.531  0.0193 -0.0075 -0.1899
 3465W        W 7209   2.549   9.294   0.689 -0.0450 -0.0378 -0.1722
 3466W        W 7210   5.271   6.487  12.095  0.0302 -0.2386  0.0074
 3467W        W 7211   7.384   7.816   2.839 -0.1770 -0.2090  0.1072
 3468W        W 7212   3.045   6.964  10.846 -0.0391 -0.1698  0.2001
 3469W        W 7213   3.974   6.448  11.100  0.4044  0.1571  0.1661
 3470W        W 7214   4.125   7.812   8.107  0.0943  0.1167  0.2137
 3471W        W 7215   8.621  10.054   9.388 -0.3938  0.1047  0.0775
 3472W        W 7216   8.376   7.947   2.013  0.1343 -0.0460  0.1775
 3473W        W 7217   9.579   7.217   7.862  0.1855  0.1867 -0.0179
 3474W        W 7218   2.091   4.995   3.216 -0.1025 -0.1194 -0.0888
 3475W        W 7219   6.055   0.066   8.974 -0.1038  0.2164 -0.0149
 3476W        W 7220   7.221   8.410  11.938 -0.2907  0.4493 -0.0032
 3477W        W 7221   7.874   0.044   2.084 -0.3654  0.5561 -0.1490
 3478W        W 7222   8.622   2.533   9.851 -0.4090  0.0016 -0.0101
 3479W        W 7223   7.356   7.054  10.736  0.2135 -0.0404  0.0670
 3480W        W 7224   2.827   3.938   9.808  0.1011  0.3297  0.1152
 3481W        W 7225   0.573   8.238   9.045 -0.1599 -0.1555  0.2638
 3482W        W 7226   8.151   6.664   2.558 -0.0706 -0.2691 -0.2790
 3483W        W 7227   5.310   3.916  10.753 -0.3238 -0.0116 -0.1951
 3484W        W 7228   6.186   1.277  11.682 -0.0318  0.4755 -0.2173
 3485W        W 7229   8.054   4.802   9.583  0.1203 -0.0059 -0.0028
 3486W        W 7230   8.208   1.525   8.705 -0.2678 -0.0340  0.0537
 3487W        W 7231   6.457   2.237   3.681 -0.1996  0.1531 -0.2100
 3488W        W 7232   3.002   9.671  11.047  0.0456 -0.2330 -0.0400
 3489W        W 7233   0.194   3.698   0.333 -0.1549  0.0698  0.1147
 3490W        W 7234   1.533   9.250   2.672  0.0158 -0.0352  0.1565
 3491W        W 7235   2.458   0.014   9.048 -0.2662 -0.0557  0.0163
 3492W        W 7236   4.513   5.324   3.080  0.1815  0.2845 -0.1896
 3493W        W 7237   2.592   6.188   8.070 -0.3330  0.2785  0.0985
 3494W        W 7238  10.029   6.338   9.274  0.1699  0.1635 -0.0125
 3495W        W 7239   3.128   5.626   1.571 -0.0398 -0.0937 -0.1393
 3496W        W 7240   1.702   7.883   1.369  0.1060 -0.1794  0.0362
 3497W        W 7241   8.673   7.509   3.321 -0.5417 -0.1198  0.3175
 3498W        W 7242   6.327   4.238   0.762 -0.2552 -0.2404  0.2753
 3499W        W 7243   3.913   2.112   2.321 -0.1498 -0.3458 -0.1469
 3500W        W 7244   5.099   9.393   1.717  0.0265  0.1723 -0.0819
 3501W        W 7245   5.460   0.106   1.724  0.1629  0.1257  0.1040
 3502W        W 7246  10.007   6.959   7.990  0.0423 -0.1190 -0.2063
 3503W        W 7247   2.449   4.386   9.764  0.1360  0.0170  0.0689
 3504W        W 7248   1.717   3.373   8.862 -0.0465 -0.0990  0.4610
 3505W        W 7249   0.199   3.602  11.716  0.0018  0.1254 -0.0145
 3506W        W 7250   6.030   4.042   9.729  0.2027 -0.1574  0.3729
 3507W        W 7251   7.526   9.046   7.975 -0.2372 -0.0334 -0.2489
 3508W        W 7252   5.455   3.220   0.555 -0.3594 -0.1502 -0.0636
 3509W        W 7253   7.110   0.762   3.205  0.1978  0.1792 -0.0467
 3510W        W 7254   3.806   6.604   1.077 -0.0582  0.1562  0.0340
 3511W        W 7255  10.121   0.403   2.166 -0.1023  0.0472  0.1954
 3512W        W 7256   5.282   4.513  10.062  0.1543  0.5194  0.1921
 3513W        W 7257   5.492   3.530   1.891  0.0940 -0.1591  0.2487
 3514W        W 7258   7.866   5.277   1.502  0.3935  0.1064 -0.0987
 3515W        W 7259   7.173   8.282  10.004  0.5156 -0.0368  0.0911
 3516W        W 7260   5.014   4.106   2.427  0.2667  0.1018 -0.1108
 3517W        W 7261   5.668   2.369   8.013  0.4590 -0.3208  0.1581
 3518W        W 7262   7.841   6.710   0.476  0.0763  0.0649 -0.3801
 3519W        W 7263   2.172   9.155   3.424 -0.0576  0.0907 -0.1186
 3520W        W 7264   0.949   7.990  11.380 -0.2891 -0.2757 -0.1592
 3521W        W 7265   5.667   4.596   9.192 -0.1990  0.1207 -0.0277
 3522W        W 7266   9.948   2.607   1.543  0.3849 -0.1507  0.0911
 3523W        W 7267   9.296   4.277   3.168 -0.1628  0.2624  0.0534
 3524W        W 7268   0.554   3.590   9.045  0.0226 -0.3794 -0.0224
 3525W        W 7269   9.157   1.950   2.994  0.1480 -0.1054  0.1193
 3526W        W 7270   3.306   6.254   8.299  0.0644  0.5703 -0.2031
 3527W        W 7271   7.255   4.577   9.318  0.1466  0.3032  0.0413
 3528W        W 7272   5.994  10.174  10.908 -0.0704 -0.0431 -0.0190
 3529W        W 7273   6.204   3.868   8.159  0.0396 -0.0392  0.1914
 3530W        W 7274   1.551   5.547   1.951  0.2798 -0.0378 -0.6203
 3531W        W 7275   9.943   8.479   0.599 -0.1716 -0.3008 -0.2428
 3532W        W 7276   6.793   8.448  11.649 -0.1076  0.2137  0.3560
 3533W        W 7277   0.835   5.692  11.858  0.2470 -0.0273 -0.1246
 3534W        W 7278   0.904   3.798  11.059 -0.2444  0.0185  0.1378
 3535W        W 7279   9.578   3.010   9.690  0.1265 -0.2149 -0.0479
 3536W        W 7280   3.337   1.694   3.090 -0.1959  0.3791 -0.1392
 3537W        W 7281   6.740   7.613   2.963  0.0733  0.0494  0.3646
 3538W        W 7282   7.145   7.894  11.789  0.0421 -0.0504  0.0566
 3539W        W 7283   2.472   0.064   0.049 -0.1020  0.2183 -0.0292
 3540W        W 7284   9.582   2.113   0.856 -0.2581  0.1040  0.2019
 3541W        W 7285   1.471   1.436   3.630 -0.1356  0.2463 -0.1547
 3542W        W 7286   1.357   2.699  11.475 -0.0897  0.1226 -0.0435
 3543W        W 7287   8.840   8.101   7.397 -0.0480  0.0164 -0.0214
 3544W        W 7288   2.376   9.731   0.918  0.3298 -0.0043 -0.2223
 3545W        W 7289   4.185   2.435   8.532 -0.2110 -0.1428  0.1029
 3546W        W 7290   6.780   7.020   0.662  0.0624  0.1281 -0.0982
 3547W        W 7291   1.545   5.899   1.542 -0.2191 -0.3427 -0.0934
 3548W        W 7292   0.928   1.378   8.845  0.1078  0.1156  0.0640
 3549W        W 7293   0.520   8.372  12.062  0.0580  0.0515  0.1606
 3550W        W 7294   7.282   1.794   0.894  0.0999  0.0362 -0.0807
 3551W        W 7295   0.489   2.865   9.491 -0.0566  0.2083 -0.2939
 3552W        W 7296   2.604   0.211   3.691  0.2166  0.1931 -0.2750
 3553W        W 7297   8.217   2.600   3.361  0.0472  0.5180  0.0914
 3554W        W 7298   5.830   8.948  10.779  0.0337 -0.0156  0.2373
 3555W        W 7299   8.976   8.462   2.418  0.0194  0.1135 -0.0488
 3556W        W 7300   7.979   2.244   1.202  0.2743 -0.0236 -0.0350
 3557W        W 7301   6.566   1.490   1.754  0.2004 -0.2960 -0.2930
 3558W        W 7302   3.023   9.441   0.775  0.0053  0.0171  0.3978
 3559W        W 7303   1.589   1.683   1.844 -0.1613  0.0405  0.0207
 3560W        W 7304   2.692   4.317   2.728 -0.0029 -0.0955  0.4054
 3561W        W 7305   7.016   6.507   2.401  0.2902  0.0355 -0.1061
 3562W        W 7306   0.185   3.623   2.528 -0.1423  0.0931 -0.1150
 3563W        W 7307   6.185   8.964   1.766 -0.0947 -0.1108 -0.0902
 3564W        W 7308   5.707  10.109   8.628 -0.1023  0.0558 -0.1348
 3565W        W 7309   9.264   9.409   0.550  0.0830 -0.2328  0.1646
 3566W        W 7310   7.181   3.778   1.355 -0.0414  0.0158  0.0246
 3567W        W 7311   5.355   8.952   2.938  0.0880 -0.2707 -0.0830
 3568W        W 7312   6.037   8.186   7.385 -0.2630 -0.1262  0.0732
 3569W        W 7313   2.217   8.335  12.067 -0.1432  0.0261  0.0692
 3570W        W 7314   1.262   9.791   3.123  0.1441  0.0726 -0.1423
 3571W        W 7315   7.399   1.439   2.232 -0.1215 -0.1566 -0.0446
 3572W        W 7316   7.770   5.308   0.021 -0.1185  0.3290 -0.1400
 3573W        W 7317   0.619   9.971   3.824  0.3934 -0.0721  0.0279
 3574W        W 7318   4.948   4.013   1.070  0.1331 -0.1352 -0.1357
 3575W        W 7319   7.657   1.785   1.863 -0.0913  0.0486 -0.0605
 3576W        W 7320   8.850   9.063   0.542  0.2586  0.1427 -0.0438
 3577W        W 7321   2.965   2.691   9.219 -0.0774  0.3528  0.1910
 3578W        W 7322   7.796   2.918   3.053 -0.0961  0.0544 -0.2588
 3579W        W 7323   7.412   5.913  11.584 -0.4078 -0.2826 -0.2215
 3580W        W 7324   8.818   5.603   1.504  0.1545 -0.2859  0.0470
 3581W        W 7325   2.437   6.965   8.760  0.0173  0.3769 -0.0584
 3582W        W 7326   8.709   5.893   7.990 -0.0897 -0.0980 -0.2396
 3583W        W 7327   2.604   9.016   3.689  0.1502  0.1535  0.0734
 3584W        W 7328   1.751   5.115   9.875 -0.4963  0.3184 -0.2251
 3585W        W 7329   9.683   7.826   8.585  0.0647  0.2396 -0.1255
 3586W        W 7330   4.682   1.684   8.396  0.1060  0.1976  0.0905
 3587W        W 7331   5.978   4.670   3.322 -0.1724 -0.1564 -0.0769
 3588W        W 7332   7.724   2.419  10.626  0.0146  0.1635 -0.0425
 3589W        W 7333   2.068   5.796   9.522  0.1982 -0.5522  0.0247
 3590W        W 7334   3.248   4.609  11.278  0.0661 -0.0082  0.0411
 3591W        W 7335   2.130   8.217   1.404 -0.1996 -0.1828  0.1436
 3592W        W 7336   4.020   7.662   0.612  0.1241  0.1851 -0.0562
 3593W        W 7337   7.140   5.408   0.165  0.1266  0.0301 -0.1298
 3594W        W 7338   1.638   9.162  11.735  0.3029  0.2522  0.1616
 3595W        W 7339   2.378   2.529   3.325 -0.0740  0.1569  0.2179
 3596W        W 7340   5.789   7.964   0.428  0.0479 -0.2398 -0.1020
 3597W        W 7341   9.330  10.200   9.796 -0.0423  0.0384  0.0077
 3598W        W 7342   7.778   2.246   1.707  0.1091 -0.1189 -0.3512
 3599W        W 7343   3.257   0.401  10.128  0.0041  0.0697 -0.1031
 3600W        W 7344   0.613   4.162   2.038  0.1685  0.0297  0.2350
 3601W        W 7345   5.835   0.076   1.277 -0.2418  0.0593  0.0124
 3602W        W 7346   9.481   5.988   9.947  0.0593  0.3163  0.3525
 3603W        W 7347   8.675   8.515   2.823 -0.0203  0.1287 -0.1333
 3604W        W 7348   0.255   8.400   7.609  0.1095  0.1507  0.2738
 3605W        W 7349   7.635   9.798   2.906  0.0241 -0.0198  0.3395
 3606W        W 7350   7.915   8.112   0.794 -0.1875  0.2424 -0.0389
 3607W        W 7351   5.060   3.607   8.963 -0.2621  0.1728  0.2029
 3608W        W 7352   2.871   7.137   1.624 -0.0590  0.2445 -0.0269
 3609W        W 7353   9.937   2.140   9.698 -0.2483  0.0502 -0.2880
 3610W        W 7354   4.905   8.411   2.574  0.0112  0.2014  0.1279
 3611W        W 7355   4.311   8.120   2.404 -0.1106 -0.1286 -0.1278
 3612W        W 7356   3.398   5.756   3.504  0.0926  0.1275  0.0405
 3613W        W 7357   8.429   8.261  11.612  0.0610 -0.1608  0.3561
 3614W        W 7358   1.511   5.499  11.712  0.3663 -0.0592  0.1419
 3615W        W 7359   0.223   9.959   8.719  0.1960 -0.0037 -0.0166
 3616W        W 7360   3.728   1.735   8.422  0.0570  0.0970 -0.0092
 3617W        W 7361   2.323   0.896  11.697 -0.1749  0.1089  0.3126
 3618W        W 7362   5.994   6.061   0.918 -0.0981  0.1397  0.2445
 3619W        W 7363   8.378   5.890   8.548  0.0012  0.0734  0.0453
 3620W        W 7364   2.894   2.105   2.520  0.2019 -0.1756  0.1106
 3621W        W 7365   8.109   2.162   2.482 -0.2339  0.0554 -0.0483
 3622W        W 7366   3.721   8.378  11.295  0.0340 -0.0311 -0.1130
 3623W        W 7367   6.083   8.178   0.771 -0.3402 -0.0447  0.1937
 3624W        W 7368   2.484   8.986  10.936 -0.3714 -0.0886 -0.1106
 3625W        W 7369   8.671   9.512   8.477  0.0652 -0.1557  0.1195
 3626W        W 7370   4.054   2.033   1.503 -0.1387 -0.2106 -0.2416
 3627W        W 7371   6.247   7.444  10.660 -0.0990 -0.0153 -0.2319
 3628W        W 7372   5.054   3.575   0.279 -0.0961 -0.3373  0.0257
 3629W        W 7373   9.344   6.500  11.999  0.1069 -0.1344  0.0276
 3630W        W 7374   3.482   4.258   1.702  0.0970  0.0537 -0.2359
 3631W        W 7375   5.394   4.501   2.634  0.0415 -0.2256  0.2751
 3632W        W 7376   9.383   5.666   9.019  0.0367  0.0771 -0.4639
 3633W        W 7377   8.302   6.123   1.799 -0.0370 -0.0292 -0.2243
 3634W        W 7378   7.002   1.984   8.173  0.3026 -0.1091 -0.2345
 3635W        W 7379   5.776   7.831   7.854  0.1747  0.0285  0.2543
 3636W        W 7380   8.906   8.504   3.441 -0.1357 -0.2402  0.0385
 3637W        W 7381   0.410   3.186   2.422 -0.2570  0.0009 -0.1522
 3638W        W 7382   0.036   5.730   8.641  0.3314  0.3335 -0.0119
 3639W        W 7383   4.263   1.568  12.078 -0.1955 -0.0177  0.0070
 3640W        W 7384   3.434   0.221   3.942  0.0102 -0.2551  0.2609
 3641W        W 7385   0.290   0.006   2.762 -0.1142  0.1979 -0.0255
 3642W        W 7386   6.909   3.733   8.974  0.1278  0.1332 -0.1362
 3643W        W 7387   7.382   8.496   8.796 -0.0943  0.0084 -0.3186
 3644W        W 7388   1.462   5.172  10.400  0.1125  0.1436 -0.1378
 3645W        W 7389   4.975   4.178   1.525  0.0588  0.0639  0.0835
 3646W        W 7390   7.431   4.600  11.164 -0.0692 -0.2155  0.0911
 3647W        W 7391   5.920   5.040   9.341 -0.0422 -0.1221  0.0616
 3648W        W 7392   6.097   8.800   8.182  0.2945 -0.1498  0.3050
 3649W        W 7393   0.906   4.790   8.608  0.0848 -0.1043  0.1588
 3650W        W 7394   0.830   1.458   1.926  0.0684 -0.1597 -0.0227
 3651W        W 7395   0.413   2.854  10.920 -0.1633  0.0602 -0.0031
 3652W        W 7396   2.458   0.837   0.989  0.0794 -0.0016  0.1182
 3653W        W 7397   9.491   1.343   9.097 -0.2545  0.3793  0.0522
 3654W        W 7398   6.179   1.946   0.278  0.3021  0.0289 -0.1520
 3655W        W 7399   5.211   6.063  11.811 -0.1363 -0.1498 -0.0698
 3656W        W 7400   6.222   9.438   2.491 -0.1066 -0.0384 -0.1896
 3657W        W 7401   6.816   9.442   3.252 -0.0521 -0.1461 -0.1612
 3658W        W 7402   9.683   9.637   9.489  0.1577  0.0899 -0.0265
 3659W        W 7403   3.694   3.461  11.950  0.4433  0.0056 -0.1972
 3660W        W 7404   8.738   4.231   0.148  0.2917  0.2495 -0.0227
 3661W        W 7405   4.502   2.051   4.034 -0.2185 -0.2127  0.0735
 3662W        W 7406   7.254   7.620   8.848  0.0295 -0.2179 -0.0459
 3663W        W 7407   7.102   5.830   1.358  0.0771  0.0066 -0.3017
 3664W        W 7408   7.521   4.442   7.867 -0.0823 -0.0812  0.2594
 3665W        W 7409   3.673   7.071   8.423  0.1855 -0.0804  0.1362
 3666W        W 7410   5.976   9.899   3.188  0.1911  0.2595  0.2282
 3667W        W 7411   1.349   8.787   2.458 -0.0824 -0.0438  0.1728
 3668W        W 7412   8.321   0.941   1.025 -0.0420  0.1156  0.0347
 3669W        W 7413   0.202   8.183  10.341 -0.0399  0.3969 -0.2340
 3670W        W 7414   4.523   7.004   0.883  0.2935 -0.0607  0.4305
 3671W        W 7415   4.229  10.174  10.642 -0.1786  0.1388  0.1402
 3672W        W 7416   5.553   9.285  12.135  0.0033 -0.0340  0.0915
 3673W        W 7417   9.873   6.463   1.022  0.1105  0.2122  0.0986
 3674W        W 7418   4.527   8.206   8.616  0.5556 -0.1891 -0.0909
 3675W        W 7419   7.865   9.847   3.350 -0.2035  0.0147 -0.3164
 3676W        W 7420   9.544   5.497   2.632  0.0045 -0.2292 -0.1580
 3677W        W 7421   7.753   6.173  11.804 -0.1301  0.1652  0.0447
 3678W        W 7422   2.634   9.288  11.738 -0.2248 -0.0671 -0.1079
 3679W        W 7423   2.685   5.329   1.560  0.1869  0.0735 -0.0621
 3680W        W 7424   8.380   5.771   9.792 -0.0451 -0.1721  0.2517
 3681W        W 7425   7.561   2.166   3.377 -0.3353  0.1288  0.0551
 3682W        W 7426   5.828  10.137  10.031  0.0238 -0.1104 -0.2580
 3683W        W 7427   8.066   7.710   8.246 -0.0775  0.2093  0.1142
 3684W        W 7428   9.817   1.011   8.472 -0.0303  0.1608  0.2015
 3685W        W 7429   1.891   4.374   2.116 -0.3525  0.3297 -0.0081
 3686W        W 7430   0.475   1.146   3.982 -0.1950  0.2063 -0.2172
 3687W        W 7431   7.663   1.791  11.500  0.1425  0.0253 -0.1834
 3688W        W 7432   8.728   0.895   2.921 -0.1151  0.0462  0.0299
 3689W        W 7433   0.330   0.670  10.983  0.2784 -0.1182  0.2644
 3690W        W 7434   4.437   7.994   4.115 -0.3675  0.3139 -0.3737
 3691W        W 7435   8.753   7.560  11.035 -0.2618 -0.3483  0.0372
 3692W        W 7436   9.838   1.059  11.282  0.0809  0.0650  0.1537
 3693W        W 7437   1.698   2.259  11.862 -0.1878 -0.0946  0.1174
 3694W        W 7438   4.517   2.778  11.954  0.2256 -0.2047  0.3860
 3695W        W 7439   7.756   1.645   0.935 -0.3375  0.1361  0.3489
 3696W        W 7440   9.286   9.842   0.863  0.0016 -0.1410  0.0870
 3697W        W 7441   5.941   0.139   9.486 -0.1703  0.0679  0.1337
 3698W        W 7442   1.555   7.258   0.827 -0.0757 -0.3912 -0.0540
 3699W        W 7443   2.129   5.336   9.640  0.1260  0.1049 -0.0346
 3700W        W 7444   0.106   5.337   0.499 -0.1536  0.0844  0.2629
 3701W        W 7445   2.803   2.572  10.219  0.0099 -0.0176 -0.1469
 3702W        W 7446   3.853   7.418  11.140  0.0267 -0.0710  0.0489
 3703W        W 7447   5.670   5.470   3.037 -0.2426  0.2857 -0.1152
 3704W        W 7448   3.987   5.349  10.172  0.1940  0.1939  0.0310
 3705W        W 7449   5.322   1.988   2.106 -0.2390  0.0233 -0.3002
 3706W        W 7450   7.692   9.208   8.971 -0.2001 -0.1451 -0.2498
 3707W        W 7451   1.389   8.414   3.244 -0.3125  0.0725 -0.2228
 3708W        W 7452   4.676   8.377  10.773 -0.0734 -0.0420 -0.1519
 3709W        W 7453   1.557   7.273  11.629  0.0123  0.0941  0.1042
 3710W        W 7454   0.235   8.723   1.757 -0.3187 -0.3675 -0.2423
 3711W        W 7455   9.929   7.657  11.702 -0.2342  0.2228 -0.0220
 3712W        W 7456   1.825   6.401  10.544 -0.2596  0.0665  0.2736
 3713W        W 7457   6.087   3.174   1.752  0.0405  0.2047 -0.1305
 3714W        W 7458   1.883   4.250  11.723  0.1074  0.0080  0.0118
 3715W        W 7459   1.740   8.337   3.595  0.0735  0.1026  0.0978
 3716W        W 7460   1.118   2.713   2.050 -0.0975  0.4324  0.1083
 3717W        W 7461   4.874   5.726   1.418  0.2496 -0.1814  0.1547
 3718W        W 7462   0.981   4.435   2.528  0.4125  0.0358  0.0851
 3719W        W 7463   4.406   4.066   0.405 -0.0371 -0.1847  0.3634
 3720W        W 7464   1.551   7.718  10.385 -0.0972  0.1441 -0.0120
 3721W        W 7465   3.887   6.981   1.650 -0.1586  0.0838  0.0744
 3722W        W 7466   8.015   6.211   1.432  0.2119 -0.2599 -0.1599
 3723W        W 7467   4.422   6.774   3.106  0.1769 -0.0209 -0.2108
 3724W        W 7468   5.008   2.119   2.482  0.0432 -0.1250 -0.2788
 3725W        W 7469   6.647   9.313   9.440  0.3249  0.0030 -0.2478
 3726W        W 7470   8.999   7.417   8.084  0.1442 -0.1084  0.1422
 3727W        W 7471   4.456   0.295   2.639 -0.0602  0.0666  0.1562
 3728W        W 7472   0.671   8.437   9.630 -0.2066 -0.2905 -0.3415
 3729W        W 7473   8.382   5.662   1.870  0.1183 -0.2352 -0.0815
 3730W        W 7474   9.777   5.102   0.398  0.1105  0.0900 -0.1793
 3731W        W 7475   2.837   5.198   0.264 -0.0124 -0.1082  0.2518
 3732W        W 7476   9.635   6.701   1.404  0.1179 -0.0058  0.1359
 3733W        W 7477   5.969  10.207  11.479  0.1517 -0.2093 -0.2032
 3734W        W 7478   3.523   8.531   1.709 -0.2257  0.0905 -0.1316
 3735W        W 7479   1.082   2.167   2.575  0.0379 -0.0460 -0.1001
 3736W        W 7480   8.110   7.479   9.087  0.0843  0.1518 -0.0384
 3737W        W 7481   2.009   5.136   0.881 -0.0331 -0.0643 -0.0342
 3738W        W 7482   0.496   5.948   3.117 -0.2850 -0.1004 -0.0407
 3739W        W 7483   4.719   3.251   0.607 -0.1882  0.1486 -0.1481
 3740W        W 7484   2.868   0.482   8.918  0.2453  0.1618 -0.0515
 3741W        W 7485   3.479   8.205   2.761  0.1300 -0.0529  0.0582
 3742W        W 7486   9.538   8.663   1.522 -0.1130  0.1125 -0.2760
 3743W        W 7487   6.552   1.865   9.865  0.3894 -0.0294 -0.1466
 3744W        W 7488   1.285   5.398   2.755  0.0572 -0.0654 -0.0125
 3745W        W 7489   6.039   6.370   9.459 -0.0380  0.3516  0.2248
 3746W        W 7490   5.515   0.874   1.169  0.0930 -0.1754  0.2238
 3747W        W 7491   5.090   6.244   8.822  0.0643 -0.2031 -0.3090
 3748W        W 7492   2.386   7.303   3.098  0.1445 -0.0148  0.3993
 3749W        W 7493   9.047   8.655   8.846  0.1146  0.2529  0.3420
 3750W        W 7494   0.528   6.393   8.657 -0.0289 -0.0808 -0.0620
 3751W        W 7495   0.124   5.452   8.155  0.0066  0.1769 -0.1306
 3752W        W 7496   3.963   6.481   4.286 -0.2792 -0.4584  0.2711
 3753W        W 7497  10.224   4.962  11.232  0.3293  0.1091 -0.1556
 3754W        W 7498   9.822   3.721   8.915 -0.2986  0.1330 -0.0706
 3755W        W 7499   6.062   8.295   9.076  0.1305 -0.1142 -0.1684
 3756W        W 7500   3.286   4.935   2.191 -0.0163  0.2830  0.0701
 3757W        W 7501   4.590   6.647   9.612 -0.1173  0.0816 -0.0793
 3758W        W 7502   2.284   6.343   0.013  0.3136 -0.1810  0.1372
 3759W        W 7503   1.072   4.085   9.966 -0.1889  0.0224 -0.0711
 3760W        W 7504   1.215   3.565   3.347 -0.0821  0.0003  0.1664
 3761W        W 7505   5.430   5.575   2.212 -0.1431  0.4700 -0.1767
 3762W        W 7506   9.644   4.528   8.573  0.0883 -0.0006  0.2610
 3763W        W 7507   7.218   4.565   1.759 -0.1467 -0.0904  0.1568
 3764W        W 7508   9.278   5.868   1.646  0.2575  0.1944  0.0309
 3765W        W 7509   3.106   6.928  11.778 -0.2827  0.2002  0.1394
 3766W        W 7510   2.785   6.045   3.010  0.5761 -0.0418 -0.1046
 3767W        W 7511   3.152   6.399   1.857 -0.2359  0.2483  0.5077
 3768W        W 7512   4.864   9.020   2.015 -0.2447 -0.1335 -0.3148
 3769W        W 7513   5.186   3.453   9.967  0.2135  0.0692 -0.0803
 3770W        W 7514   6.958   0.784   2.047  0.0361  0.2633 -0.1362
 3771W        W 7515   3.806   0.885   8.668  0.0161  0.2617 -0.1223
 3772W        W 7516   2.246   2.567   2.875 -0.1742  0.0385  0.0543
 3773W        W 7517   0.650   2.428   9.212  0.1891  0.2174 -0.0903
 3774W        W 7518   5.368   1.898   8.274  0.0587 -0.1795  0.2937
 3775W        W 7519   4.544   9.638   1.645 -0.0957 -0.1480 -0.0869
 3776W        W 7520   5.504   3.790   1.133  0.0393 -0.0363  0.0927
 3777W        W 7521   0.885   6.118   0.126 -0.0442  0.0515 -0.2269
 3778W        W 7522   3.400   8.879  11.450  0.1870  0.1753  0.1778
 3779W        W 7523   7.417   4.032  11.670  0.0266  0.1821 -0.1335
 3780W        W 7524   0.086  10.055   1.128 -0.0452  0.2828 -0.1221
 3781W        W 7525   6.994   8.279   0.194 -0.0238  0.1490 -0.3211
 3782W        W 7526   0.245   9.481   8.857 -0.2196 -0.1323 -0.0056
 3783W        W 7527   2.726   5.197  10.900  0.0461 -0.0071 -0.2916
 3784W        W 7528   2.825   6.950   8.025 -0.2219  0.0872 -0.0455
 3785W        W 7529   4.167   6.151   0.716 -0.1030  0.0301 -0.2033
 3786W        W 7530   8.597   7.603   2.424  0.0348  0.1286  0.0270
 3787W        W 7531   3.549   4.488   1.252  0.2141  0.1036  0.4635
 3788W        W 7532   6.189   0.199   2.886 -0.0151 -0.1785  0.0494
 3789W        W 7533   8.985   3.537  10.283 -0.0468  0.1733  0.0319
 3790W        W 7534   8.656   6.258   8.406 -0.0214 -0.2502 -0.1354
 3791W        W 7535   2.879   3.932  10.891 -0.0380 -0.1885  0.1717
 3792W        W 7536   3.637   7.066   3.402 -0.1662  0.2931  0.3674
 3793W        W 7537   7.321   4.698  10.534  0.0641 -0.2030  0.2245
 3794W        W 7538   4.488   7.591   0.567 -0.1935 -0.1652  0.0329
 3795W        W 7539   4.356   5.592  11.172 -0.1041  0.1875  0.2418
 3796W        W 7540   3.411   9.552  12.016  0.1663  0.2454  0.3127
 3797W        W 7541   4.582   5.109   8.477 -0.0622  0.0705 -0.1962
 3798W        W 7542   6.816   7.691   2.421 -0.0636 -0.1351  0.1133
 3799W        W 7543   8.407   6.567   2.129  0.2962 -0.2499 -0.0159
 3800W        W 7544   1.580   2.174   1.683 -0.2426  0.0017  0.1029
 3801W        W 7545   2.942   1.464   0.779 -0.0434  0.0161 -0.0617
 3802W        W 7546   2.809   2.152   8.493  0.4467  0.1500 -0.0374
 3803W        W 7547   7.461   6.167   1.468 -0.1152  0.0298 -0.1752
 3804W        W 7548   8.711   3.993   8.309  0.2961 -0.0091 -0.0354
 3805W        W 7549   9.007   4.178  11.847  0.0292  0.0136  0.2330
 3806W        W 7550   8.745   0.059   2.235 -0.1386  0.2094 -0.2259
 3807W        W 7551   4.330   5.667   9.344 -0.4862  0.2355  0.0873
 3808W        W 7552   9.310   2.553   8.544  0.0770 -0.1553  0.3442
 3809W        W 7553   0.330   0.684   9.039 -0.3092 -0.0619 -0.2531
 3810W        W 7554   2.524   4.573   7.543 -0.0864  0.1843  0.0376
 3811W        W 7555   4.107   8.842  11.144 -0.0438 -0.1411  0.2238
 3812W        W 7556   7.287   6.329   7.873 -0.0455  0.0326 -0.0897
 3813W        W 7557   0.020   3.372   0.687  0.4562 -0.2386  0.0971
 3814W        W 7558   6.393   1.002   0.743  0.2272 -0.1483  0.1567
 3815W        W 7559   2.336   5.674  11.598  0.2156 -0.2027  0.3016
 3816W        W 7560   6.514   4.300   8.983 -0.0508  0.2763 -0.0187
 3817W        W 7561   0.983  10.152   1.312  0.0384 -0.1630 -0.1094
 3818W        W 7562   4.972   4.273  10.811 -0.0857 -0.2227 -0.0668
 3819W        W 7563   2.705   2.900   3.088  0.3002  0.1763  0.4152
 3820W        W 7564   8.349   2.892   2.361  0.2112 -0.0806  0.2097
 3821W        W 7565   8.654   4.629   2.570  0.0085 -0.2746  0.3148
 3822W        W 7566   5.361   8.416   0.969  0.0102  0.1205 -0.3682
 3823W        W 7567   0.539   0.074  11.610  0.0670  0.1486  0.5235
 3824W        W 7568   8.944   5.487   8.027 -0.0272  0.2188 -0.0320
 3825W        W 7569   1.162   1.395   1.567 -0.3426 -0.1049  0.2282
 3826W        W 7570   8.194   5.797   0.605 -0.0618 -0.0370 -0.1082
 3827W        W 7571   5.583   1.062   3.917  0.0892  0.0234  0.2812
 3828W        W 7572   5.551   1.820   0.983  0.1220  0.1481 -0.2466
 3829W        W 7573   1.612   7.353   9.083  0.0057  0.1584  0.0076
 3830W        W 7574  10.049   4.709   2.925 -0.1298  0.4527 -0.2144
 3831W        W 7575   0.637   9.125   8.907 -0.3241 -0.1520 -0.2557
 3832W        W 7576  10.003   0.790  11.801  0.2783  0.0923 -0.2422
 3833W        W 7577   6.449   3.482   2.676  0.1839 -0.0704 -0.1493
 3834W        W 7578   2.741   8.653   4.638 -0.0189  0.1424 -0.2622
 3835W        W 7579   7.839   1.139   9.398  0.0098 -0.0903 -0.1811
 3836W        W 7580   4.737   5.963   9.769 -0.2835 -0.0204 -0.0313
 3837W        W 7581   5.163   9.724  12.125  0.1904  0.1538 -0.0086
 3838W        W 7582   3.756   6.272   9.814  0.0250 -0.2021  0.0646
 3839W        W 7583   4.199   4.738  11.770  0.2473 -0.1009  0.0463
 3840W        W 7584   0.054   8.256   4.043 -0.0196  0.2129  0.2793
 3841W        W 7585   1.219   2.050  11.705 -0.4475 -0.0319 -0.4827
 3842W        W 7586   4.832   2.485   1.315 -0.1310  0.0955  0.0891
 3843W        W 7587   2.510   6.906   9.308  0.2566  0.1028 -0.1260
 3844W        W 7588   4.651   7.821   3.514  0.1206 -0.0995 -0.1253
 3845W        W 7589   3.453   2.544   9.730  0.4153 -0.3498 -0.0299
 3846W        W 7590   2.219   3.364   9.790 -0.0223  0.1983 -0.0201
 3847W        W 7591   9.315   6.585   2.122  0.0821 -0.2561 -0.1407
 3848W        W 7592   8.251   6.160   8.079 -0.1385  0.2049 -0.1877
 3849W        W 7593   4.501   9.408   3.245 -0.1646  0.2709  0.3092
 3850W        W 7594   2.223   3.140   1.452  0.1816  0.0121  0.0310
 3851W        W 7595   5.941   2.175  11.075  0.0048 -0.0274 -0.0080
 3852W        W 7596   6.213   7.757   3.066 -0.0089  0.0333  0.2256
 3853W        W 7597   1.354   4.587   8.283 -0.2054  0.0387  0.0671
 3854W        W 7598   5.881   9.245  10.344  0.0123  0.1005 -0.1592
 3855W        W 7599   8.628   1.350   2.440 -0.1355 -0.1378  0.1580
 3856W        W 7600   9.064   1.448  10.999  0.2491 -0.0495 -0.1994
 3857W        W 7601   3.872   3.111   9.687  0.0789 -0.1219  0.2273
 3858W        W 7602   3.723   4.406   7.885  0.0265 -0.1335  0.0098
 3859W        W 7603   1.676   3.464   3.058 -0.0376 -0.2722 -0.0213
 3860W        W 7604   7.666   8.756  10.802  0.0080 -0.3208 -0.0452
 3861W        W 7605   4.512   9.949  10.199  0.4055  0.1840 -0.0688
 3862W        W 7606   1.164   6.512   0.047 -0.2930  0.0653 -0.1962
 3863W        W 7607   0.100   8.280   9.152  0.1187 -0.1769 -0.1811
 3864W        W 7608   2.512   2.177   7.770  0.0048 -0.0068 -0.2425
 3865W        W 7609   3.971   0.482   2.508 -0.4453 -0.1541 -0.2871
 3866W        W 7610   1.162   3.401   0.315  0.0066  0.1530  0.2656
 3867W        W 7611   8.386   4.652   0.265 -0.1985 -0.3336  0.3287
 3868W        W 7612   4.393   1.534  11.595  0.0935 -0.1051 -0.1181
 3869W        W 7613   0.499   8.098   1.059 -0.1343  0.1367  0.1847
 3870W        W 7614   1.762   8.149  11.937  0.4220 -0.2893  0.0239
 3871W        W 7615   0.578   1.531  11.906 -0.0760  0.2388 -0.2637
 3872W        W 7616   2.540   4.840   1.688  0.1192 -0.0811  0.2444
 3873W        W 7617   7.526   0.286  10.488 -0.1516 -0.0493 -0.0094
 3874W        W 7618   2.032   1.931   1.856  0.0832 -0.1958 -0.0067
 3875W        W 7619   1.202   9.671   2.579  0.2262  0.4032 -0.0134
 3876W        W 7620  10.178   0.302   1.126  0.1756 -0.0545  0.2369
 3877W        W 7621   6.271   6.079   3.589 -0.0609  0.4385  0.2821
 3878W        W 7622   2.455   1.546   2.064  0.0986  0.0564 -0.0759
 3879W        W 7623   0.824   9.111  11.366 -0.1070  0.2553  0.1534
 3880W        W 7624   8.873   8.823  10.237  0.0932  0.2732 -0.1023
 3881W        W 7625   6.107   7.222   1.470  0.1584  0.4518 -0.1052
 3882W        W 7626   1.323   3.135   2.475 -0.1257 -0.1538  0.3230
 3883W        W 7627   3.994   4.468   0.533  0.2928 -0.1821  0.0102
 3884W        W 7628   6.577   6.891   0.215  0.1451 -0.1845  0.2911
 3885W        W 7629   2.062   3.084   8.105  0.0760  0.0575  0.1992
 3886W        W 7630   2.100   1.913  10.602 -0.0613  0.1951  0.0973
 3887W        W 7631   2.091   4.073   8.275 -0.1948 -0.0948 -0.0118
 3888W        W 7632   5.635   3.366   8.990 -0.2371 -0.0046 -0.2229
 3889W        W 7633   5.237   5.813   9.932  0.1607  0.1498  0.0094
 3890W        W 7634   7.876   6.325   2.827  0.0251  0.0095 -0.1335
 3891W        W 7635  10.097   1.960   0.881  0.2233  0.0137 -0.0374
 3892W        W 7636   1.408   2.120   8.746  0.0777  0.1588 -0.2355
 3893W        W 7637   0.189   1.817   2.867  0.2077  0.1455 -0.1980
 3894W        W 7638   6.111   2.299   3.312 -0.0102 -0.0464 -0.2522
 3895W        W 7639   4.717   7.847   1.561  0.0001 -0.0322  0.0638
 3896W        W 7640   7.584   8.187  10.550  0.3760  0.1956  0.1886
 3897W        W 7641   3.906   0.573   3.926 -0.1307 -0.1233  0.2138
 3898W        W 7642   5.581   3.524  10.940 -0.2961 -0.0212  0.1308
 3899W        W 7643   1.150   5.690   3.686  0.0198 -0.1189 -0.3496
 3900W        W 7644   7.787   2.573   2.503 -0.1953 -0.1202  0.2222
 3901W        W 7645   7.305   7.777   1.670  0.2030 -0.2879 -0.3316
 3902W        W 7646   8.434   5.035   8.754  0.1675  0.3768  0.0588
 3903W        W 7647   6.907   0.775  10.157  0.1593 -0.0772 -0.1452
 3904W        W 7648   1.097   8.372   2.231 -0.2780 -0.2225 -0.2300
 3905W        W 7649   5.291   8.479  10.189 -0.0720  0.0641 -0.4230
 3906W        W 7650   0.439   0.424   0.254  0.4133 -0.0930  0.1993
 3907W        W 7651   7.148   1.844  11.553 -0.0136  0.0988 -0.2251
 3908W        W 7652   0.379   7.424   2.760  0.0533  0.0714  0.0837
 3909W        W 7653   5.214   9.261   8.528  0.0567 -0.0935  0.1666
 3910W        W 7654   0.670   6.131   1.017 -0.0624  0.0992 -0.1008
 3911W        W 7655   3.365   5.441   2.254  0.0511 -0.0632  0.0674
 3912W        W 7656   7.051   1.802   3.181  0.3464  0.0611 -0.2071
 3913W        W 7657   1.281   2.543  11.010 -0.0100 -0.0592  0.2334
 3914W        W 7658   6.084   3.229   7.563 -0.1501  0.0330 -0.2050
 3915W        W 7659   7.741   1.491   9.015  0.0496 -0.0860 -0.2177
 3916W        W 7660   2.917   7.064   2.134  0.0258  0.0769 -0.1129
 3917W        W 7661   2.984   3.922   7.151  0.3240 -0.3818  0.0537
 3918W        W 7662   7.589   6.514   2.286  0.1447  0.1480  0.4740
 3919W        W 7663   7.073   8.185   1.333  0.3643 -0.2051  0.1376
 3920W        W 7664   6.309   5.758   8.472 -0.1581  0.0871  0.0348
 3921W        W 7665   5.941   2.949   0.817  0.2264  0.2100 -0.2119
 3922W        W 7666   8.935   8.953  11.610  0.0812 -0.0369  0.0975
 3923W        W 7667   5.173   9.969   1.696 -0.2631 -0.0663  0.1833
 3924W        W 7668   3.414   3.796   0.745  0.0162  0.2290  0.1648
 3925W        W 7669   7.079   3.845  11.349 -0.0309 -0.0823  0.0081
 3926W        W 7670   5.180   5.341   7.573  0.1298 -0.2946 -0.1275
 3927W        W 7671   7.935   0.351   0.857  0.0735 -0.0150  0.1158
 3928W        W 7672   4.566   3.050  11.019 -0.2153 -0.0789  0.2467
 3929W        W 7673   2.336   7.864   1.064 -0.0996  0.0741  0.0689
 3930W        W 7674   2.853   2.570  10.776  0.0711  0.2611 -0.2958
 3931W        W 7675   9.282   6.330   3.064  0.4509 -0.1134 -0.0115
 3932W        W 7676   8.965   6.747   8.958 -0.0554 -0.0167  0.1087
 3933W        W 7677  10.060   0.841   2.393  0.0345 -0.1142  0.1322
 3934W        W 7678   9.311   3.428  11.636  0.0360  0.1465  0.1179
 3935W        W 7679   7.398   0.134  11.872 -0.2466 -0.3716 -0.1590
 3936W        W 7680   3.689   6.552   9.098  0.0437 -0.0945 -0.1748
 3937W        W 7681   3.907   3.846  10.058  0.1121  0.1040 -0.3420
 3938W        W 7682   4.153   1.111   1.370  0.2346 -0.0340  0.2515
 3939W        W 7683   2.952   7.151   8.483  0.3326 -0.0463  0.0639
 3940W        W 7684   6.314   0.211   1.024  0.0011 -0.0794  0.0787
 3941W        W 7685   9.344   3.053   3.673 -0.0295  0.0000 -0.3827
 3942W        W 7686   1.259   2.502   0.351  0.2104 -0.0663  0.1591
 3943W        W 7687   8.165   4.454  11.528  0.0393 -0.2856 -0.1953
 3944W        W 7688   8.976   6.620   0.625 -0.0902  0.0464  0.0386
 3945W        W 7689   4.099   5.522   2.061 -0.0293 -0.3179 -0.0270
 3946W        W 7690   5.799   7.542   9.753  0.2744  0.0147 -0.0260
 3947W        W 7691   7.875   7.633   0.158  0.0870  0.6175  0.0223
 3948W        W 7692   8.682   9.854   1.995  0.0488  0.1415 -0.2551
 3949W        W 7693   1.400   0.805   9.539 -0.2575 -0.0296 -0.0413
 3950W        W 7694   2.974   5.581   3.165  0.0112 -0.1306  0.4381
 3951W        W 7695   6.329   6.346   7.036 -0.0343 -0.1153 -0.1535
 3952W        W 7696   1.593   0.856   0.994  0.1099 -0.1883  0.1894
 3953W        W 7697   4.179   0.149   1.180  0.0616  0.0179 -0.3140
 3954W        W 7698   8.904   7.439   9.098  0.0697 -0.0776  0.1851
 3955W        W 7699   1.189   8.901   3.304  0.0938  0.0745 -0.0040
 3956W        W 7700   7.711   3.813   1.109 -0.1154 -0.0409 -0.0953
 3957W        W 7701   1.477   8.364   0.314 -0.1221  0.0937  0.0299
 3958W        W 7702   8.492   7.230   8.859 -0.0558  0.2577 -0.1407
 3959W        W 7703   4.376   1.543  10.399  0.1636 -0.2721 -0.0768
 3960W        W 7704   6.412   4.509   7.291  0.0665  0.3055  0.0236
 3961W        W 7705   2.870   4.345  11.179  0.1445  0.0775  0.1033
 3962W        W 7706   9.432   1.344   0.425 -0.1453  0.0115  0.0326
 3963W        W 7707   9.348   5.048   8.894 -0.0591 -0.0588 -0.0349
 3964W        W 7708   1.567   8.384   9.073  0.2417 -0.0706 -0.1234
 3965W        W 7709   1.183   7.725   1.565 -0.0287 -0.0913 -0.0340
 3966W        W 7710   8.084   5.918  10.228 -0.2492 -0.1568  0.4665
 3967W        W 7711   3.254   7.420  10.208  0.1299 -0.0184 -0.3453
 3968W        W 7712   3.775   4.649   2.108  0.1772 -0.0262 -0.0157
 3969W        W 7713   8.180   5.885  11.564 -0.1337 -0.3136  0.2978
 3970W        W 7714   0.269   1.153   2.347  0.0769  0.1795 -0.1596
 3971W        W 7715   5.316   2.513   3.334  0.2187  0.1084  0.1395
 3972W        W 7716   3.998   5.231  11.059 -0.1143  0.1550  0.1849
 3973W        W 7717   8.777   0.430   1.869 -0.0946 -0.2776  0.1002
 3974W        W 7718   7.295   4.378  12.013  0.0840  0.1554 -0.1037
 3975W        W 7719   5.081   8.916   2.455  0.1910 -0.0651 -0.4873
 3976W        W 7720   5.488   4.594   0.905  0.1599 -0.1867 -0.2627
 3977W        W 7721   4.826   8.204  11.691  0.0135 -0.3290  0.3255
 3978W        W 7722   0.391   8.142   1.776  0.1185  0.0851  0.2169
 3979W        W 7723   4.877   4.653  10.461 -0.2098 -0.0055  0.1779
 3980W        W 7724   2.509   9.831  12.031  0.0140 -0.2003 -0.2560
 3981W        W 7725   0.692   1.520   3.236  0.1647  0.1043 -0.2639
 3982W        W 7726   2.496  10.189   0.627  0.3041  0.0674  0.2826
 3983W        W 7727   4.428   8.197   3.274 -0.0223  0.1238  0.2830
 3984W        W 7728   1.142   0.315   3.047  0.1303 -0.4742 -0.0225
 3985W        W 7729   2.123   2.675   0.546 -0.2951  0.0554  0.1322
 3986W        W 7730   9.370   4.973  11.068  0.1720  0.0361 -0.0079
 3987W        W 7731   6.259  10.176   9.861 -0.1692 -0.0423  0.6116
 3988W        W 7732   8.396   2.626   1.151 -0.2728  0.0294  0.1200
 3989W        W 7733   1.290   4.355   0.651 -0.0733 -0.1827 -0.1198
 3990W        W 7734   7.330   6.107   2.306 -0.0635  0.1376  0.0813
 3991W        W 7735   7.901   7.229  11.433 -0.4046  0.3322 -0.0986
 3992W        W 7736   6.021   8.714   2.562 -0.1657  0.0066 -0.0156
 3993W        W 7737   9.786   1.161   0.017  0.2869  0.0647  0.0113
 3994W        W 7738   0.616   1.478   8.454 -0.1955  0.1590  0.0795
 3995W        W 7739   7.346   6.385   6.558 -0.0178  0.0057 -0.1102
 3996W        W 7740   8.795   6.077   0.489  0.1829 -0.0013  0.0634
 3997W        W 7741   9.752   8.228   7.590 -0.1584 -0.0012  0.0560
 3998W        W 7742   2.562   8.843   0.027  0.3483 -0.0456 -0.0563
 3999W        W 7743   4.921   4.443  11.282 -0.6078  0.1493 -0.1006
 4000W        W 7744   4.183   2.460  10.100 -0.3652 -0.1378 -0.2956
 4001W        W 7745   9.969   5.232   1.705 -0.2691 -0.1611 -0.0901
 4002W        W 7746   1.997   0.810   3.100 -0.2084 -0.3069  0.0439
 4003W        W 7747   0.305   4.051  10.911  0.0816  0.0546 -0.2641
 4004W        W 7748   1.936   1.731   2.910 -0.1510 -0.0539 -0.2150
 4005W        W 7749   2.463   4.651  10.240  0.0277 -0.1385 -0.1512
 4006W        W 7750   5.915   1.393   8.768 -0.3344 -0.0900  0.1816
 4007W        W 7751   5.469   9.077   9.466  0.0013 -0.1088  0.2296
 4008W        W 7752   5.877   5.366   1.703  0.3098  0.0544 -0.1020
 4009W        W 7753   6.035   5.160   3.375  0.1974 -0.1118  0.0877
 4010W        W 7754   6.299   5.329   9.940  0.1717  0.0974  0.1174
 4011W        W 7755   9.820   5.587   3.001 -0.0787  0.0747  0.0459
 4012W        W 7756   7.697   4.195   9.884 -0.0892 -0.1074 -0.1385
 4013W        W 7757   0.667   6.565   1.768  0.1373  0.0087  0.2277
 4014W        W 7758   0.799   4.099   7.837  0.0751 -0.1129 -0.1575
 4015W        W 7759   2.722   2.387   2.958  0.0435 -0.2463  0.0027
 4016W        W 7760   4.892   4.471   2.093  0.0421  0.0688 -0.0657
 4017W        W 7761   2.683   2.312   9.051  0.0695  0.5034  0.0843
 4018W        W 7762   5.231   8.193  12.095 -0.1814 -0.0008  0.0333
 4019W        W 7763   8.945   1.517   2.910 -0.2218 -0.0611  0.2135
 4020W        W 7764   0.832   7.863   2.876  0.0720  0.0527 -0.2689
 4021W        W 7765   2.294   3.132   0.506  0.2781 -0.3198 -0.2521
 4022W        W 7766   6.488   6.048   2.990  0.1447  0.1515  0.0029
 4023W        W 7767   4.735   7.250  11.827 -0.0557 -0.2955  0.0355
 4024W        W 7768   9.661   2.503   1.193 -0.0653 -0.1923  0.3196
 4025W        W 7769   8.674   2.234   1.245 -0.2522 -0.2158 -0.4259
 4026W        W 7770   0.152   3.166   1.563 -0.0703 -0.0851 -0.2832
 4027W        W 7771  10.061   8.940   9.285 -0.1326 -0.0790  0.4280
 4028W        W 7772   7.337   0.036   2.219 -0.0183 -0.2728 -0.1362
 4029W        W 7773   4.387   2.820   1.442 -0.0347  0.2562  0.3310
 4030W        W 7774   5.443   4.308  11.013  0.0311 -0.1889  0.1899
 4031W        W 7775   6.315   7.408   3.385 -0.0417  0.0722 -0.1685
 4032W        W 7776  10.139   6.305   0.488 -0.0997  0.3062 -0.0407
 4033W        W 7777   7.447   1.704  10.220 -0.3134 -0.0152  0.1613
 4034W        W 7778   7.214   9.424   2.903  0.1164  0.1572  0.0413
 4035W        W 7779   8.387   2.710  10.325  0.1770 -0.1643 -0.1173
 4036W        W 7780   1.688   0.992  10.491 -0.2593 -0.1914  0.1461
 4037W        W 7781   0.794   1.809  11.461  0.1486  0.0192  0.2339
 4038W        W 7782   9.477   4.378  10.907 -0.0436 -0.2018  0.0008
 4039W        W 7783   9.037   5.401   2.347 -0.1031 -0.0254  0.1440
 4040W        W 7784   4.901   8.721  10.405 -0.0360  0.1012  0.0341
 4041W        W 7785   8.258   4.376   8.171 -0.0549  0.0728 -0.0344
 4042W        W 7786   9.419   1.988   9.995  0.2026 -0.1416 -0.0643
 4043W        W 7787   1.946   5.623   3.194 -0.0840  0.0181  0.1190
 4044W        W 7788   5.864   9.808   8.271  0.0216 -0.1012  0.3562
 4045W        W 7789   1.252   2.950   0.582 -0.0223 -0.0747 -0.0759
 4046W        W 7790  10.036   9.393   8.316  0.1894  0.0884 -0.0131
 4047W        W 7791   8.110   4.268  10.413 -0.1873 -0.3386 -0.1645
 4048W        W 7792   0.068   1.019   3.631  0.1543 -0.7127  0.2493
 4049W        W 7793   4.582   4.094  11.153 -0.3821  0.0599  0.0953
 4050W        W 7794   1.676   3.251  11.930  0.0465 -0.0913 -0.3155
 4051W        W 7795   4.024   6.156   3.917  0.0751  0.0397  0.1750
 4052W        W 7796   6.877   4.217   9.337  0.1138 -0.1648  0.1849
 4053W        W 7797   6.698   5.495  10.331 -0.3309 -0.0368  0.0005
 4054W        W 7798   8.580   9.350   4.288  0.1806 -0.1813  0.0075
 4055W        W 7799   4.239   5.560   2.597 -0.3825 -0.0692 -0.0270
 4056W        W 7800   9.721   1.463   8.180  0.0994  0.3537  0.0323
 4057W        W 7801   4.986   1.576   1.615 -0.1670 -0.2179 -0.3845
 4058W        W 7802   3.048   7.880   8.592  0.0922 -0.0509  0.0196
 4059W        W 7803   0.448   7.438   3.430 -0.1500 -0.4355 -0.0823
 4060W        W 7804   5.583   9.449   9.862  0.0436 -0.0181 -0.0494
 4061W        W 7805   9.615   0.211   1.944 -0.0993  0.4491 -0.1208
 4062W        W 7806   2.271   2.564   1.368  0.0623 -0.5054  0.1323
 4063W        W 7807   5.324   5.485  10.506  0.0133 -0.1303  0.1590
 4064W        W 7808   3.877   3.736   9.536 -0.0343 -0.0061 -0.3097
 4065W        W 7809   8.628   1.945   2.266  0.0814  0.0508 -0.0657
 4066W        W 7810   4.924   1.598  10.769  0.0091 -0.1824 -0.0768
 4067W        W 7811   3.036   3.228   9.171 -0.1983 -0.1395  0.1487
 4068W        W 7812   5.832   5.681   2.557  0.0657  0.1829 -0.2098
 4069W        W 7813   9.142   5.369   1.156  0.3332  0.2903  0.3160
 4070W        W 7814   9.536  10.195  11.585  0.1583 -0.0356  0.0142
 4071W        W 7815   0.038   8.040  11.987 -0.0462  0.0713  0.0652
 4072W        W 7816   9.605   5.998   8.729  0.0089 -0.0031 -0.0162
 4073W        W 7817   0.115   8.257   0.779 -0.1130  0.5574  0.3159
 4074W        W 7818   9.113   5.390   2.866  0.0130 -0.3081  0.1934
 4075W        W 7819   0.043   4.737   2.408 -0.1265 -0.1585  0.6258
 4076W        W 7820  10.131   4.434   7.669 -0.0794  0.2269 -0.2493
 4077W        W 7821   5.325   8.915   9.987  0.3534 -0.0091  0.1493
 4078W        W 7822   1.737   7.272   8.272 -0.0386  0.3291  0.2657
 4079W        W 7823   1.167   7.480   2.157 -0.0155 -0.4516 -0.0746
 4080W        W 7824   8.748   2.691   2.187  0.1960  0.3491 -0.0489
 4081W        W 7825   7.809   8.587   9.038  0.0378 -0.1859  0.0254
 4082W        W 7826   4.021   9.803   8.806 -0.1963 -0.0464  0.1574
 4083W        W 7827   5.936   7.565   0.709 -0.4495 -0.0365  0.0422
 4084W        W 7828   8.262   5.364   2.888  0.1999  0.2130  0.1640
 4085W        W 7829   3.022   5.613  11.055  0.1150 -0.0925  0.0855
 4086W        W 7830   2.482   0.938  10.730  0.1113  0.3612 -0.2296
 4087W        W 7831   4.724   1.200   8.495  0.0652 -0.4149  0.0039
 4088W        W 7832   1.906   1.472   0.175  0.0574 -0.4398 -0.2980
 4089W        W 7833   7.097   1.917  12.127  0.3322 -0.2507  0.3358
 4090W        W 7834   6.935   6.813   1.596  0.2700  0.3122 -0.4262
 4091W        W 7835   4.481   7.341   7.736 -0.0106  0.0277  0.2324
 4092W        W 7836   7.383   5.195  11.854 -0.3454  0.0177 -0.0720
 4093W        W 7837   7.786   5.619   8.217  0.0309  0.0610  0.2251
 4094W        W 7838   1.444   4.487   2.246  0.3169  0.0185 -0.3621
 4095W        W 7839   1.549   1.624   2.479 -0.2525 -0.0502  0.2940
 4096W        W 7840   2.423   8.653  11.742  0.0720 -0.1817  0.0417
 4097W        W 7841   6.543   7.028  10.134  0.2206  0.1735  0.0674
 4098W        W 7842   2.885   0.763  10.369  0.2831 -0.1991 -0.1968
 4099W        W 7843   6.564   0.045   8.912 -0.0834 -0.1505 -0.0922
 4100W        W 7844  10.040   2.138   2.866  0.0183  0.2942 -0.0203
 4101W        W 7845   8.277   1.387  10.334  0.3144  0.0656  0.0426
 4102W        W 7846   6.438   0.031  10.754 -0.0762 -0.0593  0.0221
 4103W        W 7847   1.633   2.463   2.070  0.1121 -0.0744 -0.0404
 4104W        W 7848   9.277   3.854  11.167  0.4468 -0.0254 -0.1193
 4105W        W 7849   6.020   5.907  11.520 -0.1716 -0.0816 -0.3081
 4106W        W 7850   2.335   5.219   1.909  0.3172  0.1762  0.0408
 4107W        W 7851   4.027   5.732   1.297 -0.0230  0.0434  0.0127
 4108W        W 7852   6.666   1.722  11.843  0.0516 -0.1357 -0.3750
 4109W        W 7853   3.092   7.632   1.777 -0.2376 -0.0112  0.2357
 4110W        W 7854   5.844   4.500   0.015  0.0687  0.2260  0.1431
 4111W        W 7855   7.971   5.337   7.815 -0.0245 -0.2065 -0.1801
 4112W        W 7856   1.165   2.006   0.038  0.3783 -0.0039 -0.1122
 4113W        W 7857   1.118   1.240   3.259 -0.0812 -0.1277 -0.1258
 4114W        W 7858   4.469   0.624   0.059  0.0058 -0.2953  0.2710
 4115W        W 7859   8.529   4.438   9.608 -0.0875  0.2585  0.0384
 4116W        W 7860   6.511   1.377   8.047  0.1490 -0.1007 -0.3480
 4117W        W 7861   7.600   0.716   8.092  0.1252 -0.0766 -0.3214
 4118W        W 7862   4.457   0.657  10.387  0.3078  0.0424 -0.1649
 4119W        W 7863   6.295   4.855   9.674  0.1203  0.2939  0.1489
 4120W        W 7864   2.892   4.448   9.884 -0.2654  0.1125 -0.1465
 4121W        W 7865  10.216   5.800   9.577 -0.1516  0.0213  0.2122
 4122W        W 7866   4.075   1.504   2.175  0.2564 -0.0101 -0.1299
 4123W        W 7867   2.995   5.905   9.459 -0.0655  0.0916 -0.2165
 4124W        W 7868   5.487   5.981   0.753 -0.0945 -0.0575 -0.3118
 4125W        W 7869   8.013   0.783  11.105  0.1127  0.1863 -0.0706
 4126W        W 7870   9.029   7.856   0.281 -0.2268  0.1682 -0.2999
 4127W        W 7871   5.555   3.034  10.841  0.0723  0.5813 -0.2685
 4128W        W 7872   1.944   8.374   4.124 -0.3639 -0.0459 -0.1483
 4129W        W 7873   5.676   6.196  11.010 -0.2523 -0.1317 -0.0923
 4130W        W 7874   7.367   4.311  10.229 -0.1953 -0.1088 -0.0441
 4131W        W 7875   7.008   7.218   7.647 -0.1596  0.0210  0.1400
 4132W        W 7876   5.598   8.176  11.274 -0.0897 -0.1637  0.2960
 4133W        W 7877   1.495   5.961   8.006  0.0942  0.2023 -0.1437
 4134W        W 7878   2.585   9.511   9.971 -0.0380 -0.0312  0.0817
 4135W        W 7879   4.831   4.762  11.718 -0.1141  0.0758 -0.1930
 4136W        W 7880   5.535   5.205   8.871 -0.2646  0.2706 -0.1875
 4137W        W 7881   3.608   7.893  11.388  0.0393 -0.1475  0.1457
 4138W        W 7882   9.874   1.048   1.556  0.1188  0.0350  0.0161
 4139W        W 7883   4.942   4.508   0.841 -0.0885  0.0571 -0.1717
 4140W        W 7884   8.797   9.941   1.106 -0.1700 -0.2578 -0.0379
 4141W        W 7885   0.649   5.353   2.880  0.0284 -0.1264 -0.1312
 4142W        W 7886   1.985   9.420   8.713 -0.1966 -0.0672  0.3819
 4143W        W 7887   3.397   7.207   1.791  0.0778  0.0009  0.0577
 4144W        W 7888   5.796   7.429   0.220 -0.1190 -0.1735  0.0708
 4145W        W 7889   8.782   2.299   3.259  0.1204 -0.0448 -0.1728
 4146W        W 7890   0.674   3.295  10.994  0.2252  0.1755 -0.0921
 4147W        W 7891   0.510   2.525  11.947  0.1323 -0.1558 -0.1994
 4148W        W 7892   6.658   2.003   1.770  0.2235 -0.0986 -0.0505
 4149W        W 7893   6.045   9.255  11.970 -0.1756 -0.1655 -0.2750
 4150W        W 7894   5.650   5.124   1.174  0.1167 -0.2153  0.0402
 4151W        W 7895   4.083   9.161   3.393  0.4452  0.2919  0.0656
 4152W        W 7896   9.353   2.725   1.520 -0.1434 -0.1764 -0.2632
 4153W        W 7897   9.944   8.851   8.337  0.1308 -0.1875  0.1070
 4154W        W 7898  10.057   5.772   7.281  0.0122  0.2042 -0.1796
 4155W        W 7899   8.031   7.977   9.897 -0.1479  0.0180 -0.0708
 4156W        W 7900   3.552   0.130  12.084  0.1480  0.0048  0.1609
 4157W        W 7901   9.299   2.593  11.371  0.1595  0.1715  0.1118
 4158W        W 7902   7.374   6.667   1.431 -0.0611 -0.0769  0.1973
 4159W        W 7903   3.071   8.919   9.439 -0.2660  0.1704  0.0695
 4160W        W 7904   4.360   8.354  11.652 -0.0474 -0.0194 -0.0022
 4161W        W 7905   7.942   6.043   3.264 -0.2258  0.1955 -0.1794
 4162W        W 7906   5.161   7.175   0.247  0.2669 -0.0414  0.0835
 4163W        W 7907   4.314   7.447  12.110 -0.2471 -0.0658 -0.0183
 4164W        W 7908  10.186   9.542   0.426 -0.2125  0.0421 -0.1087
 4165W        W 7909   5.966   3.750   4.189  0.2640 -0.2509 -0.2182
 4166W        W 7910   5.015   6.023   2.741 -0.1265 -0.3259  0.2053
 4167W        W 7911   8.829   3.919  11.304 -0.0310 -0.2119  0.1267
 4168W        W 7912   3.282  10.025   0.999  0.2385 -0.0242  0.0616
 4169W        W 7913   1.693   5.827   8.625  0.0751  0.1634  0.1145
 4170W        W 7914   6.759   1.579   9.510  0.1494  0.2112 -0.0812
 4171W        W 7915   3.147   5.291  10.157  0.1908  0.0578  0.3995
 4172W        W 7916   4.278   5.978   0.202  0.0130  0.3493  0.1372
 4173W        W 7917   9.877   8.258   0.168 -0.2214  0.1721 -0.2003
 4174W        W 7918   6.409   2.696  10.142  0.0085  0.1305 -0.0435
 4175W        W 7919   7.564   1.985   9.032  0.0556  0.1606 -0.2248
 4176W        W 7920   4.908   7.772  10.836  0.0692 -0.4739  0.1071
 4177W        W 7921   0.966   2.737   9.546 -0.0903 -0.0925  0.3092
 4178W        W 7922   6.999   6.614   1.005 -0.1170 -0.3114  0.0489
 4179W        W 7923   8.205   2.289   0.247 -0.1038 -0.1294  0.0914
 4180W        W 7924   6.691   5.658   9.858 -0.0885 -0.3560 -0.3279
 4181W        W 7925   8.848   8.136  10.867 -0.1269  0.0348 -0.2434
 4182W        W 7926   0.347   1.190  10.657 -0.0063 -0.0707  0.1096
 4183W        W 7927   8.671   1.873   2.763  0.1855  0.0737 -0.1285
 4184W        W 7928   6.269   1.686   0.786  0.0369 -0.4407 -0.3569
 4185W        W 7929   2.324   8.477   0.418 -0.0721 -0.0030 -0.1215
 4186W        W 7930   0.609   1.027   0.039 -0.0014  0.0294  0.0739
 4187W        W 7931   3.388   7.256   2.284 -0.0023 -0.1183 -0.1104
 4188W        W 7932   3.806   7.467   1.590  0.3267 -0.0637  0.1278
 4189W        W 7933   2.685   7.827   0.727 -0.0720 -0.0139  0.0455
 4190W        W 7934   3.914   8.916   9.397  0.1136 -0.0115  0.2065
 4191W        W 7935   3.287   7.345   1.337  0.3782  0.0660 -0.1391
 4192W        W 7936   8.012   6.011   4.169 -0.0657  0.1587 -0.1501
 4193W        W 7937   3.402   9.659   1.335  0.1392  0.0145 -0.3063
 4194W        W 7938   2.496   3.437   8.794 -0.0525 -0.0375 -0.2201
 4195W        W 7939   4.517   5.079  10.196  0.0437  0.2389  0.0720
 4196W        W 7940   1.270   8.986  10.372 -0.0097 -0.2408 -0.0743
 4197W        W 7941   0.150   4.228  10.446 -0.1597 -0.0366 -0.0877
 4198W        W 7942   5.462   9.594   0.362 -0.0447 -0.0869 -0.1394
 4199W        W 7943   8.432   4.972   3.225  0.0131 -0.2089  0.0853
 4200W        W 7944   1.913   0.445   9.179 -0.2319  0.1200  0.0951
 4201W        W 7945   0.167   1.918   3.791  0.3132 -0.1735  0.3518
 4202W        W 7946   1.109   0.897   9.945 -0.2406  0.0053 -0.1642
 4203W        W 7947   1.554  10.157   3.106  0.3339 -0.1806  0.0633
 4204W        W 7948   2.960   2.665   2.599 -0.2571 -0.2692  0.0687
 4205W        W 7949   8.929  10.199   0.702  0.2306 -0.0497 -0.1078
 4206W        W 7950   8.844   3.992  10.270  0.1244  0.0046  0.1350
 4207W        W 7951   1.130   4.623   9.160 -0.0362  0.2016  0.0117
 4208W        W 7952   7.137   3.053   7.531  0.0495 -0.3880  0.1951
 4209W        W 7953   5.950   9.499  10.984  0.1067 -0.1398 -0.0355
 4210W        W 7954   8.509   6.300  11.400  0.0187  0.0471  0.1030
 4211W        W 7955   3.756   6.924  11.986 -0.0847  0.4750  0.1835
 4212W        W 7956   1.636   7.359   2.345  0.0849 -0.0248 -0.2882
 4213W        W 7957   9.417   9.570  11.909 -0.1138  0.0702  0.0696
 4214W        W 7958   6.583   3.275   3.651  0.0413 -0.1520 -0.1002
 4215W        W 7959   2.877   6.090   9.034  0.1859 -0.2370 -0.1478
 4216W        W 7960   3.034   4.712  10.319 -0.0889 -0.0004  0.1354
 4217W        W 7961   5.847   2.325  11.644 -0.0262 -0.0314 -0.2750
 4218W        W 7962   7.558   2.840   9.916 -0.1454 -0.0988 -0.0043
 4219W        W 7963   8.272   3.298   0.311  0.1375 -0.0561  0.0955
 4220W        W 7964   3.436   4.467  10.168 -0.4563 -0.0625 -0.0393
 4221W        W 7965   1.870   4.636  10.789  0.2662  0.1218 -0.0272
 4222W        W 7966   3.500   6.523   1.557 -0.2168 -0.2306  0.0477
 4223W        W 7967   4.529   2.918   8.466 -0.2782 -0.2646  0.2946
 4224W        W 7968   1.938   9.456   2.460  0.0690 -0.1976  0.0213
 4225W        W 7969   4.413   3.686   3.020 -0.0244  0.1479 -0.2623
 4226W        W 7970   4.617   6.646   8.496  0.0916  0.0921 -0.2722
 4227W        W 7971   7.305   6.199   0.977 -0.0383 -0.0929 -0.1948
 4228W        W 7972   5.481   7.050   3.200  0.0788 -0.4252 -0.1984
 4229W        W 7973   5.369   5.240   9.372  0.1353 -0.3028  0.2284
 4230W        W 7974   1.036   6.423   8.396  0.0877  0.1667 -0.1778
 4231W        W 7975   0.571   1.893   1.918 -0.0550 -0.0656 -0.1449
 4232W        W 7976   2.280   5.849  12.042 -0.0730 -0.0031 -0.0323
 4233W        W 7977   1.777   9.595  11.938  0.1784 -0.1493 -0.1640
 4234W        W 7978   6.316   7.322   9.736  0.0604  0.0786 -0.0437
 4235W        W 7979   2.039   1.054   0.831  0.0699  0.0780 -0.2234
 4236W        W 7980   7.091   7.929  10.927  0.0060 -0.1373 -0.1225
 4237W        W 7981   5.543   9.966   3.950  0.4389 -0.0060 -0.1368
 4238W        W 7982   2.016   6.438   1.152 -0.1967  0.1535  0.3633
 4239W        W 7983   4.821   1.030  11.629  0.1309  0.0566 -0.5086
 4240W        W 7984   6.333   0.108   3.477  0.0417 -0.3004 -0.2980
 4241W        W 7985   7.324   6.942   2.449  0.0099  0.2104  0.0088
 4242W        W 7986   5.550   3.309   2.473  0.1170 -0.3952 -0.0164
 4243W        W 7987   3.640   3.959  11.470 -0.2339  0.0801 -0.0994
 4244W        W 7988   8.362   0.333  10.003  0.2761  0.0114 -0.2522
 4245W        W 7989   7.035   7.611  11.308 -0.1271 -0.0177  0.1855
 4246W        W 7990   5.839   9.627   2.774  0.0764  0.1081  0.0759
 4247W        W 7991   9.442   0.276   3.207 -0.0492  0.0397 -0.1756
 4248W        W 7992   3.940   8.404   9.505  0.4418 -0.1035 -0.4624
 4249W        W 7993   5.838   1.828   1.401  0.0549 -0.2637 -0.0367
 4250W        W 7994   1.255   8.775   9.030 -0.0416 -0.0323 -0.1596
 4251W        W 7995   9.109   4.258   8.353  0.1965 -0.1098  0.0949
 4252W        W 7996   5.766   8.679  11.347 -0.0584  0.2303 -0.3163
 4253W        W 7997   0.418   0.542   8.493  0.0424  0.4239  0.0963
 4254W        W 7998   8.856   0.095   9.767 -0.0610 -0.2002  0.4166
 4255W        W 7999   4.838   3.470  11.998  0.0220 -0.1803 -0.0464
 4256W        W 8000   7.937   0.518  10.655  0.0553  0.1439  0.2380
 4257W        W 8001   8.211   8.587   9.350  0.1272 -0.0860  0.5099
 4258W        W 8002   7.105   2.518  10.595 -0.2060  0.0822 -0.1999
 4259W        W 8003   0.006   8.866  10.762  0.1422  0.2416  0.0082
 4260W        W 8004   5.236   4.795   9.146 -0.0251 -0.0052  0.3266
 4261W        W 8005   8.407   1.846  10.445 -0.0120  0.1135  0.0966
 4262W        W 8006   6.864   4.127   8.642 -0.0496  0.1648  0.0070
 4263W        W 8007   5.456   4.543   3.543  0.2077 -0.1464  0.3877
 4264W        W 8008   4.465   5.183   9.402 -0.0633  0.1828  0.1709
 4265W        W 8009   1.784   7.583   8.611  0.3419 -0.1800 -0.0064
 4266W        W 8010   8.680   1.435  12.020  0.2061  0.3111 -0.0733
 4267W        W 8011   7.277   1.893   9.738 -0.2338 -0.0441 -0.3146
 4268W        W 8012   6.200   2.111   1.047  0.1798  0.3086 -0.2271
 4269W        W 8013   1.258   2.991   8.671  0.0050  0.1887 -0.1346
 4270W        W 8014   6.571   6.036  10.263  0.2042  0.2703  0.2424
 4271W        W 8015   7.465   8.224   1.678 -0.0768  0.0351  0.0813
 4272W        W 8016   7.043   9.210   9.720  0.1340  0.0506 -0.1672
 4273W        W 8017   8.749   2.550   8.450 -0.0509 -0.3027 -0.0347
 4274W        W 8018   8.732   2.613   0.643  0.1848 -0.0783  0.3080
 4275W        W 8019   1.940   2.455   9.862 -0.1395  0.0871  0.1138
 4276W        W 8020   6.284   0.300  11.694 -0.1576 -0.1940 -0.0395
 4277W        W 8021   3.676   9.388  10.086  0.1508  0.1263  0.0566
 4278W        W 8022   6.238   1.687   4.207 -0.1693 -0.1803 -0.0221
 4279W        W 8023   0.749   3.727   1.237  0.1635 -0.2015 -0.0551
 4280W        W 8024   3.817   6.756   2.062  0.0138  0.2865  0.2011
 4281W        W 8025   8.742   7.216   7.656  0.0867  0.2328 -0.0937
 4282W        W 8026   7.625   6.948   1.001  0.1862  0.4633  0.0330
 4283W        W 8027   2.160   8.162  11.588  0.1252  0.0978  0.0262
 4284W        W 8028   8.049   0.059  10.311  0.2656 -0.0185 -0.1992
 4285W        W 8029   3.156   6.956   0.503 -0.0896 -0.0873  0.0994
 4286W        W 8030   1.539   6.541   8.728 -0.1402  0.2201  0.1188
 4287W        W 8031   1.791   3.722   9.925 -0.1602  0.0148 -0.1779
 4288W        W 8032   7.099   3.785   8.398  0.3063  0.0098  0.1230
 4289W        W 8033   3.188   0.064  11.732 -0.1835 -0.0975  0.3143
 4290W        W 8034   2.897   9.913   9.802 -0.0226  0.2036  0.0399
 4291W        W 8035   6.548   2.412  11.034  0.2225  0.3836  0.3610
 4292W        W 8036  10.002   2.120   1.364 -0.0188 -0.0978 -0.1617
 4293W        W 8037   0.276   3.632   1.261  0.1744 -0.2032 -0.2329
 4294W        W 8038   8.278   5.326   9.564 -0.0682 -0.1266  0.1870
 4295W        W 8039   3.094   0.676  11.442 -0.0895  0.0049  0.0131
 4296W        W 8040   1.203   6.667  11.024  0.0341 -0.3182 -0.0073
 4297W        W 8041   3.152   2.244   9.405  0.0962  0.0863  0.0546
 4298W        W 8042   9.112   2.795   9.969 -0.2005  0.2283  0.1372
 4299W        W 8043   0.319   0.058  12.059 -0.0613  0.0589 -0.1823
 4300W        W 8044   3.621   8.686   0.431  0.0388  0.3782 -0.0512
 4301W        W 8045   5.967   3.808  11.058 -0.3646  0.0327  0.3580
 4302W        W 8046   0.766   2.513   0.624 -0.0346 -0.1691  0.2766
 4303W        W 8047   9.590   8.884   0.580  0.0253  0.1075 -0.1950
 4304W        W 8048   7.076   9.186   3.546 -0.4026  0.2750 -0.0173
 4305W        W 8049   7.215   7.828   2.164  0.1932 -0.1318 -0.1561
 4306W        W 8050   0.168   5.432   9.974  0.0105 -0.1871 -0.0979
 4307W        W 8051   4.784   3.796   9.801  0.1987  0.0933 -0.0418
 4308W        W 8052   8.934   2.677   8.948 -0.0675 -0.0135 -0.0591
 4309W        W 8053   4.444   0.323   0.424  0.1784  0.0191  0.3781
 4310W        W 8054   8.438   2.254  11.807 -0.0030  0.0498 -0.1952
 4311W        W 8055   7.143   0.332   1.840 -0.3428  0.1679 -0.1429
 4312W        W 8056   7.135   9.029  10.495  0.3135  0.2346  0.1087
 4313W        W 8057   4.617   0.193  12.056 -0.0033 -0.0411  0.0710
 4314W        W 8058   5.833   5.782   3.331 -0.0120 -0.0452 -0.4439
 4315W        W 8059   6.418   2.986   2.676 -0.2249  0.0729 -0.0527
 4316W        W 8060   1.233   5.501  10.044 -0.1508 -0.1034  0.2344
 4317W        W 8061   3.521   3.581   8.010  0.0414 -0.0210  0.0210
 4318W        W 8062   6.873   9.931  10.845  0.2538 -0.3533 -0.2049
 4319W        W 8063   1.034   9.150   9.364 -0.1351  0.0052 -0.1476
 4320W        W 8064   9.290   8.171  11.612 -0.4164 -0.2566  0.4811
 4321W        W 8065   3.399   5.966   2.626  0.0835  0.1535 -0.1936
 4322W        W 8066   3.682   4.925  11.342  0.2579 -0.1442  0.3026
 4323W        W 8067   0.998   6.346   0.526 -0.2815 -0.1113  0.1474
 4324W        W 8068   2.665   8.816   0.584  0.1495 -0.1569  0.0791
 4325W        W 8069   2.445   7.176   9.726 -0.1137  0.1869  0.0669
 4326W        W 8070   8.788   3.172  10.783 -0.0465  0.2721 -0.2058
 4327W        W 8071   4.561   6.842  11.521 -0.1774 -0.1257  0.0882
 4328W        W 8072   2.323   5.015   7.738 -0.3872  0.2214  0.0443
 4329W        W 8073   1.893   8.627  11.778  0.1304  0.2658 -0.0662
 4330W        W 8074   8.110   8.166  10.408 -0.3171  0.1831  0.1149
 4331W        W 8075   5.876   1.254   9.208  0.0805 -0.0145 -0.1612
 4332W        W 8076   5.978   3.326  10.025 -0.2894  0.1207 -0.1864
 4333W        W 8077   4.561   2.743   0.403 -0.0891  0.3062 -0.1083
 4334W        W 8078   2.499   3.352  10.588 -0.1384 -0.0879  0.3324
 4335W        W 8079   0.720   2.302   9.675 -0.1961  0.3015  0.0133
 4336W        W 8080   8.288   1.932   9.585 -0.1947  0.3764 -0.1283
 4337W        W 8081   7.290   2.959   8.063 -0.1881  0.1462  0.3445
 4338W        W 8082   8.205   6.630   1.136 -0.0119 -0.0249 -0.1324
 4339W        W 8083   3.392   8.279   0.712 -0.2482 -0.1916  0.1163
 4340W        W 8084   4.329   1.197   3.097 -0.0538  0.1448  0.0238
 4341W        W 8085   6.900   8.963   3.016 -0.3936  0.0025  0.0834
 4342W        W 8086   1.909   5.205  10.800 -0.1285 -0.0338  0.1742
 4343W        W 8087   6.027   6.349   1.398  0.0126 -0.1239 -0.1803
 4344W        W 8088   7.896   5.721   2.894 -0.0456  0.3502  0.2509
 4345W        W 8089   9.200   6.033   8.287 -0.1854  0.1870 -0.2245
 4346W        W 8090   4.254   7.646   2.629  0.0275  0.2408 -0.6043
 4347W        W 8091   5.873   2.235   0.008  0.1421 -0.3265 -0.1111
 4348W        W 8092   9.012   6.015   1.216  0.1004 -0.2027  0.0091
 4349W        W 8093   3.162   2.246   1.180  0.3366  0.1398 -0.0854
 4350W        W 8094   0.243   4.918   8.764 -0.0453 -0.2985 -0.2612
 4351W        W 8095   8.847   1.057  11.175 -0.3289 -0.4688  0.4070
 4352W        W 8096   9.196   0.956   9.657  0.2284 -0.0613 -0.0317
 4353W        W 8097   8.403   8.539  10.658 -0.0672 -0.2576 -0.0644
 4354W        W 8098   1.955   6.738   2.086 -0.0710 -0.0345  0.0290
 4355W        W 8099   6.769   2.393  10.246 -0.3885  0.3176 -0.0567
 4356W        W 8100   8.398   0.291  11.528 -0.2473 -0.0990 -0.2316
 4357W        W 8101   9.277   1.583   7.859  0.3762 -0.0875 -0.2321
 4358W        W 8102   6.664   6.278  12.135  0.0297  0.0960 -0.1757
 4359W        W 8103   4.748   1.524  11.921 -0.0845 -0.1434  0.0950
 4360W        W 8104   6.065   2.463   0.763 -0.1573 -0.3458 -0.2612
 4361W        W 8105   0.037   9.925   0.129 -0.1902  0.0915  0.1897
 4362W        W 8106   5.167   6.075   9.443 -0.0499  0.0560 -0.0360
 4363W        W 8107   9.409   3.312  10.037  0.2466  0.0463 -0.0562
 4364W        W 8108   9.725   7.595   9.545 -0.0543 -0.1240  0.0748
 4365W        W 8109   8.165   6.114   0.989  0.0905  0.0646 -0.3308
 4366W        W 8110   3.280   9.663   3.524 -0.0957  0.2306 -0.1669
 4367W        W 8111  10.081   6.194  11.705  0.1506 -0.0226 -0.0922
 4368W        W 8112   8.629   7.044   8.115 -0.0702  0.0871  0.1740
 4369W        W 8113   7.670   6.348   8.708 -0.0642 -0.1813 -0.1746
 4370W        W 8114   6.033   2.932  10.564 -0.1174 -0.1825  0.4571
 4371W        W 8115  10.153   5.399   0.003  0.0435  0.0955 -0.3055
 4372W        W 8116   3.455   1.023  11.288  0.1003 -0.1681  0.1606
 4373W        W 8117   8.185   9.427   8.764  0.0289 -0.1947 -0.2732
 4374W        W 8118   9.126   1.125   2.560  0.5980  0.2210  0.1518
 4375W        W 8119   4.899   5.383   0.995  0.0193  0.1445 -0.0406
 4376W        W 8120   2.113   5.922   8.070 -0.2661  0.3166  0.1023
 4377W        W 8121  10.050   4.789   9.441  0.1873  0.4126 -0.0878
 4378W        W 8122   5.101  10.161   2.754  0.1524  0.0987  0.1826
 4379W        W 8123   4.306   8.279   8.104 -0.0435  0.2441  0.2276
 4380W        W 8124   3.208   4.450   7.551  0.0257 -0.1765 -0.1262
 4381W        W 8125   7.847   6.818  10.593  0.0108  0.0283 -0.3304
 4382W        W 8126   3.207   2.051  11.128 -0.3098  0.0838  0.1675
 4383W        W 8127   9.837   7.120   1.657  0.1351  0.2217  0.1286
 4384W        W 8128   5.153   0.626  11.136  0.2727  0.1830 -0.0893
 4385W        W 8129   6.539   7.343   9.265  0.0308  0.2286 -0.0505
 4386W        W 8130   9.525   4.715   0.256  0.2530  0.0928 -0.1330
 4387W        W 8131   3.115   0.810   0.304  0.1292  0.1787 -0.2876
 4388W        W 8132   6.053   4.715   0.994 -0.0391  0.2694 -0.1763
 4389W        W 8133   8.029   0.183  11.148 -0.0920 -0.0174  0.0035
 4390W        W 8134   8.748   0.386  11.914 -0.1089 -0.0803  0.1585
 4391W        W 8135   5.952   9.695  11.624  0.1962  0.1777 -0.1034
 4392W        W 8136   7.037   7.758   3.744  0.0550 -0.0775  0.1916
 4393W        W 8137   1.732   1.009   2.431  0.2416 -0.3844 -0.0977
 4394W        W 8138   4.020   4.049   8.129  0.0446 -0.0720 -0.1082
 4395W        W 8139   8.344   3.790  10.339  0.1902 -0.1022 -0.1442
 4396W        W 8140   1.245   7.760   1.055  0.1135 -0.0555 -0.0381
 4397W        W 8141   3.274   4.931  11.671  0.0644 -0.1792 -0.2025
 4398W        W 8142   6.277   8.871   9.529 -0.0593  0.1534 -0.1593
 4399W        W 8143   8.050   8.791   7.566  0.5259 -0.0028 -0.0491
 4400W        W 8144   6.302   0.935  10.983 -0.0197 -0.0183 -0.0764
 4401W        W 8145   7.215   7.575   3.258 -0.2122  0.0484 -0.2420
 4402W        W 8146   0.775   3.661   2.051  0.1495  0.0786 -0.2046
 4403W        W 8147   6.302   5.231   8.396 -0.1170 -0.0210  0.0811
 4404W        W 8148   0.845   7.271   8.877  0.0046  0.0152  0.0643
 4405W        W 8149   7.536   8.295   9.588  0.1027  0.0563 -0.0183
 4406W        W 8150   7.075   3.914   0.642 -0.1198  0.1993 -0.1684
 4407W        W 8151   8.322   0.664  12.143  0.2019  0.0781 -0.2151
 4408W        W 8152   5.557   0.588   0.491 -0.4003  0.1042  0.0572
 4409W        W 8153   7.740   4.888   7.828 -0.0956 -0.1392  0.0460
 4410W        W 8154   7.617   3.456   2.652  0.1531 -0.1292  0.1311
 4411W        W 8155   3.431   2.100   2.141  0.0933  0.3178  0.0681
 4412W        W 8156   2.039   1.513   1.484  0.1877  0.1536 -0.3173
 4413W        W 8157   2.967   8.302  11.431 -0.0077  0.3655  0.1832
 4414W        W 8158   1.775   6.375  11.988 -0.0123  0.1890  0.3403
 4415W        W 8159   2.442   7.253  11.273 -0.0445  0.5078 -0.2272
 4416W        W 8160   1.097   3.226   7.640  0.0145  0.1558  0.3468
 4417W        W 8161   3.517   2.843   7.461  0.2946 -0.2805 -0.0305
 4418W        W 8162   8.008   9.606   2.603 -0.1896  0.1889 -0.2205
 4419W        W 8163   7.537   1.200   7.935 -0.2273  0.2969 -0.1019
 4420W        W 8164   7.760   8.567   0.845 -0.0637  0.0497  0.1624
 4421W        W 8165   6.875   5.805   7.133  0.1825  0.2043 -0.1789
 4422W        W 8166  10.022   6.986  10.811 -0.3410 -0.1513  0.0522
 4423W        W 8167   6.145   6.143   0.019  0.0599 -0.1283 -0.0992
 4424W        W 8168  10.036   4.220   8.685  0.0559 -0.0742  0.0731
 4425W        W 8169   3.471   5.892   7.936  0.2592 -0.2054  0.0164
 4426W        W 8170   2.012   8.820  10.802 -0.0937  0.1347 -0.0827
 4427W        W 8171   0.807   2.991   0.764 -0.0387  0.0262  0.0052
 4428W        W 8172   3.514  10.102   1.751 -0.2840  0.0378 -0.0389
 4429W        W 8173   9.058   8.979   9.270  0.0612  0.2254  0.1841
 4430W        W 8174   7.773   7.325   1.896 -0.1636 -0.0441  0.1651
 4431W        W 8175   6.199   6.751   2.735  0.1641  0.0711 -0.0374
 4432W        W 8176   0.677   6.090   1.545 -0.0241 -0.3313 -0.1860
 4433W        W 8177   9.577   8.615   1.024  0.1034 -0.2847 -0.0067
 4434W        W 8178   2.889   1.843   2.960  0.0910 -0.3024 -0.0121
 4435W        W 8179   5.474   0.241   9.688  0.2929 -0.1329  0.2050
 4436W        W 8180   4.499   6.502   0.303 -0.0516  0.2768 -0.0003
 4437W        W 8181   3.164   3.937   0.074 -0.0195 -0.2073 -0.1128
 4438W        W 8182   6.749   8.437   2.224 -0.0690 -0.0928  0.2493
 4439W        W 8183   1.829   6.149   3.283  0.0663  0.2270  0.0892
 4440W        W 8184   8.271   4.056  11.231  0.1978  0.0465 -0.0731
 4441W        W 8185   6.495   7.954   2.165  0.4874  0.0715 -0.0057
 4442W        W 8186  10.123   9.098   8.796 -0.0244 -0.0273  0.3511
 4443W        W 8187   6.264   8.240   2.547  0.0984  0.1018  0.2501
 4444W        W 8188   8.380   8.221   1.388 -0.1297  0.2282 -0.2354
 4445W        W 8189   5.353   3.211   8.044  0.2353 -0.2159  0.1203
 4446W        W 8190   1.168   3.603  11.948 -0.0161 -0.0299 -0.1159
 4447W        W 8191   0.575   9.229   8.033  0.0015 -0.2304  0.0291
 4448W        W 8192   8.258   0.583   9.004 -0.1088  0.1146  0.0629
 4449W        W 8193   1.276   8.190  10.564 -0.2949  0.1219 -0.2804
 4450W        W 8194   0.886   4.483   8.154 -0.0943 -0.1981  0.0575
 4451W        W 8195   6.228   7.927   8.206 -0.0348 -0.0617 -0.1111
 4452W        W 8196   8.712   5.097   2.740  0.0062 -0.1782  0.1990
 4453W        W 8197   5.453   2.539   2.810 -0.0535  0.1376  0.2445
 4454W        W 8198   6.725   9.921   0.003 -0.2733 -0.3434  0.0049
 4455W        W 8199   1.014   7.767  10.351 -0.1825 -0.2213 -0.0882
 4456W        W 8200   4.782   6.052  11.583  0.2538  0.1157  0.0727
 4457W        W 8201   5.623   6.081   0.020 -0.0570 -0.1428  0.1158
 4458W        W 8202   0.019   2.236  10.182 -0.0108 -0.3969 -0.1525
 4459W        W 8203   1.571   4.011   3.163  0.1148  0.0812  0.0111
 4460W        W 8204   7.762   5.558  11.553 -0.2170  0.0163 -0.0235
 4461W        W 8205   4.643   9.906  12.021  0.0912  0.4228  0.1751
 4462W        W 8206   6.599   3.169   9.847 -0.4272  0.4925  0.1719
 4463W        W 8207   4.685   9.088   0.622  0.0477  0.2438 -0.1693
 4464W        W 8208   7.808   5.973   1.850  0.3822  0.3558  0.1366
 4465W        W 8209   9.652   9.822   3.127  0.2566  0.1202 -0.0006
 4466W        W 8210   3.462   1.277   8.286 -0.2248 -0.2718 -0.0122
 4467W        W 8211   8.675   9.788   8.058 -0.2299 -0.2881 -0.0944
 4468W        W 8212   1.469   8.654   0.852 -0.1520  0.1005 -0.0516
 4469W        W 8213   7.563   3.339   1.195 -0.1295  0.1010  0.0592
 4470W        W 8214   8.749   6.088   9.658 -0.1355  0.2467  0.1776
 4471W        W 8215   1.906   7.021   8.756 -0.1846 -0.1034 -0.1310
 4472W        W 8216   1.570   0.501  11.526 -0.0697  0.1348 -0.0795
 4473W        W 8217   3.326   0.345   0.300  0.0755 -0.5217 -0.2239
 4474W        W 8218   1.116  10.103   2.774 -0.2713 -0.1636  0.0860
 4475W        W 8219   9.667   0.557  11.435  0.1198 -0.2635 -0.3982
 4476W        W 8220   2.868   1.727  11.456 -0.0102 -0.0815  0.0137
 4477W        W 8221   2.258   0.389   9.970 -0.1122 -0.1315 -0.1270
 4478W        W 8222   8.819   5.063  11.971  0.1317 -0.1143  0.1149
 4479W        W 8223   4.609   7.484  10.533 -0.0706  0.1935 -0.0074
 4480W        W 8224   5.915   4.236   1.534  0.1056  0.3241 -0.1023
 4481W        W 8225   2.512   2.510   8.623 -0.2266 -0.0994  0.1639
 4482W        W 8226   8.792   1.170   7.391 -0.0018 -0.0688 -0.1021
 4483W        W 8227   2.234   4.632   8.076 -0.0429  0.0944 -0.2650
 4484W        W 8228   9.179  10.053   1.343 -0.2483 -0.1465  0.0491
 4485W        W 8229   5.766   7.607   8.314  0.1452  0.1943  0.1232
 4486W        W 8230   2.781   8.907   2.599 -0.0144  0.0087 -0.2169
 4487W        W 8231   0.453  10.165   9.671 -0.1184 -0.2120 -0.1396
 4488W        W 8232   9.425   2.100   8.634 -0.0171  0.1312 -0.1903
 4489W        W 8233   9.188   5.737   7.136  0.0974 -0.0994  0.0489
 4490W        W 8234   2.189   1.073   0.170  0.0768  0.1725 -0.1255
 4491W        W 8235   9.913   1.809   2.381  0.1757 -0.0303 -0.3201
 4492W        W 8236   0.588   5.868  11.499 -0.3302 -0.1735 -0.1193
 4493W        W 8237   1.515   4.554   8.737  0.1452  0.0960 -0.2035
 4494W        W 8238   3.034   6.115   1.418 -0.0488 -0.0458  0.4475
 4495W        W 8239  10.186   7.783   9.941  0.1709  0.0799  0.0353
 4496W        W 8240   3.223   4.150   2.734  0.1314 -0.0632  0.2767
 4497W        W 8241   3.909   8.298   0.370  0.0721  0.0656  0.1264
 4498W        W 8242   2.586   9.916   3.796  0.1965 -0.2122  0.2618
 4499W        W 8243   9.205   0.295   1.636 -0.1087  0.0976  0.1163
 4500W        W 8244   7.336   2.098  10.523 -0.0673  0.2114 -0.3107
 4501W        W 8245   0.425   5.273  11.626 -0.0623  0.0157  0.1322
 4502W        W 8246   5.878   3.322   7.144 -0.2690  0.0843 -0.5140
 4503W        W 8247   6.266   6.489   0.342 -0.1221  0.2365 -0.1723
 4504W        W 8248   9.844   4.911  12.052  0.2684 -0.0275  0.1295
 4505W        W 8249   3.511   5.598  10.198 -0.3142 -0.1909 -0.2047
 4506W        W 8250   2.103   2.272   0.221  0.3157 -0.2708 -0.0508
 4507W        W 8251   2.415   6.402  10.319 -0.3186 -0.0402 -0.1296
 4508W        W 8252   2.035   6.695   3.618 -0.0585  0.0155  0.0484
 4509W        W 8253   6.083   3.375   8.609  0.1213 -0.1257 -0.1312
 4510W        W 8254   4.180   2.516   4.013 -0.2041  0.0928 -0.2690
 4511W        W 8255   8.882   9.292  10.628  0.2268  0.0653 -0.3018
 4512W        W 8256   9.263   8.638  11.855  0.3199 -0.2477  0.0108
 4513W        W 8257   5.324   8.236   0.475  0.1785 -0.0816 -0.1977
 4514W        W 8258   9.217   5.197   0.213 -0.4515 -0.1545  0.2932
 4515W        W 8259   5.189   0.910   0.405 -0.0881  0.1069  0.1010
 4516W        W 8260   6.951   9.082  11.093 -0.1873 -0.2291 -0.0964
 4517W        W 8261   1.533   4.992   0.308  0.2062  0.2537 -0.1980
 4518W        W 8262   5.883   1.778   9.065 -0.0112 -0.1257  0.3743
 4519W        W 8263   4.601   4.147  10.487 -0.0128 -0.2267 -0.4112
 4520W        W 8264   1.783   2.490   1.283 -0.2814 -0.1916 -0.0742
 4521W        W 8265   5.227   0.809   3.036  0.0862  0.0064 -0.2743
 4522W        W 8266   8.262   8.619  10.190 -0.3614 -0.2055  0.0353
 4523W        W 8267   4.640   9.336  11.644  0.0768  0.1296 -0.1313
 4524W        W 8268   4.702   6.207   2.206  0.1898  0.1367  0.0547
 4525W        W 8269   5.938   2.434  10.280 -0.0599  0.2146 -0.0994
 4526W        W 8270   7.006   4.499   0.800 -0.3775  0.0674  0.0814
 4527W        W 8271   4.509   8.423  10.316 -0.0251 -0.0209 -0.3685
 4528W        W 8272   9.595   4.492   2.868 -0.2164  0.1112  0.0708
 4529W        W 8273   7.258   5.429  11.483  0.2008  0.3030  0.1700
 4530W        W 8274   7.029   0.501   1.347  0.0262 -0.2230  0.1139
 4531W        W 8275   4.252   4.952   3.343 -0.2230 -0.1331  0.1411
 4532W        W 8276   8.183   6.307   0.531 -0.0349  0.1257 -0.0714
 4533W        W 8277   6.180   8.431   0.365  0.2741  0.0112  0.1365
 4534W        W 8278   4.870  10.183   1.280  0.1854  0.0751  0.0061
 4535W        W 8279  10.146   5.461   1.312 -0.2607 -0.1942  0.0605
 4536W        W 8280   7.265   9.681   9.513  0.1077 -0.0817  0.0567
 4537W        W 8281   1.400   8.480  10.159 -0.1995  0.0013 -0.0586
 4538W        W 8282   6.025   7.669   2.177 -0.1709  0.0502 -0.0114
 4539W        W 8283   4.610   1.157   3.692  0.0563  0.0649 -0.0219
 4540W        W 8284   0.197   8.211   2.338 -0.1226  0.1613 -0.3576
 4541W        W 8285   5.093   2.972   1.056  0.2263  0.3081  0.1629
 4542W        W 8286   9.414   4.611  10.089 -0.1689  0.0893 -0.3345
 4543W        W 8287   2.441   4.481   4.027 -0.2060  0.1706  0.2313
 4544W        W 8288   0.937   2.632   8.414  0.2874 -0.0748 -0.0041
 4545W        W 8289   7.424   8.650   1.301  0.3138  0.2700  0.1999
 4546W        W 8290   6.397   1.574   7.286 -0.0701  0.1922  0.0396
 4547W        W 8291   0.411   3.925  12.061  0.1835  0.1238  0.1939
 4548W        W 8292   3.101   1.653  10.228  0.2389  0.0772  0.1846
 4549W        W 8293   5.283   5.655   3.471 -0.3588 -0.2037 -0.0591
 4550W        W 8294   2.247   1.583   8.403  0.5305 -0.2623  0.0227
 4551W        W 8295   7.996  10.191   8.684 -0.1515  0.1030  0.0261
 4552W        W 8296   0.785   5.823   0.555  0.2177 -0.0110  0.3330
 4553W        W 8297   5.250   0.425   2.704 -0.1076  0.2834  0.2005
 4554W        W 8298   7.876   7.306   9.897  0.1644 -0.3836 -0.0112
 4555W        W 8299   5.009   9.380  10.780 -0.1976  0.1880  0.1747
 4556W        W 8300   4.392   7.577   3.127  0.5237  0.1363 -0.0700
 4557W        W 8301  10.147   9.247  11.203 -0.1797 -0.2402 -0.0288
 4558W        W 8302   4.214   3.220   2.970  0.3741 -0.0152 -0.0047
 4559W        W 8303   5.513   7.322   3.740  0.4880  0.2674 -0.2107
 4560W        W 8304   6.949   0.564  10.617 -0.1781 -0.0364  0.0499
 4561W        W 8305   4.035   3.393   3.385  0.0582 -0.0887  0.1549
 4562W        W 8306  10.164   9.968   9.150  0.5163  0.2927 -0.0213
 4563W        W 8307   4.649   1.651   0.701  0.2390 -0.0717 -0.2353
 4564W        W 8308   3.376   0.641  10.957 -0.1215  0.0001 -0.1211
 4565W        W 8309   3.089   8.680   2.034  0.0807 -0.2172  0.2876
 4566W        W 8310  10.189   6.765   3.107 -0.0806 -0.1541  0.1265
 4567W        W 8311   0.303   5.733   9.151 -0.0776 -0.0241 -0.0533
 4568W        W 8312   9.887   5.728  11.895 -0.1525 -0.1132 -0.1489
 4569W        W 8313   7.133   6.886   9.201 -0.4115 -0.2685 -0.0366
 4570W        W 8314   3.681   7.615   8.982 -0.2739 -0.2664  0.0220
 4571W        W 8315   9.535   1.525  10.171 -0.1384 -0.0722 -0.0719
 4572W        W 8316   3.945   4.373   0.028  0.3619 -0.2704 -0.0573
 4573W        W 8317   0.432   2.996  11.870 -0.0458  0.0661  0.0268
 4574W        W 8318   0.967   0.318  10.353  0.1629 -0.3084  0.3099
 4575W        W 8319   4.507   7.547  10.985 -0.0733 -0.1030 -0.0968
 4576W        W 8320   0.589   4.023  10.294 -0.1348 -0.0810  0.2967
 4577W        W 8321   6.340   2.169  10.226  0.0103 -0.2033  0.0191
 4578W        W 8322   1.621   1.619   9.575  0.2971 -0.1289  0.1161
 4579W        W 8323   5.924   1.376   3.134 -0.3412 -0.0292  0.1121
 4580W        W 8324   9.140   3.105   1.214  0.1021  0.1664 -0.0068
 4581W        W 8325   8.046   0.779   2.969  0.0855 -0.1535  0.0850
 4582W        W 8326   0.478   3.699   0.819 -0.0032 -0.2154  0.2295
 4583W        W 8327   4.469   7.139   8.599  0.2152  0.4287  0.0917
 4584W        W 8328   4.902   6.198   0.531  0.0294  0.4395 -0.1614
 4585W        W 8329   2.449   9.455   2.034 -0.3331  0.4342  0.0709
 4586W        W 8330   4.242   9.884   2.843  0.1814  0.2957 -0.0296
 4587W        W 8331   4.719   3.147  11.589  0.1018  0.0829 -0.0241
 4588W        W 8332   0.816   6.953   9.310 -0.3075  0.0422 -0.3106
 4589W        W 8333   0.372   3.797   2.972  0.0670  0.1789  0.1313
 4590W        W 8334   7.886   2.704   1.499  0.0497 -0.1799 -0.1780
 4591W        W 8335   8.031   6.998   8.938  0.1989  0.0370  0.2792
 4592W        W 8336   2.428   3.622   1.484 -0.1470  0.2118  0.4530
 4593W        W 8337   4.924   7.373   8.782  0.0128  0.0089  0.1712
 4594W        W 8338   3.930   0.222   1.637 -0.2149 -0.0039 -0.1722
 4595W        W 8339   6.637   7.420  12.103 -0.1918  0.1350 -0.1716
 4596W        W 8340   5.075   1.950  11.100 -0.3287  0.1973 -0.0143
 4597W        W 8341   9.210   3.139   2.854  0.2666 -0.1892 -0.0377
 4598W        W 8342   8.199   5.771   2.304 -0.1992  0.0590 -0.1302
 4599W        W 8343   1.488   6.129   2.036  0.0459 -0.1057  0.0803
 4600W        W 8344   7.842   8.325   1.287  0.0633 -0.2025  0.3141
 4601W        W 8345   8.184   3.605   1.519 -0.4209  0.0737  0.2126
 4602W        W 8346   7.977   0.916   8.357 -0.0991  0.2556  0.0180
 4603W        W 8347   3.240   1.093   2.199  0.1018 -0.0481  0.0552
 4604W        W 8348   8.111   5.522   3.357 -0.0178  0.0365  0.1263
 4605W        W 8349   0.397   4.507   2.710  0.0613 -0.3376  0.2827
 4606W        W 8350   5.331   7.558  12.015  0.1091 -0.3170 -0.3620
 4607W        W 8351   3.325   9.744   9.609 -0.0737 -0.0134 -0.2630
 4608W        W 8352   8.586   5.829   0.943  0.2624 -0.1534 -0.1413
 4609W        W 8353   9.784   6.816   9.105  0.3299 -0.2639 -0.2018
 4610W        W 8354   8.965   5.209   0.673 -0.0968 -0.0112 -0.0926
 4611W        W 8355   4.867   6.789   0.086  0.1410 -0.0381 -0.1558
 4612W        W 8356   6.135   0.225  10.370  0.3000  0.1352  0.3592
 4613W        W 8357   3.365   6.152   0.173 -0.0443  0.3688  0.0842
 4614W        W 8358   0.999  10.054   2.232 -0.3058  0.0979 -0.3347
 4615W        W 8359   6.915   6.876   2.066 -0.2378  0.0612  0.1374
 4616W        W 8360   4.728   5.903   8.957  0.0951 -0.1139  0.2266
 4617W        W 8361   8.585   5.934  10.244  0.1287 -0.1318 -0.1143
 4618W        W 8362   7.838   6.366  10.203  0.0323  0.2732  0.4836
 4619W        W 8363   8.488   7.737  11.491 -0.0753 -0.1094  0.1250
 4620W        W 8364   4.523   2.259  10.463 -0.3132 -0.0311 -0.2893
 4621W        W 8365   8.439   7.102   3.897  0.2451  0.0910  0.0913
 4622W        W 8366   6.083  10.203  12.033  0.1012 -0.0710 -0.1865
 4623W        W 8367   6.456   9.011   2.499  0.1392 -0.1632 -0.1187
 4624W        W 8368   8.666   9.004   1.060  0.0815 -0.3408 -0.0023
 4625W        W 8369  10.027   4.179  10.883 -0.1368 -0.1608  0.1218
 4626W        W 8370   2.047   3.898  11.382 -0.0890  0.1191  0.1867
 4627W        W 8371   0.952   0.029  11.211 -0.2783 -0.1437  0.1236
 4628W        W 8372   1.484   6.164   0.394 -0.4621 -0.2085 -0.0423
 4629W        W 8373   6.511   6.181  11.174  0.0329 -0.1330 -0.0592
 4630W        W 8374   0.359  10.104   8.249 -0.0267 -0.2743  0.3383
 4631W        W 8375   7.577   0.047   1.674 -0.2544  0.2334  0.1478
 4632W        W 8376   8.587   8.665   1.500 -0.1880 -0.0672  0.1971
 4633W        W 8377   6.806   8.809   9.313 -0.4479  0.0359  0.2564
 4634W        W 8378   3.176   9.712   1.807  0.0821  0.0044  0.2335
 4635W        W 8379   0.632   4.092   8.324 -0.1327 -0.4321  0.2082
 4636W        W 8380   8.157   3.329   9.412  0.0720 -0.0206 -0.4928
 4637W        W 8381   3.730   9.533   1.733  0.0869 -0.1901  0.1389
 4638W        W 8382   3.455   9.217   0.343 -0.1930  0.1710 -0.3197
 4639W        W 8383   0.914   9.324   3.342 -0.0445 -0.0028  0.2761
 4640W        W 8384   6.595   8.153   0.478  0.1027 -0.2186  0.0486
 4641W        W 8385   7.848   9.276   8.365 -0.1402  0.0150  0.4250
 4642W        W 8386   7.684   9.671  10.450  0.1310  0.0085 -0.0304
 4643W        W 8387   1.907   7.911   2.579 -0.2261 -0.2548 -0.3903
 4644W        W 8388   8.789   6.657  11.739  0.1067  0.0257  0.1328
 4645W        W 8389   4.927   6.620   8.108  0.1036  0.3214 -0.0734
 4646W        W 8390   3.361   1.090   3.129  0.0478  0.2584 -0.0708
 4647W        W 8391   0.684   7.552   1.899  0.2171 -0.2325 -0.0268
 4648W        W 8392   7.465   3.109  11.261 -0.0195  0.0802 -0.1103
 4649W        W 8393   2.405   5.261   0.592 -0.0700 -0.1713 -0.4084
 4650W        W 8394   3.886   8.796  11.599 -0.1018  0.1335  0.0947
 4651W        W 8395   7.742   0.914   2.600  0.1717 -0.1065 -0.2319
 4652W        W 8396   6.142   4.748  10.552  0.0758  0.0753  0.0573
 4653W        W 8397   0.715   2.887   9.977 -0.0781 -0.1648 -0.0806
 4654W        W 8398   6.285   7.609   2.564 -0.0873  0.1177  0.0843
 4655W        W 8399   6.910   5.543   1.802  0.0161  0.1956 -0.0221
 4656W        W 8400   9.792   0.480  10.471 -0.0962  0.2870 -0.0770
 4657W        W 8401   0.649   4.481  10.115 -0.1531  0.3751  0.1864
 4658W        W 8402   8.506   9.504   0.118  0.1358  0.2513  0.0393
 4659W        W 8403   0.238   2.677   2.362  0.1610  0.1769 -0.0592
 4660W        W 8404   1.617   9.830   3.479  0.1243 -0.0323 -0.0494
 4661W        W 8405   2.979   1.015   4.993  0.0129  0.0226  0.0724
 4662W        W 8406   0.032   9.865   2.939 -0.2487  0.1096  0.2309
 4663W        W 8407   9.774   5.272  11.740 -0.3073  0.1961  0.1024
 4664W        W 8408   1.857   5.288   9.216 -0.2969 -0.2290  0.0530
 4665W        W 8409   6.903   3.718   0.182  0.0049  0.1034  0.1309
 4666W        W 8410   9.607   5.011   8.398 -0.0630  0.1509 -0.1752
 4667W        W 8411   7.639   8.351   3.801  0.2952  0.1732  0.1195
 4668W        W 8412   2.991   4.779  10.860 -0.0634 -0.1449  0.0696
 4669W        W 8413   8.617   6.070   2.195  0.3575  0.1566 -0.2100
 4670W        W 8414   3.326   3.688   2.810 -0.1799  0.2770 -0.0901
 4671W        W 8415   4.584   1.533   1.955  0.0223 -0.2508  0.1081
 4672W        W 8416   7.027   5.177  10.110  0.0816 -0.1367  0.0444
 4673W        W 8417   2.853   0.500   9.423  0.0033  0.0415 -0.2729
 4674W        W 8418   5.525   9.650   0.865  0.0785  0.0302  0.1767
 4675W        W 8419   2.877   7.401  10.571  0.0357  0.1053  0.1108
 4676W        W 8420   9.382   3.964   2.432 -0.0725 -0.2122 -0.2587
 4677W        W 8421   9.902   5.612   9.933  0.0082 -0.0200  0.0904
 4678W        W 8422   1.821   4.448   9.142  0.1246 -0.0007 -0.2958
 4679W        W 8423   6.247   3.964  10.669  0.2708  0.0002  0.0113
 4680W        W 8424   1.121   7.662   8.938 -0.3074 -0.0463  0.0419
 4681W        W 8425  10.022   7.839   1.522  0.1622  0.2260 -0.3111
 4682W        W 8426   8.758   6.614   2.505  0.0705  0.0905  0.3392
 4683W        W 8427   3.750   1.014  10.845 -0.0736  0.0550 -0.1966
 4684W        W 8428   9.899   5.415   0.758  0.0668 -0.2565 -0.0775
 4685W        W 8429   9.463   5.348   3.370 -0.3893  0.0367  0.0778
 4686W        W 8430   0.920   6.460   2.992 -0.2522 -0.3144 -0.0934
 4687W        W 8431   8.709   5.800  11.612 -0.2358 -0.2158 -0.0772
 4688W        W 8432   0.048   1.190  11.125 -0.0049 -0.5241  0.0937
 4689W        W 8433   7.268   2.487   8.494 -0.1234  0.2449  0.1924
 4690W        W 8434   7.487   7.445  11.099 -0.3039 -0.1501  0.0730
 4691W        W 8435   7.618   7.586   2.401 -0.3573 -0.1108 -0.1248
 4692W        W 8436   8.537   8.764   2.416 -0.2280 -0.1582  0.0122
 4693W        W 8437   2.175   0.598   2.188 -0.2230  0.2330  0.1716
 4694W        W 8438   4.796   1.255   2.906 -0.0964 -0.2578 -0.0847
 4695W        W 8439   1.256   3.745   1.000  0.1754 -0.0265 -0.0553
 4696W        W 8440   7.468   2.975   2.486  0.1377  0.0696 -0.3389
 4697W        W 8441   6.274   9.486   8.740  0.4030 -0.0893 -0.1296
 4698W        W 8442   0.461   7.619   0.968  0.1210 -0.2247 -0.1199
 4699W        W 8443   8.508   7.393   0.857  0.0184 -0.0261 -0.1648
 4700W        W 8444   5.601   4.997   3.194 -0.1168  0.0671 -0.0447
 4701W        W 8445   3.986   7.936   1.342  0.1833  0.2605 -0.0119
 4702W        W 8446   8.272   3.260   1.872  0.2594  0.3260  0.0320
 4703W        W 8447   2.360   4.202  11.901  0.0316 -0.3757  0.1106
 4704W        W 8448   8.567   6.436   7.057 -0.1937 -0.1422  0.0200
 4705W        W 8449   4.687   2.428   8.348 -0.0924 -0.2062 -0.2255
 4706W        W 8450   0.807   4.857   2.837 -0.0780 -0.1480  0.0587
 4707W        W 8451   4.786   8.763   0.290 -0.0082  0.1649  0.1886
 4708W        W 8452   0.733   0.548   7.709 -0.2446 -0.0382  0.1356
 4709W        W 8453   3.062   0.907   2.620  0.0057  0.0815 -0.2117
 4710W        W 8454   0.080   6.222  10.916 -0.1680 -0.0640 -0.1842
 4711W        W 8455   7.960   8.629   2.575 -0.1081 -0.2146 -0.0481
 4712W        W 8456   8.015   1.285   1.272  0.0928  0.4093  0.0745
 4713W        W 8457   9.510   3.017   0.382 -0.0203 -0.0078 -0.0060
 4714W        W 8458   4.084   8.523   3.394  0.0411  0.0152 -0.0811
 4715W        W 8459   4.172   6.686   0.727  0.2268 -0.1922 -0.2362
 4716W        W 8460   0.111   6.194   8.944 -0.1940 -0.1203  0.0325
 4717W        W 8461   5.352   5.352   9.968 -0.0504 -0.1321  0.1243
 4718W        W 8462   0.789   3.842  11.704 -0.0181  0.1502 -0.0563
 4719W        W 8463   2.250   8.037   9.585  0.1080  0.1493 -0.0524
 4720W        W 8464   7.135   9.107   1.454 -0.4178  0.0940 -0.0540
 4721W        W 8465   7.496   2.275   2.117 -0.1997  0.0437 -0.4420
 4722W        W 8466   1.701   5.932   0.764 -0.1138  0.1208  0.1650
 4723W        W 8467   4.023   9.836  10.293  0.1127  0.2751  0.0703
 4724W        W 8468   6.474   6.660   2.251  0.2202 -0.0060 -0.0191
 4725W        W 8469   3.456   9.866  11.570 -0.0082 -0.2498 -0.0629
 4726W        W 8470   8.508   2.109   8.149  0.0943  0.1793 -0.2080
 4727W        W 8471   2.803   6.380   7.647  0.3122 -0.1610 -0.3229
 4728W        W 8472   6.676   5.287  12.119 -0.1056 -0.1189 -0.1259
 4729W        W 8473   8.246   3.321   8.428  0.2904  0.1435 -0.1489
 4730W        W 8474   3.006   3.691  11.321 -0.5311 -0.3255 -0.2461
 4731W        W 8475   6.971   2.578   7.554 -0.2164 -0.2741  0.0326
 4732W        W 8476   4.320   8.406   0.023  0.0707  0.0013  0.0426
 4733W        W 8477   0.835   9.814   3.371  0.1405  0.2023  0.2573
 4734W        W 8478   6.279   4.330   0.198 -0.1041 -0.0530 -0.1262
 4735W        W 8479   9.991   6.343   1.533 -0.4819 -0.2842  0.0067
 4736W        W 8480   9.358   5.175   8.016 -0.1377 -0.0165  0.2063
 4737W        W 8481   3.619   8.169  10.866  0.4390 -0.0982 -0.0875
 4738W        W 8482   7.551   5.097  10.024 -0.0489  0.1220 -0.0993
 4739W        W 8483   7.489   8.341   0.468 -0.0285  0.1089  0.1932
 4740W        W 8484   0.168   4.304   1.732 -0.0194 -0.1270 -0.0914
 4741W        W 8485   0.087   2.182   3.281  0.0738 -0.0199  0.2101
 4742W        W 8486   2.045   9.216   9.194  0.0198 -0.1833  0.2592
 4743W        W 8487   5.142   2.974  11.228 -0.2433 -0.0813  0.0873
 4744W        W 8488   7.127   0.197  10.207 -0.2827  0.5064 -0.0056
 4745W        W 8489   4.650   4.261   9.573  0.2723  0.0825 -0.0252
 4746W        W 8490   3.994   3.677   0.202 -0.3258 -0.1023 -0.0017
 4747W        W 8491   2.173   7.176  11.733  0.0134 -0.1084 -0.0009
 4748W        W 8492   8.002   3.135   2.572  0.1200  0.4475  0.0193
 4749W        W 8493   5.505   3.690  10.316  0.0872  0.1010  0.1401
 4750W        W 8494   7.348   6.021   3.867 -0.0346 -0.2507  0.0150
 4751W        W 8495   8.620   8.622  11.946  0.1309  0.3424 -0.1244
 4752W        W 8496   9.288   8.726   8.290 -0.1488 -0.3915 -0.1214
 4753W        W 8497   3.847   5.950   9.333  0.1684  0.1278  0.0788
 4754W        W 8498   5.385   9.389  10.331 -0.0573  0.2028 -0.2877
 4755W        W 8499   0.128   8.137   3.518 -0.2858  0.1870 -0.2657
 4756W        W 8500   2.755   5.993   3.598 -0.2899  0.3192  0.4443
 4757W        W 8501   7.962   7.777  10.754 -0.0905 -0.0090 -0.0922
 4758W        W 8502   4.034   5.541   4.008  0.0253  0.0849 -0.0257
 4759W        W 8503   5.696   1.651   3.452 -0.2241  0.2087 -0.3579
 4760W        W 8504   1.864   8.773   9.337 -0.0034  0.2449  0.1706
 4761W        W 8505   8.559   4.528  11.943 -0.1437  0.1853  0.1549
 4762W        W 8506   0.207   2.257   0.133  0.2719  0.0572  0.3702
 4763W        W 8507   5.918   2.327   8.782 -0.0182 -0.2740  0.0938
 4764W        W 8508   3.530   9.256   2.781  0.1158 -0.1807 -0.2789
 4765W        W 8509   2.372   1.146   1.743 -0.1737  0.1889  0.1916
 4766W        W 8510   5.745   1.594   9.545  0.3411  0.0373 -0.0054
 4767W        W 8511   2.533   1.383   1.271 -0.3041  0.2126  0.0531
 4768W        W 8512   0.371   9.498   2.782 -0.1043 -0.1384 -0.1709
 4769W        W 8513   5.718   5.300   4.147  0.1755 -0.0689  0.2546
 4770W        W 8514   2.358   6.757   3.216 -0.0494  0.0781 -0.2032
 4771W        W 8515   0.192   7.147  10.564  0.0164 -0.3300  0.2431
 4772W        W 8516   3.774   7.012   8.946  0.1238 -0.0702 -0.1493
 4773W        W 8517   3.527   5.954   1.523 -0.1088  0.2879  0.1946
 4774W        W 8518   8.406   8.056   0.724  0.2007  0.1706 -0.0816
 4775W        W 8519   6.910   4.883   3.086 -0.3077  0.1142  0.0817
 4776W        W 8520   2.737   6.173   9.945 -0.0257 -0.0918 -0.3027
 4777W        W 8521   2.239   8.223   3.316 -0.3552  0.0268  0.2812
 4778W        W 8522   9.598  10.030   8.446 -0.2104 -0.0481  0.1397
 4779W        W 8523   7.260   6.467   7.292  0.0942 -0.2760  0.2840
 4780W        W 8524   8.509  10.193  11.077 -0.0771 -0.1494 -0.0835
 4781W        W 8525   3.283   1.209  10.773 -0.0269 -0.3837 -0.2191
 4782W        W 8526   2.800   2.469   3.517  0.1590  0.0657  0.4006
 4783W        W 8527   6.998   0.167   8.574  0.1536  0.0223 -0.0979
 4784W        W 8528   2.272   4.716   2.131  0.0155  0.1107  0.0614
 4785W        W 8529   7.314   6.713   0.593 -0.0942 -0.0924  0.0294
 4786W        W 8530   9.542   1.884   2.696 -0.0474 -0.2396 -0.2150
 4787W        W 8531   0.367   9.367  11.494 -0.0885 -0.1558 -0.1927
 4788W        W 8532   7.818   6.520   7.964  0.0414  0.1136 -0.0861
 4789W        W 8533   2.955   4.179   9.363  0.2182 -0.2562  0.0502
 4790W        W 8534   1.626   5.259   3.149 -0.2243 -0.1651  0.2111
 4791W        W 8535   5.327   8.709   9.238 -0.0032  0.1242 -0.1140
 4792W        W 8536   9.259   2.609   9.495 -0.1447  0.1453  0.0644
 4793W        W 8537   3.294   7.285   8.916  0.0055 -0.2040 -0.1671
 4794W        W 8538   2.981   6.591   0.008 -0.4728  0.0631  0.0433
 4795W        W 8539   0.091   9.648   1.454 -0.1478 -0.3478 -0.0072
 4796W        W 8540   8.399   3.746   0.244 -0.0850  0.0420 -0.1496
 4797W        W 8541   4.150   9.691   3.377  0.2157  0.1222  0.0576
 4798W        W 8542   6.261   7.261   0.416  0.3854 -0.2474  0.0665
 4799W        W 8543   2.722   2.240  11.473 -0.0887 -0.4843  0.1414
 4800W        W 8544  10.084   5.100  10.242  0.3091  0.0402 -0.0183
 4801W        W 8545   0.316   4.367   0.146 -0.1334 -0.3315 -0.2810
 4802W        W 8546   4.415   6.110  11.127  0.1095  0.3018  0.1918
 4803W        W 8547   7.537   0.469   2.367  0.1618  0.2345 -0.0576
 4804W        W 8548   7.735   2.364   0.331 -0.0948  0.0230 -0.3063
 4805W        W 8549   1.224   7.383  12.022  0.0292 -0.2170  0.2309
 4806W        W 8550   2.573   7.769   8.749 -0.0349  0.0332  0.0430
 4807W        W 8551   0.086  10.201   1.613 -0.1349  0.1114 -0.6162
 4808W        W 8552   4.388   5.223   0.283  0.2208  0.1838  0.2543
 4809W        W 8553   0.308   8.712   9.325 -0.0822  0.0577 -0.1551
 4810W        W 8554   9.019   7.238   2.428  0.1864  0.1720  0.2555
 4811W        W 8555   0.918   5.327  10.394  0.0470  0.0181  0.2080
 4812W        W 8556   8.279   5.453   0.212 -0.3145  0.0665  0.1086
 4813W        W 8557   4.310   6.457   9.932  0.1963 -0.2315 -0.0422
 4814W        W 8558   2.199   9.122   9.652  0.1629 -0.1223 -0.1382
 4815W        W 8559   3.382   6.913   9.311 -0.1596 -0.1014 -0.2534
 4816W        W 8560   1.561   7.126   1.856  0.0236  0.1303 -0.1856
 4817W        W 8561   5.923   9.775   9.038  0.0490 -0.0950  0.0983
 4818W        W 8562   4.410   9.303   1.189 -0.0976 -0.0433  0.2008
 4819W        W 8563   8.570   9.571  10.389 -0.1304 -0.0833 -0.1569
 4820W        W 8564   2.810   5.146  11.814 -0.1347 -0.2441  0.3668
 4821W        W 8565   7.659   6.011  10.509  0.1297 -0.0148 -0.0378
 4822W        W 8566   5.495   2.412   9.259 -0.1985 -0.0841 -0.0714
 4823W        W 8567   1.725   8.194  11.314 -0.0067  0.2852  0.0218
 4824W        W 8568   5.085   9.873   0.684 -0.2261  0.4313 -0.0573
 4825W        W 8569   2.542   9.880  11.099  0.1193  0.0748  0.1491
 4826W        W 8570   3.222   5.837   8.668  0.1766  0.2782  0.0770
 4827W        W 8571   3.774   1.223   1.845  0.0283 -0.0446  0.1697
 4828W        W 8572  10.176   5.406  11.475  0.2596 -0.0995 -0.1276
 4829W        W 8573   1.518   6.387   1.323 -0.2241 -0.0368  0.1487
 4830W        W 8574   5.704   9.018   8.494  0.0517  0.0874  0.0594
 4831W        W 8575   8.456   4.692   9.178  0.0676 -0.1164  0.1075
 4832W        W 8576   2.932   6.523   8.088 -0.4318  0.0317 -0.1459
 4833W        W 8577   7.397   7.555   8.003  0.0353 -0.3883 -0.0824
 4834W        W 8578   5.813   1.355  12.021 -0.2084  0.1714 -0.0100
 4835W        W 8579   4.679   9.158   2.522 -0.1027  0.1537 -0.0576
 4836W        W 8580   7.015   3.947  11.916 -0.2786  0.1806  0.0345
 4837W        W 8581   9.202   7.133  10.245  0.1760 -0.0948 -0.3123
 4838W        W 8582  10.117   3.838   2.907  0.2524  0.0803  0.3970
 4839W        W 8583   2.555   0.811   2.587  0.0399  0.2604  0.3871
 4840W        W 8584   2.007   5.871   1.233  0.4430 -0.0859  0.2421
 4841W        W 8585   7.315   6.013   9.532  0.1083 -0.1355 -0.0551
 4842W        W 8586   6.177   4.658   1.598  0.2307 -0.0410 -0.1591
 4843W        W 8587   4.509   2.102   7.992 -0.0003  0.1942  0.0177
 4844W        W 8588   7.445   4.236   0.718  0.0603 -0.0969  0.0657
 4845W        W 8589   2.438   1.778   1.566 -0.1589 -0.1215  0.0336
 4846W        W 8590   3.804   8.437  12.047  0.3081 -0.0268  0.0282
 4847W        W 8591   1.044   6.768   1.959  0.2559  0.0548 -0.0360
 4848W        W 8592   6.924   3.692   2.509 -0.0308  0.1407 -0.1901
 4849W        W 8593   6.717   9.460   7.670 -0.0780 -0.1380 -0.0372
 4850W        W 8594   8.782   9.862   2.983 -0.0334 -0.2082  0.2850
 4851W        W 8595   0.226   7.534   7.580  0.2864 -0.1079 -0.1108
 4852W        W 8596   0.549   2.793   8.135  0.0667  0.0139 -0.1481
 4853W        W 8597   4.074   8.216  10.351  0.2419 -0.0171 -0.3006
 4854W        W 8598   4.155   8.340  10.930  0.1053 -0.2000  0.1999
 4855W        W 8599   7.402   6.497   2.867  0.0977 -0.3051  0.1848
 4856W        W 8600   7.152   0.026   7.662 -0.0548 -0.1157  0.1316
 4857W        W 8601   0.431   5.257   0.117  0.1888  0.1208  0.3945
 4858W        W 8602   7.750   7.807   1.925 -0.2594 -0.3215  0.0755
 4859W        W 8603   3.729   1.956  10.901  0.2693  0.0704  0.0344
 4860W        W 8604   3.687   1.562  11.615 -0.2484  0.0063  0.0042
 4861W        W 8605   2.740   2.080  11.003 -0.4327  0.1127  0.2120
 4862W        W 8606   7.161   3.436  10.486 -0.1936 -0.0834 -0.0263
 4863W        W 8607   5.714   5.175   7.685  0.2453  0.2977 -0.0688
 4864W        W 8608   0.258   4.705  10.364  0.3254 -0.0616 -0.0220
 4865W        W 8609   0.112   6.277   2.923 -0.0896  0.1517  0.1445
 4866W        W 8610   3.366   1.938  11.653 -0.1381 -0.1438 -0.0990
 4867W        W 8611   0.881   1.834   8.714  0.0665 -0.4195 -0.1790
 4868W        W 8612   2.029   0.208   2.415 -0.1793  0.3131  0.3639
 4869W        W 8613  10.004   0.938  10.177  0.0244 -0.1828  0.0005
 4870W        W 8614   2.188   4.615   3.607 -0.0466 -0.2900 -0.1611
 4871W        W 8615   7.846   9.575   9.355  0.0801 -0.0919  0.0076
 4872W        W 8616   6.844   0.753   0.771  0.2726  0.2362  0.0452
 4873W        W 8617   1.486   3.686   9.215 -0.0724 -0.0381  0.2878
 4874W        W 8618   3.039   5.792   0.206 -0.0766 -0.0576  0.0788
 4875W        W 8619   1.936   8.550  10.378 -0.0974 -0.4008 -0.1071
 4876W        W 8620   7.788   6.801   8.562  0.3561 -0.1205  0.0574
 4877W        W 8621   9.564   4.852   2.516  0.3236  0.5967  0.0615
 4878W        W 8622   9.330   1.917  10.928  0.0118  0.1141  0.0904
 4879W        W 8623   7.736   8.720   8.470 -0.1273  0.1489 -0.2499
 4880W        W 8624   7.921   0.974   3.509  0.1516 -0.0018 -0.0225
 4881W        W 8625   5.594   4.435   3.068  0.0600 -0.0623 -0.0823
 4882W        W 8626   8.402   9.588   9.182 -0.2981 -0.1777 -0.0056
 4883W        W 8627   0.439   5.539  10.349 -0.3107  0.1924 -0.1857
 4884W        W 8628   2.058   9.939   0.510  0.2316 -0.0314  0.1319
 4885W        W 8629   0.880   3.324  11.552  0.0874 -0.1386  0.1222
 4886W        W 8630   9.576   1.630   3.919 -0.1615  0.1108  0.2490
 4887W        W 8631   8.671   4.805   0.912  0.0694  0.0003 -0.3034
 4888W        W 8632   4.845   1.671   2.409 -0.1718 -0.0402 -0.3012
 4889W        W 8633   3.703   2.521  10.992  0.3798 -0.1402  0.0907
 4890W        W 8634   0.814   1.954   9.211 -0.0776  0.0241 -0.0623
 4891W        W 8635   8.950   0.423   0.449 -0.1523  0.3034  0.1227
 4892W        W 8636   8.121   3.896   8.556  0.0335  0.3844 -0.1261
 4893W        W 8637   5.085   3.912   9.411  0.0558 -0.0164  0.2156
 4894W        W 8638   6.185   5.616   0.361 -0.0914 -0.0916  0.1228
 4895W        W 8639   9.631   1.270  11.679 -0.1390  0.0152 -0.1565
 4896W        W 8640   6.847   5.985   2.338  0.0815 -0.3100  0.2259
 4897W        W 8641   0.408   5.000   8.331  0.0383  0.5134 -0.0417
 4898W        W 8642   3.951   7.506   7.609 -0.0853  0.0210 -0.0670
 4899W        W 8643   1.479   6.793   7.419 -0.3445  0.0003 -0.0350
 4900W        W 8644   8.560   8.254   0.256 -0.3510  0.3041  0.0961
 4901W        W 8645   6.844   5.160  11.207 -0.1220  0.1950 -0.1175
 4902W        W 8646   0.471   6.348   0.533 -0.0660 -0.2316  0.4742
 4903W        W 8647   3.839   5.119   1.499  0.1758 -0.0706 -0.0305
 4904W        W 8648   8.569   4.354   3.852 -0.0672 -0.0350 -0.0839
 4905W        W 8649   9.117   1.025   8.763 -0.0437  0.0166 -0.3501
 4906W        W 8650   7.424   2.119  11.003  0.3311  0.2422  0.2801
 4907W        W 8651   0.312   7.068  12.123  0.0419 -0.1256 -0.0784
 4908W        W 8652   1.533   4.173   0.152 -0.4692 -0.1490  0.1805
 4909W        W 8653   7.895   2.903   1.948 -0.2483 -0.4081 -0.3070
 4910W        W 8654   5.134   0.088  12.099 -0.1822  0.4384 -0.2861
 4911W        W 8655   3.385   1.688   0.583  0.2356 -0.0445  0.1444
 4912W        W 8656   7.244   3.083   9.027 -0.1188 -0.2932 -0.2171
 4913W        W 8657   8.696   1.402   8.405  0.0859 -0.1777 -0.2050
 4914W        W 8658   4.475  10.204   1.563 -0.0356  0.0596 -0.0505
 4915W        W 8659   1.755   5.874   2.826 -0.0646 -0.0588 -0.2488
 4916W        W 8660   3.693   3.958  12.056 -0.0975  0.1070  0.0403
 4917W        W 8661   2.215  10.216   0.974  0.2117 -0.2294 -0.0482
 4918W        W 8662   6.354   6.601  10.316  0.4527  0.4668 -0.2066
 4919W        W 8663   6.426   9.910   3.303 -0.2961  0.3005  0.1382
 4920W        W 8664   1.258   3.332  11.110 -0.1749  0.0797  0.1412
 4921W        W 8665   9.787   6.669   3.652  0.1821  0.1885  0.1021
 4922W        W 8666   0.830   0.287   0.581 -0.3470 -0.0184 -0.0524
 4923W        W 8667   5.630   8.320   9.293  0.0054 -0.2165  0.2736
 4924W        W 8668   6.224   8.905   0.541  0.2208 -0.2326  0.5520
 4925W        W 8669   1.929   4.110   1.319 -0.2205 -0.0008 -0.1690
 4926W        W 8670   0.221   5.446   2.387 -0.0689  0.0133 -0.0951
 4927W        W 8671   4.971   3.442  11.129  0.0495 -0.0673  0.3113
 4928W        W 8672   0.996   8.587  10.442 -0.0124 -0.0343 -0.1287
 4929W        W 8673   1.085   1.651  10.425 -0.4248  0.2337 -0.3123
 4930W        W 8674   7.065   4.378   0.309 -0.1084  0.1593  0.2016
 4931W        W 8675   1.312   4.756  10.649 -0.1822 -0.0793  0.2086
 4932W        W 8676   7.560   8.216  11.582  0.0826 -0.1201 -0.3279
 4933W        W 8677   9.693   6.484  10.160  0.0645 -0.1664  0.0360
 4934W        W 8678   6.928   8.424   0.814 -0.1872  0.1018 -0.2634
 4935W        W 8679   7.406   8.240   0.946 -0.1911  0.3606 -0.3273
 4936W        W 8680   0.374   0.351   1.317 -0.0989 -0.0097 -0.1713
 4937W        W 8681   5.873   2.420   1.278 -0.2338  0.2092 -0.0637
 4938W        W 8682   4.565   2.929   0.966  0.3111  0.0408 -0.1695
 4939W        W 8683   2.312   8.639   9.724  0.0624 -0.0026 -0.0858
 4940W        W 8684   9.177   9.183   8.788 -0.1685  0.3139  0.0449
 4941W        W 8685   7.096   2.316   0.947 -0.0470 -0.0931  0.3491
 4942W        W 8686   1.665   0.699   9.991 -0.2584 -0.0708  0.2692
 4943W        W 8687   6.370   6.519   4.084 -0.1914 -0.3081  0.1368
 4944W        W 8688   1.967   2.892   1.054  0.0249 -0.0642 -0.1903
 4945W        W 8689   3.157   2.377   1.675  0.0621 -0.1061  0.0641
 4946W        W 8690   7.206   9.037   1.950 -0.1127  0.2166 -0.4023
 4947W        W 8691   8.997   8.099   2.058  0.1134 -0.0782  0.0398
 4948W        W 8692   9.849   2.418  10.429  0.0245 -0.4392 -0.1224
 4949W        W 8693   4.337   2.535   3.559 -0.3134  0.2924  0.0589
 4950W        W 8694   2.452   9.439   9.372 -0.2510  0.0953  0.1329
 4951W        W 8695   9.550   0.271   1.225  0.0197  0.1931 -0.1105
 4952W        W 8696   8.305   3.546  11.964 -0.2772 -0.1753 -0.1118
 4953W        W 8697   9.582   1.204   9.822 -0.3960 -0.0189 -0.0263
 4954W        W 8698   8.540   5.670  11.040  0.0435  0.0264 -0.2398
 4955W        W 8699   7.802   9.331   2.983 -0.0237 -0.0949 -0.1593
 4956W        W 8700   1.642   3.903   1.737 -0.0969  0.2171  0.3101
 4957W        W 8701   5.243   7.998   8.959 -0.1417 -0.1247  0.1523
 4958W        W 8702   0.953   8.216   3.249 -0.0662  0.0656 -0.2865
 4959W        W 8703   3.404   5.316   1.256 -0.2350  0.1848 -0.1262
 4960W        W 8704   5.315   4.539  11.679 -0.1539  0.3351  0.1056
 4961W        W 8705   2.787   2.492   8.116 -0.1239  0.0846  0.0397
 4962W        W 8706   9.863   6.349   3.178 -0.0246  0.2141  0.2889
 4963W        W 8707   9.792   2.059   4.042 -0.0604  0.0419  0.2134
 4964W        W 8708   1.941   2.751   3.619 -0.0858 -0.0729 -0.0291
 4965W        W 8709   3.227   2.323   2.774  0.1754 -0.1469 -0.2454
 4966W        W 8710   8.113   9.692  12.002  0.0451 -0.1971 -0.0284
 4967W        W 8711   9.234   2.818   2.376 -0.2645  0.0619 -0.1255
 4968W        W 8712   9.834   7.405   0.755  0.3717 -0.0179 -0.3050
 4969W        W 8713   4.250   1.075   1.978 -0.0829 -0.0019 -0.1756
 4970W        W 8714   4.365   6.411  10.409 -0.1740 -0.0361 -0.1265
 4971W        W 8715  10.149   1.205   7.974 -0.0888 -0.1180 -0.1217
 4972W        W 8716   5.948   3.847   8.648  0.1770  0.2416 -0.1468
 4973W        W 8717   3.418   4.711   3.096 -0.1125 -0.1535 -0.3327
 4974W        W 8718   9.292   4.667   8.133 -0.0823  0.0776 -0.1983
 4975W        W 8719   1.724  10.225  10.743 -0.6164 -0.3449  0.2601
 4976W        W 8720   6.437   8.684   1.367 -0.0724 -0.2641  0.2102
 4977W        W 8721   6.230   5.872   9.525  0.1935  0.4215  0.0952
 4978W        W 8722   4.136   0.785   3.487  0.0717  0.1260 -0.0541
 4979W        W 8723   3.955   2.575  11.496  0.2487  0.0315  0.3624
 4980W        W 8724   6.910   4.105   2.106 -0.1376  0.1449  0.2282
 4981W        W 8725   0.774   6.370  10.291  0.0573  0.1914 -0.0046
 4982W        W 8726   2.028   2.959   0.078  0.0036  0.0101 -0.1508
 4983W        W 8727   3.689   5.595   8.754  0.1506 -0.3472  0.1115
 4984W        W 8728   3.896   5.047   2.974  0.0453  0.2586  0.0210
 4985W        W 8729   3.020   9.132  12.116 -0.3951  0.0898 -0.0317
 4986W        W 8730   5.794   4.301   0.513  0.0063  0.0703 -0.1376
 4987W        W 8731   3.729   2.773  10.087 -0.1261 -0.1900  0.1126
 4988W        W 8732   9.007   2.295   2.422 -0.1536  0.0322  0.0784
 4989W        W 8733   4.338   6.858  10.633  0.1266  0.1392 -0.2021
 4990W        W 8734   1.323   5.606  10.545 -0.0950  0.0034  0.1307
 4991W        W 8735   2.196   7.418  10.771 -0.1435  0.0695 -0.2707
 4992W        W 8736   7.225   6.371  11.762  0.2943  0.0042 -0.1782
 4993W        W 8737   1.856   7.849   9.966  0.0920 -0.2234 -0.1670
 4994W        W 8738   8.283   5.390  11.580  0.0726  0.0037  0.0387
 4995W        W 8739   4.975   9.496   9.699  0.0553  0.0124 -0.2701
 4996W        W 8740   5.854   4.548   8.296  0.4650 -0.0042  0.0579
 4997W        W 8741   2.209   1.967   9.163 -0.0264 -0.4184  0.4796
 4998W        W 8742   3.044   0.260   7.170 -0.2765  0.0488 -0.0644
 4999W        W 8743   4.300   4.217   1.933  0.1541 -0.2015 -0.2404
 5000W        W 8744   0.475   4.023   9.291 -0.1897 -0.1186  0.0527
 5001W        W 8745   7.429   3.891   7.963 -0.0859  0.1391 -0.0850
 5002W        W 8746   0.630   4.053   4.033  0.2692  0.1531 -0.2300
 5003W        W 8747   8.182   6.595   4.061 -0.1340 -0.0356  0.1552
 5004W        W 8748   6.976   2.106   3.603 -0.0112  0.1822  0.0396
 5005W        W 8749   9.052   8.765   1.310 -0.0889  0.2654  0.1221
 5006W        W 8750   5.261   4.032   8.664  0.0995  0.0563 -0.3188
 5007W        W 8751  10.192   3.838  11.210 -0.1680  0.0313  0.0072
 5008W        W 8752   9.287   1.008   7.923 -0.1152  0.0180 -0.0769
 5009W        W 8753   3.168   2.414  11.998  0.1224  0.3012  0.0298
 5010W        W 8754   0.780   0.928   8.671 -0.0013  0.4123 -0.1412
 5011W        W 8755   2.990   8.606  11.843 -0.1315 -0.0869 -0.1332
 5012W        W 8756   1.341   0.455   9.134 -0.0081  0.1398 -0.1099
 5013W        W 8757   9.716   3.295   9.142  0.0204  0.4830  0.1677
 5014W        W 8758   3.547   7.662   2.017  0.0582  0.2214 -0.1287
 5015W        W 8759   7.872   0.502  10.077 -0.0145  0.1867 -0.1947
 5016W        W 8760   8.630   5.141  10.155  0.0734  0.0724  0.0456
 5017W        W 8761   2.631   9.172   1.272  0.1953  0.1392  0.2074
 5018W        W 8762   2.476   0.715   3.064 -0.0317 -0.0169 -0.1563
 5019W        W 8763   3.747   3.028   2.317  0.0702 -0.1084  0.0303
 5020W        W 8764   6.319   2.066   8.685  0.1691 -0.0609  0.0529
 5021W        W 8765   1.319   7.283  10.213 -0.1017  0.1041  0.2879
 5022W        W 8766  10.167  10.154  11.704  0.2879 -0.0410  0.1422
 5023W        W 8767   1.119   0.649   0.757  0.1497  0.2743  0.1963
 5024W        W 8768   7.004   4.603   2.300  0.0701 -0.3901 -0.0809
 5025W        W 8769   9.144   8.150   2.924  0.2421  0.1702 -0.0024
 5026W        W 8770   8.609   3.344   9.085  0.1305 -0.0178  0.3926
 5027W        W 8771   9.406   9.262  10.492 -0.2736 -0.1040  0.0500
 5028W        W 8772   0.624   7.690   8.976 -0.0170 -0.1070 -0.1226
 5029W        W 8773   5.079   5.081  11.964  0.4190 -0.0326 -0.1852
 5030W        W 8774   8.921   4.911  11.294  0.1193  0.2541  0.1338
 5031W        W 8775   1.203   2.432   0.883  0.3251 -0.1726 -0.2206
 5032W        W 8776   1.044   3.907  10.459  0.1474 -0.0301  0.2721
 5033W        W 8777   4.794   5.623   3.596 -0.0006 -0.0716  0.1426
 5034W        W 8778   4.232   6.038   9.689  0.0595  0.1709 -0.0679
 5035W        W 8779   4.684   4.843   9.715  0.2373 -0.2413 -0.4155
 5036W        W 8780   3.490   1.584  11.121  0.4935  0.1511 -0.0387
 5037W        W 8781   6.927   4.526  10.926 -0.2614 -0.0512  0.0800
 5038W        W 8782   5.429   3.344   1.129 -0.0838  0.3127  0.0311
 5039W        W 8783   4.360   3.645  10.279  0.3499 -0.1006  0.2110
 5040W        W 8784   8.189   9.803   9.555  0.0625 -0.2545 -0.4384
 5041W        W 8785   0.043   4.861   0.166 -0.1571 -0.0885 -0.2099
 5042W        W 8786   9.206   9.878   8.182  0.1571 -0.1905 -0.1094
 5043W        W 8787   7.742   4.697  10.278  0.1053  0.4216 -0.1592
 5044W        W 8788   2.348   5.067   9.237  0.1072  0.0085  0.0554
 5045W        W 8789   8.788   5.686   7.462  0.1735  0.0409  0.2465
 5046W        W 8790   5.729   5.102   8.447 -0.0905  0.0120  0.1991
 5047W        W 8791   4.805   3.453   9.399 -0.0304  0.1825 -0.2695
 5048W        W 8792   5.262   7.492   4.118 -0.0708 -0.0951 -0.2775
 5049W        W 8793   8.647   1.442   8.926 -0.1478  0.1711 -0.0871
 5050W        W 8794   7.908   1.400   8.244  0.0558  0.0371  0.3048
 5051W        W 8795   5.758   0.499  11.489  0.3627 -0.1544 -0.0329
 5052W        W 8796   6.266   2.775   1.179 -0.1741 -0.2543 -0.2230
 5053W        W 8797   6.694   4.077   0.368  0.4708 -0.1381 -0.3494
 5054W        W 8798   5.263   5.633   2.690  0.1510 -0.0849 -0.0986
 5055W        W 8799   8.098   7.158   0.142 -0.1480 -0.1926 -0.4188
 5056W        W 8800   4.257   6.337   7.329  0.0094 -0.2619  0.0353
 5057W        W 8801   4.308   4.841   0.607 -0.0587  0.0643  0.3292
 5058W        W 8802   9.090   5.066   9.905 -0.0809  0.1738  0.0193
 5059W        W 8803   7.424   9.464   1.741  0.1453  0.3671 -0.2539
 5060W        W 8804   9.465   8.254   0.605  0.2451 -0.1665 -0.1351
 5061W        W 8805  10.059   7.274   2.514  0.1653  0.0823 -0.2254
 5062W        W 8806   6.519   6.405   9.203 -0.1842 -0.3825  0.4256
 5063W        W 8807   1.470   9.504   1.595  0.3054 -0.2263 -0.1416
 5064W        W 8808   6.889   1.483   1.364 -0.0433  0.1074  0.0150
 5065W        W 8809   1.579   9.226   2.041  0.1682  0.1310  0.2780
 5066W        W 8810   1.011   4.767  11.113  0.2426 -0.5493  0.0133
 5067W        W 8811   9.676   3.034   1.297 -0.0256  0.2518 -0.1277
 5068W        W 8812   6.631   2.117   9.437  0.2413 -0.0485 -0.3248
 5069W        W 8813   2.626   7.562   1.365  0.1205 -0.0812 -0.1350
 5070W        W 8814   8.132   4.605   4.192  0.1837 -0.1861  0.2356
 5071W        W 8815   1.274   0.852  10.874  0.3032  0.1207  0.0356
 5072W        W 8816   5.462   4.520  10.550  0.0273  0.2086  0.0447
 5073W        W 8817   0.867   1.157  10.805 -0.0736 -0.0893  0.0616
 5074W        W 8818   6.683   9.300   2.773 -0.1649 -0.0179  0.0903
 5075W        W 8819   5.405   8.114   8.487  0.0766  0.3851 -0.0083
 5076W        W 8820   7.114  10.042   9.878 -0.0021  0.0299 -0.0785
 5077W        W 8821   0.079   4.938  11.763  0.0513 -0.1507 -0.1423
 5078W        W 8822   9.670   0.848   8.889  0.0736  0.0641 -0.0723
 5079W        W 8823   0.669   9.891  10.741  0.4867  0.2149  0.2909
 5080W        W 8824   0.419   7.991   7.343  0.0188  0.0122 -0.2837
 5081W        W 8825   1.014   9.645   1.233 -0.0121 -0.0802  0.2908
 5082W        W 8826   7.643   0.951   9.803  0.0946 -0.0195  0.1506
 5083W        W 8827   5.113   9.093   3.919  0.1014 -0.1098  0.1566
 5084W        W 8828   1.835   4.970   8.396 -0.1242  0.1671 -0.2038
 5085W        W 8829   1.912   0.724   8.584 -0.1695  0.1827 -0.0346
 5086W        W 8830   8.306   0.035  11.979 -0.0434 -0.0533  0.2095
 5087W        W 8831   7.001   6.035   9.939 -0.1272 -0.0118  0.0353
 5088W        W 8832   2.002   2.695   2.427 -0.4344  0.0657 -0.1911
 5089W        W 8833   4.487   9.844  11.544  0.1452 -0.1227  0.0964
 5090W        W 8834   6.293   0.537   2.021 -0.0566  0.2995 -0.1100
 5091W        W 8835   9.776   5.478   8.721  0.1642  0.1999  0.2515
 5092W        W 8836   2.830   9.461   3.870 -0.4390 -0.1245 -0.1271
 5093W        W 8837   4.477   6.095   2.634  0.2831  0.1210  0.0615
 5094W        W 8838   9.320   5.963  12.012  0.0050 -0.1030 -0.0037
 5095W        W 8839   4.424   2.791  10.452 -0.0158 -0.3996 -0.1991
 5096W        W 8840   1.237   0.849   1.337  0.0303  0.0166  0.0250
 5097W        W 8841   7.501   5.217   8.409  0.3057  0.0724  0.4110
 5098W        W 8842   0.071   2.427  11.701 -0.0826  0.1744  0.1381
 5099W        W 8843   7.319   1.556   8.321  0.2029 -0.0483  0.0706
 5100W        W 8844   6.962   6.988  11.052  0.3134  0.0646 -0.2721
 5101W        W 8845   1.899   6.990  12.145 -0.1261  0.3860  0.4196
 5102W        W 8846   7.562   3.512   3.177  0.0895  0.3855  0.2986
 5103W        W 8847   0.281   0.795   2.737 -0.3058  0.0144 -0.1013
 5104W        W 8848   4.515   9.511   8.884  0.0478  0.1117  0.1157
 5105W        W 8849   6.722   4.066   9.857 -0.0670 -0.1262  0.2047
 5106W        W 8850   6.181   7.245  11.530  0.1690 -0.1140  0.3018
 5107W        W 8851   1.017   1.154   0.441 -0.0909 -0.2508 -0.0259
 5108W        W 8852   1.651   2.729   0.733  0.0321 -0.0418  0.0920
 5109W        W 8853   9.757   0.992   9.378 -0.1426 -0.2809  0.0006
 5110W        W 8854   3.044   7.791   1.247  0.0812 -0.3505 -0.1531
 5111W        W 8855   7.620   7.956   7.244 -0.1763 -0.1551  0.1719
 5112W        W 8856   8.862   7.683  11.886  0.2589 -0.3487 -0.3770
 5113W        W 8857   3.961   3.449   2.017 -0.2557  0.2091 -0.1837
 5114W        W 8858   6.097   2.027   1.760  0.0655 -0.3538 -0.0606
 5115W        W 8859   0.964   4.925  10.082 -0.2372 -0.1722  0.1495
 5116W        W 8860   2.063   3.545   1.801  0.3089 -0.1315  0.0570
 5117W        W 8861   2.434   0.148  10.356  0.0481  0.0160 -0.3383
 5118W        W 8862   5.508   0.301  10.198 -0.2398  0.0041 -0.1645
 5119W        W 8863   2.013   6.945   7.789 -0.2572 -0.1375  0.0404
 5120W        W 8864   5.560   3.751   9.766 -0.1009  0.0405 -0.0605
 5121W        W 8865   9.914   0.281   9.981  0.1235  0.0970  0.2685
 5122W        W 8866   3.532   3.029   3.419 -0.0417  0.0475 -0.2386
 5123W        W 8867   4.316   9.171   2.112 -0.1674  0.1341  0.1698
 5124W        W 8868   6.904   5.151   9.137  0.0253 -0.1202 -0.0896
 5125W        W 8869   7.553   0.237   0.237 -0.0528 -0.0727 -0.0982
 5126W        W 8870   3.098   3.742   3.708  0.1158  0.1981  0.1022
 5127W        W 8871   3.570   8.497   8.639 -0.0849 -0.0274 -0.3503
 5128W        W 8872   9.923   4.349   1.563 -0.1246 -0.1165  0.0543
 5129W        W 8873   7.677   5.796   6.968  0.2653 -0.2482  0.0342
 5130W        W 8874   8.420   0.863  11.384 -0.0780 -0.1974 -0.1767
 5131W        W 8875   9.077   6.255  11.618 -0.2798 -0.1216 -0.1001
 5132W        W 8876   1.385   3.224  11.569 -0.3251  0.1130 -0.1647
 5133W        W 8877   0.430   1.613   8.985  0.2176 -0.0287  0.3054
 5134W        W 8878   8.513   8.453  11.125 -0.0622  0.2012  0.2874
 5135W        W 8879   1.577   3.574   2.604 -0.0115  0.1240  0.0070
 5136W        W 8880   3.689   0.384   1.091  0.1827 -0.1722 -0.0437
 5137W        W 8881   7.884   5.353   2.446 -0.0432  0.2180 -0.2924
 5138W        W 8882   1.458   2.404  10.375  0.1011  0.2553  0.1310
 5139W        W 8883   2.779   9.452   1.647  0.0549  0.2588 -0.1253
 5140W        W 8884   3.457   2.466  11.532  0.0908 -0.1128  0.1601
 5141W        W 8885   2.702   1.129   2.951  0.1366 -0.2517 -0.2502
 5142W        W 8886   9.965   1.916  10.483 -0.0340 -0.0102 -0.0474
 5143W        W 8887   2.171   0.046   3.928 -0.4007  0.1075 -0.2853
 5144W        W 8888   6.733   0.435   3.373 -0.0785 -0.1155 -0.1017
 5145W        W 8889   1.016   2.060  10.134  0.0827  0.1340  0.1379
 5146W        W 8890   2.897   4.563  11.649 -0.0416 -0.1190 -0.0294
 5147W        W 8891   0.604   5.816   1.995  0.1310  0.1923 -0.0991
 5148W        W 8892   4.738   6.294   3.063 -0.1660  0.1096 -0.1126
 5149W        W 8893   1.506   4.468  11.066 -0.2288 -0.2800  0.1001
 5150W        W 8894   1.590   2.014   0.227 -0.1688  0.1549  0.0255
 5151W        W 8895   8.461   1.006   8.748 -0.0458  0.0644  0.2147
 5152W        W 8896   3.106   9.470  11.552 -0.1051  0.2422  0.1235
 5153W        W 8897   6.190   7.552   8.535 -0.1429 -0.0105  0.1770
 5154W        W 8898   5.861   5.584   9.265 -0.0489  0.1670  0.0495
 5155W        W 8899   2.157   1.012   9.160  0.2283  0.1315 -0.1262
 5156W        W 8900   8.465   4.098  10.798 -0.2698 -0.1402 -0.1791
 5157W        W 8901  10.118   9.863   9.613  0.1013  0.1488 -0.2254
 5158W        W 8902   9.906   8.362   8.335 -0.0563  0.0166 -0.0453
 5159W        W 8903   9.636   7.584   1.655 -0.0625 -0.1220 -0.1727
 5160W        W 8904   0.566   5.272   7.926 -0.2613 -0.1001 -0.2408
 5161W        W 8905   3.983   3.445  10.969  0.2190 -0.0945 -0.0750
 5162W        W 8906   2.551   3.851  11.424 -0.1814 -0.1938 -0.1042
 5163W        W 8907   9.547   0.658   1.571  0.0520  0.0744 -0.0871
 5164W        W 8908   9.545   7.216  11.563  0.1420 -0.0081 -0.4147
 5165W        W 8909   1.058   8.168  10.078 -0.0132  0.1047  0.0385
 5166W        W 8910   4.539   5.610   8.441 -0.0868  0.1927 -0.0652
 5167W        W 8911   5.743   7.829  12.100  0.0651  0.1678  0.0039
 5168W        W 8912   8.760   4.592   8.203  0.1232 -0.2212  0.1174
 5169W        W 8913   8.666   2.621  10.902 -0.0387  0.0950  0.0858
 5170W        W 8914   7.767   2.124  12.064  0.0427  0.2303 -0.0618
 5171W        W 8915   9.684   8.160   2.884 -0.0629  0.2622 -0.3938
 5172W        W 8916   6.775   6.377   3.120 -0.4668 -0.1130  0.0284
 5173W        W 8917   9.250   0.231   2.264 -0.3336 -0.1894  0.1550
 5174W        W 8918   3.493   6.522  11.418  0.1042 -0.1021 -0.0692
 5175W        W 8919   3.553   3.448   9.201  0.2865 -0.1462 -0.0099
 5176W        W 8920   4.645   4.160   8.122 -0.2259  0.1728  0.0717
 5177W        W 8921   1.705   8.949   1.168  0.2507  0.0338 -0.0080
 5178W        W 8922   3.828   6.942  11.483 -0.1492  0.0955  0.3097
 5179W        W 8923   1.258   5.975  10.145 -0.1823  0.2978  0.0644
 5180W        W 8924   4.600   0.598   0.763 -0.2145 -0.2904  0.1660
 5181W        W 8925   3.147   7.820   3.562 -0.2494 -0.1060  0.2511
 5182W        W 8926   4.149   8.438   4.045  0.2022  0.1577 -0.1756
 5183W        W 8927   6.193   4.269   8.580  0.0200 -0.3237  0.2717
 5184W        W 8928   3.583   6.189  10.924  0.1063 -0.1534  0.0583
 5185W        W 8929   4.136   1.560   1.164  0.3753 -0.0176  0.0271
 5186W        W 8930   4.533   8.687   3.399  0.0787  0.2207 -0.0670
 5187W        W 8931   5.371   8.191   2.421  0.1467 -0.0947  0.1119
 5188W        W 8932   3.055   2.916   1.707 -0.0506  0.1848  0.0588
 5189W        W 8933   8.606   1.594   9.429 -0.1104 -0.0314  0.0361
 5190W        W 8934   3.873   3.436   8.821 -0.0291 -0.1179 -0.0568
 5191W        W 8935   6.562   8.118   7.336 -0.1799 -0.1454 -0.3147
 5192W        W 8936  10.094   1.724   8.014  0.0917  0.2429  0.0498
 5193W        W 8937   9.031   7.091   3.149 -0.0294 -0.2006  0.2755
 5194W        W 8938   2.140   3.811   2.273 -0.1486 -0.1239 -0.4318
 5195W        W 8939   9.517   5.934   2.881 -0.1248 -0.0279  0.3487
 5196W        W 8940   4.974   7.346   9.321  0.3276 -0.1938 -0.0546
 5197W        W 8941   6.568   6.152   8.307  0.2013 -0.0841  0.1301
 5198W        W 8942   0.271   4.849   9.299  0.2681 -0.0670  0.3128
 5199W        W 8943   5.787   5.996   2.075 -0.0138  0.2376 -0.1340
 5200W        W 8944   9.164   8.447   7.806 -0.2608 -0.1392  0.2868
 5201W        W 8945   9.001  10.151  10.210 -0.0626  0.0810  0.1525
 5202W        W 8946   9.536   2.452   7.685 -0.0484 -0.0530  0.2052
 5203W        W 8947   0.540   4.822   0.363 -0.1339  0.1459  0.0079
 5204W        W 8948   2.027   3.579   8.016 -0.3177  0.2819 -0.0805
 5205W        W 8949   2.002   8.938   3.968 -0.0173 -0.0512  0.2730
 5206W        W 8950   8.076   1.778  10.016  0.0425  0.3233 -0.4531
 5207W        W 8951   8.999   8.468   0.226 -0.1166  0.0334 -0.0402
 5208W        W 8952   1.450   6.122  10.745 -0.1063 -0.4420 -0.0663
 5209W        W 8953   0.866   9.995   9.395  0.1783  0.4088  0.1278
 5210W        W 8954   6.831   9.290   3.945 -0.2366  0.1624  0.1777
 5211W        W 8955   1.647   7.196   9.852  0.3539  0.0771 -0.0462
 5212W        W 8956   8.646   3.757   8.733  0.0472  0.0329 -0.1156
 5213W        W 8957   4.805   8.667   9.268 -0.1185 -0.0732 -0.0121
 5214W        W 8958   1.323   0.106  12.015 -0.4289  0.1791 -0.2854
 5215W        W 8959   7.009   9.656  10.306  0.0213  0.2436  0.0980
 5216W        W 8960   5.930   1.881   7.340  0.0939  0.0295 -0.0790
 5217W        W 8961   7.545  10.209  11.187 -0.2690  0.3666  0.0740
 5218W        W 8962   0.464   9.650   0.089 -0.0227  0.0400  0.0263
 5219W        W 8963   3.696   0.276  10.855 -0.1102  0.2081  0.3554
 5220W        W 8964   9.484   9.979   2.260  0.0926 -0.2708  0.2062
 5221W        W 8965   6.637   8.063   7.862  0.0964  0.1752 -0.1614
 5222W        W 8966   2.643   4.888  11.362  0.0398 -0.0103 -0.0205
 5223W        W 8967   7.923   1.332   3.117 -0.2204 -0.2657 -0.0256
 5224W        W 8968   5.788   5.440  10.726 -0.0415  0.0031 -0.0698
 5225W        W 8969  10.044   2.666   7.517  0.0164 -0.4068 -0.0016
 5226W        W 8970   3.139   9.111  11.098  0.4807 -0.2299  0.1325
 5227W        W 8971   1.730   3.459   2.152 -0.2989  0.0040 -0.0816
 5228W        W 8972   8.983   7.717  10.566 -0.1374 -0.0465  0.1696
 5229W        W 8973   8.065   9.150   2.560  0.2990  0.1438 -0.0152
 5230W        W 8974   1.192   9.791   9.872  0.0253  0.2220 -0.2933
 5231W        W 8975   1.411   8.458   8.622 -0.1621  0.1716 -0.0526
 5232W        W 8976   2.500   4.202   3.148  0.0306  0.2629  0.1181
 5233W        W 8977   2.663   3.682   0.992  0.0286 -0.2525 -0.3050
 5234W        W 8978   2.180   7.873   2.981  0.4200  0.1505  0.1358
 5235W        W 8979   2.396   7.770  10.378 -0.0245 -0.0976 -0.0345
 5236W        W 8980   6.044   9.088  11.520 -0.3527  0.0128  0.1834
 5237W        W 8981   9.755   5.557   4.207  0.0214 -0.0451  0.0745
 5238W        W 8982   9.464   7.323   3.052  0.0217 -0.4613 -0.1269
 5239W        W 8983   9.262   3.381  10.775  0.3031 -0.0902  0.0951
 5240W        W 8984   7.162   7.344   9.335  0.2125  0.2373 -0.1415
 5241W        W 8985   8.816   1.346   0.746  0.1310  0.0068 -0.1070
 5242W        W 8986   2.338   8.357   1.813  0.3185 -0.3818  0.2982
 5243W        W 8987   2.877   7.730  10.213 -0.6063  0.0553 -0.1810
 5244W        W 8988   2.525   3.664  10.138  0.1393  0.1160  0.0189
 5245W        W 8989   2.215   6.081   2.896  0.0028  0.1218 -0.0954
 5246W        W 8990   5.929   0.649  11.910 -0.1378  0.0057  0.1112
 5247W        W 8991   3.805   2.132   0.550  0.0252  0.1348  0.0934
 5248W        W 8992   0.997   6.507   9.446 -0.3549 -0.0256  0.0033
 5249W        W 8993   3.637   5.145   8.519 -0.5040  0.1096  0.1602
 5250W        W 8994   8.698   1.183  10.216  0.3871 -0.1328 -0.1514
 5251W        W 8995   9.227   6.791  11.592 -0.0472  0.1734 -0.4758
 5252W        W 8996   2.534   3.972   9.204  0.0519 -0.1195 -0.2339
 5253W        W 8997   5.654   3.502   7.634 -0.0251  0.2743 -0.0257
 5254W        W 8998   3.500   7.752  12.141 -0.0277 -0.0579 -0.0537
 5255W        W 8999   5.694   1.118   9.676 -0.2756 -0.0189 -0.0665
 5256W        W 9000   6.764   9.774   2.879  0.2051  0.0075 -0.0864
 5257W        W 9001   2.621   0.869   0.001 -0.1802  0.0829 -0.0871
 5258W        W 9002   6.691   3.490   3.159  0.0517 -0.0916 -0.1205
 5259W        W 9003   0.653   6.906   3.235 -0.1469 -0.1603 -0.0229
 5260W        W 9004   6.067   1.381   0.366 -0.0997  0.0561  0.4622
 5261W        W 9005   1.125   3.428   8.874  0.1103  0.3194 -0.0746
 5262W        W 9006   8.250   9.958   0.237 -0.0288  0.1486  0.1021
 5263W        W 9007   7.128   6.871  11.909 -0.1161 -0.2098 -0.0228
 5264W        W 9008   7.667   0.054   1.147  0.1805  0.0241 -0.0243
 5265W        W 9009   4.458   6.205  11.956 -0.2203 -0.2204  0.1573
 5266W        W 9010   9.223   7.640   8.539 -0.0265  0.0910 -0.0977
 5267W        W 9011   4.364   5.789  10.191 -0.2335 -0.0141  0.1173
 5268W        W 9012   4.761   7.090   9.794  0.0767 -0.1382  0.2560
 5269W        W 9013   9.138   4.507   9.591 -0.1067  0.2306 -0.2354
 5270W        W 9014   5.645   6.029   7.354 -0.0140 -0.1662 -0.3402
 5271W        W 9015   4.729   4.463  10.051  0.2044 -0.0218 -0.1278
 5272W        W 9016   0.641   7.426  11.895 -0.1439 -0.0514 -0.1259
 5273W        W 9017   1.206   8.713   1.275 -0.3355 -0.2313  0.2787
 5274W        W 9018   7.540   9.212  11.120 -0.1186  0.1070 -0.1781
 5275W        W 9019   7.791   3.427   8.611  0.0131 -0.0782 -0.3707
 5276W        W 9020   8.722   1.466   3.654  0.3231 -0.1732  0.0030
 5277W        W 9021   8.034   7.918   2.398 -0.0734 -0.0390  0.0754
 5278W        W 9022   5.627   6.161   8.803 -0.0308  0.1317 -0.0206
 5279W        W 9023   2.303   6.047   0.429 -0.0861 -0.0589  0.4516
 5280W        W 9024   0.938   4.983   0.091  0.1734 -0.1964  0.0438
 5281W        W 9025   6.996   6.122   2.778  0.3094 -0.1033 -0.1204
 5282W        W 9026   4.995   3.044   9.622 -0.1017 -0.0063  0.0166
 5283W        W 9027   8.978   1.815  10.363  0.0143 -0.1632 -0.0876
 5284W        W 9028   6.097   6.280   2.380 -0.0887  0.1712 -0.2452
 5285W        W 9029   6.584   0.390  10.160 -0.0233 -0.1894 -0.1947
 5286W        W 9030   5.413   1.523   1.361 -0.1652 -0.3552  0.0035
 5287W        W 9031  10.199   4.413   1.130 -0.4415  0.0693  0.0056
 5288W        W 9032   5.246   8.509   2.061  0.2660 -0.3652 -0.1769
 5289W        W 9033   0.229   3.469   7.640  0.0946  0.0348  0.1724
 5290W        W 9034   5.601   5.526   7.343  0.2372 -0.0231  0.0271
 5291W        W 9035   4.896   1.440  11.383  0.0906  0.0596 -0.0014
 5292W        W 9036   3.045   1.596   2.220  0.2858 -0.1222 -0.4103
 5293W        W 9037   5.567   6.397   1.157  0.1073  0.0066  0.2372
 5294W        W 9038   9.615   2.709   1.995 -0.0063  0.0450  0.0833
 5295W        W 9039   4.512   6.330   8.837  0.0893 -0.1802  0.1269
 5296W        W 9040   1.745   5.534   8.146  0.1445 -0.1632  0.4403
 5297W        W 9041   1.393   9.706   2.133 -0.2721  0.0243  0.2654
 5298W        W 9042   3.085   4.287   1.460  0.0943 -0.2905  0.0784
 5299W        W 9043   3.518   1.747  10.003  0.1473 -0.2753  0.0160
 5300W        W 9044   3.866   1.461   0.754  0.2440 -0.2925 -0.0451
 5301W        W 9045   5.607   0.619   3.630 -0.2024  0.4149  0.0105
 5302W        W 9046   8.405   1.159  10.942  0.0116 -0.1854 -0.3021
 5303W        W 9047   4.346   4.432   8.867 -0.0566 -0.1039  0.2022
 5304W        W 9048   6.222   5.835  10.008  0.0482 -0.1136 -0.1328
 5305W        W 9049   7.817   9.662   0.384 -0.0981  0.2581 -0.2129
 5306W        W 9050   2.947   6.740   9.155  0.1115 -0.0117 -0.1961
 5307W        W 9051   4.756   3.029   2.500 -0.0786  0.2505 -0.1291
 5308W        W 9052   3.415   4.310   0.704  0.0235 -0.0869  0.1507
 5309W        W 9053   8.829   6.500   1.885  0.4245  0.5761  0.1289
 5310W        W 9054   8.056   8.698   3.648 -0.0875 -0.0818 -0.0178
 5311W        W 9055   9.397   6.789   8.678 -0.1511 -0.1323 -0.0322
 5312W        W 9056   4.375   8.551   0.532  0.2500 -0.0446 -0.0151
 5313W        W 9057   2.672   8.411   2.310 -0.0157  0.0928  0.0797
 5314W        W 9058   7.581   0.981   1.304  0.0790  0.3550 -0.1141
 5315W        W 9059   8.891   7.113   0.524  0.0397  0.2019 -0.0053
 5316W        W 9060   3.097   0.448   3.634 -0.3007 -0.4205  0.1731
 5317W        W 9061   8.855   7.775  10.088 -0.0253 -0.1221 -0.1432
 5318W        W 9062   0.077   8.751   2.261 -0.1327 -0.2802 -0.2002
 5319W        W 9063   1.453   0.078  11.198 -0.0051 -0.0887 -0.0658
 5320W        W 9064   2.404   0.117  11.262  0.0736 -0.1705 -0.0375
 5321W        W 9065   2.984   1.966   0.655  0.0630 -0.1615 -0.3263
 5322W        W 9066   2.177   8.698   1.234 -0.1052  0.3916  0.0464
 5323W        W 9067   7.660   2.575   8.199 -0.0310  0.0238 -0.2811
 5324W        W 9068   3.711   6.078   8.892 -0.0367 -0.1287  0.2947
 5325W        W 9069   2.876   7.043   1.107 -0.2144  0.2393  0.0478
 5326W        W 9070   9.404   6.705   0.951 -0.2808 -0.1056  0.1463
 5327W        W 9071   5.457   3.534   3.397 -0.1882 -0.0489 -0.0056
 5328W        W 9072   9.005   5.524  10.224  0.2315  0.3399  0.0433
 5329W        W 9073   6.799   1.302   0.813 -0.3000  0.0318 -0.1965
 5330W        W 9074   2.675   3.117  10.139  0.2714  0.2516  0.0807
 5331W        W 9075   6.005   2.779   8.440 -0.2841 -0.1142  0.3153
 5332W        W 9076   3.523   4.853  10.886 -0.1163  0.1562  0.2158
 5333W        W 9077   6.708   9.439  12.050 -0.1048 -0.1437  0.0904
 5334W        W 9078   7.461   8.744  10.324 -0.2469  0.2122  0.1384
 5335W        W 9079   3.506   8.101   3.313 -0.2849  0.0803 -0.1328
 5336W        W 9080   1.200   4.012   1.981 -0.1897  0.1099 -0.1549
 5337W        W 9081   4.672   7.996   9.099  0.1512 -0.0275 -0.4816
 5338W        W 9082   2.242   2.514   2.007  0.1500  0.0058  0.3400
 5339W        W 9083   1.916   4.474   9.768  0.0812 -0.0178  0.0742
 5340W        W 9084   7.744   5.910   2.461  0.3173 -0.1474  0.1218
 5341W        W 9085   7.897   5.475   1.946 -0.2032 -0.0595  0.0903
 5342W        W 9086   6.176   7.604  11.957  0.1294  0.0322 -0.3011
 5343W        W 9087   0.145   3.589   8.741 -0.1302 -0.2343 -0.0422
 5344W        W 9088   1.040   8.670   9.942  0.2538 -0.0915 -0.0942
 5345W        W 9089   3.849   2.378   9.181  0.0668 -0.1789 -0.2242
 5346W        W 9090   3.420   4.799   1.614  0.0578 -0.1853  0.0278
 5347W        W 9091   3.622   4.893   3.549 -0.0730  0.0490  0.2961
 5348W        W 9092   7.020   1.257   1.926 -0.1835 -0.3702 -0.0537
 5349W        W 9093   1.802   9.048  10.327 -0.1155  0.1591  0.1561
 5350W        W 9094   3.328   9.886  10.663 -0.0161  0.1340  0.0689
 5351W        W 9095   6.856   4.639   8.283  0.0701  0.0946  0.1032
 5352W        W 9096   0.443   9.229   9.338 -0.2127  0.1103  0.3610
 5353W        W 9097   5.556   7.033  11.372  0.0661  0.1391  0.1258
 5354W        W 9098   2.209   4.437   2.632  0.4081 -0.1244  0.0172
 5355W        W 9099   3.033   7.276   2.716  0.0231 -0.0236  0.1402
 5356W        W 9100   0.612   2.636   1.056 -0.2293 -0.1911  0.2518
 5357W        W 9101   5.709   8.500  10.849  0.0994  0.2269  0.0481
 5358W        W 9102   2.440   0.205   2.088 -0.1640  0.0435  0.1195
 5359W        W 9103   0.022   0.835   1.886 -0.3614 -0.3509 -0.2797
 5360W        W 9104   2.873   2.381   0.257  0.3014  0.3387 -0.0014
 5361W        W 9105   8.049   1.329   0.561  0.0372 -0.1368 -0.0110
 5362W        W 9106   0.566   6.807  10.504 -0.1859 -0.0178  0.0596
 5363W        W 9107   1.022   8.567   0.490 -0.2090 -0.1278  0.3079
 5364W        W 9108   5.242   4.007   3.216 -0.2272  0.0734  0.2279
 5365W        W 9109   8.083   4.289   9.511 -0.3101  0.0054 -0.0164
 5366W        W 9110   6.823   9.955   9.275 -0.0110  0.1928  0.1434
 5367W        W 9111   8.224   4.447   1.964 -0.0357 -0.0901 -0.0349
 5368W        W 9112   5.161   2.994   2.051 -0.1794  0.0027  0.0720
 5369W        W 9113   9.523   7.269   1.235 -0.1182 -0.3656 -0.0580
 5370W        W 9114   0.207   6.571  11.801  0.1491 -0.1218 -0.1164
 5371W        W 9115   1.321   9.808  12.082 -0.0407 -0.1282  0.1515
 5372W        W 9116   2.045   1.268  10.740 -0.0281  0.1901  0.1314
 5373W        W 9117   6.061   6.493  10.831  0.1039  0.0750 -0.2811
 5374W        W 9118   7.465   7.810   0.584 -0.1263  0.2146  0.1746
 5375W        W 9119   4.347   8.424   9.076 -0.0528  0.0008  0.0468
 5376W        W 9120   5.843   5.347   9.710  0.2069  0.0306  0.1618
 5377W        W 9121   5.802   4.222   2.536 -0.3070 -0.1703 -0.0624
 5378W        W 9122   1.623   3.153   7.365  0.2377 -0.0455 -0.0115
 5379W        W 9123   1.723   0.985  11.101 -0.2215 -0.1436  0.2347
 5380W        W 9124   8.057   1.749  11.796 -0.0174 -0.3071 -0.2301
 5381W        W 9125   0.474   1.796   9.548 -0.0751  0.1048 -0.2491
 5382W        W 9126   2.602   4.158  10.178 -0.1331 -0.0608 -0.2928
 5383W        W 9127   6.140   3.803   0.963  0.0867  0.0939  0.1817
 5384W        W 9128   2.743   1.241   2.422 -0.0375  0.0106 -0.2686
 5385W        W 9129  10.090   1.194   9.675 -0.1037 -0.0729 -0.0311
 5386W        W 9130   4.627   7.194   1.409  0.1772  0.2332 -0.0032
 5387W        W 9131   4.004   0.438  11.750  0.1765 -0.3051  0.2861
 5388W        W 9132   6.354   9.490  11.626 -0.0862  0.4021  0.2347
 5389W        W 9133   9.953   8.203  10.056  0.4828 -0.4271 -0.1586
 5390W        W 9134   7.752   4.958   8.725 -0.3069 -0.0846 -0.0963
 5391W        W 9135   1.704   4.828   2.911  0.1651  0.0347  0.3555
 5392W        W 9136   7.280   6.216   8.461 -0.0574 -0.0454 -0.1167
 5393W        W 9137   7.391   1.298   0.839 -0.0837  0.0568 -0.0872
 5394W        W 9138   7.165   8.920  11.634  0.0175 -0.0620 -0.3915
 5395W        W 9139   2.338   6.576   0.666 -0.1568 -0.1718 -0.1339
 5396W        W 9140   4.564   8.277   9.524  0.0624  0.1513 -0.3813
 5397W        W 9141   2.700   4.573   7.984  0.2175  0.3862  0.1735
 5398W        W 9142   0.814   9.537   9.602 -0.1562  0.1234  0.0508
 5399W        W 9143   2.332   0.380   9.444  0.0101 -0.2467 -0.0469
 5400W        W 9144   9.606   9.863  10.507 -0.1038 -0.0121  0.1081
 5401W        W 9145   6.530   3.525   1.761  0.1571  0.0045  0.1587
 5402W        W 9146   0.168   9.835   1.886  0.0541 -0.2033  0.1732
 5403W        W 9147   2.208   7.010   0.980 -0.3184  0.1806 -0.0006
 5404W        W 9148   4.759   1.124   1.761  0.3278 -0.2535  0.0010
 5405W        W 9149   6.966   1.890  10.213 -0.0390  0.0248  0.0371
 5406W        W 9150   2.030   5.945   2.442  0.2622 -0.2950 -0.1240
 5407W        W 9151   8.821   9.168   1.509  0.0673 -0.0855 -0.2520
 5408W        W 9152   5.577   4.026   4.321  0.2056  0.0635  0.0138
 5409W        W 9153   4.112   5.099   0.982  0.1800 -0.1672 -0.3166
 5410W        W 9154   4.068   9.200  10.726 -0.3183 -0.1264 -0.3214
 5411W        W 9155   7.723   5.952  11.124 -0.2125  0.3217  0.0359
 5412W        W 9156   3.475   5.363  11.116  0.0105 -0.1897 -0.1694
 5413W        W 9157   0.353   5.706   0.180 -0.1302 -0.0249 -0.0801
 5414W        W 9158  10.189   3.820   1.942  0.0692 -0.4326  0.0854
 5415W        W 9159   5.895   6.856  11.682 -0.0627 -0.4005 -0.2030
 5416W        W 9160   9.994   7.344   9.198  0.0280  0.0121 -0.0434
 5417W        W 9161   8.973   1.857  11.334 -0.1698  0.0338 -0.1716
 5418W        W 9162   9.539   9.995  11.098 -0.1797 -0.2982 -0.1763
 5419W        W 9163   2.272   4.854   9.769  0.2855 -0.1270 -0.0302
 5420W        W 9164   5.362   4.523   8.548 -0.0347  0.3152 -0.0781
 5421W        W 9165  10.117   0.619   8.737 -0.3515 -0.1323  0.0665
 5422W        W 9166   1.219   9.960   1.763  0.1936  0.1687  0.5475
 5423W        W 9167   7.321   6.724   8.690  0.2435 -0.0363  0.1881
 5424W        W 9168   9.328   7.210   0.818  0.1773  0.0391  0.0338
 5425W        W 9169   0.379   6.033   3.664 -0.1269 -0.0955  0.4529
 5426W        W 9170   5.413   6.021   3.088 -0.0437  0.2203 -0.0229
 5427W        W 9171   1.967   4.412   0.842  0.3971  0.0524 -0.3345
 5428W        W 9172   8.585   4.474  10.426  0.0134 -0.0039  0.1331
 5429W        W 9173   9.674   2.994  11.551 -0.1282  0.0344  0.0636
 5430W        W 9174   4.652   4.438   7.747 -0.1335  0.1769  0.2669
 5431W        W 9175   8.980   2.825   0.176  0.0059 -0.1818  0.3005
 5432W        W 9176   5.037   8.008   1.139 -0.3217  0.3015  0.0026
 5433W        W 9177   9.369   7.715  11.851  0.1684 -0.0495 -0.2312
 5434W        W 9178   5.574   9.029   3.573 -0.1048 -0.0765 -0.2887
 5435W        W 9179   9.581   5.622   8.111  0.3230  0.2346  0.1924
 5436W        W 9180   4.259   9.545  12.006 -0.0928 -0.2858 -0.1577
 5437W        W 9181   0.231   3.117   8.980 -0.0983  0.0512  0.2687
 5438W        W 9182   2.861   3.910   0.560 -0.1600  0.1066  0.1947
 5439W        W 9183   0.064   8.575   3.129  0.0303  0.1498 -0.1584
 5440W        W 9184   2.402   4.860   8.583  0.1845  0.0011 -0.1323
 5441W        W 9185   3.708   4.511   9.023  0.3990  0.0103 -0.3621
 5442W        W 9186   8.450   7.311   9.895 -0.2777 -0.0904  0.0124
 5443W        W 9187   2.446   9.236   8.839 -0.0926  0.1249 -0.0474
 5444W        W 9188   6.235   8.558  11.772 -0.1047  0.1555 -0.4651
 5445W        W 9189   1.586   2.105   3.166  0.0412  0.1323  0.0407
 5446W        W 9190   7.825   3.077   8.159  0.1294  0.1546 -0.2842
 5447W        W 9191   0.789   5.057   1.201 -0.1552 -0.0649 -0.0525
 5448W        W 9192  10.005   7.210   0.011 -0.2443  0.3359  0.1274
 5449W        W 9193   4.869   7.920   2.356 -0.0821 -0.3821  0.0616
 5450W        W 9194   4.703   9.565   0.831  0.0180  0.0678 -0.2156
 5451W        W 9195   6.772   4.440   4.387 -0.0040 -0.1442 -0.0439
 5452W        W 9196   3.734   6.749   9.620 -0.0918  0.1397 -0.1880
 5453W        W 9197   8.916   8.107   0.733 -0.2940  0.1054 -0.1954
 5454W        W 9198   7.584   2.874   0.229 -0.1372  0.4438  0.4138
 5455W        W 9199   2.318   9.008  11.415 -0.1925  0.3946 -0.0559
 5456W        W 9200   9.788   4.204   3.284  0.3708  0.0752  0.0494
 5457W        W 9201   0.242   6.526   7.528  0.1379  0.0020 -0.0153
 5458W        W 9202   7.641   7.637   9.463 -0.1065 -0.1902  0.1481
 5459W        W 9203   6.667   0.152   1.365 -0.1782 -0.2114 -0.0910
 5460W        W 9204   9.866   1.732  11.548  0.1943  0.1329  0.1605
 5461W        W 9205   5.535   8.678   2.493 -0.1240  0.1120 -0.0231
 5462W        W 9206   1.450   6.471   0.841 -0.0280 -0.0978 -0.0233
 5463W        W 9207   7.034   5.578   7.854 -0.3109 -0.0026 -0.0942
 5464W        W 9208   6.600   6.977  11.850  0.1118  0.2299 -0.0352
 5465W        W 9209   1.537   5.731   2.428  0.1003 -0.5331 -0.0998
 5466W        W 9210   4.148   2.059   3.708  0.0756 -0.2674 -0.1387
 5467W        W 9211   9.556   2.558   2.772 -0.1615  0.1909  0.1451
 5468W        W 9212   9.644   4.878   1.723 -0.1206  0.0835  0.0026
 5469W        W 9213   8.029   9.851   9.023  0.1296  0.3567  0.0108
 5470W        W 9214   2.303   8.795   2.558  0.2831 -0.0915  0.1434
 5471W        W 9215   3.843   7.360   0.129  0.1539 -0.0452 -0.1384
 5472W        W 9216   5.346   3.144   0.063 -0.0562  0.2464 -0.0710
 5473W        W 9217   5.615   1.622   2.334 -0.1264  0.2491  0.0710
 5474W        W 9218   5.773   3.456   8.154  0.1118  0.0319  0.0500
 5475W        W 9219   4.298   9.963  11.139  0.1124  0.2353 -0.0945
 5476W        W 9220   5.870   5.562   0.719 -0.1379 -0.1870 -0.1140
 5477W        W 9221   1.014   2.849   2.725  0.0720  0.0954 -0.1749
 5478W        W 9222   2.768   0.251   3.202  0.1674  0.3715  0.0631
 5479W        W 9223   4.080   3.390   9.263 -0.2471  0.2859  0.0723
 5480W        W 9224   9.846   1.507   9.386  0.0120  0.0105 -0.2398
 5481W        W 9225   1.926   8.351   9.643 -0.0865 -0.0236  0.1714
 5482W        W 9226   0.978   1.582   0.696 -0.3162  0.0894 -0.1761
 5483W        W 9227   2.134   9.538   0.086 -0.1114 -0.3424  0.0863
 5484W        W 9228   1.731  10.150   0.796  0.0652 -0.1390  0.0442
 5485W        W 9229   0.666   7.172   0.906  0.4159 -0.1523 -0.1588
 5486W        W 9230   4.348   4.893   1.380 -0.0953 -0.0707 -0.0766
 5487W        W 9231   6.785   9.314   7.134  0.1825 -0.0741 -0.0460
 5488W        W 9232   0.165   2.558   7.863 -0.2316  0.2865  0.0788
 5489W        W 9233   4.424   6.678  11.095 -0.3261 -0.3011  0.2217
 5490W        W 9234   9.948   2.225   9.078  0.0329  0.0259  0.2922
 5491W        W 9235   8.437   7.952  11.993  0.0984  0.1317 -0.0075
 5492W        W 9236   8.764   3.152   1.638  0.1779 -0.2353 -0.1283
 5493W        W 9237   8.313   4.150   8.986  0.0743 -0.1157  0.1923
 5494W        W 9238   9.552   9.842   8.957 -0.1075 -0.0498 -0.0147
 5495W        W 9239   2.816   4.610   1.127 -0.1609 -0.1302  0.1383
 5496W        W 9240   1.664   3.610   1.245 -0.2271  0.0601 -0.3210
 5497W        W 9241   3.347   2.705   1.138  0.1655  0.4099 -0.0084
 5498W        W 9242   5.820   1.822  11.853 -0.1666  0.0491  0.0924
 5499W        W 9243   3.843   8.922   1.855  0.2247 -0.1608  0.2478
 5500W        W 9244   9.115   5.291   9.357 -0.2332 -0.0006 -0.5019
 5501W        W 9245   4.139   6.109  10.744 -0.0741 -0.2664  0.0371
 5502W        W 9246   1.640   9.942   2.525 -0.0933  0.2218 -0.0664
 5503W        W 9247   5.268   1.485   3.091 -0.1425  0.0302 -0.0843
 5504W        W 9248   3.451   2.988   9.418  0.2300 -0.1515  0.3523
 5505W        W 9249   8.809   0.589   3.356 -0.0706 -0.0915 -0.2614
 5506W        W 9250   7.149   9.149   0.968  0.2035 -0.0690  0.1935
 5507W        W 9251   5.298   6.457   2.837  0.2585  0.2006 -0.1013
 5508W        W 9252   0.445   4.523   8.613  0.1505 -0.1891  0.1225
 5509W        W 9253   9.435   5.140   2.138 -0.2490  0.1500 -0.2978
 5510W        W 9254   7.526   2.516   1.191 -0.0697 -0.0532  0.2403
 5511W        W 9255   8.180   2.620   2.862 -0.1158  0.1701 -0.0983
 5512W        W 9256   6.568   4.647   1.042 -0.1601  0.0947 -0.2907
 5513W        W 9257   6.939   1.973   1.299  0.0162  0.2009  0.1865
 5514W        W 9258   5.590   2.111   3.297 -0.2047 -0.1304  0.0684
 5515W        W 9259   0.648   3.327   1.606  0.2480 -0.1065 -0.6227
 5516W        W 9260   2.434   2.049   2.165  0.0210  0.2287  0.1304
 5517W        W 9261   8.265   3.061   1.334  0.2245  0.1382 -0.2010
 5518W        W 9262   7.874   5.873   8.745 -0.2001 -0.0493  0.3550
 5519W        W 9263   8.939   6.965   1.991 -0.0789 -0.3545 -0.3824
 5520W        W 9264   8.067   6.243   2.241  0.0479 -0.2532  0.1629
 5521W        W 9265   3.036   4.619   1.871 -0.0658 -0.2461  0.0566
 5522W        W 9266   2.456   6.115   9.330 -0.2438  0.0829  0.0971
 5523W        W 9267   5.613   1.289  10.685 -0.2707  0.1559 -0.1588
 5524W        W 9268  10.133   8.633  10.302  0.0039  0.0539  0.4596
 5525W        W 9269   6.445   6.682   8.605 -0.1162 -0.0571  0.0459
 5526W        W 9270   7.339   5.262  10.474  0.0443 -0.0755 -0.2385
 5527W        W 9271   1.587   8.675   2.872 -0.1150 -0.0001  0.0591
 5528W        W 9272   6.689   9.815   1.522 -0.0369 -0.3108 -0.0670
 5529W        W 9273   3.317   0.033   2.492  0.0799 -0.1204  0.0042
 5530W        W 9274   0.154   9.260  10.451  0.4124 -0.0613  0.2021
 5531W        W 9275   6.196   6.522   8.000  0.1048  0.2127  0.2358
 5532W        W 9276   6.886   2.750   1.333  0.0329 -0.3274 -0.0163
 5533W        W 9277   8.803   8.005   3.393  0.1911 -0.0704 -0.0396
 5534W        W 9278   8.526   0.526   0.764  0.1576  0.4129  0.2091
 5535W        W 9279   1.014   0.920   1.766 -0.2794 -0.2192  0.1622
 5536W        W 9280   9.011   1.887   1.959 -0.6097 -0.2458 -0.1277
 5537W        W 9281   2.689   4.770   9.497  0.0554 -0.0337  0.1885
 5538W        W 9282   2.706   7.550   3.650 -0.0531  0.0520  0.0115
 5539W        W 9283   7.870   2.887  11.064 -0.1863 -0.0911 -0.1936
 5540W        W 9284   6.780   4.616   9.769  0.0140  0.1679 -0.2705
 5541W        W 9285   4.600   6.425   0.837 -0.1134  0.2140 -0.0670
 5542W        W 9286   8.504   8.816   0.204  0.2569 -0.0843 -0.0192
 5543W        W 9287   3.674   2.810   3.886  0.2103  0.2162 -0.1297
 5544W        W 9288   0.963   8.422   1.715  0.2752  0.2945  0.1184
 5545W        W 9289   9.580   3.168  12.015 -0.1651  0.1892  0.1845
 5546W        W 9290   9.463   7.108   3.595 -0.1071 -0.1466 -0.5370
 5547W        W 9291   7.050   7.042   8.226  0.4150  0.1303  0.1610
 5548W        W 9292   3.702   8.942   3.718  0.0502 -0.0176 -0.1269
 5549W        W 9293   6.438   9.568  10.330  0.1922 -0.0058  0.0484
 5550W        W 9294   4.213   1.730   0.488  0.0689  0.0342  0.2102
 5551W        W 9295   2.273   0.393   1.324 -0.1697 -0.1493 -0.1498
 5552W        W 9296   5.910   0.834   8.898 -0.1693 -0.0088 -0.0301
 5553W        W 9297   7.611   2.864   3.893 -0.1862 -0.0954 -0.2819
 5554W        W 9298   7.338  10.023   7.184 -0.0201 -0.4482 -0.1912
 5555W        W 9299   7.744   5.783   1.371 -0.0913  0.3669 -0.1653
 5556W        W 9300   4.675   8.632   9.913  0.1301 -0.2873  0.5656
 5557W        W 9301   2.176   4.590   0.013  0.1696 -0.1473 -0.0061
 5558W        W 9302   5.384   2.363  11.840  0.3182  0.0266 -0.3196
 5559W        W 9303   5.046   9.644   1.221 -0.0564 -0.0013  0.2511
 5560W        W 9304   3.684   6.799   7.954  0.0707 -0.5335 -0.1813
 5561W        W 9305   2.137   5.663   0.740  0.2120 -0.4711 -0.1500
 5562W        W 9306   4.313   0.578   1.546  0.3408  0.2737  0.0183
 5563W        W 9307   7.742   4.657   2.083  0.1788 -0.0477  0.2517
 5564W        W 9308   1.909   3.967   2.706 -0.1302 -0.2148  0.0590
 5565W        W 9309   1.931   5.034  12.075 -0.0479  0.4216 -0.1354
 5566W        W 9310   3.761   0.915   2.271  0.0981 -0.1341  0.0471
 5567W        W 9311   8.434   3.591  10.818  0.0075  0.0617 -0.3234
 5568W        W 9312   7.471   1.787   3.689  0.2415 -0.0968 -0.1017
 5569W        W 9313   3.021   8.228   1.059  0.0949 -0.1818 -0.0406
 5570W        W 9314   5.592   7.156   7.116  0.3607 -0.0276  0.2728
 5571W        W 9315   4.052   9.992   1.739  0.1487  0.0003  0.3260
 5572W        W 9316   1.426  10.201   9.690  0.1385  0.0932  0.2031
 5573W        W 9317   2.500   4.769  11.856  0.1810 -0.2585  0.0082
 5574W        W 9318   2.083   1.522   0.819  0.0653  0.0653  0.0501
 5575W        W 9319   8.426   0.400   7.762  0.3182 -0.0692  0.1425
 5576W        W 9320  10.120   4.296   9.474 -0.1751 -0.0676  0.1125
 5577W        W 9321   2.019  10.023  12.096 -0.2459  0.4276 -0.2560
 5578W        W 9322   7.195   9.677  11.265 -0.0326 -0.2348 -0.3435
 5579W        W 9323   6.848   5.183  11.705 -0.0588 -0.0943  0.0844
 5580W        W 9324   4.904   2.511  11.732  0.0048 -0.1315  0.1041
 5581W        W 9325   8.225   1.553   2.242  0.1433 -0.0447 -0.0915
 5582W        W 9326   4.727   9.291   8.506  0.3291 -0.0247  0.0455
 5583W        W 9327   8.688   7.822   1.125 -0.0352 -0.3870 -0.1097
 5584W        W 9328   5.805   0.603   8.038  0.1880  0.0506 -0.3726
 5585W        W 9329   4.932   4.653   2.551 -0.0264 -0.0648 -0.2077
 5586W        W 9330   4.712   0.201  10.437  0.1636  0.2926 -0.2232
 5587W        W 9331   9.217   0.134   8.285  0.1617 -0.2233 -0.1414
 5588W        W 9332   3.216   9.758   2.755 -0.1409  0.1445  0.0556
 5589W        W 9333   9.285   5.242  11.470  0.1451 -0.0965  0.0791
 5590W        W 9334  10.174   0.793  10.623 -0.0533 -0.0702 -0.0973
 5591W        W 9335   7.408   8.364   8.284  0.0686  0.2446 -0.0062
 5592W        W 9336   8.166   9.220   0.315 -0.0355  0.3856  0.0322
 5593W        W 9337   4.220   2.708  10.994 -0.0099 -0.1451  0.3687
 5594W        W 9338   9.581   9.146   8.126  0.2116  0.0359  0.0568
 5595W        W 9339   4.187  10.137  12.004 -0.3291  0.1818  0.4939
 5596W        W 9340   5.266   2.245   0.809  0.2774  0.1940  0.2661
 5597W        W 9341   7.750   0.055   4.056 -0.1718  0.1272 -0.0981
 5598W        W 9342   2.015   5.754   9.024  0.3088 -0.0970  0.1617
 5599W        W 9343   7.527   9.565   8.067 -0.0385  0.1074  0.0574
 5600W        W 9344   1.229   3.428   8.406 -0.1507 -0.1541 -0.2406
 5601W        W 9345   9.734   0.746   1.044  0.1495  0.2680 -0.0578
 5602W        W 9346   0.815   0.614  10.920  0.3064  0.1917 -0.1434
 5603W        W 9347   2.570   0.657  11.306 -0.1493 -0.3423 -0.2562
 5604W        W 9348   0.060   4.399  11.319  0.1005 -0.0183  0.3005
 5605W        W 9349   0.325   9.850  11.770  0.1833 -0.1662  0.0484
 5606W        W 9350   0.120   7.785   9.045  0.1713  0.0234 -0.2553
 5607W        W 9351   5.940   4.424  10.848  0.2660 -0.1367  0.2067
 5608W        W 9352   8.321   0.211   7.202 -0.1006 -0.1792  0.0371
 5609W        W 9353   3.060   6.720   1.448 -0.1524 -0.1820  0.0693
 5610W        W 9354   8.637   1.818   3.332 -0.0432 -0.0500  0.1356
 5611W        W 9355   8.890   6.619  11.206 -0.0730 -0.0193 -0.4158
 5612W        W 9356   3.691   7.093   7.540 -0.0922 -0.0703  0.1138
 5613W        W 9357   3.915   5.662   9.822  0.1961  0.1970  0.0359
 5614W        W 9358   2.551   7.440   0.388  0.0004 -0.0440 -0.0901
 5615W        W 9359   3.975   3.018  11.872 -0.0313  0.3312  0.2336
 5616W        W 9360   3.977   7.225  10.153 -0.0948  0.2310  0.3523
 5617W        W 9361   7.609   3.692   4.195 -0.0152 -0.1259 -0.0749
 5618W        W 9362   7.437   1.164  11.987  0.0698 -0.0977 -0.1695
 5619W        W 9363   4.311   1.572   4.022 -0.0279  0.1614 -0.0062
 5620W        W 9364   0.955   7.864  10.851  0.1601  0.0701 -0.0069
 5621W        W 9365   3.394   6.405  11.890  0.0967  0.1826  0.0573
 5622W        W 9366   6.580   9.458   8.179  0.2744  0.2720  0.2541
 5623W        W 9367   2.604   2.234   1.160 -0.0200  0.1978  0.0703
 5624W        W 9368   7.527   0.053   2.859 -0.1754 -0.0904  0.2891
 5625W        W 9369   4.632   1.927  11.259  0.2097 -0.2039  0.0390
 5626W        W 9370   3.638   3.260   2.908 -0.0063  0.1525  0.2653
 5627W        W 9371   0.305   7.222   1.296  0.1278 -0.1347 -0.0298
 5628W        W 9372   4.236   2.695   8.931  0.0123  0.1110 -0.0671
 5629W        W 9373   8.898   9.408  11.157  0.1930 -0.2565  0.2317
 5630W        W 9374   7.473   8.166   7.731  0.1859 -0.1645 -0.2932
 5631W        W 9375   6.831   5.659  11.349  0.0410 -0.2667 -0.2883
 5632W        W 9376   4.687   9.120   1.586  0.1871 -0.4249 -0.3831
 5633W        W 9377   5.003   6.374   9.824  0.1651  0.0660 -0.1288
 5634W        W 9378   5.520   4.298   9.526 -0.0973  0.2020  0.0105
 5635W        W 9379   9.541   6.115   9.405 -0.1447 -0.1657  0.0549
 5636W        W 9380   8.019   2.355   9.675 -0.2116 -0.1060 -0.0642
 5637W        W 9381   2.926   4.454   0.566  0.3193  0.3562  0.2625
 5638W        W 9382   0.056   6.698  11.370 -0.1568  0.1584 -0.0084
 5639W        W 9383   1.919   2.751   1.673 -0.1027  0.0025 -0.2178
 5640W        W 9384   2.170   6.808  10.596  0.1704  0.2265 -0.3114
 5641W        W 9385   1.994   4.414  11.235  0.1255  0.0484 -0.1531
 5642W        W 9386   6.186   9.998  10.384  0.1908 -0.2759 -0.1688
 5643W        W 9387   1.289   8.794   9.507 -0.2035  0.2846 -0.2518
 5644W        W 9388   3.786  10.056  11.171  0.2133 -0.0593  0.3185
 5645W        W 9389   3.708   7.722   2.874  0.6595 -0.0508  0.0679
 5646W        W 9390   7.802   4.576   8.349 -0.2998  0.1280  0.3902
 5647W        W 9391   5.997   9.100   3.322  0.0083 -0.1223  0.2959
 5648W        W 9392   1.701   0.527   1.381  0.1927  0.0199 -0.1638
 5649W        W 9393   4.060   7.332  10.687  0.1762  0.2087 -0.0046
 5650W        W 9394   5.676   5.957   1.295 -0.0066 -0.1285 -0.1187
 5651W        W 9395   5.859   4.304  11.410 -0.0323 -0.1684 -0.0791
 5652W        W 9396   0.182  10.144  10.612 -0.2925  0.1562 -0.0206
 5653W        W 9397   7.451   5.293   7.930  0.0056 -0.2174 -0.1089
 5654W        W 9398   6.797   3.503  10.173  0.0562 -0.3164  0.0485
 5655W        W 9399   5.389  10.017  11.703  0.0997 -0.0556 -0.2880
 5656W        W 9400   4.199   2.027   0.979 -0.0248 -0.1279 -0.3346
 5657W        W 9401   5.003   9.669   2.566  0.0801  0.3985  0.0646
 5658W        W 9402   4.437   8.673   2.361  0.0889  0.1667  0.1288
 5659W        W 9403   3.722   2.521   8.719 -0.1704 -0.0601 -0.0570
 5660W        W 9404   5.891   7.770  11.587  0.0792 -0.1469  0.0064
 5661W        W 9405   1.381   0.609  10.413 -0.1629 -0.0773  0.2087
 5662W        W 9406  10.147   9.643   0.932  0.3182  0.1178  0.1328
 5663W        W 9407   8.565   2.492   7.457 -0.2149  0.0698 -0.0634
 5664W        W 9408   3.898   4.529   3.206  0.0029  0.1047 -0.1189
 5665W        W 9409   1.066   6.502   1.141 -0.2817  0.1355 -0.4257
 5666W        W 9410   8.547   9.734   2.569 -0.0102 -0.0857  0.0156
 5667W        W 9411   6.555   3.308   2.209  0.1006 -0.0242 -0.3122
 5668W        W 9412   8.699   5.425   3.153  0.5728 -0.2920 -0.2006
 5669W        W 9413   7.527   1.144   8.550  0.2450 -0.1802  0.1125
 5670W        W 9414   3.135   8.288  10.104  0.0272 -0.0294  0.1718
 5671W        W 9415   7.649   9.743  10.970 -0.0353 -0.0526 -0.3879
 5672W        W 9416   6.249   7.211   2.911 -0.0979 -0.0253 -0.3495
 5673W        W 9417   3.158   5.506   0.710 -0.0938  0.1005 -0.1413
 5674W        W 9418   8.280   8.237   2.804 -0.0312 -0.4003 -0.0302
 5675W        W 9419   1.608   0.532   2.331 -0.0703 -0.2172  0.0252
 5676W        W 9420   4.361   2.249  11.488 -0.3127  0.2460 -0.0720
 5677W        W 9421   7.791   7.307  10.716  0.0030 -0.1675  0.1814
 5678W        W 9422   4.536   5.858   1.008  0.2666  0.3150  0.1030
 5679W        W 9423   4.568   4.177   3.243 -0.0351  0.0864  0.2037
 5680W        W 9424   5.213   0.366   1.263 -0.3144  0.4341 -0.2360
 5681W        W 9425   9.534   2.065   1.638 -0.2148  0.1314 -0.2970
 5682W        W 9426   5.346  10.145   0.413  0.4050 -0.0152 -0.3103
 5683W        W 9427   6.983   3.678  10.881 -0.1204 -0.3440 -0.1915
 5684W        W 9428   9.971   3.036   1.856  0.2468  0.0428 -0.2748
 5685W        W 9429   6.412   2.789   0.663  0.0089  0.2054  0.1848
 5686W        W 9430   4.477   0.018   3.039 -0.0438  0.2535 -0.4069
 5687W        W 9431   5.444   9.517  11.690  0.0090  0.2924  0.0752
 5688W        W 9432   7.163   4.743  11.691 -0.2354 -0.2642 -0.1279
 5689W        W 9433   4.056   4.588   1.083 -0.2946  0.2378  0.0290
 5690W        W 9434   9.107   1.491   1.189 -0.2369 -0.2181  0.2621
 5691W        W 9435   8.791   4.553  10.002 -0.0027  0.1661 -0.0445
 5692W        W 9436   9.236   6.887   1.639  0.0593 -0.1848  0.1245
 5693W        W 9437   5.416   4.158   0.146  0.3123 -0.1017 -0.0827
 5694W        W 9438   7.411   0.715   0.212  0.0234  0.2669  0.0015
 5695W        W 9439   1.928   6.729   8.316  0.3028  0.0643  0.0001
 5696W        W 9440   9.153   2.712  10.830  0.0636 -0.1336 -0.2980
 5697W        W 9441   4.257   0.656   2.924  0.0059 -0.1718  0.1294
 5698W        W 9442   4.034   4.955  10.487  0.0398 -0.1412  0.1296
 5699W        W 9443   5.651   2.683   0.092  0.1093 -0.2332 -0.0114
 5700W        W 9444   7.674   5.647   7.542  0.0051  0.1351 -0.1692
 5701W        W 9445   2.786   0.978   1.508  0.2330 -0.2741 -0.0586
 5702W        W 9446   8.985   4.238  10.869  0.1742 -0.3441 -0.0248
 5703W        W 9447   0.690   2.705   2.396  0.0258 -0.0481 -0.2073
 5704W        W 9448   1.481   2.691   9.613  0.0448 -0.2165  0.0274
 5705W        W 9449   2.442   3.049   2.696 -0.0683  0.2048 -0.0146
 5706W        W 9450   7.232   1.120   7.542  0.3280 -0.2822 -0.0805
 5707W        W 9451   0.656   4.355  10.672 -0.1097 -0.0481  0.0449
 5708W        W 9452   9.237   0.620   3.988 -0.5135 -0.1154 -0.0191
 5709W        W 9453   9.321   1.621   1.625 -0.2663  0.2086 -0.0945
 5710W        W 9454   9.649   5.189   1.235 -0.3069  0.1070  0.1105
 5711W        W 9455   9.604   6.141   7.955 -0.1166 -0.0993 -0.1289
 5712W        W 9456   6.897   9.431   1.847 -0.3488 -0.0294 -0.1254
 5713W        W 9457   6.621   5.472   4.060  0.4447  0.0720  0.0224
 5714W        W 9458   2.183   5.330   8.234  0.2432  0.0605  0.0121
 5715W        W 9459   1.976   4.876   8.875 -0.1783  0.1613 -0.3932
 5716W        W 9460   7.125   0.742   2.526 -0.0178  0.0686  0.1215
 5717W        W 9461   0.007   0.790   8.258  0.1492 -0.1875  0.2101
 5718W        W 9462  10.163   1.774   8.812 -0.4927 -0.1264  0.2990
 5719W        W 9463   4.413   7.934  10.652  0.2239  0.2509  0.0086
 5720W        W 9464   7.281   1.183  10.314  0.1210 -0.0652 -0.0567
 5721W        W 9465   5.132   0.834   3.909 -0.0195 -0.6057 -0.2446
 5722W        W 9466   5.155   3.008  11.775  0.1213  0.0667  0.3532
 5723W        W 9467   8.147   1.233   2.607 -0.0100  0.1793  0.2638
 5724W        W 9468   7.438   2.890   9.461 -0.1057  0.1026  0.2787
 5725W        W 9469   9.317   1.754   0.162 -0.0743  0.0295 -0.2449
 5726W        W 9470   8.684   0.287   8.488 -0.1118  0.3406 -0.0371
 5727W        W 9471   5.735   6.528   8.436  0.1405  0.1215  0.1468
 5728W        W 9472   8.861   7.085  11.422 -0.1067 -0.0828  0.0981
 5729W        W 9473   5.643   8.652   9.723  0.0767  0.0158 -0.0192
 5730W        W 9474   9.909   4.753   9.921  0.0670  0.0483  0.2189
 5731W        W 9475   2.184   9.246  10.576  0.1175  0.0863 -0.1655
 5732W        W 9476   9.514   4.047   8.639  0.1047 -0.0693 -0.0380
 5733W        W 9477   8.720   3.051   1.053 -0.0062 -0.3291  0.1131
 5734W        W 9478   7.606   3.197  10.760 -0.1269  0.2065 -0.2455
 5735W        W 9479   4.601   8.058   2.773 -0.0287  0.0650  0.0806
 5736W        W 9480   0.616   0.539  11.956  0.0458 -0.1570  0.0053
 5737W        W 9481   4.131   1.345   9.217 -0.2492 -0.1870 -0.0998
 5738W        W 9482   8.994   3.262   9.736 -0.0463 -0.2044  0.1148
 5739W        W 9483   5.253   2.904   2.523 -0.0394 -0.0995 -0.0560
 5740W        W 9484   3.487   3.624   0.234  0.0597  0.0806 -0.0736
 5741W        W 9485   0.934   6.447   8.948 -0.2191  0.0861 -0.2877
 5742W        W 9486   8.853   3.776  12.089  0.0242 -0.3888 -0.0741
 5743W        W 9487   4.126   9.260  11.558 -0.0181  0.3422 -0.0910
 5744W        W 9488   2.958   3.752   8.997  0.0612  0.2619 -0.0565
 5745W        W 9489   7.196   4.733   2.715 -0.1014  0.1602  0.2254
 5746W        W 9490   9.203   1.983   1.161 -0.4284  0.2469  0.0793
 5747W        W 9491   3.104   3.529   1.082  0.1968 -0.1401  0.0022
 5748W        W 9492   7.769   4.167  12.008 -0.1017 -0.0988  0.1064
 5749W        W 9493   2.404   5.760   2.118  0.1450 -0.0012  0.3032
 5750W        W 9494   4.713   0.638  10.805  0.1949 -0.2400 -0.0407
 5751W        W 9495   6.837   4.205   1.170 -0.0400  0.3381 -0.0997
 5752W        W 9496   5.312   1.322   0.850  0.3860  0.2059  0.2542
 5753W        W 9497   3.628   6.025   3.115 -0.1392 -0.1976 -0.1224
 5754W        W 9498   0.788   2.770   1.668 -0.1727 -0.2265  0.0090
 5755W        W 9499  10.170   3.942   1.431  0.0586  0.0646 -0.0100
 5756W        W 9500   8.636   3.584   1.869 -0.1549 -0.2473 -0.0436
 5757W        W 9501   4.040   4.374   2.399  0.0871  0.2079  0.1167
 5758W        W 9502   0.623   6.525   0.092  0.0189 -0.0638 -0.2708
 5759W        W 9503   2.344   6.164  11.650  0.0381  0.1456 -0.2813
 5760W        W 9504   9.041   4.666  11.732  0.0281  0.0015 -0.1381
 5761W        W 9505   3.187   1.722   9.355 -0.1384  0.1593 -0.2923
 5762W        W 9506   5.785   5.201   2.214  0.3254 -0.1142 -0.1705
 5763W        W 9507   3.809   6.908  10.984 -0.1812 -0.1080 -0.1582
 5764W        W 9508   6.681   5.402   8.693  0.0309  0.0952  0.2939
 5765W        W 9509   7.578   0.473  11.024  0.2468 -0.0929  0.0694
 5766W        W 9510   8.446   3.047   7.617  0.1280  0.1904 -0.1880
 5767W        W 9511   5.031   2.164   8.618 -0.2148  0.0997 -0.2491
 5768W        W 9512   3.469   1.219   9.106  0.0629 -0.1814  0.1159
 5769W        W 9513   9.090   3.469   8.045 -0.0052  0.0573 -0.0829
 5770W        W 9514   4.430   9.802   8.479  0.0451  0.0951 -0.0530
 5771W        W 9515   0.508   9.056   2.085  0.0400 -0.0093  0.0981
 5772W        W 9516   1.771   4.498   7.986  0.3363 -0.0260  0.1079
 5773W        W 9517   2.192   7.420   0.043 -0.2262 -0.0606 -0.4477
 5774W        W 9518   7.976   7.648  11.207 -0.1181  0.2032 -0.0824
 5775W        W 9519   6.771   7.964   9.963 -0.2579 -0.0640  0.4240
 5776W        W 9520   6.123   6.846   7.159  0.0076  0.1739  0.1282
 5777W        W 9521   5.557   3.854   9.240  0.1526 -0.1521 -0.0230
 5778W        W 9522   8.103   5.383   8.537 -0.2627  0.2530  0.1646
 5779W        W 9523   5.765   6.563   3.036 -0.0597 -0.0698 -0.3348
 5780W        W 9524   1.321   7.750   9.935  0.0714  0.2954  0.3385
 5781W        W 9525   7.168   1.713   1.678 -0.0341 -0.3873 -0.2257
 5782W        W 9526   2.243   4.898  10.624  0.2448 -0.0707 -0.0988
 5783W        W 9527   7.256   8.744   0.760 -0.0382  0.0119 -0.1945
 5784W        W 9528   9.247   0.026   0.241 -0.1277  0.1554  0.2827
 5785W        W 9529   7.749   6.106   8.236  0.1945 -0.0632  0.0995
 5786W        W 9530   0.084   6.069   0.034  0.0901 -0.2384 -0.4163
 5787W        W 9531   2.569   5.660   0.254 -0.0086  0.0473  0.1822
 5788W        W 9532   6.171   0.570   2.578 -0.0144  0.0796  0.1597
 5789W        W 9533   1.529   5.917   9.311 -0.1630  0.1645 -0.1110
 5790W        W 9534   8.167   1.806  11.257  0.0976  0.1747  0.2107
 5791W        W 9535   1.154   5.283   0.616  0.0278  0.1926  0.0976
 5792W        W 9536   7.029   9.727   8.019  0.4199  0.0590  0.2172
 5793W        W 9537   6.824   3.349   0.541  0.1837  0.3156 -0.0309
 5794W        W 9538   6.900  10.172   8.085 -0.2689 -0.0635 -0.1204
 5795W        W 9539   2.723   8.109   9.840 -0.0274  0.0166  0.2287
 5796W        W 9540   6.778   0.110   9.742  0.2167 -0.1357 -0.2849
 5797W        W 9541   7.881   9.342   4.022 -0.0859  0.1245 -0.0343
 5798W        W 9542   0.668   5.358   0.581  0.3460  0.0040 -0.3168
 5799W        W 9543   6.403   3.635   0.309  0.0843 -0.0614 -0.1819
 5800W        W 9544  10.210   7.233   3.004 -0.4825 -0.0910 -0.0413
 5801W        W 9545   3.879   3.693   8.409 -0.0666  0.1876  0.2579
 5802W        W 9546   2.615   9.390   4.277 -0.0521  0.1685 -0.0927
 5803W        W 9547   9.048   7.565   2.874 -0.0662 -0.3191  0.0277
 5804W        W 9548   5.354   5.527   1.249  0.1240 -0.0505  0.1269
 5805W        W 9549   3.601   8.009  10.363 -0.0094  0.0692  0.0526
 5806W        W 9550   4.112   7.720  10.274  0.0511  0.1599 -0.0951
 5807W        W 9551   9.540   7.803  11.407 -0.0530 -0.3527  0.0816
 5808W        W 9552   4.888   6.744   0.614 -0.2381 -0.1566  0.2754
 5809W        W 9553   3.378   3.340   2.471 -0.3023 -0.0065  0.3630
 5810W        W 9554   9.391   1.790   7.385 -0.0141 -0.2534  0.0318
 5811W        W 9555   8.260   1.742   1.030 -0.3284 -0.2447 -0.0351
 5812W        W 9556  10.139   1.376   8.450 -0.0678  0.2734 -0.0731
 5813W        W 9557   4.050   3.730  11.752  0.1827 -0.2649 -0.1023
 5814W        W 9558   7.661   4.536  11.637 -0.2341 -0.0379  0.1194
 5815W        W 9559   6.225   9.087   3.848  0.1658  0.0234  0.1578
 5816W        W 9560   6.108   1.361   1.693 -0.0020  0.0153 -0.0788
 5817W        W 9561   2.813   0.452   0.133 -0.2136  0.0602  0.3968
 5818W        W 9562   2.491   4.225   0.864 -0.0403 -0.0563  0.1051
 5819W        W 9563   4.485   7.229   2.300  0.0808 -0.2121  0.1662
 5820W        W 9564   2.946   7.994   2.573 -0.0209 -0.1885  0.1189
 5821W        W 9565   0.624   8.553   2.154 -0.1993  0.0420 -0.0089
 5822W        W 9566   7.420   4.687   0.525 -0.2345  0.1285 -0.0212
 5823W        W 9567   7.519   0.492   1.293  0.3087  0.1075 -0.1309
 5824W        W 9568   6.695   8.670   0.429  0.0742  0.2078  0.3940
 5825W        W 9569   3.609   4.927   9.424 -0.1527 -0.1253 -0.3032
 5826W        W 9570   7.787   8.809   0.320  0.0241 -0.1045  0.1412
 5827W        W 9571  10.129   3.440   3.970 -0.2123 -0.1808  0.1164
 5828W        W 9572   1.112   4.020   8.271 -0.0800  0.1005 -0.1550
 5829W        W 9573   9.346   9.564   1.793  0.2421  0.0515 -0.1643
 5830W        W 9574   7.784   1.691   2.444  0.0348 -0.1455 -0.3047
 5831W        W 9575   7.107   0.162  10.930 -0.2783  0.1727  0.0610
 5832W        W 9576   3.717   3.312   3.823 -0.1890  0.1290 -0.1108
 5833W        W 9577   6.680   8.951   1.993 -0.0220  0.0643  0.1607
 5834W        W 9578  10.060   6.806  10.331 -0.0887 -0.2180  0.3618
 5835W        W 9579   8.067   6.794  10.136 -0.0508 -0.0050  0.2084
 5836W        W 9580   9.960   2.467   0.616  0.0578 -0.1105  0.1081
 5837W        W 9581   5.553   7.958   0.870 -0.1709  0.1940  0.0209
 5838W        W 9582   8.936   2.790   3.346  0.2132 -0.0501 -0.3009
 5839W        W 9583   2.529   3.028   9.374 -0.4056  0.1400 -0.3279
 5840W        W 9584   7.888   7.973   3.010  0.0224  0.3005 -0.0687
 5841W        W 9585   7.042   5.415   8.296 -0.1300  0.3225  0.1034
 5842W        W 9586   8.288   2.754  11.707 -0.1004  0.1054 -0.1563
 5843W        W 9587   4.288   4.017   8.519 -0.1243 -0.1038 -0.2538
 5844W        W 9588   5.610   2.857  11.740  0.0694  0.0739 -0.0072
 5845W        W 9589   4.102   0.209  11.174  0.0242 -0.2571  0.0095
 5846W        W 9590   9.619   3.997   1.492 -0.1710 -0.0079  0.1519
 5847W        W 9591   9.883   0.339   0.689 -0.1607 -0.0445 -0.2349
 5848W        W 9592   1.289   7.152  11.113 -0.0573 -0.1661  0.3056
 5849W        W 9593   1.328   4.200   9.127 -0.1410 -0.1704 -0.1534
 5850W        W 9594   0.830   9.551  10.187  0.0146  0.0894 -0.2361
 5851W        W 9595   0.158   2.781  10.317 -0.3390  0.1978  0.0928
 5852W        W 9596   4.005   0.372   0.706 -0.0218  0.0159  0.2741
 5853W        W 9597   1.254   0.224   2.053  0.2808  0.3649 -0.1257
 5854W        W 9598   1.283   6.859   1.490 -0.4109  0.0958 -0.0873
 5855W        W 9599   1.028   3.324   1.182 -0.2504  0.2918 -0.2579
 5856W        W 9600   4.954   7.476   3.667  0.2930  0.1652 -0.2294
 5857W        W 9601   1.156   3.644   1.588  0.1771 -0.0194  0.0368
 5858W        W 9602   2.595   2.916   8.339  0.1754  0.4094 -0.3546
 5859W        W 9603   1.196   3.161   1.649  0.3452 -0.0542 -0.2339
 5860W        W 9604   4.405   7.454  11.436 -0.1397 -0.2331 -0.2317
 5861W        W 9605   2.783   0.520   2.265  0.3517 -0.0047  0.0228
 5862W        W 9606   0.952   8.236   0.133  0.0636 -0.0821 -0.0247
 5863W        W 9607   8.619   1.522  11.181 -0.2581 -0.1736 -0.2846
 5864W        W 9608   6.526   2.895  11.202 -0.0823 -0.0246 -0.0251
 5865W        W 9609   3.434   9.866  10.155  0.0198  0.4426  0.1677
 5866W        W 9610   1.093   9.265   8.882 -0.0520 -0.0439 -0.1536
 5867W        W 9611   6.495   4.448  10.659  0.0612  0.1700 -0.1812
 5868W        W 9612   2.801   3.346   0.643 -0.1782 -0.0761  0.2537
 5869W        W 9613   5.243   4.227   3.910  0.0717 -0.1136  0.3610
 5870W        W 9614   0.419   3.860   1.665 -0.1238 -0.3696 -0.1149
 5871W        W 9615   3.498   9.576  11.133 -0.2628 -0.2305 -0.0555
 5872W        W 9616   2.002   1.273  11.878 -0.1694 -0.3091  0.1927
 5873W        W 9617   7.663   3.367  10.287 -0.0184 -0.2127  0.4162
 5874W        W 9618   7.922   3.823   9.436 -0.2390  0.2431  0.0107
 5875W        W 9619   1.297   4.945   1.966 -0.0867 -0.2590 -0.0343
 5876W        W 9620   1.862   8.180   8.676  0.1769  0.3107 -0.0424
 5877W        W 9621   9.997   1.413  10.278  0.0373  0.3007 -0.1333
 5878W        W 9622   4.917   8.382   8.880 -0.1630 -0.2071 -0.2236
 5879W        W 9623   5.496   5.570   8.543  0.0604  0.0421  0.0818
 5880W        W 9624   0.722   5.815  10.027 -0.3134  0.0631  0.1475
 5881W        W 9625   8.877   7.988  11.356  0.1269  0.0065 -0.0117
 5882W        W 9626   8.871   1.938   0.349 -0.1676  0.1353  0.1145
 5883W        W 9627   2.761   2.411   9.718  0.0221  0.1618 -0.2232
 5884W        W 9628   0.838   6.929   0.343  0.1421 -0.3123 -0.2554
 5885W        W 9629   3.806   3.445  11.458  0.1054  0.2210  0.0498
 5886W        W 9630   6.113   7.057  12.053  0.0682 -0.1961  0.3288
 5887W        W 9631   1.720   9.729  10.817  0.1934  0.3888  0.0393
 5888W        W 9632   0.466   2.530   3.319 -0.1490  0.1364 -0.0692
 5889W        W 9633   5.010   8.134   8.170 -0.3283  0.1881 -0.3016
 5890W        W 9634   0.325   7.514  10.083 -0.2680  0.3588 -0.2674
 5891W        W 9635   1.081   9.865   8.792  0.4993  0.1336  0.0308
 5892W        W 9636   6.938   8.385   8.978  0.0121 -0.0809  0.2415
 5893W        W 9637   6.039   3.669   6.821  0.0365 -0.0236 -0.0715
 5894W        W 9638   5.690   8.728   1.986 -0.0530 -0.0029 -0.2188
 5895W        W 9639   7.198   6.069   0.007 -0.1939 -0.0436 -0.2872
 5896W        W 9640   8.342   9.750   3.437  0.1265 -0.1125 -0.0722
 5897W        W 9641   4.591   5.345   2.289 -0.2428 -0.1028  0.2918
 5898W        W 9642   6.504   9.879   3.886  0.2394  0.0163 -0.0802
 5899W        W 9643   6.034   6.927   9.773 -0.2745 -0.2131 -0.1525
 5900W        W 9644   5.267   1.761  12.020 -0.0564 -0.1938 -0.2353
 5901W        W 9645   6.800   6.336   1.923  0.0955 -0.2092 -0.1622
 5902W        W 9646   3.163   8.747   9.956 -0.1998  0.2385  0.0787
 5903W        W 9647   0.301   3.354   9.517 -0.0406  0.1336  0.0505
 5904W        W 9648   1.840   4.530   0.372 -0.2110 -0.0963 -0.1689
 5905W        W 9649   9.057   6.392  10.760  0.2050 -0.1079  0.0805
 5906W        W 9650   4.245   7.026   9.721  0.1643 -0.0249  0.0567
 5907W        W 9651   7.642   3.671  11.961  0.2921  0.0647 -0.0696
 5908W        W 9652   8.716   2.611  11.400 -0.0049  0.0039 -0.3030
 5909W        W 9653   5.816   2.849  10.084  0.0003  0.0407 -0.1530
 5910W        W 9654   2.120   9.364  11.035  0.2557  0.0154 -0.0080
 5911W        W 9655   5.905   1.123   7.906  0.0378 -0.0450  0.0653
 5912W        W 9656   8.693   5.602   0.474  0.0705 -0.0280 -0.0223
 5913W        W 9657   8.813   5.049   1.422  0.0362 -0.1392  0.3762
 5914W        W 9658   5.577   8.297   7.880  0.2838 -0.2580 -0.0558
 5915W        W 9659   2.712   7.969   1.922  0.0847 -0.1729  0.0922
 5916W        W 9660   3.942   7.810  10.807 -0.2669  0.4391  0.0034
 5917W        W 9661   3.479   6.664   0.165  0.2521  0.2324  0.0830
 5918W        W 9662   7.992   4.764   1.475  0.2195 -0.2734 -0.1978
 5919W        W 9663   1.406   5.055   8.044 -0.2930  0.1000 -0.1829
 5920W        W 9664   8.445   6.810   9.131  0.2461 -0.1099  0.1108
 5921W        W 9665   5.246   8.692   8.446  0.0715 -0.3134 -0.1590
 5922W        W 9666   8.050   9.360   3.549  0.2372 -0.0733 -0.2726
 5923W        W 9667   2.086   2.343   8.863  0.2337 -0.2851 -0.0409
 5924W        W 9668   8.384   7.939  11.057  0.2420 -0.1565  0.1975
 5925W        W 9669   3.543   0.970   9.527 -0.1565 -0.0039  0.2426
 5926W        W 9670   1.128   7.240   1.140 -0.0002 -0.0608  0.1116
 5927W        W 9671   6.308   5.330   7.860 -0.0254 -0.2087 -0.3328
 5928W        W 9672   3.979   4.893   8.776  0.0569 -0.0002 -0.1718
 5929W        W 9673   2.715   5.764   1.289  0.2795 -0.3004  0.1344
 5930W        W 9674   2.678   7.705  12.100 -0.2472 -0.0508  0.1298
 5931W        W 9675   8.717   2.598   7.961 -0.0449  0.0892  0.0481
 5932W        W 9676   0.355   4.728   1.399  0.0111 -0.1121  0.3153
 5933W        W 9677   8.358   9.568   0.624  0.2358 -0.0096 -0.2756
 5934W        W 9678   4.582   1.185  10.666 -0.1436  0.3923 -0.0620
 5935W        W 9679   4.037   6.442   9.435 -0.2261  0.1018 -0.6453
 5936W        W 9680   0.838   2.487   0.105  0.0914  0.1355 -0.0687
 5937W        W 9681   6.675   7.147  10.561  0.1768 -0.1601 -0.1380
 5938W        W 9682   2.707   0.752   3.626 -0.0109 -0.1329  0.0809
 5939W        W 9683   8.856   3.907   7.866  0.2019 -0.0115  0.2930
 5940W        W 9684   0.859   7.464   9.397 -0.0227  0.0906 -0.0580
 5941W        W 9685   2.671   5.462  10.074  0.1349  0.0959  0.0136
 5942W        W 9686   3.112   0.176   1.981 -0.0826 -0.1681 -0.2235
 5943W        W 9687   2.139   5.328   3.560  0.1011 -0.1504 -0.1241
 5944W        W 9688   4.989   6.969   1.675 -0.3249 -0.0133  0.1324
 5945W        W 9689   3.768   2.990   8.977 -0.0265  0.0779 -0.0347
 5946W        W 9690   9.067   5.130   8.430  0.0466 -0.0319 -0.1665
 5947W        W 9691   1.937   3.821   7.405 -0.0358  0.3141  0.2370
 5948W        W 9692   1.898   6.423   7.886  0.2697  0.2229 -0.1239
 5949W        W 9693   0.318   6.507  10.120 -0.2180 -0.2926  0.3318
 5950W        W 9694   5.856   0.898  10.094 -0.2722  0.1001  0.0029
 5951W        W 9695   5.257   7.297  10.949 -0.3146  0.1991  0.3296
 5952W        W 9696   6.625   8.618   2.727 -0.2006  0.1417 -0.3009
 5953W        W 9697   5.868   8.307   2.228 -0.0258  0.0216 -0.2933
 5954W        W 9698   1.113  10.155   3.910 -0.0560 -0.2488 -0.0265
 5955W        W 9699   6.067   5.865   1.625  0.0100  0.0101  0.0935
 5956W        W 9700   3.597   5.232   9.865  0.0710 -0.3514 -0.2455
 5957W        W 9701   1.917   8.344   0.905 -0.3336  0.1493 -0.2977
 5958W        W 9702  10.105   1.231   3.229  0.1258 -0.2551  0.1068
 5959W        W 9703   4.027   2.856   1.869  0.0420  0.4847  0.0593
 5960W        W 9704   1.219   6.919  10.601  0.1029 -0.1954  0.0998
 5961W        W 9705   9.570   1.537  10.728 -0.1615 -0.1788 -0.2035
 5962W        W 9706   0.585   4.052   9.808  0.0380 -0.0217  0.3214
 5963W        W 9707   8.871   4.089   9.747  0.1596 -0.1651 -0.2453
 5964W        W 9708  10.114   6.925   2.089 -0.1654  0.1351 -0.1151
 5965W        W 9709   9.750   3.384  10.593 -0.3393 -0.0099  0.0623
 5966W        W 9710   4.943   8.597  11.967 -0.0675 -0.0112  0.1424
 5967W        W 9711   2.840   1.269  10.634  0.0979 -0.0684  0.1655
 5968W        W 9712   7.013   6.311   1.423 -0.3212 -0.0083  0.3012
 5969W        W 9713   5.934   0.410   9.938  0.2152 -0.2529 -0.1149
 5970W        W 9714   3.284   1.147  10.274  0.0202  0.2596  0.0357
 5971W        W 9715   3.690   9.768   9.200 -0.0100  0.0615 -0.0812
 5972W        W 9716   5.806   7.379   8.784  0.0090 -0.0270 -0.2316
 5973W        W 9717   0.460   6.405   7.065  0.2793  0.0905  0.0664
 5974W        W 9718   7.405   5.759   8.488 -0.2732 -0.1440 -0.0258
 5975W        W 9719   3.221   8.347  10.592  0.0651  0.1345 -0.0436
 5976W        W 9720   0.661   4.962   9.030 -0.2729  0.1246 -0.4372
 5977W        W 9721   1.433   5.549  11.183 -0.2404  0.2968  0.2632
 5978W        W 9722   6.669   5.558   0.494 -0.0932  0.0838 -0.0365
 5979W        W 9723   8.636   6.888   0.932 -0.2241 -0.1854 -0.1934
 5980W        W 9724   0.570   5.886   8.712 -0.2511  0.2042  0.2574
 5981W        W 9725   2.085   6.975  11.072 -0.0072 -0.1940 -0.2987
 5982W        W 9726   2.989   0.653   1.795 -0.1496  0.0372  0.3427
 5983W        W 9727   9.006   4.598   0.540  0.1178  0.2458  0.4358
 5984W        W 9728   4.973   6.869   2.161 -0.2917  0.1870  0.3859
 5985W        W 9729   6.204   3.375   1.148 -0.0161 -0.0931  0.0438
 5986W        W 9730   8.859   9.700   9.839 -0.1855 -0.0734 -0.0140
 5987W        W 9731   6.254   3.649   3.178 -0.1796  0.2507 -0.0998
 5988W        W 9732   8.337   7.720  10.201  0.0221 -0.1533 -0.2235
 5989W        W 9733   7.314   7.006   3.049  0.2454  0.1546 -0.1050
 5990W        W 9734   7.260   4.153   8.989 -0.0153  0.2535 -0.3739
 5991W        W 9735   3.860   0.297   3.052 -0.0477 -0.0137  0.1319
 5992W        W 9736   9.436   0.047   0.769  0.2469 -0.2142  0.0605
 5993W        W 9737   2.649   8.118   1.355 -0.1359  0.3336  0.0358
 5994W        W 9738   4.809   7.538  10.078 -0.0305 -0.1444 -0.0342
 5995W        W 9739   4.719   1.807   2.870 -0.0026 -0.2120 -0.0439
 5996W        W 9740   4.756   4.569   1.278  0.1208  0.2525 -0.0535
 5997W        W 9741   5.797   9.925   9.615  0.0319  0.0872  0.4165
 5998W        W 9742   4.485   6.409   8.059  0.2975  0.0875 -0.0513
 5999W        W 9743   3.646   2.089   9.604  0.0107  0.2371  0.1414
 6000W        W 9744   8.451   8.176  10.060  0.1012 -0.0879 -0.0344
 6001W        W 9745   4.784   3.361   1.175 -0.1714 -0.3282  0.1828
 6002W        W 9746   9.728   5.732   1.443 -0.3769 -0.0159 -0.1966
 6003W        W 9747   5.348   6.740   1.460 -0.2832  0.0395  0.1176
 6004W        W 9748   1.085   2.055   0.600  0.1835 -0.5496  0.3158
 6005W        W 9749   1.185   3.015   8.161 -0.2649 -0.1064  0.0421
 6006W        W 9750   2.362   6.101   8.834  0.0242 -0.1312 -0.1846
 6007W        W 9751   6.453   8.374   8.410 -0.0921  0.0518 -0.0493
 6008W        W 9752   7.154   0.979   9.586 -0.3305  0.1763 -0.0413
 6009W        W 9753   3.491   8.683   9.168 -0.0953 -0.0619  0.0242
 6010W        W 9754   3.641   7.518  10.508  0.0298  0.1277  0.0718
 6011W        W 9755   8.169   7.817   1.136 -0.0364  0.0532 -0.0832
 6012W        W 9756   7.237   7.360   2.711 -0.2409 -0.1214 -0.0564
 6013W        W 9757   9.016   4.896   2.337 -0.2102 -0.0118  0.2374
 6014W        W 9758   6.216   8.244   3.032 -0.2298  0.0315  0.0372
 6015W        W 9759  10.016   8.541   9.659  0.0002  0.1998 -0.2262
 6016W        W 9760   5.841   1.688  11.024  0.1056 -0.0019 -0.0438
 6017W        W 9761   2.135   6.454  11.006 -0.0523 -0.1835 -0.2461
 6018W        W 9762   7.924   5.332   3.748 -0.2006 -0.4047 -0.3438
 6019W        W 9763   5.161   0.609   9.511  0.2756 -0.1844 -0.2078
 6020W        W 9764   7.488   3.724  10.851  0.0433  0.0437  0.0434
 6021W        W 9765   9.580   2.339   8.222  0.0525  0.0329  0.0853
 6022W        W 9766   8.454   4.917  11.577  0.1599  0.0465 -0.4254
 6023W        W 9767   3.090  10.128   3.880 -0.0937  0.0228 -0.0091
 6024W        W 9768   1.837   6.786   9.668 -0.2200  0.1364  0.0537
 6025W        W 9769   5.726   1.607   0.617 -0.0837 -0.1049  0.1756
 6026W        W 9770   1.941   6.354  11.459  0.0489  0.1079  0.1000
 6027W        W 9771   7.275   0.859   1.671 -0.0198 -0.0258  0.0183
 6028W        W 9772   3.678   2.148  12.031  0.4300 -0.1364  0.1157
 6029W        W 9773   3.295   6.660   3.562 -0.1458  0.0175  0.1555
 6030W        W 9774   5.860   1.370   1.052 -0.0849  0.0608 -0.1869
 6031W        W 9775   6.461   4.828  10.992  0.0661  0.1486  0.1134
 6032W        W 9776   0.745   8.278   2.530  0.3881  0.1189  0.1656
 6033W        W 9777   2.724   6.108  12.042 -0.1058 -0.3974 -0.0811
 6034W        W 9778   2.054   9.860  11.166  0.0115  0.1317 -0.0241
 6035W        W 9779  10.177   4.417   4.273 -0.2050  0.1645  0.0162
 6036W        W 9780   7.872   2.244  11.126  0.1620  0.0309  0.0955
 6037W        W 9781   7.280   8.717   0.262  0.0184  0.0264  0.0380
 6038W        W 9782   8.526   0.160   1.115 -0.0133 -0.1786  0.1742
 6039W        W 9783   0.160   3.960   8.361  0.4527  0.0008 -0.1319
 6040W        W 9784   6.479   5.194   3.115  0.4891 -0.1113 -0.0257
 6041W        W 9785   4.661   2.832   9.973  0.0244 -0.0185  0.0581
 6042W        W 9786   4.680   3.277  10.550 -0.1453 -0.0159 -0.1095
 6043W        W 9787   9.214   4.026   1.855  0.2383  0.1571 -0.4206
 6044W        W 9788   2.726   5.086   3.965 -0.0319 -0.0162  0.2219
 6045W        W 9789   1.864   4.080  10.838  0.1454 -0.3557  0.4273
 6046W        W 9790   2.019   1.916  12.015 -0.1632  0.0307 -0.2574
 6047W        W 9791   4.968   8.704  11.447 -0.2301 -0.3079 -0.0447
 6048W        W 9792   0.414   4.811  11.432 -0.2405 -0.1588 -0.0661
 6049W        W 9793   9.200   4.040   1.245  0.0179 -0.1280 -0.0818
 6050W        W 9794   5.523   5.236  11.548  0.3017  0.1401  0.0623
 6051W        W 9795   5.235   5.750   0.421 -0.0101 -0.1801  0.0941
 6052W        W 9796   5.693   3.060   2.051  0.1127  0.3795 -0.0194
 6053W        W 9797   2.277   8.071   3.813  0.2738  0.0121  0.0677
 6054W        W 9798   2.760   1.124  11.539 -0.0231  0.0156 -0.3385
 6055W        W 9799   0.823   0.511   8.941 -0.0255  0.1166  0.1386
 6056W        W 9800   0.659   7.230  10.828 -0.2724 -0.1105  0.1645
 6057W        W 9801   9.467   2.889   3.197  0.1547 -0.0745  0.0795
 6058W        W 9802   4.537   5.665  12.019  0.0300 -0.3632 -0.1002
 6059W        W 9803   9.548   8.061   9.589 -0.1197  0.2411 -0.1233
 6060W        W 9804   8.967   3.618   9.350  0.0789  0.2528 -0.2543
 6061W        W 9805   8.042   4.387   2.432  0.0682 -0.0967  0.0381
 6062W        W 9806   1.412   7.895   8.486  0.1035 -0.0094 -0.0088
 6063W        W 9807   0.513   2.236  10.156  0.1564  0.0581 -0.1160
 6064W        W 9808   0.795   7.498   1.369 -0.0822 -0.1004 -0.0890
 6065W        W 9809   4.033   6.758  10.234 -0.0248  0.1877 -0.1994
 6066W        W 9810   8.316   0.198  10.702 -0.1272 -0.2435 -0.1196
 6067W        W 9811   8.771   8.439   9.283  0.3635 -0.0345  0.1459
 6068W        W 9812   6.756   6.500  10.011 -0.1239  0.3060 -0.0143
 6069W        W 9813   9.545   8.995   2.749 -0.0962  0.2541  0.4531
 6070W        W 9814   8.134   7.005  11.824  0.1426  0.0019 -0.0448
 6071W        W 9815   4.168   7.387   8.903  0.0806  0.2948  0.0480
 6072W        W 9816   4.897   5.652   9.357 -0.1169  0.0639  0.0571
 6073W        W 9817   9.529   5.855   0.447 -0.0643 -0.2408  0.0692
 6074W        W 9818   1.998   8.360   2.279  0.2523 -0.1527 -0.1479
 6075W        W 9819   6.535   2.649   9.617  0.1309  0.2347 -0.2039
 6076W        W 9820   6.617   7.247   2.150 -0.0028 -0.2849 -0.0179
 6077W        W 9821   9.775   3.766   9.400  0.1285  0.0415 -0.0889
 6078W        W 9822   4.572   6.945   8.067  0.3149 -0.0796  0.2265
 6079W        W 9823   6.395   3.608   9.726  0.3511  0.0772 -0.0395
 6080W        W 9824   6.522   3.063   8.497  0.0176  0.0912  0.4595
 6081W        W 9825   0.728   1.098   2.995 -0.1795  0.1690  0.1621
 6082W        W 9826  10.147   5.932   3.282 -0.0394 -0.0410 -0.1625
 6083W        W 9827   2.219   1.187   2.853 -0.3796  0.1980  0.1022
 6084W        W 9828   2.230   4.256   8.853 -0.6067  0.1673 -0.0861
 6085W        W 9829   4.299   3.152   0.166  0.1251 -0.2330 -0.3146
 6086W        W 9830   3.682   4.872   0.757 -0.1514 -0.1469  0.2181
 6087W        W 9831   8.692   4.380  11.426  0.1454 -0.2845 -0.0814
 6088W        W 9832   1.297   0.603  11.993  0.3164  0.1424  0.3124
 6089W        W 9833   3.530   5.506   9.357 -0.1138  0.4100 -0.0596
 6090W        W 9834   4.530   8.851  11.707 -0.0612 -0.1581  0.1295
 6091W        W 9835   2.819   7.077   0.080 -0.2778 -0.1388 -0.0196
 6092W        W 9836   6.332   4.276   2.314 -0.1906  0.0225 -0.1570
 6093W        W 9837   8.125   8.390   2.199  0.2436 -0.1227  0.3261
 6094W        W 9838   6.155   8.592  10.550  0.0649  0.3598 -0.1361
 6095W        W 9839   1.713   2.624   0.209  0.0623 -0.0370 -0.0326
 6096W        W 9840   4.730   7.531   1.037 -0.2728 -0.1848 -0.0048
 6097W        W 9841   1.056   8.614   2.850 -0.0269 -0.0684 -0.4043
 6098W        W 9842   7.769   4.439   3.317 -0.2784 -0.2283  0.1210
 6099W        W 9843   7.755   4.253   8.828 -0.0465  0.0160  0.0940
 6100W        W 9844   8.879   8.978   8.422  0.1084  0.0516 -0.2104
 6101W        W 9845   3.263   4.185  11.596 -0.0221  0.0039 -0.0137
 6102W        W 9846   9.371   3.676   0.536 -0.1350 -0.0919 -0.1410
 6103W        W 9847   2.313   6.097   0.932 -0.2686 -0.2631  0.1135
 6104W        W 9848  10.006   3.130   3.218  0.2509 -0.2813 -0.5581
 6105W        W 9849   4.057   2.648   9.580  0.1558  0.2186 -0.2707
 6106W        W 9850   6.251   7.847   9.894 -0.1493 -0.1791  0.2100
 6107W        W 9851   6.819   0.992  10.762  0.0791  0.1031  0.2246
 6108W        W 9852   3.031   9.837  11.895 -0.1671  0.3434 -0.1041
 6109W        W 9853   9.684   7.966   2.012  0.0147  0.0638 -0.0406
 6110W        W 9854   8.148   0.503   3.401  0.1549 -0.1403 -0.0342
 6111W        W 9855   8.565   7.571   8.256  0.3094  0.1320  0.0517
 6112W        W 9856   1.752   5.973  10.342  0.0687 -0.0121  0.3450
 6113W        W 9857   4.446   3.017   9.549 -0.1702 -0.1153 -0.2092
 6114W        W 9858   4.519   2.915   3.280 -0.0589  0.1543  0.2801
 6115W        W 9859   0.995   7.190   8.234  0.1477  0.0313  0.2904
 6116W        W 9860   9.399   7.888   3.202 -0.0850 -0.1003  0.0882
 6117W        W 9861   9.552   1.176   1.885  0.2068  0.0079 -0.4580
 6118W        W 9862   9.004   1.368  11.580  0.2860 -0.0761  0.2440
 6119W        W 9863   5.778   4.797   2.453 -0.3498 -0.0456  0.2393
 6120W        W 9864   0.267   7.016  11.090 -0.0438  0.2206  0.0688
 6121W        W 9865   6.310   8.615   2.158  0.1011  0.1747 -0.1069
 6122W        W 9866   3.230   3.269   3.971  0.0611 -0.0785  0.1026
 6123W        W 9867   3.942   0.213   8.666 -0.3445 -0.3914  0.1522
 6124W        W 9868   6.204   5.218   8.981 -0.1997  0.2568  0.4432
 6125W        W 9869   3.005   5.775   2.339 -0.3617  0.1311 -0.0539
 6126W        W 9870   2.312   9.812   4.186 -0.2496  0.2845 -0.3720
 6127W        W 9871   3.787  10.047  10.686 -0.0923  0.0407 -0.0363
 6128W        W 9872   8.384   4.803   7.927  0.0842 -0.1673 -0.2874
 6129W        W 9873   6.770   6.553  11.605 -0.1196  0.4908 -0.1166
 6130W        W 9874   1.967   0.037   8.894  0.0028  0.0712  0.3137
 6131W        W 9875   2.631   2.936   2.208  0.0045  0.1305 -0.2107
 6132W        W 9876   3.584   8.620   3.250  0.0026  0.1434  0.0447
 6133W        W 9877   9.000   5.035   3.202 -0.1110  0.0704  0.1236
 6134W        W 9878   0.043   7.246   0.830 -0.1408 -0.2331 -0.0199
 6135W        W 9879   3.664   3.954   3.665 -0.0428 -0.0590  0.0535
 6136W        W 9880   0.152   6.671   8.030 -0.0875  0.0186 -0.5029
 6137W        W 9881   3.758   5.872   8.399 -0.3644 -0.1905  0.0134
 6138W        W 9882   6.173   2.290   9.193  0.4237 -0.1825  0.1554
 6139W        W 9883   3.778   1.722   0.187  0.0939  0.0629  0.0686
 6140W        W 9884   5.439   0.076   8.243 -0.2735 -0.3292 -0.0549
 6141W        W 9885   7.842   0.967   1.733  0.2182  0.0508  0.1489
 6142W        W 9886   4.064   2.972   3.652  0.4333  0.0701  0.1287
 6143W        W 9887   0.021   8.009  10.802 -0.0550  0.1646 -0.0357
 6144W        W 9888   9.182   5.376   7.618  0.2278 -0.0584  0.3879
 6145W        W 9889   6.781   3.824   7.977 -0.0309 -0.0053  0.0021
 6146W        W 9890   9.312   0.136   9.330 -0.1264 -0.0545 -0.1848
 6147W        W 9891   1.431   5.316   3.593  0.0283 -0.3063 -0.0259
 6148W        W 9892   4.320   8.082   1.830 -0.0270  0.1981 -0.0351
 6149W        W 9893   6.756   5.542   2.284 -0.3334 -0.1596 -0.2518
 6150W        W 9894   1.795   8.318  10.847 -0.0039 -0.3342 -0.2114
 6151W        W 9895   4.761   6.136  10.253  0.2274 -0.1477  0.0161
 6152W        W 9896   5.791   5.922   8.354 -0.4674  0.3154 -0.0882
 6153W        W 9897   9.420   7.129   2.022 -0.1699  0.3093 -0.1735
 6154W        W 9898   7.694   9.734   0.953  0.0018  0.1049 -0.2805
 6155W        W 9899   2.462   0.306   2.679 -0.0156  0.2618  0.0619
 6156W        W 9900   5.729   9.857   1.575 -0.2560  0.0525  0.2982
 6157W        W 9901   7.605   8.673  11.348  0.2275  0.2023 -0.1435
 6158W        W 9902   6.402   9.310   9.910 -0.1042 -0.3369  0.0143
 6159W        W 9903   2.791   7.222   8.998 -0.0331  0.2595 -0.1450
 6160W        W 9904   3.086   1.694  10.770 -0.2520 -0.0999  0.4055
 6161W        W 9905   0.290   7.680   9.530 -0.1987  0.0787 -0.2002
 6162W        W 9906   3.483   5.574   0.299 -0.1028 -0.1092 -0.1513
 6163W        W 9907   8.747   1.915  10.889 -0.0552  0.0872  0.0349
 6164W        W 9908   4.171   4.673   9.294 -0.1399 -0.0903 -0.0254
 6165W        W 9909   5.015   1.960  11.577  0.0092  0.3391  0.0379
 6166W        W 9910   3.051  10.046   1.460 -0.2096 -0.2624 -0.1652
 6167W        W 9911   3.261   0.014   9.773  0.0126  0.1297 -0.1608
 6168W        W 9912   5.335   7.416  11.520  0.0611 -0.4876 -0.0032
 6169W        W 9913   4.890   8.343   3.331 -0.0179  0.2391  0.0954
 6170W        W 9914   2.194   9.741  10.690 -0.0028  0.1670  0.1605
 6171W        W 9915   2.866   6.635   0.826  0.3292  0.1120  0.1303
 6172W        W 9916   4.927   3.635   3.322 -0.3326  0.4544  0.0127
 6173W        W 9917   1.362   1.591   8.732  0.0835 -0.1362  0.1789
 6174W        W 9918   9.839   7.072   3.285 -0.2446  0.0409  0.5209
 6175W        W 9919   6.346   5.872   2.507 -0.5900 -0.0175  0.0190
 6176W        W 9920   6.685   7.944   8.444  0.1052 -0.0836  0.0801
 6177W        W 9921   7.382   1.112   3.581 -0.0806  0.1224 -0.0949
 6178W        W 9922   3.924   9.047   0.406 -0.2095  0.2387  0.0769
 6179W        W 9923   0.803   2.504  10.952 -0.2511  0.0780  0.0682
 6180W        W 9924   8.136   2.596  10.772 -0.1245  0.3132  0.1848
 6181W        W 9925   5.548   6.949  12.075 -0.1130  0.4287  0.0593
 6182W        W 9926   0.144   8.151   8.189 -0.2340 -0.0592  0.1825
 6183W        W 9927   5.443   1.361   0.281  0.2300  0.0751  0.1377
 6184W        W 9928   2.606   7.781  10.827  0.1855  0.1183 -0.2956
 6185W        W 9929   2.753   3.482   9.486 -0.0676 -0.0507  0.3648
 6186W        W 9930   4.503   1.414  11.133 -0.0762  0.2986  0.1035
 6187W        W 9931   4.515   3.731   3.989  0.0017 -0.1825  0.1147
 6188W        W 9932   7.112   8.045   7.157  0.2740  0.0662  0.1119
 6189W        W 9933   5.661  10.109   0.808 -0.1298 -0.0105  0.0533
 6190W        W 9934   2.801   8.517   9.503  0.0306  0.3947 -0.1800
 6191W        W 9935   1.866   1.757   9.918 -0.3904  0.2014 -0.0391
 6192W        W 9936   3.877   9.636   2.569  0.0873  0.0610 -0.1276
 6193W        W 9937   5.687   7.445   1.170  0.1076  0.0070 -0.0747
 6194W        W 9938   7.487   4.005   3.242  0.2157  0.0013 -0.3693
 6195W        W 9939   4.820   3.548   8.049  0.1842  0.4363 -0.0235
 6196W        W 9940   2.952   5.214   2.501 -0.1799  0.1477 -0.1491
 6197W        W 9941   1.118   9.980  11.645  0.0778 -0.0959 -0.0004
 6198W        W 9942   1.401   2.993   0.081  0.0194  0.0974  0.1771
 6199W        W 9943   3.670   6.989  10.516  0.1637  0.1143 -0.0005
 6200W        W 9944   7.986   4.732   2.875  0.0636  0.0062 -0.1390
 6201W        W 9945   7.184   0.270   3.196  0.0250 -0.1573 -0.2695
 6202W        W 9946   0.537   6.508   3.768  0.2048 -0.0025 -0.2275
 6203W        W 9947   2.704   4.268   1.813 -0.2284  0.1815 -0.2351
 6204W        W 9948  10.176   5.209   3.173  0.2139  0.1971 -0.3256
 6205W        W 9949   6.857   0.530   8.030 -0.3896  0.1554  0.3071
 6206W        W 9950   8.206   1.394   9.666 -0.0781  0.0828  0.0173
 6207W        W 9951   8.398   1.830   0.013 -0.0259 -0.1484  0.1540
 6208W        W 9952   5.636   2.196   1.694 -0.0358 -0.0817 -0.0766
 6209W        W 9953   2.509   9.137   3.001  0.4056  0.3039 -0.1150
 6210W        W 9954   0.159   7.028   3.425  0.1440  0.3442  0.0323
 6211W        W 9955   6.873   6.384   8.763  0.1260  0.2138 -0.0059
 6212W        W 9956   2.628   3.877   8.588  0.1508 -0.2773 -0.4266
 6213W        W 9957   3.566   9.337  11.572  0.1704 -0.1759  0.2429
 6214W        W 9958   4.586   9.449  10.012  0.2209  0.1223  0.0494
 6215W        W 9959   3.846   3.639  10.530 -0.0274 -0.0682  0.1465
 6216W        W 9960   9.105   4.367   2.555  0.1995 -0.0389 -0.0596
 6217W        W 9961   7.188   0.703   8.505  0.1089  0.3739  0.1589
 6218W        W 9962   1.381   6.256   3.027 -0.0511 -0.1091 -0.0758
 6219W        W 9963   8.400   0.575   8.223 -0.2737  0.2195 -0.2168
 6220W        W 9964   3.192   5.215  10.699  0.0648 -0.1242 -0.0975
 6221W        W 9965   4.149   8.997   2.581  0.0713  0.0232  0.0829
 6222W        W 9966   1.950   7.074   3.024  0.1030 -0.0953 -0.4313
 6223W        W 9967   7.573   8.658   3.410  0.0617  0.2742 -0.0953
 6224W        W 9968   2.583   5.138   3.473  0.2777  0.2140  0.0521
 6225W        W 9969   4.837   1.891   9.714 -0.1165 -0.0502  0.1119
 6226W        W 9970   1.215   9.479  10.651  0.1417 -0.0054  0.1968
 6227W        W 9971   7.578   6.409   0.056  0.0832 -0.0168 -0.0399
 6228W        W 9972   5.914   0.121   8.287  0.2137  0.0709 -0.0563
 6229W        W 9973   0.192   3.391  10.963  0.2096  0.1969 -0.0623
 6230W        W 9974   4.467   3.436   8.519  0.1707 -0.2683 -0.1953
 6231W        W 9975   6.409   5.107  11.479 -0.0247  0.0271 -0.2882
 6232W        W 9976   7.123   5.953   1.820  0.2517  0.3631 -0.1918
 6233W        W 9977   1.074   8.289   9.137  0.3269 -0.0186  0.0689
 6234W        W 9978   3.632   2.308   0.992 -0.0903  0.3168  0.2143
 6235W        W 9979   5.030   5.913   0.985  0.2991  0.1429 -0.1179
 6236W        W 9980   9.999   1.210   1.026 -0.1783 -0.2062 -0.0928
 6237W        W 9981   5.401   4.369   2.138 -0.0457 -0.2868  0.0289
 6238W        W 9982   6.967   9.657   3.670  0.1429  0.2056 -0.0211
 6239W        W 9983   5.472   1.295  10.138 -0.3517 -0.0069  0.2458
 6240W        W 9984   4.465   5.426   8.930  0.2584 -0.0049  0.2437
 6241W        W 9985   0.422   2.106  11.540  0.0961  0.4310 -0.0054
 6242W        W 9986   1.447   6.861  11.933 -0.1196  0.2690 -0.2192
 6243W        W 9987   0.473   2.506  10.602  0.3973  0.0814 -0.1245
 6244W        W 9988   5.711   8.089   9.840  0.1494 -0.0531 -0.3593
 6245W        W 9989   8.414   0.475   2.854 -0.2162 -0.1569  0.1141
 6246W        W 9990   8.812   2.915   2.595 -0.2172  0.2082 -0.0170
 6247W        W 9991   1.800   0.060   1.264 -0.0650 -0.0539  0.1943
 6248W        W 9992   4.739   7.565   2.666  0.2471 -0.1348  0.1151
 6249W        W 9993   9.044   4.127   0.611  0.3683  0.2270 -0.0276
 6250W        W 9994   5.237   5.803  10.894 -0.0906 -0.1624  0.0649
 6251W        W 9995   8.256   2.873   8.103 -0.2030 -0.0613  0.1909
 6252W        W 9996   2.584   9.766   0.498 -0.0567  0.0889 -0.0393
 6253W        W 9997   2.263   5.353  11.102 -0.1261  0.1565 -0.0638
 6254W        W 9998   0.329   8.451  10.833  0.0518 -0.5246  0.1411
 6255W        W 9999   0.420   6.518   1.341 -0.3117 -0.1037  0.1377
 6256W        W10000   5.529   6.072   2.606 -0.0626  0.1973  0.0507
 6257W        W10001   4.454   3.745   3.514 -0.1618 -0.1214 -0.1599
 6258W        W10002   1.074   7.154   9.750 -0.2475 -0.1056 -0.1305
 6259W        W10003  10.028   3.383  11.455  0.2087 -0.0060  0.2179
 6260W        W10004   8.860   9.803   9.028  0.0296  0.4807 -0.0276
 6261W        W10005   9.921   3.124  11.016  0.1185  0.2527  0.0388
 6262W        W10006   4.343   7.853  11.758 -0.0159 -0.1747  0.1672
 6263W        W10007   0.535   8.380   4.256  0.0376  0.1624  0.2414
 6264W        W10008   2.498   3.777   3.474  0.1471  0.1221  0.2945
 6265W        W10009   2.601   7.407   0.927  0.2405 -0.1319  0.2567
 6266W        W10010   4.104   6.177   2.283 -0.3288 -0.5127  0.1690
 6267W        W10011   7.429   3.323   1.815 -0.0416  0.0233 -0.0062
 6268W        W10012   7.248   2.465   0.275 -0.0337  0.1616  0.0432
 6269W        W10013   0.040   4.513   9.017  0.1734 -0.1549 -0.0985
 6270W        W10014   6.574   4.927   8.773  0.2110 -0.2481 -0.3197
 6271W        W10015   3.727   3.318   7.534 -0.0359  0.1768  0.3698
 6272W        W10016   0.210   4.307   9.934 -0.1210 -0.2786 -0.1039
 6273W        W10017   7.718   9.357  11.986  0.0384 -0.1193 -0.4034
 6274W        W10018   3.069   5.801  10.110  0.5108 -0.1391 -0.2523
 6275W        W10019   1.554   4.960  11.071 -0.2193 -0.0364 -0.1437
 6276W        W10020   0.225   4.578  10.924  0.1582  0.2516  0.0514
 6277W        W10021   8.754   4.150   9.233  0.0306  0.0319 -0.0998
 6278W        W10022   5.034   2.418  11.265  0.0158  0.4601  0.0875
 6279W        W10023   4.554   2.341   0.018  0.0901 -0.0419  0.0764
 6280W        W10024   0.684   6.706   0.794 -0.2131  0.0197 -0.1821
 6281W        W10025   6.657   1.588  11.355 -0.0499  0.1031 -0.2870
 6282W        W10026   8.439   9.379   2.967 -0.0728 -0.1176  0.0656
 6283W        W10027   7.459   1.997   1.283 -0.3297  0.0622  0.2665
 6284W        W10028   0.849   4.070   1.620  0.0629  0.0367 -0.0162
 6285W        W10029   9.808   9.033   1.324  0.0916  0.2933  0.2819
 6286W        W10030   4.942   9.179  10.281 -0.0332  0.0192 -0.0990
 6287W        W10031   3.105   4.620   9.066 -0.3023 -0.0040  0.2281
 6288W        W10032   9.838   2.607  11.750 -0.0970  0.1154  0.1607
 6289W        W10033   6.585   2.305   0.730 -0.1825  0.2181 -0.2637
 6290W        W10034   9.852   6.960   1.012 -0.1332 -0.1106 -0.2693
 6291W        W10035   1.009   5.878   8.439  0.2171  0.1598 -0.0175
 6292W        W10036   0.348   9.141   8.485 -0.0059  0.2479  0.1149
 6293W        W10037   4.867   4.285   0.350  0.0630  0.1459 -0.1093
 6294W        W10038   1.066   5.807   9.627  0.1828 -0.3003 -0.0017
 6295W        W10039   2.144   4.014  10.155 -0.0844  0.0181  0.2457
 6296W        W10040   7.930   8.347  10.991  0.0360  0.0823  0.2429
 6297W        W10041   9.838   6.830   8.454 -0.5021 -0.0147 -0.1620
 6298W        W10042   5.254   6.367  10.863  0.1944  0.2879  0.0301
 6299W        W10043   2.710   8.440   3.555 -0.2936 -0.1240  0.2767
 6300W        W10044   6.448   6.951   3.600 -0.4056 -0.0561  0.1170
 6301W        W10045   1.095   0.409   2.597  0.0441 -0.2070  0.1756
 6302W        W10046   3.580   2.136   1.493  0.2470  0.1380  0.2628
 6303W        W10047   0.143   7.779   2.530  0.2877  0.0678  0.1440
 6304W        W10048   7.142   3.396   2.862 -0.2229 -0.0162  0.0428
 6305W        W10049   8.781   1.810   0.953  0.0966  0.2179 -0.0904
 6306W        W10050   8.429   3.548  11.320 -0.1435  0.1528 -0.0264
 6307W        W10051   0.351   8.868  12.103  0.1058 -0.1409  0.3962
 6308W        W10052   4.139   2.098   0.125 -0.0407  0.1375 -0.1844
 6309W        W10053   2.372   1.811   1.048  0.2334  0.3513  0.2555
 6310W        W10054   8.757  10.011   3.518 -0.0054  0.0312  0.1204
 6311W        W10055   2.054   3.842   3.158 -0.1011  0.1069 -0.0168
 6312W        W10056   0.808   2.140   0.955 -0.0088 -0.0056 -0.1778
 6313W        W10057   2.344   4.281   0.330  0.1479  0.2899  0.1355
 6314W        W10058   5.141   5.936  10.419  0.1463  0.0284 -0.2648
 6315W        W10059   6.899   9.337  11.598 -0.1209 -0.2519 -0.1481
 6316W        W10060   2.371   8.435   9.242  0.2412  0.0986  0.0801
 6317W        W10061   6.747   7.946  12.033  0.2543  0.1143  0.1765
 6318W        W10062   4.661   4.083   9.042 -0.0192  0.1294 -0.2012
 6319W        W10063   0.927   6.840   8.628  0.1321  0.0886  0.0462
 6320W        W10064   8.105   2.412   8.315  0.0364  0.0420  0.1676
 6321W        W10065   6.172   2.833   3.492 -0.1511 -0.2802 -0.1560
 6322W        W10066   4.547   8.806   1.229  0.1848 -0.2883  0.2486
 6323W        W10067   4.780   1.520   7.918 -0.0686 -0.2945 -0.2780
 6324W        W10068   0.848   3.026   0.178  0.2678  0.0147 -0.0168
 6325W        W10069   8.422   2.808   1.799  0.3949  0.1823  0.1042
 6326W        W10070   9.429   7.611   8.087  0.0712 -0.1510  0.3555
 6327W        W10071   9.771   5.137  10.704 -0.0379  0.1899 -0.1930
 6328W        W10072   5.885   8.940   1.375  0.2368 -0.0977 -0.2265
 6329W        W10073   8.708  10.080  10.608  0.1297  0.1019  0.1160
 6330W        W10074   1.361   6.241   9.686  0.2947 -0.0515  0.1613
 6331W        W10075   3.575   4.028  10.366  0.1064 -0.3427  0.2660
 6332W        W10076  10.013   3.450   2.206 -0.1293 -0.1404  0.3551
 6333W        W10077   2.506   0.803   0.488  0.3490 -0.1575  0.0220
 6334W        W10078   0.611   0.947   1.998 -0.0151  0.1504 -0.2447
 6335W        W10079   8.544   8.431   1.939 -0.4021 -0.2225  0.0555
 6336W        W10080   4.722   6.173   1.371  0.1481 -0.4261 -0.1026
 6337W        W10081   0.488   2.063  10.984 -0.3477  0.0001 -0.1911
 6338W        W10082   9.203   2.495   1.988 -0.1114 -0.1393 -0.0554
 6339W        W10083   1.847   3.484   9.457 -0.0057  0.3008 -0.1417
 6340W        W10084   4.637   3.379   7.590 -0.0940  0.0972 -0.0047
 6341W        W10085   8.529   8.682   8.824  0.2305  0.2944  0.1888
 6342W        W10086   6.224   6.351   1.894 -0.2417 -0.3029  0.0293
 6343W        W10087   7.890   6.021   0.220  0.0212 -0.0923  0.1055
 6344W        W10088   6.310   4.856   2.465  0.1456 -0.0100 -0.0321
 6345W        W10089   6.822   7.176  11.513  0.1251 -0.1176  0.2161
 6346W        W10090   2.178   6.034  10.665  0.1012 -0.0232  0.3934
 6347W        W10091   4.118   7.174   0.582 -0.2405 -0.2757  0.0779
 6348W        W10092   0.549   8.365   0.511 -0.1336 -0.0428 -0.4500
 6349W        W10093   0.899   3.613   8.098 -0.2044 -0.0039  0.2231
 6350W        W10094   2.549   8.793   2.058  0.1208 -0.0041  0.1469
 6351W        W10095   0.335   1.680   0.147  0.1349  0.1153 -0.0659
 6352W        W10096   0.046   1.013   9.236 -0.0065 -0.4119  0.3235
 6353W        W10097   3.271   5.761   1.134  0.2801 -0.1210 -0.1852
 6354W        W10098   6.685   2.125   3.043  0.2167 -0.0464 -0.1038
 6355W        W10099   1.446   3.678   8.008  0.1010 -0.1602  0.3783
 6356W        W10100   2.814   1.320  10.056 -0.0707 -0.0562  0.1978
 6357W        W10101   5.611   5.626  11.156 -0.3856  0.2553  0.1144
 6358W        W10102   7.317   3.465   0.180  0.2334  0.0309 -0.1668
 6359W        W10103   3.182   2.982   2.266 -0.3445 -0.0511  0.1446
 6360W        W10104   7.724   8.439   0.015 -0.0359  0.1429 -0.0489
 6361W        W10105   0.699   9.383  10.645 -0.1394 -0.0054 -0.1765
 6362W        W10106   9.612   6.173   1.298  0.1097 -0.0090  0.3241
 6363W        W10107   7.291   2.818   2.936 -0.3937  0.1715 -0.0823
 6364W        W10108   7.786   7.432   3.899 -0.0545 -0.1120 -0.0491
 6365W        W10109   8.590   9.806  11.389  0.0911 -0.1717  0.3202
 6366W        W10110   3.411   3.821   2.342  0.3538 -0.1655  0.4249
 6367W        W10111   9.931   5.960   0.978 -0.1119  0.2038 -0.4327
 6368W        W10112   9.542   5.422   3.812  0.0442 -0.1184  0.2565
 6369W        W10113   1.803   7.435  11.145  0.1707  0.3687 -0.2433
 6370W        W10114   7.395   5.430   1.577  0.1220 -0.2609  0.2938
 6371W        W10115   0.041   0.358  10.302  0.1410  0.1234 -0.1116
 6372W        W10116   2.728   9.020   9.782  0.0498  0.1132  0.1474
 6373W        W10117   0.526   8.466   1.412 -0.1707 -0.1149 -0.2236
 6374W        W10118   4.953   7.131   7.819 -0.1337 -0.2491 -0.0175
 6375W        W10119   0.689   6.320   9.808  0.6123  0.1931  0.3444
 6376W        W10120   2.566   9.833  10.370  0.1859 -0.1490 -0.0483
 6377W        W10121   4.432   0.250   2.130 -0.0487  0.0017  0.1297
 6378W        W10122   8.602   6.350   8.952 -0.0834  0.2382  0.1019
 6379W        W10123   8.942   5.353   8.900  0.1058 -0.0391 -0.1092
 6380W        W10124   3.135   1.038  11.955 -0.2771  0.0182 -0.2368
 6381W        W10125   2.680   4.946   2.171 -0.0425  0.1080  0.0673
 6382W        W10126   8.448   0.062   3.234 -0.1431  0.0060 -0.0807
 6383W        W10127   0.749   1.341   2.492  0.2166  0.1521  0.0594
 6384W        W10128   7.359   3.523   8.818 -0.0103  0.2546  0.2038
 6385W        W10129   6.490   5.665   9.065  0.3907  0.3524 -0.3268
 6386W        W10130   4.490   4.307   0.797  0.0769  0.0105 -0.4682
 6387W        W10131   3.448   0.771  10.507 -0.1827  0.1090  0.0835
 6388W        W10132   7.579   1.384   2.720  0.0632  0.0196 -0.3898
 6389W        W10133   9.945   4.589  11.633 -0.0767 -0.2230 -0.0432
 6390W        W10134   7.574   9.877  11.657 -0.1204 -0.0707  0.3409
 6391W        W10135   8.206   8.456  12.142 -0.0311 -0.1288 -0.0883
 6392W        W10136   5.510   3.151   9.843  0.2020  0.1353  0.1880
 6393W        W10137   2.645   5.368  11.382 -0.1342 -0.1387  0.2396
 6394W        W10138   3.070   0.387  10.615  0.1670  0.0206 -0.1661
 6395W        W10139   6.532   5.794   0.031  0.0630  0.0659  0.1007
 6396W        W10140   4.254   7.434   0.996 -0.0594  0.2685 -0.1078
 6397W        W10141   9.631   3.452   4.086  0.0422  0.0210 -0.2892
 6398W        W10142   4.992   2.145  12.123 -0.0938 -0.1045 -0.6099
 6399W        W10143   1.179   3.093   3.447  0.0013 -0.2324 -0.1045
 6400W        W10144   7.388   2.727   2.035 -0.5394  0.0458 -0.0329
 6401W        W10145   1.138   1.444   2.832 -0.1971  0.0791 -0.1274
 6402W        W10146   5.484   6.872   0.992 -0.1248  0.1602 -0.2355
 6403W        W10147   7.561   0.002  10.098  0.0243 -0.1965 -0.0016
 6404W        W10148   3.510   4.038   8.371 -0.1854  0.0021 -0.1817
 6405W        W10149   0.407   6.240  10.587  0.2066  0.0483  0.1321
 6406W        W10150   8.807   3.903   1.512 -0.0552 -0.0942  0.1733
 6407W        W10151   0.380   1.655   2.387 -0.1478 -0.1342  0.0082
 6408W        W10152   3.202   6.398   2.912  0.1413 -0.1639  0.1667
 6409W        W10153   0.100   1.774  11.769 -0.0295 -0.0567 -0.3145
 6410W        W10154   3.502   3.629  11.132 -0.0151  0.0234 -0.1554
 6411W        W10155   2.096   3.454   2.762 -0.0814 -0.0122  0.2198
 6412W        W10156   3.230   6.971  10.335 -0.1964  0.0210 -0.0608
 6413W        W10157   6.753   1.858   0.866  0.0157 -0.0683 -0.4983
 6414W        W10158   4.681   1.804   0.208  0.0588 -0.1497  0.0027
 6415W        W10159   1.003   4.499   1.932 -0.2402  0.3051  0.1203
 6416W        W10160   3.921  10.089   3.256  0.1176  0.1196  0.0430
 6417W        W10161   1.266   1.760   9.179 -0.2809  0.2203 -0.6285
 6418W        W10162   7.510   1.699  11.955 -0.2617  0.3360  0.2585
 6419W        W10163   8.573   6.351   0.837  0.1684  0.1680 -0.0794
 6420W        W10164   1.620   7.612   1.847  0.0649  0.1820 -0.4702
 6421W        W10165   0.068   3.651  10.549  0.1860 -0.1354  0.1603
 6422W        W10166   7.716   4.141  11.285  0.3524 -0.1660 -0.1056
 6423W        W10167   0.548   7.120   1.793  0.1696 -0.0758  0.0774
 6424W        W10168   5.739   7.895   8.885  0.0260 -0.2819  0.1329
 6425W        W10169  10.095   6.995  11.718 -0.1687 -0.6051  0.2800
 6426W        W10170   3.982   6.478   1.640 -0.0203 -0.0339 -0.0837
 6427W        W10171   4.338   2.616   8.011  0.2120 -0.1254  0.0188
 6428W        W10172   1.407   0.778   0.369  0.0673  0.4933 -0.1231
 6429W        W10173   9.795   9.202  11.530 -0.1327 -0.2579 -0.2530
 6430W        W10174   3.214   5.065   8.152 -0.2663 -0.1945  0.0377
 6431W        W10175   7.036   7.448  10.809  0.0593  0.0232  0.1745
 6432W        W10176   4.517   3.597   0.222 -0.2966 -0.0180  0.1776
 6433W        W10177   9.787   2.627  11.204 -0.0843 -0.0154  0.1176
 6434W        W10178   8.519   7.727   0.323  0.3308  0.1215  0.0683
 6435W        W10179   1.776   6.264   3.796  0.4262  0.0322 -0.0009
 6436W        W10180   8.382   5.518   8.950  0.0961  0.2442 -0.3518
 6437W        W10181   5.996   0.222   0.634 -0.4441 -0.0531  0.1054
 6438W        W10182   9.630   4.734   9.162  0.0922 -0.0731 -0.1444
 6439W        W10183   6.854   6.615  10.491 -0.0853  0.0219 -0.0852
 6440W        W10184   3.311   1.505   3.566 -0.0609 -0.1991  0.2516
 6441W        W10185   5.446   7.855   1.413  0.0797  0.0513 -0.0733
 6442W        W10186   9.924   9.604   0.003  0.1045 -0.0222 -0.1156
 6443W        W10187   6.087   1.026   2.255 -0.1388 -0.5163 -0.1354
 6444W        W10188   2.938   1.917  11.940 -0.3833 -0.1813 -0.0258
 6445W        W10189   6.624   2.683   3.522 -0.0117  0.1733 -0.2715
 6446W        W10190   5.687   8.582   0.560  0.1054  0.1528  0.2517
 6447W        W10191   6.880  10.120   3.569  0.0483  0.2875 -0.2995
 6448W        W10192   8.562   3.184  11.706  0.0005  0.0316  0.0913
 6449W        W10193   9.435   8.446   2.000 -0.0598 -0.1839 -0.0683
 6450W        W10194   6.950   3.216   0.034 -0.0030 -0.0917  0.0222
 6451W        W10195   8.663   3.076  10.235 -0.0296  0.0363 -0.1880
 6452W        W10196   4.069   1.364  10.852  0.0752  0.2996 -0.0148
 6453W        W10197   9.648   7.792   1.178 -0.0097 -0.1797 -0.0079
 6454W        W10198   3.029   5.935   7.753 -0.0788  0.1597  0.3159
 6455W        W10199   2.630   3.365   0.103 -0.0408  0.0262 -0.1269
 6456W        W10200   4.942   0.171   9.483  0.0236  0.1498 -0.1348
 6457W        W10201   2.610   3.889   0.146  0.2977 -0.0796  0.0103
 6458W        W10202   2.072   2.876   9.611 -0.0004  0.1381 -0.0082
 6459W        W10203   1.283   0.329   0.369  0.2038  0.0285 -0.1476
 6460W        W10204   9.734   5.097   3.018  0.2944  0.1176 -0.0717
 6461W        W10205   0.575   6.432   8.167  0.1114 -0.1304 -0.1460
 6462W        W10206   9.071   9.018   2.415  0.1111 -0.1052 -0.4145
 6463W        W10207   9.199   6.209   0.265 -0.4486  0.1322  0.1826
 6464W        W10208   9.929   5.806   9.129 -0.0255 -0.0096 -0.1711
 6465W        W10209   7.380   1.471   1.306 -0.0098  0.2451 -0.0487
 6466W        W10210  10.104   8.593   8.834 -0.1925 -0.3439  0.1569
 6467W        W10211   7.559   6.363  11.328  0.0716  0.2364  0.1682
 6468W        W10212   9.768   0.238   2.435 -0.1079 -0.0220 -0.0419
 6469W        W10213   7.506   8.281   2.716  0.0732 -0.2424  0.1223
 6470W        W10214   4.157   4.267  10.968  0.0292 -0.2714  0.0992
 6471W        W10215   6.682   1.503  10.823  0.3744 -0.0405 -0.1711
 6472W        W10216   4.272   9.270   9.360  0.1798  0.1836  0.0702
 6473W        W10217   1.600   3.378  10.760  0.2133  0.2395  0.1238
 6474W        W10218   5.061   7.478   1.522  0.1005  0.0184 -0.3690
 6475W        W10219   5.670   8.133  10.481 -0.3754 -0.0856 -0.0593
 6476W        W10220   2.672   2.047  10.088  0.1261  0.2435  0.0290
 6477W        W10221   4.476   1.065  10.104 -0.1847 -0.1384 -0.4347
 6478W        W10222   0.974   2.369   8.837  0.1487 -0.2433  0.0520
 6479W        W10223   0.497   3.294   0.491 -0.3851  0.0746 -0.1171
 6480W        W10224   3.126   9.188   1.171 -0.2151  0.1234 -0.2512
 6481W        W10225   7.910   3.282   4.025  0.0214 -0.4667  0.3840
 6482W        W10226   2.403   3.880   2.698 -0.0114 -0.0373  0.0637
 6483W        W10227   7.493   1.904   0.319  0.0732 -0.1049  0.0306
 6484W        W10228   0.293   2.679   1.479 -0.0324  0.2794 -0.0159
 6485W        W10229   8.613   0.529   1.421 -0.0769 -0.4974 -0.0884
 6486W        W10230   0.441   2.310   8.351  0.1943 -0.2837  0.0462
 6487W        W10231   4.909   7.714  11.699 -0.3252 -0.0199 -0.1450
 6488W        W10232   3.128   7.461  11.977  0.0576  0.0252  0.1105
 6489W        W10233   6.797   8.695   8.600  0.3391 -0.1325  0.3109
 6490W        W10234   3.349   5.906   9.113  0.1977  0.1186 -0.3380
 6491W        W10235   7.015   2.021   0.516 -0.2186 -0.2707  0.2814
 6492W        W10236   4.985   9.709  11.674  0.0366 -0.1796  0.1872
 6493W        W10237   0.190   9.340  12.030  0.0459 -0.0604  0.0085
 6494W        W10238   9.583   4.679   3.322  0.2304 -0.2084  0.2260
 6495W        W10239   0.118   9.108   3.052 -0.3174 -0.3043  0.0886
 6496W        W10240   9.017   0.526   9.564  0.0116 -0.0483 -0.0050
 6497W        W10241   0.260   2.053   1.170  0.0267  0.0015  0.0908
 6498W        W10242   6.466   8.121  10.346  0.1598  0.2265 -0.0288
 6499W        W10243   9.613   0.706  10.052  0.0547  0.2945 -0.3195
 6500W        W10244   0.274   7.053  10.120  0.2488  0.0162  0.1849
 6501W        W10245   2.758   0.770   8.506 -0.1699 -0.3430  0.2490
 6502W        W10246   8.325   9.082   1.476  0.1634  0.2978 -0.1402
 6503W        W10247   1.321   3.846   8.686  0.0029 -0.0910  0.0047
 6504W        W10248   9.005   2.202   0.733 -0.2469 -0.2578  0.3478
 6505W        W10249   5.218   6.826   9.888 -0.1863 -0.2731  0.1938
 6506W        W10250   0.969   0.391   1.605 -0.2041 -0.1659  0.3018
 6507W        W10251   1.632   0.340   8.760 -0.0878  0.0771  0.1913
 6508W        W10252   7.685   9.004   1.672 -0.1020 -0.1865  0.0225
 6509W        W10253   4.308   3.371   1.099  0.3040 -0.1432  0.0386
 6510W        W10254  10.142   6.337  10.341 -0.3701  0.1571 -0.2049
 6511W        W10255   6.064   3.020   8.891  0.1952  0.0619 -0.2380
 6512W        W10256   9.989   6.379   8.196  0.0454 -0.1619 -0.2954
 6513W        W10257   1.091   9.155   2.887 -0.1469 -0.1325  0.0371
 6514W        W10258   8.859   0.611  11.423  0.1202  0.0733 -0.4484
 6515W        W10259   2.857   8.836  11.422 -0.3211 -0.1595 -0.0821
 6516W        W10260   6.588   7.215   1.560  0.1876  0.1302  0.0606
 6517W        W10261   4.083   4.981   2.466  0.0869  0.0341  0.0435
 6518W        W10262   1.732   3.666  11.692  0.1261 -0.0939 -0.2553
 6519W        W10263   4.153   1.490   3.476 -0.1843 -0.3426 -0.2430
 6520W        W10264   0.836   3.735   9.551 -0.2732  0.4993  0.1840
 6521W        W10265   4.162   1.665   3.009  0.1718 -0.0376  0.1767
 6522W        W10266   0.755   9.712   8.072  0.0813 -0.3736 -0.1920
 6523W        W10267   7.310   3.771   9.320 -0.0166 -0.0345  0.2678
 6524W        W10268   0.371   4.976   0.917 -0.0112 -0.3308 -0.1651
 6525W        W10269   6.086   7.672   1.193 -0.1518 -0.0670  0.2275
 6526W        W10270   6.407   2.147  11.969  0.0385 -0.0238 -0.0136
 6527W        W10271   1.122   2.271   1.420  0.1069 -0.2134  0.2202
 6528W        W10272   6.118   8.332  11.125 -0.0896  0.3490  0.0488
 6529W        W10273   0.332   6.834   2.644  0.0800 -0.0815  0.0720
 6530W        W10274   7.044   1.546   0.444 -0.1910 -0.2745 -0.1544
 6531W        W10275   9.277   8.953   9.929  0.0894  0.1227 -0.1573
 6532W        W10276   9.199   3.733   9.862  0.0788  0.1184 -0.0351
 6533W        W10277   2.534   7.452   1.911  0.1668 -0.0219  0.0773
 6534W        W10278   8.978   9.951  11.039  0.5325 -0.0690  0.1086
 6535W        W10279   7.987   5.019   8.249 -0.0810 -0.1459 -0.2429
 6536W        W10280   5.167   3.143   9.073  0.0332 -0.0778 -0.2271
 6537W        W10281   9.802   0.004   9.454  0.0873 -0.0836  0.1261
 6538W        W10282   9.362   1.583   9.594 -0.0665  0.0315 -0.0501
 6539W        W10283   5.915   5.498   8.157  0.4165  0.1050 -0.4422
 6540W        W10284   1.277   1.962   1.041  0.2313  0.3545  0.2533
 6541W        W10285   7.248   1.600   8.821 -0.3219 -0.1664 -0.3546
 6542W        W10286   4.453   1.336   0.382  0.1217  0.0432  0.1234
 6543W        W10287   1.023   2.478   4.161  0.4079 -0.0996 -0.2638
 6544W        W10288   5.472   9.781   2.492 -0.0977 -0.1179  0.1487
 6545W        W10289   2.961  10.060  11.312  0.1708  0.0358 -0.1804
 6546W        W10290   7.781   7.216   0.565  0.3285 -0.1642  0.1615
 6547W        W10291   4.448   6.726   7.541 -0.2473  0.4404 -0.2568
 6548W        W10292   2.089   8.543  11.202 -0.1326  0.1224  0.0543
 6549W        W10293   5.403   9.142   2.160 -0.1706  0.1533 -0.0178
 6550W        W10294   1.360   1.533   0.218  0.3543  0.1018 -0.2317
 6551W        W10295   1.965   3.901  12.118  0.0402 -0.0863  0.0606
 6552W        W10296   8.139   1.725   2.878 -0.1737 -0.2045 -0.1610
 6553W        W10297   4.410   3.272   1.689 -0.1900  0.0338  0.0592
 6554W        W10298   9.878   9.059   2.329  0.0917 -0.0870  0.2137
 6555W        W10299   0.480   7.896  11.643 -0.1803 -0.3038 -0.0669
 6556W        W10300   4.997   1.653   1.076  0.3204 -0.0502 -0.0523
 6557W        W10301   5.074   9.124   1.284 -0.0185 -0.2887 -0.0821
 6558W        W10302   2.168   6.682   1.604  0.2053  0.1582  0.1468
 6559W        W10303   5.252   2.682   9.961 -0.0462  0.3258  0.1105
 6560W        W10304   0.900   0.802   9.435 -0.1089  0.2084  0.0474
 6561W        W10305   0.927   7.607   0.734 -0.3204  0.1248  0.0264
 6562W        W10306   7.787   5.521  10.612  0.0403  0.2241  0.1024
 6563W        W10307   7.776   1.181   2.214 -0.0009 -0.0308  0.0460
 6564W        W10308   5.309   5.238  10.941 -0.1375 -0.3625 -0.0537
 6565W        W10309   0.540   1.296   0.496  0.1236 -0.1256  0.2311
 6566W        W10310   8.467   6.832   9.640  0.0421 -0.2248 -0.2033
 6567W        W10311   3.880   2.540   2.707  0.2735  0.3131 -0.0965
 6568W        W10312   3.618   6.271   2.048  0.0972  0.3044 -0.1671
 6569W        W10313   6.830   9.565   0.730  0.1091  0.4900  0.0484
 6570W        W10314   1.214   3.445   2.161 -0.2126 -0.2634  0.1439
 6571W        W10315   9.060   9.721   2.322  0.0902  0.0995  0.0469
 6572W        W10316   7.736   5.909   0.865  0.5956  0.0794  0.0159
 6573W        W10317   4.899   0.935   8.089  0.3284  0.1760  0.1493
 6574W        W10318   1.833   5.488  10.325  0.1835 -0.0472  0.0765
 6575W        W10319   9.938   5.950  10.745 -0.1804  0.0231 -0.1432
 6576W        W10320   7.087   7.739   0.204  0.0502 -0.1339  0.0530
 6577W        W10321   9.038   4.044   3.807  0.1786 -0.2387  0.0905
 6578W        W10322   8.828   9.127   9.772  0.1508  0.1340 -0.0056
 6579W        W10323   4.725   0.791   9.759  0.3785 -0.0170 -0.2225
 6580W        W10324   3.420   3.324  10.610  0.0490  0.1626 -0.0087
 6581W        W10325   7.255   5.059   0.864  0.3301 -0.0735  0.2885
 6582W        W10326   6.446   6.345   0.928  0.0310 -0.2663  0.2659
 6583W        W10327   7.643   4.317  10.635 -0.0626 -0.0840 -0.0913
 6584W        W10328   5.234   0.564  11.688 -0.3519  0.0137  0.2409
 6585W        W10329   9.027   4.875  10.350  0.0321 -0.0367  0.0924
 6586W        W10330   0.956   8.651  11.302 -0.5042  0.1669  0.0127
 6587W        W10331   1.524   5.435   0.068 -0.1607  0.0937 -0.1278
 6588W        W10332   6.556   1.050   2.014  0.2557 -0.0522 -0.2268
 6589W        W10333   0.527   2.117   8.830  0.1193  0.0425 -0.0460
 6590W        W10334   3.696   7.464   7.159 -0.0844 -0.2316  0.0530
 6591W        W10335   7.745   3.328   9.740  0.3665  0.1088 -0.3049
 6592W        W10336   6.724   7.848   1.420 -0.1747  0.1914 -0.0838
 6593W        W10337   2.945   3.377   2.646  0.3117 -0.1775 -0.1952
 6594W        W10338   5.941   7.241   1.942 -0.0776  0.1141 -0.1528
 6595W        W10339   4.900   8.055  10.395 -0.3817 -0.2101  0.2178
 6596W        W10340   3.786   9.865  12.076  0.2902  0.0667 -0.3258
 6597W        W10341   8.366   0.041   1.909  0.1919  0.1225 -0.1157
 6598W        W10342   2.651   8.029   9.316 -0.2843  0.1195 -0.1070
 6599W        W10343   9.880   0.292   3.417  0.0084  0.0632 -0.0167
 6600W        W10344   9.982   1.651   2.978 -0.1408  0.0813  0.1074
 6601W        W10345   7.751   7.832   1.454 -0.0560  0.1699  0.0838
 6602W        W10346   9.564   9.516   8.527  0.0127 -0.0666 -0.1630
 6603W        W10347   9.736  10.159   0.361  0.0964  0.1210  0.1118
 6604W        W10348   1.043   1.656  10.936 -0.0255  0.2321  0.0323
 6605W        W10349   6.381   6.584   7.490 -0.0973  0.0320  0.3394
 6606W        W10350   0.433   6.278   2.250 -0.2218 -0.1253 -0.0235
 6607W        W10351   9.617   0.377   0.257  0.4132  0.0828 -0.1347
 6608W        W10352   5.062   2.031   7.922  0.1834 -0.1259  0.1401
 6609W        W10353   2.222   0.587   0.076  0.2431  0.1990  0.1781
 6610W        W10354   5.715   6.284  11.719  0.2049  0.2201  0.0533
 6611W        W10355   4.891   7.370  11.253  0.1714 -0.3049 -0.1015
 6612W        W10356   6.664   9.154   8.927  0.3066 -0.1610  0.2165
 6613W        W10357   6.643   3.136   0.990 -0.0491 -0.2020  0.0678
 6614W        W10358   6.604   4.102  11.506  0.2844  0.0100  0.0348
 6615W        W10359   3.567   0.070   0.692  0.2774 -0.0929 -0.1160
 6616W        W10360   1.197   7.923   9.401  0.0936  0.0320 -0.1746
 6617W        W10361   3.347   2.737   0.200 -0.2791 -0.3994  0.0561
 6618W        W10362   7.171   0.042   1.357  0.0874  0.0463  0.1237
 6619W        W10363   9.299   0.396   2.727 -0.0098  0.1300  0.1836
 6620W        W10364   2.826   2.684   1.345 -0.1372  0.0860  0.1209
 6621W        W10365   0.191   8.208   9.626  0.1413 -0.3214 -0.1822
 6622W        W10366   0.346   0.997  11.723 -0.1006 -0.1517  0.2094
 6623W        W10367   2.906   7.675   9.671  0.0741  0.3248  0.2654
 6624W        W10368   1.535   1.664   1.356 -0.0695  0.0905  0.0811
 6625W        W10369   8.709   6.059  10.732  0.1250  0.0674  0.2234
 6626W        W10370   1.679   1.179   0.463 -0.2667 -0.0584 -0.0561
 6627W        W10371   1.954   5.847   1.943 -0.0622  0.1217 -0.0695
 6628W        W10372  10.051   8.693  11.279  0.0482 -0.0409 -0.0482
 6629W        W10373   1.637   4.057   0.916 -0.0895 -0.1162 -0.0956
 6630W        W10374  10.040   7.330   1.284 -0.2393 -0.4584 -0.1496
 6631W        W10375   6.746  10.176   2.567  0.0032 -0.0902 -0.1730
 6632W        W10376   4.622   3.560   2.569  0.2920  0.2051  0.0920
 6633W        W10377   3.025   6.121  10.749  0.1559 -0.1869 -0.2103
 6634W        W10378   9.640   2.827  10.725 -0.0849 -0.0798 -0.1521
 6635W        W10379   4.907   6.348  11.210 -0.0132  0.0942 -0.0804
 6636W        W10380  10.039   7.965   9.491  0.0937  0.0171  0.2344
 6637W        W10381   9.503   6.016  11.105 -0.0867 -0.0215  0.1372
 6638W        W10382   7.141   1.217   2.867 -0.4105  0.2045  0.0423
 6639W        W10383   3.397   5.675  10.687 -0.0234  0.0771 -0.0096
 6640W        W10384   5.627   9.136   8.987 -0.2869  0.0122 -0.0091
 6641W        W10385   2.886   6.336  11.620 -0.1902  0.0649  0.3968
 6642W        W10386   4.440   2.895   7.581 -0.1684 -0.1771 -0.1525
 6643W        W10387   4.989   9.573   8.221 -0.1170 -0.0405 -0.0816
 6644W        W10388   0.078   2.274   8.668  0.0534 -0.2512  0.0586
 6645W        W10389   5.798   0.491  10.584  0.3138 -0.3227  0.0455
 6646W        W10390   9.127   3.348   0.214  0.1950 -0.3060 -0.3291
 6647W        W10391   6.542   6.003   3.991  0.0649  0.0034 -0.0095
 6648W        W10392   4.356   9.895   0.307  0.1043 -0.0508  0.0738
 6649W        W10393   8.207   6.075  11.082 -0.1375  0.0389 -0.0403
 6650W        W10394   8.123   3.124  12.000  0.2950  0.3078 -0.4366
 6651W        W10395   7.312   2.933  10.470 -0.0702  0.1539  0.0498
 6652W        W10396   1.410   4.087  11.782 -0.1228  0.1167  0.2986
 6653W        W10397   4.766   6.649  10.671  0.0718 -0.2915  0.0252
 6654W        W10398   4.202   3.653   0.634 -0.0995  0.0633  0.0984
 6655W        W10399   8.437   0.951   3.323 -0.0182  0.2932 -0.1448
 6656W        W10400   1.924   8.024  10.471 -0.1482 -0.0697  0.1677
 6657W        W10401   0.854   1.576   0.169  0.1106 -0.3044  0.0420
 6658W        W10402   5.044   0.742   1.476  0.1729 -0.0513  0.2981
 6659W        W10403   2.126   7.624  11.513  0.0037  0.1454 -0.1088
 6660W        W10404   8.480   6.502  10.926 -0.1623 -0.0280 -0.1748
 6661W        W10405   3.751   0.166   2.123 -0.2721  0.2096  0.0275
 6662W        W10406   6.585   4.566   2.774  0.2270  0.1394 -0.2371
 6663W        W10407   3.194   9.640   9.001 -0.0750  0.1064  0.3645
 6664W        W10408   1.491   2.900  10.598 -0.2391 -0.0001  0.0903
 6665W        W10409   6.912   0.244   0.842  0.0294  0.0362 -0.0894
 6666W        W10410   6.252   8.805   2.975 -0.0850  0.0240 -0.1046
 6667W        W10411   1.892   0.322  10.428 -0.0559  0.0686 -0.1196
 6668W        W10412   8.474   3.873   9.525  0.4346 -0.0661 -0.0764
 6669W        W10413   9.211  10.062   3.240 -0.4195  0.1377  0.2070
 6670W        W10414   7.064   9.585   1.202 -0.2570  0.0342  0.2071
 6671W        W10415   9.766   6.661   1.856  0.0955  0.1744 -0.0757
 6672W        W10416   7.055   9.819  11.755  0.1953  0.1065 -0.1736
 6673W        W10417   1.089   9.202   1.362 -0.0264  0.3115  0.2563
 6674W        W10418   6.179   2.944   2.236  0.1637  0.2420 -0.2895
 6675W        W10419   1.853   1.933   1.005  0.1732  0.2082  0.1557
 6676W        W10420   6.629   6.941   1.144  0.0242  0.1329  0.0147
 6677W        W10421   8.441   9.434   1.823  0.2381 -0.1326 -0.1530
 6678W        W10422   8.246   6.723   8.239  0.2782  0.0844  0.3611
 6679W        W10423   2.142   5.633  10.028 -0.2463 -0.2919  0.1164
 6680W        W10424   9.628   0.243   8.960  0.1321 -0.0146 -0.1728
 6681W        W10425   5.758   9.732  10.482  0.0538 -0.0624 -0.3190
 6682W        W10426   5.770   8.287   2.738 -0.4149  0.1666 -0.1894
 6683W        W10427   2.204   9.091   0.330 -0.0222  0.1244 -0.1171
 6684W        W10428   2.548   8.918   4.279  0.0075 -0.2408  0.3087
 6685W        W10429   2.562   5.756  10.890 -0.2873 -0.1954 -0.3125
 6686W        W10430   8.604   7.219   0.110  0.2455 -0.0842  0.1589
 6687W        W10431   9.020   0.859  11.827 -0.3639  0.0231 -0.0451
 6688W        W10432   7.624   3.673   7.566  0.0967 -0.3682 -0.1606
 6689W        W10433   7.418   2.380   9.618 -0.1379  0.1493 -0.1653
 6690W        W10434   0.164   2.086   1.708  0.1997  0.2403 -0.0545
 6691W        W10435   5.355   4.301   1.264 -0.1626 -0.2187  0.1829
 6692W        W10436   0.063   9.877  11.271  0.2334 -0.1506  0.0357
 6693W        W10437   3.462   5.062   2.675  0.3290  0.1783 -0.3597
 6694W        W10438   5.068   4.130  10.345 -0.0650  0.1545  0.1902
 6695W        W10439   7.591   0.290   9.701 -0.0415  0.0497 -0.0923
 6696W        W10440   0.579   0.100   8.694 -0.1821  0.1551 -0.0005
 6697W        W10441   8.800   4.345   1.067  0.1568 -0.0556 -0.2521
 6698W        W10442   9.273   2.665  11.905  0.2138  0.1075  0.0810
 6699W        W10443   9.284   2.379   3.245  0.0649  0.1905 -0.2762
 6700W        W10444   4.181   9.328   1.629  0.1203  0.1672  0.0014
 6701W        W10445   0.240   3.176   3.647 -0.1638 -0.0038 -0.2272
 6702W        W10446   5.945   5.545   1.248  0.0319  0.2514 -0.2886
 6703W        W10447   0.951   0.706   3.322 -0.0681 -0.0932  0.0391
 6704W        W10448   7.749   4.953   0.822  0.0986 -0.1430 -0.1531
 6705W        W10449   4.961   1.353   0.242  0.1266  0.3184 -0.0024
 6706W        W10450   1.878   6.243   8.988 -0.2103  0.4978  0.3549
 6707W        W10451  10.129   8.072   8.719  0.0487 -0.1406  0.3392
 6708W        W10452   6.627   0.841   0.311 -0.0838 -0.1607 -0.3516
 6709W        W10453   2.609   8.649   3.091 -0.5369 -0.0629  0.0790
 6710W        W10454   2.320   8.178  10.726  0.0846 -0.2102  0.1664
 6711W        W10455   6.295   3.422   4.082  0.2362 -0.3163 -0.1642
 6712W        W10456   6.012   4.760   0.408  0.0957  0.1801  0.0890
 6713W        W10457   3.337   9.112   1.950  0.1443 -0.3100  0.0666
 6714W        W10458   9.421   4.591   2.099 -0.2069  0.1442 -0.2298
 6715W        W10459   1.936   0.159  11.303  0.0727  0.1834 -0.1748
 6716W        W10460   8.605   7.284   2.808 -0.1686 -0.0156  0.3019
 6717W        W10461   1.623   4.810   0.822 -0.1975  0.0713  0.0487
 6718W        W10462   6.451   0.039  11.295  0.1363 -0.0900  0.1041
 6719W        W10463   4.211   6.861   9.228 -0.0035 -0.0468 -0.1578
 6720W        W10464   9.093   1.544   3.933 -0.0854  0.2653 -0.0495
 6721W        W10465   3.390   8.078   8.931  0.0284 -0.1986  0.0991
 6722W        W10466   7.797   3.348   0.193  0.3927 -0.3489 -0.0066
 6723W        W10467   5.113   9.078   7.353  0.1054  0.0728  0.0630
 6724W        W10468   6.557   4.034   2.884 -0.0815 -0.0996 -0.3245
 6725W        W10469   1.533   5.969   7.068 -0.2352  0.2443  0.0257
 6726W        W10470   9.451   6.474   9.061  0.4165 -0.1329  0.2299
 6727W        W10471   9.817   6.155   0.051 -0.0751  0.1582 -0.0252
 6728W        W10472   5.210   0.875   2.238 -0.3131  0.0185 -0.0775
 6729W        W10473   5.329   3.422   9.454  0.0916  0.3596  0.2012
 6730W        W10474   8.281   5.117  12.027  0.1503  0.2780 -0.1841
 6731W        W10475   8.369   2.378   8.842 -0.0007  0.0885  0.3411
 6732W        W10476   7.258   6.441  10.000 -0.0038  0.2427 -0.1441
 6733W        W10477   2.864   5.855  11.478 -0.0772  0.0673 -0.1285
 6734W        W10478   9.525   4.904   0.771  0.2571  0.0789 -0.0957
 6735W        W10479   5.983   0.976  10.578  0.2346  0.1683  0.1324
 6736W        W10480   6.911   3.547   4.081 -0.0100  0.0889  0.2661
 6737W        W10481   1.137  10.057   0.304  0.1800  0.0908  0.1945
 6738W        W10482   7.383   9.769  12.127  0.0643 -0.0986 -0.4047
 6739W        W10483   9.448   2.543   0.610 -0.0320 -0.1228  0.0134
 6740W        W10484   2.684   6.179  11.195  0.0270 -0.1338  0.0292
 6741W        W10485   1.088   5.858   1.855 -0.3832  0.1289  0.1349
 6742W        W10486   4.170   0.841   0.451 -0.3480  0.1003  0.0885
 6743W        W10487   8.203   5.040   1.147  0.1623 -0.1634 -0.1964
 6744W        W10488   2.421   6.765   0.148 -0.3101 -0.0323 -0.1494
 6745W        W10489   2.438   7.679   9.889  0.2630 -0.0756  0.1802
 6746W        W10490   5.125   8.190   1.584 -0.0424 -0.2375 -0.1276
 6747W        W10491   2.601   6.818  11.810 -0.0135 -0.1037 -0.3314
 6748W        W10492   0.068   4.386  11.914 -0.0277  0.0217  0.1586
 6749W        W10493   9.438   8.068   0.015 -0.3282 -0.0730 -0.3442
 6750W        W10494   0.522   7.880   0.067 -0.0192  0.1405  0.0665
 6751W        W10495   9.030   2.201   8.289 -0.0513  0.0367 -0.1467
 6752W        W10496   7.053   9.259   7.996  0.0328 -0.0049  0.0800
 6753W        W10497   7.208   4.443   3.126  0.1914 -0.0041  0.5254
 6754W        W10498  10.172   3.472   9.179  0.1521  0.2253  0.0625
 6755W        W10499   2.501  10.075   9.511  0.2166  0.0425 -0.2279
 6756W        W10500   3.533   1.510   2.239 -0.0176 -0.2024 -0.0483
 6757W        W10501   0.980   7.733   0.201  0.3622 -0.0648 -0.3432
 6758W        W10502   4.972  10.177   9.008 -0.1374 -0.0092 -0.2192
 6759W        W10503   9.679   9.720  11.511  0.0378  0.1895  0.1932
 6760W        W10504   7.721   1.857   9.551  0.1129  0.2655  0.1712
 6761W        W10505   6.014   7.356   9.306  0.1815  0.1945 -0.0185
 6762W        W10506   7.945   6.688   9.466  0.0764  0.1440 -0.0833
 6763W        W10507   8.485   7.927  10.591  0.0565 -0.1413 -0.0484
 6764W        W10508   5.202   6.284   2.294 -0.2808  0.2159  0.0999
 6765W        W10509   1.014   5.475   1.074 -0.2279  0.0922 -0.1704
 6766W        W10510   9.583   8.719   0.113 -0.0472 -0.1267  0.0315
 6767W        W10511   7.292   7.632   1.191 -0.0727 -0.1411 -0.1517
 6768W        W10512   7.435   9.988   0.436 -0.0756  0.1159 -0.1603
 6769W        W10513   3.219   4.388  10.728 -0.0313  0.0368 -0.0902
 6770W        W10514   7.392   3.431   8.168 -0.0546 -0.1016 -0.1999
 6771W        W10515   6.187   0.864   9.495  0.0381  0.0215 -0.1121
 6772W        W10516   3.266   4.901   0.978  0.2734 -0.0514 -0.1098
 6773W        W10517   2.733   0.487  11.805 -0.1866 -0.0510 -0.1626
 6774W        W10518   0.339   8.964   3.472 -0.1939 -0.0550 -0.2601
 6775W        W10519   5.295   8.069   3.270  0.4441 -0.2026  0.0239
 6776W        W10520   6.503   6.074   8.789 -0.1412  0.1034 -0.1666
 6777W        W10521   6.512   3.706  11.204 -0.2008 -0.2163 -0.0572
 6778W        W10522   4.798   9.230   9.270 -0.1064  0.2108 -0.4586
 6779W        W10523   7.643   6.812  11.665 -0.3448 -0.4748  0.1614
 6780W        W10524   5.541   9.560  11.235 -0.3699  0.4256  0.2904
 6781W        W10525   9.015   2.314  11.122  0.2308  0.1729 -0.0068
 6782W        W10526   1.860   8.664   8.566 -0.0626  0.1811  0.3394
 6783W        W10527   0.711   4.621   0.810  0.1455  0.0519  0.0482
 6784W        W10528   6.308   8.896  12.105 -0.1276  0.1710  0.1430
 6785W        W10529   4.759   2.076   0.937  0.3733 -0.0205 -0.1170
 6786W        W10530   1.393   6.980   8.876  0.0805 -0.2656 -0.0394
 6787W        W10531   0.183   8.712   0.418 -0.3371 -0.1839  0.0975
 6788W        W10532   9.789   9.265   1.835  0.1381  0.0569 -0.0373
 6789W        W10533   6.113   4.320  10.285  0.0600  0.3293  0.0187
 6790W        W10534   6.052   3.009  11.991  0.0884 -0.0159 -0.0133
 6791W        W10535   1.607   6.605   1.753  0.1723  0.0249 -0.2292
 6792W        W10536   1.270   2.540  11.963 -0.0474 -0.0912  0.0105
 6793W        W10537   6.259   1.835  11.550  0.3411 -0.0380 -0.1632
 6794W        W10538   3.703   4.699   9.833 -0.0427  0.0673 -0.1260
 6795W        W10539   8.723   4.328   8.699 -0.1562  0.0461  0.1429
 6796W        W10540   4.401   0.758   2.394 -0.0592 -0.0100 -0.1922
 6797W        W10541   7.066   4.846   7.759  0.0543 -0.3463 -0.0807
 6798W        W10542   7.005   4.798   7.227 -0.0695 -0.0383  0.2281
 6799W        W10543   5.957   9.068   2.232  0.2178 -0.0880  0.1475
 6800W        W10544   8.502   3.667   3.137  0.0072 -0.0776 -0.1909
 6801W        W10545   4.070   7.228   2.061 -0.0046  0.3198  0.2024
 6802W        W10546   6.096   6.173  10.416  0.3200 -0.1756  0.0190
 6803W        W10547   1.038   1.833   9.670  0.1999 -0.3894  0.0973
 6804W        W10548   3.200   0.761   1.228 -0.3201 -0.0805  0.1030
 6805W        W10549   3.836   5.191   0.412 -0.0965 -0.0381 -0.0853
 6806W        W10550  10.207   0.321  10.814 -0.1243  0.0615  0.0804
 6807W        W10551   3.130   3.987   1.967  0.4888  0.1072 -0.2292
 6808W        W10552   9.757   9.733   0.589 -0.0028  0.0522  0.3306
 6809W        W10553   9.342   9.106   1.515  0.0622  0.2029 -0.0571
 6810W        W10554   9.147   0.950  10.171  0.0469 -0.2622 -0.0969
 6811W        W10555   3.026   3.357  10.941  0.0253 -0.2308  0.0011
 6812W        W10556   6.635   1.825   0.223 -0.1106  0.1759 -0.0027
 6813W        W10557   1.660   9.612   2.967  0.1097  0.1481  0.2148
 6814W        W10558   9.188   0.747   2.997 -0.0374  0.0409 -0.1707
 6815W        W10559   6.010   7.176   3.739  0.0862  0.0406 -0.2975
 6816W        W10560   6.057   5.674  11.994 -0.2223  0.2715  0.2012
 6817W        W10561   6.675   0.986  11.318 -0.1683  0.2756 -0.3137
 6818W        W10562   5.030   4.930  10.057 -0.0933  0.1131 -0.2497
 6819W        W10563   9.222   2.631   8.030 -0.2687  0.1960 -0.1898
 6820W        W10564   2.070   6.768   6.981 -0.0566  0.1894 -0.0294
 6821W        W10565   5.324   4.137   0.684 -0.0402  0.0692  0.0518
 6822W        W10566   3.608   0.383   4.373 -0.2234 -0.0390  0.2712
 6823W        W10567   6.084   8.649   3.531 -0.0173 -0.1239  0.1000
 6824W        W10568   1.538   2.140   9.956  0.0651  0.1861  0.0576
 6825W        W10569   9.504   5.623  10.349 -0.1384  0.2496 -0.0465
 6826W        W10570   8.213   2.365   1.629 -0.2340  0.0390 -0.1419
 6827W        W10571   4.318   7.662   2.159  0.0265 -0.2700  0.3054
 6828W        W10572   5.528   3.609   8.560  0.0556  0.3125 -0.0564
 6829W        W10573   6.171   3.881   2.649 -0.2628 -0.0932 -0.1331
 6830W        W10574   3.503   8.902  11.959  0.1704 -0.0971  0.2704
 6831W        W10575   7.178   9.267  12.067 -0.1089  0.2442  0.0647
 6832W        W10576   8.010   4.933   0.343  0.0207 -0.5127  0.0108
 6833W        W10577   7.203   5.049   9.556 -0.2921 -0.2816 -0.2821
 6834W        W10578   4.281   7.063   3.924 -0.0805  0.0878 -0.0045
 6835W        W10579   1.924   0.378   1.781  0.1244  0.2504 -0.2502
 6836W        W10580   7.269   0.391  11.417 -0.0123  0.0737 -0.2186
 6837W        W10581   4.948   6.610   1.151 -0.1434 -0.1420  0.2255
 6838W        W10582   0.671   1.887  10.534  0.1546  0.2700  0.1087
 6839W        W10583   4.596   2.376   1.715  0.0399 -0.2691  0.0812
 6840W        W10584   7.408   5.461  11.025 -0.0789  0.0402  0.0732
 6841W        W10585   9.888   2.168   1.966  0.0341  0.0179 -0.1353
 6842W        W10586   5.377   0.429   2.128 -0.3045 -0.0865  0.0581
 6843W        W10587   8.503   4.674   1.588 -0.0811 -0.0721  0.1818
 6844W        W10588   2.224   2.230  11.600  0.2703 -0.3093  0.1665
 6845W        W10589   4.026   4.858   0.065  0.4812 -0.2640  0.2238
 6846W        W10590   3.212   3.276  11.455  0.3769 -0.0953 -0.2816
 6847W        W10591   1.609   4.507   1.244 -0.0804 -0.0895 -0.2374
 6848W        W10592   8.197   9.012   9.699  0.1304  0.0756 -0.0082
 6849W        W10593   7.308   7.399   9.791 -0.1292  0.0565 -0.0136
 6850W        W10594   4.715   5.622   2.716 -0.2354 -0.1540  0.3925
 6851W        W10595   5.648   0.221   0.180  0.2068  0.0415 -0.0493
 6852W        W10596   0.830   4.657  11.592 -0.1490  0.1876  0.0879
 6853W        W10597   1.484   1.605   3.196  0.3488  0.1128  0.2255
 6854W        W10598   1.963   7.304  10.239 -0.0279 -0.0379 -0.2716
 6855W        W10599   8.987   6.804   0.097  0.0765 -0.0073  0.2227
 6856W        W10600   9.640   5.889   3.360  0.2897  0.0717 -0.0867
 6857W        W10601   6.640   3.749   0.787  0.3023 -0.1752  0.1011
 6858W        W10602   2.651   1.869   8.118 -0.2271 -0.2140  0.0508
 6859W        W10603   8.553   4.796   2.088  0.0196 -0.1481 -0.0163
 6860W        W10604   4.202   1.820   8.350 -0.1131 -0.2044 -0.0387
 6861W        W10605   0.879   6.289  10.794 -0.0293  0.2919  0.1271
 6862W        W10606   1.392   2.662   1.615  0.0668 -0.0270 -0.0082
 6863W        W10607   1.507   7.293   1.390  0.3063 -0.1089 -0.0773
 6864W        W10608   3.374   8.824  10.717  0.2756  0.0701 -0.0173
 6865W        W10609   8.998   7.832   2.465 -0.1584 -0.1243 -0.1056
 6866W        W10610   7.876   3.846   0.259 -0.0229 -0.1908  0.1561
 6867W        W10611   3.731   6.305   3.531 -0.0259  0.3429  0.2394
 6868W        W10612   1.198   1.214   2.384  0.2216  0.1075 -0.3246
 6869W        W10613   3.576   9.168   4.321 -0.1931  0.0454  0.0767
 6870W        W10614   9.612   3.987   2.866 -0.0684  0.3152  0.3676
 6871W        W10615   1.670   4.577  12.058  0.0819 -0.1741 -0.1674
 6872W        W10616   2.156   3.090   8.629 -0.0657 -0.1464  0.0341
 6873W        W10617   2.743   4.106   7.588  0.0982  0.0682 -0.1479
 6874W        W10618   3.691   9.904   2.211 -0.0944  0.0104  0.1685
 6875W        W10619   6.944   4.557   8.833 -0.0527  0.3171 -0.1251
 6876W        W10620   3.082   7.467   0.400 -0.1099 -0.0137 -0.3791
 6877W        W10621   7.146   8.632   7.884  0.1478 -0.2108 -0.1613
 6878W        W10622   7.081   2.055   8.685  0.0917 -0.1837  0.1865
 6879W        W10623   8.910   6.640   9.428  0.7575 -0.4140  0.1217
 6880W        W10624   9.749   8.797   9.978  0.1696 -0.1129 -0.2438
 6881W        W10625   8.369   6.889  10.587  0.1857  0.0789 -0.1414
 6882W        W10626   3.546   7.408   0.526  0.0034  0.1942  0.0452
 6883W        W10627   3.335   1.537   8.701  0.1224 -0.0015  0.1167
 6884W        W10628   9.684   1.417   3.383 -0.3715 -0.2379 -0.1374
 6885W        W10629   7.170   9.977   3.189 -0.0113 -0.2078  0.2652
 6886W        W10630   4.552   9.358  10.530  0.1304  0.1137 -0.1497
 6887W        W10631   3.582   0.814  11.736 -0.4267 -0.1550  0.0531
 6888W        W10632   5.890   8.248  11.731  0.2529 -0.0770 -0.1370
 6889W        W10633  10.139   4.288   2.661 -0.1811  0.1668  0.0920
 6890W        W10634   4.888   0.295   2.357 -0.0528 -0.0537  0.4319
 6891W        W10635   8.755   7.629   9.557  0.0396  0.0325  0.0031
 6892W        W10636   3.060   1.399   2.780  0.1245  0.2610 -0.2197
 6893W        W10637   7.800   1.468  10.489  0.0605 -0.3689 -0.3110
 6894W        W10638   0.574   3.027  10.455 -0.1423  0.1633  0.2092
 6895W        W10639   6.721   5.141   9.672  0.2158 -0.1822 -0.1256
 6896W        W10640   8.923   9.383   1.967 -0.4801  0.0027 -0.1238
 6897W        W10641   7.955   8.970   3.265  0.3916 -0.1342  0.1932
 6898W        W10642   2.917   7.118   9.515  0.4953  0.0307  0.1060
 6899W        W10643   3.515   1.124   2.677  0.0955  0.1636  0.4769
 6900W        W10644   3.002   2.997  10.531 -0.0079 -0.2874 -0.1348
 6901W        W10645   2.965   0.782   3.193  0.0748  0.1073  0.2941
 6902W        W10646   7.817   4.760   9.172 -0.3300  0.1008  0.2594
 6903W        W10647   9.656   6.976  10.080 -0.1092 -0.0293  0.0568
 6904W        W10648   2.802   4.969   0.743  0.0869  0.1499 -0.3349
 6905W        W10649   9.351   2.352   9.079  0.1573 -0.0381  0.1414
 6906W        W10650   5.697   0.548   8.520 -0.2238 -0.1814  0.0952
 6907W        W10651   6.308   9.171  10.663 -0.2834  0.2904 -0.0547
 6908W        W10652  10.028   1.255   0.507  0.0948 -0.1258  0.0044
 6909W        W10653   3.276   8.532  11.126 -0.1429 -0.1839  0.2535
 6910W        W10654   2.372  10.037   9.994 -0.1375  0.0431 -0.1543
 6911W        W10655   2.058   7.510   9.011  0.1592  0.1444  0.2476
 6912W        W10656   1.101   7.266   1.690 -0.1104 -0.1248  0.2736
 6913W        W10657   8.943   6.831  10.571  0.0103 -0.1331  0.1427
 6914W        W10658   7.058   2.442  11.152 -0.0820  0.0814  0.1224
 6915W        W10659   4.497   1.926  10.108 -0.0083  0.1368  0.2168
 6916W        W10660   9.736   0.866   3.300  0.0202  0.2737 -0.0615
 6917W        W10661   4.430   7.690   8.529 -0.1888  0.0917  0.1798
 6918W        W10662   5.608   8.720   8.105  0.0588  0.0727  0.0801
 6919W        W10663   2.002   9.611   1.978  0.2365 -0.0275 -0.0469
 6920W        W10664   5.834   4.769   1.960  0.0163 -0.1937 -0.0670
 6921W        W10665   7.474   5.141   0.373  0.1181 -0.2230 -0.1559
 6922W        W10666   7.075   3.450   3.460 -0.1344 -0.3867  0.1716
 6923W        W10667   2.496   5.227   2.977  0.2136  0.1377 -0.0454
 6924W        W10668   2.317   5.159  11.665  0.0205 -0.1603 -0.1060
 6925W        W10669   1.662   6.843  10.292  0.2938 -0.1907  0.1243
 6926W        W10670   1.648   9.163   0.694 -0.1336  0.0580 -0.3025
 6927W        W10671   1.687   4.070   9.555 -0.3268  0.0134 -0.1893
 6928W        W10672   4.905  10.034   9.958 -0.1899 -0.3809  0.0031
 6929W        W10673   3.700   7.129   1.112  0.1080  0.2675 -0.1409
 6930W        W10674   9.140   9.699   8.636  0.3507 -0.0802 -0.0836
 6931W        W10675   8.560   0.002   2.709 -0.1843  0.0925  0.3126
 6932W        W10676   9.281   4.357   9.038 -0.0688  0.2399  0.2998
 6933W        W10677   5.383   5.229   0.277  0.1879  0.1778  0.1299
 6934W        W10678   7.046   0.452  11.925  0.1884 -0.0055  0.2883
 6935W        W10679   2.567   8.240   2.842  0.0486  0.0760  0.0256
 6936W        W10680   4.798   6.518   2.569  0.0387  0.2109 -0.0235
 6937W        W10681   1.531   0.165   2.683 -0.0376  0.0395  0.2567
 6938W        W10682   5.339   8.662  11.117 -0.2169 -0.4334  0.0327
 6939W        W10683   5.699   0.209   7.806  0.2962  0.0197  0.0829
 6940W        W10684   4.572  10.182   4.085 -0.0368  0.3058  0.3132
 6941W        W10685   2.675   0.980   8.971 -0.0833  0.1300 -0.4256
 6942W        W10686   5.722   6.970   2.777 -0.1616  0.0132  0.2963
 6943W        W10687   1.962   6.398   0.407  0.3359  0.1302 -0.0909
 6944W        W10688   1.427   7.800   0.496  0.0251 -0.2749  0.0494
 6945W        W10689   1.868   8.125   1.858 -0.2947  0.0224  0.0976
 6946W        W10690   3.191   1.333   9.706  0.2781  0.0289 -0.2305
 6947W        W10691   9.404   3.078   7.983  0.0026 -0.2093  0.0898
 6948W        W10692   9.791   8.732   3.076  0.2259 -0.1530  0.1095
 6949W        W10693   7.740   2.845   8.983 -0.1051  0.2693 -0.2697
 6950W        W10694   2.394   9.573   2.913 -0.1869 -0.1601  0.4967
 6951W        W10695   6.744   0.858   8.333  0.1062 -0.0673 -0.0060
 6952W        W10696   8.225   5.480  10.269 -0.1246  0.2446 -0.1604
 6953W        W10697   5.647   6.740  10.953 -0.0329 -0.0871  0.1793
 6954W        W10698   9.707   4.521   7.463  0.1626  0.0173  0.0123
 6955W        W10699   4.587   1.969  11.840 -0.0438 -0.1505 -0.1489
 6956W        W10700   6.396   4.150   1.823 -0.1572  0.0815  0.0608
 6957W        W10701   4.541   2.718  11.424 -0.1372 -0.1763 -0.1348
 6958W        W10702   1.760   2.541   2.969  0.0059  0.0722  0.1924
 6959W        W10703   4.128   2.371  11.885 -0.1444  0.1013 -0.0868
 6960W        W10704   6.183   3.154   8.123  0.0413  0.0619 -0.1191
 6961W        W10705   8.832   3.717   0.455 -0.0165 -0.0234 -0.0769
 6962W        W10706   2.465   7.572   9.304  0.2931 -0.1976  0.0493
 6963W        W10707   4.701   3.768   0.673 -0.0304 -0.2901 -0.0655
 6964W        W10708   0.132   8.226   0.282 -0.1058  0.2385 -0.1475
 6965W        W10709   4.469   5.346   1.247 -0.0400 -0.4697 -0.0055
 6966W        W10710   9.919   8.334   2.225  0.0041  0.0971  0.2829
 6967W        W10711   9.280   5.382   1.664  0.0897  0.1250  0.0086
 6968W        W10712   1.589   1.173   2.877 -0.0725  0.0967 -0.0371
 6969W        W10713   5.644   0.410   8.976 -0.2591 -0.2472  0.0630
 6970W        W10714   9.088   9.916  12.026  0.1153 -0.0464 -0.3383
 6971W        W10715   4.794   9.571   0.313 -0.0252  0.1845 -0.0196
 6972W        W10716   2.949   0.429   2.755 -0.0130  0.1285  0.2998
 6973W        W10717   5.380   8.647   0.200  0.1598 -0.1325  0.1183
 6974W        W10718   7.087   7.913   8.081 -0.0470  0.1488 -0.1265
 6975W        W10719   7.750   7.552   0.959 -0.1467  0.3054  0.1010
 6976W        W10720   7.462   5.993   2.868  0.2245  0.1750 -0.0406
 6977W        W10721   6.183   9.073   9.015  0.0752 -0.3763  0.4095
 6978W        W10722   2.912   7.567   7.289  0.3348 -0.2391  0.1443
 6979W        W10723   0.768   7.147   2.219  0.0316 -0.2585 -0.3170
 6980W        W10724   5.389   6.026  11.353  0.1053 -0.4817 -0.0055
 6981W        W10725   6.238   1.371  11.189  0.1225 -0.3120 -0.0543
 6982W        W10726   3.522   8.210   1.189  0.1126  0.1300  0.1522
 6983W        W10727   9.486   3.749   8.171 -0.0140 -0.4547 -0.2230
 6984W        W10728   9.884   0.511   7.295  0.1481 -0.0286  0.0529
 6985W        W10729   7.226  10.073   8.915  0.1476  0.2211 -0.1219
 6986W        W10730   7.871   6.850   1.430 -0.0656  0.1590 -0.1896
 6987W        W10731   5.002   8.260  11.180  0.1764 -0.2686 -0.2644
 6988W        W10732   7.353   5.535   9.770 -0.0279 -0.1691 -0.1552
 6989W        W10733   8.124   2.011   2.012  0.1138  0.0507 -0.0595
 6990W        W10734   4.205   6.273   1.213 -0.0150 -0.0684 -0.0135
 6991W        W10735   7.493   9.256   0.321 -0.4468 -0.1263  0.1338
 6992W        W10736   2.600   6.547  10.842  0.1247 -0.1607 -0.2253
 6993W        W10737   8.145   6.990  10.998 -0.1880  0.3480  0.0401
 6994W        W10738   1.166   6.874   0.721 -0.1340 -0.2327 -0.0891
 6995W        W10739   4.027   3.062   8.538 -0.2836  0.0886 -0.1613
 6996W        W10740   5.737   0.598   9.480 -0.1002  0.3336 -0.1396
 6997W        W10741   7.037   4.998   8.553 -0.1645 -0.1689  0.1528
 6998W        W10742   3.724   6.042   1.036 -0.2354  0.1332  0.1684
 6999W        W10743  10.222   7.865   2.026  0.2634 -0.2017 -0.0673
 7000W        W10744   5.374   7.630   8.660 -0.1556  0.2014 -0.0019
 7001W        W10745   9.105   9.147   0.988  0.3118  0.0023  0.0452
 7002W        W10746   3.773   9.202   2.278  0.1620 -0.0149 -0.3139
 7003W        W10747   2.962   4.501   3.131  0.3691 -0.0537  0.1529
 7004W        W10748   9.185   8.658   2.876 -0.0181 -0.0852 -0.0798
 7005W        W10749   1.442   5.522   8.990  0.0032 -0.1210 -0.3355
 7006W        W10750   9.026   2.254  10.112 -0.0301  0.1568 -0.0439
 7007W        W10751   8.872   6.582   3.042 -0.0232  0.1628 -0.1321
 7008W        W10752   9.570  10.220   2.837  0.1974 -0.2389  0.0868
 7009W        W10753   4.689   0.443   1.235 -0.1479 -0.0260 -0.0575
 7010W        W10754   9.187   7.493   3.497  0.1442 -0.2874  0.2104
 7011W        W10755   8.728   3.983   2.771  0.1884 -0.0516  0.1394
 7012W        W10756   9.752   5.137  11.274 -0.3260  0.1494 -0.2572
 7013W        W10757   9.825   2.370   3.237  0.0169  0.0989  0.0785
 7014W        W10758   6.118   2.185   7.784 -0.0729  0.1225 -0.2458
 7015W        W10759   5.743   8.778  11.874  0.0210  0.1107  0.1131
 7016W        W10760   4.962   0.985   9.323 -0.1481  0.2475  0.0317
 7017W        W10761   5.794   6.907   8.937 -0.0219 -0.0476 -0.1115
 7018W        W10762   6.112   5.209  11.008  0.1646  0.2270  0.1365
 7019W        W10763   3.584  10.137   8.851  0.2962  0.1284 -0.1494
 7020W        W10764   9.932   2.252  11.460 -0.0800  0.1445 -0.1321
 7021W        W10765   5.287   1.936   9.370 -0.0943 -0.3117  0.2516
 7022W        W10766   3.495   4.995   0.010  0.1105  0.0772  0.1221
 7023W        W10767   7.295   8.032   9.177 -0.1979 -0.0772  0.2127
 7024W        W10768   8.652   3.488   1.326  0.1049  0.0212  0.3009
 7025W        W10769   1.085   3.117  10.282 -0.0858  0.2181 -0.0027
 7026W        W10770   6.499   8.957  11.597  0.2091  0.0222 -0.3215
 7027W        W10771   4.002   6.740   3.402 -0.0970 -0.2805  0.0184
 7028W        W10772   4.793   4.240   8.610  0.1982 -0.1663  0.0039
 7029W        W10773   1.315   7.221   0.346 -0.1554  0.0587 -0.1202
 7030W        W10774   0.157   1.544   0.888  0.0014  0.1705  0.1855
 7031W        W10775   9.736  10.096   1.489 -0.4931  0.3044  0.0336
 7032W        W10776   6.636   3.941  10.328  0.0039  0.1649  0.1421
 7033W        W10777   0.011   2.854   8.520  0.0916  0.2590  0.2594
 7034W        W10778   6.113   2.676  11.000 -0.0547  0.0987 -0.1009
 7035W        W10779   6.993   1.198   2.413 -0.3051 -0.2756  0.0058
 7036W        W10780   4.148   6.995   1.253 -0.0147 -0.0366  0.0606
 7037W        W10781   6.124   7.130   2.420  0.2005  0.0319  0.1516
 7038W        W10782   0.515   4.983  10.963  0.1818 -0.3093 -0.0522
 7039W        W10783   0.238   5.014   3.500  0.1743  0.0094 -0.1311
 7040W        W10784   3.502   9.084   1.478  0.0519 -0.2153  0.0670
 7041W        W10785   4.172   8.995   0.845  0.0350  0.3408 -0.0162
 7042W        W10786   3.687   9.470  10.581 -0.0009  0.0010  0.0259
 7043W        W10787   0.759   3.458   9.984 -0.1125 -0.0957 -0.0454
 7044W        W10788   7.087   1.874   2.200  0.0978  0.2540 -0.0863
 7045W        W10789   5.889   6.946   4.195  0.4377 -0.0193  0.0395
 7046W        W10790   9.287   0.537  10.543 -0.0314 -0.0231  0.1920
 7047W        W10791   2.888   9.661   1.179 -0.1053  0.0139  0.3569
 7048W        W10792   1.244   3.050   9.184  0.1110 -0.1602 -0.0594
 7049W        W10793   0.913   2.575  10.408 -0.0053  0.1155  0.2008
 7050W        W10794   8.249   2.074   4.179  0.1691  0.0527  0.1237
 7051W        W10795   9.000   1.729   9.191  0.0981 -0.2466 -0.3786
 7052W        W10796   2.203   5.957  11.170  0.1707 -0.1285 -0.0943
 7053W        W10797   9.497   2.278   2.307 -0.0214  0.2091 -0.3904
 7054W        W10798   0.129   2.391  11.125  0.2628 -0.2982  0.0366
 7055W        W10799   5.713  10.022   2.055  0.2262  0.1263  0.3597
 7056W        W10800   7.202   8.674   2.509  0.2800  0.0358 -0.1242
 7057W        W10801   4.656   1.290   9.112  0.2753  0.2937 -0.1115
 7058W        W10802   0.499   5.849   9.607 -0.0539 -0.3026  0.0480
 7059W        W10803   1.799   5.389   2.715  0.1523 -0.0838  0.1919
 7060W        W10804   3.829   2.732   8.228  0.1750  0.1148  0.0818
 7061W        W10805   0.311   2.303   2.807  0.0866  0.0005  0.3537
 7062W        W10806   7.070   3.254   1.483  0.2044  0.0150  0.0967
 7063W        W10807   5.267   8.391   2.897 -0.0864 -0.0212 -0.2806
 7064W        W10808   0.102   7.474   0.395 -0.2032 -0.2199  0.1219
 7065W        W10809   3.992   1.783   9.220 -0.2768  0.1260  0.2505
 7066W        W10810   1.776   5.670  10.840 -0.0165 -0.1461  0.2110
 7067W        W10811   5.943   7.786  10.253  0.0278  0.2098 -0.3899
 7068W        W10812   8.473   0.858   2.520  0.1234  0.0636 -0.0818
 7069W        W10813   8.524   6.091   7.589  0.1934 -0.2374 -0.0375
 7070W        W10814   3.537   2.711   1.882  0.0975 -0.1279 -0.0773
 7071W        W10815   5.044   8.193   9.376 -0.1708 -0.0282  0.1032
 7072W        W10816   3.123   4.993   9.352 -0.0251 -0.0371  0.0978
 7073W        W10817   8.922   6.699   8.272 -0.0562  0.0813 -0.2597
 7074W        W10818   3.722   4.066   0.444  0.0334  0.0935  0.1319
 7075W        W10819   4.161   3.040   0.662 -0.0484 -0.2585  0.0478
 7076W        W10820   5.531   7.127   8.429  0.0977 -0.2920  0.0909
 7077W        W10821   3.283   8.668   1.288 -0.0617 -0.0442  0.2284
 7078W        W10822   6.232   5.110   1.921 -0.0185  0.1686  0.0472
 7079W        W10823   8.614   9.000   1.923  0.1724  0.5136  0.2043
 7080W        W10824   9.905   0.100  11.307 -0.2335 -0.2214  0.0846
 7081W        W10825   3.633   8.554  10.202  0.2271 -0.0347 -0.0173
 7082W        W10826   9.109   7.368   0.206 -0.0006  0.0958  0.2367
 7083W        W10827   1.927   2.608  11.415  0.1041  0.1779 -0.1302
 7084W        W10828   1.496   6.449   9.246  0.0223 -0.0695  0.1562
 7085W        W10829   1.340   4.982  11.918  0.2019  0.0162 -0.3538
 7086W        W10830   4.895   4.651   8.245 -0.0685  0.2318  0.3503
 7087W        W10831   3.339   7.027  11.295  0.2625 -0.1132 -0.0656
 7088W        W10832   1.144   2.473   9.885  0.0559 -0.0160 -0.1885
 7089W        W10833   5.129   3.704   1.429 -0.1019 -0.2454  0.1476
 7090W        W10834   9.825   4.144   8.230  0.2567 -0.0052  0.0094
 7091W        W10835   5.410   2.229   0.252 -0.1166 -0.0897  0.2032
 7092W        W10836   2.460   5.317   2.414  0.1018  0.1978 -0.0821
 7093W        W10837   7.111   4.332   3.567 -0.4195  0.2553 -0.1800
 7094W        W10838   1.719   0.354   0.156 -0.0501 -0.3578  0.2811
 7095W        W10839   4.928   3.666  11.561 -0.1117  0.1164 -0.1629
 7096W        W10840   5.809   1.478  11.471 -0.1596 -0.3262  0.2703
 7097W        W10841   3.716   6.292   8.078  0.1612 -0.2369  0.0802
 7098W        W10842   8.125   6.977   0.799 -0.1726 -0.0401 -0.0602
 7099W        W10843   8.023   2.766   0.460 -0.0579  0.2947  0.0923
 7100W        W10844   8.252   3.809   2.749  0.4026 -0.2926 -0.1246
 7101W        W10845   2.987   4.279   8.334  0.0514  0.1556  0.3624
 7102W        W10846   7.014   6.187  10.522  0.0604  0.1294  0.2977
 7103W        W10847   7.487   7.857   8.382 -0.1357  0.1367  0.1088
 7104W        W10848   5.049   4.487  12.104 -0.1873  0.0250  0.3008
 7105W        W10849   1.732   3.653   8.452 -0.0047  0.0837 -0.0724
 7106W        W10850   5.001   2.719   3.011  0.0625 -0.1884  0.0724
 7107W        W10851   5.743   7.325  11.783  0.1596 -0.0085  0.6103
 7108W        W10852   1.972   3.921   9.201 -0.0931 -0.1165  0.0714
 7109W        W10853   6.465   5.548  11.715  0.3502 -0.1214  0.1947
 7110W        W10854   1.074   5.424   3.277  0.2618  0.2395  0.0639
 7111W        W10855   5.847   0.748   1.922 -0.2314 -0.1550  0.0735
 7112W        W10856   0.073   6.593   8.542 -0.0980 -0.3077 -0.1028
 7113W        W10857   3.515   0.336  11.383  0.1819  0.1003  0.2766
 7114W        W10858   5.882   8.800   9.277  0.2989  0.0648 -0.0470
 7115W        W10859   6.147   5.167   0.848  0.2332  0.0859 -0.0322
 7116W        W10860   3.881   1.253   0.270  0.1656  0.0783 -0.2224
 7117W        W10861   2.236   3.460   9.175 -0.0886 -0.0790 -0.1982
 7118W        W10862   4.742   7.408   8.185  0.0626  0.1937  0.0529
 7119W        W10863   5.128   2.671   9.085  0.3113  0.2999 -0.0084
 7120W        W10864   5.604   0.981  11.735 -0.0488 -0.2125  0.1159
 7121W        W10865   2.501   7.747   2.352 -0.0508  0.0533 -0.2289
 7122W        W10866   8.056   3.915  11.654  0.1689  0.0888 -0.2168
 7123W        W10867   6.216   2.173  10.671 -0.3774  0.0171 -0.2439
 7124W        W10868   6.664   7.119   2.647 -0.1535  0.1351  0.0455
 7125W        W10869   2.317   5.527  10.511 -0.0328 -0.4963 -0.1333
 7126W        W10870   0.771   0.683   8.182 -0.2854 -0.0136  0.0980
 7127W        W10871   0.670   4.788   3.718 -0.2205 -0.3473  0.1018
 7128W        W10872   2.778   6.507   9.533 -0.1392 -0.2325 -0.3160
 7129W        W10873   9.844   3.546   1.628  0.0913  0.0500  0.2054
 7130W        W10874   6.437   9.955   8.159 -0.0484  0.1660 -0.0737
 7131W        W10875   5.936   5.512   8.722  0.1647  0.2020 -0.0697
 7132W        W10876  10.049   5.218   9.681  0.5127  0.0042  0.1600
 7133W        W10877   4.216   7.907   9.460 -0.0969  0.2531 -0.1047
 7134W        W10878   0.351   7.730   1.436 -0.1143  0.1979 -0.0655
 7135W        W10879   9.610   3.861  10.819 -0.0739  0.0136 -0.0338
 7136W        W10880   7.117   5.049   1.782 -0.2092 -0.0853 -0.0173
 7137W        W10881   4.844   0.275  11.311 -0.1719  0.0707  0.2933
 7138W        W10882   0.943   3.478   0.738  0.1840 -0.2467  0.0831
 7139W        W10883   4.742   8.380   0.853 -0.2235  0.0308  0.1950
 7140W        W10884   7.190   9.662   2.236  0.0695  0.2092  0.4048
 7141W        W10885   2.498   6.473   2.858 -0.2338  0.2377  0.1465
 7142W        W10886   8.656   5.473  10.583 -0.2276  0.0069  0.1032
 7143W        W10887   3.019   3.476   2.001 -0.0924  0.4161 -0.2924
 7144W        W10888   9.945   5.906   8.335  0.2098  0.1331 -0.2292
 7145W        W10889   3.003  10.140   9.340 -0.2138  0.2860 -0.2909
 7146W        W10890   5.152   1.853   3.402  0.2540  0.2659  0.1419
 7147W        W10891   0.524   8.262   3.012 -0.1143  0.1753  0.2375
 7148W        W10892   5.816   3.551   1.439  0.0489 -0.2531 -0.0746
 7149W        W10893   3.528   2.022   9.070  0.1748 -0.1751 -0.1330
 7150W        W10894   2.051   3.178   3.842  0.2024 -0.2214 -0.0131
 7151W        W10895   4.775   6.135   8.419 -0.1184  0.2689  0.3316
 7152W        W10896   5.018   1.756  10.214 -0.3330  0.0460 -0.0768
 7153W        W10897   8.288   1.312  11.555 -0.1770  0.1553 -0.0984
 7154W        W10898   7.168   5.703  10.272 -0.0562  0.0679 -0.2403
 7155W        W10899   4.658   4.737  11.005 -0.1250  0.1904  0.2778
 7156W        W10900   3.721   6.464   2.565 -0.0104 -0.0804 -0.0103
 7157W        W10901   8.997   2.992  11.474 -0.1588 -0.1878 -0.0004
 7158W        W10902  10.127   9.764  10.287  0.1367 -0.0226 -0.1606
 7159W        W10903   5.969   5.146   2.762  0.1822 -0.0881  0.1392
 7160W        W10904   0.469   1.289   9.610 -0.0477 -0.0935 -0.2150
 7161W        W10905   4.288   7.169   2.767 -0.2573  0.2810 -0.0407
 7162W        W10906   8.116   7.563  11.851 -0.0459  0.2137  0.0308
 7163W        W10907   2.264   4.356   9.326 -0.1282 -0.1592 -0.2188
 7164W        W10908   2.260   9.402   3.925 -0.3800  0.1494 -0.0265
 7165W        W10909   5.271   7.871  10.085  0.0500  0.2874 -0.1245
 7166W        W10910   2.858  10.189   2.404 -0.1840 -0.0367 -0.0863
 7167W        W10911   1.624   9.045   8.761  0.0314 -0.2559 -0.1809
 7168W        W10912   1.655   6.786  10.813  0.2115  0.0237 -0.2194
 7169W        W10913   6.846   6.029   0.932 -0.1692 -0.5652 -0.1185
 7170W        W10914   6.550   6.297  10.656  0.1914 -0.0923 -0.0731
 7171W        W10915   6.601   6.380   2.643  0.3309 -0.0747  0.0208
 7172W        W10916   4.039   3.965   3.368 -0.0855 -0.0071  0.3586
 7173W        W10917   1.868   4.857   9.433  0.0763  0.3619  0.2262
 7174W        W10918   6.992   0.528   9.744  0.0296  0.1578  0.1422
 7175W        W10919   6.612   0.857   2.443  0.2839  0.1702  0.0161
 7176W        W10920   4.738   6.656  10.151 -0.1279  0.0012  0.0614
 7177W        W10921   7.986   0.186   3.052 -0.2448 -0.1684  0.0698
 7178W        W10922   4.974   2.497  10.384  0.0712  0.1018  0.0996
 7179W        W10923   2.430   5.617   9.235  0.0107  0.1632  0.2299
 7180W        W10924   5.595   3.055   3.070  0.0696 -0.2599  0.4023
 7181W        W10925   6.793  10.025   0.556  0.1754 -0.0032  0.0605
 7182W        W10926   3.626   4.579  11.675 -0.2723  0.0028 -0.1350
 7183W        W10927   9.188   9.393   3.090  0.0774  0.0833 -0.1283
 7184W        W10928   5.637   7.008   9.380  0.2529 -0.0626 -0.0649
 7185W        W10929   1.846   4.860   2.363 -0.3089 -0.0345 -0.3489
 7186W        W10930   3.680   6.394   0.649 -0.1261  0.0826 -0.0478
 7187W        W10931   3.320   2.738   8.324  0.0981  0.1085  0.2418
 7188W        W10932   3.621   1.251  11.989  0.1650  0.1125  0.0046
 7189W        W10933   8.479   8.523   3.739  0.0773  0.0641  0.2374
 7190W        W10934   7.546   9.824   1.412  0.0487 -0.1521  0.0824
 7191W        W10935   0.140   9.070   1.377  0.0793  0.6477  0.1092
 7192W        W10936   6.204   7.710   9.040  0.1451 -0.0746  0.0790
 7193W        W10937   2.698   1.857   9.264 -0.1825  0.1626  0.0959
 7194W        W10938   7.658   3.944  10.365 -0.1499 -0.1515  0.2796
 7195W        W10939   7.909   0.344  11.984  0.1160  0.1028  0.0274
 7196W        W10940   0.898   5.214  11.818 -0.0230 -0.0228 -0.1485
 7197W        W10941   2.900   1.811   9.728  0.1418 -0.1021 -0.3980
 7198W        W10942   8.851   3.172   0.543  0.1234  0.0725 -0.0943
 7199W        W10943   1.622   2.222   0.687 -0.1614 -0.0407 -0.0965
 7200W        W10944   8.077   6.501   9.013 -0.1927  0.2657  0.1274
 7201W        W10945   6.929   6.479   9.533  0.0316 -0.4202  0.1449
 7202W        W10946   5.493   5.802   7.946 -0.2553 -0.1601  0.1926
 7203W        W10947   8.133   9.877  11.101 -0.0932 -0.0502  0.0776
 7204W        W10948   2.428   9.276   2.510  0.1419  0.0205  0.3014
 7205W        W10949   9.017   8.535   9.743 -0.0108 -0.0467 -0.2510
 7206W        W10950   2.090   7.913  11.105 -0.2921  0.0510 -0.3685
 7207W        W10951   9.705   3.381   3.578  0.2582  0.0778 -0.3759
 7208W        W10952   0.462   4.990   2.462 -0.1024 -0.0939 -0.0478
 7209W        W10953   8.889   8.237  10.339  0.0963 -0.0024 -0.3269
 7210W        W10954  10.132   1.255  11.637 -0.0799 -0.3673  0.2604
 7211W        W10955   3.805   4.242   9.728  0.0840 -0.0430  0.1685
 7212W        W10956   8.428   5.307   2.294  0.2339 -0.4547 -0.3014
 7213W        W10957   1.206   5.153  11.408 -0.1644  0.2273 -0.1656
 7214W        W10958   3.339   1.048   4.597 -0.1722 -0.0427 -0.3026
 7215W        W10959   1.402   7.920  12.126 -0.2606 -0.1896  0.0055
 7216W        W10960   2.999   9.608  10.232  0.0330  0.4530  0.1122
 7217W        W10961   2.713   7.769  11.537  0.0851  0.1810  0.4807
 7218W        W10962   7.903   2.766  10.304  0.0904 -0.3509 -0.1427
 7219W        W10963   0.163   9.803   2.390 -0.2285  0.2439  0.0533
 7220W        W10964   6.129   6.794   1.232  0.1974 -0.1027  0.1644
 7221W        W10965  10.122   8.300   1.780 -0.2736  0.2782  0.0132
 7222W        W10966   2.788   2.930   8.843  0.0241  0.1329 -0.1556
 7223W        W10967   9.103   5.711   0.240  0.0587 -0.1439  0.0597
 7224W        W10968   0.407   2.887   1.989 -0.1178  0.1577  0.0325
 7225W        W10969   4.450   6.693   4.246 -0.1852 -0.1558 -0.3017
 7226W        W10970   5.868   9.120   2.819 -0.2306  0.3951 -0.1202
 7227W        W10971   5.014   5.588   8.597  0.1281 -0.0289 -0.0514
 7228W        W10972   3.553   0.662   3.428  0.0536 -0.0258  0.2636
 7229W        W10973   1.996   7.452   1.221  0.3289  0.1385 -0.1293
 7230ION    NA+10974   1.787   5.919  11.744  0.1742 -0.0365 -0.0116
 7231ION    NA+10975   8.646   5.696   2.614 -0.0227 -0.3443 -0.0851
 7232ION    NA+10976   7.231   3.440   0.874 -0.0717  0.0340  0.0447
 7233ION    NA+10977   5.198   5.874   7.573 -0.0497  0.2849  0.0593
 7234ION    NA+10978   4.822   1.678   3.722  0.3487 -0.1060  0.0544
 7235ION    NA+10979   6.686   7.544   0.470 -0.1696 -0.2031  0.2088
 7236ION    NA+10980   8.016   3.511  10.578 -0.0236  0.0199 -0.0217
 7237ION    NA+10981   5.664   2.735   8.907 -0.0555 -0.0800 -0.0571
 7238ION    NA+10982   9.573   3.885   3.870 -0.1326 -0.1499 -0.2371
 7239ION    NA+10983   0.110   5.344   7.500  0.3135  0.0215  0.0845
 7240ION    NA+10984   2.728   6.932   7.519 -0.2628  0.1119 -0.0914
 7241ION    NA+10985   4.982   3.962   7.666  0.2798  0.0203  0.2939
 7242ION    NA+10986   8.074   0.039   9.776  0.3279 -0.3562  0.0528
 7243ION    NA+10987   6.485   0.595   7.592 -0.2327  0.0161  0.0182
 7244ION    NA+10988  10.123   0.524   7.706 -0.0910  0.1846 -0.2205
 7245ION    NA+10989   9.578   1.281   2.412  0.2215 -0.0733 -0.1495
 7246ION    NA+10990   5.318   7.109   8.916  0.0315  0.1114  0.1103
 7247ION    NA+10991   7.420   5.917   8.941  0.2098 -0.0712  0.0016
 7248ION    NA+10992   6.256   9.594   7.839 -0.2694  0.1739 -0.0041
 7249ION    NA+10993   2.208   3.912   9.671 -0.1920  0.0636 -0.1621
 7250ION    NA+10994   6.906   2.154   2.581 -0.2184  0.2272  0.2314
 7251ION    NA+10995   5.355   6.076   3.953  0.0241 -0.1069  0.2515
 7252ION    NA+10996   5.503   3.300   3.992  0.0114 -0.0299  0.1031
 7253ION    NA+10997  10.213   2.661  12.118  0.0000  0.1779  0.0620
 7254ION    NA+10998   9.662   7.709   7.662  0.1521 -0.4249  0.0065
 7255ION    NA+10999   2.988   3.432   9.938 -0.3497 -0.0717  0.1293
 7256ION    NA+11000   0.945   9.544  11.068  0.0447  0.5640 -0.0134
 7257ION    NA+11001   4.438   5.045  11.318 -0.2277  0.1149 -0.2258
 7258ION    NA+11002   9.172   1.563   3.415  0.1069 -0.2959 -0.1112
 7259ION    NA+11003   9.312   3.758   9.015 -0.1438 -0.2186  0.0846
 7260ION    NA+11004   1.055   7.289   3.522  0.0543 -0.1447  0.0849
 7261ION    NA+11005   6.809   4.394  11.842  0.2489 -0.3809  0.1364
 7262ION    NA+11006   2.446   6.178   1.442 -0.1806  0.0614  0.1216
 7263ION    NA+11007   1.695   4.426   2.665  0.2963 -0.1869 -0.0590
 7264ION    NA+11008   7.446   6.568   9.506  0.0763  0.0722 -0.1437
 7265ION    NA+11009   1.828   8.788   9.817  0.0856 -0.2063  0.0997
 7266ION    NA+11010   9.524   2.351  10.849  0.1932 -0.1233  0.3045
 7267ION    NA+11011   3.965   8.487   2.569 -0.0447 -0.1900  0.0105
 7268ION    NA+11012   7.266   2.396   7.943  0.0107  0.2732  0.0450
 7269ION    NA+11013   0.215   5.493   3.488  0.2571 -0.5472  0.3971
 7270ION    NA+11014   2.891   1.689   0.220 -0.2101 -0.2142  0.0294
 7271ION    NA+11015   6.954   5.076   0.455 -0.0593  0.4396 -0.2254
 7272ION    NA+11016   7.135   7.837   9.602  0.1057 -0.0883  0.1507
 7273ION    NA+11017   2.774   9.720   9.198  0.1384  0.2408  0.3583
 7274ION    NA+11018   5.987   9.441   0.277  0.0622  0.0730 -0.3428
 7275ION    NA+11019   4.476   7.549   3.841 -0.1183  0.1821 -0.1659
 7276ION    NA+11020   9.676   6.603   9.547 -0.1644 -0.2399 -0.0295
 7277ION    NA+11021   0.204   6.155   1.789  0.1088 -0.0912  0.1795
 7278ION    NA+11022   7.991   9.566  11.521 -0.1349 -0.0167 -0.0781
 7279ION    NA+11023   1.307   0.346   1.177  0.1786  0.3560 -0.2449
 7280ION    NA+11024   2.107   3.648  10.921 -0.3927  0.1351 -0.1180
 7281ION    NA+11025   8.730   8.248   7.854 -0.0216 -0.1549  0.2733
 7282ION    NA+11026   9.958   6.023   2.695 -0.2699  0.1776  0.3622
 7283ION    NA+11027   2.536   5.777   9.725 -0.1344  0.3288  0.0005
 7284ION    NA+11028   3.552   2.480   7.876  0.1354 -0.0322  0.1822
 7285ION    NA+11029   6.582   7.167   8.379  0.0940 -0.0010  0.0194
 7286ION    NA+11030   4.646   3.874   1.943 -0.0121 -0.1223 -0.0529
 7287ION    NA+11031   3.667   6.544   8.555  0.0915 -0.2172 -0.1792
 7288ION    NA+11032   7.293   4.125  11.023  0.3687 -0.0546  0.0880
 7289ION    NA+11033   8.297   5.627   8.132 -0.1544 -0.0721  0.1040
 7290ION    NA+11034   9.686   8.431  10.441  0.0209 -0.0266 -0.3289
 7291ION    NA+11035   0.374   9.290   3.857  0.0993 -0.1333  0.0062
 7292ION    NA+11036   7.227   5.207   2.840  0.2442 -0.1142  0.0630
 7293ION    NA+11037   9.358   9.564   1.288 -0.0081  0.2204 -0.1203
 7294ION    NA+11038   6.054   8.413   9.581  0.1128  0.0193 -0.1753
 7295ION    NA+11039   9.373   4.151  10.013  0.0337  0.1131  0.2636
 7296ION    NA+11040   9.829  10.027   1.019  0.0272 -0.2297 -0.0871
 7297ION    NA+11041   4.066   8.895   1.352 -0.0743  0.0145  0.1609
 7298ION    NA+11042   4.687   0.304   8.855  0.1088  0.1388  0.4317
 7299ION    NA+11043   5.511   7.257   0.651  0.2223 -0.0054  0.0796
 7300ION    NA+11044   0.756   8.844   1.636 -0.0434 -0.0319  0.3325
 7301ION    NA+11045  10.148   7.763  11.239 -0.2598 -0.0035  0.4258
 7302ION    NA+11046   2.407   6.289   3.372  0.4016 -0.0014  0.0779
 7303ION    NA+11047   9.283   8.393   9.184  0.2909 -0.0054  0.0456
 7304ION    NA+11048   7.273  10.060  10.549 -0.2765 -0.0935  0.0140
 7305ION    NA+11049   5.896   1.412   3.858 -0.0627 -0.3694  0.2551
 7306ION    CL-11050   6.830   7.477   1.031 -0.1603  0.3028  0.0258
 7307ION    CL-11051   9.309   0.782   9.191  0.0603  0.0105 -0.1583
 7308ION    CL-11052   1.435   8.356   9.637  0.3161  0.1951  0.0040
 7309ION    CL-11053   1.213   5.839  11.518  0.2848 -0.0647 -0.0890
 7310ION    CL-11054   5.344   1.497  11.577 -0.2891 -0.0118 -0.3332
 7311ION    CL-11055   8.421   3.068   3.376 -0.0553 -0.0498 -0.1565
 7312ION    CL-11056   0.173   4.843   9.808 -0.0792 -0.2585 -0.2208
 7313ION    CL-11057   6.212   4.246   3.613 -0.3787  0.0158 -0.0861
 7314ION    CL-11058   4.070   8.103   2.836 -0.0523 -0.2632 -0.1097
 7315ION    CL-11059   9.231   0.149  11.202  0.0043 -0.2471  0.0723
 7316ION    CL-11060   3.431   5.832   9.745  0.2765 -0.1444  0.1943
 7317ION    CL-11061   4.895   2.923   8.129 -0.1353 -0.0548  0.0727
 7318ION    CL-11062   0.144   0.227   8.924 -0.5314 -0.1860 -0.1269
 7319ION    CL-11063   2.393   6.557   8.442 -0.0003 -0.2645  0.0960
 7320ION    CL-11064   7.974   9.386  10.884 -0.2083 -0.0767  0.1288
 7321ION    CL-11065   7.725   5.392   8.918  0.0622  0.0649  0.0477
 7322ION    CL-11066   0.345  10.006   3.326 -0.1082  0.0152 -0.1451
 7323ION    CL-11067   0.367   7.345   8.781  0.0899  0.1213  0.1623
 7324ION    CL-11068   4.885   3.379   1.758 -0.0893 -0.2663  0.0088
 7325ION    CL-11069   9.132   3.731   8.506  0.1063 -0.3293  0.0254
 7326ION    CL-11070   7.589   7.036   9.528  0.2123 -0.0394 -0.2346
 7327ION    CL-11071   5.817   3.445   2.864 -0.1716  0.4506 -0.1645
 7328ION    CL-11072   5.284   6.014   8.440 -0.1542 -0.2683  0.3513
 7329ION    CL-11073   3.385   7.931   9.896 -0.3310 -0.0636 -0.0088
 7330ION    CL-11074   7.751   6.180   9.244  0.1957  0.1513 -0.0989
 7331ION    CL-11075   0.433   9.287  11.003  0.3188 -0.0203 -0.0825
 7332ION    CL-11076   3.874   8.686  10.714  0.0860  0.1355 -0.0166
 7333ION    CL-11077   0.999   2.222   2.067  0.0658 -0.0316  0.1803
 7334ION    CL-11078   3.795  10.220  11.635  0.2344 -0.2006  0.2218
 7335ION    CL-11079   6.618   1.771   2.278  0.1585  0.0155  0.2518
 7336ION    CL-11080   1.689   0.373   9.620 -0.0285  0.2804 -0.0965
 7337ION    CL-11081   4.838   5.829   3.179 -0.1098  0.1079 -0.2092
 7338ION    CL-11082   9.036   8.799   1.808  0.2968  0.0632  0.0059
 7339ION    CL-11083   3.546   3.258   8.385 -0.0200 -0.2949 -0.1108
 7340ION    CL-11084   7.372   3.884   2.716  0.0578 -0.2268 -0.0408
 7341ION    CL-11085   7.597   3.887   8.480  0.2340 -0.0060 -0.1545
 7342ION    CL-11086   9.694   7.096   9.608  0.2972  0.2450 -0.0287
 7343ION    CL-11087   8.784   4.465   3.007 -0.3224 -0.0034  0.0271
 7344ION    CL-11088   1.917   6.545   2.999  0.0974  0.1345 -0.0086
 7345ION    CL-11089   2.585   5.915  10.330 -0.0432  0.0945  0.0452
 7346ION    CL-11090   9.828   9.608   1.359  0.0723  0.3304 -0.1055
 7347ION    CL-11091   2.408   4.080  11.035  0.1592 -0.0201 -0.2473
 7348ION    CL-11092   0.008   3.252   2.785  0.1105  0.0965  0.1836
 7349ION    CL-11093   9.744   7.939  10.948 -0.3501  0.2154 -0.3251
 7350ION    CL-11094   3.500   3.017   7.962 -0.0459  0.0764  0.2678
 7351ION    CL-11095   3.221   1.396  11.608  0.2507 -0.0939  0.0046
 7352ION    CL-11096   4.040   8.453   2.078 -0.1136  0.1307 -0.1288
 7353ION    CL-11097   2.760   3.250   1.405  0.2138  0.0462  0.3742
 7354ION    CL-11098   6.719   0.516   8.776  0.1938  0.2473 -0.0505
 7355ION    CL-11099   2.928   5.480   9.117 -0.4192 -0.1263 -0.3300
 7356ION    CL-11100   0.982   6.028   7.901  0.1851  0.1783  0.0158
 7357ION    CL-11101   6.610   7.512   8.021  0.0505 -0.0884 -0.0905
 7358ION    CL-11102   1.893   4.410   3.218  0.1469  0.0135 -0.2931
 7359ION    CL-11103   8.660   5.073   0.295  0.0111  0.1867  0.0310
 7360ION    CL-11104   9.315   4.029   9.478  0.2450  0.0260 -0.0179
 7361ION    CL-11105   7.084   4.343  11.392  0.2345 -0.2864 -0.1854
 7362ION    CL-11106   3.200   3.700   9.439 -0.0376  0.0625  0.3494
 7363ION    CL-11107   3.784   1.797   1.924 -0.3357  0.0548 -0.0467
 7364ION    CL-11108   5.814   1.895   8.564  0.0141  0.1531 -0.3530
 7365ION    CL-11109   5.568   3.012   8.488 -0.0847 -0.2140  0.0064
 7366ION    CL-11110   8.567   8.653   9.727  0.1528 -0.1555 -0.0088
 7367ION    CL-11111   6.622   1.799   3.437 -0.0155 -0.0872  0.1314
 7368ION    CL-11112   5.392   7.882   9.514  0.0163 -0.1437  0.1792
 7369ION    CL-11113   1.322   4.791   2.631  0.3050 -0.1898  0.7723
 7370ION    CL-11114   9.328   8.781  10.506  0.2227 -0.1852 -0.0349
 7371ION    CL-11115   1.263   8.317  11.056 -0.0823 -0.0371  0.0798
 7372ION    CL-11116   6.528   6.849   3.095  0.0249  0.0652 -0.0340
 7373ION    CL-11117   3.282   6.312   8.796  0.0145  0.2645  0.1849
 7374ION    CL-11118   6.683   5.637   2.822 -0.0724  0.0030  0.0694
 7375ION    CL-11119   8.651   8.222   8.684 -0.1703  0.3758  0.2881
 7376ION    CL-11120   1.504   2.056  10.900 -0.1209 -0.3277 -0.1281
 7377ION    CL-11121   9.773   2.572   0.122  0.0603 -0.0536 -0.1580
 7378ION    CL-11122   5.717   2.468   9.762 -0.0121 -0.2747 -0.0647
 7379ION    CL-11123  10.205   2.830  11.402  0.0920 -0.1995 -0.2798
 7380ION    CL-11124   7.276   2.525   2.558 -0.0828  0.0443  0.0542
 7381ION    CL-11125   7.291   6.066   6.924  0.1123  0.0092  0.0355
  10.22709  10.22709  12.14557
