Protein in INSANE! Membrane UpperLeaflet>POPC=1.0 LowerLeaflet>POPC=1.0
12914
    1AU     AUC    1   0.923   9.720   6.683 -0.0447  0.0046 -0.0769
    1AU     AUC    2   0.909   9.649   6.537 -0.0147 -0.0230  0.0329
    1AU     AUC    3   1.095   9.650   6.674  0.1074 -0.0074 -0.0245
    1AU     AUC    4   0.775   9.781   6.738 -0.0601  0.0539  0.0667
    1AU     AUC    5   0.893   9.788   6.865 -0.0171 -0.0583  0.0765
    1AU     AUC    6   0.918   9.878   6.712 -0.0418  0.0223  0.0950
    1AU     AUC    7   1.025   9.797   6.590 -0.1310 -0.0912  0.0135
    1AU     AUC    8   0.822   9.602   6.804 -0.0557  0.0695  0.0287
    1AU     AUC    9   0.922   9.544   6.691  0.0474  0.0280  0.0388
    1AU     AUC   10   1.003   9.627   6.844  0.0106 -0.0190 -0.0503
    1AU     AUC   11   1.055   9.770   6.763  0.0301  0.1075  0.0361
    1AU     AUC   12   0.798   9.633   6.645  0.0242 -0.0801 -0.0152
    1AU     AUC   13   0.839   9.798   6.592  0.0955  0.1225 -0.0582
    1AU     AUC   14   0.943   9.602   6.407 -0.0632  0.0123 -0.0456
    1AU     AUC   15   1.073   9.562   6.447  0.0579  0.1148 -0.0345
    1AU     AUC   16   1.199   9.576   6.628  0.0156  0.0481 -0.0183
    1AU     AUC   17   0.633   9.857   6.770  0.0283 -0.0489 -0.0055
    1AU     AUC   18   0.764   9.837   6.932  0.0359 -0.0019 -0.1498
    1AU     AUC   19   0.881   9.836   6.989  0.0735 -0.0335  0.0024
    1AU     AUC   20   0.923  10.024   6.726 -0.1160  0.0237  0.0793
    1AU     AUC   21   1.027  10.017   6.631  0.0106 -0.0636  0.0975
    1AU     AUC   22   1.100   9.873   6.489 -0.0456 -0.0415 -0.0341
    1AU     AUC   23   0.737   9.547   6.909 -0.0132 -0.0555 -0.0647
    1AU     AUC   24   0.816   9.419   6.804 -0.0572  0.0475 -0.0217
    1AU     AUC   25   0.946   9.391   6.658  0.0444 -0.1159 -0.0037
    1AU     AUC   26   1.068   9.538   6.932 -0.0324 -0.0466  0.0591
    1AU     AUC   27   1.157   9.707   6.942  0.0042 -0.0625 -0.0800
    1AU     AUC   28   1.189   9.843   6.832 -0.0840 -0.0022  0.0724
    1AU     AUC   29   0.636   9.582   6.577 -0.0006 -0.0045 -0.0958
    1AU     AUC   30   0.592   9.735   6.518 -0.0801 -0.0613  0.0933
    1AU     AUC   31   0.777   9.889   6.468  0.0907  0.0846 -0.0990
    1AU     AUC   32   1.170   9.537   6.824 -0.0341  0.0478  0.0648
    1AU     AUC   33   1.255   9.719   6.711 -0.0392  0.1077  0.0816
    1AU     AUC   34   0.790   9.554   6.445 -0.0366  0.0903 -0.0094
    1AU     AUC   35   0.834   9.749   6.399  0.0341 -0.0158  0.0878
    1AU     AUC   36   0.980   9.672   7.024  0.0136  0.0837 -0.0295
    1AU     AUC   37   1.033   9.862   6.974 -0.0246 -0.0711  0.0690
    1AU     AUC   38   0.591   9.712   6.725  0.0533 -0.0330  0.0242
    1AU     AUC   39   0.661   9.898   6.606  0.0736  0.0037 -0.0048
    1AU     AUC   40   1.051   9.751   6.420  0.0635 -0.0412  0.0395
    1AU     AUC   41   1.184   9.703   6.524 -0.0408  0.0215  0.0309
    1AU     AUC   42   0.716   9.998   6.748 -0.0037 -0.0692 -0.0234
    1AU     AUC   43   0.891   9.996   6.877 -0.0036  0.0920 -0.0413
    1AU     AUC   44   0.980   9.446   6.510 -0.1029  0.0425 -0.0568
    1AU     AUC   45   1.110   9.450   6.667  0.0149 -0.0979  0.0659
    1AU     AUC   46   0.627   9.715   6.874 -0.0840 -0.0692 -0.0569
    1AU     AUC   47   0.721   9.740   7.012 -0.0830 -0.0244  0.0245
    1AU     AUC   48   1.105   9.963   6.802  0.0007 -0.0233  0.0288
    1AU     AUC   49   1.185   9.917   6.615 -0.0337 -0.0111 -0.0205
    1AU     AUC   50   0.902   9.524   6.956 -0.0482 -0.0468  0.0737
    1AU     AUC   51   1.040   9.412   6.823  0.0683  0.0152  0.0624
    1AU     AUC   52   0.842  10.008   6.575  0.0291  0.1002  0.0161
    1AU     AUC   53   0.960   9.892   6.444  0.0881 -0.0530 -0.0212
    1AU     AUC   54   0.647   9.538   6.729  0.0191  0.0288  0.0309
    1AU     AUC   55   0.758   9.417   6.545 -0.0773  0.0316  0.0996
    1AU    AUSL   56   1.367   9.563   6.834  0.1022 -0.0922 -0.0052
    1AU    AUSL   57   1.335   9.302   6.899 -0.0724 -0.0379  0.0870
    1AU     AUL   58   1.524   9.630   6.852  0.0847 -0.0686  0.0763
    1AU       S   59   1.557   8.880   6.949  0.5389 -0.0190  0.2065
    1AU     LIG   60   1.463   8.457   7.181  0.3240  0.1068  0.1694
    1AU     LIG   61   1.030   8.221   7.177 -0.1437  0.3990  0.3520
    1AU     LIG   62   1.167   7.900   7.439  0.4808  0.2052 -0.1916
    1AU     LIG   63   1.007   8.033   7.911 -0.2888  0.0894  0.1752
    1AU     LIG   64   0.955   7.679   8.251  0.0576 -0.0862  0.1376
    1AU       S   65   1.793   9.290   7.134 -0.2702 -0.6050 -0.2993
    1AU     LIG   66   2.192   9.328   7.135 -0.1524  0.3159  0.0288
    1AU     LIG   67   2.635   9.471   7.109 -0.1535  0.2273 -0.0134
    1AU     LIG   68   3.002   9.524   6.930 -0.0722  0.2552  0.1597
    1AU     LIG   69   3.444   9.625   6.999 -0.1010  0.2261  0.2967
    1AU     LIG   70   3.621   9.902   7.037 -0.0798 -0.1339  0.0896
    1AU    AUSL   71   1.201   9.487   7.041 -0.0194 -0.1242  0.0177
    1AU    AUSL   72   1.243   9.757   6.996  0.0325  0.0665 -0.0258
    1AU     AUL   73   1.229   9.455   7.149  0.0497 -0.0020  0.0001
    1AU       S   74   1.618   9.328   7.420 -0.3319  0.0597 -0.2001
    1AU     LIG   75   2.012   9.182   7.580 -0.2902  0.2190  0.0864
    1AU     LIG   76   2.475   9.161   7.476 -0.0053  0.0941 -0.0433
    1AU     LIG   77   2.860   9.027   7.210  0.3658  0.1505  0.0584
    1AU     LIG   78   3.142   8.652   7.112 -0.3191 -0.0314  0.0539
    1AU     LIG   79   3.240   8.512   6.757 -0.1397  0.2001 -0.1313
    1AU       S   80   1.589   9.834   7.522 -0.2284  0.3447  0.1435
    1AU     LIG   81   1.984   9.701   7.429 -0.3207 -0.2553  0.4107
    1AU     LIG   82   2.268   9.629   7.724 -0.1578  0.0991  0.0351
    1AU     LIG   83   2.607   9.705   8.014  0.0458  0.1670  0.2538
    1AU     LIG   84   2.918   9.415   8.048 -0.0525 -0.1569  0.1974
    1AU     LIG   85   2.853   9.083   7.968  0.4201 -0.2296 -0.1780
    1AU    AUSL   86   1.479   9.918   6.956  0.1214 -0.0278  0.0128
    1AU    AUSL   87   1.475   9.616   6.570  0.0167 -0.0423  0.0553
    1AU     AUL   88   1.598   9.890   6.773  0.0057 -0.0671  0.0371
    1AU       S   89   1.774  10.135   7.198  0.1651  0.4464  0.2755
    1AU     LIG   90   2.060  10.202   7.374 -0.1209 -0.2491 -0.1247
    1AU     LIG   91   2.436   9.929   7.340 -0.3636 -0.2847 -0.0417
    1AU     LIG   92   2.778   9.585   7.562 -0.1488  0.3023 -0.0273
    1AU     LIG   93   3.117   9.371   7.424  0.2350 -0.2803  0.0411
    1AU     LIG   94   3.344   9.141   7.194 -0.1017  0.1521 -0.1057
    1AU       S   95   1.955   9.662   6.455  0.2218 -0.3282  0.1573
    1AU     LIG   96   2.303   9.285   6.381 -0.2031 -0.1976 -0.1577
    1AU     LIG   97   2.510   8.889   6.285 -0.1376 -0.0535  0.3661
    1AU     LIG   98   2.768   8.635   6.339  0.0409 -0.2251 -0.3405
    1AU     LIG   99   2.776   8.283   6.602 -0.3755  0.2435 -0.3800
    1AU     LIG  100   2.492   8.075   6.957  0.5370  0.2580  0.3515
    1AU    AUSL  101   0.827   9.551   6.277 -0.0776  0.0116  0.0288
    1AU    AUSL  102   0.787   9.818   6.325  0.1044  0.0540  0.0344
    1AU     AUL  103   1.009   9.626   5.941  0.0207  0.0493  0.0184
    1AU       S  104   0.562   9.402   5.731 -0.0250 -0.2885  0.2275
    1AU     LIG  105   0.701   9.162   5.398 -0.5199 -0.1277  0.1298
    1AU     LIG  106   0.878   8.757   5.471  0.0502  0.1014  0.4194
    1AU     LIG  107   1.201   8.515   5.577 -0.3713  0.0096  0.2488
    1AU     LIG  108   1.252   8.393   5.983  0.1322 -0.1654 -0.0130
    1AU     LIG  109   1.331   7.938   6.142  0.2271 -0.0429 -0.0569
    1AU       S  110   0.547  10.122   5.794 -0.1705  0.2649 -0.2964
    1AU     LIG  111   0.258  10.317   5.667 -0.0589 -0.2672  0.3922
    1AU     LIG  112  -0.022  10.646   5.644  0.3267  0.5991 -0.0928
    1AU     LIG  113  -0.041  11.064   5.703 -0.4181  0.2514 -0.0580
    1AU     LIG  114   0.062  11.457   5.984 -0.0366 -0.0884 -0.1471
    1AU     LIG  115   0.064  11.922   5.948 -0.0980 -0.2155  0.6828
    1AU    AUSL  116   0.600   9.628   6.445 -0.0778  0.0529  0.0411
    1AU    AUSL  117   0.875   9.269   6.318  0.0414  0.0562  0.0447
    1AU     AUL  118   0.837   9.567   6.151  0.0374 -0.0558  0.0622
    1AU       S  119   0.670   8.917   6.002  0.3617  0.2956  0.2600
    1AU     LIG  120   0.733   8.473   5.930 -0.0743  0.0549 -0.0134
    1AU     LIG  121   0.519   8.163   5.865 -0.3009 -0.0093 -0.0130
    1AU     LIG  122   0.374   7.780   5.914 -0.3616  0.0645  0.0801
    1AU     LIG  123   0.399   7.409   6.042  0.1291  0.4755 -0.3040
    1AU     LIG  124   0.179   7.012   6.212  0.0317 -0.2022 -0.0976
    1AU       S  125   0.273   9.372   5.894  0.1159 -0.1816 -0.0179
    1AU     LIG  126  -0.224   9.444   5.830 -0.1414  0.4242  0.0212
    1AU     LIG  127  -0.539   9.696   5.867 -0.3152  0.3556  0.1076
    1AU     LIG  128  -0.963   9.560   5.927 -0.1112  0.0866  0.2144
    1AU     LIG  129  -1.058   9.218   6.158 -0.4922  0.1971 -0.1832
    1AU     LIG  130  -1.003   9.030   6.491 -0.5424 -0.0345  0.0377
    1AU    AUSL  131   0.594   9.696   6.174  0.0726  0.0075 -0.0789
    1AU    AUSL  132   0.365   9.708   6.353 -0.0208  0.1116  0.1081
    1AU     AUL  133   0.621   9.375   6.220  0.0132 -0.0202 -0.0064
    1AU       S  134   0.025   9.812   6.112 -0.1835 -0.0121 -0.2547
    1AU     LIG  135  -0.348   9.627   6.295 -0.2998  0.2382  0.3274
    1AU     LIG  136  -0.808   9.594   6.410  0.4912  0.0343 -0.0355
    1AU     LIG  137  -1.155   9.443   6.716  0.1619 -0.1198  0.0432
    1AU     LIG  138  -1.474   9.314   6.525 -0.1134 -0.1078  0.3236
    1AU     LIG  139  -1.788   9.006   6.534 -0.0202  0.0762  0.4062
    1AU       S  140   0.412   9.645   5.806 -0.2229 -0.3942  0.3820
    1AU     LIG  141   0.177   9.766   5.589  0.2447 -0.2298 -0.0278
    1AU     LIG  142  -0.191  10.070   5.690  0.1248 -0.1415  0.4184
    1AU     LIG  143  -0.554  10.301   5.830 -0.2784  0.3660  0.2928
    1AU     LIG  144  -0.817  10.567   6.209 -0.1284 -0.0132  0.0048
    1AU     LIG  145  -1.056  10.893   6.313 -0.1508 -0.2787  0.5399
    1AU    AUSL  146   1.014   9.889   7.116 -0.0404  0.0889 -0.0360
    1AU    AUSL  147   1.172   9.997   6.890 -0.0504  0.0668  0.0104
    1AU     AUL  148   1.397   9.689   7.094  0.0761 -0.1682  0.0262
    1AU       S  149   1.356   9.983   7.660  0.0505  0.2483  0.2845
    1AU     LIG  150   1.634  10.321   7.697 -0.0892  0.3163  0.4372
    1AU     LIG  151   1.959  10.646   7.665  0.3725  0.3860  0.1064
    1AU     LIG  152   2.095  10.777   7.369 -0.0171  0.2850  0.1260
    1AU     LIG  153   2.088  11.054   7.030  0.1409 -0.0442 -0.1566
    1AU     LIG  154   2.088  11.345   6.699  0.1652 -0.0820  0.1843
    1AU       S  155   1.381  10.519   7.205 -0.0747 -0.3982  0.5685
    1AU     LIG  156   1.666  10.928   7.222  0.2660 -0.0442  0.1247
    1AU     LIG  157   1.899  11.167   7.490  0.2000 -0.2466 -0.1889
    1AU     LIG  158   2.274  11.343   7.507  0.2412 -0.0855  0.0409
    1AU     LIG  159   2.391  11.581   7.794  0.1638  0.1552  0.2281
    1AU     LIG  160   2.766  11.714   8.018  0.1068  0.2417  0.1234
    1AU    AUSL  161   1.173   9.713   7.258  0.0088 -0.0011 -0.0943
    1AU    AUSL  162   0.877   9.784   7.346 -0.1291  0.0021  0.0513
    1AU     AUL  163   0.991   9.407   7.284 -0.1189  0.1192 -0.0133
    1AU       S  164   0.917   9.785   7.766  0.1983 -0.0310  0.1465
    1AU     LIG  165   0.911   9.940   8.270  0.0343  0.1179 -0.0956
    1AU     LIG  166   0.799   9.796   8.588 -0.0397 -0.2657 -0.3859
    1AU     LIG  167   0.877   9.450   8.689  0.0920  0.0955 -0.0279
    1AU     LIG  168   1.212   9.041   8.775 -0.0314 -0.0482 -0.3528
    1AU     LIG  169   1.170   8.780   9.084 -0.2658 -0.2708 -0.3597
    1AU       S  170   1.440   9.793   7.693 -0.0952  0.4021  0.0444
    1AU     LIG  171   1.860   9.974   7.936  0.4692  0.0448 -0.0235
    1AU     LIG  172   2.254  10.116   7.826 -0.0393 -0.2316  0.0005
    1AU     LIG  173   2.474  10.565   7.710  0.0451  0.4444 -0.1281
    1AU     LIG  174   2.352  10.895   7.936  0.0182 -0.1709  0.1138
    1AU     LIG  175   1.901  10.997   8.055  0.4946  0.0728  0.3063
    1AU    AUSL  176   0.325   9.846   6.583  0.0397  0.0335  0.0927
    1AU    AUSL  177   0.551   9.493   6.703  0.0312 -0.0355 -0.0774
    1AU     AUL  178   0.423   9.411   6.421 -0.0505  0.0724 -0.0688
    1AU       S  179  -0.034   9.999   6.375 -0.2314 -0.4373 -0.0454
    1AU     LIG  180  -0.510  10.209   6.302  0.2894  0.3722 -0.0383
    1AU     LIG  181  -0.836  10.021   6.141  0.1468 -0.0150 -0.4470
    1AU     LIG  182  -1.227  10.165   6.161  0.0677 -0.2069  0.0192
    1AU     LIG  183  -1.610  10.174   5.939 -0.0101 -0.3949  0.0210
    1AU     LIG  184  -2.106  10.197   5.692  0.1275  0.0538 -0.0436
    1AU       S  185  -0.082   9.327   6.744 -0.6911 -0.3409 -0.0968
    1AU     LIG  186  -0.521   9.292   6.763 -0.0963  0.2474  0.0653
    1AU     LIG  187  -0.802   8.998   6.948 -0.1974  0.0905 -0.0310
    1AU     LIG  188  -1.087   8.663   6.860  0.1624  0.1876 -0.0379
    1AU     LIG  189  -1.514   8.450   6.890 -0.1803  0.1596 -0.1676
    1AU     LIG  190  -1.821   8.509   6.475 -0.1985  0.1930  0.1977
    1AU    AUSL  191   0.583   9.891   6.500 -0.0273 -0.1146 -0.0336
    1AU    AUSL  192   0.442  10.064   6.701  0.0369 -0.0424  0.0618
    1AU     AUL  193   0.544   9.945   6.315  0.0327  0.0204 -0.0410
    1AU       S  194   0.099  10.414   6.575 -0.2836 -0.3381  0.2745
    1AU     LIG  195  -0.339  10.576   6.593  0.2441 -0.0076  0.3326
    1AU     LIG  196  -0.688  10.852   6.680 -0.1878  0.2571  0.0128
    1AU     LIG  197  -1.055  11.031   6.835  0.3371  0.2062  0.4284
    1AU     LIG  198  -1.398  10.950   7.063  0.2607  0.0865 -0.5602
    1AU     LIG  199  -1.680  10.983   7.434 -0.3922  0.0941 -0.0606
    1AU       S  200   0.092  10.105   6.106 -0.2523  0.2005 -0.6532
    1AU     LIG  201  -0.122  10.484   6.167  0.3304  0.3382 -0.0381
    1AU     LIG  202  -0.272  10.946   6.291 -0.2830  0.0711 -0.0650
    1AU     LIG  203  -0.618  11.244   6.399 -0.1696 -0.0039 -0.5558
    1AU     LIG  204  -0.679  11.704   6.522  0.0365  0.0025  0.1489
    1AU     LIG  205  -0.805  11.746   6.946  0.1850 -0.0977 -0.0308
    1AU    AUSL  206   1.277   9.740   6.415 -0.0068  0.0287 -0.0299
    1AU    AUSL  207   0.883   9.839   6.080  0.0449  0.0152 -0.0272
    1AU     AUL  208   1.223   9.825   6.000 -0.0798  0.0735 -0.0069
    1AU       S  209   0.774   9.987   5.668  0.1270  0.0018 -0.1188
    1AU     LIG  210   0.789   9.763   5.362 -0.0940  0.2231 -0.0815
    1AU     LIG  211   0.357   9.553   5.195 -0.2657  0.3406 -0.3591
    1AU     LIG  212   0.102   9.258   5.430 -0.1380  0.1016 -0.1294
    1AU     LIG  213  -0.052   8.954   5.808  0.2771  0.0478 -0.1945
    1AU     LIG  214  -0.047   9.148   6.211  0.0608 -0.1425 -0.1790
    1AU       S  215   1.720   9.653   6.050  0.1835 -0.2255  0.1655
    1AU     LIG  216   2.111   9.532   5.978  0.1347  0.1359  0.1435
    1AU     LIG  217   2.204   9.169   5.879  0.3376  0.1400 -0.1002
    1AU     LIG  218   2.124   8.764   5.518 -0.1498 -0.1319 -0.0880
    1AU     LIG  219   2.095   8.321   5.537  0.4398  0.1825  0.0499
    1AU     LIG  220   2.045   7.924   5.735 -0.2241 -0.0125 -0.0557
    1AU    AUSL  221   1.069   9.694   6.229  0.1065 -0.0618  0.0356
    1AU    AUSL  222   1.203   9.239   6.412 -0.0363  0.0505  0.0370
    1AU     AUL  223   1.170   9.613   6.173 -0.1191 -0.0201 -0.0355
    1AU       S  224   1.534   9.416   5.868  0.2014 -0.2573 -0.1107
    1AU     LIG  225   1.631   8.948   5.763 -0.2760 -0.2145 -0.0410
    1AU     LIG  226   1.838   8.555   5.927 -0.0354  0.2306  0.1423
    1AU     LIG  227   1.848   8.104   6.155  0.1460 -0.0968 -0.0961
    1AU     LIG  228   1.865   7.709   6.219  0.2441 -0.2878 -0.4589
    1AU     LIG  229   2.120   7.339   6.464  0.2401 -0.1110 -0.0660
    1AU       S  230   1.344   8.848   6.186 -0.1070 -0.2296 -0.4852
    1AU     LIG  231   1.591   8.479   6.360  0.3211 -0.1598 -0.0314
    1AU     LIG  232   1.855   8.395   6.751  0.1808  0.1290  0.2058
    1AU     LIG  233   2.004   8.219   7.092  0.1177 -0.0590 -0.0385
    1AU     LIG  234   2.291   8.245   7.401 -0.2742 -0.0149  0.0254
    1AU     LIG  235   2.392   8.042   7.768 -0.3934  0.1429 -0.2923
    1AU    AUSL  236   1.343   9.477   6.357 -0.0604  0.0652  0.0379
    1AU    AUSL  237   1.489   9.887   6.515 -0.0316 -0.1182 -0.0200
    1AU     AUL  238   1.313   9.833   6.280 -0.0118  0.0289  0.1095
    1AU       S  239   1.961   9.963   6.391 -0.3679 -0.0181  0.1163
    1AU     LIG  240   2.225  10.245   6.573 -0.2710  0.1220 -0.3161
    1AU     LIG  241   2.399  10.752   6.759  0.2128 -0.1970 -0.0385
    1AU     LIG  242   2.714  10.968   6.789 -0.4262  0.1865 -0.4154
    1AU     LIG  243   2.963  11.304   6.816  0.0112  0.1167  0.0161
    1AU     LIG  244   3.382  11.337   6.691 -0.1870  0.1321  0.0877
    1AU       S  245   1.713   9.318   6.090  0.2084  0.1060  0.0404
    1AU     LIG  246   1.884   8.981   6.223  0.0331 -0.0726  0.1675
    1AU     LIG  247   2.080   8.707   6.481  0.1329 -0.2704  0.2206
    1AU     LIG  248   2.397   8.569   6.797 -0.0531  0.1803 -0.0995
    1AU     LIG  249   2.711   8.528   7.048  0.1456  0.3393  0.1206
    1AU     LIG  250   3.060   8.115   7.011 -0.2874 -0.1845  0.0329
    1AU    AUSL  251   0.888  10.099   6.888  0.0624 -0.0568  0.0902
    1AU    AUSL  252   1.060  10.155   7.114  0.0377  0.0718  0.0386
    1AU     AUL  253   0.683  10.258   6.950  0.0551 -0.0450  0.0507
    1AU       S  254   1.224  10.453   7.403  0.1888 -0.2101  0.1773
    1AU     LIG  255   0.983  10.730   7.657  0.4105  0.3540 -0.2084
    1AU     LIG  256   0.691  11.044   7.511  0.1451  0.1238  0.3939
    1AU     LIG  257   0.776  11.424   7.301  0.1367 -0.2002  0.1153
    1AU     LIG  258   0.842  11.798   7.332 -0.1595  0.0361  0.0238
    1AU     LIG  259   0.680  12.207   7.101  0.3577  0.1167 -0.0184
    1AU       S  260   0.849  10.707   7.116  0.1468  0.0107 -0.1808
    1AU     LIG  261   0.664  11.135   6.905  0.2356 -0.3013 -0.4900
    1AU     LIG  262   0.742  11.469   6.599  0.1157  0.1700  0.0986
    1AU     LIG  263   0.685  11.894   6.663 -0.1271  0.2416  0.1925
    1AU     LIG  264   0.401  12.222   6.689  0.1893  0.3640  0.3382
    1AU     LIG  265   0.379  12.605   6.762 -0.3567  0.1973 -0.3069
    1AU    AUSL  266   0.621   9.983   6.899  0.0174 -0.0492  0.0370
    1AU    AUSL  267   0.713  10.158   6.685 -0.0863  0.0177  0.0228
    1AU     AUL  268   0.550  10.014   6.988 -0.0104  0.0569  0.0096
    1AU       S  269  -0.026  10.151   6.914  0.3053  0.3129 -0.2324
    1AU     LIG  270   0.073  10.519   7.062 -0.1250 -0.1744  0.0142
    1AU     LIG  271   0.274  10.792   7.193 -0.1948  0.3591  0.3312
    1AU     LIG  272   0.298  11.238   7.178  0.1247  0.1304  0.2175
    1AU     LIG  273   0.110  11.496   7.323 -0.1991 -0.4266  0.3897
    1AU     LIG  274  -0.096  11.899   7.275 -0.1129  0.1127 -0.1926
    1AU       S  275   0.479  10.662   6.703  0.3579 -0.2014 -0.0718
    1AU     LIG  276   0.133  10.937   6.636  0.1780 -0.3483  0.1155
    1AU     LIG  277  -0.211  11.032   6.795 -0.0176 -0.0098 -0.2485
    1AU     LIG  278  -0.368  11.440   6.817 -0.0787  0.1508  0.1826
    1AU     LIG  279  -0.126  11.806   6.627  0.2648  0.2364  0.0626
    1AU     LIG  280   0.215  11.869   6.406  0.2845 -0.2108  0.0676
    1AU    AUSL  281   0.786  10.090   7.165  0.0265  0.0565  0.0529
    1AU    AUSL  282   0.442   9.773   7.082 -0.0554 -0.0268 -0.0006
    1AU     AUL  283   0.470  10.192   7.189 -0.0229 -0.0929 -0.0945
    1AU       S  284   0.077   9.790   7.400 -0.1757  0.0730  0.0901
    1AU     LIG  285  -0.294  10.022   7.304 -0.1175  0.0806 -0.0759
    1AU     LIG  286  -0.581  10.219   7.133 -0.1895 -0.2274  0.0597
    1AU     LIG  287  -0.792  10.405   6.695  0.0326 -0.0581 -0.0439
    1AU     LIG  288  -1.126  10.438   6.607  0.0424  0.1677 -0.0499
    1AU     LIG  289  -1.510  10.733   6.619  0.4175 -0.2093 -0.6973
    1AU       S  290   0.839  10.240   7.621  0.0323  0.1328 -0.0295
    1AU     LIG  291   0.973  10.314   8.014 -0.1817 -0.0052  0.0381
    1AU     LIG  292   1.342  10.287   8.134  0.0622  0.0327 -0.1166
    1AU     LIG  293   1.699  10.567   8.109 -0.0019 -0.1095  0.3975
    1AU     LIG  294   2.156  10.529   8.191  0.5359 -0.0416 -0.0703
    1AU     LIG  295   2.404  10.567   8.541 -0.7123  0.0779 -0.1730
    1AU    AUSL  296   1.004   9.293   6.588  0.0355 -0.0179 -0.0183
    1AU    AUSL  297   1.253   9.426   6.622 -0.0688 -0.0815 -0.1034
    1AU     AUL  298   1.391   9.371   6.631 -0.0209  0.1124  0.0640
    1AU       S  299   1.104   8.747   6.346  0.1516 -0.0415  0.1923
    1AU     LIG  300   0.951   8.281   6.324  0.2801  0.3731 -0.0321
    1AU     LIG  301   0.771   7.798   6.281 -0.3285 -0.0740  0.1440
    1AU     LIG  302   0.579   7.454   6.513 -0.3847  0.0546 -0.0305
    1AU     LIG  303   0.519   6.987   6.667  0.0722 -0.2161  0.1659
    1AU     LIG  304   0.104   6.792   6.757 -0.0005  0.0924 -0.2479
    1AU       S  305   1.705   8.988   6.649  0.1444  0.3000 -0.0788
    1AU     LIG  306   2.055   8.941   6.877  0.0450  0.1317  0.1195
    1AU     LIG  307   2.514   9.067   6.799 -0.4915  0.1117 -0.2080
    1AU     LIG  308   2.883   8.910   6.714  0.3649 -0.0722 -0.1214
    1AU     LIG  309   3.283   9.031   6.699  0.1689  0.2498  0.2344
    1AU     LIG  310   3.643   9.242   6.561 -0.1299 -0.0073 -0.2405
    1AU    AUSL  311   1.071   9.466   6.383 -0.0194  0.0014  0.0212
    1AU    AUSL  312   0.777   9.118   6.521  0.0375 -0.0360 -0.0088
    1AU     AUL  313   1.047   9.373   6.211 -0.0061 -0.0686 -0.0429
    1AU       S  314   1.146   8.903   6.027  0.1718  0.0960 -0.5176
    1AU     LIG  315   1.169   9.026   5.695 -0.1687 -0.1390  0.0464
    1AU     LIG  316   1.400   9.329   5.387 -0.3191  0.0843  0.2319
    1AU     LIG  317   1.678   9.611   5.188 -0.0290  0.0512  0.2667
    1AU     LIG  318   1.934   9.931   5.061 -0.3211  0.3679  0.0864
    1AU     LIG  319   1.758  10.269   4.812 -0.2026 -0.1370 -0.2578
    1AU       S  320   0.616   8.754   6.312 -0.1415 -0.0989 -0.0082
    1AU     LIG  321   0.309   8.533   6.433 -0.1698  0.0230  0.1454
    1AU     LIG  322   0.330   8.103   6.398 -0.0271  0.1053  0.2022
    1AU     LIG  323   0.138   7.741   6.434  0.2206  0.2760 -0.0050
    1AU     LIG  324  -0.140   7.404   6.314 -0.0209 -0.0362 -0.0457
    1AU     LIG  325  -0.441   7.214   6.651  0.0722  0.0010 -0.0294
    1AU    AUSL  326   0.631   9.595   6.992 -0.0397  0.0303 -0.0195
    1AU    AUSL  327   0.500   9.760   6.784  0.1318 -0.0610 -0.0796
    1AU     AUL  328   0.354   9.854   6.875 -0.1172 -0.0213  0.0465
    1AU       S  329  -0.105   9.666   6.811  0.1952  0.2639  0.0989
    1AU     LIG  330  -0.453   9.890   6.755 -0.0049 -0.0305 -0.0372
    1AU     LIG  331  -0.782   9.885   6.834  0.2155  0.0700 -0.1171
    1AU     LIG  332  -1.104  10.137   7.065 -0.2053 -0.1117  0.1675
    1AU     LIG  333  -1.435  10.435   7.058  0.0105  0.1172 -0.0542
    1AU     LIG  334  -1.891  10.414   7.111  0.3219  0.1153 -0.0861
    1AU       S  335   0.148   9.614   7.463 -0.0970  0.2024 -0.0124
    1AU     LIG  336  -0.094   9.284   7.512 -0.0626 -0.1453 -0.2284
    1AU     LIG  337  -0.502   9.093   7.537 -0.2017 -0.0009  0.5213
    1AU     LIG  338  -0.950   9.277   7.698 -0.1062  0.1348 -0.0355
    1AU     LIG  339  -1.136   9.293   8.112  0.3416  0.2501  0.2347
    1AU     LIG  340  -1.339   9.103   8.410 -0.3167  0.1417  0.0727
    1AU    AUSL  341   0.742   9.814   7.110 -0.0704  0.0196  0.0079
    1AU    AUSL  342   0.726   9.574   7.248 -0.0167 -0.0488  0.0751
    1AU     AUL  343   0.584   9.929   7.257  0.0721  0.0150  0.0329
    1AU       S  344   0.678   9.486   7.706  0.2512  0.1058 -0.1149
    1AU     LIG  345   0.522   9.783   7.988  0.1991  0.0031 -0.0197
    1AU     LIG  346   0.365  10.260   7.975 -0.1266  0.1103 -0.0376
    1AU     LIG  347   0.079  10.569   8.063  0.2184 -0.1164  0.0587
    1AU     LIG  348  -0.327  10.844   7.803  0.0168 -0.1223  0.3434
    1AU     LIG  349  -0.716  10.835   7.599 -0.3697  0.0983  0.0085
    1AU       S  350   0.222   9.816   7.568  0.0355  0.3121 -0.0429
    1AU     LIG  351   0.097  10.322   7.533 -0.1966 -0.2505 -0.0204
    1AU     LIG  352  -0.245  10.579   7.397  0.1498  0.4898  0.0022
    1AU     LIG  353  -0.464  10.743   7.079 -0.0436 -0.0568 -0.1214
    1AU     LIG  354  -0.939  10.681   7.121 -0.0300 -0.0214 -0.0837
    1AU     LIG  355  -1.219  10.677   7.509 -0.5337  0.0637  0.2733
    1AU    AUSL  356   1.385  10.112   6.758 -0.1303  0.0139  0.0455
    1AU    AUSL  357   1.139  10.259   6.849 -0.0500 -0.0171 -0.0402
    1AU     AUL  358   1.284   9.974   7.150 -0.0382 -0.0836  0.0423
    1AU       S  359   1.309  10.696   6.968  0.2398  0.1760 -0.1259
    1AU     LIG  360   1.164  11.071   7.134 -0.0409 -0.0058 -0.2858
    1AU     LIG  361   1.175  11.251   7.536  0.1497 -0.3455  0.0151
    1AU     LIG  362   1.003  11.491   7.695 -0.4348 -0.0088 -0.6119
    1AU     LIG  363   0.991  11.611   7.999  0.0649 -0.0553 -0.1344
    1AU     LIG  364   0.798  11.936   8.262 -0.6079  0.3335  0.5800
    1AU       S  365   1.692  10.427   6.761  0.2509  0.0888 -0.0855
    1AU     LIG  366   1.961  10.533   6.954 -0.0230  0.3000 -0.1154
    1AU     LIG  367   2.386  10.365   7.021  0.5278  0.0826 -0.0671
    1AU     LIG  368   2.822  10.522   6.911  0.0123  0.0367 -0.3990
    1AU     LIG  369   3.157  10.801   6.804 -0.1798 -0.1644  0.0282
    1AU     LIG  370   3.589  10.791   6.617 -0.1101  0.1140  0.0178
    1AU    AUSL  371   1.224  10.274   6.594 -0.0390 -0.0563 -0.0169
    1AU    AUSL  372   1.037  10.214   6.372  0.0035 -0.0758 -0.0787
    1AU     AUL  373   0.899  10.359   6.749  0.0241 -0.0416 -0.0332
    1AU       S  374   1.460  10.550   6.489  0.3304  0.0037  0.4837
    1AU     LIG  375   1.652  10.962   6.755  0.2412  0.0047  0.2532
    1AU     LIG  376   1.644  11.331   6.910  0.0133 -0.0705  0.0293
    1AU     LIG  377   1.933  11.585   7.116  0.1402  0.1106 -0.2017
    1AU     LIG  378   2.282  11.777   6.834 -0.1049 -0.0973 -0.0611
    1AU     LIG  379   2.534  12.112   7.013 -0.2261  0.1607 -0.0166
    1AU       S  380   1.074  10.674   6.219  0.1000 -0.2599  0.3286
    1AU     LIG  381   1.502  10.949   6.153 -0.0446 -0.1677 -0.5010
    1AU     LIG  382   1.862  11.074   6.116  0.0091 -0.3843 -0.1884
    1AU     LIG  383   2.186  11.070   5.892 -0.1921  0.0715 -0.1514
    1AU     LIG  384   2.538  11.135   5.653 -0.0460 -0.0501 -0.4968
    1AU     LIG  385   2.939  10.998   5.693  0.0077 -0.2871 -0.0027
    1AU    AUSL  386   1.236   9.996   6.553 -0.0990 -0.0768  0.0290
    1AU    AUSL  387   1.338   9.819   6.725  0.1358  0.0252 -0.1307
    1AU     AUL  388   1.289  10.083   6.393 -0.0060  0.0325 -0.0392
    1AU       S  389   1.961   9.562   6.587 -0.2236  0.5366 -0.6092
    1AU     LIG  390   2.255   9.824   6.821 -0.0456 -0.2199 -0.2437
    1AU     LIG  391   2.748   9.884   6.737  0.2334 -0.2503  0.0442
    1AU     LIG  392   3.030  10.029   6.974 -0.3266 -0.1192  0.1391
    1AU     LIG  393   2.904  10.281   7.371  0.0517 -0.2084  0.5694
    1AU     LIG  394   2.769  10.074   7.755  0.0499 -0.1147  0.1025
    1AU       S  395   1.736  10.363   6.477 -0.0148 -0.1503  0.1758
    1AU     LIG  396   1.985  10.762   6.435  0.2386  0.1729  0.0797
    1AU     LIG  397   2.354  11.069   6.391 -0.2554 -0.0838  0.1846
    1AU     LIG  398   2.611  11.430   6.538 -0.4433 -0.3006 -0.0713
    1AU     LIG  399   2.598  11.849   6.475  0.1225 -0.0477 -0.5238
    1AU     LIG  400   2.775  12.323   6.593 -0.1719  0.2698  0.0288
    1AU    AUSL  401   1.054   9.285   6.894 -0.0468 -0.0697 -0.0275
    1AU    AUSL  402   1.208   9.156   6.702 -0.0246  0.0403 -0.0126
    1AU     AUL  403   1.051   9.259   7.063 -0.0578  0.0045  0.0372
    1AU       S  404   1.081   8.808   7.235 -0.1888  0.2537 -0.1594
    1AU     LIG  405   1.402   8.853   7.531  0.0123 -0.0067 -0.0722
    1AU     LIG  406   1.507   9.140   7.874 -0.2296  0.0269  0.0247
    1AU     LIG  407   1.750   9.517   7.917 -0.1739  0.0379  0.3266
    1AU     LIG  408   2.129   9.717   8.212  0.0514  0.6181 -0.3763
    1AU     LIG  409   2.486  10.074   8.283  0.0008 -0.1219 -0.0171
    1AU       S  410   1.441   8.823   6.724 -0.0674 -0.0113  0.1085
    1AU     LIG  411   1.147   8.464   6.774  0.0565 -0.0283  0.2444
    1AU     LIG  412   1.267   8.106   6.693  0.0034 -0.3594  0.1905
    1AU     LIG  413   1.662   7.945   6.594  0.4934  0.2511  0.1710
    1AU     LIG  414   1.688   7.494   6.655  0.1000 -0.1972  0.3565
    1AU     LIG  415   1.711   7.179   7.017  0.2768 -0.1204 -0.1116
    1AU    AUSL  416   0.821   9.404   7.001  0.0227  0.0314  0.0252
    1AU    AUSL  417   0.953   9.611   7.120 -0.0188 -0.0172 -0.0566
    1AU     AUL  418   0.754   9.344   7.135 -0.0262  0.0433 -0.0095
    1AU       S  419   0.805   8.970   7.423  0.6264 -0.0049 -0.1773
    1AU     LIG  420   0.304   8.897   7.551 -0.1043 -0.2388 -0.2344
    1AU     LIG  421  -0.051   8.798   7.426 -0.2404 -0.0789  0.4020
    1AU     LIG  422  -0.308   8.935   7.034 -0.2027 -0.3189  0.2060
    1AU     LIG  423  -0.565   8.575   6.816  0.1003 -0.0673 -0.2082
    1AU     LIG  424  -0.643   8.161   6.901 -0.0710 -0.1909  0.2031
    1AU       S  425   1.048   9.457   7.782  0.1004 -0.0946  0.3109
    1AU     LIG  426   1.011   9.398   8.195  0.2088 -0.0085 -0.1015
    1AU     LIG  427   1.381   9.312   8.428  0.1581 -0.1458  0.1816
    1AU     LIG  428   1.825   9.238   8.416  0.2741  0.0166  0.0874
    1AU     LIG  429   2.155   9.209   8.636 -0.2468  0.1458 -0.2594
    1AU     LIG  430   2.328   9.127   9.114 -0.1626  0.3086 -0.0652
    1AU    AUSL  431   0.817   9.135   6.961 -0.0558 -0.0256 -0.0030
    1AU    AUSL  432   0.552   9.321   6.912 -0.0311  0.0516  0.0206
    1AU     AUL  433   0.502   9.435   7.171  0.0140  0.0688 -0.0043
    1AU       S  434   0.249   8.978   7.011 -0.1846  0.1358  0.6578
    1AU     LIG  435   0.050   8.603   6.974  0.0045  0.3280 -0.3577
    1AU     LIG  436  -0.115   8.337   6.543  0.0300  0.0312 -0.0334
    1AU     LIG  437  -0.397   7.829   6.522  0.0019 -0.2114 -0.1362
    1AU     LIG  438  -0.692   7.658   6.696 -0.2022 -0.1396 -0.2590
    1AU     LIG  439  -1.107   7.801   6.693 -0.1029 -0.0392 -0.0995
    1AU       S  440   0.819   8.780   7.209  0.3513 -0.0011 -0.5894
    1AU     LIG  441   0.508   8.503   7.274  0.0324 -0.4717  0.2909
    1AU     LIG  442   0.377   8.160   7.095  0.1385  0.3300 -0.0413
    1AU     LIG  443   0.061   8.040   6.907 -0.2931 -0.0137  0.1728
    1AU     LIG  444  -0.267   7.891   7.138  0.0492 -0.0053 -0.1538
    1AU     LIG  445  -0.652   7.776   7.203  0.4301  0.0049  0.0664
    1AU    AUSL  446   0.812  10.066   6.431  0.0499 -0.0437 -0.0025
    1AU    AUSL  447   1.043   9.946   6.361  0.0009 -0.0071 -0.0330
    1AU     AUL  448   1.097   9.971   6.205 -0.0013  0.0300 -0.0636
    1AU       S  449   0.791  10.613   6.247  0.2782  0.3380  0.1633
    1AU     LIG  450   0.595  11.070   6.342  0.1345  0.2110  0.0389
    1AU     LIG  451   0.260  11.384   6.609  0.0736 -0.0015 -0.1132
    1AU     LIG  452   0.311  11.752   6.940  0.0865 -0.3000  0.0576
    1AU     LIG  453   0.403  11.924   7.381  0.3063  0.1758 -0.1017
    1AU     LIG  454   0.483  11.943   7.795 -0.2339 -0.1788 -0.1942
    1AU       S  455   0.870  10.290   5.829 -0.1305  0.1955 -0.0884
    1AU     LIG  456   1.299  10.417   5.646  0.0665 -0.2341  0.1570
    1AU     LIG  457   1.636  10.460   5.789  0.2346  0.4811 -0.1508
    1AU     LIG  458   2.032  10.499   6.006 -0.1308 -0.0193 -0.3141
    1AU     LIG  459   2.469  10.591   6.232  0.2959 -0.2616  0.0699
    1AU     LIG  460   2.708  10.305   6.463 -0.2019 -0.2534  0.1170
    1AU    AUSL  461   0.991  10.133   6.624  0.0483  0.0840 -0.0990
    1AU    AUSL  462   0.559  10.183   6.464  0.0297  0.0137 -0.0626
    1AU     AUL  463   0.808  10.079   6.255  0.0143 -0.0212 -0.1324
    1AU       S  464   0.951  10.741   6.438  0.2532  0.2493  0.1410
    1AU     LIG  465   1.111  11.074   6.671  0.0674  0.2800 -0.0841
    1AU     LIG  466   1.206  11.442   6.789 -0.2855 -0.2293 -0.4930
    1AU     LIG  467   1.133  11.857   6.874  0.1327  0.2588  0.0977
    1AU     LIG  468   1.337  12.243   6.611 -0.5086  0.1335 -0.2313
    1AU     LIG  469   1.340  12.664   6.283  0.4576 -0.1648 -0.5435
    1AU       S  470   0.354  10.496   6.427 -0.4388  0.3557  0.2649
    1AU     LIG  471   0.267  10.787   6.060  0.3183  0.1875  0.1891
    1AU     LIG  472   0.589  10.716   5.759  0.0742  0.2091 -0.1170
    1AU     LIG  473   0.722  10.495   5.414 -0.3769 -0.1001 -0.0293
    1AU     LIG  474   1.034  10.231   5.248  0.3422 -0.2243  0.0899
    1AU     LIG  475   1.507  10.049   5.327  0.1776 -0.1215 -0.3317
    1AU    AUSL  476   0.535   9.231   6.615 -0.0358 -0.0373  0.0235
    1AU    AUSL  477   0.370   9.545   6.926  0.0544  0.0030 -0.1045
    1AU     AUL  478   0.363   9.581   6.625 -0.0018  0.0820  0.0780
    1AU       S  479  -0.049   9.446   7.019  0.1679 -0.4533 -0.0487
    1AU     LIG  480  -0.441   9.559   7.239 -0.1568  0.3564  0.0638
    1AU     LIG  481  -0.863   9.371   7.201 -0.4784  0.0829 -0.3501
    1AU     LIG  482  -1.204   9.248   7.172 -0.3725 -0.3030  0.0464
    1AU     LIG  483  -1.466   8.979   6.885  0.1095  0.0476  0.0040
    1AU     LIG  484  -1.838   8.743   7.083 -0.3796 -0.2010  0.5366
    1AU       S  485   0.248   8.969   6.679  0.0648 -0.1922  0.0767
    1AU     LIG  486  -0.231   8.788   6.539  0.1533 -0.2031  0.3140
    1AU     LIG  487  -0.475   8.600   6.293  0.1041  0.0408  0.3696
    1AU     LIG  488  -0.502   8.411   5.863 -0.1399 -0.0172  0.6022
    1AU     LIG  489  -0.534   8.000   5.728 -0.1575 -0.1560  0.0317
    1AU     LIG  490  -0.566   7.637   5.587 -0.1062  0.3331 -0.1994
    1AU    AUSL  491   0.776   9.299   6.745 -0.0082  0.0465  0.0735
    1AU    AUSL  492   0.704   9.391   6.486 -0.0240 -0.0754 -0.0431
    1AU     AUL  493   0.939   9.077   6.726 -0.0366 -0.0380 -0.0555
    1AU       S  494   0.419   8.803   6.825  0.0275  0.1217 -0.2959
    1AU     LIG  495   0.672   8.459   6.748  0.5041  0.1409 -0.0734
    1AU     LIG  496   0.674   7.985   6.750 -0.4313  0.0908  0.0430
    1AU     LIG  497   0.380   7.669   6.942  0.0003 -0.3698 -0.5226
    1AU     LIG  498   0.293   7.209   7.122  0.4133  0.0279 -0.4217
    1AU     LIG  499   0.037   6.986   7.187 -0.0134  0.0180 -0.2463
    1AU       S  500   0.410   8.919   6.192 -0.0099  0.5528 -0.3779
    1AU     LIG  501   0.016   8.512   6.055  0.1094 -0.5327 -0.1643
    1AU     LIG  502  -0.106   8.066   6.014 -0.3751  0.1513  0.3468
    1AU     LIG  503  -0.134   7.659   5.852 -0.0569  0.0791 -0.0200
    1AU     LIG  504   0.023   7.335   5.729  0.5789  0.2676  0.2175
    1AU     LIG  505   0.214   7.011   5.433  0.1582  0.0164  0.0082
    2POPC   NC3  506   0.686   5.275   8.945  0.1138 -0.0397  0.0664
    2POPC   PO4  507   0.854   4.911   8.595 -0.1668 -0.0618 -0.0726
    2POPC   GL1  508   1.121   5.150   8.195 -0.0058 -0.1639  0.1541
    2POPC   GL2  509   0.908   5.433   7.972  0.1171 -0.0083  0.4237
    2POPC   C1A  510   1.131   4.977   7.777  0.0717  0.0575 -0.0474
    2POPC   D2A  511   1.382   4.756   7.594  0.2588  0.2061  0.0218
    2POPC   C3A  512   1.431   4.891   7.273  0.1139 -0.0118 -0.0609
    2POPC   C4A  513   1.617   4.853   6.932 -0.1616 -0.0714  0.4319
    2POPC   C1B  514   0.753   5.224   7.604  0.3437  0.0885 -0.0236
    2POPC   C2B  515   0.518   4.963   7.300  0.0575 -0.2279  0.2380
    2POPC   C3B  516   0.589   4.662   6.903  0.0025 -0.1731  0.0550
    2POPC   C4B  517   0.324   4.477   6.573 -0.1050 -0.0235 -0.4851
    3POPC   NC3  518   1.625   4.845   8.055  0.0505 -0.5133  0.1988
    3POPC   PO4  519   1.547   4.414   8.262 -0.1063  0.2071 -0.5754
    3POPC   GL1  520   1.406   4.299   7.818 -0.1115  0.2298  0.0269
    3POPC   GL2  521   1.677   4.234   7.625  0.3736  0.1266  0.1423
    3POPC   C1A  522   1.162   4.309   7.498 -0.0401  0.1628  0.0592
    3POPC   D2A  523   0.844   4.237   7.267 -0.1408 -0.3005  0.0156
    3POPC   C3A  524   0.807   4.235   6.785 -0.2078 -0.0220  0.0591
    3POPC   C4A  525   1.160   4.197   6.551 -0.0510  0.1852 -0.1512
    3POPC   C1B  526   1.505   4.349   7.192  0.2036  0.3123 -0.1850
    3POPC   C2B  527   1.159   4.566   7.023 -0.2055 -0.0832 -0.0449
    3POPC   C3B  528   1.029   4.717   6.622  0.0173  0.1811  0.3003
    3POPC   C4B  529   0.678   4.887   6.449 -0.3022 -0.5007 -0.0949
    4POPC   NC3  530   2.535   9.548   9.901 -0.0001 -0.0461  0.3268
    4POPC   PO4  531   3.034   9.635   9.716  0.1637 -0.0480  0.2284
    4POPC   GL1  532   2.722   9.849   9.429 -0.0168  0.0066 -0.2424
    4POPC   GL2  533   2.452  10.093   9.495 -0.3092 -0.2450  0.0862
    4POPC   C1A  534   2.504   9.757   9.065 -0.1308  0.3225 -0.3716
    4POPC   D2A  535   2.501   9.733   8.650  0.1320 -0.0982 -0.3380
    4POPC   C3A  536   2.615   9.362   8.454  0.0370  0.2589  0.1843
    4POPC   C4A  537   2.991   9.136   8.522 -0.1053 -0.2140  0.0872
    4POPC   C1B  538   2.123  10.067   9.193  0.0353 -0.0497  0.0047
    4POPC   C2B  539   1.778  10.182   8.855 -0.0540  0.2325  0.1669
    4POPC   C3B  540   1.755  10.092   8.406  0.2465  0.2398  0.3005
    4POPC   C4B  541   1.488   9.754   8.202  0.0218 -0.1947 -0.1534
    5POPC   NC3  542   7.991   8.880   8.797  0.0985 -0.2323 -0.1059
    5POPC   PO4  543   7.955   9.411   8.877 -0.1255 -0.1210 -0.0942
    5POPC   GL1  544   8.163   9.441   8.549  0.0102 -0.3179 -0.1466
    5POPC   GL2  545   8.250   9.179   8.505 -0.1545 -0.1725  0.0019
    5POPC   C1A  546   8.295   9.515   8.111 -0.0128  0.0764 -0.1846
    5POPC   D2A  547   8.331   9.746   7.736  0.0998 -0.0155  0.1520
    5POPC   C3A  548   8.631   9.676   7.377 -0.0366  0.2554 -0.2366
    5POPC   C4A  549   9.069   9.690   7.083 -0.0036  0.1024 -0.0621
    5POPC   C1B  550   8.064   8.929   8.141  0.0835 -0.0154  0.2508
    5POPC   C2B  551   8.265   8.843   7.743  0.0256  0.0360 -0.2296
    5POPC   C3B  552   8.147   8.875   7.248 -0.0837 -0.1359 -0.3083
    5POPC   C4B  553   8.288   8.889   6.827  0.2722 -0.1001  0.1125
    6POPC   NC3  554   9.154  10.499   9.913  0.0389 -0.0330 -0.0148
    6POPC   PO4  555   9.144  10.146   9.661 -0.1484 -0.2086 -0.1905
    6POPC   GL1  556   9.026  10.102   9.221 -0.1557 -0.2256 -0.1855
    6POPC   GL2  557   8.941  10.394   9.092 -0.0716 -0.0259  0.3113
    6POPC   C1A  558   9.334  10.057   8.874  0.1073  0.1705 -0.2481
    6POPC   D2A  559   9.436  10.086   8.471 -0.3402  0.2946  0.1655
    6POPC   C3A  560   9.466  10.431   8.319 -0.0237  0.0352  0.0379
    6POPC   C4A  561   9.607  10.574   7.992 -0.1365  0.1660 -0.0115
    6POPC   C1B  562   8.655  10.295   8.854  0.3425 -0.0618 -0.0870
    6POPC   C2B  563   8.567  10.362   8.508  0.3356  0.0675  0.0425
    6POPC   C3B  564   8.604  10.456   8.047  0.0550 -0.2490  0.1921
    6POPC   C4B  565   8.708  10.420   7.620 -0.0278  0.3489  0.3736
    7POPC   NC3  566   1.432   4.922   8.602  0.3014 -0.4331  0.0685
    7POPC   PO4  567   1.562   5.334   8.321  0.0109  0.2033  0.1110
    7POPC   GL1  568   1.516   5.409   7.891  0.1170  0.2319  0.0609
    7POPC   GL2  569   1.731   5.144   7.657 -0.1052  0.0851  0.2925
    7POPC   C1A  570   1.243   5.356   7.442  0.0196 -0.1377 -0.1542
    7POPC   D2A  571   1.340   5.529   7.095 -0.1261 -0.3039  0.3389
    7POPC   C3A  572   1.452   5.276   6.788 -0.1828  0.1238 -0.0693
    7POPC   C4A  573   1.632   5.436   6.379  0.0016 -0.1033 -0.0266
    7POPC   C1B  574   1.803   5.191   7.202 -0.2118 -0.2905  0.0749
    7POPC   C2B  575   2.051   5.256   6.796 -0.0594 -0.1143  0.2912
    7POPC   C3B  576   2.235   5.480   6.554  0.0925 -0.5597 -0.2122
    7POPC   C4B  577   2.562   5.614   6.402 -0.0473 -0.2044 -0.0003
    8POPC   NC3  578   3.499   3.300   8.542 -0.1356  0.0675  0.2521
    8POPC   PO4  579   3.191   2.987   8.486 -0.1813 -0.1693 -0.0133
    8POPC   GL1  580   3.092   3.118   8.027  0.0341  0.0061 -0.1658
    8POPC   GL2  581   2.717   3.298   7.934 -0.2878 -0.1736  0.0772
    8POPC   C1A  582   3.312   3.060   7.546 -0.3808  0.2327 -0.1316
    8POPC   D2A  583   3.507   2.969   7.001  0.0419 -0.3495  0.3150
    8POPC   C3A  584   3.642   3.319   6.681 -0.3058  0.2119 -0.1710
    8POPC   C4A  585   3.752   3.786   6.646 -0.2247  0.0983 -0.2159
    8POPC   C1B  586   2.545   2.918   7.933 -0.0758  0.1056 -0.1845
    8POPC   C2B  587   2.300   2.539   7.740 -0.1453 -0.2151 -0.1456
    8POPC   C3B  588   2.120   2.464   7.397 -0.0361  0.2235 -0.0360
    8POPC   C4B  589   2.152   2.109   7.057 -0.1126  0.0408 -0.0209
    9POPC   NC3  590   2.370   7.538   8.831  0.0095  0.1823  0.0989
    9POPC   PO4  591   2.758   7.800   8.805 -0.2110  0.2547 -0.0358
    9POPC   GL1  592   2.813   8.122   8.781  0.2574 -0.1878  0.1239
    9POPC   GL2  593   3.113   8.109   8.591  0.1095  0.0887 -0.0199
    9POPC   C1A  594   2.562   8.495   8.808 -0.0534 -0.2542  0.2024
    9POPC   D2A  595   2.520   8.843   8.746  0.2382 -0.2640  0.3526
    9POPC   C3A  596   2.435   8.904   8.273  0.0883 -0.3378  0.0274
    9POPC   C4A  597   2.326   9.225   7.965 -0.0223 -0.0361 -0.0988
    9POPC   C1B  598   3.191   7.971   8.189  0.1668 -0.4758  0.0508
    9POPC   C2B  599   3.492   8.012   7.851  0.0758 -0.3242 -0.0943
    9POPC   C3B  600   3.294   7.949   7.449 -0.1714 -0.0369 -0.0508
    9POPC   C4B  601   2.774   7.854   7.308 -0.0403  0.0675 -0.1859
   10POPC   NC3  602   5.886   4.167   8.825  0.0601 -0.2320  0.2536
   10POPC   PO4  603   6.370   4.080   8.892  0.2270 -0.1163 -0.2067
   10POPC   GL1  604   6.128   3.726   8.647  0.0241  0.1887  0.2925
   10POPC   GL2  605   5.935   3.487   8.597  0.3290 -0.2780  0.3425
   10POPC   C1A  606   6.162   3.508   8.126 -0.1881  0.1353  0.3364
   10POPC   D2A  607   6.523   3.210   7.878 -0.0709 -0.2219  0.2111
   10POPC   C3A  608   6.862   3.322   7.646  0.1926  0.3497 -0.3882
   10POPC   C4A  609   6.870   3.512   7.356  0.1919  0.0405 -0.1169
   10POPC   C1B  610   5.697   3.570   8.119  0.2483 -0.1741  0.0329
   10POPC   C2B  611   5.769   3.484   7.797  0.2631 -0.1162 -0.2491
   10POPC   C3B  612   6.127   3.414   7.445  0.3132 -0.2666  0.0182
   10POPC   C4B  613   6.413   3.350   7.273  0.1861 -0.0586 -0.0674
   11POPC   NC3  614   6.415   2.435   8.992 -0.0058  0.1888  0.0348
   11POPC   PO4  615   6.646   2.198   8.796  0.2712 -0.2747 -0.1942
   11POPC   GL1  616   6.634   2.172   8.397  0.1207  0.1380  0.2460
   11POPC   GL2  617   6.927   2.425   8.236  0.2919  0.0324 -0.0773
   11POPC   C1A  618   6.557   2.222   7.992 -0.0007 -0.1455  0.0887
   11POPC   D2A  619   6.326   2.283   7.681 -0.2090 -0.0609  0.1803
   11POPC   C3A  620   6.618   2.347   7.379 -0.3039 -0.3806  0.0530
   11POPC   C4A  621   6.897   2.530   7.047 -0.1036  0.1667 -0.1467
   11POPC   C1B  622   7.028   2.391   7.782  0.3796  0.3399 -0.0929
   11POPC   C2B  623   7.274   2.574   7.428 -0.1222  0.1643  0.2462
   11POPC   C3B  624   7.422   2.468   7.085 -0.2401  0.1442 -0.2023
   11POPC   C4B  625   7.513   2.124   6.987  0.1805 -0.0348  0.2435
   12POPC   NC3  626   3.993   6.254   9.100 -0.0303  0.2268 -0.1667
   12POPC   PO4  627   4.131   6.712   9.087  0.1834  0.2186  0.0292
   12POPC   GL1  628   3.992   6.584   8.708  0.0143 -0.0050  0.0281
   12POPC   GL2  629   3.597   6.734   8.687 -0.0443  0.0420 -0.1895
   12POPC   C1A  630   4.125   6.638   8.283  0.2481 -0.2111  0.1793
   12POPC   D2A  631   4.393   6.522   7.849 -0.0151 -0.1607 -0.4493
   12POPC   C3A  632   4.283   6.821   7.641 -0.2386 -0.1889  0.0555
   12POPC   C4A  633   4.196   7.301   7.460  0.2086 -0.3182  0.0956
   12POPC   C1B  634   3.618   6.683   8.236  0.3005 -0.0084  0.2872
   12POPC   C2B  635   3.441   6.538   7.967 -0.1099  0.3624 -0.1473
   12POPC   C3B  636   3.484   6.759   7.593  0.0463 -0.0960 -0.0644
   12POPC   C4B  637   3.789   6.924   7.219  0.1887 -0.1794  0.0016
   13POPC   NC3  638  10.090   6.994   8.708 -0.2068  0.1819  0.4256
   13POPC   PO4  639  10.209   6.516   8.575 -0.3304 -0.0644  0.0729
   13POPC   GL1  640  10.261   6.725   8.116  0.1854 -0.3105 -0.0329
   13POPC   GL2  641  10.182   7.041   8.137 -0.2612  0.2156  0.3861
   13POPC   C1A  642  10.313   6.544   7.656 -0.1985 -0.0042 -0.2068
   13POPC   D2A  643  10.213   6.312   7.291  0.1431 -0.2501  0.2041
   13POPC   C3A  644  10.061   5.935   7.225 -0.1546  0.1259  0.0246
   13POPC   C4A  645   9.907   5.703   6.808  0.1704  0.2103  0.1456
   13POPC   C1B  646  10.270   7.036   7.712  0.1032 -0.3260  0.1040
   13POPC   C2B  647  10.046   6.896   7.378 -0.1474 -0.0450 -0.0437
   13POPC   C3B  648   9.987   6.745   6.959 -0.2778 -0.1470 -0.1616
   13POPC   C4B  649   9.815   6.761   6.591  0.1340  0.0884 -0.0203
   14POPC   NC3  650   0.668   0.032  10.096 -0.3117 -0.0383 -0.3081
   14POPC   PO4  651   0.470   0.053   9.735  0.3121 -0.2105 -0.1263
   14POPC   GL1  652   0.228  -0.150   9.415 -0.2969 -0.0587  0.1565
   14POPC   GL2  653   0.444  -0.395   9.292 -0.2237 -0.3352  0.2291
   14POPC   C1A  654   0.266  -0.090   8.890  0.1235 -0.0448  0.0241
   14POPC   D2A  655   0.228  -0.163   8.487  0.1006  0.0619 -0.1558
   14POPC   C3A  656  -0.098  -0.410   8.184 -0.1624 -0.0311 -0.0308
   14POPC   C4A  657  -0.243  -0.341   7.876 -0.2058 -0.0494  0.1539
   14POPC   C1B  658   0.732  -0.314   8.882 -0.2171  0.0954  0.2081
   14POPC   C2B  659   0.880  -0.142   8.538  0.2613 -0.1473  0.0843
   14POPC   C3B  660   0.586   0.145   8.198 -0.1756 -0.3100  0.1461
   14POPC   C4B  661   0.499   0.126   7.735  0.0873  0.1517  0.2379
   15POPC   NC3  662   7.317   5.654   8.429  0.2542  0.5145  0.0370
   15POPC   PO4  663   6.918   5.573   8.610 -0.0561  0.1205  0.1036
   15POPC   GL1  664   6.928   5.336   8.272  0.0408 -0.2070  0.0672
   15POPC   GL2  665   7.158   5.338   7.998 -0.2972 -0.1120 -0.0042
   15POPC   C1A  666   6.642   5.208   7.969  0.1743  0.0530  0.2320
   15POPC   D2A  667   6.297   5.256   7.571 -0.0077 -0.0207 -0.1400
   15POPC   C3A  668   6.339   4.873   7.293  0.1520 -0.2875 -0.2779
   15POPC   C4A  669   6.762   4.728   7.054  0.0991  0.2422 -0.3485
   15POPC   C1B  670   7.141   5.682   7.829 -0.1260 -0.1683  0.0040
   15POPC   C2B  671   7.347   6.072   7.739 -0.5611  0.2777 -0.0233
   15POPC   C3B  672   7.343   6.455   7.579  0.1050 -0.3115  0.2075
   15POPC   C4B  673   7.528   6.823   7.363 -0.0411 -0.1127 -0.2287
   16POPC   NC3  674   4.696   0.343   8.736  0.2922 -0.0333 -0.0800
   16POPC   PO4  675   5.126   0.200   8.762 -0.1052 -0.1523  0.3580
   16POPC   GL1  676   5.187  -0.123   8.464  0.2801  0.0977  0.2655
   16POPC   GL2  677   4.894  -0.345   8.444  0.2021 -0.0865 -0.1105
   16POPC   C1A  678   5.133  -0.278   8.046 -0.2322 -0.0478 -0.0876
   16POPC   D2A  679   4.952  -0.386   7.777 -0.2412 -0.0578  0.1214
   16POPC   C3A  680   4.920  -0.099   7.302 -0.1294 -0.2072  0.0812
   16POPC   C4A  681   5.079  -0.045   6.824  0.2113  0.1477  0.2184
   16POPC   C1B  682   5.031  -0.689   8.289 -0.4243  0.3087 -0.1162
   16POPC   C2B  683   5.021  -0.893   7.982 -0.2623  0.2679  0.2467
   16POPC   C3B  684   4.956  -0.929   7.520  0.0892 -0.1259 -0.3187
   16POPC   C4B  685   5.027  -0.799   7.023 -0.2194 -0.1442  0.3791
   17POPC   NC3  686   6.724   3.905   9.208  0.0083 -0.0295  0.3023
   17POPC   PO4  687   6.408   3.537   9.201  0.2691  0.1340 -0.0378
   17POPC   GL1  688   6.578   3.288   8.880 -0.1334 -0.1489  0.1383
   17POPC   GL2  689   6.326   3.150   8.623 -0.0081 -0.4906  0.2199
   17POPC   C1A  690   6.712   3.518   8.523 -0.1905  0.0996  0.3728
   17POPC   D2A  691   6.770   3.519   8.123  0.0900 -0.0717  0.0325
   17POPC   C3A  692   6.533   3.678   7.765  0.0745 -0.0977  0.2055
   17POPC   C4A  693   6.410   3.876   7.445  0.1473 -0.1013 -0.1812
   17POPC   C1B  694   6.042   3.094   8.315  0.1501  0.0476  0.0520
   17POPC   C2B  695   6.036   3.040   7.957  0.0538 -0.1083  0.1962
   17POPC   C3B  696   6.222   2.858   7.588 -0.2714  0.1492 -0.1643
   17POPC   C4B  697   6.474   2.806   7.217  0.0080 -0.0684 -0.0621
   18POPC   NC3  698   0.188   7.043   8.944 -0.2068  0.0402  0.2397
   18POPC   PO4  699   0.115   6.894   8.452 -0.1039  0.0073  0.0439
   18POPC   GL1  700   0.229   6.953   8.020  0.3174 -0.1361  0.0787
   18POPC   GL2  701   0.107   7.243   8.061  0.0075  0.1371 -0.0037
   18POPC   C1A  702   0.249   6.790   7.640  0.2448  0.1099 -0.2359
   18POPC   D2A  703   0.526   6.712   7.262  0.1218  0.0249 -0.0256
   18POPC   C3A  704   0.483   6.527   6.761  0.1001  0.0345 -0.1076
   18POPC   C4A  705   0.227   6.496   6.410  0.1659  0.1505 -0.0608
   18POPC   C1B  706   0.353   7.416   7.689  0.0470  0.4576 -0.0223
   18POPC   C2B  707   0.630   7.680   7.382 -0.3373  0.2556  0.0038
   18POPC   C3B  708   0.923   7.574   6.947  0.2071 -0.1962 -0.1137
   18POPC   C4B  709   1.129   7.533   6.510 -0.1450 -0.0943 -0.1195
   19POPC   NC3  710   5.629   1.861   9.588 -0.2753 -0.0691 -0.3425
   19POPC   PO4  711   5.931   1.853   9.209  0.2842  0.1345 -0.0800
   19POPC   GL1  712   5.800   1.740   8.765 -0.2090 -0.2610 -0.1389
   19POPC   GL2  713   5.861   1.938   8.594  0.1694  0.1257 -0.1028
   19POPC   C1A  714   5.739   1.465   8.371  0.0487 -0.0648  0.1272
   19POPC   D2A  715   5.741   1.493   7.935  0.1831  0.3502  0.1298
   19POPC   C3A  716   5.949   1.257   7.719 -0.1292 -0.0061  0.0304
   19POPC   C4A  717   5.964   0.892   7.458 -0.3134  0.0144 -0.2495
   19POPC   C1B  718   6.205   1.896   8.155 -0.1609  0.2194 -0.0811
   19POPC   C2B  719   6.155   1.759   7.742  0.1328 -0.3592 -0.0063
   19POPC   C3B  720   5.958   1.703   7.345  0.1868  0.1735  0.2447
   19POPC   C4B  721   5.698   2.019   7.142  0.3467  0.0240  0.0112
   20POPC   NC3  722   2.482   2.653   8.768 -0.0118 -0.1750 -0.0428
   20POPC   PO4  723   2.855   2.601   8.490  0.2929  0.0564 -0.1782
   20POPC   GL1  724   2.913   2.624   8.122  0.4303 -0.0543  0.0089
   20POPC   GL2  725   2.490   2.419   8.211 -0.0494  0.2282 -0.0882
   20POPC   C1A  726   3.018   2.731   7.775  0.1092  0.1384  0.0168
   20POPC   D2A  727   2.808   2.997   7.500  0.0125 -0.1434 -0.1911
   20POPC   C3A  728   2.378   2.957   7.489 -0.0614 -0.1604  0.1638
   20POPC   C4A  729   2.082   2.951   7.172 -0.3816 -0.1387 -0.1349
   20POPC   C1B  730   2.611   2.066   7.852 -0.2164 -0.1329 -0.0398
   20POPC   C2B  731   2.937   2.019   7.550  0.1225 -0.0578  0.2659
   20POPC   C3B  732   2.956   1.688   7.270 -0.0831  0.0084 -0.2622
   20POPC   C4B  733   2.959   1.329   6.906 -0.1143  0.0737 -0.2253
   21POPC   NC3  734  10.307   2.039   8.685 -0.1382  0.4280  0.0711
   21POPC   PO4  735  10.266   1.680   8.911 -0.2620  0.1281 -0.1025
   21POPC   GL1  736  10.497   1.348   8.846 -0.1474  0.0964  0.2370
   21POPC   GL2  737  10.429   1.037   9.003  0.2379  0.1432 -0.0079
   21POPC   C1A  738  10.932   1.160   8.780 -0.1110 -0.3576 -0.0953
   21POPC   D2A  739  11.257   0.998   8.546 -0.1121  0.3138 -0.0080
   21POPC   C3A  740  11.205   0.546   8.522 -0.1139 -0.1418 -0.2717
   21POPC   C4A  741  11.119   0.213   8.782 -0.0597  0.1431  0.1286
   21POPC   C1B  742  10.215   0.752   8.674  0.2973  0.1596  0.0945
   21POPC   C2B  743  10.193   0.635   8.227  0.3175  0.0167 -0.1861
   21POPC   C3B  744  10.038   0.801   7.761 -0.0009  0.1339  0.2625
   21POPC   C4B  745  10.050   1.042   7.343 -0.2439  0.0581 -0.2199
   22POPC   NC3  746   0.220   2.828   9.047  0.0316 -0.1367 -0.0140
   22POPC   PO4  747   0.061   2.365   8.946  0.3052 -0.0477  0.0539
   22POPC   GL1  748   0.161   2.285   8.491  0.1950 -0.0827 -0.0361
   22POPC   GL2  749   0.337   1.986   8.428 -0.0687  0.3173  0.0406
   22POPC   C1A  750   0.141   2.342   8.024  0.0639  0.2365 -0.1690
   22POPC   D2A  751   0.219   2.201   7.604 -0.0064  0.1244  0.0899
   22POPC   C3A  752   0.317   2.337   7.236  0.3428 -0.0533  0.3345
   22POPC   C4A  753   0.573   2.532   6.876 -0.2300 -0.2088  0.1580
   22POPC   C1B  754   0.145   1.802   8.040 -0.0582 -0.1479 -0.0662
   22POPC   C2B  755   0.001   1.534   7.793  0.0925 -0.0084  0.0149
   22POPC   C3B  756   0.062   1.099   7.792 -0.1901  0.1351 -0.0096
   22POPC   C4B  757   0.483   0.897   7.749  0.0767 -0.1303 -0.0089
   23POPC   NC3  758   4.223   7.705   8.933 -0.1950  0.2936 -0.3344
   23POPC   PO4  759   4.666   7.444   9.010  0.0846 -0.3351  0.0167
   23POPC   GL1  760   4.798   7.674   8.663  0.1804  0.3581 -0.1126
   23POPC   GL2  761   4.559   7.844   8.592 -0.1530  0.2849  0.1625
   23POPC   C1A  762   4.802   7.655   8.201  0.2051  0.1180  0.3739
   23POPC   D2A  763   4.684   7.655   7.791 -0.0950 -0.1179  0.3106
   23POPC   C3A  764   4.435   7.429   7.851  0.2002 -0.0844 -0.1067
   23POPC   C4A  765   4.463   7.065   8.112  0.0827 -0.0909 -0.2087
   23POPC   C1B  766   4.344   8.120   8.281 -0.0817  0.2699  0.1546
   23POPC   C2B  767   4.429   8.041   7.832 -0.3289  0.2373  0.0991
   23POPC   C3B  768   4.346   7.842   7.409  0.1945  0.0027 -0.3583
   23POPC   C4B  769   4.071   7.956   6.984 -0.0925 -0.0602  0.2382
   24POPC   NC3  770   8.047   1.036   9.280 -0.2244  0.1552  0.2028
   24POPC   PO4  771   8.167   1.303   8.949 -0.1337 -0.1660  0.0058
   24POPC   GL1  772   8.215   1.156   8.497 -0.1542  0.2968  0.1837
   24POPC   GL2  773   8.102   0.748   8.426 -0.0373  0.2089  0.0834
   24POPC   C1A  774   8.546   1.131   8.210 -0.0718  0.1024  0.1335
   24POPC   D2A  775   8.532   1.163   7.727  0.1628  0.0094 -0.2168
   24POPC   C3A  776   8.253   1.205   7.360 -0.1124 -0.1921 -0.0574
   24POPC   C4A  777   8.058   1.020   7.050 -0.1331  0.3134 -0.2268
   24POPC   C1B  778   8.424   0.632   8.157 -0.1474 -0.2355  0.2140
   24POPC   C2B  779   8.462   0.713   7.729  0.0569 -0.2339 -0.1027
   24POPC   C3B  780   8.481   0.751   7.257 -0.1493 -0.0108  0.3716
   24POPC   C4B  781   8.799   0.910   6.925  0.0545 -0.1279  0.2388
   25POPC   NC3  782   3.055   6.742   8.609  0.0276 -0.1815  0.0260
   25POPC   PO4  783   3.158   6.367   8.596 -0.2262  0.1549  0.1318
   25POPC   GL1  784   2.964   6.404   8.184 -0.1103 -0.1202  0.4087
   25POPC   GL2  785   2.639   6.245   8.013  0.2394  0.2892  0.5617
   25POPC   C1A  786   2.978   6.561   7.714 -0.2241  0.0141 -0.0449
   25POPC   D2A  787   3.019   6.675   7.310 -0.2063  0.0716  0.1731
   25POPC   C3A  788   2.804   6.713   7.020 -0.0344  0.1333  0.3481
   25POPC   C4A  789   2.309   6.674   6.959  0.0607  0.1984  0.1165
   25POPC   C1B  790   2.544   6.099   7.658  0.0147 -0.0587 -0.2990
   25POPC   C2B  791   2.309   5.829   7.353  0.0372  0.1471  0.3637
   25POPC   C3B  792   2.348   5.483   7.070  0.1146 -0.0095 -0.0423
   25POPC   C4B  793   2.577   5.242   6.822 -0.1272 -0.1004  0.1666
   26POPC   NC3  794   7.658   0.202   9.149 -0.1617 -0.0755  0.2190
   26POPC   PO4  795   7.792   0.492   8.821 -0.4011 -0.0261  0.2720
   26POPC   GL1  796   7.683   0.506   8.437 -0.3926 -0.2015 -0.0881
   26POPC   GL2  797   7.385   0.636   8.383 -0.1278  0.0030  0.2625
   26POPC   C1A  798   7.827   0.639   8.033  0.2015  0.0389  0.0626
   26POPC   D2A  799   8.058   0.888   7.888 -0.0672  0.0411 -0.3727
   26POPC   C3A  800   8.100   1.315   7.910 -0.3304 -0.0895  0.2191
   26POPC   C4A  801   7.857   1.683   7.792  0.1270  0.2056 -0.0513
   26POPC   C1B  802   7.316   0.427   8.032  0.1317  0.2478 -0.0798
   26POPC   C2B  803   7.639   0.274   7.714 -0.1359  0.0138 -0.1873
   26POPC   C3B  804   7.718   0.308   7.270  0.1999  0.0335  0.2214
   26POPC   C4B  805   7.882   0.540   6.936  0.2523  0.3481 -0.0617
   27POPC   NC3  806   7.651   9.581   9.298  0.3017 -0.1565 -0.1497
   27POPC   PO4  807   7.684   9.824   8.967  0.0677 -0.0766 -0.0738
   27POPC   GL1  808   7.729   9.722   8.467 -0.0271 -0.4651  0.3334
   27POPC   GL2  809   7.507   9.585   8.355 -0.1195 -0.1528 -0.2038
   27POPC   C1A  810   7.811   9.812   7.985  0.1123 -0.1349  0.1069
   27POPC   D2A  811   7.924   9.857   7.527 -0.1826 -0.1059  0.0634
   27POPC   C3A  812   8.027   9.558   7.258  0.2340 -0.1204  0.1043
   27POPC   C4A  813   8.221   9.304   7.062 -0.1562 -0.0010 -0.0871
   27POPC   C1B  814   7.268   9.883   8.036 -0.0430  0.0784  0.0049
   27POPC   C2B  815   7.335   9.992   7.631 -0.1175  0.1315  0.3779
   27POPC   C3B  816   7.381  10.380   7.266 -0.1963 -0.1129 -0.2087
   27POPC   C4B  817   7.619  10.632   6.891 -0.0814 -0.1128  0.1240
   28POPC   NC3  818   5.075   2.933   9.182 -0.1267  0.1900  0.1971
   28POPC   PO4  819   4.683   3.077   8.918  0.0884  0.0278  0.3357
   28POPC   GL1  820   4.764   3.063   8.470 -0.1157 -0.4411  0.0293
   28POPC   GL2  821   4.718   3.442   8.198 -0.0580 -0.0672  0.0113
   28POPC   C1A  822   4.847   3.019   7.986  0.0400  0.0357  0.0843
   28POPC   D2A  823   4.962   3.289   7.669  0.4073 -0.2872  0.0212
   28POPC   C3A  824   5.244   3.573   7.922 -0.4161 -0.4034 -0.0729
   28POPC   C4A  825   5.281   3.740   8.414  0.1673  0.0335  0.1231
   28POPC   C1B  826   4.805   3.845   8.047 -0.1253  0.2217 -0.3090
   28POPC   C2B  827   4.699   4.170   7.717  0.1050 -0.0507  0.3600
   28POPC   C3B  828   4.663   4.235   7.269  0.0979  0.3130 -0.0650
   28POPC   C4B  829   4.339   4.190   6.960 -0.0052 -0.1601 -0.0636
   29POPC   NC3  830   6.769   3.161   9.325  0.1318 -0.2667  0.2106
   29POPC   PO4  831   6.699   2.826   9.110 -0.0175 -0.0630 -0.0879
   29POPC   GL1  832   6.713   2.848   8.611 -0.2498  0.3176 -0.2530
   29POPC   GL2  833   6.487   2.722   8.420  0.2877  0.3636 -0.3625
   29POPC   C1A  834   6.878   3.081   8.301 -0.0167 -0.4097 -0.1319
   29POPC   D2A  835   7.211   3.411   8.009  0.1626  0.0894  0.2132
   29POPC   C3A  836   7.082   3.811   7.847  0.1415 -0.0616 -0.0996
   29POPC   C4A  837   6.875   4.010   7.480 -0.0518 -0.1860 -0.2604
   29POPC   C1B  838   6.587   2.744   7.973  0.1282  0.0812  0.1619
   29POPC   C2B  839   6.834   2.763   7.582  0.3683 -0.1872 -0.2005
   29POPC   C3B  840   6.971   3.021   7.186  0.1357  0.0709 -0.1498
   29POPC   C4B  841   7.200   3.295   7.022  0.0881 -0.0709 -0.0853
   30POPC   NC3  842   6.502   4.697   8.871 -0.1842 -0.1436 -0.1589
   30POPC   PO4  843   6.065   4.939   8.794  0.1306  0.3477 -0.0441
   30POPC   GL1  844   6.114   4.508   8.533 -0.0219 -0.2401  0.3183
   30POPC   GL2  845   6.345   4.327   8.484 -0.1893  0.1862  0.0274
   30POPC   C1A  846   5.990   4.517   8.136  0.1950  0.1036  0.0243
   30POPC   D2A  847   5.804   4.399   7.768 -0.3004  0.1173  0.3209
   30POPC   C3A  848   6.121   4.329   7.554  0.0332 -0.0261  0.1447
   30POPC   C4A  849   6.525   4.369   7.274 -0.0820  0.0655  0.0600
   30POPC   C1B  850   6.160   4.015   8.187  0.2543 -0.3902 -0.1585
   30POPC   C2B  851   6.028   3.875   7.817 -0.0942 -0.1638 -0.1246
   30POPC   C3B  852   5.886   3.873   7.444  0.4911  0.3065 -0.2763
   30POPC   C4B  853   5.640   3.800   7.020  0.1398  0.4797  0.3226
   31POPC   NC3  854   1.172   3.680   8.426 -0.0357  0.3180  0.3799
   31POPC   PO4  855   0.781   3.868   8.500  0.1811  0.3439 -0.0800
   31POPC   GL1  856   0.443   4.071   8.223 -0.2758 -0.0513 -0.2644
   31POPC   GL2  857   0.304   3.921   8.053  0.0618  0.2357  0.1950
   31POPC   C1A  858   0.395   4.373   7.873 -0.1527 -0.0152  0.4653
   31POPC   D2A  859   0.221   4.608   7.554  0.1771 -0.1152 -0.1207
   31POPC   C3A  860  -0.209   4.617   7.407  0.1480 -0.0300 -0.2053
   31POPC   C4A  861  -0.610   4.408   7.752  0.0701 -0.1131  0.1766
   31POPC   C1B  862  -0.057   3.619   8.002 -0.3823  0.3147 -0.0805
   31POPC   C2B  863  -0.189   3.503   7.641 -0.4198 -0.2868 -0.1766
   31POPC   C3B  864  -0.086   3.196   7.284  0.0237 -0.0039 -0.0806
   31POPC   C4B  865   0.120   2.838   7.049  0.4232  0.1123  0.0374
   32POPC   NC3  866   9.722   1.786   8.910  0.2001 -0.1429  0.0440
   32POPC   PO4  867   9.309   1.939   8.818  0.1772 -0.0164 -0.0650
   32POPC   GL1  868   9.595   1.956   8.442 -0.0806 -0.1572  0.3180
   32POPC   GL2  869   9.874   1.907   8.430 -0.2011  0.0123  0.3354
   32POPC   C1A  870   9.633   1.937   8.028 -0.2279 -0.0485  0.0576
   32POPC   D2A  871   9.559   1.922   7.552  0.0101  0.2345 -0.1208
   32POPC   C3A  872   9.194   1.951   7.428 -0.1843 -0.1769  0.1240
   32POPC   C4A  873   8.910   1.859   7.073  0.2128 -0.4291 -0.1780
   32POPC   C1B  874  10.041   1.709   8.112 -0.1498  0.1576 -0.1175
   32POPC   C2B  875   9.993   1.587   7.742  0.0877  0.2363  0.1837
   32POPC   C3B  876   9.872   1.548   7.309 -0.2063 -0.0287  0.0575
   32POPC   C4B  877  10.111   1.586   6.902  0.3645 -0.2114  0.0808
   33POPC   NC3  878   9.889   9.929   9.689 -0.0226 -0.0798  0.0455
   33POPC   PO4  879   9.733  10.390   9.754 -0.0985  0.0203  0.1990
   33POPC   GL1  880   9.811  10.485   9.209  0.1683  0.0905 -0.1687
   33POPC   GL2  881   9.722  10.809   9.188  0.0154 -0.0850  0.3251
   33POPC   C1A  882   9.752  10.366   8.735 -0.1168  0.0276 -0.1350
   33POPC   D2A  883   9.902  10.163   8.270 -0.0068 -0.0333 -0.0424
   33POPC   C3A  884   9.686  10.120   8.031 -0.0514  0.1601  0.0475
   33POPC   C4A  885   9.735  10.360   7.539 -0.0702  0.0904 -0.1826
   33POPC   C1B  886   9.382  10.648   8.918  0.1630  0.0803  0.0638
   33POPC   C2B  887   9.053  10.466   8.609  0.0321 -0.3012 -0.0099
   33POPC   C3B  888   9.019  10.147   8.253 -0.0459 -0.0757 -0.0301
   33POPC   C4B  889   8.765   9.985   7.896 -0.0612  0.2520  0.0315
   34POPC   NC3  890   1.979   7.662   9.964  0.0660 -0.0615 -0.0724
   34POPC   PO4  891   2.086   8.005   9.722  0.1593 -0.0478 -0.1080
   34POPC   GL1  892   2.008   8.482   9.499 -0.0395  0.0530  0.2428
   34POPC   GL2  893   1.912   8.812   9.580  0.0523  0.2157  0.2185
   34POPC   C1A  894   2.087   8.689   9.154 -0.0084 -0.1575 -0.0012
   34POPC   D2A  895   1.771   8.868   8.826 -0.0563 -0.1615 -0.0668
   34POPC   C3A  896   1.998   8.769   8.473 -0.0870 -0.0761  0.1006
   34POPC   C4A  897   1.974   8.884   7.964 -0.0900  0.0696  0.0434
   34POPC   C1B  898   1.803   9.063   9.305  0.0551 -0.3505  0.2099
   34POPC   C2B  899   1.665   9.334   8.864 -0.1451  0.3059 -0.5703
   34POPC   C3B  900   1.394   9.640   8.850 -0.1813  0.0568  0.3754
   34POPC   C4B  901   1.247  10.074   8.680  0.0555  0.2269  0.1935
   35POPC   NC3  902   6.432   0.865   8.450 -0.5850 -0.2317  0.1802
   35POPC   PO4  903   6.802   1.146   8.466  0.1703  0.3391  0.0920
   35POPC   GL1  904   6.614   1.302   8.172  0.0299 -0.1047 -0.0395
   35POPC   GL2  905   6.263   1.409   8.139 -0.2054 -0.0952  0.0178
   35POPC   C1A  906   6.612   1.687   8.045  0.1048 -0.3187 -0.1536
   35POPC   D2A  907   6.665   1.865   7.617  0.1097  0.1475  0.1468
   35POPC   C3A  908   6.432   1.896   7.239 -0.1824  0.1752 -0.1503
   35POPC   C4A  909   6.106   1.807   6.843  0.2153 -0.1299  0.1032
   35POPC   C1B  910   6.455   1.371   7.712 -0.2199  0.3130 -0.0963
   35POPC   C2B  911   6.291   1.315   7.298  0.0844 -0.1729 -0.1055
   35POPC   C3B  912   6.060   1.331   6.867  0.3773 -0.1595  0.2777
   35POPC   C4B  913   5.790   1.286   6.510 -0.0070  0.2342 -0.2262
   36POPC   NC3  914  10.087   3.617   8.984 -0.3162 -0.2640 -0.1652
   36POPC   PO4  915  10.123   3.312   8.594  0.2894  0.0981 -0.2610
   36POPC   GL1  916  10.175   3.165   8.224  0.2623 -0.0255 -0.4444
   36POPC   GL2  917   9.899   2.845   8.287 -0.2395  0.0026  0.0963
   36POPC   C1A  918  10.153   3.026   7.840 -0.0238 -0.0729 -0.0249
   36POPC   D2A  919   9.965   2.810   7.426  0.2259  0.2380 -0.3726
   36POPC   C3A  920   9.711   2.844   7.047 -0.1286 -0.1569  0.2287
   36POPC   C4A  921   9.649   2.682   6.650 -0.3885 -0.1008 -0.0506
   36POPC   C1B  922   9.589   2.748   7.927  0.1551  0.0258  0.3142
   36POPC   C2B  923   9.437   2.805   7.560  0.0805 -0.0054 -0.0885
   36POPC   C3B  924   9.052   2.706   7.399 -0.1488 -0.1456  0.1177
   36POPC   C4B  925   8.660   2.589   7.258  0.3436 -0.2421  0.0580
   37POPC   NC3  926   3.933   7.074   8.713 -0.0434 -0.1311 -0.0836
   37POPC   PO4  927   3.785   7.457   8.868  0.1244 -0.5610  0.2841
   37POPC   GL1  928   3.635   7.379   8.485  0.1895 -0.1383  0.1124
   37POPC   GL2  929   3.374   7.151   8.408 -0.0425  0.0373 -0.0552
   37POPC   C1A  930   3.613   7.630   8.130 -0.0172 -0.0392 -0.0002
   37POPC   D2A  931   3.701   7.560   7.653 -0.1252 -0.3623  0.1540
   37POPC   C3A  932   3.769   7.844   7.406  0.0288 -0.0223 -0.2007
   37POPC   C4A  933   3.579   7.851   7.000  0.0280  0.1024 -0.0544
   37POPC   C1B  934   3.435   7.126   7.917  0.1420  0.0720 -0.1514
   37POPC   C2B  935   3.333   7.219   7.455  0.2368 -0.1846 -0.1879
   37POPC   C3B  936   3.671   7.396   7.194 -0.0684 -0.0930 -0.0799
   37POPC   C4B  937   3.942   7.441   6.850  0.1585  0.1695  0.0009
   38POPC   NC3  938   0.828   4.357   8.500  0.2235 -0.1110 -0.2109
   38POPC   PO4  939   1.125   4.156   8.241  0.0327 -0.0753  0.2926
   38POPC   GL1  940   0.876   3.945   7.963 -0.1111 -0.1110 -0.0439
   38POPC   GL2  941   1.166   3.835   7.873 -0.0838  0.1408  0.2879
   38POPC   C1A  942   0.569   3.928   7.624  0.1631  0.0266  0.0553
   38POPC   D2A  943   0.524   3.826   7.208 -0.2456  0.0950 -0.2526
   38POPC   C3A  944   0.779   3.752   6.895 -0.0279  0.0163  0.1298
   38POPC   C4A  945   0.920   3.767   6.544  0.3209 -0.0344  0.0017
   38POPC   C1B  946   1.176   3.843   7.399 -0.0941  0.0637  0.1598
   38POPC   C2B  947   1.302   3.931   6.944 -0.2119 -0.0745  0.1670
   38POPC   C3B  948   1.389   3.769   6.515 -0.1454  0.2851  0.2517
   38POPC   C4B  949   1.462   3.577   6.179  0.2109  0.0732  0.0329
   39POPC   NC3  950   5.235   2.425   8.999  0.0221  0.1105 -0.0429
   39POPC   PO4  951   4.793   2.475   9.026  0.1504  0.1667  0.1901
   39POPC   GL1  952   4.844   2.523   8.515 -0.5704  0.0465  0.0474
   39POPC   GL2  953   4.670   2.354   8.185  0.1992  0.1861  0.1871
   39POPC   C1A  954   5.111   2.621   8.220 -0.2954 -0.3132  0.2152
   39POPC   D2A  955   5.332   2.529   7.943  0.0033 -0.1564  0.2106
   39POPC   C3A  956   5.174   2.817   7.514 -0.0381  0.0858  0.1798
   39POPC   C4A  957   5.186   3.083   7.221 -0.2614 -0.1059 -0.2589
   39POPC   C1B  958   4.828   2.554   7.843  0.1111  0.1174 -0.0693
   39POPC   C2B  959   4.883   2.403   7.408  0.0146 -0.0449 -0.0600
   39POPC   C3B  960   4.954   2.657   6.982  0.0311  0.1381  0.1074
   39POPC   C4B  961   5.031   2.928   6.688  0.0858  0.1741 -0.0067
   40POPC   NC3  962   9.432   6.642   8.671  0.1271 -0.0251  0.2781
   40POPC   PO4  963   9.600   7.088   8.678 -0.1109 -0.2366  0.2219
   40POPC   GL1  964   9.614   7.198   8.261  0.1813 -0.1350  0.1129
   40POPC   GL2  965   9.576   7.563   8.218 -0.2057 -0.0408 -0.1941
   40POPC   C1A  966   9.328   7.161   7.932 -0.3126 -0.0839 -0.0479
   40POPC   D2A  967   9.345   7.152   7.493 -0.0080 -0.0336  0.3168
   40POPC   C3A  968   9.062   7.150   7.138  0.0312  0.0514  0.0740
   40POPC   C4A  969   9.151   7.362   6.745 -0.1183  0.0803 -0.0028
   40POPC   C1B  970   9.887   7.350   7.890 -0.2016 -0.1584  0.0774
   40POPC   C2B  971   9.922   7.349   7.526  0.0969  0.1473 -0.0695
   40POPC   C3B  972  10.112   7.347   7.143 -0.1059 -0.1145  0.1958
   40POPC   C4B  973  10.378   7.532   6.833 -0.2972  0.0341  0.0639
   41POPC   NC3  974   8.597  10.128   9.546  0.1284 -0.1985 -0.1053
   41POPC   PO4  975   8.696   9.740   9.232  0.0780  0.0210  0.0413
   41POPC   GL1  976   8.976   9.661   8.916  0.2051 -0.2132  0.1732
   41POPC   GL2  977   8.862   9.870   8.687 -0.0107 -0.0927  0.1124
   41POPC   C1A  978   9.259   9.604   8.513  0.1058 -0.2177  0.1663
   41POPC   D2A  979   9.323   9.767   8.106 -0.2860  0.0207  0.1919
   41POPC   C3A  980   9.755   9.615   8.009  0.0345 -0.1592  0.0610
   41POPC   C4A  981  10.058   9.654   7.799 -0.0550  0.1333  0.1231
   41POPC   C1B  982   8.539   9.883   8.345  0.0904 -0.0806  0.0727
   41POPC   C2B  983   8.281  10.116   8.148  0.0719 -0.0071  0.2006
   41POPC   C3B  984   8.220  10.289   7.739  0.0633  0.2442 -0.1866
   41POPC   C4B  985   8.333  10.043   7.345 -0.1699 -0.2949 -0.0912
   42POPC   NC3  986   6.054   8.895   8.460  0.0554  0.1963  0.0984
   42POPC   PO4  987   5.931   8.569   8.689 -0.0500 -0.0271 -0.2150
   42POPC   GL1  988   5.957   8.436   8.203 -0.1529  0.0735  0.2557
   42POPC   GL2  989   5.827   8.718   7.952 -0.2735 -0.2930 -0.0116
   42POPC   C1A  990   6.087   8.295   7.702 -0.5388 -0.1543 -0.2594
   42POPC   D2A  991   5.844   8.267   7.287 -0.1865 -0.0624  0.3678
   42POPC   C3A  992   5.821   7.778   7.065 -0.0980  0.2354  0.1959
   42POPC   C4A  993   6.091   7.549   6.811 -0.0452 -0.1243 -0.0927
   42POPC   C1B  994   5.997   8.820   7.526  0.0683  0.0614 -0.2733
   42POPC   C2B  995   5.938   8.793   7.036  0.5000  0.0559 -0.0821
   42POPC   C3B  996   6.066   8.463   6.793  0.0444  0.2522 -0.0168
   42POPC   C4B  997   6.568   8.291   6.813  0.0918 -0.2208  0.0203
   43POPC   NC3  998   9.143   9.619   9.376  0.1706 -0.0216  0.1443
   43POPC   PO4  999   9.268   9.179   9.421  0.1757  0.1837  0.0033
   43POPC   GL1 1000   9.403   9.315   9.027  0.0375  0.0966  0.2607
   43POPC   GL2 1001   9.543   9.599   9.002  0.1357  0.4126  0.0271
   43POPC   C1A 1002   9.624   9.148   8.643 -0.1126  0.3525  0.0666
   43POPC   D2A 1003   9.984   9.058   8.427 -0.0695 -0.0335  0.0403
   43POPC   C3A 1004  10.263   8.770   8.279 -0.1372  0.1099  0.3251
   43POPC   C4A 1005  10.576   8.845   8.013 -0.0726  0.2601  0.2407
   43POPC   C1B 1006   9.820   9.657   8.601 -0.3845  0.0300  0.0509
   43POPC   C2B 1007  10.122   9.629   8.320 -0.1837 -0.1816 -0.3636
   43POPC   C3B 1008  10.501   9.659   8.000  0.0392 -0.4026 -0.0054
   43POPC   C4B 1009  10.727   9.368   7.870 -0.2140  0.2109 -0.2201
   44POPC   NC3 1010   3.401   4.507   8.393  0.0479  0.0269 -0.1022
   44POPC   PO4 1011   3.130   4.884   8.593 -0.2703  0.0857 -0.2919
   44POPC   GL1 1012   3.071   4.991   8.189 -0.5940 -0.1337  0.0924
   44POPC   GL2 1013   2.719   4.933   8.070  0.0748 -0.1800 -0.0095
   44POPC   C1A 1014   2.971   5.217   7.840 -0.0773 -0.1435 -0.1673
   44POPC   D2A 1015   2.767   5.182   7.377 -0.1466 -0.3937 -0.0869
   44POPC   C3A 1016   2.733   4.807   7.098 -0.3357  0.4574 -0.4304
   44POPC   C4A 1017   2.501   4.484   7.320 -0.0854 -0.1623  0.0226
   44POPC   C1B 1018   2.512   4.942   7.709 -0.1358 -0.0602 -0.1476
   44POPC   C2B 1019   2.070   4.848   7.622 -0.1835 -0.0197 -0.1312
   44POPC   C3B 1020   1.869   4.636   7.354 -0.0188  0.0432  0.1372
   44POPC   C4B 1021   1.967   4.320   7.095  0.2679  0.0937 -0.0064
   45POPC   NC3 1022   7.244   9.907   8.645 -0.0567 -0.2530 -0.0608
   45POPC   PO4 1023   7.126  10.281   8.770  0.2886  0.1825 -0.3704
   45POPC   GL1 1024   6.856  10.220   8.400 -0.0166  0.2547 -0.3996
   45POPC   GL2 1025   6.814  10.564   8.383  0.2915 -0.1415  0.1014
   45POPC   C1A 1026   6.816  10.210   8.036 -0.2516 -0.2060 -0.0542
   45POPC   D2A 1027   6.839  10.039   7.624 -0.0984 -0.1161  0.2181
   45POPC   C3A 1028   6.941   9.680   7.615 -0.3589  0.1294  0.2439
   45POPC   C4A 1029   6.811   9.282   7.904  0.0579  0.0581 -0.3669
   45POPC   C1B 1030   6.741  10.751   8.058 -0.2718 -0.2300 -0.0718
   45POPC   C2B 1031   6.453  10.910   7.819  0.1568  0.2112 -0.2616
   45POPC   C3B 1032   6.505  10.922   7.399 -0.1252 -0.1144  0.2554
   45POPC   C4B 1033   6.819  11.103   7.038 -0.0919 -0.1188  0.3169
   46POPC   NC3 1034   9.708   2.794   8.697 -0.2275 -0.2314 -0.1578
   46POPC   PO4 1035  10.100   2.482   8.813 -0.0796  0.1187  0.0492
   46POPC   GL1 1036  10.210   2.427   8.339  0.3142  0.0726 -0.1496
   46POPC   GL2 1037  10.247   2.166   8.191 -0.0753 -0.0540 -0.4631
   46POPC   C1A 1038  10.074   2.493   7.866 -0.0933 -0.0643  0.1580
   46POPC   D2A 1039   9.772   2.384   7.533 -0.2348 -0.0587 -0.0737
   46POPC   C3A 1040   9.436   2.372   7.171  0.0725  0.3125  0.2048
   46POPC   C4A 1041   9.027   2.313   7.004 -0.0161 -0.0251  0.0215
   46POPC   C1B 1042  10.295   2.069   7.750  0.1212  0.0016 -0.2297
   46POPC   C2B 1043  10.187   1.954   7.319 -0.0246  0.0853  0.1744
   46POPC   C3B 1044   9.957   2.093   7.000 -0.0446 -0.2246 -0.0914
   46POPC   C4B 1045  10.123   2.279   6.641  0.0821 -0.1434  0.0346
   47POPC   NC3 1046   4.637   8.454   8.777  0.3112 -0.2164  0.3209
   47POPC   PO4 1047   5.033   8.183   8.765 -0.0137  0.1128  0.2090
   47POPC   GL1 1048   5.211   7.956   8.459 -0.0310  0.2927 -0.0528
   47POPC   GL2 1049   5.604   7.908   8.322 -0.1500 -0.1339 -0.0430
   47POPC   C1A 1050   5.114   7.963   8.001 -0.2330 -0.1428  0.0482
   47POPC   D2A 1051   5.106   8.281   7.649 -0.0512 -0.0626  0.0160
   47POPC   C3A 1052   5.377   8.147   7.243  0.1583  0.4125  0.0321
   47POPC   C4A 1053   5.523   8.465   6.923 -0.1677 -0.3679 -0.1001
   47POPC   C1B 1054   5.692   7.697   8.001  0.1056  0.0181 -0.1052
   47POPC   C2B 1055   5.633   7.559   7.617  0.1401 -0.0469  0.0990
   47POPC   C3B 1056   5.934   7.406   7.368 -0.3250  0.1929  0.0132
   47POPC   C4B 1057   5.996   7.084   7.130 -0.1408 -0.0084 -0.1029
   48POPC   NC3 1058   3.602   2.782   8.612  0.1487  0.3214  0.2279
   48POPC   PO4 1059   3.888   2.969   8.353  0.1021  0.0073  0.1128
   48POPC   GL1 1060   4.006   2.788   8.002  0.2658 -0.2594 -0.1307
   48POPC   GL2 1061   4.436   2.793   8.110  0.0547 -0.1385  0.1592
   48POPC   C1A 1062   3.719   2.664   7.701  0.0236  0.0406 -0.2968
   48POPC   D2A 1063   3.534   2.398   7.381 -0.1038 -0.0545 -0.2003
   48POPC   C3A 1064   3.086   2.409   7.205  0.0482 -0.0291  0.1639
   48POPC   C4A 1065   2.685   2.468   7.405  0.0581 -0.2346 -0.1015
   48POPC   C1B 1066   4.299   2.535   7.726 -0.1874  0.0963  0.0266
   48POPC   C2B 1067   4.349   2.475   7.324  0.1625  0.0095 -0.2152
   48POPC   C3B 1068   4.521   2.392   6.936  0.0569 -0.3156 -0.2647
   48POPC   C4B 1069   4.774   2.379   6.577  0.0176 -0.3162  0.0689
   49POPC   NC3 1070   6.931   7.034   9.095  0.0662 -0.0013 -0.2525
   49POPC   PO4 1071   6.543   6.915   8.766 -0.1019 -0.1319  0.2321
   49POPC   GL1 1072   6.749   6.800   8.307 -0.0073  0.1976  0.0957
   49POPC   GL2 1073   6.959   6.562   8.225 -0.0148  0.0353 -0.4034
   49POPC   C1A 1074   6.745   6.980   7.950 -0.3181  0.4405  0.2414
   49POPC   D2A 1075   6.946   7.302   7.733 -0.1239 -0.1436 -0.1143
   49POPC   C3A 1076   7.302   7.581   7.672 -0.0303  0.0759  0.1551
   49POPC   C4A 1077   7.595   7.688   7.373 -0.0727  0.2738 -0.2653
   49POPC   C1B 1078   6.874   6.472   7.783 -0.1058 -0.1323 -0.2935
   49POPC   C2B 1079   6.913   6.455   7.296  0.0960  0.3416  0.2551
   49POPC   C3B 1080   7.079   6.647   6.890 -0.2946  0.1098 -0.1945
   49POPC   C4B 1081   7.443   6.806   6.646  0.0494 -0.2461 -0.0975
   50POPC   NC3 1082   2.514   6.642   8.931 -0.0512 -0.0859 -0.1311
   50POPC   PO4 1083   2.592   6.506   8.522  0.2830 -0.2462 -0.0200
   50POPC   GL1 1084   2.682   6.828   8.257 -0.0998  0.1860 -0.0092
   50POPC   GL2 1085   2.981   6.917   8.119  0.2160 -0.1153 -0.1966
   50POPC   C1A 1086   2.560   6.783   7.859 -0.0399 -0.2776  0.0819
   50POPC   D2A 1087   2.545   6.618   7.434  0.1793  0.0454 -0.1872
   50POPC   C3A 1088   2.635   6.279   7.205  0.4795  0.0552  0.0048
   50POPC   C4A 1089   2.613   5.914   6.916 -0.0372  0.2803 -0.2486
   50POPC   C1B 1090   2.908   7.207   7.709  0.1156  0.1185  0.0935
   50POPC   C2B 1091   2.795   7.206   7.305  0.0060 -0.0218  0.2316
   50POPC   C3B 1092   2.908   7.187   6.914 -0.0567  0.2830  0.0900
   50POPC   C4B 1093   3.097   6.975   6.584  0.0111  0.1769  0.0563
   51POPC   NC3 1094   8.696   3.695   8.867  0.2441 -0.0707 -0.4261
   51POPC   PO4 1095   8.445   3.690   8.524 -0.2726 -0.2895  0.1780
   51POPC   GL1 1096   8.366   3.372   8.251 -0.0858 -0.0947 -0.2400
   51POPC   GL2 1097   8.029   3.316   8.369  0.3107  0.2816 -0.0615
   51POPC   C1A 1098   8.151   3.313   7.880 -0.2001 -0.3503  0.0047
   51POPC   D2A 1099   7.827   3.224   7.538  0.2619  0.1737  0.0162
   51POPC   C3A 1100   7.767   3.337   7.087  0.2127 -0.0565 -0.3550
   51POPC   C4A 1101   7.560   3.651   6.778 -0.3053 -0.0654 -0.0464
   51POPC   C1B 1102   7.717   3.435   8.091 -0.2871 -0.0218 -0.1167
   51POPC   C2B 1103   7.550   3.795   7.919  0.1317  0.0305  0.0317
   51POPC   C3B 1104   7.424   4.031   7.553 -0.0569  0.1838  0.1924
   51POPC   C4B 1105   7.200   4.488   7.404  0.1220  0.1405  0.3639
   52POPC   NC3 1106   7.597   8.566   9.403 -0.1039  0.0969 -0.2527
   52POPC   PO4 1107   7.554   8.887   9.080 -0.2751 -0.0095 -0.1438
   52POPC   GL1 1108   7.513   8.893   8.603  0.2386 -0.1502 -0.0583
   52POPC   GL2 1109   7.781   9.184   8.486 -0.2307 -0.0450  0.0618
   52POPC   C1A 1110   7.492   8.865   8.112  0.3551 -0.1049 -0.0159
   52POPC   D2A 1111   7.735   8.881   7.764  0.0685  0.1183 -0.3183
   52POPC   C3A 1112   7.824   8.522   7.517 -0.0693 -0.0024 -0.0768
   52POPC   C4A 1113   7.951   8.126   7.474 -0.1418 -0.1524 -0.2485
   52POPC   C1B 1114   7.799   9.329   7.985 -0.3086 -0.0320 -0.2804
   52POPC   C2B 1115   8.036   9.285   7.653 -0.1195 -0.1355 -0.0412
   52POPC   C3B 1116   8.449   9.274   7.648 -0.0377  0.0378 -0.1195
   52POPC   C4B 1117   8.705   9.109   7.374 -0.3095  0.0257 -0.1137
   53POPC   NC3 1118   2.721   3.871   8.348  0.3034  0.0983  0.0013
   53POPC   PO4 1119   2.392   4.203   8.257  0.1395 -0.0030  0.0958
   53POPC   GL1 1120   2.402   3.860   7.946 -0.1998 -0.1326  0.0858
   53POPC   GL2 1121   2.109   3.779   7.906 -0.0912  0.2209 -0.1677
   53POPC   C1A 1122   2.501   3.677   7.645 -0.0447 -0.1321  0.2268
   53POPC   D2A 1123   2.703   3.454   7.379  0.1767 -0.0550 -0.1900
   53POPC   C3A 1124   2.589   3.217   7.023 -0.1612 -0.1728 -0.2137
   53POPC   C4A 1125   2.373   3.032   6.772 -0.2536 -0.1074  0.1751
   53POPC   C1B 1126   2.178   4.005   7.461 -0.1355  0.1628  0.0701
   53POPC   C2B 1127   2.367   4.014   7.110 -0.0046  0.5356  0.3685
   53POPC   C3B 1128   2.485   4.316   6.754  0.0224 -0.0172 -0.2593
   53POPC   C4B 1129   2.720   4.626   6.585  0.2434 -0.0489 -0.1852
   54POPC   NC3 1130   6.407   9.385   8.834  0.0479 -0.0627 -0.3490
   54POPC   PO4 1131   6.612   9.016   8.542  0.1794 -0.0909  0.3417
   54POPC   GL1 1132   6.606   8.851   8.157  0.1978 -0.0724  0.2274
   54POPC   GL2 1133   6.327   8.959   7.974  0.1388  0.0820  0.2188
   54POPC   C1A 1134   6.956   8.821   7.873 -0.1620  0.0430 -0.0502
   54POPC   D2A 1135   7.282   9.026   7.603 -0.0397  0.1130 -0.1349
   54POPC   C3A 1136   7.261   9.368   7.176 -0.2081  0.1168 -0.4447
   54POPC   C4A 1137   7.354   9.504   6.766  0.0081 -0.0143  0.2230
   54POPC   C1B 1138   6.429   9.120   7.522  0.1235 -0.1071  0.2842
   54POPC   C2B 1139   6.185   9.279   7.247 -0.0723 -0.2188  0.0639
   54POPC   C3B 1140   6.012   9.680   7.118  0.0265 -0.0030  0.0658
   54POPC   C4B 1141   5.960  10.111   6.910 -0.1467  0.0545  0.1833
   55POPC   NC3 1142  10.082   6.246   8.169 -0.2781  0.0904 -0.2782
   55POPC   PO4 1143   9.931   5.823   8.304 -0.2696  0.1110 -0.2213
   55POPC   GL1 1144  10.279   5.604   7.994  0.1670 -0.0449  0.0325
   55POPC   GL2 1145  10.405   5.346   7.848 -0.1396  0.0278  0.2359
   55POPC   C1A 1146  10.391   5.796   7.590 -0.0139  0.0583  0.0613
   55POPC   D2A 1147  10.547   5.727   7.162  0.1850 -0.2392  0.0824
   55POPC   C3A 1148  10.415   5.406   6.851  0.1358  0.1629 -0.0906
   55POPC   C4A 1149  10.373   5.201   6.398 -0.0089 -0.3397  0.0044
   55POPC   C1B 1150  10.030   5.427   7.509 -0.2132  0.0834  0.0588
   55POPC   C2B 1151   9.937   5.286   7.095 -0.1570 -0.3653 -0.1861
   55POPC   C3B 1152  10.136   4.976   6.818  0.2428 -0.0612 -0.0803
   55POPC   C4B 1153  10.316   4.596   6.602  0.0967 -0.0848  0.4003
   56POPC   NC3 1154   5.407   8.503   8.798  0.1750  0.2475  0.1064
   56POPC   PO4 1155   5.059   8.821   8.651 -0.2791  0.0547  0.1071
   56POPC   GL1 1156   5.044   8.544   8.340 -0.4208  0.1101 -0.1357
   56POPC   GL2 1157   4.793   8.285   8.341  0.1403 -0.0184 -0.2966
   56POPC   C1A 1158   5.455   8.353   8.080  0.1212  0.2446 -0.2257
   56POPC   D2A 1159   5.668   8.049   7.691  0.3565 -0.6819  0.0504
   56POPC   C3A 1160   6.083   7.870   7.555 -0.2694 -0.0074 -0.2500
   56POPC   C4A 1161   6.409   7.577   7.266  0.2199  0.1793  0.2275
   56POPC   C1B 1162   4.611   8.491   7.954  0.0998 -0.1324 -0.0618
   56POPC   C2B 1163   4.839   8.721   7.630 -0.2060  0.0480 -0.1497
   56POPC   C3B 1164   5.220   8.746   7.886  0.4442 -0.2261  0.3443
   56POPC   C4B 1165   5.433   9.094   7.976 -0.0120  0.1737 -0.2321
   57POPC   NC3 1166   4.306   1.453   8.793 -0.3346  0.0332 -0.1941
   57POPC   PO4 1167   4.119   1.069   8.834  0.2443 -0.1352 -0.0621
   57POPC   GL1 1168   4.168   0.679   8.579 -0.4999 -0.1892  0.1597
   57POPC   GL2 1169   4.339   0.437   8.415 -0.0454  0.3991  0.1240
   57POPC   C1A 1170   3.888   0.423   8.213 -0.0601 -0.2333 -0.0979
   57POPC   D2A 1171   3.783   0.462   7.764 -0.0443 -0.2878 -0.2204
   57POPC   C3A 1172   3.476   0.080   7.530  0.0569 -0.4300  0.0066
   57POPC   C4A 1173   3.103   0.206   7.297  0.1011 -0.0846  0.1390
   57POPC   C1B 1174   4.423   0.397   8.042  0.2962  0.1769  0.2763
   57POPC   C2B 1175   4.133   0.016   7.950  0.1621 -0.2757 -0.1798
   57POPC   C3B 1176   3.743  -0.032   8.017  0.4868 -0.1333  0.0679
   57POPC   C4B 1177   3.411  -0.090   8.114  0.1123  0.0124 -0.2582
   58POPC   NC3 1178   2.265   6.130   8.925  0.3411 -0.0633  0.1192
   58POPC   PO4 1179   2.084   6.525   8.691  0.2592 -0.1860 -0.3084
   58POPC   GL1 1180   2.176   6.749   8.296 -0.3746  0.1514 -0.3005
   58POPC   GL2 1181   1.867   6.710   8.230 -0.1408  0.2750 -0.0298
   58POPC   C1A 1182   2.169   7.107   8.167  0.1659  0.0246 -0.2294
   58POPC   D2A 1183   2.102   7.525   7.788  0.1645  0.1642  0.1716
   58POPC   C3A 1184   1.822   7.560   7.402  0.0054 -0.1546  0.0116
   58POPC   C4A 1185   1.490   7.712   7.050  0.2083  0.2107 -0.0824
   58POPC   C1B 1186   1.644   6.583   7.841  0.1437  0.1183 -0.2158
   58POPC   C2B 1187   1.494   6.487   7.411 -0.0362  0.0678 -0.0026
   58POPC   C3B 1188   1.269   6.473   6.988 -0.2921  0.1581 -0.3217
   58POPC   C4B 1189   0.950   6.299   6.772  0.1943 -0.2798 -0.0337
   59POPC   NC3 1190   1.188   5.672   8.306 -0.1268 -0.0170 -0.0121
   59POPC   PO4 1191   1.026   6.135   8.396 -0.0597  0.1305  0.1974
   59POPC   GL1 1192   1.183   6.046   7.981  0.2319  0.3486 -0.1605
   59POPC   GL2 1193   1.218   6.324   7.776  0.1762  0.1317 -0.2996
   59POPC   C1A 1194   1.300   5.800   7.673  0.1052  0.0262  0.1689
   59POPC   D2A 1195   1.210   5.991   7.282  0.0269 -0.1098 -0.1562
   59POPC   C3A 1196   1.567   6.108   7.067 -0.0936 -0.1667 -0.1658
   59POPC   C4A 1197   1.734   6.256   6.792  0.1170 -0.0990 -0.1472
   59POPC   C1B 1198   0.869   6.409   7.469 -0.3867 -0.1823  0.1096
   59POPC   C2B 1199   0.658   6.192   7.215 -0.2099 -0.1192 -0.0028
   59POPC   C3B 1200   0.421   6.013   7.013  0.2139 -0.0970 -0.3315
   59POPC   C4B 1201   0.143   5.909   6.671  0.0400  0.2218  0.2162
   60POPC   NC3 1202   5.584   0.662   8.858  0.0403 -0.0583 -0.1550
   60POPC   PO4 1203   5.949   0.471   8.548 -0.0322  0.1821 -0.3113
   60POPC   GL1 1204   6.136   0.282   8.153  0.0307 -0.2298 -0.3685
   60POPC   GL2 1205   6.327   0.012   8.179 -0.0298  0.1773 -0.2098
   60POPC   C1A 1206   5.896   0.061   7.780  0.1196  0.1028 -0.0028
   60POPC   D2A 1207   5.841   0.142   7.443 -0.0991  0.2655 -0.1092
   60POPC   C3A 1208   6.014   0.401   7.119 -0.2962 -0.0641 -0.1356
   60POPC   C4A 1209   6.327   0.379   6.899 -0.1329  0.2006 -0.2064
   60POPC   C1B 1210   6.417  -0.107   7.697  0.3711 -0.0654  0.2675
   60POPC   C2B 1211   6.119  -0.312   7.436  0.2289 -0.0678 -0.4568
   60POPC   C3B 1212   5.726  -0.385   7.352  0.2551 -0.1353  0.0177
   60POPC   C4B 1213   5.287  -0.562   7.434  0.4059 -0.1159 -0.1093
   61POPC   NC3 1214   8.690   1.256   8.835 -0.3240 -0.1389  0.1165
   61POPC   PO4 1215   8.562   1.016   9.185  0.0153  0.2020  0.2647
   61POPC   GL1 1216   8.621   0.798   8.725  0.3335 -0.2812 -0.0569
   61POPC   GL2 1217   8.814   0.797   8.443 -0.1451 -0.1250  0.1121
   61POPC   C1A 1218   8.760   0.319   8.325  0.4493  0.2208  0.0310
   61POPC   D2A 1219   9.065   0.080   8.011 -0.0387 -0.1033 -0.1114
   61POPC   C3A 1220   9.237  -0.262   7.774  0.1833 -0.5990 -0.3031
   61POPC   C4A 1221   9.004  -0.463   7.450 -0.1186  0.1177  0.0212
   61POPC   C1B 1222   8.939   0.765   8.030 -0.3581  0.2102 -0.1767
   61POPC   C2B 1223   9.042   0.940   7.578 -0.3550 -0.0983 -0.0453
   61POPC   C3B 1224   9.326   0.953   7.129  0.2670  0.0098  0.0695
   61POPC   C4B 1225   9.363   0.964   6.737  0.0948  0.0443  0.0830
   62POPC   NC3 1226   3.325   2.448   8.349  0.0986  0.2580 -0.3264
   62POPC   PO4 1227   3.025   2.131   8.606 -0.4439 -0.2462  0.1143
   62POPC   GL1 1228   3.099   2.019   8.177  0.1118  0.1615  0.1579
   62POPC   GL2 1229   3.402   1.980   8.079 -0.3669 -0.0204 -0.2016
   62POPC   C1A 1230   3.056   1.599   7.841 -0.2958 -0.1428  0.0349
   62POPC   D2A 1231   2.673   1.498   7.622 -0.0329  0.0782 -0.1124
   62POPC   C3A 1232   2.554   1.197   7.312 -0.2248  0.2227 -0.1132
   62POPC   C4A 1233   2.478   0.851   7.053 -0.1598  0.2714 -0.1518
   62POPC   C1B 1234   3.583   1.870   7.671 -0.0962 -0.1319  0.0605
   62POPC   C2B 1235   3.895   1.740   7.563 -0.1748 -0.0480  0.1784
   62POPC   C3B 1236   4.220   1.670   7.397  0.2557  0.1822  0.0586
   62POPC   C4B 1237   4.464   1.415   7.167  0.1382  0.0517 -0.1649
   63POPC   NC3 1238   1.660   3.031   9.032 -0.1686 -0.1046  0.3401
   63POPC   PO4 1239   1.188   2.848   9.018 -0.2380  0.0547  0.1860
   63POPC   GL1 1240   1.029   2.782   8.623  0.1115 -0.3501  0.0424
   63POPC   GL2 1241   1.014   2.479   8.603 -0.0518  0.3294 -0.0810
   63POPC   C1A 1242   0.875   2.898   8.260  0.1294  0.1749  0.2698
   63POPC   D2A 1243   0.526   2.732   7.996  0.0105 -0.1388  0.1867
   63POPC   C3A 1244   0.437   2.639   7.702 -0.1515 -0.0744 -0.2136
   63POPC   C4A 1245   0.429   2.917   7.380 -0.0804  0.1916 -0.0098
   63POPC   C1B 1246   1.176   2.416   8.141 -0.0871 -0.1485 -0.0494
   63POPC   C2B 1247   1.385   2.408   7.725  0.2906 -0.0557  0.1871
   63POPC   C3B 1248   1.269   2.262   7.338 -0.3987 -0.1299  0.3606
   63POPC   C4B 1249   1.164   2.573   6.939  0.0720  0.1590 -0.2594
   64POPC   NC3 1250   8.418   0.714   9.565  0.0911  0.0968  0.0014
   64POPC   PO4 1251   8.796   0.695   9.482  0.1740  0.1586 -0.1745
   64POPC   GL1 1252   8.698   0.496   9.097 -0.3146 -0.6406  0.0221
   64POPC   GL2 1253   8.979   0.349   9.118 -0.0236 -0.0390  0.4439
   64POPC   C1A 1254   8.495   0.343   8.720 -0.1377 -0.1928 -0.1566
   64POPC   D2A 1255   8.215   0.278   8.424 -0.0127  0.0790 -0.0805
   64POPC   C3A 1256   8.098   0.084   8.153  0.2662  0.0027 -0.0602
   64POPC   C4A 1257   8.192   0.303   7.780 -0.1216 -0.0184 -0.2376
   64POPC   C1B 1258   8.997   0.461   8.745  0.0120  0.1461 -0.1631
   64POPC   C2B 1259   9.331   0.509   8.398  0.1209  0.0396  0.1719
   64POPC   C3B 1260   9.727   0.307   8.542  0.0849  0.0130  0.0564
   64POPC   C4B 1261  10.111   0.136   8.317 -0.0941 -0.4549  0.1660
   65POPC   NC3 1262   3.657  10.331  10.096 -0.1269 -0.2763 -0.0396
   65POPC   PO4 1263   3.876  10.250   9.598 -0.1330 -0.1002  0.0935
   65POPC   GL1 1264   3.650  10.170   9.372  0.0888  0.1888  0.2054
   65POPC   GL2 1265   3.759  10.170   9.089  0.5902 -0.0313  0.1189
   65POPC   C1A 1266   3.218  10.236   9.226 -0.0347 -0.0498  0.1997
   65POPC   D2A 1267   2.810  10.387   9.209  0.1980  0.1744  0.2043
   65POPC   C3A 1268   2.535  10.221   8.990 -0.0137  0.0245 -0.1455
   65POPC   C4A 1269   2.275  10.140   8.719 -0.0606 -0.0897  0.1449
   65POPC   C1B 1270   3.806  10.064   8.655  0.0189 -0.2159 -0.2717
   65POPC   C2B 1271   3.641   9.960   8.188  0.0155 -0.0485 -0.1316
   65POPC   C3B 1272   3.727   9.698   7.947  0.2994 -0.0427 -0.0331
   65POPC   C4B 1273   3.651   9.581   7.454  0.1926 -0.1156 -0.0943
   66POPC   NC3 1274   1.538   6.602   8.585  0.1898 -0.1411  0.0014
   66POPC   PO4 1275   1.521   6.153   8.411 -0.4154 -0.3805  0.1121
   66POPC   GL1 1276   1.777   6.156   8.079  0.1343  0.0034  0.0157
   66POPC   GL2 1277   1.665   5.831   8.041  0.1890  0.1696  0.1021
   66POPC   C1A 1278   1.741   6.110   7.632  0.1186  0.2292 -0.3668
   66POPC   D2A 1279   1.991   6.336   7.374  0.0021 -0.0828 -0.1652
   66POPC   C3A 1280   2.179   6.152   7.030 -0.2680 -0.1619  0.3118
   66POPC   C4A 1281   2.374   6.162   6.617  0.3711 -0.0173 -0.1365
   66POPC   C1B 1282   1.849   5.643   7.617 -0.1237 -0.1886 -0.0496
   66POPC   C2B 1283   1.817   5.695   7.206 -0.3229 -0.0015  0.0907
   66POPC   C3B 1284   1.792   5.784   6.697 -0.0655  0.4436  0.2400
   66POPC   C4B 1285   1.644   6.024   6.352 -0.1290 -0.0770 -0.3445
   67POPC   NC3 1286  10.317   5.652   8.624  0.2154 -0.3235 -0.0846
   67POPC   PO4 1287  10.454   5.913   8.308 -0.2387  0.2447 -0.3169
   67POPC   GL1 1288  10.732   5.928   7.955  0.2358 -0.0047 -0.0582
   67POPC   GL2 1289  10.959   5.714   8.091  0.0971  0.1253  0.1681
   67POPC   C1A 1290  10.728   6.206   7.525 -0.1416  0.2715 -0.1033
   67POPC   D2A 1291  10.648   6.462   7.159  0.0499  0.0946  0.0454
   67POPC   C3A 1292  10.381   6.344   6.809  0.0905 -0.2219  0.2748
   67POPC   C4A 1293  10.275   6.331   6.406 -0.2376  0.2596  0.2537
   67POPC   C1B 1294  10.905   5.621   7.627 -0.0991  0.0452 -0.0541
   67POPC   C2B 1295  10.996   5.499   7.204  0.1345 -0.0423  0.0251
   67POPC   C3B 1296  10.939   5.234   6.912  0.0095 -0.0192  0.0733
   67POPC   C4B 1297  10.781   5.050   6.608 -0.1734  0.0501 -0.0899
   68POPC   NC3 1298   7.069   1.530   8.777 -0.1178 -0.1034 -0.0450
   68POPC   PO4 1299   7.440   1.749   8.607 -0.1150 -0.0406  0.0440
   68POPC   GL1 1300   7.484   1.555   8.236  0.0297  0.0094 -0.1609
   68POPC   GL2 1301   7.091   1.467   8.227  0.1501 -0.2675  0.3467
   68POPC   C1A 1302   7.468   1.358   7.833  0.0569 -0.0400 -0.0483
   68POPC   D2A 1303   7.367   1.233   7.412 -0.4086 -0.0636 -0.1507
   68POPC   C3A 1304   7.588   1.160   6.979  0.0645  0.0514  0.0130
   68POPC   C4A 1305   7.849   1.228   6.588 -0.1550  0.1265 -0.1739
   68POPC   C1B 1306   6.949   1.330   7.781 -0.0565 -0.1633  0.1611
   68POPC   C2B 1307   6.885   1.509   7.323 -0.0306  0.1086 -0.2230
   68POPC   C3B 1308   7.083   1.413   6.979 -0.2806  0.1450  0.0660
   68POPC   C4B 1309   7.111   0.962   6.831  0.0392 -0.1213 -0.1004
   69POPC   NC3 1310   7.880   2.008   8.720  0.0740 -0.0722  0.2836
   69POPC   PO4 1311   8.365   2.221   8.819 -0.1079  0.1319 -0.1425
   69POPC   GL1 1312   8.168   2.291   8.489 -0.1505 -0.1205 -0.1076
   69POPC   GL2 1313   8.354   2.327   8.122 -0.2217  0.0197 -0.0275
   69POPC   C1A 1314   7.893   2.191   8.080  0.1022  0.1320  0.1021
   69POPC   D2A 1315   7.638   2.194   7.691  0.0118  0.1413  0.0248
   69POPC   C3A 1316   7.800   1.894   7.366  0.1262 -0.1591  0.0922
   69POPC   C4A 1317   7.844   1.455   7.275 -0.1297 -0.1430 -0.0004
   69POPC   C1B 1318   8.210   2.235   7.731  0.2405  0.0026  0.1592
   69POPC   C2B 1319   8.261   2.135   7.278  0.0242  0.0160  0.0403
   69POPC   C3B 1320   8.515   2.221   6.932 -0.0075 -0.0747  0.3144
   69POPC   C4B 1321   8.674   2.340   6.531  0.0063 -0.0611 -0.0604
   70POPC   NC3 1322   1.359   8.326  10.090 -0.0560  0.1598 -0.1187
   70POPC   PO4 1323   1.068   8.598   9.955 -0.3021  0.0256  0.2122
   70POPC   GL1 1324   1.209   8.569   9.511 -0.0705  0.0632 -0.2328
   70POPC   GL2 1325   1.505   8.414   9.594 -0.2204 -0.1098  0.0207
   70POPC   C1A 1326   1.130   8.347   9.231  0.1307 -0.0071 -0.0963
   70POPC   D2A 1327   1.351   8.194   8.911  0.0402 -0.1056  0.1969
   70POPC   C3A 1328   1.392   8.545   8.611 -0.1026 -0.1094  0.1418
   70POPC   C4A 1329   1.515   8.835   8.289  0.4604 -0.2029 -0.2146
   70POPC   C1B 1330   1.612   8.490   9.143 -0.1215  0.2598 -0.1733
   70POPC   C2B 1331   1.872   8.372   8.775 -0.1860  0.0317 -0.1991
   70POPC   C3B 1332   2.160   8.217   8.516  0.0831  0.0224  0.0919
   70POPC   C4B 1333   2.209   8.365   8.105  0.1218 -0.1680  0.2610
   71POPC   NC3 1334   4.912   1.709   8.544 -0.1820  0.0766  0.0231
   71POPC   PO4 1335   5.193   2.125   8.592  0.1648 -0.0916 -0.0424
   71POPC   GL1 1336   5.103   2.114   8.296 -0.1300 -0.0430 -0.0073
   71POPC   GL2 1337   5.487   2.181   8.217  0.2166  0.0458 -0.0027
   71POPC   C1A 1338   5.078   2.130   7.813  0.1670 -0.1656 -0.2903
   71POPC   D2A 1339   5.320   2.261   7.465  0.0803  0.0371 -0.0916
   71POPC   C3A 1340   5.342   2.318   7.070 -0.0543  0.1323  0.0914
   71POPC   C4A 1341   5.255   2.480   6.628 -0.1354  0.0449 -0.0872
   71POPC   C1B 1342   5.603   1.997   7.845 -0.6243  0.0506 -0.2371
   71POPC   C2B 1343   5.327   1.611   7.587 -0.1305  0.4838  0.0200
   71POPC   C3B 1344   5.082   1.438   7.288  0.0051  0.0220 -0.0077
   71POPC   C4B 1345   5.221   1.062   7.025 -0.2008  0.1035 -0.3701
   72POPC   NC3 1346  10.370   0.098   9.619  0.0624 -0.0007 -0.2040
   72POPC   PO4 1347  10.186  -0.279   9.429 -0.1168 -0.1858 -0.4093
   72POPC   GL1 1348  10.422  -0.486   9.179 -0.1901  0.0209  0.0283
   72POPC   GL2 1349  10.287  -0.853   9.350 -0.3014  0.2047 -0.1419
   72POPC   C1A 1350  10.801  -0.601   8.820 -0.0616  0.1089 -0.1738
   72POPC   D2A 1351  10.742  -0.750   8.441  0.1045 -0.2264  0.2555
   72POPC   C3A 1352  10.957  -1.092   8.340  0.1076 -0.1966  0.0536
   72POPC   C4A 1353  11.098  -1.416   8.077 -0.2377 -0.0732 -0.1535
   72POPC   C1B 1354  10.674  -0.980   9.231 -0.1030 -0.2814 -0.1322
   72POPC   C2B 1355  11.086  -0.951   9.036  0.0804 -0.0386  0.0007
   72POPC   C3B 1356  11.434  -0.644   9.186  0.2889  0.1763  0.1420
   72POPC   C4B 1357  11.674  -0.191   9.102 -0.4006 -0.0701  0.1916
   73POPC   NC3 1358   4.938   8.882   9.123 -0.2790  0.1393 -0.1043
   73POPC   PO4 1359   4.608   8.873   8.989 -0.1182 -0.0192 -0.2094
   73POPC   GL1 1360   4.678   9.097   8.575  0.1397  0.0031  0.0538
   73POPC   GL2 1361   4.501   9.340   8.664  0.2601 -0.2293  0.3139
   73POPC   C1A 1362   4.791   9.141   8.125  0.0905 -0.1763  0.3487
   73POPC   D2A 1363   4.597   9.233   7.784 -0.0470 -0.4691  0.3665
   73POPC   C3A 1364   4.629   8.984   7.320  0.3411 -0.0672  0.2146
   73POPC   C4A 1365   4.555   9.156   6.884 -0.0677  0.0383  0.0460
   73POPC   C1B 1366   4.614   9.642   8.464  0.2395 -0.0129 -0.2043
   73POPC   C2B 1367   4.529   9.763   8.105 -0.0360 -0.0475  0.0363
   73POPC   C3B 1368   4.553   9.892   7.764 -0.1691 -0.0203 -0.1881
   73POPC   C4B 1369   4.712   9.984   7.392  0.2908  0.0278  0.1103
   74POPC   NC3 1370   1.525   2.769   8.569 -0.1851 -0.2955 -0.4257
   74POPC   PO4 1371   1.966   2.671   8.822 -0.3154 -0.2587 -0.1231
   74POPC   GL1 1372   2.097   2.382   8.543 -0.5123 -0.0731 -0.0585
   74POPC   GL2 1373   1.881   2.587   8.268 -0.0249  0.1495 -0.2708
   74POPC   C1A 1374   2.134   2.033   8.222  0.0908  0.0222  0.0450
   74POPC   D2A 1375   2.062   1.885   7.782  0.1026 -0.2181 -0.3585
   74POPC   C3A 1376   2.395   1.864   7.422  0.0791  0.2102 -0.2832
   74POPC   C4A 1377   2.642   2.085   7.095  0.0647 -0.3163  0.0718
   74POPC   C1B 1378   1.880   2.361   7.900 -0.1951 -0.0414 -0.4210
   74POPC   C2B 1379   1.743   2.127   7.494 -0.1285 -0.1487 -0.0538
   74POPC   C3B 1380   1.661   1.719   7.327  0.0160  0.3577  0.1168
   74POPC   C4B 1381   1.511   1.334   7.200  0.0851  0.0845 -0.0517
   75POPC   NC3 1382   1.965   7.929   9.235 -0.0168  0.1552 -0.0444
   75POPC   PO4 1383   1.997   7.548   9.150 -0.2882  0.0750 -0.0037
   75POPC   GL1 1384   1.823   7.689   8.755  0.1804 -0.0062  0.2018
   75POPC   GL2 1385   1.988   7.553   8.373 -0.1963 -0.1170  0.1473
   75POPC   C1A 1386   1.658   8.043   8.480  0.0441  0.2943 -0.1337
   75POPC   D2A 1387   1.595   8.355   8.205  0.3641  0.3209  0.2654
   75POPC   C3A 1388   1.415   8.193   7.746  0.1503 -0.0532  0.1050
   75POPC   C4A 1389   1.624   8.030   7.389 -0.2040  0.0361 -0.5500
   75POPC   C1B 1390   1.891   7.920   8.013  0.1002  0.1020 -0.1497
   75POPC   C2B 1391   1.908   8.287   7.728  0.0122  0.0347 -0.4648
   75POPC   C3B 1392   1.883   8.633   7.388 -0.2493 -0.3169  0.0765
   75POPC   C4B 1393   2.343   8.737   7.281  0.1937 -0.3186  0.0406
   76POPC   NC3 1394   4.525   1.041   9.272 -0.1692  0.1741  0.1433
   76POPC   PO4 1395   4.788   1.327   8.843  0.1334  0.1653 -0.3367
   76POPC   GL1 1396   4.871   1.254   8.434 -0.4349 -0.1720  0.0996
   76POPC   GL2 1397   4.551   1.301   8.340 -0.2694  0.1841 -0.0813
   76POPC   C1A 1398   5.195   1.119   8.168 -0.3900 -0.0832 -0.0801
   76POPC   D2A 1399   5.538   1.010   7.885  0.0510  0.4531  0.0646
   76POPC   C3A 1400   5.506   1.188   7.467 -0.0332 -0.2463 -0.0289
   76POPC   C4A 1401   5.563   1.456   7.013  0.1139 -0.1129  0.2240
   76POPC   C1B 1402   4.574   1.340   7.965  0.1263  0.2414 -0.1136
   76POPC   C2B 1403   4.511   1.121   7.575  0.0501  0.0419 -0.0754
   76POPC   C3B 1404   4.679   0.864   7.278 -0.0995 -0.1381  0.0182
   76POPC   C4B 1405   4.679   0.943   6.883 -0.4765  0.0195 -0.2514
   77POPC   NC3 1406   0.102   5.414   8.305  0.0821 -0.0498  0.0731
   77POPC   PO4 1407   0.323   5.106   8.609 -0.0175  0.3473 -0.2969
   77POPC   GL1 1408   0.587   4.952   8.182  0.0835  0.2099  0.0820
   77POPC   GL2 1409   0.491   5.133   8.089 -0.0032 -0.2666 -0.0691
   77POPC   C1A 1410   0.702   4.729   7.810  0.1262 -0.0167  0.1418
   77POPC   D2A 1411   0.899   4.727   7.418  0.2514 -0.1817  0.1609
   77POPC   C3A 1412   1.000   5.077   7.107 -0.0130 -0.2257 -0.0085
   77POPC   C4A 1413   0.867   5.320   6.722 -0.2263  0.0753 -0.5374
   77POPC   C1B 1414   0.290   5.091   7.723 -0.0255 -0.2023  0.0465
   77POPC   C2B 1415  -0.013   5.090   7.289 -0.5074 -0.0185 -0.2017
   77POPC   C3B 1416   0.129   4.721   7.001 -0.1791  0.1128 -0.2101
   77POPC   C4B 1417   0.342   4.245   7.123 -0.1297 -0.0403  0.1022
   78POPC   NC3 1418   0.329   4.631   8.517 -0.2003  0.1191 -0.0681
   78POPC   PO4 1419   0.016   4.283   8.544  0.4009  0.3009  0.3262
   78POPC   GL1 1420  -0.123   4.174   8.146 -0.1247 -0.0778  0.0118
   78POPC   GL2 1421  -0.114   4.463   7.935  0.0970  0.1767 -0.0547
   78POPC   C1A 1422  -0.329   3.955   7.843  0.2186  0.0923 -0.0905
   78POPC   D2A 1423  -0.460   4.061   7.443 -0.1779  0.2889  0.0138
   78POPC   C3A 1424  -0.257   4.286   7.082 -0.2104  0.0755 -0.0914
   78POPC   C4A 1425  -0.212   4.118   6.664  0.1456 -0.1621 -0.1942
   78POPC   C1B 1426   0.064   4.107   7.634 -0.1997  0.1058  0.3250
   78POPC   C2B 1427   0.058   3.835   7.291  0.2073  0.0360 -0.2489
   78POPC   C3B 1428   0.053   3.789   6.911 -0.2141 -0.0423 -0.1392
   78POPC   C4B 1429   0.048   3.486   6.479 -0.2947 -0.2278 -0.1873
   79POPC   NC3 1430   9.229   6.240   8.386  0.1927  0.3231  0.4664
   79POPC   PO4 1431   9.618   6.266   8.367  0.2082  0.1742  0.0349
   79POPC   GL1 1432   9.664   6.164   7.919  0.0347  0.0937  0.1323
   79POPC   GL2 1433   9.865   5.925   7.777  0.1469 -0.1787  0.1952
   79POPC   C1A 1434   9.682   6.390   7.531  0.0984 -0.0504 -0.0125
   79POPC   D2A 1435   9.555   6.797   7.297 -0.1167  0.2060  0.1134
   79POPC   C3A 1436   9.431   6.669   6.954  0.0239  0.0377 -0.1768
   79POPC   C4A 1437   9.122   6.865   6.648  0.2183  0.1144 -0.0903
   79POPC   C1B 1438   9.554   5.870   7.490  0.0618  0.0746  0.2619
   79POPC   C2B 1439   9.488   5.731   7.081 -0.0640  0.0825 -0.1277
   79POPC   C3B 1440   9.323   5.955   6.771 -0.2840 -0.2125 -0.1076
   79POPC   C4B 1441   9.043   5.942   6.471 -0.0723 -0.1071 -0.1334
   80POPC   NC3 1442   1.778   0.912   9.424 -0.2589 -0.0032 -0.0203
   80POPC   PO4 1443   1.373   0.660   9.531 -0.1588 -0.1924 -0.1052
   80POPC   GL1 1444   1.419   0.641   9.127 -0.0030 -0.0984 -0.1669
   80POPC   GL2 1445   1.083   0.666   8.956 -0.0911 -0.0588 -0.1272
   80POPC   C1A 1446   1.515   0.520   8.806 -0.2335  0.3546 -0.5063
   80POPC   D2A 1447   1.480   0.379   8.363  0.3998 -0.1578  0.0862
   80POPC   C3A 1448   1.143   0.259   8.193  0.1271 -0.1943  0.0974
   80POPC   C4A 1449   0.816   0.563   8.019 -0.0411 -0.0672 -0.0089
   80POPC   C1B 1450   0.690   0.583   9.102  0.1044  0.2019 -0.0316
   80POPC   C2B 1451   0.271   0.641   8.911  0.4257  0.1089  0.0624
   80POPC   C3B 1452   0.228   0.816   8.509 -0.2315  0.4461 -0.1992
   80POPC   C4B 1453   0.421   1.045   8.175  0.0764  0.2158 -0.1025
   81POPC   NC3 1454   7.252   4.661   8.963 -0.1947  0.1369  0.0111
   81POPC   PO4 1455   6.888   4.865   8.618  0.0680  0.2106 -0.3734
   81POPC   GL1 1456   6.509   4.849   8.364 -0.0167 -0.1311 -0.0732
   81POPC   GL2 1457   6.280   5.057   8.297 -0.1041 -0.2265 -0.1509
   81POPC   C1A 1458   6.475   4.617   8.010 -0.0475 -0.0605  0.0087
   81POPC   D2A 1459   6.532   4.228   7.850 -0.3097  0.3675  0.2008
   81POPC   C3A 1460   6.740   4.005   8.143 -0.0887  0.0966 -0.1111
   81POPC   C4A 1461   7.226   3.942   8.292  0.1271  0.2877 -0.3147
   81POPC   C1B 1462   5.892   4.992   7.994 -0.3131  0.0782 -0.1675
   81POPC   C2B 1463   5.825   4.937   7.526  0.1365 -0.4715 -0.2403
   81POPC   C3B 1464   5.942   4.592   7.173 -0.1245  0.1812 -0.0158
   81POPC   C4B 1465   6.051   4.164   7.025 -0.1776 -0.0509  0.2056
   82POPC   NC3 1466   3.849   1.921   8.266  0.0171  0.2571 -0.2805
   82POPC   PO4 1467   4.192   1.744   8.415  0.0034  0.0598  0.1338
   82POPC   GL1 1468   4.148   1.557   8.031  0.2482  0.2057 -0.1222
   82POPC   GL2 1469   3.976   1.297   8.192 -0.1958  0.0822 -0.0779
   82POPC   C1A 1470   4.069   1.314   7.729 -0.1548  0.0830  0.1536
   82POPC   D2A 1471   4.028   1.195   7.336  0.1127 -0.1295  0.1215
   82POPC   C3A 1472   3.941   1.517   6.956 -0.0027 -0.2984 -0.3475
   82POPC   C4A 1473   4.080   1.393   6.584  0.1396  0.1610  0.2689
   82POPC   C1B 1474   4.254   0.959   8.039 -0.3637 -0.1064 -0.0022
   82POPC   C2B 1475   4.122   0.796   7.673 -0.2265  0.2720 -0.2650
   82POPC   C3B 1476   4.181   0.738   7.278 -0.1398 -0.5719  0.1034
   82POPC   C4B 1477   4.303   0.471   6.970  0.3495  0.1022  0.0946
   83POPC   NC3 1478   3.303   5.898   8.696 -0.1943 -0.3908  0.2145
   83POPC   PO4 1479   3.709   5.799   8.848  0.3299  0.2476 -0.0238
   83POPC   GL1 1480   3.661   5.726   8.336 -0.0058 -0.0462 -0.1243
   83POPC   GL2 1481   3.996   5.476   8.397 -0.0736 -0.0088 -0.1970
   83POPC   C1A 1482   3.902   5.677   7.932  0.1608  0.2940  0.2215
   83POPC   D2A 1483   4.000   5.809   7.506 -0.2037  0.2210 -0.0331
   83POPC   C3A 1484   4.143   6.231   7.276 -0.0644  0.0807 -0.2287
   83POPC   C4A 1485   4.216   6.587   7.265 -0.1716 -0.4563  0.1120
   83POPC   C1B 1486   3.994   5.203   7.981  0.0682  0.1257 -0.2774
   83POPC   C2B 1487   4.117   4.718   7.955 -0.0905  0.2404 -0.2850
   83POPC   C3B 1488   4.338   4.605   7.599  0.0589 -0.1612  0.0795
   83POPC   C4B 1489   4.369   4.640   7.164  0.0407  0.0611  0.0087
   84POPC   NC3 1490   6.866   6.233   8.649 -0.1590 -0.3260 -0.1289
   84POPC   PO4 1491   7.213   6.180   8.440  0.0046 -0.3752  0.4977
   84POPC   GL1 1492   6.909   6.033   8.053  0.1218  0.0716 -0.2094
   84POPC   GL2 1493   6.791   5.822   8.223  0.2300 -0.0220  0.2862
   84POPC   C1A 1494   6.878   6.002   7.566 -0.4746  0.1344 -0.0986
   84POPC   D2A 1495   6.975   5.607   7.356 -0.1347 -0.0714  0.2303
   84POPC   C3A 1496   7.148   5.475   7.000 -0.0076  0.0139  0.2837
   84POPC   C4A 1497   7.465   5.684   6.775 -0.3755 -0.0489 -0.1047
   84POPC   C1B 1498   6.551   5.637   7.800  0.0382 -0.1189 -0.4029
   84POPC   C2B 1499   6.281   5.714   7.435  0.1451  0.2704  0.2794
   84POPC   C3B 1500   6.003   5.807   7.122  0.0250  0.0631 -0.1902
   84POPC   C4B 1501   5.632   5.957   7.102  0.0368 -0.0345 -0.1837
   85POPC   NC3 1502   9.341   3.564   8.719  0.2609 -0.2688 -0.2220
   85POPC   PO4 1503   9.590   3.438   8.723 -0.0437  0.1928  0.2218
   85POPC   GL1 1504   9.514   3.166   8.398  0.0068 -0.1839 -0.1867
   85POPC   GL2 1505   9.323   3.451   8.219 -0.0217  0.0988 -0.0680
   85POPC   C1A 1506   9.733   3.277   8.030  0.0113 -0.1349  0.2389
   85POPC   D2A 1507   9.827   3.515   7.699 -0.1344  0.1572  0.3017
   85POPC   C3A 1508   9.773   3.291   7.405 -0.0335  0.0504  0.0808
   85POPC   C4A 1509   9.337   3.191   7.190  0.0070 -0.0605 -0.2180
   85POPC   C1B 1510   9.252   3.226   7.793 -0.0029 -0.1065  0.1276
   85POPC   C2B 1511   9.064   2.904   7.844  0.1607 -0.1573  0.2850
   85POPC   C3B 1512   9.226   2.390   7.812 -0.2564 -0.0377  0.0236
   85POPC   C4B 1513   9.164   1.895   7.945  0.2960 -0.0916 -0.0584
   86POPC   NC3 1514  10.430   2.921   8.590 -0.2143 -0.3998 -0.0887
   86POPC   PO4 1515  10.778   3.223   8.692 -0.1681  0.2455  0.1437
   86POPC   GL1 1516  10.715   3.122   8.218  0.4005 -0.3531 -0.0437
   86POPC   GL2 1517  10.514   2.813   8.140  0.0513  0.1954  0.2237
   86POPC   C1A 1518  10.660   3.128   7.770 -0.0012  0.1571 -0.0662
   86POPC   D2A 1519  10.838   3.485   7.595 -0.0119 -0.0380 -0.0952
   86POPC   C3A 1520  11.257   3.414   7.367 -0.1546  0.0866 -0.0285
   86POPC   C4A 1521  11.607   3.413   7.011 -0.3912 -0.1285  0.2723
   86POPC   C1B 1522  10.443   2.670   7.595 -0.1431 -0.0136 -0.1539
   86POPC   C2B 1523  10.313   2.453   7.257 -0.1646 -0.1797 -0.2220
   86POPC   C3B 1524  10.453   2.106   6.954 -0.0549  0.0643 -0.2819
   86POPC   C4B 1525  10.362   1.840   6.544 -0.0190 -0.0502  0.0198
   87POPC   NC3 1526   2.758   4.498   8.508 -0.4668 -0.1628 -0.0789
   87POPC   PO4 1527   3.049   4.182   8.441 -0.0285  0.1197 -0.1374
   87POPC   GL1 1528   2.850   4.202   8.058 -0.1566  0.5938  0.2589
   87POPC   GL2 1529   2.865   4.499   8.046 -0.2667 -0.0953  0.2248
   87POPC   C1A 1530   2.744   4.161   7.559  0.2106 -0.1488  0.1377
   87POPC   D2A 1531   2.884   4.243   7.152  0.2339  0.1944 -0.1151
   87POPC   C3A 1532   2.821   3.894   6.910 -0.0241 -0.0500  0.1531
   87POPC   C4A 1533   2.849   3.542   6.643  0.1156 -0.3127  0.1344
   87POPC   C1B 1534   3.063   4.693   7.686  0.0947  0.1039  0.1943
   87POPC   C2B 1535   3.383   4.798   7.468  0.0195  0.0908 -0.0787
   87POPC   C3B 1536   3.293   4.687   7.069  0.1947  0.0594 -0.1710
   87POPC   C4B 1537   3.563   4.904   6.825 -0.0109  0.1182  0.1900
   88POPC   NC3 1538   2.206   1.720   9.284  0.1759  0.0484  0.1968
   88POPC   PO4 1539   1.802   1.469   9.358 -0.1527  0.0078 -0.3573
   88POPC   GL1 1540   1.949   1.384   8.979 -0.0406 -0.0264  0.0991
   88POPC   GL2 1541   2.206   1.129   9.107  0.0037  0.1920  0.2632
   88POPC   C1A 1542   1.770   1.411   8.574  0.0014  0.0027  0.0689
   88POPC   D2A 1543   1.836   1.638   8.222 -0.1242  0.2138  0.2037
   88POPC   C3A 1544   1.642   1.515   7.859  0.0889  0.1419  0.0931
   88POPC   C4A 1545   1.263   1.426   7.712  0.0804  0.0933 -0.1906
   88POPC   C1B 1546   2.142   1.057   8.629 -0.3516  0.0565 -0.2008
   88POPC   C2B 1547   2.033   1.141   8.165 -0.0533  0.0434 -0.0673
   88POPC   C3B 1548   1.806   1.003   7.886 -0.2469 -0.0252 -0.0432
   88POPC   C4B 1549   1.553   0.976   7.543  0.0968  0.2044 -0.4380
   89POPC   NC3 1550   7.349   5.085   8.437  0.1283 -0.2290 -0.0112
   89POPC   PO4 1551   7.630   5.304   8.149 -0.0770  0.0141 -0.2192
   89POPC   GL1 1552   7.624   5.340   7.711  0.0793  0.1879  0.2992
   89POPC   GL2 1553   7.818   5.156   7.659 -0.3317 -0.2343 -0.3256
   89POPC   C1A 1554   7.554   5.710   7.482 -0.0235  0.3859 -0.2443
   89POPC   D2A 1555   7.369   6.019   7.243  0.0678  0.1239  0.1108
   89POPC   C3A 1556   7.004   6.081   7.040 -0.0140  0.1823 -0.1186
   89POPC   C4A 1557   6.693   6.303   6.762  0.0126 -0.1433 -0.2872
   89POPC   C1B 1558   7.945   4.856   7.354 -0.2273  0.1936  0.0622
   89POPC   C2B 1559   7.672   4.656   7.211  0.2046 -0.0371 -0.1188
   89POPC   C3B 1560   7.551   4.222   7.061 -0.1005  0.1416  0.0153
   89POPC   C4B 1561   7.180   3.874   7.109  0.2196 -0.2418  0.2523
   90POPC   NC3 1562   9.677   8.844   9.327  0.0522  0.5211  0.0920
   90POPC   PO4 1563   9.336   8.706   9.129  0.4246 -0.0568  0.3274
   90POPC   GL1 1564   9.148   8.570   8.644 -0.1300 -0.1253  0.2610
   90POPC   GL2 1565   8.841   8.473   8.522 -0.3576 -0.2758  0.2483
   90POPC   C1A 1566   9.298   8.385   8.281  0.1799 -0.1568  0.2094
   90POPC   D2A 1567   9.447   7.986   7.938  0.1227 -0.4029 -0.0646
   90POPC   C3A 1568   9.731   7.860   7.780 -0.0068  0.1162  0.2601
   90POPC   C4A 1569  10.185   8.004   7.655 -0.2144 -0.0488 -0.2195
   90POPC   C1B 1570   8.833   8.537   8.059 -0.0885  0.1099 -0.2625
   90POPC   C2B 1571   8.834   8.554   7.555  0.1214 -0.5393 -0.2149
   90POPC   C3B 1572   9.185   8.823   7.430 -0.2187 -0.2096 -0.2730
   90POPC   C4B 1573   9.661   8.757   7.470 -0.0625  0.2941  0.0777
   91POPC   NC3 1574   4.497   4.080   8.673  0.0388 -0.4468 -0.1415
   91POPC   PO4 1575   4.113   4.009   8.537 -0.2176  0.0192 -0.4545
   91POPC   GL1 1576   4.367   4.068   8.182 -0.0990 -0.0152 -0.2820
   91POPC   GL2 1577   4.326   4.337   8.187  0.1765 -0.0117  0.0221
   91POPC   C1A 1578   4.419   3.758   7.760  0.3266 -0.0972  0.2431
   91POPC   D2A 1579   4.570   3.701   7.336 -0.0943  0.1402 -0.1271
   91POPC   C3A 1580   4.259   3.700   6.907  0.0152 -0.1635  0.0543
   91POPC   C4A 1581   4.350   3.613   6.536  0.3074 -0.4079 -0.2687
   91POPC   C1B 1582   4.582   4.573   8.052  0.0521 -0.2642 -0.1662
   91POPC   C2B 1583   4.878   4.642   7.737 -0.0189  0.0230  0.2009
   91POPC   C3B 1584   4.978   4.694   7.314 -0.0096 -0.0075  0.0691
   91POPC   C4B 1585   4.901   4.417   6.884  0.2408 -0.1428 -0.1695
   92POPC   NC3 1586   5.010  10.026   8.983 -0.2751  0.3344 -0.2673
   92POPC   PO4 1587   4.730  10.368   8.900  0.4441  0.0358  0.1967
   92POPC   GL1 1588   4.362  10.172   8.650  0.1726 -0.4017  0.0195
   92POPC   GL2 1589   4.468  10.468   8.480 -0.0367  0.0393 -0.0851
   92POPC   C1A 1590   4.130  10.092   8.294 -0.1217  0.3119 -0.0788
   92POPC   D2A 1591   4.114  10.012   7.898  0.2087 -0.0358  0.4083
   92POPC   C3A 1592   3.718  10.109   7.702  0.1814 -0.0971  0.0436
   92POPC   C4A 1593   3.315  10.013   7.445 -0.4078 -0.0119 -0.1958
   92POPC   C1B 1594   4.556  10.368   8.096 -0.2010 -0.1943 -0.1712
   92POPC   C2B 1595   4.467  10.390   7.590 -0.3542 -0.1010 -0.5326
   92POPC   C3B 1596   4.208  10.067   7.361  0.1871  0.0379  0.1419
   92POPC   C4B 1597   4.172  10.015   6.998  0.2077  0.1169 -0.3443
   93POPC   NC3 1598   5.993   3.173   9.053  0.0425 -0.3655  0.2682
   93POPC   PO4 1599   5.612   2.788   9.139 -0.0881 -0.0215  0.0039
   93POPC   GL1 1600   5.650   3.006   8.676 -0.0136  0.5298 -0.3277
   93POPC   GL2 1601   5.495   3.259   8.519  0.1085 -0.2488  0.3027
   93POPC   C1A 1602   5.685   2.774   8.237 -0.1258 -0.0338  0.0450
   93POPC   D2A 1603   5.855   2.496   7.996 -0.1991 -0.4803  0.0513
   93POPC   C3A 1604   5.892   2.389   7.519 -0.3798 -0.2369  0.3007
   93POPC   C4A 1605   6.113   2.281   7.213 -0.1760  0.1736  0.1702
   93POPC   C1B 1606   5.300   3.112   8.107 -0.2268  0.0468 -0.0762
   93POPC   C2B 1607   5.432   3.115   7.791  0.0438  0.2921  0.1437
   93POPC   C3B 1608   5.651   2.848   7.565  0.0124  0.0247  0.1030
   93POPC   C4B 1609   5.886   2.976   7.215 -0.1299 -0.0456  0.0919
   94POPC   NC3 1610   5.462   4.567   9.381  0.0519 -0.2368 -0.1630
   94POPC   PO4 1611   5.290   4.269   9.079  0.4304 -0.1756  0.3286
   94POPC   GL1 1612   5.281   4.287   8.606 -0.1989 -0.0814 -0.2743
   94POPC   GL2 1613   5.556   4.375   8.451 -0.1444 -0.1440 -0.4636
   94POPC   C1A 1614   4.984   4.339   8.203 -0.0376  0.0413 -0.0564
   94POPC   D2A 1615   5.173   4.208   7.829 -0.0737  0.2925  0.0768
   94POPC   C3A 1616   5.015   3.772   7.576 -0.0980  0.0592  0.1593
   94POPC   C4A 1617   5.066   3.512   7.187 -0.0169 -0.0177 -0.0313
   94POPC   C1B 1618   5.652   4.084   8.256 -0.0965  0.0449 -0.1475
   94POPC   C2B 1619   5.572   3.951   7.815 -0.3514  0.1554 -0.0944
   94POPC   C3B 1620   5.385   4.099   7.351 -0.0566 -0.1574  0.5665
   94POPC   C4B 1621   5.057   4.001   7.110 -0.3505  0.1830  0.2113
   95POPC   NC3 1622   8.707   4.847   8.652 -0.0047 -0.1912  0.0571
   95POPC   PO4 1623   8.929   5.142   8.561 -0.0755 -0.2997  0.0114
   95POPC   GL1 1624   8.938   5.039   8.181  0.2035  0.1653  0.0730
   95POPC   GL2 1625   8.850   5.330   8.094  0.0767 -0.1799  0.1833
   95POPC   C1A 1626   8.935   4.714   8.000 -0.0806 -0.2842 -0.0086
   95POPC   D2A 1627   8.828   4.515   7.580  0.0141 -0.1062 -0.0799
   95POPC   C3A 1628   9.003   4.645   7.124  0.0387  0.0600 -0.1773
   95POPC   C4A 1629   9.360   4.541   6.828 -0.0486  0.4920 -0.2117
   95POPC   C1B 1630   8.602   5.200   7.876 -0.0330 -0.4326 -0.0351
   95POPC   C2B 1631   8.313   5.139   7.559  0.0899 -0.1441 -0.1444
   95POPC   C3B 1632   8.262   5.169   7.113  0.0117 -0.5121  0.1653
   95POPC   C4B 1633   7.989   4.880   6.858  0.0821 -0.1881 -0.2129
   96POPC   NC3 1634   9.986   0.891   9.421 -0.1186 -0.1262  0.0241
   96POPC   PO4 1635  10.159   0.517   9.313 -0.1692  0.3218  0.0873
   96POPC   GL1 1636  10.288   0.267   8.822 -0.0166 -0.0618  0.1757
   96POPC   GL2 1637  10.291  -0.137   8.871  0.1401 -0.0456  0.1306
   96POPC   C1A 1638  10.626   0.314   8.537  0.1328  0.0493 -0.4396
   96POPC   D2A 1639  10.815   0.542   8.037  0.1168  0.1429  0.1644
   96POPC   C3A 1640  10.612   0.624   7.654 -0.1618  0.0239  0.1271
   96POPC   C4A 1641  10.270   0.612   7.373 -0.0152  0.1014  0.1449
   96POPC   C1B 1642  10.262  -0.514   8.616  0.2746 -0.0119 -0.1891
   96POPC   C2B 1643  10.366  -0.889   8.742 -0.1544 -0.1931  0.0398
   96POPC   C3B 1644  10.450  -1.248   8.432  0.2451 -0.0613  0.3038
   96POPC   C4B 1645  10.223  -1.305   7.982  0.0863 -0.1207  0.1914
   97POPC   NC3 1646  10.111   9.157  10.116  0.0429  0.2758 -0.2358
   97POPC   PO4 1647  10.093   9.300   9.660  0.0059 -0.1908  0.2228
   97POPC   GL1 1648  10.368   9.119   9.336 -0.0187 -0.3251 -0.0989
   97POPC   GL2 1649  10.171   8.906   9.325  0.0593 -0.1486  0.0713
   97POPC   C1A 1650  10.508   9.131   8.957  0.1169  0.0461 -0.0092
   97POPC   D2A 1651  10.935   9.174   8.777  0.1914 -0.0084  0.2467
   97POPC   C3A 1652  11.249   9.072   9.007 -0.0366 -0.0631  0.1589
   97POPC   C4A 1653  11.576   9.384   9.112 -0.1377 -0.0888  0.0772
   97POPC   C1B 1654  10.154   8.880   8.819 -0.2127  0.2284 -0.0672
   97POPC   C2B 1655  10.589   8.802   8.609 -0.0486  0.0498 -0.2406
   97POPC   C3B 1656  10.991   8.760   8.451 -0.0911 -0.0756 -0.2403
   97POPC   C4B 1657  11.379   8.908   8.446  0.0059 -0.1532  0.2171
   98POPC   NC3 1658   3.432   5.229   8.448  0.3921 -0.0071 -0.2187
   98POPC   PO4 1659   3.355   5.423   8.721  0.2190  0.0242  0.0199
   98POPC   GL1 1660   3.161   5.607   8.312  0.2456 -0.2807 -0.3155
   98POPC   GL2 1661   2.883   5.543   8.224 -0.1612 -0.0974  0.0220
   98POPC   C1A 1662   3.403   5.668   7.947  0.2253  0.3388  0.3253
   98POPC   D2A 1663   3.554   5.846   7.540  0.0735 -0.1814  0.2498
   98POPC   C3A 1664   3.223   5.645   7.320  0.2209  0.1955 -0.2251
   98POPC   C4A 1665   2.797   5.698   7.335 -0.1926 -0.0885 -0.1545
   98POPC   C1B 1666   2.876   5.753   7.899 -0.0915 -0.0742 -0.0810
   98POPC   C2B 1667   3.079   6.070   7.618  0.3423 -0.1046 -0.0395
   98POPC   C3B 1668   3.164   6.138   7.320  0.1769 -0.2639 -0.3669
   98POPC   C4B 1669   3.128   5.974   6.955  0.1473  0.2628 -0.1410
   99POPC   NC3 1670   7.809   4.054   9.037 -0.4110 -0.0814 -0.2927
   99POPC   PO4 1671   7.846   4.494   8.833 -0.0766 -0.1057  0.2032
   99POPC   GL1 1672   8.237   4.556   8.469  0.2479 -0.1044  0.1612
   99POPC   GL2 1673   8.380   4.842   8.226 -0.4182 -0.0976  0.0578
   99POPC   C1A 1674   8.458   4.389   8.119 -0.2877  0.3066  0.1469
   99POPC   D2A 1675   8.330   4.188   7.773  0.0457 -0.1523  0.2142
   99POPC   C3A 1676   7.977   3.810   7.674  0.4767 -0.1304  0.0200
   99POPC   C4A 1677   7.812   3.804   7.262  0.3398  0.1014 -0.0446
   99POPC   C1B 1678   8.258   4.721   7.807 -0.0426  0.1408  0.2212
   99POPC   C2B 1679   8.344   4.634   7.501 -0.0075  0.2282  0.4464
   99POPC   C3B 1680   8.387   4.652   7.103 -0.0834 -0.1184 -0.0917
   99POPC   C4B 1681   8.437   4.600   6.673 -0.4595 -0.1488 -0.1344
  100POPC   NC3 1682   7.983   2.433   9.169  0.1435 -0.1468  0.1574
  100POPC   PO4 1683   7.985   2.625   8.804 -0.3040 -0.0977 -0.0907
  100POPC   GL1 1684   7.795   2.604   8.332 -0.1171 -0.2368 -0.0223
  100POPC   GL2 1685   7.736   2.856   8.387 -0.0287 -0.0305 -0.0813
  100POPC   C1A 1686   8.082   2.698   7.966  0.0531 -0.2010  0.1331
  100POPC   D2A 1687   8.211   2.796   7.583  0.0886 -0.2412 -0.0045
  100POPC   C3A 1688   8.569   3.110   7.609  0.0021 -0.2076 -0.0172
  100POPC   C4A 1689   8.840   3.456   7.459  0.2621 -0.2272 -0.0473
  100POPC   C1B 1690   7.648   2.950   7.998 -0.0265 -0.0626  0.0105
  100POPC   C2B 1691   7.713   2.637   7.650 -0.3297 -0.2402  0.0576
  100POPC   C3B 1692   7.856   2.464   7.323 -0.0597  0.0225 -0.3366
  100POPC   C4B 1693   8.092   2.594   7.052 -0.2880 -0.0628 -0.1592
  101POPC   NC3 1694   5.849  10.100   9.062  0.0921 -0.2459 -0.3072
  101POPC   PO4 1695   6.086   9.847   8.748  0.2085 -0.3326 -0.1447
  101POPC   GL1 1696   6.027   9.605   8.382 -0.0942 -0.1422 -0.2197
  101POPC   GL2 1697   6.262   9.356   8.370 -0.4671 -0.1913 -0.3368
  101POPC   C1A 1698   5.852   9.341   8.074  0.0902 -0.1779  0.3745
  101POPC   D2A 1699   5.888   9.284   7.694  0.0303  0.2071 -0.0212
  101POPC   C3A 1700   5.600   9.057   7.513 -0.0227  0.1362  0.3126
  101POPC   C4A 1701   5.541   8.613   7.466  0.3475 -0.0560  0.0554
  101POPC   C1B 1702   6.300   9.465   7.908 -0.0887  0.1045  0.0948
  101POPC   C2B 1703   6.405   9.863   7.681 -0.0452  0.2817 -0.0621
  101POPC   C3B 1704   6.587   9.834   7.232 -0.1083 -0.1604  0.1156
  101POPC   C4B 1705   6.467  10.028   6.893 -0.2034  0.4879  0.2049
  102POPC   NC3 1706   2.881   1.678   8.780  0.0839 -0.0088  0.1656
  102POPC   PO4 1707   3.264   1.526   8.533 -0.2578 -0.0720  0.3070
  102POPC   GL1 1708   3.473   1.293   8.175  0.1396  0.3601  0.0817
  102POPC   GL2 1709   3.558   1.490   8.032 -0.0617 -0.0023  0.3227
  102POPC   C1A 1710   3.230   1.052   7.775 -0.2049 -0.0507  0.3206
  102POPC   D2A 1711   3.028   1.018   7.311  0.1063 -0.0555  0.0427
  102POPC   C3A 1712   3.297   0.675   7.131 -0.0021  0.0056 -0.1818
  102POPC   C4A 1713   3.710   0.364   7.119  0.1748 -0.1809  0.0983
  102POPC   C1B 1714   3.589   1.398   7.683 -0.1711  0.0622  0.1087
  102POPC   C2B 1715   3.413   1.394   7.362 -0.3012  0.0938 -0.1409
  102POPC   C3B 1716   3.455   1.296   6.830  0.0367  0.2138 -0.0169
  102POPC   C4B 1717   3.636   1.181   6.444  0.0315  0.2846  0.0069
  103POPC   NC3 1718   3.829   8.382   9.091 -0.0809 -0.0450 -0.1316
  103POPC   PO4 1719   3.599   8.822   9.038 -0.1563  0.1094 -0.0609
  103POPC   GL1 1720   3.719   8.991   8.589 -0.0999  0.0081 -0.2862
  103POPC   GL2 1721   3.422   8.888   8.602  0.1288  0.2214 -0.3828
  103POPC   C1A 1722   3.820   9.089   8.153 -0.0164  0.0376 -0.0009
  103POPC   D2A 1723   3.796   9.113   7.678 -0.2388  0.4489  0.1358
  103POPC   C3A 1724   4.008   8.834   7.285  0.2444  0.0439 -0.1877
  103POPC   C4A 1725   4.394   8.642   6.999  0.1165 -0.0142  0.0540
  103POPC   C1B 1726   3.289   8.938   8.198 -0.1350  0.1031 -0.4458
  103POPC   C2B 1727   3.527   8.727   7.933 -0.0786 -0.0513 -0.1511
  103POPC   C3B 1728   3.502   8.452   7.488  0.1480 -0.4443  0.3883
  103POPC   C4B 1729   3.474   8.306   7.146  0.0069 -0.1391 -0.4833
  104POPC   NC3 1730   0.469   2.144   9.253 -0.1664  0.1414 -0.2845
  104POPC   PO4 1731   0.585   2.545   9.197  0.0932  0.0207  0.0297
  104POPC   GL1 1732   0.558   2.349   8.814 -0.0376 -0.0524  0.0033
  104POPC   GL2 1733   0.767   2.068   8.780  0.1574 -0.3623 -0.0691
  104POPC   C1A 1734   0.640   2.369   8.303  0.3272  0.0082  0.1469
  104POPC   D2A 1735   0.618   2.199   7.936 -0.1924  0.0819  0.0874
  104POPC   C3A 1736   0.874   2.294   7.711  0.1126  0.5888 -0.1501
  104POPC   C4A 1737   0.794   2.493   7.348  0.2108 -0.0223  0.0639
  104POPC   C1B 1738   0.927   1.968   8.296 -0.1628  0.1402  0.0635
  104POPC   C2B 1739   0.816   1.774   7.875  0.1053 -0.2011  0.0445
  104POPC   C3B 1740   0.572   1.901   7.573  0.3802 -0.1866 -0.1528
  104POPC   C4B 1741   0.204   1.833   7.268  0.2255  0.0074 -0.2247
  105POPC   NC3 1742   9.063   5.521   8.981 -0.3457 -0.0803  0.1029
  105POPC   PO4 1743   9.386   5.298   8.812  0.2827 -0.0532  0.3590
  105POPC   GL1 1744   9.272   5.381   8.349  0.2382  0.1541  0.0930
  105POPC   GL2 1745   9.627   5.312   8.303 -0.1714 -0.4432 -0.1521
  105POPC   C1A 1746   9.362   5.613   7.993 -0.0499 -0.2427 -0.1056
  105POPC   D2A 1747   9.123   5.604   7.608  0.5503  0.0434 -0.2220
  105POPC   C3A 1748   8.967   5.836   7.381  0.0717 -0.0834 -0.1338
  105POPC   C4A 1749   8.884   5.771   6.945 -0.1080  0.0972 -0.0567
  105POPC   C1B 1750   9.761   5.351   7.894 -0.3877  0.1643  0.0910
  105POPC   C2B 1751   9.559   5.174   7.496 -0.2773 -0.5157  0.2725
  105POPC   C3B 1752   9.170   5.293   7.242 -0.1847 -0.0884  0.1768
  105POPC   C4B 1753   8.868   5.120   6.892  0.2612  0.0824 -0.1885
  106POPC   NC3 1754   3.428   7.481   9.266  0.3470 -0.4639  0.0820
  106POPC   PO4 1755   3.594   7.925   9.030  0.0229  0.0369 -0.0795
  106POPC   GL1 1756   3.616   8.049   8.658  0.0749 -0.1036 -0.0419
  106POPC   GL2 1757   3.712   8.470   8.563 -0.0645  0.2020 -0.4544
  106POPC   C1A 1758   3.751   8.053   8.255 -0.0525  0.1837 -0.2046
  106POPC   D2A 1759   4.056   7.773   7.974  0.1460  0.0149  0.1224
  106POPC   C3A 1760   4.028   7.336   8.070 -0.2012  0.0766 -0.3482
  106POPC   C4A 1761   3.907   6.914   7.924  0.1351  0.1080 -0.1017
  106POPC   C1B 1762   3.343   8.473   8.348  0.0344 -0.2062  0.2466
  106POPC   C2B 1763   3.115   8.438   7.973 -0.1224 -0.1021 -0.2341
  106POPC   C3B 1764   2.728   8.742   7.666 -0.1052 -0.0662 -0.1453
  106POPC   C4B 1765   2.429   8.577   7.727 -0.0865 -0.3504  0.0716
  107POPC   NC3 1766   2.015   3.886   8.392  0.1406  0.2278  0.0266
  107POPC   PO4 1767   2.347   3.505   8.316  0.0051 -0.1843  0.1090
  107POPC   GL1 1768   2.140   3.313   7.971  0.2286 -0.0321 -0.3399
  107POPC   GL2 1769   1.855   3.128   8.006 -0.1658 -0.1542 -0.0825
  107POPC   C1A 1770   2.015   3.328   7.595  0.1665 -0.0971 -0.0979
  107POPC   D2A 1771   2.172   3.456   7.210 -0.2560 -0.1804  0.1793
  107POPC   C3A 1772   1.925   3.367   6.858 -0.0034  0.1524  0.1591
  107POPC   C4A 1773   1.460   3.276   6.608 -0.1042 -0.0022 -0.0665
  107POPC   C1B 1774   1.923   2.844   7.697 -0.1975  0.1509 -0.1608
  107POPC   C2B 1775   1.667   2.645   7.352  0.3149 -0.1720  0.0601
  107POPC   C3B 1776   1.652   2.329   7.019 -0.0438 -0.1582 -0.2034
  107POPC   C4B 1777   1.386   2.151   6.836  0.1964 -0.0334  0.0858
  108POPC   NC3 1778   5.680   5.566   8.954  0.0427  0.0150  0.0977
  108POPC   PO4 1779   5.479   5.173   8.845 -0.1322  0.0754 -0.1428
  108POPC   GL1 1780   5.385   5.349   8.388 -0.1286  0.1276 -0.1594
  108POPC   GL2 1781   5.235   5.569   8.406 -0.0621  0.0250 -0.0466
  108POPC   C1A 1782   5.463   5.466   7.939  0.1151 -0.3379  0.0771
  108POPC   D2A 1783   5.314   5.702   7.548 -0.1069 -0.4718  0.0657
  108POPC   C3A 1784   5.389   5.554   7.170 -0.2514  0.0794 -0.1499
  108POPC   C4A 1785   5.598   5.457   6.789  0.2966 -0.0006 -0.2532
  108POPC   C1B 1786   4.937   5.589   8.094 -0.0085 -0.1929  0.0427
  108POPC   C2B 1787   4.868   5.693   7.696  0.1461 -0.0121 -0.0402
  108POPC   C3B 1788   4.798   5.418   7.302  0.0547  0.1539  0.0403
  108POPC   C4B 1789   4.442   5.361   6.935 -0.2006 -0.0052 -0.1646
  109POPC   NC3 1790   1.262   7.469   9.638  0.3996 -0.1863  0.0305
  109POPC   PO4 1791   1.658   7.735   9.570 -0.1371 -0.0106 -0.4050
  109POPC   GL1 1792   1.313   7.815   9.272 -0.0838  0.1046  0.0394
  109POPC   GL2 1793   1.311   7.428   9.036  0.1813 -0.0959 -0.0535
  109POPC   C1A 1794   0.947   8.015   8.953 -0.3856 -0.0339 -0.0317
  109POPC   D2A 1795   0.477   8.122   9.022 -0.1737  0.5776 -0.0886
  109POPC   C3A 1796   0.300   8.251   8.699  0.0529 -0.3446  0.4004
  109POPC   C4A 1797   0.133   8.401   8.201 -0.2498 -0.1498 -0.1891
  109POPC   C1B 1798   1.236   7.735   8.685  0.0575 -0.1357  0.0164
  109POPC   C2B 1799   1.167   8.101   8.388 -0.3881  0.0348  0.2442
  109POPC   C3B 1800   1.065   8.491   8.105 -0.0082 -0.0641 -0.1508
  109POPC   C4B 1801   1.066   8.956   7.920 -0.1421 -0.2355 -0.2017
  110POPC   NC3 1802   8.313   1.713   8.764  0.0960  0.0532 -0.0189
  110POPC   PO4 1803   8.709   1.794   8.815 -0.1922  0.1154 -0.1315
  110POPC   GL1 1804   8.821   1.582   8.330 -0.0003 -0.1865 -0.0033
  110POPC   GL2 1805   9.010   1.263   8.454 -0.1057 -0.2517 -0.0258
  110POPC   C1A 1806   8.579   1.711   7.949 -0.1273  0.0193 -0.2472
  110POPC   D2A 1807   8.303   1.714   7.562 -0.2141 -0.3152  0.1326
  110POPC   C3A 1808   8.405   1.659   7.125 -0.1113 -0.0397 -0.0661
  110POPC   C4A 1809   8.401   1.316   6.818 -0.0004 -0.0273 -0.3220
  110POPC   C1B 1810   8.977   1.277   7.947  0.0770 -0.3346  0.1358
  110POPC   C2B 1811   9.231   1.426   7.680  0.0855 -0.0968 -0.0751
  110POPC   C3B 1812   9.209   1.471   7.155  0.0804 -0.0380  0.0581
  110POPC   C4B 1813   9.023   1.380   6.793 -0.0532 -0.1592 -0.1895
  111POPC   NC3 1814   8.053   5.150   8.443  0.1929  0.0173  0.5733
  111POPC   PO4 1815   7.855   4.876   8.345  0.1966  0.0073 -0.0815
  111POPC   GL1 1816   7.847   4.768   8.002 -0.0488 -0.0774  0.0718
  111POPC   GL2 1817   7.939   4.397   8.122  0.0592  0.5147 -0.1045
  111POPC   C1A 1818   7.487   4.652   7.765  0.0288  0.0179  0.0254
  111POPC   D2A 1819   7.288   4.904   7.646 -0.0846 -0.0258  0.4132
  111POPC   C3A 1820   7.225   4.998   7.170  0.0030 -0.0558 -0.3295
  111POPC   C4A 1821   7.387   4.650   6.850 -0.2831  0.2020  0.2076
  111POPC   C1B 1822   7.822   4.352   7.618  0.0897 -0.0455  0.3390
  111POPC   C2B 1823   8.033   4.257   7.344 -0.0616 -0.0616  0.2528
  111POPC   C3B 1824   8.447   3.966   7.336 -0.1957  0.2859 -0.0948
  111POPC   C4B 1825   8.948   3.989   7.461  0.0796 -0.0085  0.0610
  112POPC   NC3 1826   9.356   0.618   9.354  0.4533  0.3749  0.5174
  112POPC   PO4 1827   9.515   1.007   9.315  0.2444 -0.3307  0.0177
  112POPC   GL1 1828   9.416   1.252   8.943 -0.2537  0.0101  0.1558
  112POPC   GL2 1829   9.369   1.514   8.643  0.3271  0.1765 -0.3122
  112POPC   C1A 1830   9.407   0.937   8.616 -0.3317  0.0666 -0.0758
  112POPC   D2A 1831   9.822   0.927   8.395  0.0594 -0.1731 -0.1595
  112POPC   C3A 1832   9.725   0.574   8.111  0.2479  0.0705  0.1552
  112POPC   C4A 1833   9.341   0.485   7.891  0.0066  0.0506  0.1415
  112POPC   C1B 1834   9.524   1.354   8.219  0.0348 -0.0707 -0.1182
  112POPC   C2B 1835   9.451   0.949   8.036  0.3210  0.0469  0.0316
  112POPC   C3B 1836   9.566   0.769   7.560  0.1534  0.0393 -0.0749
  112POPC   C4B 1837   9.692   0.647   7.229 -0.2098  0.2056 -0.2966
  113POPC   NC3 1838   5.585   6.444   8.647 -0.1426 -0.0244  0.1949
  113POPC   PO4 1839   5.465   6.022   8.809  0.1468  0.0986  0.0140
  113POPC   GL1 1840   5.586   5.950   8.348 -0.1872 -0.1075  0.0444
  113POPC   GL2 1841   5.344   6.075   8.301  0.1226  0.1745  0.0765
  113POPC   C1A 1842   5.645   5.921   7.888 -0.0020 -0.1297 -0.0055
  113POPC   D2A 1843   5.927   5.965   7.597 -0.0290  0.0739 -0.1369
  113POPC   C3A 1844   5.844   6.361   7.410  0.4129  0.2613  0.0619
  113POPC   C4A 1845   6.218   6.690   7.377  0.2422  0.0160 -0.1948
  113POPC   C1B 1846   5.120   6.064   7.922  0.1069 -0.1239 -0.0640
  113POPC   C2B 1847   4.914   6.171   7.605 -0.2686 -0.0491  0.0122
  113POPC   C3B 1848   4.655   6.496   7.434 -0.0974 -0.1391  0.1149
  113POPC   C4B 1849   4.637   6.865   7.116  0.2140 -0.0242  0.0531
  114POPC   NC3 1850   3.117   3.919   8.912  0.0938  0.0344  0.0741
  114POPC   PO4 1851   3.545   4.081   8.590 -0.0755  0.0272  0.2042
  114POPC   GL1 1852   3.743   4.200   8.178 -0.0745  0.3958  0.1499
  114POPC   GL2 1853   3.425   4.086   8.056  0.1271 -0.0501  0.0175
  114POPC   C1A 1854   4.082   4.191   7.827 -0.2506 -0.3920  0.1181
  114POPC   D2A 1855   4.183   4.065   7.454 -0.5082 -0.0220  0.0711
  114POPC   C3A 1856   3.833   3.913   7.245  0.0577  0.0861 -0.1011
  114POPC   C4A 1857   3.806   3.560   7.052  0.0447  0.0109 -0.2062
  114POPC   C1B 1858   3.236   4.243   7.748  0.1252 -0.2223  0.0457
  114POPC   C2B 1859   3.328   4.079   7.278 -0.1776 -0.1636  0.0992
  114POPC   C3B 1860   3.536   4.266   6.981  0.0020  0.0117  0.1826
  114POPC   C4B 1861   3.504   4.171   6.509  0.1329  0.0290 -0.1354
  115POPC   NC3 1862   5.155   5.503   8.909  0.1362 -0.0909  0.1646
  115POPC   PO4 1863   4.943   5.803   8.676 -0.1261 -0.0607  0.2003
  115POPC   GL1 1864   4.621   5.673   8.434 -0.0564 -0.3825 -0.1032
  115POPC   GL2 1865   4.579   5.340   8.402  0.0904  0.0466 -0.0738
  115POPC   C1A 1866   4.358   5.694   8.128 -0.0170 -0.0207  0.0659
  115POPC   D2A 1867   4.354   5.505   7.686  0.1488  0.1438  0.0746
  115POPC   C3A 1868   4.149   5.193   7.506 -0.0253 -0.0879 -0.3627
  115POPC   C4A 1869   3.852   4.889   7.543 -0.2330 -0.0213  0.1622
  115POPC   C1B 1870   4.521   5.058   8.015 -0.5311  0.0427  0.2074
  115POPC   C2B 1871   4.593   5.007   7.481  0.1994  0.0354 -0.2720
  115POPC   C3B 1872   4.821   5.024   7.021  0.2359 -0.0516 -0.1616
  115POPC   C4B 1873   4.975   5.051   6.526  0.3928 -0.1612  0.0597
  116POPC   NC3 1874   6.478   5.848   8.779  0.1310  0.0069  0.0542
  116POPC   PO4 1875   6.075   5.945   8.568 -0.0046 -0.2042  0.3075
  116POPC   GL1 1876   6.099   5.886   8.133 -0.0715  0.0013  0.1778
  116POPC   GL2 1877   6.270   6.188   7.867  0.2777 -0.0465  0.0900
  116POPC   C1A 1878   6.026   5.508   7.979 -0.1269 -0.0959 -0.2911
  116POPC   D2A 1879   5.795   5.479   7.505 -0.2783  0.0348 -0.0352
  116POPC   C3A 1880   5.985   5.278   7.124 -0.0903  0.0488 -0.0493
  116POPC   C4A 1881   6.167   4.874   6.865 -0.1925 -0.1862  0.1455
  116POPC   C1B 1882   6.462   6.234   7.446  0.2487 -0.1418  0.3221
  116POPC   C2B 1883   6.221   6.247   7.016 -0.0127  0.0930 -0.0189
  116POPC   C3B 1884   5.960   6.063   6.699  0.0890 -0.0906 -0.1566
  116POPC   C4B 1885   5.918   5.820   6.323  0.0382  0.3409 -0.0999
  117POPC   NC3 1886   7.265   8.180   8.373  0.2422  0.0534  0.0275
  117POPC   PO4 1887   7.521   8.172   8.631  0.0862 -0.1533 -0.2380
  117POPC   GL1 1888   7.721   8.016   8.224  0.2177  0.1704 -0.2892
  117POPC   GL2 1889   7.530   7.719   8.211 -0.2197  0.0286 -0.1743
  117POPC   C1A 1890   7.615   8.005   7.807 -0.1354  0.0831 -0.0410
  117POPC   D2A 1891   7.477   8.185   7.330  0.0604 -0.1303  0.2262
  117POPC   C3A 1892   7.448   8.674   7.140  0.0536  0.1503  0.1827
  117POPC   C4A 1893   7.237   9.004   6.874  0.1877  0.0736 -0.2474
  117POPC   C1B 1894   7.635   7.416   7.952  0.1021 -0.1541 -0.2571
  117POPC   C2B 1895   7.764   7.179   7.692  0.1526 -0.2478  0.0577
  117POPC   C3B 1896   7.887   7.197   7.226 -0.1984  0.1130  0.0657
  117POPC   C4B 1897   8.162   7.391   6.981 -0.2052 -0.1282  0.0696
  118POPC   NC3 1898   0.511   6.237   8.968 -0.0645  0.2618  0.1648
  118POPC   PO4 1899   0.557   6.711   9.062 -0.2565 -0.3741 -0.0798
  118POPC   GL1 1900   0.642   7.165   8.843 -0.0196  0.2944  0.0767
  118POPC   GL2 1901   0.598   7.085   8.506 -0.0140 -0.1561 -0.3081
  118POPC   C1A 1902   0.685   7.558   8.622 -0.1381 -0.2111 -0.2248
  118POPC   D2A 1903   0.664   7.904   8.585 -0.1831  0.2091  0.2958
  118POPC   C3A 1904   0.590   8.190   8.165 -0.0342  0.2417  0.0555
  118POPC   C4A 1905   0.516   8.589   7.900 -0.2667  0.2033 -0.2942
  118POPC   C1B 1906   0.719   7.275   8.061  0.1057  0.1490  0.0695
  118POPC   C2B 1907   0.837   7.283   7.665 -0.2408 -0.5945  0.1784
  118POPC   C3B 1908   0.811   7.137   7.213  0.1465  0.0876  0.0635
  118POPC   C4B 1909   0.946   6.818   6.873 -0.3191  0.1804  0.0557
  119POPC   NC3 1910   9.863   6.512   9.011 -0.0973 -0.3493  0.1876
  119POPC   PO4 1911   9.682   7.050   9.176  0.1568  0.0592 -0.4554
  119POPC   GL1 1912   9.894   7.450   8.917  0.2364  0.3729 -0.0933
  119POPC   GL2 1913   9.990   7.454   8.549 -0.4596 -0.0723  0.0843
  119POPC   C1A 1914  10.118   7.877   8.752  0.1626  0.0423  0.2815
  119POPC   D2A 1915   9.985   8.033   8.293  0.1528  0.0277  0.3000
  119POPC   C3A 1916  10.142   8.295   8.117 -0.0310 -0.2132  0.2087
  119POPC   C4A 1917  10.119   8.592   7.785 -0.3096 -0.0607  0.2391
  119POPC   C1B 1918  10.181   7.561   8.214  0.0677  0.3298 -0.2032
  119POPC   C2B 1919  10.336   7.548   7.839 -0.1434  0.2572  0.1939
  119POPC   C3B 1920  10.423   7.518   7.472  0.0981  0.1837  0.1760
  119POPC   C4B 1921  10.656   7.901   7.512 -0.1322  0.2973 -0.0741
  120POPC   NC3 1922   6.425   8.183   8.868  0.0476 -0.1670 -0.1644
  120POPC   PO4 1923   6.699   7.727   8.782  0.0483 -0.1601 -0.3210
  120POPC   GL1 1924   6.483   7.628   8.366 -0.1552  0.1428  0.0319
  120POPC   GL2 1925   6.592   7.325   8.310  0.3736 -0.0017 -0.0856
  120POPC   C1A 1926   6.309   8.030   8.111  0.0556  0.2488  0.2585
  120POPC   D2A 1927   6.542   8.363   7.941  0.1234  0.0346  0.0937
  120POPC   C3A 1928   6.565   8.669   7.623  0.1531  0.3055 -0.0051
  120POPC   C4A 1929   6.884   8.902   7.340  0.0345 -0.2783  0.2012
  120POPC   C1B 1930   6.535   7.490   7.905 -0.0010  0.0006 -0.0351
  120POPC   C2B 1931   6.651   7.922   7.719  0.2932  0.1350  0.0671
  120POPC   C3B 1932   6.598   8.156   7.450  0.1920 -0.1166 -0.4094
  120POPC   C4B 1933   6.381   8.436   7.237  0.3268 -0.1302 -0.2753
  121POPC   NC3 1934   2.999   8.416   9.374 -0.0058  0.0418 -0.1752
  121POPC   PO4 1935   2.836   8.855   9.426 -0.0757  0.2781 -0.0504
  121POPC   GL1 1936   2.972   8.895   9.057 -0.0785 -0.0863  0.1107
  121POPC   GL2 1937   2.838   9.276   8.969 -0.0769 -0.0883 -0.2282
  121POPC   C1A 1938   3.046   8.667   8.744 -0.1360  0.0615  0.3371
  121POPC   D2A 1939   2.776   8.618   8.336 -0.3150 -0.3429 -0.2466
  121POPC   C3A 1940   2.704   8.194   8.175  0.2052 -0.0428  0.0919
  121POPC   C4A 1941   2.345   7.802   8.176 -0.0523  0.1955 -0.0968
  121POPC   C1B 1942   2.967   9.616   8.679 -0.0403 -0.4082 -0.1066
  121POPC   C2B 1943   3.322   9.940   8.737  0.0273  0.0896  0.1297
  121POPC   C3B 1944   3.400  10.338   8.621 -0.1658  0.1788 -0.3235
  121POPC   C4B 1945   3.808  10.509   8.547  0.0267 -0.2718 -0.2071
  122POPC   NC3 1946   6.245   7.319   8.665  0.1271 -0.0059 -0.1470
  122POPC   PO4 1947   5.979   6.869   8.710  0.4851 -0.1933 -0.1902
  122POPC   GL1 1948   5.838   6.700   8.308  0.3288 -0.0431  0.2311
  122POPC   GL2 1949   5.936   6.348   8.211  0.0579 -0.0549 -0.0950
  122POPC   C1A 1950   5.842   6.781   7.845 -0.2150 -0.2153 -0.1382
  122POPC   D2A 1951   5.611   6.972   7.492  0.0354 -0.0880  0.0687
  122POPC   C3A 1952   5.596   6.762   7.118 -0.0284  0.1783  0.0312
  122POPC   C4A 1953   5.876   6.615   6.858 -0.0561  0.1715 -0.2430
  122POPC   C1B 1954   5.548   6.358   7.961  0.0206  0.1562 -0.1142
  122POPC   C2B 1955   5.396   6.384   7.674 -0.2396 -0.1335  0.0545
  122POPC   C3B 1956   5.303   6.302   7.256 -0.0869 -0.1411 -0.3247
  122POPC   C4B 1957   5.109   5.971   7.037  0.0702  0.2146 -0.2008
  123POPC   NC3 1958   1.078   9.158  10.178 -0.0198  0.5221 -0.0680
  123POPC   PO4 1959   1.244   9.493   9.843  0.2609 -0.1786  0.0119
  123POPC   GL1 1960   1.698   9.673   9.823  0.0884 -0.0899  0.2502
  123POPC   GL2 1961   1.848   9.353   9.703  0.0870  0.0348 -0.2917
  123POPC   C1A 1962   1.952   9.834   9.583  0.0913 -0.1729  0.2112
  123POPC   D2A 1963   2.286   9.504   9.454  0.1875  0.1160  0.0736
  123POPC   C3A 1964   2.088   9.523   9.034 -0.3447  0.1192  0.0106
  123POPC   C4A 1965   1.932   9.708   8.712  0.0054 -0.0529  0.3707
  123POPC   C1B 1966   1.644   9.547   9.311 -0.1406  0.0495  0.0951
  123POPC   C2B 1967   1.524   9.854   9.303 -0.1050 -0.1999 -0.1141
  123POPC   C3B 1968   1.640  10.261   9.324 -0.0699  0.2206 -0.2241
  123POPC   C4B 1969   1.622  10.579   9.071  0.2515 -0.0466  0.2830
  124POPC   NC3 1970   9.974   8.112   9.672 -0.1690  0.0914 -0.0774
  124POPC   PO4 1971  10.401   8.356   9.598  0.2240  0.0561  0.4725
  124POPC   GL1 1972  10.550   8.565   9.280 -0.3133  0.2445 -0.1840
  124POPC   GL2 1973  10.415   8.520   8.974 -0.2564  0.2882 -0.0967
  124POPC   C1A 1974  10.837   8.725   9.086 -0.0010 -0.1293  0.0670
  124POPC   D2A 1975  11.211   8.582   9.078  0.2309 -0.0971 -0.2637
  124POPC   C3A 1976  11.339   8.508   8.820 -0.1934  0.5245 -0.2284
  124POPC   C4A 1977  11.347   8.362   8.559  0.1717  0.3085 -0.6295
  124POPC   C1B 1978  10.141   8.382   8.665 -0.0814 -0.0375 -0.0589
  124POPC   C2B 1979   9.785   8.491   8.385  0.2924 -0.1436 -0.2048
  124POPC   C3B 1980   9.690   8.394   7.941 -0.1065 -0.0671  0.1580
  124POPC   C4B 1981   9.365   8.380   7.622  0.1062 -0.1153  0.3376
  125POPC   NC3 1982   5.023   6.264   8.793  0.4375 -0.1668  0.1684
  125POPC   PO4 1983   5.214   6.718   8.913 -0.2335 -0.0366  0.1739
  125POPC   GL1 1984   4.897   6.843   8.625  0.0419 -0.2116 -0.1280
  125POPC   GL2 1985   4.801   7.181   8.520 -0.3958  0.1357  0.3187
  125POPC   C1A 1986   4.639   6.627   8.338  0.0239  0.0725  0.0999
  125POPC   D2A 1987   4.904   6.587   7.875  0.0529  0.1980 -0.1437
  125POPC   C3A 1988   4.784   6.966   7.647 -0.0883 -0.2743  0.0488
  125POPC   C4A 1989   4.734   7.287   7.346  0.1072  0.0721 -0.0242
  125POPC   C1B 1990   4.959   7.046   8.161  0.1215  0.0015  0.1391
  125POPC   C2B 1991   5.113   7.332   7.839 -0.4545 -0.0872  0.0575
  125POPC   C3B 1992   5.232   7.331   7.374  0.0628  0.2573 -0.1093
  125POPC   C4B 1993   5.453   7.280   7.131  0.0787 -0.1301 -0.0731
  126POPC   NC3 1994   3.729   3.667   8.258  0.0647 -0.2653 -0.1437
  126POPC   PO4 1995   3.511   3.397   8.063  0.2026  0.2799  0.0278
  126POPC   GL1 1996   3.597   3.629   7.750 -0.0675  0.0580  0.1345
  126POPC   GL2 1997   3.795   3.836   7.773  0.6489 -0.1751 -0.3084
  126POPC   C1A 1998   3.336   3.552   7.358 -0.3881  0.0203 -0.0433
  126POPC   D2A 1999   3.180   3.304   7.083 -0.0033 -0.0107  0.0818
  126POPC   C3A 2000   2.932   2.878   7.016 -0.2607  0.0795  0.1513
  126POPC   C4A 2001   2.538   2.637   7.011 -0.2611 -0.2967  0.0495
  126POPC   C1B 2002   4.050   3.602   7.507  0.4315 -0.1958  0.0877
  126POPC   C2B 2003   4.236   3.310   7.244 -0.0530 -0.0562  0.1342
  126POPC   C3B 2004   4.334   2.912   7.027 -0.0936 -0.2156 -0.0302
  126POPC   C4B 2005   4.547   2.845   6.681 -0.3055 -0.2532 -0.0071
  127POPC   NC3 2006   0.699   1.377   9.520  0.1098 -0.4003  0.1381
  127POPC   PO4 2007   0.831   1.744   9.207 -0.3869  0.1619 -0.0093
  127POPC   GL1 2008   0.963   1.598   8.869 -0.1818 -0.0294  0.1790
  127POPC   GL2 2009   0.591   1.597   8.667 -0.2991 -0.1621  0.2319
  127POPC   C1A 2010   1.126   1.250   8.595  0.0981 -0.0547  0.2135
  127POPC   D2A 2011   1.189   0.733   8.431  0.2001  0.0748  0.2398
  127POPC   C3A 2012   1.314   0.703   7.984  0.2139  0.0804 -0.0289
  127POPC   C4A 2013   1.484   0.362   7.715 -0.0749 -0.1215 -0.0901
  127POPC   C1B 2014   0.214   1.434   8.406  0.1451 -0.2164  0.2456
  127POPC   C2B 2015  -0.236   1.243   8.285 -0.1332  0.1035 -0.0343
  127POPC   C3B 2016  -0.521   1.190   8.047  0.1807 -0.0265  0.0419
  127POPC   C4B 2017  -0.819   1.221   7.649 -0.0469  0.0811  0.1709
  128POPC   NC3 2018   0.261   8.002   9.548  0.0581 -0.2001 -0.2401
  128POPC   PO4 2019   0.313   7.641   9.223 -0.1322  0.2589  0.2892
  128POPC   GL1 2020   0.187   7.772   8.774 -0.0292 -0.0902 -0.1449
  128POPC   GL2 2021   0.046   7.465   8.529  0.2644 -0.0061  0.1090
  128POPC   C1A 2022   0.023   7.968   8.420 -0.3906 -0.0162 -0.1094
  128POPC   D2A 2023   0.030   7.942   8.040  0.0763 -0.0281 -0.3139
  128POPC   C3A 2024   0.094   8.350   7.672  0.1954 -0.4069  0.2487
  128POPC   C4A 2025  -0.262   8.365   7.280  0.1643  0.0955 -0.1271
  128POPC   C1B 2026   0.369   7.614   8.266  0.1361 -0.0371  0.2252
  128POPC   C2B 2027   0.567   7.797   7.899  0.0337 -0.1570  0.0727
  128POPC   C3B 2028   0.633   8.148   7.594  0.0255 -0.4022  0.2675
  128POPC   C4B 2029   0.969   8.481   7.584 -0.2980 -0.0855  0.1359
  129POPC   NC3 2030   8.412   9.243   8.961  0.0632 -0.1612 -0.3308
  129POPC   PO4 2031   8.574   8.877   8.796  0.4101 -0.1956 -0.0357
  129POPC   GL1 2032   8.732   9.167   8.531  0.3879  0.0176 -0.1651
  129POPC   GL2 2033   8.727   9.422   8.427  0.1409 -0.2127 -0.2101
  129POPC   C1A 2034   8.627   9.085   8.092 -0.2651  0.3546  0.0227
  129POPC   D2A 2035   8.994   9.014   7.849 -0.0303  0.0412 -0.4045
  129POPC   C3A 2036   9.335   8.786   7.896 -0.1055  0.3410 -0.2611
  129POPC   C4A 2037   9.783   8.892   7.981 -0.0635  0.0644  0.0329
  129POPC   C1B 2038   8.907   9.539   8.090  0.3171 -0.0646 -0.3494
  129POPC   C2B 2039   9.018   9.496   7.675 -0.0961  0.0649 -0.2229
  129POPC   C3B 2040   9.439   9.679   7.519 -0.1752  0.1301  0.2387
  129POPC   C4B 2041   9.738   9.855   7.450 -0.1722  0.4026 -0.4295
  130POPC   NC3 2042   4.251   2.235   8.424  0.2792 -0.0032  0.2169
  130POPC   PO4 2043   3.838   2.437   8.321 -0.3683 -0.4223  0.0306
  130POPC   GL1 2044   3.945   2.242   7.931 -0.1499  0.0522  0.1361
  130POPC   GL2 2045   4.156   2.037   7.906  0.2681 -0.0771  0.1274
  130POPC   C1A 2046   3.964   2.190   7.480  0.1467 -0.3029 -0.2650
  130POPC   D2A 2047   3.843   2.023   7.049  0.1579  0.1442 -0.2186
  130POPC   C3A 2048   3.409   1.945   7.145 -0.1526 -0.3537 -0.0600
  130POPC   C4A 2049   3.118   2.034   6.877 -0.0678 -0.2096  0.2277
  130POPC   C1B 2050   4.472   2.059   7.609 -0.0647 -0.0557  0.0580
  130POPC   C2B 2051   4.788   1.661   7.655 -0.1479  0.0241  0.0077
  130POPC   C3B 2052   4.983   1.256   7.723  0.1296  0.2235  0.2931
  130POPC   C4B 2053   5.153   0.838   7.451  0.0784 -0.0537 -0.0050
  131POPC   NC3 2054   7.649   3.242   8.752 -0.1695  0.2711  0.3285
  131POPC   PO4 2055   7.514   3.606   8.953 -0.3036  0.2175 -0.1484
  131POPC   GL1 2056   7.670   3.805   8.586  0.0156  0.0304 -0.0169
  131POPC   GL2 2057   7.646   4.162   8.463  0.1902  0.1146  0.1692
  131POPC   C1A 2058   7.898   3.801   8.319 -0.0884 -0.0203 -0.1076
  131POPC   D2A 2059   8.189   3.892   8.134  0.2291 -0.1146 -0.1849
  131POPC   C3A 2060   8.434   3.708   7.793  0.1124  0.1061 -0.0119
  131POPC   C4A 2061   8.293   3.464   7.417 -0.2621  0.1682  0.3143
  131POPC   C1B 2062   7.394   4.288   8.040  0.1234  0.0056 -0.1896
  131POPC   C2B 2063   7.010   4.400   7.857  0.2284  0.1764  0.2575
  131POPC   C3B 2064   6.809   4.764   7.630  0.2536 -0.0346  0.0353
  131POPC   C4B 2065   6.787   5.117   7.365  0.0585 -0.0334 -0.0227
  132POPC   NC3 2066   7.359   0.199   8.631 -0.2387 -0.0784  0.1341
  132POPC   PO4 2067   7.605  -0.109   8.763  0.1658  0.0279 -0.1617
  132POPC   GL1 2068   7.564  -0.266   8.359 -0.3779  0.0281  0.0588
  132POPC   GL2 2069   7.255  -0.113   8.272 -0.0184 -0.0531  0.0243
  132POPC   C1A 2070   7.631  -0.207   7.932  0.1365  0.1270  0.0479
  132POPC   D2A 2071   7.774  -0.183   7.553 -0.3461  0.1138 -0.2057
  132POPC   C3A 2072   8.095   0.030   7.314 -0.2924  0.0148  0.0926
  132POPC   C4A 2073   8.360   0.273   7.364 -0.1243 -0.0247  0.0184
  132POPC   C1B 2074   7.183  -0.013   7.902 -0.0228 -0.1607 -0.1222
  132POPC   C2B 2075   6.878   0.034   7.609  0.2133  0.2376 -0.0729
  132POPC   C3B 2076   6.688  -0.180   7.273 -0.1005 -0.3667  0.3596
  132POPC   C4B 2077   6.313  -0.057   7.066 -0.1597  0.1043 -0.1111
  133POPC   NC3 2078   2.748   5.250   8.570 -0.1263 -0.2261  0.3256
  133POPC   PO4 2079   2.439   5.646   8.567 -0.0513 -0.2456 -0.0352
  133POPC   GL1 2080   2.420   5.771   8.066 -0.2918 -0.1753 -0.0109
  133POPC   GL2 2081   2.157   5.901   7.917  0.0678  0.2056 -0.1878
  133POPC   C1A 2082   2.516   5.507   7.747 -0.2332  0.2145  0.2699
  133POPC   D2A 2083   2.257   5.351   7.532  0.3162  0.0863 -0.1402
  133POPC   C3A 2084   2.283   4.997   7.190 -0.1028  0.1042 -0.2596
  133POPC   C4A 2085   2.252   4.784   6.858  0.4514 -0.2024  0.1555
  133POPC   C1B 2086   2.178   6.416   7.795 -0.1175 -0.0572 -0.2118
  133POPC   C2B 2087   2.085   6.813   7.703  0.0166 -0.1846 -0.1872
  133POPC   C3B 2088   2.239   7.066   7.480  0.3364 -0.2625  0.1427
  133POPC   C4B 2089   2.283   7.169   7.000 -0.1134  0.0250 -0.1601
  134POPC   NC3 2090   9.853   5.561   8.750  0.0700 -0.0105 -0.0665
  134POPC   PO4 2091   9.808   5.005   8.748  0.0171  0.1269 -0.0764
  134POPC   GL1 2092   9.860   4.767   8.305  0.1468 -0.1008  0.2978
  134POPC   GL2 2093   9.626   4.605   8.132 -0.1548 -0.0028  0.1553
  134POPC   C1A 2094  10.087   4.853   7.962 -0.1737  0.1245  0.0742
  134POPC   D2A 2095   9.924   4.855   7.514  0.2047 -0.0302 -0.2946
  134POPC   C3A 2096   9.881   4.464   7.269  0.1430 -0.1257  0.2540
  134POPC   C4A 2097   9.809   4.100   6.944 -0.1004 -0.0244  0.4187
  134POPC   C1B 2098   9.452   4.986   7.981 -0.2161  0.1545 -0.2671
  134POPC   C2B 2099   9.087   5.056   7.648  0.1195 -0.1437 -0.1045
  134POPC   C3B 2100   8.756   4.967   7.419  0.0788 -0.1372  0.1209
  134POPC   C4B 2101   8.628   5.390   7.248 -0.2021 -0.3492 -0.1100
  135POPC   NC3 2102   3.950   4.491   8.515  0.2943  0.3202  0.0821
  135POPC   PO4 2103   3.755   4.868   8.531 -0.2175  0.1084 -0.1179
  135POPC   GL1 2104   3.643   4.868   8.101  0.1184  0.3658  0.0641
  135POPC   GL2 2105   3.527   4.616   7.914 -0.1282 -0.2779 -0.0408
  135POPC   C1A 2106   3.451   5.178   7.792 -0.3235  0.0305  0.4046
  135POPC   D2A 2107   3.612   5.332   7.411  0.0628 -0.3477 -0.0276
  135POPC   C3A 2108   3.892   5.422   7.090 -0.1333 -0.2036  0.1189
  135POPC   C4A 2109   4.066   5.752   7.033  0.0081  0.0005  0.4542
  135POPC   C1B 2110   3.710   4.427   7.618  0.1856  0.0468  0.0668
  135POPC   C2B 2111   3.903   4.579   7.165 -0.3567 -0.2265 -0.2827
  135POPC   C3B 2112   4.046   4.925   6.901 -0.0806  0.1380  0.1602
  135POPC   C4B 2113   3.966   5.292   6.626 -0.1223  0.2955  0.0885
  136POPC   NC3 2114   1.148   3.431   8.935  0.0313  0.2737 -0.2695
  136POPC   PO4 2115   1.327   3.228   8.605 -0.0701 -0.1721 -0.0016
  136POPC   GL1 2116   1.320   3.121   8.160  0.3507  0.0743  0.0740
  136POPC   GL2 2117   1.086   3.391   7.980  0.0078 -0.0411  0.1062
  136POPC   C1A 2118   1.420   2.963   7.817 -0.0331 -0.1752  0.3745
  136POPC   D2A 2119   1.049   2.850   7.731 -0.4170 -0.1969 -0.1541
  136POPC   C3A 2120   0.724   3.095   7.717 -0.2301  0.3265  0.2017
  136POPC   C4A 2121   0.587   3.412   8.004  0.0071 -0.0404 -0.0507
  136POPC   C1B 2122   1.212   3.330   7.520  0.2314 -0.2074  0.0213
  136POPC   C2B 2123   1.107   2.935   7.215 -0.0786 -0.2460 -0.1102
  136POPC   C3B 2124   0.718   3.025   6.916 -0.2835  0.2502 -0.0723
  136POPC   C4B 2125   0.293   3.343   7.030  0.2329 -0.2367  0.2247
  137POPC   NC3 2126   8.498   5.871   8.343 -0.2916 -0.2135  0.1522
  137POPC   PO4 2127   8.876   5.735   8.451  0.0931 -0.1221 -0.1045
  137POPC   GL1 2128   8.976   5.908   8.043  0.0732 -0.1914 -0.1788
  137POPC   GL2 2129   8.765   5.933   7.943 -0.1311  0.1479 -0.3521
  137POPC   C1A 2130   9.211   6.114   7.687  0.0847 -0.4043 -0.0618
  137POPC   D2A 2131   9.285   6.234   7.253 -0.2435  0.1537  0.0193
  137POPC   C3A 2132   9.704   6.243   6.983 -0.0458 -0.0646 -0.1637
  137POPC   C4A 2133   9.778   6.183   6.549  0.1853  0.0566  0.0343
  137POPC   C1B 2134   8.391   5.861   7.659  0.3096  0.3280 -0.4139
  137POPC   C2B 2135   8.053   5.548   7.491  0.1522 -0.0524  0.4139
  137POPC   C3B 2136   7.709   5.314   7.215  0.0503  0.0709 -0.0131
  137POPC   C4B 2137   7.540   5.177   6.833  0.3211  0.1573 -0.1344
  138POPC   NC3 2138   6.114   1.270   9.085 -0.2145 -0.0597  0.0827
  138POPC   PO4 2139   6.018   0.944   8.678 -0.1254 -0.0092  0.2400
  138POPC   GL1 2140   5.986   0.881   8.149  0.0677 -0.0337 -0.0881
  138POPC   GL2 2141   6.261   0.800   7.980 -0.0175 -0.0219  0.1432
  138POPC   C1A 2142   5.825   0.559   7.858  0.0107  0.1082 -0.0184
  138POPC   D2A 2143   5.486   0.451   7.642 -0.1795  0.0914  0.1618
  138POPC   C3A 2144   5.514   0.643   7.230 -0.0582  0.2738 -0.1488
  138POPC   C4A 2145   5.768   0.919   6.964  0.0541  0.1685  0.2289
  138POPC   C1B 2146   6.512   0.884   7.611 -0.1632 -0.3151  0.0602
  138POPC   C2B 2147   6.949   0.961   7.427 -0.1196  0.1959 -0.2208
  138POPC   C3B 2148   7.322   0.773   7.217 -0.1637  0.1669 -0.1534
  138POPC   C4B 2149   7.314   0.501   6.899  0.3444  0.2262  0.2468
  139POPC   NC3 2150   8.604   2.553   8.498  0.1102 -0.3857 -0.1193
  139POPC   PO4 2151   8.901   2.935   8.659 -0.4132 -0.2932 -0.2496
  139POPC   GL1 2152   8.706   3.013   8.289  0.0699 -0.1109 -0.2052
  139POPC   GL2 2153   8.558   2.835   8.030 -0.2165  0.0029 -0.2961
  139POPC   C1A 2154   8.791   3.424   8.003 -0.0363  0.0188  0.0964
  139POPC   D2A 2155   9.034   3.643   7.856 -0.0505 -0.0995 -0.3187
  139POPC   C3A 2156   9.335   3.716   7.618 -0.2667 -0.0063  0.0104
  139POPC   C4A 2157   9.519   3.733   7.179 -0.1506  0.1691 -0.1073
  139POPC   C1B 2158   8.774   2.462   7.774  0.2600 -0.0148  0.1377
  139POPC   C2B 2159   8.640   2.062   7.533 -0.2913  0.0102  0.3314
  139POPC   C3B 2160   8.807   1.638   7.534 -0.3401 -0.1887  0.0472
  139POPC   C4B 2161   8.740   1.308   7.244 -0.0872  0.0746  0.0970
  140POPC   NC3 2162   8.860   7.364   8.862 -0.0531  0.0592 -0.2254
  140POPC   PO4 2163   9.043   7.087   8.518 -0.0557  0.3850  0.0815
  140POPC   GL1 2164   8.921   7.428   8.297  0.0061  0.0125  0.0722
  140POPC   GL2 2165   8.760   7.267   8.043  0.1794 -0.1322 -0.2586
  140POPC   C1A 2166   9.062   7.636   7.937  0.2132  0.0680 -0.0182
  140POPC   D2A 2167   9.297   7.650   7.489  0.0653  0.3378  0.1310
  140POPC   C3A 2168   9.431   7.482   7.103  0.1316 -0.3622 -0.0599
  140POPC   C4A 2169   9.633   7.159   6.902  0.1251 -0.2016  0.0422
  140POPC   C1B 2170   8.911   7.294   7.624  0.1748 -0.0071  0.0867
  140POPC   C2B 2171   8.804   7.545   7.323 -0.2652  0.2481  0.4299
  140POPC   C3B 2172   9.001   7.795   6.988  0.2924 -0.1558 -0.0888
  140POPC   C4B 2173   8.975   8.105   6.583 -0.0533  0.0193  0.0351
  141POPC   NC3 2174   7.573   6.650   8.473  0.2229  0.1819 -0.0727
  141POPC   PO4 2175   7.492   7.055   8.540 -0.4655 -0.1943  0.2184
  141POPC   GL1 2176   7.210   7.077   8.267 -0.2965  0.0961 -0.1901
  141POPC   GL2 2177   7.097   7.414   8.222 -0.0740 -0.2267  0.0082
  141POPC   C1A 2178   7.202   6.890   7.812  0.0843 -0.2466  0.3264
  141POPC   D2A 2179   7.063   6.923   7.320  0.0227 -0.2570  0.1978
  141POPC   C3A 2180   7.397   7.161   7.014  0.1886 -0.2203 -0.0273
  141POPC   C4A 2181   7.683   7.462   6.777 -0.2150  0.0057  0.1850
  141POPC   C1B 2182   6.902   7.795   8.083 -0.1353 -0.2155 -0.4329
  141POPC   C2B 2183   7.115   8.011   7.753 -0.1127 -0.1558 -0.0525
  141POPC   C3B 2184   7.046   7.943   7.331 -0.0595  0.1922 -0.0568
  141POPC   C4B 2185   6.750   7.865   7.069  0.3365  0.0954  0.2607
  142POPC   NC3 2186   2.756   1.428   9.794  0.0989  0.2536 -0.1824
  142POPC   PO4 2187   2.683   1.296   9.368 -0.0546  0.0112  0.0208
  142POPC   GL1 2188   2.661   1.235   8.966  0.3316 -0.0078 -0.2005
  142POPC   GL2 2189   2.420   1.533   8.852  0.0142 -0.0170 -0.3614
  142POPC   C1A 2190   2.629   1.002   8.448  0.2241 -0.0210  0.0085
  142POPC   D2A 2191   2.359   0.800   8.244 -0.0163 -0.1674  0.0741
  142POPC   C3A 2192   2.214   0.450   8.393 -0.4521 -0.0623 -0.1370
  142POPC   C4A 2193   2.043   0.517   8.892 -0.1250 -0.2903  0.3254
  142POPC   C1B 2194   2.341   1.435   8.400 -0.0600  0.1508  0.3658
  142POPC   C2B 2195   2.307   1.535   8.007  0.0085 -0.3347 -0.0525
  142POPC   C3B 2196   2.091   1.406   7.642  0.1251 -0.2699  0.0302
  142POPC   C4B 2197   2.061   1.556   7.189  0.2647  0.2990  0.1052
  143POPC   NC3 2198   0.119   6.398   8.223 -0.3262  0.2735  0.0260
  143POPC   PO4 2199   0.414   6.141   8.457 -0.2818 -0.1178 -0.3222
  143POPC   GL1 2200   0.604   6.211   8.069  0.0046 -0.0125  0.1309
  143POPC   GL2 2201   0.501   6.454   7.895 -0.0097 -0.4377  0.0820
  143POPC   C1A 2202   0.740   6.053   7.734 -0.0325  0.1339  0.3952
  143POPC   D2A 2203   0.811   5.736   7.451 -0.2220 -0.1849  0.0803
  143POPC   C3A 2204   0.877   5.756   7.058  0.1568 -0.0306 -0.1620
  143POPC   C4A 2205   0.684   5.794   6.651 -0.0193 -0.0111 -0.0848
  143POPC   C1B 2206   0.760   6.767   7.797  0.4433  0.0864  0.1818
  143POPC   C2B 2207   1.114   6.812   7.486  0.0367 -0.2060  0.1483
  143POPC   C3B 2208   1.328   6.917   7.179 -0.0340 -0.1431  0.1595
  143POPC   C4B 2209   1.249   7.197   6.843  0.1162 -0.0132  0.1168
  144POPC   NC3 2210   7.111   9.042   8.859  0.0246 -0.2033  0.1302
  144POPC   PO4 2211   6.919   9.428   8.840  0.2500  0.1363 -0.2806
  144POPC   GL1 2212   6.974   9.562   8.371  0.0735 -0.0541  0.2814
  144POPC   GL2 2213   7.046   9.176   8.379 -0.1296  0.3082 -0.1378
  144POPC   C1A 2214   6.713   9.728   8.144  0.2390  0.0915  0.0567
  144POPC   D2A 2215   6.337   9.908   8.190  0.5474 -0.1430  0.1871
  144POPC   C3A 2216   5.937   9.810   7.988  0.0715 -0.1918  0.0771
  144POPC   C4A 2217   5.960   9.738   7.592  0.1935 -0.0164  0.0287
  144POPC   C1B 2218   7.276   9.346   8.011  0.0917  0.2500 -0.0029
  144POPC   C2B 2219   7.466   9.515   7.600  0.1200  0.0582  0.0396
  144POPC   C3B 2220   7.556   9.883   7.227  0.1116  0.1402 -0.1006
  144POPC   C4B 2221   7.886  10.134   6.995  0.1354  0.0619 -0.0219
  145POPC   NC3 2222   7.167   2.145   8.698  0.1082  0.0422  0.0220
  145POPC   PO4 2223   7.474   2.338   8.678 -0.1194  0.1501  0.0650
  145POPC   GL1 2224   7.467   2.200   8.346  0.2765  0.2637 -0.0461
  145POPC   GL2 2225   7.165   1.990   8.144 -0.1619 -0.0877 -0.1504
  145POPC   C1A 2226   7.391   2.452   8.088  0.0973  0.0650  0.1137
  145POPC   D2A 2227   7.173   2.862   7.929 -0.0294 -0.2184 -0.3529
  145POPC   C3A 2228   7.368   3.085   7.616  0.2612 -0.0438  0.1119
  145POPC   C4A 2229   7.421   3.529   7.465 -0.1322 -0.0123 -0.2794
  145POPC   C1B 2230   7.242   1.836   7.723 -0.2725 -0.1038 -0.0260
  145POPC   C2B 2231   7.344   1.727   7.262  0.2913 -0.0330  0.0535
  145POPC   C3B 2232   7.536   1.647   6.889 -0.3443  0.2136  0.0397
  145POPC   C4B 2233   8.024   1.636   6.761  0.1250  0.0821  0.1677
  146POPC   NC3 2234   9.676   4.457   8.669 -0.0256  0.0659  0.4552
  146POPC   PO4 2235   9.473   4.100   8.662 -0.0795  0.0920 -0.0494
  146POPC   GL1 2236   9.416   3.931   8.197 -0.0654 -0.2344 -0.1865
  146POPC   GL2 2237   9.691   3.972   7.919  0.1743  0.0379 -0.1158
  146POPC   C1A 2238   9.292   4.259   7.855  0.3046 -0.2643 -0.1750
  146POPC   D2A 2239   9.443   4.624   7.689 -0.0473  0.0216  0.2286
  146POPC   C3A 2240   9.484   4.705   7.292  0.3476 -0.1390 -0.0049
  146POPC   C4A 2241   9.624   4.918   6.940  0.4409 -0.2820  0.1754
  146POPC   C1B 2242   9.536   4.151   7.516 -0.1320  0.0135  0.1603
  146POPC   C2B 2243   9.281   4.219   7.219 -0.2723  0.2392 -0.0572
  146POPC   C3B 2244   9.081   3.981   6.917  0.0229  0.0763  0.1991
  146POPC   C4B 2245   8.749   3.690   7.000 -0.0095 -0.0648 -0.2022
  147POPC   NC3 2246   8.098   5.924   8.798  0.0258 -0.0158  0.2330
  147POPC   PO4 2247   7.988   5.638   8.445  0.1923 -0.0852  0.0199
  147POPC   GL1 2248   8.053   6.028   8.114  0.2663 -0.1538 -0.1122
  147POPC   GL2 2249   7.889   6.114   7.857 -0.0542  0.4274  0.0372
  147POPC   C1A 2250   8.425   6.311   7.883 -0.4256  0.1120  0.0925
  147POPC   D2A 2251   8.768   6.294   7.516  0.0903 -0.0035 -0.0174
  147POPC   C3A 2252   8.750   6.314   7.139  0.0121  0.3785 -0.1090
  147POPC   C4A 2253   8.959   6.341   6.776  0.1606  0.0284 -0.0528
  147POPC   C1B 2254   7.996   6.223   7.406  0.0836 -0.1980  0.0440
  147POPC   C2B 2255   8.219   6.223   6.964 -0.1665  0.2788 -0.2791
  147POPC   C3B 2256   8.479   6.452   6.699 -0.3204 -0.0498 -0.0559
  147POPC   C4B 2257   8.532   6.867   6.503  0.3018  0.1277 -0.1478
  148POPC   NC3 2258   2.987   0.198   9.684  0.5034 -0.3461  0.2600
  148POPC   PO4 2259   3.088   0.570   9.619  0.1059  0.1341  0.2351
  148POPC   GL1 2260   3.292   0.278   9.279 -0.2532  0.1858 -0.2071
  148POPC   GL2 2261   3.104   0.392   9.047 -0.0865 -0.0199  0.2260
  148POPC   C1A 2262   3.483   0.147   8.983  0.1593  0.0589  0.2297
  148POPC   D2A 2263   3.452   0.392   8.561  0.0993 -0.2244  0.1573
  148POPC   C3A 2264   3.404   0.514   8.034 -0.0538 -0.0588  0.0540
  148POPC   C4A 2265   3.256   0.494   7.657 -0.0375  0.1052 -0.0633
  148POPC   C1B 2266   2.913   0.059   8.705  0.0475  0.0771 -0.3713
  148POPC   C2B 2267   2.899  -0.365   8.607 -0.0394  0.1015  0.1382
  148POPC   C3B 2268   3.113  -0.497   8.157 -0.3032 -0.0724  0.0121
  148POPC   C4B 2269   3.211  -0.808   7.826  0.2062 -0.0346  0.0905
  149POPC   NC3 2270   3.426   0.882   9.047 -0.1800 -0.1165 -0.0257
  149POPC   PO4 2271   3.575   1.170   8.939  0.1772 -0.0980 -0.1469
  149POPC   GL1 2272   3.550   0.968   8.535  0.0082  0.0505 -0.0143
  149POPC   GL2 2273   3.742   0.831   8.365 -0.0729  0.1880 -0.1259
  149POPC   C1A 2274   3.129   0.884   8.281 -0.3856 -0.0410  0.2616
  149POPC   D2A 2275   2.871   0.751   8.030 -0.1574  0.0297  0.0871
  149POPC   C3A 2276   2.777   0.664   7.659  0.2578  0.3021 -0.0166
  149POPC   C4A 2277   2.531   0.423   7.305  0.0786 -0.1786  0.1235
  149POPC   C1B 2278   3.701   0.936   7.916  0.4429  0.0369 -0.1512
  149POPC   C2B 2279   3.664   0.793   7.424  0.0060 -0.3229 -0.0420
  149POPC   C3B 2280   3.838   0.805   6.958  0.1163 -0.2516 -0.2772
  149POPC   C4B 2281   4.232   0.982   6.780  0.2813  0.2801  0.1743
  150POPC   NC3 2282   5.475  10.320   8.886  0.1993 -0.0267 -0.2546
  150POPC   PO4 2283   5.462   9.797   9.039  0.1149  0.1292  0.1951
  150POPC   GL1 2284   5.435   9.768   8.575 -0.2035 -0.1074 -0.2209
  150POPC   GL2 2285   5.679   9.994   8.445  0.1004 -0.0932 -0.0518
  150POPC   C1A 2286   5.499   9.618   8.187  0.2686 -0.1907 -0.0120
  150POPC   D2A 2287   5.439   9.545   7.686 -0.0827 -0.1322 -0.1699
  150POPC   C3A 2288   5.557   9.559   7.204 -0.0506 -0.0923 -0.4526
  150POPC   C4A 2289   5.528   9.168   6.982 -0.2157  0.1922  0.0778
  150POPC   C1B 2290   5.616  10.156   7.969  0.3448 -0.0953 -0.2605
  150POPC   C2B 2291   5.394  10.400   7.630 -0.0470 -0.3687  0.2320
  150POPC   C3B 2292   5.433  10.560   7.193 -0.2356 -0.0458  0.2302
  150POPC   C4B 2293   5.398  10.839   6.837  0.0200 -0.0840 -0.0101
  151POPC   NC3 2294   4.149   8.964   9.049  0.0790 -0.4257  0.1085
  151POPC   PO4 2295   4.155   8.714   8.785 -0.1507  0.3365  0.0800
  151POPC   GL1 2296   4.310   8.691   8.403  0.0031 -0.0465 -0.0924
  151POPC   GL2 2297   4.287   9.054   8.260 -0.2493  0.4105 -0.5760
  151POPC   C1A 2298   4.103   8.469   8.085 -0.0353 -0.2905  0.0348
  151POPC   D2A 2299   3.954   8.229   7.763  0.1904  0.2184 -0.1550
  151POPC   C3A 2300   3.978   8.320   7.320 -0.2197  0.0586 -0.4039
  151POPC   C4A 2301   3.975   8.427   6.830  0.1615  0.0145  0.1649
  151POPC   C1B 2302   4.251   8.938   7.834 -0.1960  0.2087 -0.0961
  151POPC   C2B 2303   4.369   8.609   7.552 -0.2171  0.1683  0.3153
  151POPC   C3B 2304   4.571   8.295   7.272 -0.2168  0.1643 -0.0453
  151POPC   C4B 2305   4.627   8.126   6.926 -0.0785  0.2190 -0.2824
  152POPC   NC3 2306   4.287   3.131   8.595 -0.3188 -0.0313 -0.1555
  152POPC   PO4 2307   3.961   3.508   8.617  0.2345 -0.1466 -0.1058
  152POPC   GL1 2308   4.167   3.328   8.141 -0.2501  0.3384  0.1630
  152POPC   GL2 2309   4.017   3.368   7.972  0.0659 -0.1123  0.1280
  152POPC   C1A 2310   4.447   3.270   7.766 -0.0116  0.1727  0.0102
  152POPC   D2A 2311   4.536   2.976   7.576  0.1457  0.0789  0.0890
  152POPC   C3A 2312   4.696   3.075   7.234 -0.2450  0.4136  0.0569
  152POPC   C4A 2313   4.636   3.348   6.844  0.0316  0.0125 -0.0106
  152POPC   C1B 2314   3.908   3.168   7.681 -0.0961 -0.0212  0.2017
  152POPC   C2B 2315   3.929   2.786   7.269  0.0752 -0.1552  0.1152
  152POPC   C3B 2316   3.909   2.732   6.818 -0.4223 -0.0021  0.0375
  152POPC   C4B 2317   4.149   2.297   6.700  0.2237  0.0411  0.0461
  153POPC   NC3 2318   1.112   7.006   9.469 -0.0512  0.1417 -0.0956
  153POPC   PO4 2319   1.018   7.039   9.091  0.1238  0.2477 -0.0791
  153POPC   GL1 2320   1.101   7.235   8.642 -0.1672 -0.0262  0.2357
  153POPC   GL2 2321   1.108   7.067   8.318 -0.0749 -0.0716 -0.2757
  153POPC   C1A 2322   1.465   7.380   8.484 -0.2252 -0.1093 -0.3280
  153POPC   D2A 2323   1.465   7.721   8.234 -0.0617  0.4126  0.2832
  153POPC   C3A 2324   1.378   7.614   7.774 -0.2675 -0.1010  0.1734
  153POPC   C4A 2325   1.330   7.369   7.367  0.2060 -0.5228 -0.0229
  153POPC   C1B 2326   1.248   7.206   8.002 -0.1535  0.0369  0.0070
  153POPC   C2B 2327   1.648   7.156   7.889  0.2396  0.0161 -0.0281
  153POPC   C3B 2328   1.661   6.955   7.528 -0.3243  0.3655 -0.1011
  153POPC   C4B 2329   1.883   6.759   7.181 -0.3035  0.0780  0.0898
  154POPC   NC3 2330   8.629   8.068   8.782 -0.1180  0.3072 -0.3434
  154POPC   PO4 2331   8.976   7.871   8.627 -0.1978  0.1137  0.3417
  154POPC   GL1 2332   8.952   8.027   8.251  0.1912  0.0251 -0.2170
  154POPC   GL2 2333   8.625   8.101   8.226  0.2427  0.1502  0.0977
  154POPC   C1A 2334   8.902   8.086   7.831  0.0265  0.0423 -0.0671
  154POPC   D2A 2335   8.964   8.110   7.340  0.1477 -0.1018  0.0219
  154POPC   C3A 2336   9.401   8.081   7.237 -0.0468 -0.1511  0.4702
  154POPC   C4A 2337   9.821   8.283   7.489 -0.1007 -0.3355 -0.0261
  154POPC   C1B 2338   8.532   7.738   7.981  0.1210 -0.1454 -0.2665
  154POPC   C2B 2339   8.489   7.773   7.570  0.1425  0.2541 -0.1629
  154POPC   C3B 2340   8.470   7.948   7.167  0.3930  0.2377 -0.1867
  154POPC   C4B 2341   8.349   8.177   6.864 -0.0699 -0.1160 -0.2272
  155POPC   NC3 2342   8.380   6.684   8.639 -0.0632  0.1079  0.1366
  155POPC   PO4 2343   8.176   6.333   8.525 -0.3329 -0.0398 -0.3487
  155POPC   GL1 2344   8.115   6.501   8.194 -0.0840  0.0270 -0.0437
  155POPC   GL2 2345   8.240   6.702   8.199 -0.1094 -0.1303 -0.0014
  155POPC   C1A 2346   7.906   6.682   7.784 -0.0015  0.0923  0.0714
  155POPC   D2A 2347   7.990   6.762   7.420 -0.1981  0.1607 -0.1187
  155POPC   C3A 2348   8.344   6.574   7.365  0.0314  0.0265 -0.0556
  155POPC   C4A 2349   8.703   6.753   7.031 -0.2238 -0.1041 -0.2715
  155POPC   C1B 2350   8.463   6.847   7.796  0.0708  0.4781  0.0426
  155POPC   C2B 2351   8.888   6.774   7.590  0.1567 -0.3587  0.1329
  155POPC   C3B 2352   9.299   6.690   7.679 -0.1613  0.1386 -0.0602
  155POPC   C4B 2353   9.757   6.860   7.807  0.1477  0.0986 -0.3033
  156POPC   NC3 2354   6.454  10.298   8.637  0.2185  0.0941  0.0267
  156POPC   PO4 2355   5.997  10.450   8.516 -0.0166 -0.2728  0.3103
  156POPC   GL1 2356   5.556  10.710   8.374  0.1061  0.1274  0.1079
  156POPC   GL2 2357   5.475  11.068   8.422 -0.2235  0.2739  0.4364
  156POPC   C1A 2358   5.291  10.731   8.000 -0.0752  0.1540  0.0924
  156POPC   D2A 2359   4.923  10.676   7.739  0.2192  0.2290  0.0474
  156POPC   C3A 2360   4.955  10.902   7.295  0.0969  0.0199 -0.3245
  156POPC   C4A 2361   5.009  11.114   6.911 -0.2521 -0.0191 -0.0642
  156POPC   C1B 2362   5.129  11.184   8.047 -0.4055 -0.0378  0.0694
  156POPC   C2B 2363   4.709  11.174   7.754  0.1749 -0.1699 -0.3620
  156POPC   C3B 2364   4.450  10.939   7.534  0.0593  0.1411  0.2525
  156POPC   C4B 2365   4.083  10.760   7.450 -0.4079 -0.1181  0.2749
  157POPC   NC3 2366   3.955   9.794   9.414  0.0717 -0.1332  0.2479
  157POPC   PO4 2367   4.235   9.519   9.227  0.0677  0.2062 -0.1767
  157POPC   GL1 2368   4.077   9.582   8.803 -0.1468 -0.0119  0.3094
  157POPC   GL2 2369   4.024   9.333   8.706 -0.2244 -0.0135  0.1373
  157POPC   C1A 2370   3.589   9.518   8.567  0.0893  0.0871 -0.1944
  157POPC   D2A 2371   3.315   9.503   8.273  0.0751  0.0879  0.2769
  157POPC   C3A 2372   3.341   9.247   7.863 -0.0510 -0.1023  0.0398
  157POPC   C4A 2373   3.204   8.951   7.641  0.2834  0.3747  0.2714
  157POPC   C1B 2374   4.025   9.548   8.311  0.1296  0.2807  0.0034
  157POPC   C2B 2375   4.185   9.472   7.926  0.0782  0.0885  0.2017
  157POPC   C3B 2376   4.190   9.344   7.513 -0.2165  0.0606  0.0063
  157POPC   C4B 2377   4.372   9.545   7.183  0.0880 -0.1571 -0.0698
  158POPC   NC3 2378   4.373   5.783   9.384  0.0789 -0.0292  0.2800
  158POPC   PO4 2379   4.557   5.958   9.042  0.0472  0.4337 -0.0761
  158POPC   GL1 2380   4.279   6.105   8.686 -0.0768 -0.0961  0.1528
  158POPC   GL2 2381   4.556   6.145   8.491  0.4547 -0.3997 -0.1345
  158POPC   C1A 2382   4.036   6.026   8.309  0.3435 -0.0289  0.2329
  158POPC   D2A 2383   4.038   6.150   7.908 -0.1414 -0.4252  0.0126
  158POPC   C3A 2384   3.916   6.447   7.622 -0.3427  0.1895  0.0843
  158POPC   C4A 2385   3.619   6.420   7.291  0.0385 -0.0835 -0.1231
  158POPC   C1B 2386   4.661   6.147   8.103  0.3023  0.2390 -0.1107
  158POPC   C2B 2387   4.451   5.962   7.734  0.2345  0.0820 -0.1620
  158POPC   C3B 2388   4.546   5.933   7.378  0.2581 -0.2035 -0.0486
  158POPC   C4B 2389   4.601   5.857   6.914  0.2520  0.0161 -0.0868
  159POPC   NC3 2390   4.691   5.383   8.913  0.0541  0.0013  0.2878
  159POPC   PO4 2391   4.609   4.929   8.849 -0.2817 -0.5084 -0.1530
  159POPC   GL1 2392   4.983   5.113   8.646  0.3468  0.0020  0.0139
  159POPC   GL2 2393   5.223   4.805   8.484 -0.0104  0.0713 -0.0650
  159POPC   C1A 2394   4.980   5.120   8.242 -0.2189 -0.0941  0.0832
  159POPC   D2A 2395   5.016   5.149   7.731  0.0586 -0.2225 -0.0781
  159POPC   C3A 2396   5.344   5.189   7.525 -0.3250  0.1757  0.2033
  159POPC   C4A 2397   5.364   5.007   7.008 -0.0530 -0.0738  0.3267
  159POPC   C1B 2398   5.431   4.704   8.047 -0.0268 -0.1052 -0.1794
  159POPC   C2B 2399   5.370   4.678   7.623  0.1907  0.0251  0.1967
  159POPC   C3B 2400   5.462   4.594   7.260 -0.1303 -0.1915 -0.2744
  159POPC   C4B 2401   5.565   4.324   6.875 -0.0548  0.1130 -0.1407
  160POPC   NC3 2402   7.687   7.570   8.706 -0.2746 -0.0967  0.2808
  160POPC   PO4 2403   8.074   7.461   8.628 -0.2727 -0.3736 -0.3186
  160POPC   GL1 2404   8.099   7.466   8.239 -0.3158 -0.0844 -0.0521
  160POPC   GL2 2405   8.106   7.120   8.049 -0.1162 -0.0924  0.0435
  160POPC   C1A 2406   8.063   7.737   7.879 -0.2421 -0.0415  0.0596
  160POPC   D2A 2407   8.068   7.698   7.326  0.0553  0.0786  0.0978
  160POPC   C3A 2408   7.921   8.003   7.004  0.4288 -0.1186 -0.2403
  160POPC   C4A 2409   7.644   8.189   6.855  0.2266 -0.1558  0.0291
  160POPC   C1B 2410   8.291   7.304   7.627  0.4012  0.1299 -0.1491
  160POPC   C2B 2411   8.525   7.141   7.288  0.3277 -0.0045 -0.2675
  160POPC   C3B 2412   8.249   6.925   6.949 -0.0637  0.1202 -0.0430
  160POPC   C4B 2413   7.965   6.621   6.769 -0.2789  0.2450 -0.0277
  161POPC   NC3 2414   2.104   0.044  10.108  0.1487 -0.1315 -0.1810
  161POPC   PO4 2415   2.444   0.018   9.723 -0.2257  0.0225 -0.3577
  161POPC   GL1 2416   2.271   0.071   9.384 -0.3461  0.1834  0.1519
  161POPC   GL2 2417   2.602   0.338   9.328 -0.1958 -0.1318 -0.3764
  161POPC   C1A 2418   2.092   0.037   9.057  0.2887 -0.1768  0.0126
  161POPC   D2A 2419   1.927   0.076   8.644 -0.1207 -0.1177  0.0715
  161POPC   C3A 2420   1.407  -0.020   8.619  0.0710 -0.0494  0.1160
  161POPC   C4A 2421   1.063   0.256   8.727 -0.1612  0.0539  0.0852
  161POPC   C1B 2422   2.528   0.542   8.886 -0.4231 -0.3181  0.1646
  161POPC   C2B 2423   2.715   0.504   8.400  0.0052  0.0024 -0.0425
  161POPC   C3B 2424   2.937   0.135   8.202  0.4920 -0.0302  0.4692
  161POPC   C4B 2425   3.043   0.073   7.800  0.1752  0.0536  0.1914
  162POPC   NC3 2426   5.743   7.801   9.353  0.2107 -0.4177 -0.0742
  162POPC   PO4 2427   5.756   7.418   8.972 -0.2499  0.3888  0.0189
  162POPC   GL1 2428   5.819   7.344   8.487  0.1912  0.1427 -0.1836
  162POPC   GL2 2429   6.017   7.488   8.263  0.0251 -0.2688 -0.1395
  162POPC   C1A 2430   5.583   7.152   8.131  0.0385 -0.1281 -0.0551
  162POPC   D2A 2431   5.338   6.826   7.929  0.4249  0.0236 -0.0902
  162POPC   C3A 2432   5.118   6.751   7.426 -0.1628 -0.3921  0.3136
  162POPC   C4A 2433   5.113   6.664   7.010  0.0919  0.0244 -0.2808
  162POPC   C1B 2434   6.078   7.288   7.876  0.1892  0.1172 -0.1531
  162POPC   C2B 2435   6.305   7.011   7.736 -0.1648 -0.0026  0.0220
  162POPC   C3B 2436   6.587   7.050   7.426  0.4615 -0.3407 -0.0521
  162POPC   C4B 2437   6.918   7.337   7.146  0.1040 -0.1945 -0.0947
  163POPC   NC3 2438   8.855   8.509   9.047 -0.2719 -0.0474  0.1218
  163POPC   PO4 2439   8.334   8.425   8.941  0.1372 -0.2257  0.2149
  163POPC   GL1 2440   8.289   8.403   8.502 -0.1371 -0.2614 -0.1213
  163POPC   GL2 2441   7.991   8.489   8.476  0.0049  0.0027 -0.1931
  163POPC   C1A 2442   8.196   8.317   8.006 -0.1116  0.2026  0.3029
  163POPC   D2A 2443   8.432   8.203   7.718 -0.2336 -0.1256 -0.0917
  163POPC   C3A 2444   8.339   8.408   7.364 -0.1755  0.0444 -0.1433
  163POPC   C4A 2445   7.942   8.518   7.027  0.1688 -0.0115 -0.0865
  163POPC   C1B 2446   7.725   8.470   8.099 -0.2071  0.2917  0.0041
  163POPC   C2B 2447   7.401   8.528   7.750 -0.3247  0.0601  0.1446
  163POPC   C3B 2448   7.032   8.483   7.504 -0.0682  0.0049 -0.3934
  163POPC   C4B 2449   6.984   8.407   7.158 -0.0125 -0.1562  0.1250
  164POPC   NC3 2450   1.657   3.905   8.079  0.0271 -0.0150 -0.1168
  164POPC   PO4 2451   1.669   3.491   8.260  0.4250 -0.2261  0.0241
  164POPC   GL1 2452   1.581   3.468   7.805 -0.3983  0.1582  0.2817
  164POPC   GL2 2453   1.637   3.712   7.629  0.0720  0.3780  0.1387
  164POPC   C1A 2454   1.649   3.152   7.344 -0.1579 -0.4704 -0.0014
  164POPC   D2A 2455   1.653   2.872   6.922  0.4503 -0.1102  0.3887
  164POPC   C3A 2456   1.971   2.656   6.808  0.1589 -0.2777 -0.1913
  164POPC   C4A 2457   2.309   2.416   6.647  0.0217 -0.2936  0.1709
  164POPC   C1B 2458   1.694   3.717   7.201 -0.1769 -0.0414 -0.0169
  164POPC   C2B 2459   1.810   3.827   6.775 -0.0062  0.1235  0.2094
  164POPC   C3B 2460   2.066   3.938   6.740 -0.2628  0.0805  0.1815
  164POPC   C4B 2461   2.325   4.025   6.400  0.1421 -0.1034 -0.1764
  165POPC   NC3 2462   1.005   2.390   9.073 -0.3737  0.1821 -0.0613
  165POPC   PO4 2463   1.216   2.067   9.099  0.1609 -0.0781  0.4402
  165POPC   GL1 2464   1.445   1.988   8.710  0.0480  0.0116 -0.0257
  165POPC   GL2 2465   1.597   2.269   8.581 -0.0013 -0.3547 -0.1196
  165POPC   C1A 2466   1.370   1.659   8.491  0.3109 -0.3786  0.2033
  165POPC   D2A 2467   1.316   1.513   8.208 -0.0883 -0.1580 -0.0667
  165POPC   C3A 2468   1.538   1.168   8.262 -0.0483  0.2921  0.0662
  165POPC   C4A 2469   1.756   0.755   8.398  0.0051 -0.1233 -0.1235
  165POPC   C1B 2470   1.577   2.051   8.150 -0.0992 -0.2247 -0.2067
  165POPC   C2B 2471   1.285   1.935   7.897 -0.0751 -0.0626 -0.1162
  165POPC   C3B 2472   1.078   1.858   7.494  0.1358 -0.2175  0.0092
  165POPC   C4B 2473   1.197   1.813   7.109  0.1560  0.3140 -0.0373
  166POPC   NC3 2474   2.884   7.410   9.082 -0.3735  0.3572  0.0556
  166POPC   PO4 2475   2.852   7.063   8.982  0.0499 -0.1447  0.1482
  166POPC   GL1 2476   2.866   7.234   8.586  0.2233  0.0629  0.6292
  166POPC   GL2 2477   2.658   7.448   8.449  0.2587 -0.1091 -0.2494
  166POPC   C1A 2478   3.075   7.503   8.244 -0.1934  0.2646  0.0606
  166POPC   D2A 2479   3.190   7.594   7.784 -0.1658 -0.2605  0.1522
  166POPC   C3A 2480   2.899   7.996   7.785 -0.3697 -0.2393  0.0162
  166POPC   C4A 2481   3.001   8.324   7.447  0.4632  0.0681 -0.0452
  166POPC   C1B 2482   2.583   7.367   8.097 -0.2509 -0.0448 -0.2244
  166POPC   C2B 2483   2.558   7.538   7.677 -0.1445  0.0382 -0.0471
  166POPC   C3B 2484   2.323   7.578   7.308  0.0588  0.1336  0.0176
  166POPC   C4B 2485   2.129   7.716   7.000 -0.0773 -0.0486 -0.0650
  167POPC   NC3 2486   6.394   0.317   8.588  0.0827 -0.2871 -0.0771
  167POPC   PO4 2487   6.840   0.522   8.616  0.1755 -0.0040 -0.1804
  167POPC   GL1 2488   6.870   0.715   8.240  0.2989  0.0845 -0.2639
  167POPC   GL2 2489   6.737   0.801   7.995  0.1401  0.3046  0.0602
  167POPC   C1A 2490   7.194   0.935   8.028 -0.0922 -0.1443  0.4857
  167POPC   D2A 2491   7.419   0.796   7.700  0.1251  0.1192 -0.0076
  167POPC   C3A 2492   7.783   0.939   7.467  0.0836 -0.4886  0.0516
  167POPC   C4A 2493   8.054   0.668   7.476  0.3770 -0.0429 -0.0777
  167POPC   C1B 2494   6.944   0.543   7.714  0.0279 -0.0210  0.0684
  167POPC   C2B 2495   7.216   0.346   7.421  0.0780 -0.1260 -0.2740
  167POPC   C3B 2496   7.036   0.142   7.003 -0.1723  0.1250  0.0245
  167POPC   C4B 2497   6.764   0.031   6.729  0.1225 -0.0149  0.2863
  168POPC   NC3 2498   5.140   0.696   4.773  0.0467  0.2115  0.0627
  168POPC   PO4 2499   5.533   0.716   4.756 -0.0098  0.0725 -0.2853
  168POPC   GL1 2500   5.494   0.787   5.202 -0.4819 -0.1451 -0.4194
  168POPC   GL2 2501   5.188   0.959   5.257 -0.0435 -0.1109  0.1853
  168POPC   C1A 2502   5.558   0.920   5.609  0.1884 -0.0630 -0.1413
  168POPC   D2A 2503   5.494   1.129   5.924  0.1359 -0.1528 -0.0371
  168POPC   C3A 2504   5.200   1.072   6.230  0.1119 -0.1654  0.0048
  168POPC   C4A 2505   4.749   1.115   6.343 -0.0596 -0.0649 -0.0624
  168POPC   C1B 2506   5.108   0.716   5.590  0.0890 -0.2332 -0.0285
  168POPC   C2B 2507   4.838   0.788   5.891  0.0533  0.1338 -0.1504
  168POPC   C3B 2508   4.482   0.674   6.052  0.2186 -0.0394 -0.0445
  168POPC   C4B 2509   4.527   0.654   6.525 -0.0599 -0.0776  0.0567
  169POPC   NC3 2510   8.633   9.820   4.053  0.3673  0.2462  0.1838
  169POPC   PO4 2511   8.386   9.618   4.345 -0.0039  0.0500  0.0823
  169POPC   GL1 2512   8.564   9.589   4.748  0.2673 -0.3858 -0.0384
  169POPC   GL2 2513   8.297   9.845   4.920  0.2044  0.0606 -0.0058
  169POPC   C1A 2514   8.848   9.555   5.082 -0.1147 -0.1427 -0.1431
  169POPC   D2A 2515   9.190   9.611   5.225  0.2003  0.3069 -0.0731
  169POPC   C3A 2516   9.477   9.331   4.976  0.0108  0.0925 -0.2471
  169POPC   C4A 2517   9.862   9.308   5.046  0.0332 -0.0804  0.0445
  169POPC   C1B 2518   8.464   9.995   5.241  0.1659  0.2581 -0.0328
  169POPC   C2B 2519   8.753   9.827   5.471 -0.0992  0.3559  0.0651
  169POPC   C3B 2520   9.220   9.888   5.594  0.0773  0.0697 -0.0471
  169POPC   C4B 2521   9.559  10.090   5.659 -0.1173 -0.1512  0.2051
  170POPC   NC3 2522   5.725   5.393   4.823 -0.1381  0.2419 -0.0910
  170POPC   PO4 2523   6.189   5.199   4.822  0.1728  0.2013 -0.1417
  170POPC   GL1 2524   6.283   5.185   5.266  0.2560  0.4286 -0.0231
  170POPC   GL2 2525   6.084   4.883   5.419  0.0152 -0.0332 -0.0102
  170POPC   C1A 2526   6.449   5.406   5.519 -0.2443 -0.0427 -0.1290
  170POPC   D2A 2527   6.285   5.646   5.877  0.5480 -0.3030 -0.1435
  170POPC   C3A 2528   6.478   5.646   6.188 -0.3569 -0.0187  0.1501
  170POPC   C4A 2529   6.385   5.956   6.504 -0.4434 -0.0931 -0.1747
  170POPC   C1B 2530   6.043   5.157   5.760 -0.2987  0.2154 -0.2007
  170POPC   C2B 2531   5.819   5.475   5.929  0.1523 -0.1073  0.1052
  170POPC   C3B 2532   5.616   5.840   5.920  0.2466  0.0592 -0.0570
  170POPC   C4B 2533   5.203   6.083   6.091  0.0700  0.0051  0.2781
  171POPC   NC3 2534   6.673   2.131   5.073 -0.0998  0.1382 -0.0976
  171POPC   PO4 2535   6.901   2.461   5.072  0.0384 -0.0308  0.0704
  171POPC   GL1 2536   6.826   2.430   5.484 -0.2610 -0.0611 -0.1920
  171POPC   GL2 2537   7.025   2.637   5.675 -0.0121 -0.0066 -0.3554
  171POPC   C1A 2538   6.548   2.419   5.824 -0.3120  0.2638  0.1118
  171POPC   D2A 2539   6.468   2.443   6.243 -0.1342  0.2299  0.1771
  171POPC   C3A 2540   6.024   2.581   6.376  0.1391  0.0804  0.1341
  171POPC   C4A 2541   5.764   2.538   6.132 -0.0347  0.0157 -0.0299
  171POPC   C1B 2542   6.588   2.890   5.652 -0.0907  0.0694 -0.3014
  171POPC   C2B 2543   6.271   2.909   5.966  0.2448  0.2484 -0.0921
  171POPC   C3B 2544   6.403   2.887   6.389  0.4297  0.2535 -0.1578
  171POPC   C4B 2545   6.676   2.803   6.649  0.3498 -0.0928 -0.0108
  172POPC   NC3 2546   8.821   4.619   4.970  0.0947 -0.0276  0.2393
  172POPC   PO4 2547   9.290   4.603   4.931 -0.1232 -0.1578 -0.3052
  172POPC   GL1 2548   9.221   4.747   5.316  0.2727  0.1474 -0.0114
  172POPC   GL2 2549   8.960   4.708   5.413 -0.1790 -0.1410 -0.0325
  172POPC   C1A 2550   9.360   4.744   5.754  0.0144 -0.1919  0.1627
  172POPC   D2A 2551   9.503   4.736   6.100  0.1730 -0.0873  0.0306
  172POPC   C3A 2552   9.309   4.458   6.247  0.0758 -0.1847  0.0829
  172POPC   C4A 2553   9.282   4.065   6.485 -0.0446  0.0665  0.0175
  172POPC   C1B 2554   8.885   4.513   5.772  0.2152 -0.4761  0.2745
  172POPC   C2B 2555   8.758   4.283   6.074 -0.0906 -0.0261  0.0450
  172POPC   C3B 2556   8.719   4.146   6.528  0.0565 -0.1654 -0.0315
  172POPC   C4B 2557   8.678   4.289   7.002 -0.2499 -0.0260  0.1316
  173POPC   NC3 2558   7.994   0.265   4.771 -0.2700  0.0423  0.1096
  173POPC   PO4 2559   7.826  -0.272   4.722 -0.1080 -0.0807  0.0090
  173POPC   GL1 2560   8.023  -0.152   5.096  0.2837  0.2537  0.1608
  173POPC   GL2 2561   7.976  -0.263   5.401 -0.0381  0.0947  0.5616
  173POPC   C1A 2562   8.397  -0.008   5.338  0.3181  0.0698  0.3391
  173POPC   D2A 2563   8.628   0.155   5.802  0.2373  0.0750 -0.0807
  173POPC   C3A 2564   8.553  -0.111   6.122 -0.1074  0.0083 -0.1977
  173POPC   C4A 2565   8.841  -0.326   6.408 -0.0521  0.1501  0.0758
  173POPC   C1B 2566   7.864  -0.469   5.744  0.1883 -0.1986  0.1540
  173POPC   C2B 2567   7.823  -0.416   6.156 -0.0436 -0.2316  0.0383
  173POPC   C3B 2568   7.926  -0.093   6.441  0.2876  0.1870  0.0576
  173POPC   C4B 2569   8.269   0.080   6.829 -0.0042 -0.0163  0.0876
  174POPC   NC3 2570   8.928   3.569   5.172 -0.4264  0.1508 -0.0632
  174POPC   PO4 2571   9.464   3.409   5.030 -0.0026  0.0148  0.3741
  174POPC   GL1 2572   9.641   3.258   5.353 -0.1181  0.4806  0.0872
  174POPC   GL2 2573   9.854   3.454   5.489  0.0868 -0.2677  0.2079
  174POPC   C1A 2574   9.696   3.076   5.789 -0.3190  0.1077 -0.0011
  174POPC   D2A 2575   9.814   2.903   6.214  0.2089  0.1156  0.1137
  174POPC   C3A 2576   9.949   3.232   6.484  0.0775 -0.0526 -0.0021
  174POPC   C4A 2577  10.069   3.201   6.907  0.0458  0.1795 -0.0311
  174POPC   C1B 2578   9.647   3.553   5.876  0.1824 -0.2908 -0.1324
  174POPC   C2B 2579   9.584   3.742   6.301  0.0600 -0.0811  0.2359
  174POPC   C3B 2580   9.724   3.615   6.700 -0.1363 -0.2474  0.1827
  174POPC   C4B 2581   9.982   3.651   7.062  0.0591 -0.1224  0.4514
  175POPC   NC3 2582   1.995   4.932   4.610  0.1710  0.3305 -0.1621
  175POPC   PO4 2583   2.379   4.754   4.680 -0.1138 -0.1847 -0.1665
  175POPC   GL1 2584   2.245   4.880   5.025  0.1073 -0.0668  0.1370
  175POPC   GL2 2585   2.120   4.655   5.281 -0.0662  0.0847 -0.0114
  175POPC   C1A 2586   1.967   5.133   5.291 -0.0105 -0.2112  0.0008
  175POPC   D2A 2587   1.791   5.141   5.689 -0.0930 -0.1331 -0.0858
  175POPC   C3A 2588   2.038   5.173   6.084 -0.1935 -0.2920  0.1141
  175POPC   C4A 2589   2.220   5.020   6.388 -0.1437  0.0983 -0.3357
  175POPC   C1B 2590   2.172   4.803   5.603  0.0693 -0.0670  0.0937
  175POPC   C2B 2591   1.850   4.711   5.989 -0.4393  0.0036  0.0936
  175POPC   C3B 2592   1.539   4.479   6.168 -0.1048 -0.0337 -0.0368
  175POPC   C4B 2593   1.053   4.653   6.123  0.0866  0.0647  0.0723
  176POPC   NC3 2594   9.723   2.998   4.923 -0.1539  0.2136 -0.0535
  176POPC   PO4 2595   9.997   2.649   4.998 -0.2153  0.0260 -0.1142
  176POPC   GL1 2596  10.111   2.364   5.263  0.0249  0.0587  0.2966
  176POPC   GL2 2597   9.965   2.198   5.371 -0.0564 -0.2654  0.2563
  176POPC   C1A 2598  10.269   2.307   5.742  0.0363 -0.3082 -0.3314
  176POPC   D2A 2599  10.705   2.641   6.094 -0.1670  0.0373  0.2631
  176POPC   C3A 2600  11.016   2.341   6.276  0.1789 -0.1618 -0.0607
  176POPC   C4A 2601  11.494   2.402   6.526 -0.0903  0.3162  0.0805
  176POPC   C1B 2602   9.882   1.953   5.653 -0.0791  0.3940 -0.0502
  176POPC   C2B 2603   9.545   1.904   5.962 -0.0155  0.0744  0.0310
  176POPC   C3B 2604   9.164   1.971   6.286 -0.1690 -0.2836  0.2529
  176POPC   C4B 2605   9.161   1.884   6.639  0.2133  0.2580  0.4861
  177POPC   NC3 2606   9.564   6.136   4.254 -0.0580 -0.1534 -0.1875
  177POPC   PO4 2607   9.233   6.319   4.354  0.0813  0.1562  0.0486
  177POPC   GL1 2608   9.479   6.415   4.664  0.0094  0.2332 -0.4386
  177POPC   GL2 2609   9.819   6.418   4.592  0.1212  0.2314  0.0399
  177POPC   C1A 2610   9.331   6.438   5.155  0.1978  0.1033  0.1339
  177POPC   D2A 2611   9.358   6.287   5.554  0.2077 -0.2220 -0.1959
  177POPC   C3A 2612   9.063   6.476   5.780  0.1601  0.0258  0.1539
  177POPC   C4A 2613   9.249   6.818   6.085 -0.1667  0.2369 -0.2597
  177POPC   C1B 2614   9.752   6.070   4.881 -0.2343  0.0864  0.1895
  177POPC   C2B 2615   9.623   5.868   5.340 -0.0329  0.0056 -0.1804
  177POPC   C3B 2616   9.675   5.867   5.774 -0.0615 -0.0579 -0.3840
  177POPC   C4B 2617   9.446   6.065   6.186 -0.1932 -0.0586  0.0083
  178POPC   NC3 2618   5.335   7.777   5.072 -0.1284  0.3708 -0.0142
  178POPC   PO4 2619   4.930   7.942   5.043 -0.1490  0.0176  0.2216
  178POPC   GL1 2620   4.823   7.971   5.489  0.3724 -0.1894 -0.2603
  178POPC   GL2 2621   5.113   7.746   5.547 -0.0276  0.2409  0.0275
  178POPC   C1A 2622   4.562   7.981   5.877 -0.2858 -0.0237  0.2252
  178POPC   D2A 2623   4.393   8.161   6.316 -0.2446  0.1855  0.0842
  178POPC   C3A 2624   4.386   7.784   6.657 -0.2050  0.0063  0.0134
  178POPC   C4A 2625   4.461   7.571   6.975 -0.2484 -0.0582 -0.4184
  178POPC   C1B 2626   5.034   7.750   5.940  0.2003  0.3502  0.2027
  178POPC   C2B 2627   5.157   7.574   6.231  0.2494  0.2354 -0.4191
  178POPC   C3B 2628   5.299   7.530   6.604  0.1784  0.0740 -0.0380
  178POPC   C4B 2629   5.297   7.742   6.992  0.0209 -0.1913  0.1709
  179POPC   NC3 2630   2.677   2.993   4.352  0.0621 -0.1357  0.0473
  179POPC   PO4 2631   2.599   3.225   4.639 -0.3680  0.0737 -0.0101
  179POPC   GL1 2632   2.948   3.280   5.010  0.1125 -0.0721 -0.0998
  179POPC   GL2 2633   3.241   3.375   5.232 -0.2243 -0.4041 -0.0687
  179POPC   C1A 2634   2.813   3.176   5.496  0.1211 -0.2272 -0.1100
  179POPC   D2A 2635   2.731   3.187   5.914  0.2640 -0.0394  0.0178
  179POPC   C3A 2636   2.969   3.267   6.267 -0.2655 -0.1836 -0.0409
  179POPC   C4A 2637   3.106   3.120   6.640  0.0539  0.1289 -0.4162
  179POPC   C1B 2638   3.335   3.097   5.520  0.0693  0.0406  0.1422
  179POPC   C2B 2639   3.166   2.917   5.870 -0.1237 -0.0489  0.2227
  179POPC   C3B 2640   3.088   2.725   6.207 -0.1503 -0.0838  0.0035
  179POPC   C4B 2641   3.237   2.619   6.694 -0.0094 -0.0862 -0.4323
  180POPC   NC3 2642   9.956   3.579   5.001  0.1910 -0.0467 -0.1377
  180POPC   PO4 2643  10.371   3.639   4.972 -0.3177 -0.2527 -0.3153
  180POPC   GL1 2644  10.305   3.711   5.415 -0.2249 -0.1516 -0.0940
  180POPC   GL2 2645  10.492   3.508   5.547 -0.3683 -0.1708 -0.4060
  180POPC   C1A 2646  10.150   4.013   5.735 -0.0012  0.0257 -0.3844
  180POPC   D2A 2647  10.253   4.206   6.130  0.2122 -0.0571  0.2081
  180POPC   C3A 2648  10.646   4.102   6.270  0.1958  0.0680  0.0834
  180POPC   C4A 2649  10.924   3.920   6.599  0.1941 -0.0412  0.0157
  180POPC   C1B 2650  10.169   3.315   5.873  0.1644  0.0595  0.1363
  180POPC   C2B 2651  10.393   3.046   6.183 -0.3232  0.0803 -0.1762
  180POPC   C3B 2652  10.446   2.939   6.585 -0.0912  0.0380 -0.0640
  180POPC   C4B 2653  10.171   2.709   6.842  0.5661  0.1718  0.0988
  181POPC   NC3 2654   5.291   3.840   4.847 -0.2933  0.3421 -0.4218
  181POPC   PO4 2655   5.755   3.867   4.987 -0.0267  0.1131  0.1372
  181POPC   GL1 2656   5.875   4.051   5.391  0.0600 -0.1925 -0.0121
  181POPC   GL2 2657   5.992   4.289   5.271  0.0473  0.2739  0.1812
  181POPC   C1A 2658   5.582   4.167   5.646  0.1024  0.0435 -0.0411
  181POPC   D2A 2659   5.251   3.954   5.923  0.3871 -0.0569  0.2323
  181POPC   C3A 2660   4.908   4.237   6.087 -0.0074  0.1185  0.0361
  181POPC   C4A 2661   4.863   4.670   6.250 -0.1009 -0.1825  0.1148
  181POPC   C1B 2662   6.101   4.437   5.669  0.2535  0.1847  0.0574
  181POPC   C2B 2663   6.343   4.371   5.928 -0.0061 -0.0935 -0.2345
  181POPC   C3B 2664   6.909   4.352   6.009  0.0840 -0.0410  0.2590
  181POPC   C4B 2665   7.140   4.009   6.078 -0.3067 -0.0900  0.1531
  182POPC   NC3 2666   7.003   5.461   4.910 -0.0524 -0.2621 -0.1492
  182POPC   PO4 2667   6.906   5.962   4.861 -0.1230 -0.1913 -0.1100
  182POPC   GL1 2668   6.929   6.014   5.348 -0.2974  0.1168  0.1544
  182POPC   GL2 2669   6.778   6.265   5.373  0.2940 -0.5024 -0.2778
  182POPC   C1A 2670   6.748   5.779   5.771  0.1520  0.0928  0.2844
  182POPC   D2A 2671   7.002   5.639   6.082  0.0708  0.0428  0.2536
  182POPC   C3A 2672   7.145   5.416   6.460 -0.0399  0.0944  0.2566
  182POPC   C4A 2673   7.050   5.073   6.716  0.4550  0.1102  0.2111
  182POPC   C1B 2674   6.729   6.572   5.755 -0.3246  0.1361  0.0495
  182POPC   C2B 2675   7.087   6.735   5.900 -0.0901  0.0319 -0.1446
  182POPC   C3B 2676   7.266   7.094   6.159 -0.1305 -0.1775 -0.0137
  182POPC   C4B 2677   7.265   7.355   6.491 -0.1853 -0.1107 -0.1994
  183POPC   NC3 2678   4.606   9.561   5.097  0.0756  0.2924 -0.1030
  183POPC   PO4 2679   4.441   9.186   4.906 -0.3247 -0.4463 -0.0315
  183POPC   GL1 2680   4.112   9.351   5.200 -0.0105  0.2346 -0.3099
  183POPC   GL2 2681   4.248   9.222   5.498 -0.1040 -0.3776  0.0035
  183POPC   C1A 2682   3.677   9.367   5.254 -0.2259  0.0662  0.1402
  183POPC   D2A 2683   3.460   9.283   5.630  0.1385 -0.3358 -0.0588
  183POPC   C3A 2684   3.379   9.073   5.823 -0.0551  0.1383 -0.2740
  183POPC   C4A 2685   3.207   8.878   6.221 -0.1532 -0.1696 -0.0397
  183POPC   C1B 2686   3.897   9.140   5.790  0.2672  0.0707  0.0674
  183POPC   C2B 2687   3.760   8.943   6.190 -0.3791 -0.2652  0.2642
  183POPC   C3B 2688   3.700   8.680   6.526 -0.0289 -0.0204  0.2264
  183POPC   C4B 2689   3.631   8.807   6.993  0.0819  0.0806  0.1342
  184POPC   NC3 2690   6.529   0.952   4.852 -0.1030  0.1297 -0.0051
  184POPC   PO4 2691   6.180   1.270   5.130 -0.2475  0.1903  0.1550
  184POPC   GL1 2692   6.199   1.042   5.451  0.3317 -0.1794 -0.0816
  184POPC   GL2 2693   6.444   0.874   5.317  0.2986  0.2518 -0.0023
  184POPC   C1A 2694   6.024   0.726   5.662 -0.0073 -0.0375  0.1582
  184POPC   D2A 2695   5.768   0.571   5.916 -0.1552  0.2163 -0.1108
  184POPC   C3A 2696   5.303   0.619   6.080  0.0622  0.2250 -0.2009
  184POPC   C4A 2697   5.002   0.675   6.342 -0.1959  0.1830 -0.2941
  184POPC   C1B 2698   6.734   0.901   5.705  0.1146  0.0473 -0.2556
  184POPC   C2B 2699   6.925   0.755   6.011 -0.2267 -0.5098  0.0395
  184POPC   C3B 2700   7.349   0.834   6.348  0.4255 -0.0149 -0.4000
  184POPC   C4B 2701   7.600   0.397   6.496 -0.4100 -0.0664  0.3647
  185POPC   NC3 2702   7.315   0.441   5.336  0.3416  0.3416  0.0486
  185POPC   PO4 2703   7.494   0.149   5.075 -0.1610 -0.2276 -0.1437
  185POPC   GL1 2704   7.893   0.267   5.361  0.0416 -0.0043 -0.2000
  185POPC   GL2 2705   7.808   0.446   5.645  0.3296 -0.3143  0.2089
  185POPC   C1A 2706   8.334   0.433   5.512 -0.0524  0.2388 -0.5045
  185POPC   D2A 2707   8.695   0.749   5.548  0.1007 -0.0857 -0.1649
  185POPC   C3A 2708   8.913   0.581   5.950  0.1499  0.0759  0.4594
  185POPC   C4A 2709   9.006   0.656   6.369  0.1492 -0.0731 -0.2392
  185POPC   C1B 2710   7.906   0.599   6.111  0.1633 -0.0420  0.0197
  185POPC   C2B 2711   7.964   0.731   6.475  0.1626 -0.0581  0.0658
  185POPC   C3B 2712   8.299   0.682   6.678  0.0932 -0.0907 -0.0119
  185POPC   C4B 2713   8.627   0.422   6.918 -0.2157 -0.0325 -0.2037
  186POPC   NC3 2714   7.348   0.631   4.851  0.0515 -0.2724 -0.1022
  186POPC   PO4 2715   6.883   0.711   5.091 -0.1864 -0.0776 -0.1575
  186POPC   GL1 2716   6.750   0.420   5.443 -0.3140 -0.0022  0.0499
  186POPC   GL2 2717   6.538   0.499   5.808  0.1158 -0.0813  0.0207
  186POPC   C1A 2718   6.902   0.232   5.902  0.1147  0.0559  0.2016
  186POPC   D2A 2719   7.082   0.092   6.265  0.0937  0.0665  0.1757
  186POPC   C3A 2720   6.935   0.353   6.424  0.0456 -0.1083 -0.0251
  186POPC   C4A 2721   6.808   0.718   6.533 -0.0055 -0.2201 -0.1478
  186POPC   C1B 2722   6.227   0.756   6.112 -0.1303 -0.0948  0.0304
  186POPC   C2B 2723   6.267   0.952   6.536 -0.0544  0.3282  0.0821
  186POPC   C3B 2724   6.345   0.893   6.929 -0.3935 -0.0969  0.0727
  186POPC   C4B 2725   6.654   1.066   7.034 -0.0519 -0.1857  0.1307
  187POPC   NC3 2726   4.202   7.331   4.561  0.3533  0.0107  0.2780
  187POPC   PO4 2727   4.112   7.451   5.033 -0.1279 -0.1597 -0.1086
  187POPC   GL1 2728   3.899   7.371   5.472  0.0232 -0.0630 -0.0732
  187POPC   GL2 2729   3.810   7.053   5.478 -0.0503 -0.0776  0.3428
  187POPC   C1A 2730   4.003   7.291   5.860 -0.1878 -0.1025  0.0255
  187POPC   D2A 2731   3.786   7.071   6.298  0.1261 -0.1785 -0.1432
  187POPC   C3A 2732   3.642   7.035   6.732 -0.0118  0.3081 -0.0866
  187POPC   C4A 2733   3.340   6.944   7.036  0.0445  0.0689 -0.3281
  187POPC   C1B 2734   3.791   6.709   5.861  0.0120  0.4233  0.1288
  187POPC   C2B 2735   3.731   6.482   6.270  0.2292  0.0499 -0.1896
  187POPC   C3B 2736   3.477   6.629   6.602  0.1563  0.1824  0.3507
  187POPC   C4B 2737   3.258   6.440   6.927 -0.0951 -0.1548 -0.1708
  188POPC   NC3 2738   1.632   8.857   2.857 -0.1027  0.1207 -0.0858
  188POPC   PO4 2739   1.319   9.101   2.974 -0.0821  0.1333  0.0610
  188POPC   GL1 2740   1.515   9.060   3.471  0.2033  0.3343  0.0827
  188POPC   GL2 2741   1.229   8.930   3.846 -0.1281  0.2938  0.1515
  188POPC   C1A 2742   1.710   9.197   3.850 -0.2102  0.1468 -0.1862
  188POPC   D2A 2743   1.836   9.438   4.232  0.1263 -0.2497 -0.0992
  188POPC   C3A 2744   1.473   9.591   4.496 -0.1816 -0.2244  0.2558
  188POPC   C4A 2745   1.273   9.426   4.867 -0.1495 -0.1813  0.1090
  188POPC   C1B 2746   1.277   8.655   4.183  0.2254 -0.2647  0.0258
  188POPC   C2B 2747   1.079   8.589   4.581 -0.3038  0.1015  0.1920
  188POPC   C3B 2748   1.096   8.425   5.040 -0.0127  0.0803 -0.0184
  188POPC   C4B 2749   1.227   8.160   5.253 -0.2286 -0.0482 -0.0281
  189POPC   NC3 2750   2.573   2.852   4.918 -0.0683 -0.0752  0.2558
  189POPC   PO4 2751   2.948   2.743   4.727 -0.1100  0.2865  0.1254
  189POPC   GL1 2752   3.186   2.610   5.099  0.0117 -0.0862 -0.1351
  189POPC   GL2 2753   3.264   2.321   5.155  0.2078 -0.5649 -0.1381
  189POPC   C1A 2754   3.020   2.666   5.486  0.1523  0.0185  0.2676
  189POPC   D2A 2755   2.943   2.414   5.795  0.2679  0.0413 -0.1204
  189POPC   C3A 2756   2.511   2.317   5.714 -0.4928  0.1544 -0.2244
  189POPC   C4A 2757   2.181   2.013   5.742 -0.0926 -0.0404  0.1980
  189POPC   C1B 2758   3.358   2.212   5.577  0.1332  0.0623 -0.1631
  189POPC   C2B 2759   3.160   1.928   5.868 -0.2922 -0.0974 -0.0048
  189POPC   C3B 2760   3.102   1.671   6.242  0.1546  0.0893 -0.2722
  189POPC   C4B 2761   3.144   1.177   6.445 -0.2266 -0.0976 -0.3064
  190POPC   NC3 2762   5.549   9.848   5.439 -0.3141 -0.1852 -0.2257
  190POPC   PO4 2763   5.540   9.454   5.469 -0.0619  0.3506 -0.0193
  190POPC   GL1 2764   5.418   9.220   5.803 -0.0276  0.1017  0.1555
  190POPC   GL2 2765   5.003   9.083   5.807  0.1147  0.2290 -0.1412
  190POPC   C1A 2766   5.357   9.099   6.335 -0.0329 -0.3050 -0.0734
  190POPC   D2A 2767   5.172   8.957   6.645  0.2596 -0.0179  0.0410
  190POPC   C3A 2768   5.046   9.225   7.014 -0.0005  0.2791 -0.1322
  190POPC   C4A 2769   5.118   9.092   7.460 -0.2249  0.2942 -0.3094
  190POPC   C1B 2770   5.027   9.385   6.065 -0.2616  0.0488  0.3593
  190POPC   C2B 2771   4.918   9.455   6.444 -0.0321 -0.1126  0.0751
  190POPC   C3B 2772   4.573   9.629   6.737  0.0067  0.1448 -0.0793
  190POPC   C4B 2773   4.115   9.541   6.704 -0.1974  0.1623 -0.1585
  191POPC   NC3 2774   5.366   7.554   4.411  0.2908 -0.1692  0.1561
  191POPC   PO4 2775   5.046   7.375   4.640 -0.1077 -0.1704 -0.1480
  191POPC   GL1 2776   5.013   7.345   5.081  0.0220  0.1229  0.0889
  191POPC   GL2 2777   4.764   7.451   5.297 -0.0364  0.1192 -0.0171
  191POPC   C1A 2778   5.289   7.132   5.487  0.0616  0.2473 -0.0736
  191POPC   D2A 2779   5.401   7.176   5.898  0.1557  0.0532  0.0359
  191POPC   C3A 2780   5.616   7.260   6.290 -0.1292  0.1003  0.0685
  191POPC   C4A 2781   5.683   7.270   6.698  0.1509  0.0043 -0.1665
  191POPC   C1B 2782   4.864   7.235   5.747  0.0328 -0.4902 -0.0522
  191POPC   C2B 2783   4.915   7.166   6.156 -0.1294  0.4357 -0.1203
  191POPC   C3B 2784   5.132   7.070   6.456 -0.0268 -0.1273 -0.1455
  191POPC   C4B 2785   5.429   6.855   6.640  0.2675 -0.1036 -0.0947
  192POPC   NC3 2786   9.548   0.560   3.213  0.2163 -0.2326  0.2105
  192POPC   PO4 2787   9.763   0.538   3.561 -0.2136 -0.0212  0.0465
  192POPC   GL1 2788   9.804   0.528   4.007 -0.3041  0.3863 -0.1756
  192POPC   GL2 2789   9.749   0.754   4.208 -0.0202 -0.2114  0.1251
  192POPC   C1A 2790   9.686   0.270   4.366  0.2918 -0.1152 -0.0396
  192POPC   D2A 2791   9.514  -0.087   4.647  0.1313  0.2193  0.2766
  192POPC   C3A 2792   9.742  -0.118   5.007 -0.0325  0.1727 -0.2056
  192POPC   C4A 2793   9.980  -0.394   5.284 -0.0176  0.0180 -0.0606
  192POPC   C1B 2794   9.782   0.714   4.608 -0.1336  0.4350  0.1585
  192POPC   C2B 2795   9.633   0.358   4.910  0.4914  0.0608 -0.0630
  192POPC   C3B 2796   9.294  -0.015   5.124  0.2877 -0.3493  0.2259
  192POPC   C4B 2797   8.939  -0.237   5.413 -0.1108 -0.0907 -0.2446
  193POPC   NC3 2798   4.292   4.896   4.918  0.0688  0.0099  0.1143
  193POPC   PO4 2799   4.529   5.197   4.759 -0.1053  0.4071  0.0615
  193POPC   GL1 2800   4.578   5.242   5.137  0.1104 -0.2688  0.2334
  193POPC   GL2 2801   4.554   4.941   5.366  0.2117 -0.1791  0.0880
  193POPC   C1A 2802   4.749   5.563   5.491  0.1007 -0.1280  0.0507
  193POPC   D2A 2803   4.760   5.810   5.946 -0.0669  0.2033  0.1416
  193POPC   C3A 2804   4.369   5.940   5.849  0.2290  0.0764 -0.1127
  193POPC   C4A 2805   3.995   6.069   6.077  0.1606  0.0623  0.2864
  193POPC   C1B 2806   4.588   4.651   5.800 -0.1467 -0.1008  0.1046
  193POPC   C2B 2807   4.376   4.450   6.196 -0.0149  0.0336 -0.5072
  193POPC   C3B 2808   4.608   4.211   6.486 -0.0179  0.1797  0.3135
  193POPC   C4B 2809   4.750   3.890   6.718  0.0784 -0.2158  0.4308
  194POPC   NC3 2810   8.430   2.831   4.880 -0.1369 -0.2068 -0.0740
  194POPC   PO4 2811   8.596   2.404   4.835 -0.0708  0.0581  0.1504
  194POPC   GL1 2812   8.647   2.347   5.387 -0.0966  0.1249  0.0684
  194POPC   GL2 2813   8.804   2.110   5.564 -0.1972 -0.1787  0.1176
  194POPC   C1A 2814   8.766   2.565   5.774  0.1016 -0.0415 -0.0039
  194POPC   D2A 2815   8.886   2.506   6.090  0.0208  0.0257  0.1173
  194POPC   C3A 2816   8.671   2.783   6.280  0.2179  0.1727  0.2242
  194POPC   C4A 2817   8.942   3.093   6.613  0.3022  0.0724 -0.2375
  194POPC   C1B 2818   9.176   2.190   5.820  0.2441 -0.2125  0.1019
  194POPC   C2B 2819   9.350   2.438   6.173  0.0539  0.1326 -0.1084
  194POPC   C3B 2820   9.138   2.583   6.575  0.4717 -0.0696  0.4545
  194POPC   C4B 2821   9.242   2.841   6.922 -0.1139 -0.0867 -0.1602
  195POPC   NC3 2822   5.743   6.121   4.813 -0.0903  0.3093 -0.0170
  195POPC   PO4 2823   5.536   5.802   5.038  0.0449 -0.2276 -0.0378
  195POPC   GL1 2824   5.384   6.078   5.391 -0.1046 -0.2164 -0.3734
  195POPC   GL2 2825   5.489   6.305   5.623  0.2679 -0.1179  0.2750
  195POPC   C1A 2826   4.919   6.208   5.642  0.1490 -0.2869 -0.1389
  195POPC   D2A 2827   4.714   6.328   5.992  0.2835 -0.1460 -0.0256
  195POPC   C3A 2828   4.565   6.067   6.348 -0.3678  0.2576 -0.0907
  195POPC   C4A 2829   4.325   5.594   6.475  0.0457 -0.2042 -0.1665
  195POPC   C1B 2830   5.508   6.571   5.976 -0.1497 -0.0254  0.1990
  195POPC   C2B 2831   5.812   6.777   6.325  0.0787 -0.5058  0.0429
  195POPC   C3B 2832   6.126   7.000   6.561  0.0380  0.0899 -0.4143
  195POPC   C4B 2833   6.457   7.244   6.788 -0.2037 -0.0891 -0.0121
  196POPC   NC3 2834   4.195   3.228   4.748 -0.3071  0.1410 -0.1240
  196POPC   PO4 2835   4.515   3.578   4.835 -0.1499 -0.2744  0.0847
  196POPC   GL1 2836   4.567   3.732   5.217 -0.1705  0.0989  0.1469
  196POPC   GL2 2837   4.344   4.021   5.344  0.0769 -0.0281  0.2335
  196POPC   C1A 2838   4.651   3.456   5.496 -0.0062  0.2810  0.0532
  196POPC   D2A 2839   4.716   3.291   5.901 -0.1589  0.1159 -0.2309
  196POPC   C3A 2840   4.498   3.248   6.296 -0.0585  0.1612  0.0988
  196POPC   C4A 2841   4.120   3.225   6.701 -0.4204  0.1075  0.0006
  196POPC   C1B 2842   4.353   4.049   5.812  0.1604 -0.1177  0.3310
  196POPC   C2B 2843   4.488   3.829   6.134 -0.0650 -0.3988  0.2340
  196POPC   C3B 2844   4.864   3.653   6.216  0.2472 -0.1773 -0.0582
  196POPC   C4B 2845   4.970   3.411   6.522 -0.0526 -0.1354 -0.0703
  197POPC   NC3 2846   0.091   9.857   3.053  0.0351 -0.1356 -0.0055
  197POPC   PO4 2847   0.342   9.560   2.963  0.0828  0.0251 -0.0035
  197POPC   GL1 2848   0.539   9.806   3.324  0.0435  0.1427 -0.1068
  197POPC   GL2 2849   0.284   9.944   3.486 -0.1634 -0.0008 -0.0937
  197POPC   C1A 2850   0.779   9.858   3.679  0.0608  0.2109  0.0572
  197POPC   D2A 2851   1.234   9.742   3.696  0.1008 -0.2239 -0.5005
  197POPC   C3A 2852   1.441   9.918   3.975  0.0891  0.3273  0.1945
  197POPC   C4A 2853   1.630  10.103   4.396 -0.1555  0.2179  0.0779
  197POPC   C1B 2854   0.328   9.891   3.882 -0.2702 -0.0178 -0.1840
  197POPC   C2B 2855   0.537   9.731   4.160  0.0929 -0.0602 -0.1086
  197POPC   C3B 2856   0.883   9.555   4.023  0.0507  0.1871  0.1018
  197POPC   C4B 2857   1.332   9.358   4.125  0.1404 -0.1112  0.3077
  198POPC   NC3 2858   1.155   0.867   3.807  0.0790  0.1123  0.0592
  198POPC   PO4 2859   1.208   1.274   3.826 -0.5491  0.2932  0.0834
  198POPC   GL1 2860   1.396   1.145   4.282 -0.0879  0.1587 -0.0243
  198POPC   GL2 2861   1.704   0.965   4.223  0.2952 -0.1301  0.0355
  198POPC   C1A 2862   1.672   1.284   4.691  0.6020 -0.0067 -0.0275
  198POPC   D2A 2863   1.642   1.234   5.139  0.0458  0.2053 -0.0424
  198POPC   C3A 2864   1.444   1.023   5.416  0.1208 -0.0106 -0.1664
  198POPC   C4A 2865   1.330   0.889   5.797  0.0760 -0.0959 -0.0159
  198POPC   C1B 2866   1.937   0.812   4.651 -0.0512 -0.1113  0.1291
  198POPC   C2B 2867   2.241   0.697   4.964 -0.0766  0.2593 -0.0208
  198POPC   C3B 2868   2.533   0.885   5.195 -0.0298  0.3418  0.0584
  198POPC   C4B 2869   2.849   0.939   5.436  0.4741 -0.0039  0.3712
  199POPC   NC3 2870   7.969   9.771   4.549 -0.2938 -0.2425  0.0407
  199POPC   PO4 2871   8.216  10.087   4.366  0.1343 -0.2414 -0.2726
  199POPC   GL1 2872   8.637  10.084   4.524 -0.2513  0.0892  0.2212
  199POPC   GL2 2873   8.883  10.313   4.449 -0.0198  0.0911  0.0641
  199POPC   C1A 2874   9.036  10.085   4.840  0.1015 -0.1406  0.1124
  199POPC   D2A 2875   9.388  10.019   5.174 -0.0490 -0.2708  0.0259
  199POPC   C3A 2876   9.617   9.696   5.378  0.2324 -0.0024 -0.3863
  199POPC   C4A 2877   9.783   9.343   5.569  0.1812 -0.4411  0.0169
  199POPC   C1B 2878   9.029  10.733   4.392  0.3910  0.0200  0.1035
  199POPC   C2B 2879   8.845  11.123   4.413 -0.1793  0.0940 -0.1617
  199POPC   C3B 2880   8.733  11.487   4.690 -0.1313 -0.2190 -0.2053
  199POPC   C4B 2881   8.705  11.608   5.108  0.2234  0.0994  0.1165
  200POPC   NC3 2882   4.915   4.876   4.836  0.4681  0.1912 -0.1018
  200POPC   PO4 2883   5.037   4.458   4.850 -0.0867  0.0784  0.1077
  200POPC   GL1 2884   5.339   4.716   5.133  0.1578 -0.5776  0.1227
  200POPC   GL2 2885   5.164   4.858   5.289 -0.0236 -0.0920  0.0777
  200POPC   C1A 2886   5.577   4.684   5.548 -0.2835  0.0417 -0.1018
  200POPC   D2A 2887   5.789   4.789   5.963 -0.1871  0.2508  0.0823
  200POPC   C3A 2888   5.948   4.424   6.287 -0.0856  0.2049  0.1334
  200POPC   C4A 2889   5.821   4.093   6.536 -0.0643  0.0121 -0.0877
  200POPC   C1B 2890   5.038   4.996   5.766  0.1596  0.0171 -0.0591
  200POPC   C2B 2891   4.781   5.177   5.920 -0.3053  0.1286  0.1389
  200POPC   C3B 2892   4.756   5.457   6.366  0.0111  0.2025 -0.1545
  200POPC   C4B 2893   5.037   5.557   6.773  0.2783  0.0540 -0.1457
  201POPC   NC3 2894   4.207   5.600   4.601  0.0381 -0.1564  0.0601
  201POPC   PO4 2895   4.011   5.962   4.897 -0.0438 -0.1035 -0.1120
  201POPC   GL1 2896   4.100   5.714   5.344 -0.2558  0.0020 -0.0867
  201POPC   GL2 2897   3.881   5.904   5.614 -0.1245  0.0305  0.1322
  201POPC   C1A 2898   4.329   5.359   5.596  0.4752  0.4345  0.1841
  201POPC   D2A 2899   4.316   5.236   5.994 -0.2175 -0.4222  0.2366
  201POPC   C3A 2900   4.245   4.966   6.309 -0.0063  0.0730 -0.0460
  201POPC   C4A 2901   4.537   4.771   6.671  0.1044 -0.0378  0.2415
  201POPC   C1B 2902   3.951   5.615   5.940  0.0763  0.0515  0.2905
  201POPC   C2B 2903   3.787   5.188   6.136 -0.0497  0.3691  0.1924
  201POPC   C3B 2904   3.795   4.806   6.399  0.0349  0.0254  0.0842
  201POPC   C4B 2905   4.076   4.485   6.676 -0.1271  0.1692  0.0789
  202POPC   NC3 2906   9.105   5.878   4.740  0.1024  0.0509  0.6269
  202POPC   PO4 2907   9.268   5.511   4.784  0.0610  0.1223  0.0115
  202POPC   GL1 2908   9.292   5.402   5.174  0.0957 -0.1330  0.0980
  202POPC   GL2 2909   9.043   5.248   5.407  0.1617  0.0712 -0.0298
  202POPC   C1A 2910   9.661   5.336   5.427 -0.0443  0.1825 -0.2309
  202POPC   D2A 2911   9.697   5.163   5.852  0.1071 -0.3120 -0.1830
  202POPC   C3A 2912   9.866   4.775   5.731 -0.0556  0.1791 -0.0042
  202POPC   C4A 2913   9.963   4.427   5.557 -0.0741  0.1580  0.2694
  202POPC   C1B 2914   8.909   5.139   5.822 -0.0678 -0.1486 -0.2137
  202POPC   C2B 2915   9.111   5.056   6.211  0.1142 -0.1270  0.0503
  202POPC   C3B 2916   9.299   5.006   6.527 -0.2393 -0.1227 -0.0502
  202POPC   C4B 2917   9.295   5.362   6.784 -0.1356 -0.1206  0.0369
  203POPC   NC3 2918   8.362   0.425   4.142  0.1088 -0.0946  0.1397
  203POPC   PO4 2919   8.123   0.564   4.395  0.1730  0.2695  0.0171
  203POPC   GL1 2920   8.331   0.753   4.755 -0.1180 -0.0535  0.6618
  203POPC   GL2 2921   8.148   1.040   4.806  0.0252  0.3378 -0.0748
  203POPC   C1A 2922   8.497   0.585   5.091 -0.0941 -0.4170  0.4003
  203POPC   D2A 2923   8.816   0.316   5.343  0.0066  0.0838 -0.0435
  203POPC   C3A 2924   9.120   0.160   5.598 -0.0999  0.0758  0.1790
  203POPC   C4A 2925   9.098   0.097   6.037 -0.1978 -0.1428  0.0900
  203POPC   C1B 2926   8.211   0.929   5.249  0.0585  0.0162  0.0039
  203POPC   C2B 2927   8.219   0.897   5.763 -0.1332  0.2466  0.0607
  203POPC   C3B 2928   8.428   0.625   6.091 -0.0396 -0.1063 -0.1084
  203POPC   C4B 2929   8.527   0.340   6.466 -0.0510  0.1690  0.3976
  204POPC   NC3 2930   9.523   7.807   3.998  0.3696 -0.1331  0.1077
  204POPC   PO4 2931   9.795   7.865   4.297 -0.3485  0.0691  0.4691
  204POPC   GL1 2932   9.991   8.259   4.433  0.1934  0.1102 -0.1042
  204POPC   GL2 2933   9.927   8.442   4.427  0.0335 -0.0081  0.2538
  204POPC   C1A 2934  10.410   8.289   4.709  0.1396 -0.3422  0.2235
  204POPC   D2A 2935  10.626   8.670   4.855  0.1107  0.0697 -0.1765
  204POPC   C3A 2936  10.461   8.822   5.270  0.0961  0.0307 -0.4145
  204POPC   C4A 2937  10.086   9.001   5.387  0.0538  0.2010 -0.1174
  204POPC   C1B 2938   9.796   8.293   4.885  0.3446  0.0823 -0.3608
  204POPC   C2B 2939   9.727   8.276   5.370  0.0017 -0.0570 -0.3072
  204POPC   C3B 2940   9.521   8.337   5.768 -0.0943 -0.1083 -0.1066
  204POPC   C4B 2941   9.479   8.635   6.110  0.3087 -0.1472  0.2461
  205POPC   NC3 2942   6.077   1.676   4.815  0.0981  0.2779  0.0418
  205POPC   PO4 2943   6.217   2.060   5.040 -0.0389  0.0448  0.2840
  205POPC   GL1 2944   6.049   2.236   5.428 -0.1452  0.2063  0.2591
  205POPC   GL2 2945   6.340   2.122   5.510 -0.0549  0.1049  0.2073
  205POPC   C1A 2946   6.088   2.236   5.908  0.0179  0.0232  0.3492
  205POPC   D2A 2947   6.318   1.959   6.271 -0.0533 -0.3046 -0.0144
  205POPC   C3A 2948   6.380   2.197   6.702 -0.3566  0.1357 -0.1027
  205POPC   C4A 2949   6.208   2.602   6.853  0.2111  0.1222 -0.0046
  205POPC   C1B 2950   6.553   1.898   5.820 -0.0559 -0.2541  0.2406
  205POPC   C2B 2951   6.734   1.700   6.150 -0.2301  0.2514 -0.0049
  205POPC   C3B 2952   7.072   1.715   6.313  0.0687 -0.2626 -0.2531
  205POPC   C4B 2953   7.121   1.768   6.677 -0.0638 -0.2361 -0.0832
  206POPC   NC3 2954   2.347   3.808   4.738  0.2249 -0.1180 -0.0212
  206POPC   PO4 2955   2.291   4.218   4.921  0.1697  0.0979 -0.1412
  206POPC   GL1 2956   2.420   4.194   5.353 -0.2266  0.2474 -0.1063
  206POPC   GL2 2957   2.725   4.089   5.442  0.0035  0.3882  0.0929
  206POPC   C1A 2958   2.286   4.160   5.845  0.1620 -0.0456 -0.1112
  206POPC   D2A 2959   2.300   4.551   6.154  0.0295  0.0748  0.1076
  206POPC   C3A 2960   2.021   4.442   6.556 -0.0118  0.1097 -0.1348
  206POPC   C4A 2961   1.615   4.320   6.718  0.1839 -0.3561 -0.1173
  206POPC   C1B 2962   2.831   3.672   5.639 -0.2446 -0.0607 -0.0117
  206POPC   C2B 2963   3.151   3.620   5.935 -0.1904  0.2585 -0.0852
  206POPC   C3B 2964   3.270   3.748   6.348  0.0194 -0.0489 -0.0920
  206POPC   C4B 2965   3.284   3.755   6.909  0.1896  0.1701  0.0036
  207POPC   NC3 2966   0.079   0.691   3.160  0.3072 -0.2017  0.1263
  207POPC   PO4 2967   0.176   0.799   3.644  0.4483  0.2509  0.1126
  207POPC   GL1 2968   0.242   0.918   4.151  0.2528  0.4491  0.0375
  207POPC   GL2 2969   0.601   1.021   4.052  0.4674 -0.1598 -0.1177
  207POPC   C1A 2970   0.276   0.887   4.541 -0.0142 -0.0822  0.0457
  207POPC   D2A 2971   0.196   0.545   4.913 -0.2470  0.2549  0.0177
  207POPC   C3A 2972  -0.110   0.641   5.197 -0.2673  0.1180 -0.0895
  207POPC   C4A 2973  -0.210   0.969   5.533 -0.1723 -0.0366  0.0036
  207POPC   C1B 2974   0.907   0.849   4.465 -0.0321 -0.2434  0.2348
  207POPC   C2B 2975   0.787   0.768   4.789 -0.1519  0.0925  0.0927
  207POPC   C3B 2976   1.105   0.721   5.092  0.2477 -0.0871  0.2037
  207POPC   C4B 2977   1.275   0.397   5.341 -0.2121  0.2555  0.1091
  208POPC   NC3 2978   3.696  10.193   4.911 -0.0314  0.1767 -0.3438
  208POPC   PO4 2979   3.840  10.598   4.724 -0.0172 -0.2305 -0.0665
  208POPC   GL1 2980   3.942  10.809   5.115 -0.1736  0.3738 -0.2652
  208POPC   GL2 2981   3.774  10.751   5.375 -0.2094  0.0451  0.1975
  208POPC   C1A 2982   4.304  10.840   5.495  0.4087 -0.2424  0.2002
  208POPC   D2A 2983   4.666  10.871   5.700 -0.1685  0.2165 -0.0061
  208POPC   C3A 2984   4.745  10.817   6.074  0.0310 -0.1386  0.4308
  208POPC   C4A 2985   4.678  10.322   6.177 -0.2909 -0.1111 -0.1876
  208POPC   C1B 2986   3.748  10.578   5.819 -0.0014  0.1428  0.2547
  208POPC   C2B 2987   3.788  10.448   6.268 -0.0728 -0.0452  0.1736
  208POPC   C3B 2988   3.773  10.344   6.756  0.1252 -0.0327 -0.1343
  208POPC   C4B 2989   3.823  10.339   7.204 -0.0675 -0.1537  0.0563
  209POPC   NC3 2990   9.851   1.081   3.818  0.1034  0.4481  0.3595
  209POPC   PO4 2991   9.636   1.246   4.109  0.0385  0.0668 -0.0695
  209POPC   GL1 2992   9.460   1.221   4.421  0.0656  0.2433 -0.0421
  209POPC   GL2 2993   9.489   1.486   4.581 -0.0561  0.0218 -0.3538
  209POPC   C1A 2994   9.232   1.067   4.755  0.1804  0.0212 -0.0912
  209POPC   D2A 2995   9.121   0.831   5.143 -0.0593  0.2227  0.1010
  209POPC   C3A 2996   9.397   0.502   5.317 -0.1721  0.5279  0.1508
  209POPC   C4A 2997   9.586   0.093   5.568 -0.0416 -0.0534 -0.2055
  209POPC   C1B 2998   9.733   1.199   4.836 -0.0351 -0.0018 -0.0909
  209POPC   C2B 2999  10.027   0.948   5.122 -0.0550 -0.0116  0.3609
  209POPC   C3B 3000   9.999   0.536   5.456  0.0174  0.2163 -0.1930
  209POPC   C4B 3001  10.032   0.300   5.831  0.0293  0.2905 -0.1779
  210POPC   NC3 3002   4.795   9.048   5.252  0.2875 -0.0097  0.1643
  210POPC   PO4 3003   5.040   9.359   5.359 -0.0198 -0.1897 -0.0578
  210POPC   GL1 3004   4.726   9.457   5.625  0.3229  0.2481  0.0228
  210POPC   GL2 3005   4.564   9.305   5.894 -0.1887  0.0738  0.1212
  210POPC   C1A 3006   4.279   9.761   5.698  0.0037  0.1102  0.2952
  210POPC   D2A 3007   4.194  10.189   5.790  0.0244 -0.2868  0.2818
  210POPC   C3A 3008   4.274  10.583   6.002 -0.1728  0.1896 -0.0810
  210POPC   C4A 3009   4.085  10.891   6.011 -0.1163  0.2577  0.1167
  210POPC   C1B 3010   4.213   9.288   6.162 -0.4476 -0.2077 -0.1091
  210POPC   C2B 3011   3.812   9.550   6.247 -0.0217 -0.4858 -0.1291
  210POPC   C3B 3012   3.670   9.736   6.544  0.4368  0.2066 -0.0853
  210POPC   C4B 3013   3.213   9.721   6.510 -0.2964  0.0822 -0.0019
  211POPC   NC3 3014   0.418   3.720   4.838  0.1814 -0.1650  0.0735
  211POPC   PO4 3015   0.462   4.172   4.844 -0.3434 -0.0987 -0.0550
  211POPC   GL1 3016   0.693   4.118   5.178 -0.0629 -0.1913  0.1277
  211POPC   GL2 3017   0.926   4.178   5.220  0.3842 -0.0849  0.2843
  211POPC   C1A 3018   0.545   3.994   5.599 -0.0370  0.0615 -0.0276
  211POPC   D2A 3019   0.117   3.924   5.790 -0.2227 -0.4718 -0.1075
  211POPC   C3A 3020  -0.018   3.700   6.035 -0.0135  0.1449 -0.0622
  211POPC   C4A 3021  -0.401   3.701   6.300  0.1666 -0.1815 -0.2890
  211POPC   C1B 3022   0.933   4.580   5.280 -0.0270  0.0564  0.4093
  211POPC   C2B 3023   0.883   4.919   5.707 -0.0265  0.2498 -0.1050
  211POPC   C3B 3024   0.991   5.122   6.101  0.1162  0.0191  0.0868
  211POPC   C4B 3025   1.120   5.543   6.243  0.1351  0.0201 -0.1209
  212POPC   NC3 3026   7.909   8.935   5.263  0.3329 -0.0638  0.2589
  212POPC   PO4 3027   7.598   9.348   5.212 -0.2096 -0.0729  0.0584
  212POPC   GL1 3028   7.465   9.184   5.587 -0.0986 -0.0561 -0.0494
  212POPC   GL2 3029   7.140   9.196   5.465 -0.2263  0.0697 -0.1972
  212POPC   C1A 3030   7.531   9.146   5.996  0.2188 -0.1082 -0.1806
  212POPC   D2A 3031   7.541   9.207   6.398  0.0084  0.1995 -0.1054
  212POPC   C3A 3032   7.203   9.540   6.304  0.1417  0.1082 -0.1633
  212POPC   C4A 3033   7.084   9.814   6.069 -0.1007 -0.3163 -0.2191
  212POPC   C1B 3034   6.974   9.246   5.927  0.0562  0.0277 -0.0977
  212POPC   C2B 3035   6.662   9.459   6.197 -0.1582  0.2019 -0.3356
  212POPC   C3B 3036   6.378   9.265   6.451 -0.2153  0.1968  0.0586
  212POPC   C4B 3037   6.173   9.048   6.727  0.0617 -0.0948  0.1806
  213POPC   NC3 3038  10.178   2.319   4.624  0.2459  0.0463  0.0426
  213POPC   PO4 3039  10.294   2.045   4.333 -0.0052  0.0612  0.0289
  213POPC   GL1 3040  10.463   1.903   4.688 -0.3304 -0.0043  0.1127
  213POPC   GL2 3041  10.384   2.043   5.012  0.2472  0.4537 -0.0959
  213POPC   C1A 3042  10.626   1.602   5.081 -0.1387 -0.0483 -0.1191
  213POPC   D2A 3043  10.570   1.385   5.482  0.0397  0.0738  0.0548
  213POPC   C3A 3044  10.830   1.001   5.620 -0.0521 -0.0575  0.0143
  213POPC   C4A 3045  10.990   0.699   5.847 -0.0398  0.2357 -0.1468
  213POPC   C1B 3046  10.425   1.912   5.494  0.2280  0.0729  0.0544
  213POPC   C2B 3047  10.361   1.844   5.822  0.1463  0.0993  0.1725
  213POPC   C3B 3048  10.162   1.862   6.085 -0.0871 -0.1193 -0.1646
  213POPC   C4B 3049   9.856   1.691   6.340 -0.3084  0.0148  0.0640
  214POPC   NC3 3050   8.234   7.449   4.529 -0.0827 -0.2159  0.3467
  214POPC   PO4 3051   8.145   7.200   4.775  0.0834 -0.0156 -0.0476
  214POPC   GL1 3052   8.310   7.295   5.147  0.1294  0.1730 -0.1013
  214POPC   GL2 3053   8.157   7.506   5.293 -0.1740  0.0182 -0.1710
  214POPC   C1A 3054   8.775   7.207   5.226 -0.0834 -0.1243 -0.5167
  214POPC   D2A 3055   9.078   6.865   5.095  0.1773 -0.1144  0.0832
  214POPC   C3A 3056   8.887   6.498   5.342 -0.1455  0.0322 -0.0474
  214POPC   C4A 3057   8.780   6.109   5.539  0.1174 -0.0984 -0.3468
  214POPC   C1B 3058   8.495   7.538   5.488 -0.0009  0.1258  0.0355
  214POPC   C2B 3059   8.554   7.805   5.814 -0.0422  0.0718  0.2459
  214POPC   C3B 3060   8.456   7.572   6.216 -0.1083 -0.1180  0.5165
  214POPC   C4B 3061   8.234   7.366   6.462  0.0573 -0.1609  0.0373
  215POPC   NC3 3062   3.005   9.513   3.728  0.4778 -0.4400 -0.2570
  215POPC   PO4 3063   3.018   9.103   3.859  0.0736 -0.1818 -0.3098
  215POPC   GL1 3064   2.687   8.799   4.115 -0.3652  0.2096 -0.0763
  215POPC   GL2 3065   2.393   8.573   4.200  0.0901 -0.0046  0.1111
  215POPC   C1A 3066   2.703   8.629   4.547 -0.0281 -0.1442  0.0110
  215POPC   D2A 3067   2.478   8.630   4.943 -0.1425 -0.3029 -0.0383
  215POPC   C3A 3068   2.574   8.613   5.372 -0.1856  0.0088 -0.1578
  215POPC   C4A 3069   2.553   8.751   5.729  0.0092 -0.2073 -0.1301
  215POPC   C1B 3070   2.050   8.537   4.430  0.1737  0.0830 -0.4560
  215POPC   C2B 3071   1.997   8.865   4.768 -0.1105 -0.1565  0.1423
  215POPC   C3B 3072   1.820   9.065   5.080  0.2820  0.0910  0.0562
  215POPC   C4B 3073   1.975   9.307   5.465  0.3413  0.0889 -0.0184
  216POPC   NC3 3074   1.803   6.650   4.026  0.0290 -0.0867 -0.1085
  216POPC   PO4 3075   1.971   6.373   4.229  0.3491  0.0531 -0.0910
  216POPC   GL1 3076   1.853   6.590   4.587 -0.1133  0.0396 -0.3584
  216POPC   GL2 3077   2.149   6.830   4.696  0.1715  0.0427  0.0520
  216POPC   C1A 3078   1.621   6.917   4.871 -0.2698 -0.0589  0.0403
  216POPC   D2A 3079   1.235   7.002   4.859  0.0076 -0.0768 -0.1434
  216POPC   C3A 3080   0.862   6.839   5.245 -0.2045  0.0466  0.1661
  216POPC   C4A 3081   0.683   6.747   5.595 -0.2010  0.1258  0.3063
  216POPC   C1B 3082   1.999   6.878   5.200  0.2714  0.2004 -0.1400
  216POPC   C2B 3083   1.642   7.033   5.390 -0.0639 -0.1311 -0.1446
  216POPC   C3B 3084   1.546   7.125   5.701 -0.1946  0.2997 -0.1313
  216POPC   C4B 3085   1.441   7.422   6.013  0.1903 -0.1118 -0.0960
  217POPC   NC3 3086   5.839   0.264   5.020  0.2517  0.1859 -0.2486
  217POPC   PO4 3087   5.784  -0.241   5.232 -0.0554 -0.0101  0.1415
  217POPC   GL1 3088   5.735   0.069   5.560  0.0540  0.1315  0.2280
  217POPC   GL2 3089   5.644   0.411   5.434  0.1279  0.0207  0.1163
  217POPC   C1A 3090   5.545   0.117   5.974  0.2190  0.0148 -0.1335
  217POPC   D2A 3091   5.639   0.300   6.449 -0.1394 -0.0450  0.0765
  217POPC   C3A 3092   5.884   0.104   6.749  0.2570 -0.1505 -0.2147
  217POPC   C4A 3093   6.275  -0.079   6.500  0.5741  0.3304 -0.0720
  217POPC   C1B 3094   5.239   0.295   5.490  0.2135  0.2334 -0.1303
  217POPC   C2B 3095   5.055   0.067   5.796  0.3816  0.2887  0.2100
  217POPC   C3B 3096   5.177   0.070   6.271 -0.0111  0.0350  0.0261
  217POPC   C4B 3097   4.724   0.206   6.536 -0.1380  0.0136  0.2575
  218POPC   NC3 3098   2.574   1.661   4.284 -0.3270 -0.0737  0.0924
  218POPC   PO4 3099   2.603   1.819   4.615 -0.0567 -0.0903  0.3663
  218POPC   GL1 3100   2.314   1.696   4.913  0.0818  0.1565 -0.1632
  218POPC   GL2 3101   1.958   1.681   4.979 -0.2251  0.0729  0.0363
  218POPC   C1A 3102   2.207   1.237   5.103 -0.2095  0.0788 -0.0648
  218POPC   D2A 3103   2.009   0.954   5.413 -0.2982  0.0418 -0.0377
  218POPC   C3A 3104   1.917   0.996   5.840  0.1364  0.1796  0.0382
  218POPC   C4A 3105   2.174   1.047   6.298 -0.0120 -0.1268 -0.2643
  218POPC   C1B 3106   1.988   1.613   5.432  0.0151  0.0520 -0.1794
  218POPC   C2B 3107   2.024   1.486   5.894 -0.0598  0.1467  0.1937
  218POPC   C3B 3108   1.807   1.331   6.169 -0.0911 -0.2856  0.0927
  218POPC   C4B 3109   1.684   0.940   6.389 -0.3551  0.2419  0.3218
  219POPC   NC3 3110   3.586   6.085   4.630 -0.1116 -0.1070  0.2696
  219POPC   PO4 3111   3.292   6.266   4.935 -0.2653  0.3377  0.2181
  219POPC   GL1 3112   3.191   6.103   5.399  0.1184 -0.2692  0.1579
  219POPC   GL2 3113   3.428   6.060   5.555  0.1780  0.2775 -0.0075
  219POPC   C1A 3114   2.993   6.041   5.843 -0.0113 -0.0650 -0.2703
  219POPC   D2A 3115   2.809   6.130   6.125 -0.2008  0.0018  0.1009
  219POPC   C3A 3116   2.421   6.023   6.116  0.0625 -0.2670 -0.0199
  219POPC   C4A 3117   2.020   5.756   6.137 -0.3813 -0.1529 -0.1750
  219POPC   C1B 3118   3.504   5.955   5.956 -0.1829 -0.0288 -0.1186
  219POPC   C2B 3119   3.300   6.167   6.323 -0.0055 -0.1524  0.0269
  219POPC   C3B 3120   3.498   6.064   6.630  0.0844  0.4609  0.3883
  219POPC   C4B 3121   3.646   5.994   7.037 -0.3242  0.2399  0.0997
  220POPC   NC3 3122   6.807   1.386   4.778  0.0956 -0.0213  0.2627
  220POPC   PO4 3123   6.517   1.636   5.022 -0.1454  0.4163 -0.2324
  220POPC   GL1 3124   6.482   1.520   5.449 -0.0443  0.4020 -0.1385
  220POPC   GL2 3125   6.739   1.306   5.302  0.2203 -0.0232 -0.3859
  220POPC   C1A 3126   6.425   1.330   5.927 -0.1502 -0.3043  0.1112
  220POPC   D2A 3127   6.593   1.085   6.186 -0.3709 -0.0890 -0.2852
  220POPC   C3A 3128   6.875   1.229   6.413 -0.0554 -0.2450  0.1798
  220POPC   C4A 3129   7.384   1.307   6.539  0.3037 -0.0056  0.1854
  220POPC   C1B 3130   6.888   1.379   5.731 -0.0347 -0.1434 -0.1941
  220POPC   C2B 3131   7.179   1.211   5.987 -0.3127 -0.3434 -0.1355
  220POPC   C3B 3132   7.502   1.509   6.066  0.1212  0.0464  0.0614
  220POPC   C4B 3133   7.666   1.685   6.375 -0.2939  0.0959 -0.2060
  221POPC   NC3 3134   8.552   9.164   4.394 -0.2291 -0.1875  0.0449
  221POPC   PO4 3135   8.393   8.913   4.895 -0.2017 -0.2093  0.1801
  221POPC   GL1 3136   8.361   9.111   5.229 -0.2740 -0.2760  0.2162
  221POPC   GL2 3137   8.481   9.442   5.306  0.0117 -0.2530 -0.0220
  221POPC   C1A 3138   8.341   9.169   5.734 -0.1408 -0.3077  0.3416
  221POPC   D2A 3139   8.062   8.921   5.909 -0.0294 -0.0368  0.1917
  221POPC   C3A 3140   8.053   9.018   6.317  0.0950 -0.0487  0.0330
  221POPC   C4A 3141   8.233   9.333   6.581  0.1234  0.0537  0.0609
  221POPC   C1B 3142   8.822   9.299   5.643  0.2280  0.1358  0.0382
  221POPC   C2B 3143   9.077   9.539   5.936 -0.2085  0.1979  0.0228
  221POPC   C3B 3144   9.064   9.792   6.366 -0.0176  0.1581  0.2015
  221POPC   C4B 3145   9.265   9.926   6.672  0.1391 -0.0600 -0.0813
  222POPC   NC3 3146   7.414   1.191   4.309  0.1966  0.4187  0.0225
  222POPC   PO4 3147   7.136   1.057   4.635 -0.2128 -0.2738  0.0121
  222POPC   GL1 3148   7.164   1.155   5.085 -0.3554  0.2113  0.1003
  222POPC   GL2 3149   7.211   1.027   5.494  0.0452 -0.2121  0.1924
  222POPC   C1A 3150   7.339   1.480   5.530  0.1539  0.3584  0.1291
  222POPC   D2A 3151   7.750   1.760   5.689 -0.0109  0.2582 -0.1681
  222POPC   C3A 3152   8.012   1.600   5.854  0.1373  0.0854 -0.2413
  222POPC   C4A 3153   8.228   1.647   6.158 -0.0792  0.0090 -0.1581
  222POPC   C1B 3154   7.394   0.770   5.827 -0.0423  0.1092  0.1209
  222POPC   C2B 3155   7.443   0.373   6.026 -0.1836  0.2833 -0.1474
  222POPC   C3B 3156   7.678   0.094   6.091 -0.0087  0.1080 -0.0793
  222POPC   C4B 3157   8.075   0.038   5.953 -0.1481  0.0832 -0.0354
  223POPC   NC3 3158   7.289   2.485   4.708  0.1030  0.1628 -0.0638
  223POPC   PO4 3159   7.683   2.777   4.819  0.0781 -0.1921  0.0465
  223POPC   GL1 3160   7.525   3.117   5.159 -0.2043  0.0831  0.4838
  223POPC   GL2 3161   7.693   3.049   5.411 -0.1036 -0.2608 -0.0240
  223POPC   C1A 3162   7.280   3.194   5.598  0.4037 -0.1701  0.0672
  223POPC   D2A 3163   7.166   2.992   5.935 -0.2935  0.0504  0.3040
  223POPC   C3A 3164   7.431   2.964   6.257 -0.1410  0.0273 -0.1799
  223POPC   C4A 3165   7.605   3.172   6.632 -0.1776  0.2637  0.0992
  223POPC   C1B 3166   7.665   3.287   5.847  0.3248  0.0614  0.1583
  223POPC   C2B 3167   7.940   3.018   6.275 -0.0370 -0.0593  0.1279
  223POPC   C3B 3168   8.087   3.054   6.696 -0.0682  0.1271  0.0309
  223POPC   C4B 3169   8.201   3.078   7.146  0.0167  0.2206 -0.1219
  224POPC   NC3 3170   9.631   3.963   4.316  0.2133 -0.1533 -0.3344
  224POPC   PO4 3171   9.968   3.933   4.599 -0.3541 -0.0756  0.3795
  224POPC   GL1 3172  10.016   4.128   5.031  0.0583 -0.0227 -0.2099
  224POPC   GL2 3173   9.875   3.944   5.281  0.0712 -0.2457  0.2026
  224POPC   C1A 3174  10.358   4.463   5.266 -0.0391 -0.0040  0.0358
  224POPC   D2A 3175  10.466   4.922   5.453 -0.2860 -0.0289  0.0247
  224POPC   C3A 3176  10.233   5.123   5.818 -0.1728 -0.3613 -0.1691
  224POPC   C4A 3177   9.964   4.854   6.199  0.1271 -0.1423  0.4101
  224POPC   C1B 3178   9.638   4.032   5.716 -0.2023 -0.0873  0.2559
  224POPC   C2B 3179   9.735   4.147   6.081  0.3770 -0.1713 -0.0880
  224POPC   C3B 3180   9.759   4.255   6.409  0.1354  0.0584 -0.1359
  224POPC   C4B 3181   9.862   4.530   6.724 -0.2689 -0.0047 -0.3270
  225POPC   NC3 3182   0.274   8.528   3.763 -0.2948  0.0869  0.0118
  225POPC   PO4 3183   0.521   8.061   3.754  0.3324  0.1407  0.1257
  225POPC   GL1 3184   0.604   8.243   4.115 -0.1618  0.0612 -0.1928
  225POPC   GL2 3185   0.815   8.556   3.997  0.3636 -0.3414 -0.0545
  225POPC   C1A 3186   0.377   8.379   4.502 -0.3493  0.0154 -0.6122
  225POPC   D2A 3187   0.598   8.513   4.932  0.0800 -0.0126 -0.0824
  225POPC   C3A 3188   0.417   8.728   5.285 -0.2287 -0.2462 -0.2500
  225POPC   C4A 3189   0.395   8.778   5.645 -0.0547  0.0142  0.0874
  225POPC   C1B 3190   0.598   8.770   4.335  0.2300 -0.0106  0.0523
  225POPC   C2B 3191   0.616   9.043   4.609  0.0168  0.0262  0.0016
  225POPC   C3B 3192   0.942   8.948   4.971  0.0780 -0.1049 -0.2172
  225POPC   C4B 3193   1.285   8.861   5.184 -0.0862 -0.0001 -0.1797
  226POPC   NC3 3194  10.235   8.496   2.998  0.2085 -0.1134  0.1307
  226POPC   PO4 3195  10.321   8.503   3.492  0.3296 -0.2879 -0.1662
  226POPC   GL1 3196  10.335   8.907   3.765 -0.1214 -0.0001  0.0862
  226POPC   GL2 3197  10.547   9.110   3.632  0.0181  0.3026  0.1523
  226POPC   C1A 3198  10.325   9.215   4.074  0.4901 -0.1440  0.0221
  226POPC   D2A 3199  10.197   9.339   4.594  0.1300  0.1485  0.2933
  226POPC   C3A 3200  10.378   9.256   4.958 -0.0740 -0.0271 -0.1060
  226POPC   C4A 3201  10.847   9.111   4.997  0.1706 -0.0786  0.2239
  226POPC   C1B 3202  10.831   9.332   3.837 -0.2462 -0.1450  0.1546
  226POPC   C2B 3203  11.071   9.242   4.105  0.0243 -0.1508 -0.3699
  226POPC   C3B 3204  11.448   9.085   4.238  0.1756 -0.0022 -0.0591
  226POPC   C4B 3205  11.705   9.060   4.538  0.1506 -0.3071 -0.0165
  227POPC   NC3 3206   4.219   6.556   5.169 -0.0146  0.3139  0.2134
  227POPC   PO4 3207   4.347   6.160   5.282  0.0018  0.3272 -0.1742
  227POPC   GL1 3208   4.327   6.429   5.676  0.3680  0.0488  0.0751
  227POPC   GL2 3209   4.513   6.747   5.714  0.3027  0.2407 -0.3091
  227POPC   C1A 3210   4.213   6.517   6.081 -0.0741  0.0472  0.3426
  227POPC   D2A 3211   4.222   6.427   6.440 -0.0965 -0.2028  0.1971
  227POPC   C3A 3212   4.049   6.044   6.540  0.2405 -0.0118  0.0423
  227POPC   C4A 3213   3.733   5.693   6.431  0.1857  0.0157 -0.0527
  227POPC   C1B 3214   4.583   6.795   6.137 -0.2758  0.0948 -0.0151
  227POPC   C2B 3215   4.694   6.839   6.618  0.0111  0.2198 -0.1004
  227POPC   C3B 3216   4.266   6.907   6.753  0.0278  0.0953  0.1551
  227POPC   C4B 3217   3.868   6.603   6.877 -0.1561 -0.2503  0.2595
  228POPC   NC3 3218   7.495  10.172   5.263 -0.0197  0.3790  0.0668
  228POPC   PO4 3219   7.816   9.873   5.059  0.1243 -0.1006 -0.0060
  228POPC   GL1 3220   7.980   9.706   5.362 -0.0835 -0.0727  0.3289
  228POPC   GL2 3221   7.930   9.433   5.580  0.2380  0.1416 -0.1163
  228POPC   C1A 3222   8.279   9.757   5.719 -0.0071  0.2500 -0.0165
  228POPC   D2A 3223   8.539   9.830   5.965 -0.4976 -0.0361 -0.0846
  228POPC   C3A 3224   8.630   9.698   6.533 -0.2716  0.2604 -0.1001
  228POPC   C4A 3225   8.675   9.441   6.869  0.2892 -0.2503 -0.1647
  228POPC   C1B 3226   8.065   9.480   6.093 -0.0970 -0.0002  0.3307
  228POPC   C2B 3227   8.141   9.834   6.399 -0.1701 -0.0240 -0.1395
  228POPC   C3B 3228   8.351  10.144   6.567  0.0100 -0.1154  0.1885
  228POPC   C4B 3229   8.698   9.965   6.950 -0.1640 -0.0039  0.2608
  229POPC   NC3 3230   0.733   2.410   5.069  0.0137  0.1598 -0.1955
  229POPC   PO4 3231   0.568   2.758   5.047  0.2831 -0.4724  0.0159
  229POPC   GL1 3232   0.420   2.788   5.416 -0.2151 -0.0340 -0.0854
  229POPC   GL2 3233   0.055   2.719   5.608  0.0441  0.1742 -0.0920
  229POPC   C1A 3234   0.690   2.981   5.779  0.1862 -0.1481 -0.0403
  229POPC   D2A 3235   0.446   3.119   6.225  0.3609 -0.0141  0.0968
  229POPC   C3A 3236   0.424   2.873   6.557  0.1724 -0.1824 -0.1612
  229POPC   C4A 3237   0.107   2.459   6.593 -0.2772 -0.1060  0.0801
  229POPC   C1B 3238   0.199   3.079   5.751 -0.1808 -0.1203  0.0381
  229POPC   C2B 3239   0.428   3.529   5.816 -0.1673 -0.1145  0.2958
  229POPC   C3B 3240   0.572   3.839   6.073  0.1807  0.1738  0.0655
  229POPC   C4B 3241   0.768   4.203   6.216  0.4361 -0.0948 -0.0702
  230POPC   NC3 3242   8.647   8.278   4.284  0.1472 -0.3578 -0.0705
  230POPC   PO4 3243   8.830   8.137   4.839 -0.2564  0.1499  0.2206
  230POPC   GL1 3244   9.083   8.086   5.091 -0.1376  0.1313 -0.1672
  230POPC   GL2 3245   9.346   8.236   5.155 -0.1065 -0.3349 -0.0333
  230POPC   C1A 3246   9.422   7.911   5.504 -0.2432 -0.0873  0.2075
  230POPC   D2A 3247   9.461   7.756   5.956  0.1625  0.1183  0.5102
  230POPC   C3A 3248   9.321   8.146   6.266 -0.1272  0.0053  0.1410
  230POPC   C4A 3249   9.456   8.314   6.523 -0.1102  0.1179  0.1210
  230POPC   C1B 3250   9.115   8.400   5.480  0.2370 -0.1522 -0.2869
  230POPC   C2B 3251   9.092   8.104   5.817  0.2556  0.2038 -0.2732
  230POPC   C3B 3252   8.880   7.891   6.135  0.1665 -0.2705  0.2581
  230POPC   C4B 3253   8.996   7.622   6.357 -0.1828  0.0686 -0.0863
  231POPC   NC3 3254   9.528   5.038   4.838 -0.0453 -0.5012 -0.0772
  231POPC   PO4 3255   9.724   5.365   4.638  0.2618  0.1325  0.3617
  231POPC   GL1 3256   9.802   5.547   4.938  0.0685 -0.2106 -0.5704
  231POPC   GL2 3257  10.076   5.210   4.939  0.0981  0.0178  0.1585
  231POPC   C1A 3258  10.064   5.764   5.140 -0.1610  0.2484  0.2328
  231POPC   D2A 3259  10.204   6.062   5.480 -0.0968  0.2277  0.0276
  231POPC   C3A 3260  10.502   6.033   5.723 -0.0028  0.2351 -0.1143
  231POPC   C4A 3261  10.599   6.043   5.996  0.0754 -0.1445  0.0369
  231POPC   C1B 3262  10.169   5.324   5.312  0.2703  0.1179  0.2404
  231POPC   C2B 3263  10.051   5.582   5.746 -0.3851 -0.1079  0.1752
  231POPC   C3B 3264  10.043   5.458   6.192  0.0993 -0.1699 -0.2579
  231POPC   C4B 3265   9.727   5.256   6.518 -0.1217  0.1113 -0.2742
  232POPC   NC3 3266   4.543   7.696   4.883 -0.0918  0.0641 -0.0661
  232POPC   PO4 3267   4.076   7.860   4.775  0.2494 -0.2442 -0.2034
  232POPC   GL1 3268   4.172   8.021   5.250 -0.0728 -0.0131  0.0117
  232POPC   GL2 3269   4.313   7.763   5.335 -0.0799  0.1676  0.1629
  232POPC   C1A 3270   4.165   8.187   5.633  0.2433  0.0567  0.0035
  232POPC   D2A 3271   4.021   8.149   5.985 -0.0182  0.0419 -0.3783
  232POPC   C3A 3272   4.160   7.770   6.126  0.0655  0.0061 -0.0848
  232POPC   C4A 3273   4.168   7.311   6.400 -0.1078  0.2097  0.2190
  232POPC   C1B 3274   4.473   7.529   5.724  0.1070  0.0248 -0.2595
  232POPC   C2B 3275   4.555   7.520   6.183 -0.1575 -0.1065 -0.0961
  232POPC   C3B 3276   4.713   7.358   6.583  0.0123  0.2279 -0.1811
  232POPC   C4B 3277   4.955   7.291   6.861 -0.1588  0.1316  0.0334
  233POPC   NC3 3278   6.667   6.501   4.746  0.0246  0.1485  0.0104
  233POPC   PO4 3279   6.463   6.880   4.818  0.2421  0.1926  0.1991
  233POPC   GL1 3280   6.452   6.964   5.253  0.2230 -0.1409 -0.0644
  233POPC   GL2 3281   6.379   6.581   5.244 -0.1031  0.0426 -0.2955
  233POPC   C1A 3282   6.324   6.822   5.677  0.2490 -0.1904  0.0327
  233POPC   D2A 3283   6.284   6.755   6.116  0.1450  0.0519 -0.1927
  233POPC   C3A 3284   6.227   6.477   6.466 -0.0459  0.0283  0.1955
  233POPC   C4A 3285   6.391   6.700   6.932 -0.1309  0.0172  0.1673
  233POPC   C1B 3286   6.342   6.122   5.583  0.1549 -0.2201 -0.0789
  233POPC   C2B 3287   6.473   6.199   6.034 -0.2499 -0.2578  0.0650
  233POPC   C3B 3288   6.740   6.567   6.238 -0.2630  0.1976 -0.0446
  233POPC   C4B 3289   6.778   6.836   6.541 -0.3170 -0.1466  0.1662
  234POPC   NC3 3290   1.406  10.125   2.904  0.4449 -0.2250  0.1508
  234POPC   PO4 3291   1.375  10.402   3.288  0.0108  0.1438 -0.2486
  234POPC   GL1 3292   1.205  10.250   3.623 -0.0491 -0.0397  0.1396
  234POPC   GL2 3293   1.385  10.449   3.841  0.1202 -0.1046 -0.2745
  234POPC   C1A 3294   0.922  10.093   4.036 -0.3224 -0.1582 -0.2072
  234POPC   D2A 3295   1.097   9.888   4.365  0.0355  0.0007  0.0185
  234POPC   C3A 3296   0.868   9.511   4.547  0.1876  0.1485  0.3632
  234POPC   C4A 3297   0.769   9.399   4.922  0.0649 -0.1006 -0.2513
  234POPC   C1B 3298   1.302  10.398   4.243 -0.0663  0.1770  0.2499
  234POPC   C2B 3299   1.182  10.357   4.684  0.0718 -0.1059 -0.1733
  234POPC   C3B 3300   1.396  10.468   5.068  0.2545 -0.0380  0.0832
  234POPC   C4B 3301   1.789  10.479   5.318 -0.1077  0.0084 -0.2315
  235POPC   NC3 3302   3.041   2.198   4.699  0.0392  0.0098 -0.4403
  235POPC   PO4 3303   3.106   1.750   4.520  0.3985 -0.0716  0.0401
  235POPC   GL1 3304   3.045   1.726   4.944 -0.2020  0.1886 -0.0208
  235POPC   GL2 3305   2.768   1.862   5.086  0.2655  0.1222  0.0163
  235POPC   C1A 3306   3.401   1.656   5.135  0.0920 -0.1455 -0.3259
  235POPC   D2A 3307   3.454   1.682   5.529 -0.2668 -0.0173  0.2532
  235POPC   C3A 3308   3.466   1.416   5.771 -0.0087 -0.0784 -0.2063
  235POPC   C4A 3309   3.648   1.048   5.920  0.0747  0.0546 -0.5134
  235POPC   C1B 3310   2.913   1.932   5.465  0.3296 -0.0412 -0.0853
  235POPC   C2B 3311   2.655   1.864   5.882  0.0074  0.1263 -0.0821
  235POPC   C3B 3312   2.449   1.635   6.133 -0.1533 -0.2276  0.0117
  235POPC   C4B 3313   2.318   1.805   6.612  0.0336  0.4391  0.2535
  236POPC   NC3 3314   4.960   2.263   4.697 -0.1237  0.0307  0.3065
  236POPC   PO4 3315   5.099   2.259   5.182  0.0698  0.0918  0.1564
  236POPC   GL1 3316   5.190   2.202   5.668 -0.2996  0.0844  0.3729
  236POPC   GL2 3317   5.194   1.835   5.890 -0.3182 -0.0856  0.1009
  236POPC   C1A 3318   5.156   2.420   6.117  0.1105 -0.0368  0.3281
  236POPC   D2A 3319   4.931   2.799   6.237  0.2252 -0.2936  0.1552
  236POPC   C3A 3320   4.639   2.800   6.034 -0.1261  0.2135  0.0299
  236POPC   C4A 3321   4.401   2.994   5.652 -0.1609 -0.0751  0.3774
  236POPC   C1B 3322   5.255   1.999   6.311 -0.0904  0.0420 -0.2415
  236POPC   C2B 3323   5.324   1.979   6.729 -0.0451 -0.0733 -0.0120
  236POPC   C3B 3324   5.208   1.839   7.100 -0.1784 -0.1706  0.3788
  236POPC   C4B 3325   4.858   1.879   7.195 -0.1718 -0.1904 -0.1132
  237POPC   NC3 3326   1.054   4.468   4.300 -0.1348 -0.4612 -0.4680
  237POPC   PO4 3327   1.268   4.774   4.230  0.0845  0.2011  0.0444
  237POPC   GL1 3328   1.356   4.654   4.715  0.1381 -0.1079 -0.2726
  237POPC   GL2 3329   1.050   4.737   4.825  0.2402 -0.0386  0.1156
  237POPC   C1A 3330   1.358   4.391   5.126 -0.1035 -0.0897 -0.1229
  237POPC   D2A 3331   1.260   4.299   5.581 -0.0923 -0.1533 -0.0721
  237POPC   C3A 3332   0.854   4.372   5.756  0.0116  0.1209  0.2330
  237POPC   C4A 3333   0.576   4.608   6.000  0.0562 -0.3819 -0.1757
  237POPC   C1B 3334   0.595   4.739   5.014  0.3200 -0.0421  0.1108
  237POPC   C2B 3335   0.471   4.506   5.480  0.0206  0.3341  0.0652
  237POPC   C3B 3336   0.151   4.420   5.736 -0.0972 -0.0154 -0.0018
  237POPC   C4B 3337  -0.196   4.626   5.851  0.1369  0.2347 -0.1352
  238POPC   NC3 3338  10.477   6.784   4.315 -0.2863 -0.1028 -0.1385
  238POPC   PO4 3339  10.067   6.885   4.363 -0.1607 -0.1559  0.0342
  238POPC   GL1 3340   9.979   6.836   4.809 -0.1245  0.0534 -0.5194
  238POPC   GL2 3341   9.641   6.904   4.725 -0.2361  0.2181 -0.2544
  238POPC   C1A 3342  10.154   6.852   5.141  0.0081 -0.2056 -0.1165
  238POPC   D2A 3343  10.258   6.666   5.493 -0.2005  0.2613  0.1916
  238POPC   C3A 3344  10.325   6.932   5.917 -0.0167 -0.0445  0.2158
  238POPC   C4A 3345  10.264   6.840   6.385 -0.1731  0.0761 -0.2172
  238POPC   C1B 3346   9.577   6.906   5.236  0.0028 -0.1832  0.0749
  238POPC   C2B 3347   9.176   6.947   5.538 -0.0401 -0.3549 -0.3882
  238POPC   C3B 3348   8.904   6.925   5.696  0.2451  0.0937  0.0228
  238POPC   C4B 3349   8.629   6.759   6.040 -0.0264 -0.1625 -0.1882
  239POPC   NC3 3350  10.297  10.043   3.383  0.0620 -0.2978  0.4606
  239POPC   PO4 3351  10.030   9.774   3.585  0.1738 -0.1442  0.1252
  239POPC   GL1 3352  10.343   9.771   3.909  0.0156  0.1514  0.0937
  239POPC   GL2 3353  10.442  10.115   4.008 -0.1895 -0.1766  0.0247
  239POPC   C1A 3354  10.507   9.615   4.282  0.0852  0.0243 -0.0128
  239POPC   D2A 3355  10.763   9.361   4.509 -0.1293  0.3114 -0.0272
  239POPC   C3A 3356  10.653   9.036   4.378 -0.3183  0.2716 -0.0168
  239POPC   C4A 3357  10.363   8.785   4.350  0.0413  0.0703 -0.2390
  239POPC   C1B 3358  10.601  10.110   4.444  0.2615  0.1213 -0.0976
  239POPC   C2B 3359  10.948   9.817   4.715 -0.0413 -0.0362 -0.1226
  239POPC   C3B 3360  11.432   9.912   4.864  0.3047  0.2211  0.1208
  239POPC   C4B 3361  11.847   9.928   4.835  0.4392 -0.1171 -0.0998
  240POPC   NC3 3362   2.582   8.415   3.311 -0.0560 -0.4291  0.1653
  240POPC   PO4 3363   2.301   8.634   3.469 -0.1779  0.0330 -0.2525
  240POPC   GL1 3364   2.058   8.701   3.747  0.1485 -0.0476 -0.0574
  240POPC   GL2 3365   2.146   8.947   3.981  0.2053  0.1784 -0.2961
  240POPC   C1A 3366   1.746   8.588   4.040 -0.0250 -0.5507 -0.1106
  240POPC   D2A 3367   1.694   8.952   4.256  0.2738  0.0546 -0.1411
  240POPC   C3A 3368   1.542   8.670   4.702 -0.1845  0.0242  0.2292
  240POPC   C4A 3369   1.535   8.348   4.852 -0.0062 -0.1512  0.0704
  240POPC   C1B 3370   2.228   9.050   4.368 -0.3015  0.1587 -0.0423
  240POPC   C2B 3371   2.301   9.439   4.453 -0.0088 -0.0753 -0.0956
  240POPC   C3B 3372   2.618   9.635   4.626  0.0783  0.0974  0.1649
  240POPC   C4B 3373   2.794   9.397   4.861  0.0023 -0.2005 -0.2388
  241POPC   NC3 3374   5.969   3.304   4.865  0.0991  0.1797  0.1133
  241POPC   PO4 3375   6.253   3.673   4.973 -0.0283  0.0419 -0.0471
  241POPC   GL1 3376   6.331   3.825   5.335  0.0585 -0.2898  0.1713
  241POPC   GL2 3377   6.627   3.710   5.395  0.2135  0.1034 -0.1479
  241POPC   C1A 3378   6.230   3.913   5.790 -0.0905  0.0079 -0.1716
  241POPC   D2A 3379   6.323   4.050   6.276 -0.1402 -0.0220 -0.2395
  241POPC   C3A 3380   6.346   4.029   6.675  0.2995  0.2823 -0.1171
  241POPC   C4A 3381   6.692   3.897   6.916 -0.1849  0.0248 -0.1631
  241POPC   C1B 3382   6.803   3.387   5.638  0.2043  0.0188  0.4320
  241POPC   C2B 3383   6.703   3.207   6.074  0.0692  0.1426  0.2218
  241POPC   C3B 3384   6.940   3.143   6.353  0.0217 -0.2708 -0.5174
  241POPC   C4B 3385   7.068   3.567   6.497 -0.1337 -0.1078  0.0148
  242POPC   NC3 3386   1.881   1.178   3.720  0.1489 -0.0640 -0.2080
  242POPC   PO4 3387   2.334   1.118   4.005  0.0899  0.3334  0.1448
  242POPC   GL1 3388   2.198   0.758   4.208 -0.0927  0.3171  0.0380
  242POPC   GL2 3389   2.488   0.731   4.387  0.0068  0.3310 -0.0433
  242POPC   C1A 3390   2.098   0.383   4.409  0.2102  0.2734 -0.0801
  242POPC   D2A 3391   1.681   0.115   4.491  0.0478 -0.3205 -0.2281
  242POPC   C3A 3392   1.253   0.312   4.719  0.2427  0.1830 -0.1899
  242POPC   C4A 3393   0.920   0.167   4.983 -0.3826  0.1723  0.0704
  242POPC   C1B 3394   2.428   1.059   4.704  0.1597  0.3232  0.2231
  242POPC   C2B 3395   2.728   1.300   5.025 -0.2013 -0.1674 -0.0079
  242POPC   C3B 3396   3.024   1.417   5.441 -0.1271  0.0102 -0.1443
  242POPC   C4B 3397   2.921   1.398   5.891 -0.2247  0.0032  0.1594
  243POPC   NC3 3398   5.447   9.941   4.923  0.1561 -0.0398 -0.1763
  243POPC   PO4 3399   4.969   9.917   5.176 -0.0423 -0.0548  0.0340
  243POPC   GL1 3400   5.066   9.824   5.586  0.0272 -0.1850  0.0420
  243POPC   GL2 3401   5.333  10.182   5.831 -0.2050 -0.1466 -0.0373
  243POPC   C1A 3402   4.881   9.963   5.954  0.1210 -0.1188  0.0265
  243POPC   D2A 3403   4.575   9.745   6.202  0.0234  0.1390  0.2090
  243POPC   C3A 3404   4.206  10.174   6.375 -0.2417 -0.0466 -0.0146
  243POPC   C4A 3405   4.193  10.579   6.543 -0.1489 -0.1253 -0.0601
  243POPC   C1B 3406   5.300   9.962   6.314  0.0128 -0.0186 -0.1193
  243POPC   C2B 3407   4.868   9.973   6.574  0.1762 -0.0797 -0.2446
  243POPC   C3B 3408   4.550  10.203   6.764 -0.0730 -0.1477  0.2068
  243POPC   C4B 3409   4.482  10.547   7.079 -0.0056 -0.0754 -0.2565
  244POPC   NC3 3410   9.195   8.431   4.613 -0.0507 -0.1207 -0.2237
  244POPC   PO4 3411   8.833   8.686   4.629 -0.0330  0.0178  0.2233
  244POPC   GL1 3412   8.954   8.581   5.025 -0.1281 -0.3192  0.0834
  244POPC   GL2 3413   8.804   8.869   5.202 -0.2972 -0.1564 -0.3178
  244POPC   C1A 3414   9.242   8.858   5.388  0.0870 -0.0032  0.2930
  244POPC   D2A 3415   9.314   9.123   5.711  0.0668  0.2451 -0.0973
  244POPC   C3A 3416   8.979   9.062   6.067 -0.0510  0.0890 -0.1409
  244POPC   C4A 3417   8.576   9.267   6.158 -0.0249  0.2351  0.2269
  244POPC   C1B 3418   8.678   8.815   5.683 -0.2609  0.1298  0.0916
  244POPC   C2B 3419   8.542   8.757   6.080  0.2032 -0.1456  0.1782
  244POPC   C3B 3420   8.247   8.531   6.255 -0.1447 -0.0169  0.2796
  244POPC   C4B 3421   8.004   8.260   6.503  0.1082  0.1268 -0.1071
  245POPC   NC3 3422   9.474   9.306   3.209  0.5489 -0.2180  0.0714
  245POPC   PO4 3423   9.152   9.273   3.505  0.2378  0.0400 -0.0868
  245POPC   GL1 3424   9.246   9.438   3.918 -0.1421 -0.0014  0.0593
  245POPC   GL2 3425   9.379   9.798   4.011 -0.1171 -0.3416 -0.0932
  245POPC   C1A 3426   9.415   9.418   4.357  0.0644  0.3081 -0.2737
  245POPC   D2A 3427   9.734   9.416   4.575  0.1491  0.3358  0.2878
  245POPC   C3A 3428   9.933   8.958   4.564  0.2798 -0.1868  0.3283
  245POPC   C4A 3429  10.064   8.707   4.805 -0.4639  0.2183 -0.1264
  245POPC   C1B 3430   9.348  10.013   4.386  0.2343  0.1824  0.0595
  245POPC   C2B 3431   9.531   9.860   4.672  0.2324 -0.2457 -0.1565
  245POPC   C3B 3432   9.825   9.822   4.964 -0.0879  0.2175  0.4923
  245POPC   C4B 3433  10.276   9.761   5.208 -0.0386  0.4393  0.0980
  246POPC   NC3 3434   3.508   7.153   5.012  0.2398  0.2494  0.1150
  246POPC   PO4 3435   3.258   7.656   4.720  0.1169 -0.2224 -0.2751
  246POPC   GL1 3436   3.161   7.529   5.216 -0.1916  0.1096  0.3646
  246POPC   GL2 3437   3.415   7.462   5.370 -0.1006  0.0147  0.0541
  246POPC   C1A 3438   2.872   7.695   5.522 -0.0746 -0.1073  0.1120
  246POPC   D2A 3439   2.497   7.613   5.728  0.3785  0.2727  0.1219
  246POPC   C3A 3440   2.463   7.800   6.182  0.0821  0.3374 -0.2524
  246POPC   C4A 3441   2.289   8.066   6.524  0.0385 -0.0846 -0.0329
  246POPC   C1B 3442   3.455   7.346   5.828  0.1122 -0.1524 -0.0270
  246POPC   C2B 3443   3.394   7.370   6.284 -0.1673  0.0791  0.1920
  246POPC   C3B 3444   3.332   7.440   6.718 -0.2341  0.0816  0.0164
  246POPC   C4B 3445   3.242   7.586   7.158  0.0516  0.1691  0.0885
  247POPC   NC3 3446   7.490   9.875   4.704 -0.0209 -0.0147 -0.1001
  247POPC   PO4 3447   7.286   9.700   5.111 -0.0762  0.2346 -0.1336
  247POPC   GL1 3448   7.344   9.646   5.575 -0.2338  0.1653  0.2301
  247POPC   GL2 3449   7.367  10.005   5.677 -0.0006 -0.0762 -0.1210
  247POPC   C1A 3450   7.583   9.647   6.011  0.0357  0.0633 -0.2596
  247POPC   D2A 3451   7.675   9.794   6.503  0.7585  0.4765 -0.1360
  247POPC   C3A 3452   7.861   9.640   6.801 -0.2447 -0.1278  0.0792
  247POPC   C4A 3453   8.224   9.813   6.912  0.1091 -0.1652 -0.0325
  247POPC   C1B 3454   7.324  10.240   6.103  0.1108 -0.0133  0.1210
  247POPC   C2B 3455   7.442  10.283   6.492 -0.0716  0.3905  0.0295
  247POPC   C3B 3456   7.327  10.059   6.790 -0.0054  0.1045  0.1696
  247POPC   C4B 3457   7.055   9.919   7.120  0.0937 -0.2196 -0.1262
  248POPC   NC3 3458   3.146   5.290   4.948 -0.2881 -0.0740 -0.1704
  248POPC   PO4 3459   3.519   5.298   5.057 -0.0653 -0.0308  0.2797
  248POPC   GL1 3460   3.307   5.253   5.465 -0.1512 -0.1259  0.0728
  248POPC   GL2 3461   3.277   5.587   5.527  0.2615  0.1996 -0.0593
  248POPC   C1A 3462   3.594   4.892   5.786  0.0333 -0.3250 -0.0624
  248POPC   D2A 3463   4.027   4.700   5.946 -0.0456 -0.0499  0.1571
  248POPC   C3A 3464   3.902   4.271   6.051  0.3900  0.1999  0.0906
  248POPC   C4A 3465   3.511   4.029   5.995 -0.0309  0.0602 -0.4995
  248POPC   C1B 3466   3.233   5.535   5.982  0.1817  0.0977  0.0602
  248POPC   C2B 3467   3.101   5.640   6.449 -0.1387  0.0983 -0.1491
  248POPC   C3B 3468   2.976   5.501   6.920  0.4185  0.0024 -0.0301
  248POPC   C4B 3469   3.155   5.166   7.134  0.3458 -0.1515  0.0881
  249POPC   NC3 3470   6.279   7.929   4.973  0.0843 -0.2824  0.0291
  249POPC   PO4 3471   6.231   8.325   4.930 -0.0082 -0.5488 -0.0882
  249POPC   GL1 3472   6.063   8.477   5.292  0.0400 -0.0308  0.0459
  249POPC   GL2 3473   6.376   8.670   5.532 -0.3089 -0.0507 -0.0745
  249POPC   C1A 3474   5.894   8.319   5.688 -0.0532  0.0839  0.2524
  249POPC   D2A 3475   5.985   7.883   5.561  0.1261 -0.1402  0.1387
  249POPC   C3A 3476   6.298   7.697   5.733 -0.0703  0.0582  0.0330
  249POPC   C4A 3477   6.616   7.500   5.818 -0.2325  0.0970  0.2289
  249POPC   C1B 3478   6.341   8.401   5.874  0.2474  0.0508  0.3041
  249POPC   C2B 3479   6.354   8.068   6.168 -0.0207  0.1431 -0.1054
  249POPC   C3B 3480   6.110   8.024   6.525 -0.3208 -0.3719  0.0359
  249POPC   C4B 3481   6.243   8.001   7.010 -0.1462  0.1347  0.1210
  250POPC   NC3 3482   1.323   7.124   3.346  0.1311  0.1272  0.1818
  250POPC   PO4 3483   1.262   7.350   3.738 -0.0096 -0.2221 -0.2465
  250POPC   GL1 3484   1.091   7.611   4.047  0.5499  0.0886 -0.2099
  250POPC   GL2 3485   0.807   7.707   4.016 -0.0498  0.0085 -0.3272
  250POPC   C1A 3486   1.251   7.703   4.365  0.0565 -0.2760  0.2177
  250POPC   D2A 3487   1.687   7.766   4.432 -0.0927 -0.4149 -0.1353
  250POPC   C3A 3488   1.914   7.854   4.766 -0.2626  0.2515  0.1073
  250POPC   C4A 3489   1.812   7.990   5.191  0.0785  0.1943 -0.0722
  250POPC   C1B 3490   0.766   7.838   4.458  0.3840  0.0680  0.0558
  250POPC   C2B 3491   0.540   8.044   4.880 -0.1412  0.1136  0.1679
  250POPC   C3B 3492   0.217   8.278   5.153 -0.0679  0.2197  0.3318
  250POPC   C4B 3493  -0.262   8.371   5.230 -0.4233  0.0592 -0.2393
  251POPC   NC3 3494   6.174   7.347   4.862 -0.3252 -0.0736  0.1040
  251POPC   PO4 3495   5.873   7.663   4.945  0.1232 -0.0912  0.0743
  251POPC   GL1 3496   5.812   7.411   5.307  0.0856 -0.1319  0.0732
  251POPC   GL2 3497   5.563   7.567   5.492  0.0400 -0.0093  0.2319
  251POPC   C1A 3498   5.900   7.277   5.782  0.0160 -0.2089 -0.0614
  251POPC   D2A 3499   6.185   7.265   5.977 -0.3563  0.2120 -0.0562
  251POPC   C3A 3500   6.319   7.444   6.289 -0.2935 -0.0969  0.0863
  251POPC   C4A 3501   6.592   7.731   6.584  0.0151 -0.0773  0.1083
  251POPC   C1B 3502   5.585   7.674   5.860 -0.1123 -0.1695  0.0574
  251POPC   C2B 3503   5.923   7.689   6.063 -0.2361  0.0559 -0.0733
  251POPC   C3B 3504   5.717   7.721   6.438 -0.0256  0.2455 -0.1306
  251POPC   C4B 3505   5.609   8.007   6.722 -0.1105 -0.0224 -0.0976
  252POPC   NC3 3506   0.937   1.677   3.718 -0.1073  0.0187 -0.0940
  252POPC   PO4 3507   0.668   1.564   4.072  0.1244  0.1221  0.0628
  252POPC   GL1 3508   0.698   1.323   4.442  0.1007 -0.0884 -0.3909
  252POPC   GL2 3509   0.475   1.441   4.684  0.0410  0.2416 -0.2757
  252POPC   C1A 3510   1.047   1.279   4.747 -0.2814  0.0613  0.2901
  252POPC   D2A 3511   1.134   1.405   5.219 -0.1330  0.3677 -0.0080
  252POPC   C3A 3512   1.346   1.666   5.421  0.0659  0.1842 -0.1344
  252POPC   C4A 3513   1.604   1.445   5.639 -0.2214  0.1069 -0.1322
  252POPC   C1B 3514   0.572   1.433   5.134  0.3628  0.4081 -0.1200
  252POPC   C2B 3515   0.772   1.140   5.530  0.1211  0.0037  0.1249
  252POPC   C3B 3516   0.857   0.815   5.590 -0.0500  0.0710 -0.2463
  252POPC   C4B 3517   1.079   0.429   5.758 -0.0812 -0.0403 -0.0493
  253POPC   NC3 3518   1.145   5.151   4.552 -0.1658 -0.0685  0.0237
  253POPC   PO4 3519   1.555   5.108   4.601  0.0555  0.1224  0.5762
  253POPC   GL1 3520   1.432   5.233   4.941 -0.0213 -0.0499  0.1786
  253POPC   GL2 3521   1.419   5.553   5.020  0.1771  0.2265 -0.0374
  253POPC   C1A 3522   1.099   5.255   5.296 -0.1157  0.0380 -0.0824
  253POPC   D2A 3523   0.868   5.439   5.662 -0.2406  0.0805  0.0015
  253POPC   C3A 3524   0.534   5.327   5.900 -0.1626  0.1159 -0.0512
  253POPC   C4A 3525   0.450   5.502   6.384 -0.0622 -0.0236  0.2997
  253POPC   C1B 3526   1.323   5.628   5.458  0.1331  0.0379  0.1188
  253POPC   C2B 3527   1.325   5.360   5.762 -0.2607  0.3731  0.0184
  253POPC   C3B 3528   1.432   4.965   5.986  0.1045  0.1655 -0.1994
  253POPC   C4B 3529   1.697   4.939   6.385  0.0546  0.0406 -0.4456
  254POPC   NC3 3530   6.396   4.158   4.945 -0.1489  0.2255 -0.0695
  254POPC   PO4 3531   6.781   4.408   4.883  0.1090  0.1475 -0.2921
  254POPC   GL1 3532   7.107   4.586   5.280  0.1121  0.1121 -0.0900
  254POPC   GL2 3533   7.300   4.930   5.226  0.2240 -0.4624  0.0826
  254POPC   C1A 3534   6.956   4.679   5.664 -0.1198  0.0649 -0.3663
  254POPC   D2A 3535   7.016   4.829   6.157  0.2939 -0.2065  0.2047
  254POPC   C3A 3536   6.777   4.677   6.463  0.0340 -0.1777 -0.0823
  254POPC   C4A 3537   6.459   4.567   6.670 -0.1058  0.2061 -0.2606
  254POPC   C1B 3538   7.458   4.760   5.661  0.2148  0.2379  0.0393
  254POPC   C2B 3539   7.372   4.481   6.020 -0.1809  0.0926 -0.1066
  254POPC   C3B 3540   7.215   4.400   6.406  0.3054  0.0460  0.4171
  254POPC   C4B 3541   7.325   4.006   6.582 -0.1946 -0.0344  0.3132
  255POPC   NC3 3542   7.964   6.191   5.097 -0.0492 -0.0303 -0.1151
  255POPC   PO4 3543   8.423   6.280   5.017  0.0951 -0.0962  0.0498
  255POPC   GL1 3544   8.290   6.319   5.448  0.1727  0.2614  0.0484
  255POPC   GL2 3545   7.910   6.213   5.587  0.2619 -0.1012  0.2147
  255POPC   C1A 3546   8.456   6.298   5.846 -0.5809 -0.1887 -0.0553
  255POPC   D2A 3547   8.693   6.302   6.170 -0.0072 -0.1274  0.3052
  255POPC   C3A 3548   8.962   6.515   6.333  0.2117 -0.1457  0.0010
  255POPC   C4A 3549   9.327   6.449   6.466 -0.0765  0.2078  0.1177
  255POPC   C1B 3550   8.023   6.096   5.964  0.2198  0.1285 -0.1284
  255POPC   C2B 3551   8.262   6.100   6.287 -0.2617  0.2032 -0.2016
  255POPC   C3B 3552   8.570   5.935   6.597  0.0043  0.1847 -0.1310
  255POPC   C4B 3553   8.371   5.740   6.978  0.0098  0.3963 -0.2710
  256POPC   NC3 3554   2.691   4.548   4.985 -0.1047 -0.0380 -0.0559
  256POPC   PO4 3555   2.866   4.137   4.965  0.4039  0.1504 -0.1083
  256POPC   GL1 3556   3.176   4.394   5.133 -0.1859  0.1106 -0.2587
  256POPC   GL2 3557   3.425   4.326   5.075  0.2013 -0.0416  0.0751
  256POPC   C1A 3558   3.179   4.517   5.567 -0.0235  0.0610 -0.1092
  256POPC   D2A 3559   3.397   4.513   6.021  0.1941 -0.0123  0.5059
  256POPC   C3A 3560   3.200   4.593   6.356 -0.0536  0.1252 -0.3087
  256POPC   C4A 3561   3.117   4.383   6.744  0.0118 -0.2233 -0.0368
  256POPC   C1B 3562   3.642   4.237   5.463  0.0401 -0.0522 -0.3024
  256POPC   C2B 3563   3.935   3.912   5.652  0.2563  0.0936 -0.1687
  256POPC   C3B 3564   3.959   3.826   6.105 -0.0236  0.1560 -0.1939
  256POPC   C4B 3565   4.141   4.069   6.441  0.0610  0.0796 -0.0595
  257POPC   NC3 3566   6.683   9.738   5.124  0.0998 -0.2089  0.0500
  257POPC   PO4 3567   6.881   9.886   4.922  0.3606  0.2234  0.0871
  257POPC   GL1 3568   6.950  10.037   5.385 -0.0748  0.0044 -0.3727
  257POPC   GL2 3569   6.904   9.794   5.590 -0.0524 -0.0172 -0.1593
  257POPC   C1A 3570   6.925  10.200   5.833  0.3622 -0.1614  0.1463
  257POPC   D2A 3571   6.825  10.208   6.369  0.1296  0.1774  0.1833
  257POPC   C3A 3572   6.891   9.757   6.635 -0.0149  0.0546  0.2127
  257POPC   C4A 3573   6.882   9.349   6.658  0.1484  0.2495 -0.1953
  257POPC   C1B 3574   6.619   9.475   5.715  0.0151 -0.0640  0.1854
  257POPC   C2B 3575   6.365   9.091   5.979 -0.2286  0.3226  0.1735
  257POPC   C3B 3576   5.913   9.039   6.235 -0.1605  0.1598  0.3107
  257POPC   C4B 3577   5.731   8.768   6.579  0.1882 -0.0602  0.3666
  258POPC   NC3 3578   8.131   3.497   4.749 -0.2912  0.4160  0.0670
  258POPC   PO4 3579   8.515   3.365   4.972  0.2603 -0.1212  0.2950
  258POPC   GL1 3580   8.442   3.245   5.381 -0.5314  0.0120 -0.1686
  258POPC   GL2 3581   8.408   2.826   5.417 -0.2935  0.1449 -0.0360
  258POPC   C1A 3582   8.667   3.111   5.761 -0.0081  0.1630 -0.3002
  258POPC   D2A 3583   8.954   3.156   5.991 -0.1772 -0.2851 -0.1326
  258POPC   C3A 3584   9.182   3.458   6.083  0.0674 -0.0095  0.0415
  258POPC   C4A 3585   9.175   3.946   5.933  0.4286  0.0711  0.1010
  258POPC   C1B 3586   8.105   2.940   5.764  0.1792 -0.2079 -0.0781
  258POPC   C2B 3587   7.749   2.751   5.852 -0.1976 -0.1880  0.2700
  258POPC   C3B 3588   7.363   2.492   5.987 -0.0077  0.1594 -0.1232
  258POPC   C4B 3589   6.973   2.678   6.224  0.0455 -0.3594  0.0372
  259POPC   NC3 3590   8.976   7.623   4.633 -0.2410 -0.0063  0.2775
  259POPC   PO4 3591   8.520   7.810   4.631  0.0759  0.0505 -0.1805
  259POPC   GL1 3592   8.636   7.725   5.061 -0.2003 -0.1738 -0.1271
  259POPC   GL2 3593   8.496   7.970   5.170 -0.0990 -0.0502  0.3738
  259POPC   C1A 3594   8.939   7.713   5.453 -0.2151  0.0877  0.0275
  259POPC   D2A 3595   8.900   7.431   5.724  0.1652  0.0894  0.0123
  259POPC   C3A 3596   9.239   7.329   6.027  0.0145  0.4106 -0.0418
  259POPC   C4A 3597   9.468   7.281   6.375  0.2330  0.0897 -0.1187
  259POPC   C1B 3598   8.653   8.183   5.548 -0.0665 -0.3274 -0.0573
  259POPC   C2B 3599   8.652   8.313   5.892 -0.0365  0.1449  0.1714
  259POPC   C3B 3600   9.000   8.551   6.037 -0.1824 -0.0960  0.1893
  259POPC   C4B 3601   9.136   8.746   6.444 -0.1748  0.2177 -0.1967
  260POPC   NC3 3602   0.244   2.443   4.259 -0.2113 -0.0130  0.0666
  260POPC   PO4 3603   0.132   2.342   4.678  0.0045 -0.0334 -0.0597
  260POPC   GL1 3604   0.206   2.320   5.203 -0.3485 -0.0633 -0.1317
  260POPC   GL2 3605   0.324   2.008   5.272 -0.0408 -0.0995 -0.2123
  260POPC   C1A 3606   0.219   2.208   5.715 -0.2040 -0.1161 -0.0806
  260POPC   D2A 3607   0.657   2.495   5.728  0.0450  0.1900  0.1182
  260POPC   C3A 3608   0.771   2.749   6.169  0.1270  0.0519 -0.0130
  260POPC   C4A 3609   0.985   2.884   6.539  0.3994  0.4027 -0.1557
  260POPC   C1B 3610   0.350   1.739   5.676  0.0372  0.0134 -0.2015
  260POPC   C2B 3611   0.570   1.543   5.981 -0.2005 -0.1583 -0.1414
  260POPC   C3B 3612   0.604   1.149   6.148  0.0323 -0.2450  0.0343
  260POPC   C4B 3613   0.976   0.778   6.208 -0.1502 -0.1444  0.2715
  261POPC   NC3 3614   7.710   4.449   4.607  0.1291  0.2125  0.1104
  261POPC   PO4 3615   8.069   4.775   4.740  0.2134  0.1909  0.1552
  261POPC   GL1 3616   8.023   4.947   5.158 -0.1433  0.1341  0.2857
  261POPC   GL2 3617   7.924   5.240   5.276 -0.0176  0.1099  0.0048
  261POPC   C1A 3618   7.977   4.812   5.583  0.2602 -0.2972 -0.2562
  261POPC   D2A 3619   7.863   4.956   5.978 -0.0898 -0.2581  0.2807
  261POPC   C3A 3620   8.122   4.870   6.199 -0.3379 -0.1472  0.0391
  261POPC   C4A 3621   8.422   5.073   6.581  0.1228  0.2433 -0.0623
  261POPC   C1B 3622   7.965   5.352   5.610  0.3032  0.1051  0.2449
  261POPC   C2B 3623   8.045   5.407   6.036  0.2361  0.4719 -0.2738
  261POPC   C3B 3624   7.882   5.245   6.441 -0.0927 -0.3911 -0.4066
  261POPC   C4B 3625   7.964   5.407   6.774 -0.1446 -0.2046 -0.2993
  262POPC   NC3 3626   3.484   0.286   4.508  0.0871 -0.1148  0.2306
  262POPC   PO4 3627   3.334  -0.049   4.676 -0.1707 -0.0770 -0.2836
  262POPC   GL1 3628   3.167  -0.353   5.067  0.0138 -0.0442  0.0691
  262POPC   GL2 3629   3.358  -0.077   5.221 -0.0820  0.1023  0.1124
  262POPC   C1A 3630   2.954  -0.722   5.074 -0.1128 -0.1991  0.0239
  262POPC   D2A 3631   2.902  -1.034   5.345 -0.2391 -0.1319  0.0475
  262POPC   C3A 3632   2.951  -1.024   5.762 -0.0211 -0.3666  0.1341
  262POPC   C4A 3633   2.666  -1.252   5.998 -0.1117  0.1555 -0.2771
  262POPC   C1B 3634   3.230  -0.022   5.634  0.0079 -0.1290  0.0831
  262POPC   C2B 3635   2.907  -0.060   5.931  0.1411  0.0519 -0.0270
  262POPC   C3B 3636   2.580   0.072   5.671  0.1185  0.0411 -0.2129
  262POPC   C4B 3637   2.187  -0.149   5.575  0.0427 -0.1258  0.2409
  263POPC   NC3 3638   2.787   5.239   4.375  0.0334 -0.1319  0.3266
  263POPC   PO4 3639   2.842   5.001   4.770  0.1418  0.2686  0.2718
  263POPC   GL1 3640   2.658   5.188   5.151 -0.2202  0.1231  0.0397
  263POPC   GL2 3641   2.813   5.236   5.485 -0.3897 -0.0623 -0.0375
  263POPC   C1A 3642   2.388   5.429   5.284 -0.2041 -0.0722  0.1666
  263POPC   D2A 3643   2.209   5.561   5.729  0.1348  0.1287  0.0287
  263POPC   C3A 3644   1.753   5.753   5.645  0.3513 -0.0884 -0.1720
  263POPC   C4A 3645   1.429   5.826   5.901  0.0053 -0.2835  0.0442
  263POPC   C1B 3646   3.034   4.980   5.763  0.1374 -0.3533 -0.3220
  263POPC   C2B 3647   3.225   5.016   6.203 -0.0752  0.0005 -0.1555
  263POPC   C3B 3648   3.457   5.247   6.520 -0.1574 -0.2175 -0.1478
  263POPC   C4B 3649   3.454   5.568   6.895 -0.1298  0.1089  0.0336
  264POPC   NC3 3650   4.242   0.349   4.664 -0.0257  0.1660 -0.0827
  264POPC   PO4 3651   4.632   0.475   4.805 -0.2608 -0.0425 -0.1783
  264POPC   GL1 3652   4.409   0.644   5.134 -0.3119 -0.0846 -0.3403
  264POPC   GL2 3653   4.055   0.777   5.172 -0.2497  0.2695  0.2155
  264POPC   C1A 3654   4.472   0.819   5.538  0.0974  0.0130 -0.1339
  264POPC   D2A 3655   4.224   1.035   5.812  0.1063 -0.0474  0.1566
  264POPC   C3A 3656   4.034   0.921   6.207  0.0615  0.1261  0.2804
  264POPC   C4A 3657   4.018   0.559   6.527 -0.1599 -0.2729  0.1853
  264POPC   C1B 3658   3.847   0.667   5.550  0.1519 -0.1053  0.3220
  264POPC   C2B 3659   3.448   0.464   5.777  0.2510  0.0083  0.0687
  264POPC   C3B 3660   3.377   0.194   6.051  0.1093 -0.1033  0.0591
  264POPC   C4B 3661   3.005   0.179   6.361 -0.3178  0.0834  0.1377
  265POPC   NC3 3662   6.140   9.606   4.463  0.1170  0.0510 -0.0368
  265POPC   PO4 3663   6.245   9.371   4.871  0.0873  0.1478 -0.0849
  265POPC   GL1 3664   6.277   9.486   5.323  0.0348 -0.1551 -0.0692
  265POPC   GL2 3665   6.187   9.166   5.413  0.0196 -0.0561  0.0080
  265POPC   C1A 3666   6.125   9.558   5.707  0.3780 -0.0235 -0.1961
  265POPC   D2A 3667   6.024   9.516   6.099 -0.3987  0.0170  0.1167
  265POPC   C3A 3668   5.642   9.489   6.185 -0.0989  0.0520  0.0189
  265POPC   C4A 3669   5.397   9.573   6.635  0.1336  0.2058 -0.0404
  265POPC   C1B 3670   5.937   8.898   5.660 -0.1726 -0.1483 -0.0277
  265POPC   C2B 3671   5.551   8.662   5.837 -0.0034 -0.2093 -0.0360
  265POPC   C3B 3672   5.128   8.697   6.093 -0.0891  0.0792 -0.4482
  265POPC   C4B 3673   4.695   9.048   6.288 -0.2909  0.3842 -0.1341
  266POPC   NC3 3674   7.868   1.562   4.773 -0.1777 -0.0910  0.2018
  266POPC   PO4 3675   7.634   1.164   4.779  0.1168 -0.0057 -0.0672
  266POPC   GL1 3676   7.665   1.276   5.179 -0.2393 -0.0495 -0.2280
  266POPC   GL2 3677   7.985   1.423   5.336 -0.0137  0.0049  0.2950
  266POPC   C1A 3678   7.690   1.103   5.600  0.0267 -0.0243  0.2827
  266POPC   D2A 3679   7.824   1.093   6.021  0.1279 -0.0068 -0.0531
  266POPC   C3A 3680   8.228   1.137   6.304  0.0898 -0.0051  0.0220
  266POPC   C4A 3681   8.645   1.058   6.397  0.3701  0.0103  0.1312
  266POPC   C1B 3682   8.352   1.324   5.546  0.3141  0.0649 -0.1909
  266POPC   C2B 3683   8.644   1.285   5.919 -0.0259 -0.0689  0.2464
  266POPC   C3B 3684   9.061   1.128   6.081 -0.1518  0.4012 -0.0912
  266POPC   C4B 3685   9.418   0.930   6.194  0.1014 -0.1060 -0.0657
  267POPC   NC3 3686   9.646   1.767   4.143  0.3519 -0.2551  0.1743
  267POPC   PO4 3687   9.991   1.586   3.898  0.4146  0.1515  0.2413
  267POPC   GL1 3688  10.119   1.564   4.294  0.3482  0.2796  0.3497
  267POPC   GL2 3689  10.044   1.304   4.356 -0.2134  0.2214 -0.1134
  267POPC   C1A 3690  10.422   1.414   4.647 -0.3612  0.1215  0.2657
  267POPC   D2A 3691  10.597   1.099   4.956 -0.0143 -0.0541  0.0599
  267POPC   C3A 3692  10.929   0.956   5.097 -0.3442  0.0977  0.0270
  267POPC   C4A 3693  11.121   0.519   5.310  0.1060  0.1149  0.5109
  267POPC   C1B 3694  10.286   0.990   4.409 -0.1221  0.2412 -0.2472
  267POPC   C2B 3695  10.280   0.611   4.588 -0.0382 -0.0262  0.1543
  267POPC   C3B 3696  10.177   0.341   4.840  0.0971 -0.0071 -0.5285
  267POPC   C4B 3697  10.281   0.134   5.159 -0.0182  0.2449  0.3942
  268POPC   NC3 3698   2.756   6.051   4.813  0.1235  0.0881  0.0156
  268POPC   PO4 3699   3.119   5.771   5.047  0.1148  0.0881  0.2213
  268POPC   GL1 3700   2.820   5.708   5.258  0.2362  0.1641  0.1409
  268POPC   GL2 3701   2.646   5.976   5.290  0.0528  0.2061  0.2886
  268POPC   C1A 3702   2.686   5.669   5.668  0.2792 -0.1194  0.0142
  268POPC   D2A 3703   2.776   5.388   6.049 -0.2730 -0.2856 -0.3474
  268POPC   C3A 3704   2.722   5.053   6.355  0.0173  0.1814  0.1192
  268POPC   C4A 3705   3.064   4.970   6.667 -0.0698  0.1037 -0.2905
  268POPC   C1B 3706   2.537   6.237   5.656 -0.1707 -0.0005  0.2883
  268POPC   C2B 3707   2.386   6.552   5.963 -0.1209 -0.0065  0.2434
  268POPC   C3B 3708   2.491   6.623   6.418  0.0850 -0.0460 -0.0660
  268POPC   C4B 3709   2.546   7.006   6.552  0.1098 -0.2678  0.3344
  269POPC   NC3 3710   3.741   4.327   4.624 -0.0069  0.1514  0.2212
  269POPC   PO4 3711   3.712   3.889   4.827 -0.2276  0.1224  0.1365
  269POPC   GL1 3712   3.573   3.775   5.149 -0.3531 -0.1515  0.0481
  269POPC   GL2 3713   3.252   3.868   5.124  0.6455  0.0033 -0.1399
  269POPC   C1A 3714   3.516   3.699   5.555 -0.2144 -0.0632  0.3198
  269POPC   D2A 3715   3.669   3.409   5.875 -0.0247  0.0783  0.0452
  269POPC   C3A 3716   3.420   3.242   6.140 -0.4598  0.1128 -0.2771
  269POPC   C4A 3717   3.649   2.844   6.374  0.2284  0.1539 -0.0145
  269POPC   C1B 3718   3.175   4.047   5.590  0.1205 -0.0775  0.1421
  269POPC   C2B 3719   2.949   4.230   5.910  0.0478  0.2003 -0.3703
  269POPC   C3B 3720   2.755   4.672   6.040  0.0743  0.1864 -0.3455
  269POPC   C4B 3721   2.510   4.977   5.894 -0.1920 -0.0101  0.3725
  270POPC   NC3 3722   5.319   3.289   4.759  0.3447  0.4625 -0.2411
  270POPC   PO4 3723   5.499   3.424   5.027 -0.1720 -0.1101 -0.1326
  270POPC   GL1 3724   5.443   3.354   5.435  0.3369 -0.3978  0.2947
  270POPC   GL2 3725   5.266   3.073   5.459  0.1324 -0.0832  0.0541
  270POPC   C1A 3726   5.634   3.578   5.755  0.0687 -0.3501  0.2775
  270POPC   D2A 3727   5.778   3.840   6.052  0.1191 -0.0173 -0.0688
  270POPC   C3A 3728   5.921   3.643   6.547 -0.1377 -0.1802  0.0280
  270POPC   C4A 3729   6.223   3.602   6.912  0.1747 -0.4744  0.1809
  270POPC   C1B 3730   5.400   2.832   5.840  0.0967  0.1697 -0.0974
  270POPC   C2B 3731   5.420   2.923   6.356  0.2132  0.3844  0.1323
  270POPC   C3B 3732   5.481   3.313   6.705 -0.4079 -0.2862  0.2347
  270POPC   C4B 3733   5.641   3.356   7.201 -0.0394  0.1635 -0.1558
  271POPC   NC3 3734   1.248   3.234   4.851 -0.1617  0.3440  0.0469
  271POPC   PO4 3735   1.314   3.726   4.764 -0.1930 -0.0528 -0.1992
  271POPC   GL1 3736   1.331   3.859   5.192  0.1885 -0.1592  0.2929
  271POPC   GL2 3737   1.437   3.485   5.297  0.2418 -0.2190  0.0026
  271POPC   C1A 3738   1.503   3.936   5.589 -0.0735  0.3997  0.2005
  271POPC   D2A 3739   1.815   4.212   5.729  0.0905  0.0911  0.0032
  271POPC   C3A 3740   1.677   4.589   5.552  0.4105 -0.2378 -0.3930
  271POPC   C4A 3741   1.428   4.820   5.439 -0.4032 -0.0977  0.2335
  271POPC   C1B 3742   1.640   3.466   5.665  0.1010 -0.0380  0.1266
  271POPC   C2B 3743   1.870   3.653   5.962  0.4400  0.2216 -0.0701
  271POPC   C3B 3744   2.043   3.519   6.356  0.0858 -0.6037 -0.0137
  271POPC   C4B 3745   2.361   3.556   6.669 -0.4268  0.0003 -0.0462
  272POPC   NC3 3746   7.608   5.033   4.893 -0.1284 -0.1631  0.1663
  272POPC   PO4 3747   7.527   5.407   4.967  0.0608  0.0340 -0.2969
  272POPC   GL1 3748   7.266   5.448   5.325 -0.2562 -0.0058  0.0402
  272POPC   GL2 3749   6.990   5.532   5.459  0.1133  0.0121  0.0379
  272POPC   C1A 3750   7.453   5.291   5.684 -0.1865 -0.0048 -0.1516
  272POPC   D2A 3751   7.534   5.362   6.074 -0.2126 -0.0233 -0.2120
  272POPC   C3A 3752   7.453   4.956   6.333  0.3578  0.1825 -0.0492
  272POPC   C4A 3753   7.706   4.575   6.414 -0.3024 -0.1213 -0.0009
  272POPC   C1B 3754   6.916   5.256   5.820 -0.0749  0.4486  0.2301
  272POPC   C2B 3755   6.734   5.217   6.244  0.1319  0.1038  0.1278
  272POPC   C3B 3756   6.574   5.299   6.615  0.0185  0.0383  0.0113
  272POPC   C4B 3757   6.217   5.483   6.671  0.4906  0.0819  0.0454
  273POPC   NC3 3758   1.846   5.857   4.654  0.0944  0.1820  0.0565
  273POPC   PO4 3759   1.491   6.101   4.697 -0.0636  0.1947  0.1100
  273POPC   GL1 3760   1.438   6.011   5.168 -0.4330 -0.1566  0.1543
  273POPC   GL2 3761   1.782   5.865   5.204  0.0457  0.0461  0.0817
  273POPC   C1A 3762   1.395   6.163   5.552 -0.3618 -0.0315  0.1248
  273POPC   D2A 3763   1.556   6.368   5.944 -0.1921 -0.3470 -0.0818
  273POPC   C3A 3764   1.426   6.575   6.366  0.0078 -0.3061  0.0136
  273POPC   C4A 3765   1.603   6.783   6.765 -0.4261 -0.1820 -0.0563
  273POPC   C1B 3766   2.137   5.985   5.468  0.2284 -0.0542  0.3300
  273POPC   C2B 3767   2.066   6.158   5.791  0.1851 -0.0022  0.1658
  273POPC   C3B 3768   2.031   6.323   6.160 -0.1479  0.1638  0.1220
  273POPC   C4B 3769   2.024   6.626   6.514 -0.1522 -0.0890 -0.0015
  274POPC   NC3 3770   5.575   2.338   5.289 -0.2313  0.4895  0.0838
  274POPC   PO4 3771   5.628   1.903   5.042 -0.1260 -0.1931  0.1680
  274POPC   GL1 3772   5.506   1.834   5.467  0.1084 -0.0495  0.1038
  274POPC   GL2 3773   5.671   2.001   5.613 -0.0545  0.1415 -0.1855
  274POPC   C1A 3774   5.619   1.591   5.902  0.2478  0.0427 -0.1977
  274POPC   D2A 3775   5.520   1.577   6.299  0.1854 -0.0206  0.0789
  274POPC   C3A 3776   5.294   1.428   6.607 -0.3786  0.1247 -0.2610
  274POPC   C4A 3777   4.738   1.404   6.742  0.0069 -0.1265 -0.1319
  274POPC   C1B 3778   5.727   2.027   6.140 -0.2537 -0.2093 -0.0967
  274POPC   C2B 3779   5.833   2.161   6.543  0.1559  0.0477 -0.2242
  274POPC   C3B 3780   5.754   2.457   6.786  0.0591  0.0792 -0.0009
  274POPC   C4B 3781   5.535   2.830   6.832  0.2834 -0.2536  0.1086
  275POPC   NC3 3782   9.623   2.507   4.638  0.2878 -0.0038 -0.1411
  275POPC   PO4 3783   9.402   2.067   4.671  0.0755 -0.0828  0.4492
  275POPC   GL1 3784   9.268   1.792   4.984 -0.1253 -0.3695  0.3659
  275POPC   GL2 3785   9.264   2.013   5.277  0.0649  0.1077  0.0189
  275POPC   C1A 3786   9.299   1.348   5.171  0.3002 -0.2132 -0.3574
  275POPC   D2A 3787   9.520   1.057   5.323 -0.1006  0.0740  0.0372
  275POPC   C3A 3788   9.774   1.040   5.658 -0.1943  0.0648  0.1132
  275POPC   C4A 3789  10.074   0.776   5.962 -0.2806  0.2606 -0.0303
  275POPC   C1B 3790   9.246   1.751   5.506  0.1753  0.0853  0.4399
  275POPC   C2B 3791   9.134   1.601   5.936 -0.1236 -0.3187  0.0595
  275POPC   C3B 3792   8.824   1.639   6.314  0.0378 -0.4139  0.3207
  275POPC   C4B 3793   8.675   1.812   6.644  0.3347  0.0962 -0.2351
  276POPC   NC3 3794   7.314   3.781   4.860  0.4733  0.1480 -0.0210
  276POPC   PO4 3795   7.364   4.130   4.832  0.4093 -0.3512 -0.1729
  276POPC   GL1 3796   7.559   3.909   5.251 -0.3091 -0.1569 -0.0032
  276POPC   GL2 3797   7.619   3.588   5.291  0.0177  0.2429  0.2077
  276POPC   C1A 3798   7.711   3.899   5.780  0.1595 -0.1303  0.3886
  276POPC   D2A 3799   7.668   4.013   6.102 -0.1417  0.0671 -0.3194
  276POPC   C3A 3800   7.854   4.072   6.491  0.4277  0.0566 -0.2814
  276POPC   C4A 3801   8.036   4.273   6.817  0.1439  0.3205 -0.0427
  276POPC   C1B 3802   8.011   3.438   5.530 -0.2138  0.2500  0.3109
  276POPC   C2B 3803   8.095   3.451   5.981 -0.3181 -0.0454 -0.0055
  276POPC   C3B 3804   8.374   3.353   6.374  0.0355  0.1254  0.2786
  276POPC   C4B 3805   8.479   3.368   6.768  0.0514 -0.0275  0.0333
  277POPC   NC3 3806   6.789   4.656   4.448 -0.1027  0.1739 -0.0906
  277POPC   PO4 3807   6.320   4.655   4.740  0.1185  0.1779  0.1747
  277POPC   GL1 3808   6.445   4.662   5.194  0.1247 -0.2227  0.3661
  277POPC   GL2 3809   6.497   4.355   5.435  0.4248  0.2508 -0.0513
  277POPC   C1A 3810   6.502   4.861   5.666 -0.1805  0.1721  0.0104
  277POPC   D2A 3811   6.505   4.787   6.061 -0.1392  0.2335 -0.1107
  277POPC   C3A 3812   6.259   5.053   6.259  0.3790 -0.0574  0.1024
  277POPC   C4A 3813   5.807   5.202   6.334  0.5238  0.1505  0.0729
  277POPC   C1B 3814   6.717   4.012   5.704 -0.2317 -0.1463  0.1573
  277POPC   C2B 3815   6.690   3.797   6.076 -0.1871 -0.2571  0.1467
  277POPC   C3B 3816   6.832   4.060   6.490  0.4485 -0.2074 -0.0175
  277POPC   C4B 3817   6.974   4.318   6.879  0.0190 -0.0245 -0.1158
  278POPC   NC3 3818   5.848   4.772   4.962 -0.0383 -0.2041 -0.1072
  278POPC   PO4 3819   5.407   5.006   4.760  0.1941 -0.0389 -0.2096
  278POPC   GL1 3820   5.422   5.272   5.204 -0.1627  0.0372 -0.2735
  278POPC   GL2 3821   5.221   5.519   5.354 -0.0795 -0.1070  0.0932
  278POPC   C1A 3822   5.545   5.192   5.618 -0.0644  0.0598  0.0968
  278POPC   D2A 3823   5.408   5.135   6.043  0.1375 -0.1155  0.2570
  278POPC   C3A 3824   5.373   4.776   6.354 -0.1141 -0.0537 -0.1087
  278POPC   C4A 3825   5.735   4.709   6.662 -0.0554 -0.3536  0.0406
  278POPC   C1B 3826   5.142   5.558   5.801 -0.4179  0.0399  0.0574
  278POPC   C2B 3827   5.272   5.554   6.326  0.0253  0.0738  0.1897
  278POPC   C3B 3828   5.415   5.883   6.663 -0.0379  0.0943  0.1689
  278POPC   C4B 3829   5.400   6.317   6.750 -0.1951  0.2104  0.1477
  279POPC   NC3 3830   3.623   8.043   4.567  0.1331  0.1324  0.1364
  279POPC   PO4 3831   3.691   8.387   4.730 -0.3995  0.1465  0.3160
  279POPC   GL1 3832   3.762   8.205   5.068  0.2987  0.0742  0.2912
  279POPC   GL2 3833   3.752   8.402   5.259 -0.0753  0.0447 -0.1523
  279POPC   C1A 3834   3.714   7.974   5.499 -0.1068 -0.1441  0.0728
  279POPC   D2A 3835   3.791   7.729   5.834 -0.2363 -0.2192  0.1208
  279POPC   C3A 3836   3.655   7.832   6.240 -0.2107 -0.1848 -0.2427
  279POPC   C4A 3837   3.949   8.011   6.498  0.1949  0.1943  0.0912
  279POPC   C1B 3838   3.383   8.410   5.394 -0.0530  0.1590 -0.0471
  279POPC   C2B 3839   3.265   8.115   5.586 -0.2429 -0.0458  0.0727
  279POPC   C3B 3840   3.313   7.842   5.876  0.2221 -0.2081  0.2870
  279POPC   C4B 3841   3.095   7.781   6.279 -0.0027 -0.0578 -0.0381
  280POPC   NC3 3842   8.105   7.802   4.936  0.2263  0.1237 -0.1473
  280POPC   PO4 3843   7.791   8.043   4.969 -0.0809  0.0755  0.0000
  280POPC   GL1 3844   8.054   8.292   5.257  0.0021  0.1816  0.1799
  280POPC   GL2 3845   8.138   7.986   5.510 -0.0756  0.1460 -0.0849
  280POPC   C1A 3846   8.010   8.427   5.760  0.1009  0.5032 -0.0885
  280POPC   D2A 3847   7.733   8.101   5.998 -0.0526  0.1620  0.1401
  280POPC   C3A 3848   7.320   7.980   5.720  0.1964 -0.1747 -0.0147
  280POPC   C4A 3849   6.764   8.055   5.833 -0.2829 -0.3017 -0.1935
  280POPC   C1B 3850   8.222   8.096   6.036 -0.2350  0.0135 -0.0563
  280POPC   C2B 3851   8.469   8.050   6.399  0.0306 -0.2207  0.0330
  280POPC   C3B 3852   8.606   7.691   6.712  0.1031 -0.0671 -0.2452
  280POPC   C4B 3853   8.615   7.307   6.817 -0.3409 -0.0648  0.1495
  281POPC   NC3 3854   1.001   8.078   3.754  0.0224  0.3578 -0.0321
  281POPC   PO4 3855   1.407   7.920   3.755  0.0171  0.3550  0.0272
  281POPC   GL1 3856   1.323   8.130   4.145  0.1857  0.0998  0.1176
  281POPC   GL2 3857   1.088   8.160   4.410  0.1050  0.1264  0.2535
  281POPC   C1A 3858   1.629   8.227   4.355 -0.1477 -0.2942 -0.1943
  281POPC   D2A 3859   2.056   8.060   4.298 -0.0774  0.1350  0.0418
  281POPC   C3A 3860   2.388   8.183   4.576 -0.0819 -0.2165  0.1123
  281POPC   C4A 3861   2.782   8.077   4.708 -0.1404 -0.1631 -0.6276
  281POPC   C1B 3862   1.037   8.027   4.789  0.2490 -0.0040 -0.0064
  281POPC   C2B 3863   1.323   7.784   4.981  0.0251 -0.0750  0.3965
  281POPC   C3B 3864   1.429   7.721   5.412 -0.0865  0.0990 -0.1770
  281POPC   C4B 3865   1.564   8.116   5.675 -0.0575  0.1765 -0.1602
  282POPC   NC3 3866   3.869   1.849   4.356 -0.1515  0.1340 -0.0026
  282POPC   PO4 3867   4.279   1.822   4.551  0.1553  0.1566 -0.4222
  282POPC   GL1 3868   4.000   2.014   4.832  0.3965 -0.3004 -0.2553
  282POPC   GL2 3869   4.282   2.071   5.087  0.2746 -0.1245 -0.1930
  282POPC   C1A 3870   3.752   2.040   5.258 -0.2454 -0.2619 -0.1644
  282POPC   D2A 3871   3.772   1.982   5.825 -0.1870 -0.0329  0.0378
  282POPC   C3A 3872   3.622   1.668   6.149  0.1942 -0.0599  0.1688
  282POPC   C4A 3873   3.497   1.753   6.635 -0.1505 -0.0140  0.0806
  282POPC   C1B 3874   4.296   2.074   5.543 -0.0388  0.2890 -0.4716
  282POPC   C2B 3875   4.257   2.004   5.957 -0.0499 -0.1937 -0.2035
  282POPC   C3B 3876   4.383   1.788   6.371  0.2662  0.0550 -0.1197
  282POPC   C4B 3877   4.373   1.874   6.890 -0.0119  0.1401 -0.0436
  283POPC   NC3 3878   7.994   2.668   5.146 -0.2089  0.0792 -0.1770
  283POPC   PO4 3879   8.174   2.428   5.193 -0.0932 -0.0267 -0.1529
  283POPC   GL1 3880   8.184   2.441   5.677 -0.1980 -0.1132  0.1272
  283POPC   GL2 3881   8.184   2.087   5.688  0.0515  0.5961  0.2562
  283POPC   C1A 3882   8.288   2.536   6.170  0.2240 -0.0472  0.0171
  283POPC   D2A 3883   8.155   2.597   6.558  0.0382  0.3116 -0.1093
  283POPC   C3A 3884   8.534   2.790   6.807  0.3974  0.0722  0.1750
  283POPC   C4A 3885   8.811   3.061   7.069  0.0185  0.1441 -0.2382
  283POPC   C1B 3886   7.963   2.118   6.029 -0.1210  0.0457 -0.1741
  283POPC   C2B 3887   7.801   2.467   6.198  0.2921  0.0302 -0.0618
  283POPC   C3B 3888   7.593   2.608   6.522  0.3232 -0.0951 -0.1702
  283POPC   C4B 3889   7.682   2.866   7.014  0.2993 -0.0133  0.2360
  284POPC   NC3 3890   0.146   3.212   5.191  0.0517  0.3530  0.5135
  284POPC   PO4 3891  -0.305   3.136   5.000  0.0224 -0.0741 -0.0451
  284POPC   GL1 3892  -0.467   2.944   5.353  0.0313  0.0700  0.0508
  284POPC   GL2 3893  -0.766   2.742   5.465 -0.0866  0.0783  0.0420
  284POPC   C1A 3894  -0.372   2.774   5.797 -0.1848  0.0299  0.0817
  284POPC   D2A 3895  -0.250   2.582   6.219 -0.1277 -0.0821  0.2249
  284POPC   C3A 3896  -0.022   2.205   6.195  0.0927  0.1084 -0.0343
  284POPC   C4A 3897   0.246   1.849   6.222 -0.0959  0.2467 -0.0659
  284POPC   C1B 3898  -0.732   2.472   5.801 -0.0090  0.2942  0.1212
  284POPC   C2B 3899  -0.667   2.294   6.195  0.1500  0.1030 -0.2388
  284POPC   C3B 3900  -0.951   2.134   6.583 -0.0349 -0.2970  0.1234
  284POPC   C4B 3901  -0.913   1.692   6.866 -0.2907  0.0707  0.5147
  285POPC   NC3 3902   1.601   3.304   4.530  0.0580 -0.0897 -0.3397
  285POPC   PO4 3903   1.729   3.200   4.960  0.3770 -0.3186 -0.0422
  285POPC   GL1 3904   1.947   3.180   5.365  0.3418 -0.0860 -0.2674
  285POPC   GL2 3905   2.193   2.893   5.371 -0.0397  0.0331  0.0040
  285POPC   C1A 3906   2.380   3.323   5.513  0.0348  0.2904 -0.0169
  285POPC   D2A 3907   2.341   3.567   5.824 -0.2501 -0.1166  0.0406
  285POPC   C3A 3908   2.662   3.677   6.181 -0.1396  0.0748  0.2758
  285POPC   C4A 3909   2.903   4.036   6.410  0.2620 -0.0268  0.0812
  285POPC   C1B 3910   2.442   2.851   5.630  0.1758  0.1223 -0.1676
  285POPC   C2B 3911   2.547   2.675   6.028 -0.0334  0.1697 -0.2456
  285POPC   C3B 3912   2.639   2.731   6.456  0.2002  0.1119  0.2050
  285POPC   C4B 3913   2.804   2.457   6.643  0.2178  0.2564  0.3757
  286POPC   NC3 3914   1.208   2.449   4.801 -0.0218  0.1061  0.1693
  286POPC   PO4 3915   1.432   2.787   4.674 -0.0476  0.0626  0.0369
  286POPC   GL1 3916   1.405   2.828   5.106  0.1266  0.0464  0.0293
  286POPC   GL2 3917   1.045   2.924   5.149  0.1885  0.1686 -0.1315
  286POPC   C1A 3918   1.574   2.953   5.553  0.0073 -0.2013 -0.2208
  286POPC   D2A 3919   1.648   3.060   6.037 -0.0396 -0.1663  0.0799
  286POPC   C3A 3920   2.030   3.184   6.013 -0.1948 -0.1080  0.0273
  286POPC   C4A 3921   2.337   3.121   6.272 -0.0835 -0.0194 -0.0262
  286POPC   C1B 3922   1.143   2.761   5.526  0.0882  0.1442 -0.0323
  286POPC   C2B 3923   1.413   2.659   5.961 -0.2197 -0.1318  0.7431
  286POPC   C3B 3924   1.608   2.659   6.366 -0.2613  0.2089 -0.2514
  286POPC   C4B 3925   1.890   3.039   6.482  0.2162 -0.1739  0.0426
  287POPC   NC3 3926   7.202   9.189   4.972 -0.0645 -0.0305 -0.1589
  287POPC   PO4 3927   6.993   8.830   5.012  0.1843  0.2007 -0.0014
  287POPC   GL1 3928   6.869   8.699   5.465 -0.1928 -0.3082  0.1726
  287POPC   GL2 3929   7.052   8.379   5.528 -0.2694 -0.2148  0.1179
  287POPC   C1A 3930   6.759   8.770   5.889  0.2001 -0.0276 -0.0784
  287POPC   D2A 3931   6.832   8.897   6.294  0.1394  0.0556 -0.0815
  287POPC   C3A 3932   6.708   8.769   6.755 -0.0713  0.1140 -0.1360
  287POPC   C4A 3933   6.500   8.872   7.019  0.2390 -0.0224 -0.1341
  287POPC   C1B 3934   7.118   8.344   6.015  0.1900  0.2727  0.3462
  287POPC   C2B 3935   6.741   8.405   6.263 -0.2563 -0.2105  0.2257
  287POPC   C3B 3936   6.320   8.653   6.294  0.3648 -0.1481 -0.2976
  287POPC   C4B 3937   5.855   8.429   6.190  0.0953  0.4024 -0.2932
  288POPC   NC3 3938   5.617   8.581   5.080 -0.0095  0.1269  0.0200
  288POPC   PO4 3939   5.325   8.266   5.064  0.0835  0.1270 -0.2671
  288POPC   GL1 3940   5.288   8.252   5.490  0.0963 -0.0999 -0.0836
  288POPC   GL2 3941   5.081   8.519   5.605 -0.1216 -0.1898 -0.0076
  288POPC   C1A 3942   5.455   8.117   5.714 -0.1764  0.1461 -0.0152
  288POPC   D2A 3943   5.418   7.999   6.134 -0.3323 -0.2698  0.1678
  288POPC   C3A 3944   5.309   8.346   6.428  0.0702 -0.0583 -0.2315
  288POPC   C4A 3945   5.109   8.238   6.834 -0.0591 -0.3534 -0.3065
  288POPC   C1B 3946   5.041   8.230   5.980  0.2214 -0.1606 -0.0303
  288POPC   C2B 3947   4.972   7.971   6.371  0.2076 -0.1146  0.4023
  288POPC   C3B 3948   4.874   7.784   6.768 -0.2706  0.0761  0.0284
  288POPC   C4B 3949   4.814   7.806   7.276 -0.1175  0.4023 -0.3674
  289POPC   NC3 3950   1.075   5.999   4.464 -0.1089  0.1819 -0.1806
  289POPC   PO4 3951   1.001   5.626   4.793  0.1362  0.3199 -0.1842
  289POPC   GL1 3952   1.005   6.019   4.987  0.1166  0.2207 -0.0204
  289POPC   GL2 3953   0.881   5.820   5.255  0.0251  0.0748  0.0016
  289POPC   C1A 3954   0.939   6.348   5.296 -0.2253  0.1121  0.0525
  289POPC   D2A 3955   0.583   6.304   5.709 -0.0268 -0.0695  0.1969
  289POPC   C3A 3956   0.662   6.494   6.028  0.1163  0.2493 -0.0561
  289POPC   C4A 3957   0.870   6.603   6.355  0.0728  0.2220 -0.1495
  289POPC   C1B 3958   0.914   5.987   5.575  0.1385  0.0406 -0.0833
  289POPC   C2B 3959   1.064   6.162   5.959 -0.2526 -0.1141  0.2384
  289POPC   C3B 3960   1.131   6.096   6.387  0.0121 -0.0974 -0.0116
  289POPC   C4B 3961   1.322   5.824   6.685 -0.3868 -0.0724  0.0502
  290POPC   NC3 3962   0.054   5.815   4.468  0.1232 -0.0991  0.0487
  290POPC   PO4 3963   0.090   6.195   4.304  0.1396 -0.0199  0.0325
  290POPC   GL1 3964   0.026   6.304   4.734  0.2343 -0.2196 -0.0293
  290POPC   GL2 3965  -0.027   5.950   4.953  0.0471 -0.1917  0.1952
  290POPC   C1A 3966  -0.243   6.375   5.047  0.1460 -0.2023 -0.0273
  290POPC   D2A 3967  -0.635   6.408   5.193 -0.0725  0.2241 -0.1757
  290POPC   C3A 3968  -0.658   6.382   5.669  0.2590 -0.4106  0.1509
  290POPC   C4A 3969  -0.569   6.132   6.062  0.1698  0.1239 -0.0489
  290POPC   C1B 3970   0.304   6.050   5.276 -0.1832  0.1539  0.2774
  290POPC   C2B 3971   0.463   5.797   5.644 -0.2737  0.0729 -0.2819
  290POPC   C3B 3972   0.595   5.807   5.985  0.1937 -0.3738 -0.0711
  290POPC   C4B 3973   0.627   6.098   6.302  0.0953  0.0259  0.0612
  291POPC   NC3 3974   8.281   5.849   4.773 -0.2812  0.1742 -0.1156
  291POPC   PO4 3975   8.652   5.853   4.774  0.0211 -0.0115 -0.1154
  291POPC   GL1 3976   8.827   5.654   5.078  0.0394  0.0990 -0.0768
  291POPC   GL2 3977   9.106   5.880   5.253  0.0010  0.2141 -0.2172
  291POPC   C1A 3978   8.658   5.544   5.498  0.2863  0.0453 -0.0936
  291POPC   D2A 3979   8.427   5.221   5.712  0.2600 -0.0905 -0.0735
  291POPC   C3A 3980   8.496   5.255   6.097  0.0232  0.0572 -0.1167
  291POPC   C4A 3981   8.378   5.545   6.357 -0.0092  0.5427  0.2760
  291POPC   C1B 3982   9.088   5.701   5.613 -0.1540 -0.0395  0.0753
  291POPC   C2B 3983   9.311   5.539   5.971  0.1032 -0.2081  0.0863
  291POPC   C3B 3984   9.277   5.558   6.317 -0.1380  0.0846 -0.4487
  291POPC   C4B 3985   8.811   5.374   6.490 -0.2384 -0.1628 -0.1141
  292POPC   NC3 3986   0.827  10.363   2.985  0.0198  0.0797  0.0603
  292POPC   PO4 3987   0.408  10.237   3.111 -0.2407  0.1553 -0.0410
  292POPC   GL1 3988   0.668  10.344   3.512  0.0521 -0.1562  0.1336
  292POPC   GL2 3989   0.432  10.340   3.719  0.1545  0.1981 -0.0480
  292POPC   C1A 3990   0.916  10.626   3.816  0.4893 -0.0354  0.2166
  292POPC   D2A 3991   1.291  10.876   4.052 -0.0322 -0.1286  0.4612
  292POPC   C3A 3992   1.353  11.140   4.356  0.1117  0.2241 -0.1920
  292POPC   C4A 3993   1.470  11.318   4.749  0.2891  0.1110 -0.4368
  292POPC   C1B 3994   0.480  10.425   4.145 -0.0365 -0.1230  0.1535
  292POPC   C2B 3995   0.650  10.216   4.435 -0.2241 -0.2560 -0.0980
  292POPC   C3B 3996   0.581  10.313   4.816 -0.0032  0.0192 -0.2111
  292POPC   C4B 3997   0.350  10.620   5.081  0.0673 -0.2948  0.0345
  293POPC   NC3 3998   3.817   6.263   5.233 -0.3456 -0.0552 -0.0856
  293POPC   PO4 3999   3.612   6.676   4.996 -0.0527  0.1494 -0.1556
  293POPC   GL1 4000   3.400   6.642   5.288 -0.0774 -0.1182 -0.1053
  293POPC   GL2 4001   3.139   6.886   5.243 -0.2356 -0.0375  0.0629
  293POPC   C1A 4002   3.343   6.854   5.660 -0.0022 -0.1058  0.3817
  293POPC   D2A 4003   3.249   6.928   6.111 -0.1151 -0.0622  0.2233
  293POPC   C3A 4004   2.971   6.574   6.296  0.0942 -0.0465 -0.1494
  293POPC   C4A 4005   2.818   6.335   6.702  0.1523 -0.1682  0.0801
  293POPC   C1B 4006   2.997   7.191   5.640 -0.1278 -0.0089  0.1904
  293POPC   C2B 4007   3.002   7.365   5.968 -0.2707  0.1624  0.0781
  293POPC   C3B 4008   2.782   7.408   6.390  0.0053 -0.0105  0.3285
  293POPC   C4B 4009   2.576   7.613   6.731  0.2575  0.0939  0.1027
  294POPC   NC3 4010   7.685   7.087   4.711  0.0803 -0.2050  0.2429
  294POPC   PO4 4011   7.711   7.457   4.827 -0.0208 -0.0648  0.3196
  294POPC   GL1 4012   7.698   7.240   5.248 -0.0613 -0.3217 -0.2303
  294POPC   GL2 4013   7.686   7.636   5.319  0.1391 -0.2148 -0.0025
  294POPC   C1A 4014   7.385   6.970   5.519  0.0575 -0.3420 -0.0413
  294POPC   D2A 4015   7.538   6.616   5.781  0.0390  0.0538 -0.1471
  294POPC   C3A 4016   7.667   6.704   6.165  0.1555  0.0707  0.1729
  294POPC   C4A 4017   7.898   7.019   6.487  0.0440 -0.0321 -0.0933
  294POPC   C1B 4018   7.820   7.592   5.667 -0.2181 -0.2571 -0.0800
  294POPC   C2B 4019   8.100   7.533   5.863 -0.1337 -0.2122  0.0991
  294POPC   C3B 4020   8.442   7.209   5.893 -0.0627 -0.0819 -0.0706
  294POPC   C4B 4021   8.797   7.213   6.297 -0.3354 -0.1087  0.2159
  295POPC   NC3 4022   2.899   7.492   4.404  0.2150  0.0640 -0.1817
  295POPC   PO4 4023   3.246   7.151   4.518  0.1084  0.2907  0.1990
  295POPC   GL1 4024   2.971   7.204   4.908  0.1009 -0.0735 -0.0448
  295POPC   GL2 4025   2.816   7.397   4.902  0.0363 -0.3026 -0.1571
  295POPC   C1A 4026   2.593   7.198   5.306  0.1357 -0.1625 -0.1142
  295POPC   D2A 4027   2.193   7.125   5.585 -0.2740 -0.0063  0.0402
  295POPC   C3A 4028   2.300   7.114   5.994 -0.0471 -0.0941 -0.0781
  295POPC   C4A 4029   2.728   6.937   6.064 -0.1760 -0.1453 -0.0651
  295POPC   C1B 4030   2.671   7.746   5.085 -0.1337 -0.2005  0.0299
  295POPC   C2B 4031   2.353   8.080   5.153  0.0913  0.2120 -0.2379
  295POPC   C3B 4032   2.013   8.414   5.002  0.1132  0.2578 -0.3137
  295POPC   C4B 4033   1.700   8.540   5.291  0.0540 -0.0559  0.1273
  296POPC   NC3 4034   1.872   7.823   3.950  0.3125  0.0395 -0.0833
  296POPC   PO4 4035   2.104   7.574   4.162  0.0390 -0.1504 -0.0207
  296POPC   GL1 4036   2.081   7.317   4.492 -0.0864  0.1102 -0.0036
  296POPC   GL2 4037   1.878   7.358   4.699  0.3632 -0.2394  0.1330
  296POPC   C1A 4038   2.285   7.360   4.933 -0.1838 -0.0522  0.2164
  296POPC   D2A 4039   2.240   7.578   5.235  0.1201  0.0499 -0.0800
  296POPC   C3A 4040   1.876   7.483   5.364 -0.1204 -0.0230  0.0768
  296POPC   C4A 4041   1.867   7.497   5.762 -0.1681  0.1537 -0.2193
  296POPC   C1B 4042   1.510   7.373   5.047 -0.0986 -0.1642 -0.1263
  296POPC   C2B 4043   1.183   7.270   5.314  0.2782  0.0009  0.1708
  296POPC   C3B 4044   1.060   7.088   5.667  0.0423  0.0174  0.0211
  296POPC   C4B 4045   0.664   6.975   5.993 -0.0573  0.1648 -0.0166
  297POPC   NC3 4046   8.269   6.659   4.768 -0.0587 -0.0674  0.1486
  297POPC   PO4 4047   7.758   6.590   4.873 -0.1750 -0.0442  0.0825
  297POPC   GL1 4048   7.960   6.835   5.111 -0.1467  0.0192 -0.1180
  297POPC   GL2 4049   7.904   6.701   5.387 -0.0944  0.0349  0.0549
  297POPC   C1A 4050   8.079   7.138   5.559  0.0779  0.0851  0.0587
  297POPC   D2A 4051   7.715   7.118   5.883  0.0562 -0.0180  0.1861
  297POPC   C3A 4052   7.771   7.465   6.249  0.0595 -0.4563 -0.3233
  297POPC   C4A 4053   7.999   7.757   6.543 -0.0270 -0.1100 -0.2614
  297POPC   C1B 4054   8.100   6.678   5.822  0.2082  0.0826 -0.0736
  297POPC   C2B 4055   8.175   6.559   6.327  0.1385 -0.1855  0.0148
  297POPC   C3B 4056   7.729   6.283   6.425  0.1623 -0.0349 -0.0761
  297POPC   C4B 4057   7.279   6.415   6.406 -0.2723 -0.1643  0.1319
  298POPC   NC3 4058   0.738   6.835   4.299 -0.4427 -0.1024 -0.1527
  298POPC   PO4 4059   0.847   6.423   4.441  0.1598 -0.1181  0.3758
  298POPC   GL1 4060   0.920   6.533   4.806  0.1785 -0.0470 -0.2192
  298POPC   GL2 4061   1.246   6.512   4.831  0.1043  0.0011 -0.4971
  298POPC   C1A 4062   0.531   6.523   5.061 -0.2230 -0.3116  0.0066
  298POPC   D2A 4063   0.207   6.512   5.321 -0.1963  0.1370  0.0588
  298POPC   C3A 4064   0.219   6.648   5.792  0.0533  0.1148 -0.1670
  298POPC   C4A 4065  -0.161   6.441   5.922  0.2392  0.0714 -0.1467
  298POPC   C1B 4066   1.343   6.621   5.220  0.1443 -0.0347 -0.1354
  298POPC   C2B 4067   1.294   6.655   5.585  0.2727  0.3585  0.1927
  298POPC   C3B 4068   1.179   6.723   5.989  0.2032  0.1296 -0.1642
  298POPC   C4B 4069   1.233   7.032   6.369 -0.1363 -0.1408  0.1008
  299POPC   NC3 4070   0.785   3.597   3.934 -0.0792 -0.1257 -0.2082
  299POPC   PO4 4071   0.909   3.535   4.500  0.0629  0.2247 -0.0666
  299POPC   GL1 4072   0.892   3.683   4.967 -0.3376 -0.0718 -0.2631
  299POPC   GL2 4073   0.929   3.415   5.207 -0.2758 -0.2180  0.2562
  299POPC   C1A 4074   0.940   3.755   5.497 -0.2332 -0.2222 -0.1101
  299POPC   D2A 4075   1.094   3.758   5.843 -0.0719  0.1041 -0.1773
  299POPC   C3A 4076   1.328   4.052   6.141  0.0383  0.0891  0.1946
  299POPC   C4A 4077   1.817   4.026   6.305  0.0002 -0.1204 -0.0219
  299POPC   C1B 4078   1.085   3.256   5.557  0.5549  0.1260  0.4521
  299POPC   C2B 4079   1.155   3.251   5.941 -0.0829  0.4280  0.1535
  299POPC   C3B 4080   1.016   3.347   6.312  0.3531  0.0053 -0.2792
  299POPC   C4B 4081   0.593   3.413   6.566  0.0930  0.0913 -0.1590
  300POPC   NC3 4082   2.058   9.976   3.847  0.2948 -0.2874 -0.1800
  300POPC   PO4 4083   2.397   9.812   4.001  0.1244  0.0102 -0.1605
  300POPC   GL1 4084   2.613  10.076   4.417  0.2164  0.5785  0.1505
  300POPC   GL2 4085   2.670  10.447   4.385  0.0930  0.1450 -0.0715
  300POPC   C1A 4086   2.613  10.147   4.824 -0.1255  0.1879 -0.2711
  300POPC   D2A 4087   2.664  10.305   5.227  0.1080 -0.0993  0.0450
  300POPC   C3A 4088   2.630  10.084   5.699 -0.3846 -0.3705 -0.1895
  300POPC   C4A 4089   2.326  10.102   6.062  0.2269 -0.1533  0.2109
  300POPC   C1B 4090   2.186  10.362   4.541 -0.0681 -0.1554 -0.1792
  300POPC   C2B 4091   2.121   9.939   4.602 -0.0086  0.1958 -0.0670
  300POPC   C3B 4092   1.918   9.534   4.771 -0.6157 -0.1580  0.2711
  300POPC   C4B 4093   1.629   9.166   4.664  0.1221 -0.0963  0.0504
  301POPC   NC3 4094   5.674   1.209   4.956  0.2160 -0.2839 -0.1407
  301POPC   PO4 4095   5.335   1.431   5.125  0.0787  0.0340  0.2080
  301POPC   GL1 4096   5.748   1.383   5.386 -0.1267  0.2069 -0.5047
  301POPC   GL2 4097   5.989   1.671   5.319  0.2565 -0.1331 -0.1945
  301POPC   C1A 4098   5.950   1.232   5.804 -0.1343  0.1353  0.2550
  301POPC   D2A 4099   5.956   1.144   6.083  0.0731  0.0513 -0.0881
  301POPC   C3A 4100   5.700   0.813   6.320 -0.0436 -0.0735 -0.3434
  301POPC   C4A 4101   5.429   0.766   6.594 -0.0764 -0.1537 -0.2511
  301POPC   C1B 4102   6.081   1.748   5.752  0.1291  0.1227 -0.0411
  301POPC   C2B 4103   6.009   1.599   6.199 -0.0280 -0.1408 -0.1347
  301POPC   C3B 4104   6.381   1.481   6.412  0.0464  0.2965 -0.1859
  301POPC   C4B 4105   6.625   1.594   6.703 -0.0066 -0.1216 -0.2370
  302POPC   NC3 4106   6.692  10.197   4.604 -0.0274 -0.0847  0.0433
  302POPC   PO4 4107   6.370   9.968   4.801  0.0051  0.1064  0.1836
  302POPC   GL1 4108   6.286  10.081   5.270  0.1870 -0.0297  0.1505
  302POPC   GL2 4109   6.445   9.919   5.578 -0.3619  0.0819 -0.0965
  302POPC   C1A 4110   6.094  10.228   5.773 -0.0631 -0.1492  0.1795
  302POPC   D2A 4111   5.867   9.953   6.040 -0.1064  0.1818 -0.0343
  302POPC   C3A 4112   5.826   9.886   6.532 -0.0313  0.0601 -0.1924
  302POPC   C4A 4113   5.936   9.502   6.640 -0.0887  0.2640 -0.2354
  302POPC   C1B 4114   6.530   9.956   6.044  0.0257 -0.1179  0.1325
  302POPC   C2B 4115   6.373   9.796   6.460  0.0179  0.0956 -0.0394
  302POPC   C3B 4116   6.450   9.534   6.870 -0.0885  0.0454  0.0544
  302POPC   C4B 4117   6.739   9.344   7.167  0.2513 -0.1070 -0.0877
  303POPC   NC3 4118   9.353  10.289   3.570  0.0070  0.0142  0.1407
  303POPC   PO4 4119   9.840  10.200   3.343 -0.1340  0.0856  0.2373
  303POPC   GL1 4120  10.063  10.476   3.667  0.1743  0.0229  0.0587
  303POPC   GL2 4121   9.836  10.596   3.748  0.0173 -0.1960  0.1578
  303POPC   C1A 4122  10.477  10.661   3.822  0.1095 -0.0858 -0.1506
  303POPC   D2A 4123  10.582  10.929   4.078 -0.1461  0.1683 -0.1564
  303POPC   C3A 4124  11.063  10.998   4.133  0.0019 -0.0364 -0.2049
  303POPC   C4A 4125  11.393  10.779   4.367  0.1628  0.0430  0.0713
  303POPC   C1B 4126  10.077  10.665   4.120  0.0520  0.1299 -0.1060
  303POPC   C2B 4127  10.375  10.616   4.375  0.0280 -0.0073 -0.1709
  303POPC   C3B 4128  10.767  10.641   4.596  0.1887 -0.3544 -0.0998
  303POPC   C4B 4129  11.030  10.889   4.640  0.1144 -0.0710  0.2132
  304POPC   NC3 4130   6.207   0.062   4.271  0.1990  0.0414 -0.1868
  304POPC   PO4 4131   6.091  -0.101   4.780  0.0721 -0.2385  0.1798
  304POPC   GL1 4132   6.271   0.096   5.155 -0.0490  0.0817 -0.1286
  304POPC   GL2 4133   6.176   0.328   5.430  0.0442 -0.2173  0.2948
  304POPC   C1A 4134   6.534  -0.065   5.585  0.0770  0.1296  0.1506
  304POPC   D2A 4135   6.524  -0.049   5.962  0.0640 -0.0957  0.1523
  304POPC   C3A 4136   6.460   0.303   6.225  0.1515 -0.1183  0.0333
  304POPC   C4A 4137   6.100   0.480   6.455 -0.3568 -0.0455  0.0123
  304POPC   C1B 4138   6.110   0.215   5.861  0.0905  0.1090 -0.1621
  304POPC   C2B 4139   5.884  -0.068   6.219  0.0468 -0.0434 -0.0120
  304POPC   C3B 4140   5.550  -0.165   6.464  0.2252  0.0176 -0.1366
  304POPC   C4B 4141   5.409  -0.470   6.806 -0.0902 -0.1232 -0.3496
  305POPC   NC3 4142   3.783   1.022   4.561 -0.2888 -0.3444 -0.1761
  305POPC   PO4 4143   3.795   0.714   4.751 -0.0288  0.1529  0.1637
  305POPC   GL1 4144   3.435   0.591   4.991 -0.2268  0.3089 -0.0881
  305POPC   GL2 4145   3.445   0.379   5.050 -0.1229 -0.0704  0.0655
  305POPC   C1A 4146   3.361   0.799   5.402 -0.0841  0.2485 -0.2510
  305POPC   D2A 4147   3.115   0.920   5.881 -0.0360 -0.0378  0.0457
  305POPC   C3A 4148   3.348   0.751   6.150 -0.0223 -0.3133  0.2854
  305POPC   C4A 4149   3.668   0.614   6.154 -0.2106 -0.0112  0.2292
  305POPC   C1B 4150   3.028   0.282   5.200  0.1103 -0.2819  0.2767
  305POPC   C2B 4151   2.528   0.293   5.163 -0.0841 -0.2200  0.1004
  305POPC   C3B 4152   2.187   0.391   5.386  0.0507 -0.1064  0.1636
  305POPC   C4B 4153   1.735   0.411   5.567 -0.1607  0.2097  0.3382
  306POPC   NC3 4154   9.018   8.890   3.758  0.5186  0.1083 -0.1139
  306POPC   PO4 4155   9.102   8.603   4.164  0.1485 -0.0962 -0.1517
  306POPC   GL1 4156   9.463   8.745   4.284  0.1833  0.1028 -0.2141
  306POPC   GL2 4157   9.473   8.884   4.618 -0.0792 -0.0538 -0.0451
  306POPC   C1A 4158   9.804   9.089   4.101  0.3899 -0.0667  0.1115
  306POPC   D2A 4159   9.891   9.507   4.054  0.0692  0.1628  0.1588
  306POPC   C3A 4160  10.010   9.764   4.360 -0.3709 -0.1943  0.2374
  306POPC   C4A 4161  10.268   9.823   4.695  0.1240 -0.1519  0.0615
  306POPC   C1B 4162   9.634   8.756   5.044 -0.3278  0.2317 -0.3942
  306POPC   C2B 4163   9.749   8.730   5.491  0.3802 -0.0121  0.1581
  306POPC   C3B 4164   9.767   8.950   5.843  0.1097 -0.0144  0.0103
  306POPC   C4B 4165   9.998   9.080   6.186 -0.0251 -0.0145 -0.0033
  307POPC   NC3 4166   4.702   4.028   4.871 -0.0294 -0.0206  0.0178
  307POPC   PO4 4167   4.457   4.441   4.976  0.0499 -0.0567  0.0423
  307POPC   GL1 4168   4.719   4.447   5.327 -0.0040  0.1214 -0.1355
  307POPC   GL2 4169   4.953   4.217   5.285 -0.0042 -0.0777 -0.2395
  307POPC   C1A 4170   5.083   4.466   5.652 -0.0124 -0.1290 -0.0126
  307POPC   D2A 4171   5.339   4.503   5.919  0.0263 -0.0734 -0.3168
  307POPC   C3A 4172   5.389   4.282   6.331 -0.0213  0.0937 -0.0047
  307POPC   C4A 4173   5.242   3.869   6.439  0.0003  0.1058 -0.4072
  307POPC   C1B 4174   4.842   3.880   5.664 -0.1076 -0.2656  0.2806
  307POPC   C2B 4175   5.110   3.561   5.705  0.0998 -0.1573 -0.1603
  307POPC   C3B 4176   5.175   3.204   5.981 -0.0737 -0.0808 -0.1342
  307POPC   C4B 4177   5.489   3.503   6.209 -0.0662 -0.2350 -0.1826
  308POPC   NC3 4178   3.234   8.699   4.050 -0.0595 -0.0679  0.1081
  308POPC   PO4 4179   3.517   8.871   4.081  0.3025  0.0342 -0.1661
  308POPC   GL1 4180   3.122   9.037   4.356  0.1599 -0.0937 -0.1926
  308POPC   GL2 4181   3.056   8.980   4.774  0.1818  0.2547 -0.1276
  308POPC   C1A 4182   2.721   9.135   4.481 -0.0604  0.4699  0.1768
  308POPC   D2A 4183   2.390   9.136   4.827 -0.0023 -0.1928 -0.0240
  308POPC   C3A 4184   2.378   9.456   5.143 -0.0592 -0.1522 -0.2052
  308POPC   C4A 4185   2.456   9.863   5.207 -0.0551  0.0302 -0.1183
  308POPC   C1B 4186   2.738   9.012   5.174 -0.0799  0.0863 -0.2727
  308POPC   C2B 4187   2.494   9.178   5.515  0.2310 -0.0096  0.1707
  308POPC   C3B 4188   2.475   9.632   5.621  0.0998 -0.2127 -0.0463
  308POPC   C4B 4189   2.079   9.918   5.574 -0.1095 -0.0496  0.0624
  309POPC   NC3 4190   4.614   1.338   4.138 -0.0161  0.2887 -0.1564
  309POPC   PO4 4191   4.684   1.355   4.588 -0.1127  0.1282 -0.2639
  309POPC   GL1 4192   4.355   1.463   4.877 -0.3571  0.3302  0.3017
  309POPC   GL2 4193   4.328   1.181   5.193 -0.1118  0.0830  0.1712
  309POPC   C1A 4194   4.027   1.578   5.146 -0.2276 -0.1453  0.0673
  309POPC   D2A 4195   4.030   1.615   5.568  0.0295  0.2506  0.1135
  309POPC   C3A 4196   3.985   1.420   5.965 -0.0167  0.3632 -0.1919
  309POPC   C4A 4197   4.388   1.413   6.059  0.1595  0.0928  0.0508
  309POPC   C1B 4198   4.582   1.351   5.590  0.2089 -0.1982  0.0005
  309POPC   C2B 4199   4.890   1.365   5.954  0.1087  0.3621 -0.2233
  309POPC   C3B 4200   4.961   1.622   6.332  0.0506  0.2953 -0.3835
  309POPC   C4B 4201   4.795   1.923   6.616 -0.0580  0.1974 -0.0521
  310POPC   NC3 4202   6.421   2.596   5.091  0.0231  0.3859  0.2404
  310POPC   PO4 4203   6.271   2.963   5.045 -0.3596  0.0142 -0.0723
  310POPC   GL1 4204   6.226   3.302   5.352 -0.1572  0.3227 -0.4477
  310POPC   GL2 4205   5.921   3.492   5.344  0.0116 -0.1629  0.1463
  310POPC   C1A 4206   6.326   3.412   5.676  0.1378  0.2180 -0.1444
  310POPC   D2A 4207   6.068   3.461   6.121  0.4092  0.1019  0.2046
  310POPC   C3A 4208   6.466   3.427   6.441  0.0012  0.1941 -0.0922
  310POPC   C4A 4209   6.696   3.311   6.777  0.4099  0.0553  0.0896
  310POPC   C1B 4210   5.865   3.145   5.676 -0.1468  0.2524 -0.1942
  310POPC   C2B 4211   5.776   3.031   6.045  0.0735  0.1073 -0.0391
  310POPC   C3B 4212   5.879   3.063   6.425 -0.0285  0.1917 -0.0083
  310POPC   C4B 4213   6.160   3.114   6.807  0.1373  0.2857  0.2830
  311POPC   NC3 4214   7.407   2.601   5.179  0.1315 -0.0405  0.1337
  311POPC   PO4 4215   7.266   2.181   5.254 -0.1491  0.2342  0.4299
  311POPC   GL1 4216   7.277   2.057   5.658  0.0268  0.1798  0.1321
  311POPC   GL2 4217   7.063   1.834   5.699  0.1106 -0.1708 -0.1316
  311POPC   C1A 4218   7.466   1.984   6.050  0.3123 -0.2804  0.0895
  311POPC   D2A 4219   7.450   2.150   6.518 -0.1756  0.0813  0.1029
  311POPC   C3A 4220   7.140   2.387   6.655 -0.0347  0.4249 -0.2915
  311POPC   C4A 4221   7.232   2.867   6.755 -0.0079 -0.4280 -0.1902
  311POPC   C1B 4222   6.899   2.141   6.082  0.0215 -0.0259  0.0271
  311POPC   C2B 4223   6.790   2.122   6.461  0.0664  0.0249  0.1904
  311POPC   C3B 4224   6.866   2.085   6.940  0.0692  0.1547 -0.1769
  311POPC   C4B 4225   7.066   2.123   7.335 -0.0055 -0.3810 -0.1068
  312POPC   NC3 4226   2.823   0.983   4.155  0.1295  0.1412 -0.1700
  312POPC   PO4 4227   3.075   0.637   4.156  0.1417  0.1234  0.1762
  312POPC   GL1 4228   2.899   0.373   4.443 -0.1842 -0.2433  0.0759
  312POPC   GL2 4229   2.978   0.374   4.754  0.2463  0.1314 -0.1066
  312POPC   C1A 4230   2.465   0.335   4.694  0.1230  0.1131 -0.0950
  312POPC   D2A 4231   2.124   0.118   4.952 -0.0330 -0.0957  0.0103
  312POPC   C3A 4232   1.829   0.290   4.909  0.3052  0.0422 -0.0359
  312POPC   C4A 4233   1.680   0.661   5.144  0.0073  0.2026 -0.1171
  312POPC   C1B 4234   2.941   0.825   4.913 -0.1573 -0.1606 -0.3904
  312POPC   C2B 4235   3.246   1.150   5.064  0.0284 -0.0297  0.1799
  312POPC   C3B 4236   3.654   1.211   5.137  0.0717 -0.0853 -0.0047
  312POPC   C4B 4237   3.892   1.145   5.478 -0.1079  0.2868 -0.0238
  313POPC   NC3 4238  10.033   2.046   3.947 -0.1255  0.0628  0.1673
  313POPC   PO4 4239   9.836   2.255   4.261 -0.1541  0.1672  0.0791
  313POPC   GL1 4240   9.827   1.903   4.577 -0.0831  0.2629 -0.1585
  313POPC   GL2 4241   9.851   2.054   4.930  0.2194  0.0122  0.2958
  313POPC   C1A 4242   9.974   1.634   4.723 -0.0276  0.3183 -0.0643
  313POPC   D2A 4243  10.147   1.419   5.149 -0.1717 -0.1748  0.0174
  313POPC   C3A 4244  10.085   1.437   5.567  0.1474  0.2024 -0.0292
  313POPC   C4A 4245  10.124   1.278   6.026  0.3111 -0.0713  0.2035
  313POPC   C1B 4246   9.685   1.668   5.215  0.0843  0.0978  0.0217
  313POPC   C2B 4247   9.620   1.500   5.681  0.0142  0.0240  0.3850
  313POPC   C3B 4248   9.592   1.373   6.070  0.0078 -0.1135 -0.2868
  313POPC   C4B 4249   9.383   1.400   6.432  0.0974 -0.0319  0.1053
  314POPC   NC3 4250   3.134  10.069   4.415  0.1100 -0.3388  0.0260
  314POPC   PO4 4251   3.454   9.869   4.588 -0.3536  0.1928  0.0589
  314POPC   GL1 4252   3.474   9.717   4.990 -0.1368 -0.0323 -0.3596
  314POPC   GL2 4253   3.274   9.413   4.994  0.0951  0.1742 -0.1425
  314POPC   C1A 4254   3.325   9.787   5.427 -0.2577  0.0689 -0.1010
  314POPC   D2A 4255   3.158   9.996   5.768 -0.1773 -0.0017 -0.1299
  314POPC   C3A 4256   2.815   9.864   6.090  0.4819 -0.3206  0.1976
  314POPC   C4A 4257   2.409   9.763   6.383 -0.0615 -0.1917  0.1681
  314POPC   C1B 4258   3.203   9.013   5.252 -0.0000 -0.0578 -0.0682
  314POPC   C2B 4259   3.023   8.801   5.541  0.1201 -0.0860 -0.1226
  314POPC   C3B 4260   3.006   8.484   5.714 -0.1690 -0.1767 -0.5207
  314POPC   C4B 4261   2.984   8.235   6.152  0.0131  0.2218 -0.1516
  315POPC   NC3 4262   1.816   1.995   4.244  0.2778  0.0856  0.2872
  315POPC   PO4 4263   1.669   2.334   4.572 -0.3333  0.0136  0.2946
  315POPC   GL1 4264   1.646   2.347   4.991  0.2535  0.0987 -0.0405
  315POPC   GL2 4265   1.704   2.061   5.102  0.2204  0.1235 -0.0055
  315POPC   C1A 4266   1.553   2.454   5.459  0.0697 -0.1596 -0.0555
  315POPC   D2A 4267   1.271   2.270   5.700 -0.0762  0.2950  0.0274
  315POPC   C3A 4268   1.178   1.865   5.882 -0.1970 -0.2999  0.2363
  315POPC   C4A 4269   1.423   1.616   6.106  0.1299  0.1324  0.1428
  315POPC   C1B 4270   1.715   2.000   5.532 -0.0824 -0.1945 -0.0225
  315POPC   C2B 4271   1.761   2.191   5.954  0.2411  0.5700  0.0295
  315POPC   C3B 4272   1.794   1.919   6.334  0.0773  0.1323 -0.2882
  315POPC   C4B 4273   1.859   1.765   6.773 -0.0434  0.1141  0.5268
  316POPC   NC3 4274   4.935   6.491   4.730 -0.1009  0.2344  0.0442
  316POPC   PO4 4275   5.083   6.883   4.852  0.2200  0.0504  0.1822
  316POPC   GL1 4276   5.378   6.800   5.155  0.1461  0.1019  0.0098
  316POPC   GL2 4277   5.185   6.670   5.385 -0.1259 -0.1013 -0.1634
  316POPC   C1A 4278   5.733   6.815   5.583 -0.0757 -0.0795 -0.2670
  316POPC   D2A 4279   5.950   6.450   5.675  0.0375  0.0798  0.1000
  316POPC   C3A 4280   5.929   6.228   6.083  0.2434  0.2509  0.2864
  316POPC   C4A 4281   5.640   6.190   6.306  0.1252 -0.0570  0.0037
  316POPC   C1B 4282   5.056   6.754   5.858 -0.0945  0.1013  0.1250
  316POPC   C2B 4283   5.030   6.585   6.314  0.1531 -0.1357  0.0369
  316POPC   C3B 4284   4.910   6.323   6.647 -0.1808 -0.1135 -0.1448
  316POPC   C4B 4285   4.520   6.406   6.836 -0.0147  0.2270 -0.0823
  317POPC   NC3 4286   9.336   2.927   4.466  0.2134  0.0164 -0.1002
  317POPC   PO4 4287   9.227   2.826   4.887  0.3341  0.2034 -0.0457
  317POPC   GL1 4288   9.346   2.890   5.291 -0.0078 -0.1252  0.4089
  317POPC   GL2 4289   9.234   2.633   5.483  0.0511 -0.3056 -0.0339
  317POPC   C1A 4290   9.129   3.128   5.546 -0.1139 -0.3386 -0.2522
  317POPC   D2A 4291   8.868   3.524   5.619  0.1754  0.3753 -0.0326
  317POPC   C3A 4292   8.700   3.591   6.051  0.1945  0.1840  0.1498
  317POPC   C4A 4293   8.811   3.621   6.456 -0.0530 -0.1255 -0.0263
  317POPC   C1B 4294   9.288   2.809   5.880 -0.0791 -0.0024  0.0383
  317POPC   C2B 4295   9.339   2.940   6.315  0.3352 -0.4115 -0.1851
  317POPC   C3B 4296   9.475   3.190   6.592  0.0965 -0.3042  0.0080
  317POPC   C4B 4297   9.199   3.501   6.779  0.0183  0.3008 -0.0929
  318POPC   NC3 4298   3.505   9.297   4.521 -0.0970 -0.0728 -0.0141
  318POPC   PO4 4299   3.586   8.886   4.615  0.0950  0.1133  0.1132
  318POPC   GL1 4300   3.598   8.829   4.991  0.0398  0.0982 -0.0739
  318POPC   GL2 4301   3.414   8.667   5.023  0.1195  0.0491 -0.0640
  318POPC   C1A 4302   3.650   8.874   5.455  0.0546  0.3214 -0.0361
  318POPC   D2A 4303   3.690   8.641   5.803  0.1338  0.0084  0.1528
  318POPC   C3A 4304   3.497   8.285   6.053 -0.2142  0.0563  0.0525
  318POPC   C4A 4305   3.471   8.114   6.568  0.0949  0.0674 -0.2001
  318POPC   C1B 4306   2.982   8.590   5.086  0.0658 -0.0071 -0.3158
  318POPC   C2B 4307   2.858   8.236   5.226  0.0925  0.2019 -0.3067
  318POPC   C3B 4308   2.604   8.213   5.656 -0.0469  0.1166 -0.1429
  318POPC   C4B 4309   2.369   8.423   6.087 -0.2078  0.2729 -0.0745
  319POPC   NC3 4310   8.358   3.915   4.417 -0.0216 -0.2330  0.1133
  319POPC   PO4 4311   8.169   4.186   4.792  0.1640  0.0527 -0.0752
  319POPC   GL1 4312   8.125   4.074   5.255 -0.0201 -0.3611  0.0363
  319POPC   GL2 4313   8.160   3.775   5.237 -0.2576 -0.2044  0.0782
  319POPC   C1A 4314   8.333   4.370   5.676 -0.0848 -0.0640 -0.1079
  319POPC   D2A 4315   8.442   4.742   5.771  0.1317 -0.0438 -0.2842
  319POPC   C3A 4316   8.628   4.791   6.158  0.0813  0.0090  0.2630
  319POPC   C4A 4317   8.927   4.598   6.522 -0.0444  0.0623  0.1495
  319POPC   C1B 4318   8.224   3.837   5.687 -0.0173 -0.1320 -0.1418
  319POPC   C2B 4319   8.280   3.929   6.134 -0.2308 -0.0767 -0.2386
  319POPC   C3B 4320   8.326   3.847   6.557 -0.2852  0.1069 -0.0201
  319POPC   C4B 4321   8.171   3.679   6.983 -0.0048 -0.0014  0.0530
  320POPC   NC3 4322   7.110   6.401   5.043  0.1409  0.1526 -0.0597
  320POPC   PO4 4323   7.468   6.381   5.299 -0.2642  0.1241 -0.0414
  320POPC   GL1 4324   7.391   6.224   5.569  0.0721 -0.0250  0.1493
  320POPC   GL2 4325   7.261   5.862   5.671  0.0596 -0.2024 -0.0607
  320POPC   C1A 4326   7.499   6.161   5.995  0.0806  0.0285 -0.3752
  320POPC   D2A 4327   7.333   5.970   6.390 -0.0913 -0.0501  0.1976
  320POPC   C3A 4328   7.407   6.156   6.770 -0.0067 -0.0826  0.0003
  320POPC   C4A 4329   7.675   6.365   7.061 -0.0231  0.0585 -0.0878
  320POPC   C1B 4330   6.995   6.186   5.935  0.1966  0.1191  0.0023
  320POPC   C2B 4331   6.849   6.080   6.340 -0.1114  0.0139  0.2619
  320POPC   C3B 4332   6.816   5.773   6.662  0.1745  0.1563 -0.2683
  320POPC   C4B 4333   6.566   5.512   7.090  0.0873 -0.0340  0.1177
  321POPC   NC3 4334   6.620   3.318   4.983  0.2221 -0.3902 -0.0392
  321POPC   PO4 4335   7.062   3.387   4.975 -0.3542  0.2716  0.0061
  321POPC   GL1 4336   7.077   3.671   5.279 -0.2703  0.1106  0.4530
  321POPC   GL2 4337   6.961   4.030   5.190 -0.2080 -0.1642 -0.0519
  321POPC   C1A 4338   7.220   3.780   5.634  0.0566  0.0691  0.0701
  321POPC   D2A 4339   7.183   3.499   5.973 -0.1373  0.1952 -0.0872
  321POPC   C3A 4340   7.564   3.542   6.325 -0.1450 -0.2913 -0.0005
  321POPC   C4A 4341   7.937   3.591   6.433 -0.1930  0.1593 -0.1016
  321POPC   C1B 4342   7.331   4.219   5.524  0.3031 -0.0379 -0.4630
  321POPC   C2B 4343   7.728   4.354   5.586  0.0809 -0.1581 -0.0940
  321POPC   C3B 4344   7.916   4.423   5.964 -0.0028  0.0583  0.1359
  321POPC   C4B 4345   8.206   4.401   6.275  0.2180 -0.2763 -0.0707
  322POPC   NC3 4346   0.240   4.777   4.200  0.0239  0.0591 -0.0797
  322POPC   PO4 4347   0.337   5.122   4.560  0.2931  0.0127 -0.2602
  322POPC   GL1 4348   0.110   5.446   4.834  0.1048 -0.0406 -0.0510
  322POPC   GL2 4349   0.483   5.665   4.982  0.3209  0.1597  0.3340
  322POPC   C1A 4350   0.086   5.601   5.291  0.0477  0.1555 -0.1263
  322POPC   D2A 4351   0.090   5.368   5.609  0.2219 -0.1654 -0.0550
  322POPC   C3A 4352   0.022   5.529   6.062  0.2282  0.0956 -0.0962
  322POPC   C4A 4353  -0.245   5.819   6.346  0.0280  0.0215  0.0342
  322POPC   C1B 4354   0.593   5.345   5.274 -0.1584  0.0876  0.2077
  322POPC   C2B 4355   0.440   5.035   5.398  0.0671  0.0880 -0.2841
  322POPC   C3B 4356   0.215   4.897   5.830 -0.2086 -0.1154 -0.0975
  322POPC   C4B 4357   0.086   4.690   6.224 -0.1200 -0.1707  0.4129
  323POPC   NC3 4358   3.018   6.716   4.787 -0.0323  0.2873  0.2188
  323POPC   PO4 4359   2.623   6.519   4.596 -0.1669  0.1280  0.3878
  323POPC   GL1 4360   2.300   6.389   5.019  0.0603  0.2347 -0.2471
  323POPC   GL2 4361   1.970   6.308   4.982  0.0057  0.2531 -0.3250
  323POPC   C1A 4362   2.338   6.512   5.350 -0.1182  0.0102 -0.0852
  323POPC   D2A 4363   2.689   6.728   5.555 -0.1430 -0.2312  0.0160
  323POPC   C3A 4364   2.985   6.526   5.788 -0.1452  0.0581 -0.2129
  323POPC   C4A 4365   3.376   6.387   5.872 -0.4090  0.2225  0.0557
  323POPC   C1B 4366   1.841   6.376   5.414  0.0421 -0.0719  0.0176
  323POPC   C2B 4367   1.944   6.681   5.696 -0.2613 -0.3086 -0.1716
  323POPC   C3B 4368   1.814   6.793   6.059  0.2470  0.2574 -0.0243
  323POPC   C4B 4369   1.702   7.124   6.231 -0.0007  0.0856 -0.0496
  324POPC   NC3 4370   3.526   2.713   4.310 -0.0659 -0.0521  0.0104
  324POPC   PO4 4371   3.424   2.490   4.673  0.3457 -0.1005 -0.3476
  324POPC   GL1 4372   3.761   2.458   5.034 -0.2135 -0.0881 -0.1292
  324POPC   GL2 4373   3.677   2.820   5.242 -0.1207 -0.2966  0.2744
  324POPC   C1A 4374   4.016   2.564   5.417  0.1622  0.2777  0.1562
  324POPC   D2A 4375   4.470   2.535   5.397  0.1688  0.0046 -0.1222
  324POPC   C3A 4376   4.672   2.328   5.757  0.0619  0.1408 -0.1969
  324POPC   C4A 4377   4.708   1.866   5.867  0.0468  0.3755 -0.0330
  324POPC   C1B 4378   3.559   2.645   5.633  0.0600 -0.1157 -0.2761
  324POPC   C2B 4379   3.438   2.478   5.999  0.1708 -0.2715 -0.0081
  324POPC   C3B 4380   3.378   2.207   6.413  0.2761  0.0489 -0.3060
  324POPC   C4B 4381   3.632   2.309   6.729  0.1552  0.3381 -0.1467
  325POPC   NC3 4382   8.708   1.524   4.237  0.1335  0.0216  0.0985
  325POPC   PO4 4383   8.360   1.509   4.654  0.1054  0.2488 -0.2731
  325POPC   GL1 4384   8.440   1.503   5.090 -0.2079 -0.0180 -0.0765
  325POPC   GL2 4385   8.416   1.821   5.337  0.1329  0.1028  0.4012
  325POPC   C1A 4386   8.819   1.429   5.431 -0.1762  0.1230  0.0137
  325POPC   D2A 4387   9.164   1.234   5.627  0.4777  0.1321 -0.1099
  325POPC   C3A 4388   9.194   0.841   5.650 -0.1784 -0.0358  0.0412
  325POPC   C4A 4389   9.526   0.574   5.842 -0.1911  0.2913  0.1882
  325POPC   C1B 4390   8.629   1.782   5.840 -0.3330  0.0199  0.0367
  325POPC   C2B 4391   8.520   2.078   6.070  0.2209 -0.0242 -0.4442
  325POPC   C3B 4392   8.198   2.057   6.462  0.1619 -0.0748 -0.0770
  325POPC   C4B 4393   7.975   2.103   6.890  0.0414 -0.3392  0.1864
  326POPC   NC3 4394   1.881   2.739   4.951 -0.1366 -0.1557  0.0536
  326POPC   PO4 4395   2.196   2.585   4.904 -0.0249  0.1202 -0.1745
  326POPC   GL1 4396   2.038   2.400   5.305 -0.0737  0.0083 -0.2385
  326POPC   GL2 4397   2.209   2.071   5.203 -0.3620 -0.1170  0.2798
  326POPC   C1A 4398   1.938   2.641   5.737  0.1208  0.2321 -0.0148
  326POPC   D2A 4399   2.143   2.497   6.125  0.2768 -0.2065 -0.0163
  326POPC   C3A 4400   2.419   2.201   6.208  0.3295  0.1594  0.0799
  326POPC   C4A 4401   2.899   2.133   6.276 -0.1101 -0.2224  0.4149
  326POPC   C1B 4402   2.505   1.651   5.440  0.0670  0.1436  0.0581
  326POPC   C2B 4403   2.502   1.224   5.607  0.0437 -0.1146  0.3753
  326POPC   C3B 4404   2.610   1.022   6.053  0.1926  0.1199 -0.0778
  326POPC   C4B 4405   2.828   0.611   6.196 -0.2300 -0.3354  0.1565
  327POPC   NC3 4406   7.594   5.433   4.481 -0.0121  0.1547  0.0197
  327POPC   PO4 4407   7.708   5.784   4.688  0.1248 -0.1272 -0.3239
  327POPC   GL1 4408   7.928   5.693   5.053  0.1231  0.0740 -0.0568
  327POPC   GL2 4409   7.667   5.719   5.427 -0.0358 -0.0213  0.2941
  327POPC   C1A 4410   8.214   5.796   5.432 -0.3283  0.0146  0.0954
  327POPC   D2A 4411   8.334   5.736   5.880  0.0765  0.0281  0.0794
  327POPC   C3A 4412   8.784   5.665   6.026 -0.0415  0.0460  0.2604
  327POPC   C4A 4413   9.055   6.016   5.946  0.1231 -0.3387  0.1464
  327POPC   C1B 4414   7.739   5.761   5.835  0.3711  0.2541 -0.1723
  327POPC   C2B 4415   7.762   5.827   6.262  0.2248  0.1733 -0.1219
  327POPC   C3B 4416   7.972   5.892   6.655  0.0739  0.0551 -0.1202
  327POPC   C4B 4417   7.892   5.856   7.105  0.1882 -0.0042 -0.1904
  328POPC   NC3 4418   7.335   8.429   4.983  0.2210  0.1645 -0.0430
  328POPC   PO4 4419   7.424   8.770   5.228 -0.3193 -0.1582  0.3214
  328POPC   GL1 4420   7.603   8.694   5.647  0.1703 -0.0484  0.2281
  328POPC   GL2 4421   7.267   8.741   5.805  0.1310  0.0522  0.3150
  328POPC   C1A 4422   7.730   8.626   6.144 -0.2754  0.4149  0.0500
  328POPC   D2A 4423   7.802   8.699   6.574  0.0580 -0.0391  0.0497
  328POPC   C3A 4424   7.759   9.046   6.868  0.0749  0.4135 -0.3075
  328POPC   C4A 4425   7.664   9.123   7.296 -0.1888 -0.2521 -0.2841
  328POPC   C1B 4426   7.290   8.809   6.348  0.1035 -0.0930 -0.0594
  328POPC   C2B 4427   7.107   8.575   6.613  0.1701 -0.0622 -0.0414
  328POPC   C3B 4428   7.077   8.111   6.741 -0.2655 -0.1092  0.1758
  328POPC   C4B 4429   7.282   7.663   6.959 -0.0507  0.0107  0.2391
  329POPC   NC3 4430   8.401   0.098   3.715  0.2678  0.1594  0.1793
  329POPC   PO4 4431   8.918   0.088   3.561  0.1826  0.0469 -0.0165
  329POPC   GL1 4432   9.302   0.173   3.901 -0.0054  0.1628  0.4631
  329POPC   GL2 4433   9.405  -0.042   4.061 -0.0586 -0.2335  0.0359
  329POPC   C1A 4434   9.348   0.525   4.176  0.3432 -0.0441  0.1521
  329POPC   D2A 4435   9.280   0.606   4.595 -0.1038 -0.1706 -0.0178
  329POPC   C3A 4436   9.035   0.387   4.849 -0.1930  0.2014 -0.2976
  329POPC   C4A 4437   8.749   0.012   4.958  0.0868  0.1467 -0.0405
  329POPC   C1B 4438   9.769  -0.352   4.265 -0.1238  0.0786 -0.0908
  329POPC   C2B 4439  10.048  -0.266   4.631 -0.0096  0.1432 -0.1758
  329POPC   C3B 4440  10.508  -0.260   4.925  0.0330  0.2559 -0.2240
  329POPC   C4B 4441  10.908  -0.450   5.262  0.5134  0.0284 -0.2653
  330POPC   NC3 4442   0.816   1.883   4.410 -0.0640 -0.0834 -0.0220
  330POPC   PO4 4443   1.030   1.919   4.795 -0.4222 -0.2673  0.1815
  330POPC   GL1 4444   0.806   1.876   5.230  0.3201  0.3111 -0.0936
  330POPC   GL2 4445   0.774   2.071   5.462  0.1906 -0.0887 -0.0855
  330POPC   C1A 4446   0.868   1.615   5.601 -0.1092 -0.1417 -0.1321
  330POPC   D2A 4447   1.069   1.316   5.920 -0.2019 -0.0361  0.3172
  330POPC   C3A 4448   1.203   1.216   6.391  0.0564 -0.0875 -0.0263
  330POPC   C4A 4449   1.666   1.330   6.643  0.1336  0.5005 -0.0097
  330POPC   C1B 4450   0.725   2.006   5.866  0.3046 -0.0371 -0.3264
  330POPC   C2B 4451   0.881   1.938   6.289  0.2017 -0.0157 -0.2484
  330POPC   C3B 4452   0.831   1.926   6.609  0.0042  0.2655 -0.1328
  330POPC   C4B 4453   0.893   2.128   6.987  0.1100  0.0804  0.0722
  331POPC   NC3 4454   4.002   9.354   4.657 -0.2220  0.0117 -0.0673
  331POPC   PO4 4455   4.206   9.751   4.877 -0.1332 -0.1044  0.0365
  331POPC   GL1 4456   3.893   9.869   5.230  0.0485 -0.2421 -0.0547
  331POPC   GL2 4457   3.707  10.118   5.488  0.1061 -0.0571  0.0560
  331POPC   C1A 4458   3.772   9.658   5.682  0.0232  0.0535  0.0027
  331POPC   D2A 4459   3.388   9.618   6.014 -0.2461 -0.0609 -0.2814
  331POPC   C3A 4460   3.183   9.372   6.194 -0.0903 -0.0856  0.2337
  331POPC   C4A 4461   2.766   9.443   6.448  0.0783 -0.0106  0.1302
  331POPC   C1B 4462   3.720  10.065   5.932 -0.1564 -0.0581 -0.1654
  331POPC   C2B 4463   3.362  10.213   6.195  0.0770 -0.0856 -0.0826
  331POPC   C3B 4464   3.302  10.406   6.622  0.1486 -0.0401 -0.0483
  331POPC   C4B 4465   3.358  10.405   7.025  0.2052  0.0430  0.2446
  332POPC   NC3 4466   4.190   8.390   4.896  0.0595  0.0167  0.2803
  332POPC   PO4 4467   4.157   8.826   5.065  0.5614  0.1335  0.4670
  332POPC   GL1 4468   4.241   8.675   5.432  0.1584  0.0157  0.0667
  332POPC   GL2 4469   4.587   8.840   5.653  0.1525 -0.0533  0.1757
  332POPC   C1A 4470   4.203   8.638   5.925 -0.2821  0.0934 -0.2857
  332POPC   D2A 4471   4.239   8.570   6.407 -0.0207 -0.2198  0.1237
  332POPC   C3A 4472   4.143   8.954   6.696 -0.0397  0.0472  0.3931
  332POPC   C4A 4473   3.862   9.225   7.013 -0.1462 -0.0065 -0.0285
  332POPC   C1B 4474   4.676   8.559   6.077 -0.1568 -0.3569  0.1367
  332POPC   C2B 4475   4.757   8.491   6.453 -0.1498  0.0315  0.0210
  332POPC   C3B 4476   4.805   8.657   6.734 -0.2585  0.0668 -0.0439
  332POPC   C4B 4477   5.074   8.657   7.076 -0.1796 -0.1276 -0.1804
  333POPC   NC3 4478  10.362   7.720   4.167 -0.3586  0.1601 -0.2846
  333POPC   PO4 4479  10.306   7.248   4.073  0.0323 -0.0084 -0.2400
  333POPC   GL1 4480  10.373   7.200   4.557 -0.0778 -0.1347  0.2448
  333POPC   GL2 4481  10.745   7.188   4.600  0.3491  0.3503  0.1163
  333POPC   C1A 4482  10.452   7.339   5.046 -0.0095  0.0700  0.2322
  333POPC   D2A 4483  10.701   7.572   5.327  0.1584 -0.1287  0.0961
  333POPC   C3A 4484  10.500   7.936   5.447 -0.2555  0.2597 -0.1440
  333POPC   C4A 4485  10.596   8.338   5.638 -0.1126  0.2498 -0.0049
  333POPC   C1B 4486  10.863   7.562   4.812 -0.3093 -0.1561 -0.2943
  333POPC   C2B 4487  10.530   7.879   4.900 -0.0990  0.0212  0.0776
  333POPC   C3B 4488  10.139   7.865   5.153 -0.0245  0.1244  0.1433
  333POPC   C4B 4489   9.724   7.812   5.159  0.1778  0.0018 -0.0203
  334POPC   NC3 4490   9.801   7.288   4.433 -0.1364  0.1501  0.0614
  334POPC   PO4 4491   9.392   7.572   4.383  0.2515  0.2950  0.1259
  334POPC   GL1 4492   9.508   7.532   4.854 -0.4017  0.3225 -0.0421
  334POPC   GL2 4493   9.284   7.578   5.091  0.4664  0.2603 -0.1217
  334POPC   C1A 4494   9.929   7.340   5.136  0.3180 -0.2212  0.2866
  334POPC   D2A 4495  10.046   7.133   5.507  0.1303 -0.0842  0.1199
  334POPC   C3A 4496   9.863   6.845   5.742  0.2414  0.1944 -0.0222
  334POPC   C4A 4497   9.879   6.692   6.120 -0.0908 -0.3701 -0.1462
  334POPC   C1B 4498   9.527   7.390   5.516 -0.2311 -0.3258 -0.1703
  334POPC   C2B 4499   9.717   7.289   5.918 -0.0365 -0.1099  0.2034
  334POPC   C3B 4500   9.912   7.555   6.187 -0.0989 -0.1168  0.1842
  334POPC   C4B 4501   9.785   8.042   6.214  0.1333 -0.0473 -0.4681
  335POPC   NC3 4502   0.434   7.523   3.745  0.0319 -0.0153 -0.0996
  335POPC   PO4 4503   0.468   7.327   4.181  0.0136 -0.1491  0.0313
  335POPC   GL1 4504   0.837   7.295   4.489 -0.2187  0.1524  0.2224
  335POPC   GL2 4505   0.674   7.049   4.792 -0.1057 -0.4633 -0.1481
  335POPC   C1A 4506   0.950   7.464   4.849  0.0972 -0.0931  0.1987
  335POPC   D2A 4507   0.876   7.708   5.246  0.0312 -0.0020 -0.3559
  335POPC   C3A 4508   0.595   7.867   5.402  0.4314  0.1498  0.3653
  335POPC   C4A 4509   0.690   8.286   5.387 -0.1621  0.1985 -0.0077
  335POPC   C1B 4510   0.497   7.292   5.193 -0.3212 -0.1329  0.2540
  335POPC   C2B 4511   0.573   7.357   5.565  0.0002  0.0743  0.0640
  335POPC   C3B 4512   0.862   7.592   5.811 -0.0730  0.1329  0.1593
  335POPC   C4B 4513   0.960   8.020   5.772 -0.0611  0.2600 -0.0433
  336POPC   NC3 4514   6.859   6.811   4.379 -0.2678 -0.1224 -0.0545
  336POPC   PO4 4515   6.935   6.934   4.808 -0.1474 -0.0569 -0.2206
  336POPC   GL1 4516   6.875   7.305   5.126 -0.0338 -0.3339  0.1788
  336POPC   GL2 4517   7.174   7.376   5.233  0.1579  0.4542 -0.0691
  336POPC   C1A 4518   6.806   7.118   5.522  0.0769 -0.1993 -0.0767
  336POPC   D2A 4519   6.715   7.054   5.967  0.0365 -0.1036  0.1180
  336POPC   C3A 4520   6.903   7.485   6.202  0.0995 -0.2489 -0.0672
  336POPC   C4A 4521   6.921   7.902   6.320  0.0993 -0.0590 -0.0858
  336POPC   C1B 4522   7.157   7.390   5.735 -0.1044 -0.0537  0.0930
  336POPC   C2B 4523   7.363   7.609   6.036  0.1001 -0.2445 -0.0884
  336POPC   C3B 4524   7.522   7.895   6.399  0.1125  0.3854  0.0678
  336POPC   C4B 4525   7.379   8.272   6.395  0.2206  0.0122 -0.1390
  337POPC   NC3 4526   4.066   3.666   5.079 -0.0860 -0.0066  0.1983
  337POPC   PO4 4527   3.773   3.285   5.005  0.0618  0.0133  0.2038
  337POPC   GL1 4528   3.841   3.266   5.431 -0.1839 -0.0964 -0.1125
  337POPC   GL2 4529   4.137   3.435   5.485 -0.3509  0.0070 -0.1049
  337POPC   C1A 4530   3.935   2.926   5.811 -0.1208  0.0577  0.0892
  337POPC   D2A 4531   4.116   2.511   5.879  0.1688 -0.1441 -0.1101
  337POPC   C3A 4532   3.960   2.408   6.265  0.1447  0.2848  0.1679
  337POPC   C4A 4533   3.875   1.976   6.459  0.0367 -0.0900  0.1589
  337POPC   C1B 4534   4.232   3.461   5.868 -0.1796  0.0123 -0.0478
  337POPC   C2B 4535   4.033   3.253   6.193 -0.1691 -0.1808  0.1229
  337POPC   C3B 4536   4.188   2.870   6.248  0.0362 -0.0809 -0.0994
  337POPC   C4B 4537   4.427   2.414   6.269  0.1521  0.3499 -0.1986
  338W        W 4538   7.818   5.752  13.046  0.0895 -0.3567 -0.0656
  339W        W 4539   6.123   8.346   1.738  0.4296 -0.3314  0.2293
  340W        W 4540   1.972   5.709   8.414  0.1634  0.2160 -0.0512
  341W        W 4541   3.645   3.133   2.060 -0.2717 -0.0820 -0.0140
  342W        W 4542   9.753   7.984  13.024  0.2145  0.0677 -0.0676
  343W        W 4543   0.128   9.168   1.819 -0.0128 -0.2166  0.1944
  344W        W 4544   7.014  10.118  11.132  0.0884 -0.3964  0.1748
  345W        W 4545   5.892   8.062  11.251 -0.2520 -0.1743 -0.0656
  346W        W 4546   3.465   5.621   3.735  0.2699  0.2836 -0.0839
  347W        W 4547   6.214   9.323  11.010  0.2789  0.0728 -0.1503
  348W        W 4548   6.227   4.987   0.629 -0.2946  0.2763 -0.0633
  349W        W 4549   3.294   8.253   1.992 -0.1188  0.2357 -0.3469
  350W        W 4550   3.906   1.569   3.034 -0.0920 -0.3509  0.4542
  351W        W 4551   5.999   4.176   1.028  0.0409 -0.0123 -0.0669
  352W        W 4552   5.111   5.170   2.980  0.0491 -0.2898  0.1815
  353W        W 4553   0.364   2.781   4.607  0.0394 -0.1245 -0.0570
  354W        W 4554   4.028   6.395  13.017 -0.1598 -0.0346 -0.1882
  355W        W 4555   2.484   5.085   0.012 -0.1618  0.0788  0.1499
  356W        W 4556   8.881   8.723  10.384 -0.0589  0.2064  0.0933
  357W        W 4557   0.860   4.413   1.133 -0.1914 -0.0859 -0.1345
  358W        W 4558   7.503   4.021  12.808  0.2811  0.0203 -0.1500
  359W        W 4559   0.162   1.281   1.342 -0.0625  0.1249  0.0545
  360W        W 4560   0.752   6.310   1.603  0.1499  0.2503  0.1889
  361W        W 4561   6.681   9.247  12.347  0.0151  0.0734  0.1264
  362W        W 4562   8.743   3.733   4.062  0.2111  0.2083  0.2036
  363W        W 4563   9.320   7.280  11.659 -0.1004  0.1260  0.0618
  364W        W 4564   5.390   6.980   3.546  0.2672  0.0313  0.2110
  365W        W 4565   6.734   9.707  11.942 -0.0968 -0.0256  0.0230
  366W        W 4566   6.204   2.359   3.927 -0.2364 -0.1711 -0.3621
  367W        W 4567   4.868   5.223  12.728  0.2243  0.1004 -0.2753
  368W        W 4568   5.700   6.637  11.828  0.4328 -0.1580  0.3068
  369W        W 4569   3.158   7.443  13.110 -0.0703 -0.0911 -0.4533
  370W        W 4570   1.492   5.517   9.841  0.3199 -0.1237  0.0688
  371W        W 4571   6.467   8.197   5.411  0.1289 -0.1330  0.2601
  372W        W 4572   1.975   8.668  10.869 -0.0707 -0.0565 -0.0350
  373W        W 4573   8.720   9.344   3.914  0.0310 -0.1055  0.0060
  374W        W 4574   1.977   0.032   1.757 -0.2800 -0.0314  0.1753
  375W        W 4575   7.948   2.764  10.059 -0.0248 -0.0828  0.0103
  376W        W 4576   4.236   6.589   2.500  0.3230 -0.2410 -0.1188
  377W        W 4577   4.906   0.250  12.373  0.0868  0.1351  0.2483
  378W        W 4578  10.295   2.844  12.252  0.0323  0.0602  0.0376
  379W        W 4579   8.983   9.646   4.334 -0.1926  0.0045 -0.0474
  380W        W 4580   5.475   2.979   3.004 -0.0361 -0.2219  0.1506
  381W        W 4581   3.107   9.993  11.613 -0.2109 -0.3998  0.0257
  382W        W 4582   5.411   3.477   0.988 -0.1190 -0.3166  0.1340
  383W        W 4583   7.579   8.418  10.360 -0.1806  0.1276 -0.3400
  384W        W 4584   2.334   5.466  12.008  0.0706  0.3227 -0.0007
  385W        W 4585   0.973   3.050  12.334  0.1439  0.2909 -0.0778
  386W        W 4586   2.806   3.365   3.318 -0.4340  0.1513  0.2419
  387W        W 4587   8.315   8.638   4.459 -0.1568  0.0087 -0.0288
  388W        W 4588   3.851   0.295  12.001 -0.4465 -0.0465  0.0112
  389W        W 4589   1.563   1.800   4.678 -0.2458  0.0668 -0.1927
  390W        W 4590   9.179   5.662   0.884  0.1675 -0.2024  0.0680
  391W        W 4591   8.032   6.006  11.033  0.0641  0.0294  0.3206
  392W        W 4592   6.896   5.139  12.103 -0.0835 -0.0328 -0.1891
  393W        W 4593   4.282   2.846   9.132  0.2791 -0.2941 -0.1711
  394W        W 4594   2.583   6.679   2.970 -0.0687 -0.0145  0.1873
  395W        W 4595   9.454  10.125  13.062 -0.0235 -0.1384 -0.2237
  396W        W 4596   0.124   0.843  10.189 -0.3193 -0.0696 -0.2191
  397W        W 4597   4.741   8.148  11.818  0.1746 -0.1238 -0.1178
  398W        W 4598   8.079   3.304  11.838  0.0375 -0.3525  0.5765
  399W        W 4599   9.567   4.475   2.111  0.0644 -0.5374  0.2297
  400W        W 4600   7.097  10.494   5.375 -0.1532 -0.4442 -0.0514
  401W        W 4601   1.752   1.522   4.056  0.0493  0.3028 -0.0805
  402W        W 4602   3.802   4.424   9.448  0.0328  0.0580 -0.0101
  403W        W 4603   1.289   4.737   9.892 -0.0884  0.0006 -0.4444
  404W        W 4604   6.345   4.791  10.037  0.1418 -0.2016  0.2487
  405W        W 4605   3.829   6.294   2.340 -0.2607 -0.1938 -0.0434
  406W        W 4606   1.240   1.972  11.490  0.1227  0.0008 -0.4096
  407W        W 4607   4.942   6.858   9.745 -0.0101 -0.0022 -0.0346
  408W        W 4608   8.916   6.350   4.821 -0.0104  0.0365 -0.2293
  409W        W 4609  10.499   1.460   3.361  0.2355  0.3376 -0.2137
  410W        W 4610   2.633   6.874  11.002 -0.0100  0.0002  0.1522
  411W        W 4611   3.280   0.187  11.908  0.2343 -0.0358 -0.4403
  412W        W 4612   3.234   8.593  10.733  0.1368 -0.0765 -0.4454
  413W        W 4613   2.194  10.437   0.001 -0.3142 -0.2488  0.1051
  414W        W 4614   0.371   2.932   0.137 -0.1423  0.2517  0.1246
  415W        W 4615   2.913   9.464  10.316 -0.1713  0.0291 -0.0505
  416W        W 4616   1.974   2.699   9.355  0.0228 -0.0261 -0.1543
  417W        W 4617   7.419   7.685   4.227  0.0628 -0.2997  0.0205
  418W        W 4618   2.516   4.382   3.408  0.2203 -0.2651 -0.1144
  419W        W 4619   8.602   6.417   1.079  0.1919  0.0422 -0.0008
  420W        W 4620   0.975   9.867  11.413  0.3118  0.0627 -0.0348
  421W        W 4621   2.635   4.745   9.912  0.0720  0.0493  0.1903
  422W        W 4622   5.819   8.037  13.113 -0.0044 -0.3504  0.2505
  423W        W 4623   8.620  10.324  10.062 -0.1813  0.4690  0.0729
  424W        W 4624   5.069   9.153   9.602 -0.1298 -0.0089  0.2439
  425W        W 4625   0.855   5.903   2.526  0.0659  0.2052 -0.0042
  426W        W 4626  10.132   4.435   0.919  0.1786  0.0436 -0.0038
  427W        W 4627   1.551   0.157   0.730  0.0774 -0.2040 -0.2517
  428W        W 4628   9.626   5.675   3.797  0.0008 -0.0815 -0.5738
  429W        W 4629   6.451   0.084   0.775  0.1702  0.1768  0.1616
  430W        W 4630   0.007   6.051   8.813 -0.1044 -0.3267  0.1038
  431W        W 4631   7.033   7.244  12.115  0.0282 -0.2428 -0.1135
  432W        W 4632   5.775   0.942  12.143  0.3420 -0.1983  0.1099
  433W        W 4633   7.270   9.478   2.445 -0.0254 -0.1195  0.1168
  434W        W 4634   4.934   2.064  10.381  0.1446 -0.0756 -0.1449
  435W        W 4635   0.470   4.163   8.781  0.0207  0.1628  0.0575
  436W        W 4636   3.819  10.195  10.926 -0.3092  0.1899  0.0383
  437W        W 4637   9.239   2.261   9.191 -0.2787  0.3481  0.1002
  438W        W 4638   5.027   3.482  12.234  0.0533  0.2972 -0.0402
  439W        W 4639   8.396   1.864   0.459  0.1226  0.2076 -0.0974
  440W        W 4640   5.713   6.630   9.595  0.0638  0.0608  0.1112
  441W        W 4641   0.109   6.578   8.838 -0.0870 -0.5092 -0.2992
  442W        W 4642   1.376   0.989  12.453  0.3530  0.1490 -0.0280
  443W        W 4643   1.865   0.131   1.158 -0.0748  0.1553  0.3167
  444W        W 4644   7.756   3.352   2.160  0.0922  0.1338  0.0106
  445W        W 4645   2.289   5.096   8.701 -0.0997  0.0737 -0.1705
  446W        W 4646   7.766   1.169   3.068  0.0602  0.1529  0.2486
  447W        W 4647   0.372   6.892  10.712 -0.1514  0.2570  0.0235
  448W        W 4648   6.339   7.125   4.227  0.2164 -0.2894 -0.2636
  449W        W 4649   6.195   7.503   1.702  0.1076  0.0598  0.0875
  450W        W 4650   2.889   1.486   1.302 -0.2018  0.0584 -0.0461
  451W        W 4651   8.101   7.546   0.302  0.4597 -0.0011 -0.1410
  452W        W 4652   4.152   1.682  10.491  0.2343  0.2200  0.0610
  453W        W 4653   9.782   9.685  12.401 -0.0133 -0.1065  0.5820
  454W        W 4654   1.945   9.124  12.737 -0.0217  0.0013  0.1364
  455W        W 4655   7.485   1.625   1.508  0.1099  0.2346 -0.2539
  456W        W 4656  10.492   3.297   9.884  0.2163  0.0231  0.2478
  457W        W 4657   3.729   4.473   0.714  0.0149 -0.1490 -0.1278
  458W        W 4658   0.916   5.742   3.570  0.1300  0.2359  0.0063
  459W        W 4659   3.610   9.212   9.706 -0.3761  0.4192 -0.2536
  460W        W 4660   1.188   3.936   4.272  0.0326  0.0246  0.0174
  461W        W 4661   9.857   7.041  10.621  0.0190  0.2155 -0.0574
  462W        W 4662   9.824   2.621   2.469  0.0772  0.1188 -0.0661
  463W        W 4663   8.051   1.895   9.939  0.0134  0.1071 -0.0501
  464W        W 4664   7.482   8.036   3.727 -0.1956 -0.0634  0.0445
  465W        W 4665   3.300   1.404   0.429  0.5877 -0.2210 -0.0889
  466W        W 4666   3.795   4.214   3.901  0.0405  0.0757  0.3267
  467W        W 4667   9.411   7.814   0.018  0.0569  0.0888 -0.0012
  468W        W 4668   4.280   5.899  13.297  0.0055 -0.1396  0.0450
  469W        W 4669   9.117   3.585  11.019  0.1339 -0.0445 -0.0650
  470W        W 4670   8.695  10.058   1.820  0.0522 -0.3014 -0.3723
  471W        W 4671   3.932   8.233  10.189  0.1959  0.4306  0.3038
  472W        W 4672   0.170   4.042   2.622 -0.3352 -0.0894 -0.1226
  473W        W 4673   6.803   3.306   0.300  0.0401 -0.1724 -0.0701
  474W        W 4674   7.373  10.486   2.364 -0.0632  0.3889 -0.0712
  475W        W 4675   6.526   5.918   1.095 -0.1014 -0.0755 -0.1587
  476W        W 4676   5.745   0.884   9.393 -0.2189 -0.4110  0.4062
  477W        W 4677   9.650   5.067   2.601 -0.0282  0.1751  0.1662
  478W        W 4678   2.250  10.502  11.629 -0.0434  0.0692 -0.0608
  479W        W 4679   7.413   7.368   3.881 -0.2663  0.0766 -0.0486
  480W        W 4680   9.046   8.672  12.148 -0.1756  0.0477  0.0003
  481W        W 4681   3.745   0.806   0.760  0.0825  0.0139  0.0150
  482W        W 4682   7.336   5.532   9.370  0.1797  0.1698  0.2231
  483W        W 4683   6.633   7.890   9.262 -0.0276 -0.0954  0.0732
  484W        W 4684   2.264   2.272   3.094 -0.2257  0.1219  0.2196
  485W        W 4685   1.446   7.808  12.189 -0.0755  0.3761  0.0482
  486W        W 4686   1.448  10.305  12.222  0.2175  0.0724  0.0689
  487W        W 4687   5.102   1.638  12.668  0.0239 -0.0349 -0.0372
  488W        W 4688  10.141   3.377   4.591  0.2275 -0.0708  0.1909
  489W        W 4689   4.413   6.714   0.193  0.0547 -0.1914  0.0050
  490W        W 4690   3.354   7.275  11.947  0.2369 -0.2294 -0.1329
  491W        W 4691   9.615   6.509  10.511 -0.0596  0.0601 -0.0901
  492W        W 4692   3.328   3.992   3.901 -0.1480  0.0272  0.1449
  493W        W 4693   6.191   2.751  10.029 -0.2860 -0.2153  0.0842
  494W        W 4694  10.192   4.085   1.817  0.1318  0.0999 -0.1412
  495W        W 4695   6.010   8.015   2.564 -0.2458 -0.1401 -0.1709
  496W        W 4696   8.119   9.175   4.538 -0.2334  0.1015 -0.1370
  497W        W 4697   5.301  10.489  12.522  0.0384 -0.0348 -0.2131
  498W        W 4698   5.055   8.659   4.964  0.1613 -0.1151 -0.0989
  499W        W 4699  10.201   7.719  12.964  0.0520 -0.3570 -0.2471
  500W        W 4700   2.806   8.465   2.870  0.1351 -0.0366 -0.1390
  501W        W 4701   2.570   5.669  12.888 -0.0942  0.3527 -0.2238
  502W        W 4702   0.090   5.850   3.753 -0.1816 -0.0854 -0.2012
  503W        W 4703   1.709   7.050  10.332 -0.1676 -0.4503 -0.0581
  504W        W 4704   6.342   0.815   9.935  0.0093  0.2797 -0.0738
  505W        W 4705   1.160   3.158   1.623 -0.0047  0.1577  0.0557
  506W        W 4706   3.482   9.900  13.335 -0.0546 -0.0225 -0.0882
  507W        W 4707   6.172   7.774   9.009  0.1605  0.3140  0.2182
  508W        W 4708  10.118   3.403   0.058 -0.0818  0.0246  0.2446
  509W        W 4709   3.039   4.788   1.276 -0.1875 -0.1762 -0.3797
  510W        W 4710   6.230   6.433   2.012  0.0351 -0.0965  0.0782
  511W        W 4711   4.346   8.241  11.467  0.0035  0.3057  0.0763
  512W        W 4712   6.966   6.361   0.689  0.3119  0.1025  0.4620
  513W        W 4713   5.606   7.649   0.063 -0.1187  0.0043  0.0898
  514W        W 4714   2.399   8.809  12.196  0.0335  0.4097 -0.0955
  515W        W 4715   0.873   0.381  10.501  0.0967 -0.0884  0.0369
  516W        W 4716   7.788   7.076   0.861 -0.2753  0.1059 -0.0240
  517W        W 4717   1.223   3.517   0.708  0.3150 -0.2307 -0.4880
  518W        W 4718   4.981   1.166   0.818  0.0599 -0.0271  0.2108
  519W        W 4719   8.909   8.970  11.798  0.0724 -0.0564  0.7148
  520W        W 4720   9.785   5.566  12.774  0.1358  0.0387  0.1644
  521W        W 4721   7.292   7.180   0.721 -0.1584 -0.0180  0.0027
  522W        W 4722   8.305   0.739  11.806  0.2771  0.3147 -0.0059
  523W        W 4723   5.374   9.058  12.486  0.0954  0.1226  0.0685
  524W        W 4724   7.421   6.076   2.698  0.0232  0.1486  0.0636
  525W        W 4725   6.044   2.965  10.690  0.3450 -0.1972 -0.2689
  526W        W 4726   5.921   6.351   3.624 -0.3215 -0.3669 -0.3753
  527W        W 4727   7.841   5.056  12.400 -0.0619  0.2493  0.1593
  528W        W 4728   2.757   7.897   3.055 -0.0757  0.0129 -0.1058
  529W        W 4729  10.062   7.046   1.303  0.0101  0.2196  0.2898
  530W        W 4730   9.318   3.303  10.403 -0.2268 -0.0056 -0.3656
  531W        W 4731   6.075   5.319  10.197  0.1437 -0.0668 -0.3184
  532W        W 4732   5.233   9.793   2.526  0.0523  0.2363  0.2821
  533W        W 4733   7.331   9.183  11.780  0.1335  0.1852  0.0019
  534W        W 4734   6.372  10.067   9.118  0.1132  0.1463 -0.3724
  535W        W 4735   4.032   0.662   9.744 -0.1731  0.2082  0.0159
  536W        W 4736   7.378   4.725   3.745 -0.0946 -0.0106 -0.1313
  537W        W 4737   3.373   3.189   2.458  0.4740 -0.1896  0.1031
  538W        W 4738   1.250   4.133   1.890  0.0444  0.0906 -0.1918
  539W        W 4739   4.908   0.730  12.291 -0.2282 -0.3154 -0.2277
  540W        W 4740   8.782   7.398  12.306  0.0435 -0.0334  0.1566
  541W        W 4741   4.418   1.142   2.136  0.1404  0.0328 -0.2348
  542W        W 4742   2.871  10.267  11.968  0.1258 -0.3718  0.1036
  543W        W 4743   5.100   0.047   9.256 -0.0644  0.1213  0.4224
  544W        W 4744   5.123   1.626  11.706 -0.3350  0.0878 -0.0659
  545W        W 4745   6.798   5.085  12.642  0.0065  0.1306 -0.2006
  546W        W 4746  10.060   8.620   2.049  0.4071 -0.3136  0.0913
  547W        W 4747   7.080   4.322  12.980 -0.3393  0.0610  0.0896
  548W        W 4748   1.744   7.380   3.367 -0.0358 -0.0512  0.1810
  549W        W 4749   1.210   0.648  12.795  0.0663  0.2404  0.2330
  550W        W 4750   8.153  10.151   9.927 -0.3651  0.5127  0.1374
  551W        W 4751   6.127   2.467  12.629 -0.0928  0.1944  0.0399
  552W        W 4752   8.815   9.649   2.742 -0.1579  0.0597  0.1772
  553W        W 4753   2.307   1.181  12.005  0.1345  0.1242  0.2313
  554W        W 4754  10.488   4.882  10.056  0.3336 -0.1617 -0.4044
  555W        W 4755   8.003   8.969  11.240 -0.0624 -0.0052 -0.1546
  556W        W 4756   5.851   8.819   9.117 -0.1541  0.4134  0.1245
  557W        W 4757   3.823   3.591  12.251  0.0908  0.1595  0.0158
  558W        W 4758   2.499   3.241  11.106  0.1716 -0.0643 -0.0804
  559W        W 4759   5.164   6.024   3.949  0.0041  0.1171 -0.0360
  560W        W 4760   7.617   1.622   0.546 -0.1563  0.2275  0.0468
  561W        W 4761   2.130   7.799  10.847 -0.1913 -0.1886  0.4749
  562W        W 4762   9.620   4.524  10.721 -0.0719 -0.0878 -0.2433
  563W        W 4763   6.774   7.745   4.941  0.0187  0.0994  0.2988
  564W        W 4764   0.755   8.346  12.669 -0.3392 -0.3943  0.0982
  565W        W 4765   9.128   8.237   3.358 -0.0572 -0.0426 -0.0837
  566W        W 4766   6.599   6.666   0.566 -0.1274 -0.2347 -0.1276
  567W        W 4767   0.643   0.446   1.942  0.0405 -0.0250  0.0371
  568W        W 4768   8.617   4.652   9.156  0.2542 -0.0678 -0.1585
  569W        W 4769   9.330   3.725  12.789 -0.1036 -0.0201 -0.2488
  570W        W 4770   7.215   7.126  12.566 -0.3895  0.4121 -0.0976
  571W        W 4771   6.291   9.417  11.998  0.0453 -0.2869  0.3550
  572W        W 4772  10.187   3.208   3.364  0.2679 -0.2867 -0.5280
  573W        W 4773   0.243   9.663  10.151 -0.2223  0.0965 -0.1390
  574W        W 4774   5.652   5.396  10.481  0.3143 -0.1365 -0.2934
  575W        W 4775   1.739   9.308   3.112  0.1086  0.2151 -0.3439
  576W        W 4776   5.975   0.492  12.405 -0.1247  0.3353 -0.0991
  577W        W 4777   5.343   7.684  10.190 -0.0921 -0.0079  0.0433
  578W        W 4778   0.426   6.528   4.049  0.1029 -0.0479 -0.1962
  579W        W 4779   2.585   1.150   3.618  0.0632 -0.1974  0.0327
  580W        W 4780   5.152   0.895  12.803 -0.0534 -0.0455  0.1371
  581W        W 4781   7.262   1.940  10.612 -0.2420  0.1821  0.0383
  582W        W 4782   3.192   6.668   0.228  0.2313  0.2334  0.0028
  583W        W 4783   9.656   2.423   8.372  0.3348 -0.0294  0.1046
  584W        W 4784   9.128   7.809  12.421 -0.2723  0.0574 -0.0914
  585W        W 4785   6.283   9.916  12.165  0.1000 -0.0044 -0.3301
  586W        W 4786   7.114   5.902   0.574  0.1014  0.2774 -0.3839
  587W        W 4787  10.161   3.755  11.321  0.0973  0.0265  0.0157
  588W        W 4788   9.409   3.954  10.951  0.2954 -0.1553  0.2380
  589W        W 4789   2.581   9.616   3.468 -0.3409  0.0336  0.2237
  590W        W 4790   4.953   4.788  11.587  0.4344  0.0243 -0.0120
  591W        W 4791   1.669   6.668  10.794 -0.2143 -0.0353 -0.0356
  592W        W 4792   9.113   5.985   1.943  0.1240  0.2087 -0.0571
  593W        W 4793   2.712   2.179  13.130 -0.2641  0.1521  0.2605
  594W        W 4794   7.417   5.650   4.046  0.1961  0.3277 -0.5283
  595W        W 4795   7.384   2.575  12.632  0.2849  0.0842 -0.0252
  596W        W 4796   7.813   4.273   0.756 -0.1406  0.0024 -0.1539
  597W        W 4797   4.563   5.913   2.922 -0.1420 -0.0836 -0.0161
  598W        W 4798   8.615   2.572  11.703  0.0402  0.0414  0.1216
  599W        W 4799   6.053   5.910   3.340 -0.1504  0.2144 -0.3204
  600W        W 4800   4.141   6.251   9.792  0.1055 -0.0968 -0.3265
  601W        W 4801   6.284   4.941   2.791 -0.0796  0.1488 -0.0968
  602W        W 4802   5.554   8.869   0.204 -0.2859  0.2755  0.2401
  603W        W 4803   0.534   3.615   1.736 -0.0723  0.1104 -0.2965
  604W        W 4804   9.986   8.637   9.686  0.1088 -0.2442  0.0536
  605W        W 4805   1.491   4.171   4.610  0.1456 -0.0776  0.0841
  606W        W 4806   2.655   4.351   9.120  0.0046 -0.0289 -0.0892
  607W        W 4807   3.602  10.271   4.274 -0.1421 -0.1578 -0.0477
  608W        W 4808   4.184   8.491   2.933  0.1875  0.1953  0.1178
  609W        W 4809   6.133   9.771   3.670 -0.0867 -0.0608  0.0664
  610W        W 4810   5.614   6.235   2.603 -0.0281  0.1481 -0.1369
  611W        W 4811   2.141   9.191  11.076  0.1124 -0.1550 -0.2185
  612W        W 4812   3.429   4.032   1.235  0.1307 -0.0490  0.1362
  613W        W 4813   5.241   0.357  12.823  0.0249  0.0716 -0.2904
  614W        W 4814   9.733   5.954  12.302 -0.3326  0.3445  0.2768
  615W        W 4815   3.498   6.802   1.635 -0.4010 -0.0162  0.0632
  616W        W 4816   5.604   1.620  12.463 -0.1670 -0.0990 -0.0448
  617W        W 4817   6.592   5.647   1.867  0.0254 -0.0068  0.1788
  618W        W 4818   8.657   1.621  13.022 -0.0184  0.0580 -0.4177
  619W        W 4819   9.034   5.261   2.545 -0.0359  0.1231  0.2739
  620W        W 4820   8.677   8.367  10.920  0.0482 -0.0643 -0.2544
  621W        W 4821   9.133   2.386   3.703 -0.0744 -0.4053  0.0960
  622W        W 4822   1.334   3.759   2.291 -0.1258  0.0604 -0.0936
  623W        W 4823   3.136   1.188   3.483 -0.0452  0.2157 -0.1742
  624W        W 4824   7.963   9.148   9.317  0.4543 -0.4790 -0.1152
  625W        W 4825   8.080   5.032  11.444  0.0428 -0.0220 -0.5118
  626W        W 4826   6.459   8.535   8.461  0.0981  0.1818 -0.0173
  627W        W 4827   9.434   2.218   0.446 -0.4154 -0.2114  0.1889
  628W        W 4828   6.182   6.378   4.781  0.0353 -0.2805  0.0625
  629W        W 4829   3.387   5.587  11.271  0.1509 -0.0745  0.3481
  630W        W 4830   8.649   1.764   2.958 -0.0917 -0.4147 -0.0873
  631W        W 4831   8.596   2.179   0.878 -0.0747  0.1637  0.0406
  632W        W 4832   3.089   5.099   2.212 -0.1481 -0.0414 -0.1170
  633W        W 4833   9.796  10.099  12.128 -0.2231  0.4533  0.0445
  634W        W 4834   7.480   2.375   9.240  0.0940 -0.1908 -0.0069
  635W        W 4835   0.628   8.960   3.728  0.0395 -0.3177  0.3025
  636W        W 4836   2.185   2.020   4.585  0.0925  0.3757 -0.0055
  637W        W 4837   1.330   2.138  11.044  0.2165 -0.0331  0.1885
  638W        W 4838  10.070   7.216   9.435  0.2302 -0.1677 -0.2447
  639W        W 4839   6.712   3.633  11.096 -0.2530 -0.0441 -0.3666
  640W        W 4840  10.062   0.778  12.123  0.0436 -0.1387  0.1591
  641W        W 4841   8.568   2.389  13.336  0.2257 -0.0256 -0.2018
  642W        W 4842   5.320   0.126   4.106 -0.2239  0.0853  0.1190
  643W        W 4843   5.290   9.652   4.009  0.1309 -0.1583 -0.4199
  644W        W 4844   6.037   8.297  10.183 -0.1449  0.2896 -0.0351
  645W        W 4845   7.064   1.054   8.982 -0.1081  0.1557  0.0202
  646W        W 4846   9.293   2.940  12.191  0.3983  0.0472  0.0731
  647W        W 4847   7.391   9.411   0.258  0.3377  0.1374 -0.0698
  648W        W 4848   1.738   7.070  12.859 -0.3411  0.0126 -0.2301
  649W        W 4849   5.605   7.167   3.109  0.2247 -0.1857  0.1862
  650W        W 4850  10.020   7.216   3.497 -0.0082  0.3763  0.3940
  651W        W 4851   9.446   9.291   1.339  0.0921  0.3103 -0.3249
  652W        W 4852   3.652   0.138   1.606  0.0793  0.1384  0.1834
  653W        W 4853   3.639   9.275   0.760 -0.2292  0.0705 -0.0770
  654W        W 4854   2.187   7.142  10.214  0.0014 -0.0224  0.0360
  655W        W 4855   5.601   2.397  11.620 -0.1134  0.0252 -0.3995
  656W        W 4856   6.493   0.347   1.225 -0.1732 -0.1199 -0.1197
  657W        W 4857   7.215   8.184   0.338  0.0381  0.0456  0.3098
  658W        W 4858   6.533   9.703  10.970  0.1691 -0.1859 -0.0930
  659W        W 4859   4.438   1.306  12.812 -0.1695 -0.1165 -0.5721
  660W        W 4860   6.312   2.753   1.340  0.2562  0.0258  0.2283
  661W        W 4861   6.931   2.887  10.329 -0.1297  0.2369 -0.2563
  662W        W 4862   6.494   7.695   3.550 -0.1616  0.3420  0.2020
  663W        W 4863   6.950   3.550  12.676  0.0251  0.0492  0.0751
  664W        W 4864   7.864   7.117  12.708  0.3210  0.1862  0.0977
  665W        W 4865   7.165  10.214   3.302 -0.0279  0.0930  0.1150
  666W        W 4866   7.698   5.697   2.678 -0.0090 -0.0306  0.1631
  667W        W 4867   2.995   9.534   1.910 -0.2511 -0.3141  0.0680
  668W        W 4868   5.302   0.649  11.823  0.0861 -0.2158 -0.3305
  669W        W 4869   4.246  10.411  11.195  0.0319  0.1282 -0.2016
  670W        W 4870   3.191   0.532   1.532 -0.0476  0.0397 -0.1902
  671W        W 4871   5.248   6.246   1.541  0.0076 -0.1107 -0.0580
  672W        W 4872   5.768   2.529   3.749  0.0818  0.2819  0.2126
  673W        W 4873  10.221   9.684   9.955  0.0407 -0.1931 -0.1627
  674W        W 4874   9.539   8.234   9.899  0.2253 -0.1272 -0.1857
  675W        W 4875   7.914   5.022   9.891  0.5379 -0.0992  0.2022
  676W        W 4876   3.769   1.921   3.831  0.0350  0.0184 -0.1938
  677W        W 4877   1.462  10.187  12.758 -0.0019 -0.0095 -0.0669
  678W        W 4878   0.622   7.134   9.334  0.0185 -0.2447 -0.1412
  679W        W 4879  10.339   0.130   0.783  0.2453 -0.0810 -0.1052
  680W        W 4880   7.689   7.581  13.222  0.0088 -0.2025 -0.0117
  681W        W 4881   1.651   3.989  12.455  0.2092  0.1162 -0.2784
  682W        W 4882   4.119   3.110  13.274 -0.0108  0.2750 -0.2716
  683W        W 4883   7.304   5.561   1.059 -0.1594  0.0563 -0.4020
  684W        W 4884  10.333   5.748   1.403  0.0195 -0.0764 -0.0956
  685W        W 4885   5.195   9.912  12.557  0.0031  0.0442 -0.1641
  686W        W 4886   7.867   0.129   3.866  0.1143 -0.2113 -0.1654
  687W        W 4887   4.466   6.843   3.731  0.0487  0.0045  0.2025
  688W        W 4888   8.818   4.735   4.435 -0.0951  0.0594 -0.3990
  689W        W 4889   5.368   0.066  11.024 -0.0348  0.1927  0.1260
  690W        W 4890   7.927  10.199   1.211  0.0107  0.0583  0.0622
  691W        W 4891   1.608   5.275   0.844  0.1172  0.2040 -0.0289
  692W        W 4892   7.223  10.175   4.422  0.2341  0.0031  0.4155
  693W        W 4893   8.463   7.120   2.866 -0.0448  0.0720  0.1072
  694W        W 4894   0.865   2.607   1.430  0.1604  0.3744  0.3039
  695W        W 4895   2.979   6.596   1.956 -0.1178 -0.1899 -0.0825
  696W        W 4896   8.972   5.746   0.424 -0.0754 -0.0432  0.2118
  697W        W 4897   6.695   6.572   2.776  0.0038 -0.1660 -0.1355
  698W        W 4898   2.528   3.937   9.942 -0.0595  0.0060 -0.3574
  699W        W 4899   7.040   0.867   9.521  0.1401 -0.1055  0.0262
  700W        W 4900   6.250   1.312   3.037 -0.0266  0.0165  0.1123
  701W        W 4901   9.286   1.746   0.973  0.1801  0.4416  0.0516
  702W        W 4902  10.326   5.587   0.267  0.0286 -0.1035  0.2136
  703W        W 4903   5.233   5.781   9.782  0.0202 -0.1070 -0.1627
  704W        W 4904   0.930   5.474  12.389 -0.0388 -0.0742 -0.2633
  705W        W 4905   4.302   1.949  12.697  0.0541  0.0368  0.1607
  706W        W 4906   8.672   5.103   1.783 -0.1863  0.2880  0.3858
  707W        W 4907   0.522   4.374   3.400 -0.2133 -0.0466  0.2724
  708W        W 4908   8.114   6.964   0.460  0.0115 -0.2704 -0.1426
  709W        W 4909   0.553   0.675   3.252 -0.0315  0.0954  0.3139
  710W        W 4910   9.675   4.681   3.425 -0.1604 -0.0814 -0.2386
  711W        W 4911   2.906  10.000   0.402 -0.1411  0.0804  0.1534
  712W        W 4912   6.307   8.725  10.877  0.1659  0.0893  0.0386
  713W        W 4913   3.931   4.337  11.235 -0.0200 -0.0901  0.1066
  714W        W 4914   2.716   7.794  10.999 -0.0774  0.1102 -0.4696
  715W        W 4915   1.207   2.637  11.905 -0.0644  0.1366  0.1312
  716W        W 4916   8.031   8.751   2.246  0.1026 -0.0209  0.2318
  717W        W 4917   3.519   2.854   8.059  0.2622 -0.0280 -0.0066
  718W        W 4918   6.386   5.297  12.915  0.4159  0.1500  0.3271
  719W        W 4919   5.227   3.320   3.889  0.0786  0.2242 -0.0227
  720W        W 4920   5.556   6.289   1.079 -0.1356 -0.0214  0.1909
  721W        W 4921   1.081   5.746   9.636 -0.1257 -0.1196 -0.1414
  722W        W 4922   4.570  10.308   3.325 -0.0962 -0.2839 -0.0587
  723W        W 4923   1.319  10.003   2.097  0.0514  0.0923 -0.0554
  724W        W 4924   5.060   5.470  10.641 -0.2367 -0.2136  0.4825
  725W        W 4925   2.746   4.902   2.438  0.1654  0.1434 -0.0488
  726W        W 4926   7.200   4.687  12.075  0.0223 -0.1432  0.2044
  727W        W 4927   9.594   8.649   1.890 -0.1083 -0.1659  0.1785
  728W        W 4928   1.529   5.707   8.670 -0.1475  0.0096  0.0873
  729W        W 4929   3.672   1.115   0.326  0.0981 -0.0633 -0.1057
  730W        W 4930   2.323   4.689   8.199  0.1614  0.1901 -0.0954
  731W        W 4931  10.052   9.014   0.533  0.1403 -0.2888  0.1460
  732W        W 4932   4.071   7.139   9.642  0.0082  0.0456  0.0186
  733W        W 4933   3.368   3.982   1.708 -0.2442 -0.1469  0.1305
  734W        W 4934   3.399   6.273  11.790 -0.2754  0.0672  0.0075
  735W        W 4935   2.189   4.088  10.398 -0.3048  0.1655  0.3305
  736W        W 4936   3.522   3.629   8.885 -0.1674 -0.2115 -0.2363
  737W        W 4937   6.372   5.762   9.301  0.2775 -0.2684 -0.1982
  738W        W 4938   5.843   7.755   4.225  0.0877 -0.4260 -0.0744
  739W        W 4939   1.457   0.711   0.761  0.2488  0.0764  0.1096
  740W        W 4940   6.449   9.626   2.251  0.0772 -0.0263  0.4414
  741W        W 4941   1.639   8.232   3.064 -0.0540 -0.1715  0.1688
  742W        W 4942   8.715   4.603  10.430 -0.1582  0.1318 -0.1775
  743W        W 4943   0.614   3.034  12.009  0.3724 -0.0932 -0.1413
  744W        W 4944   6.052   9.464   9.772  0.1931 -0.2117 -0.2568
  745W        W 4945   0.146   8.568  12.843 -0.1518  0.1774 -0.2810
  746W        W 4946   4.059   4.568   3.530 -0.1613 -0.1066  0.1979
  747W        W 4947   7.210   8.448  10.805  0.0966  0.1045  0.0140
  748W        W 4948   2.188   8.095   3.230 -0.4154  0.1211  0.1392
  749W        W 4949   6.102   9.312  12.426 -0.1802  0.0271 -0.2990
  750W        W 4950   2.929  10.478   2.851 -0.2253  0.2391 -0.0302
  751W        W 4951   1.052   5.951   0.887 -0.2252  0.1092  0.2519
  752W        W 4952   0.895   1.706   0.009  0.1354 -0.0093  0.1700
  753W        W 4953   2.295   4.043   9.316 -0.2050 -0.3120  0.1093
  754W        W 4954   0.404   3.845   3.331  0.1850  0.0476  0.1438
  755W        W 4955   4.606   7.972   9.107 -0.3041 -0.0618  0.0278
  756W        W 4956   9.369   6.479   0.362  0.0741 -0.2416  0.1329
  757W        W 4957   7.341   3.947   1.145  0.2225  0.0809 -0.3283
  758W        W 4958  10.221   6.798   0.349  0.1757 -0.2267 -0.0010
  759W        W 4959   6.040   3.678  12.304  0.2461 -0.0948  0.0056
  760W        W 4960   0.720  10.436   0.705 -0.0749  0.1309  0.1220
  761W        W 4961   9.463   2.864  11.741 -0.2277 -0.0444  0.1107
  762W        W 4962   8.603   7.968   1.283  0.2288  0.0609  0.0880
  763W        W 4963   6.647   1.330   1.427 -0.0605 -0.1797  0.2723
  764W        W 4964   6.895   9.136   2.690 -0.0675 -0.1789  0.0097
  765W        W 4965   4.041   7.249   1.416 -0.0340 -0.2373  0.3407
  766W        W 4966   3.395   2.327  10.078  0.2086  0.1358 -0.1506
  767W        W 4967   6.511  10.119  11.261  0.0703 -0.3292  0.2275
  768W        W 4968   5.084   8.753  12.168 -0.0260 -0.0655 -0.0832
  769W        W 4969   7.434   7.509   1.960  0.0484  0.1386 -0.0520
  770W        W 4970   6.092   0.370   0.925 -0.1831 -0.1118  0.1711
  771W        W 4971   1.974   8.229   0.024  0.0385 -0.0618  0.0247
  772W        W 4972   9.274   4.936   3.499  0.1686 -0.0685 -0.1822
  773W        W 4973   2.939   1.056  10.182 -0.3552  0.0182 -0.0965
  774W        W 4974   1.673   0.400  10.883  0.3146  0.1928 -0.2736
  775W        W 4975   4.954   3.605  10.263  0.1875 -0.0416  0.2460
  776W        W 4976   5.836   1.088  13.175 -0.2793 -0.0923 -0.2032
  777W        W 4977   9.761   5.274  11.492 -0.2093 -0.5081  0.0471
  778W        W 4978   0.796   1.294  10.870 -0.0818 -0.1101 -0.0668
  779W        W 4979   3.117   4.856  11.836  0.4310 -0.0002 -0.1951
  780W        W 4980   6.652   1.172   9.754 -0.0367  0.1971  0.1110
  781W        W 4981   1.971   3.989   8.954 -0.0959 -0.1859 -0.0132
  782W        W 4982   4.684   5.631  12.515 -0.1447 -0.3926 -0.0904
  783W        W 4983   1.489   3.204   2.126 -0.0671  0.1787 -0.1817
  784W        W 4984   3.389   1.453  11.148 -0.2622 -0.1207 -0.2278
  785W        W 4985   5.550   9.808  10.864  0.0162  0.2402  0.1003
  786W        W 4986   0.647   0.410  12.775 -0.0067 -0.1709 -0.2355
  787W        W 4987   0.652   1.103   9.994 -0.1305 -0.1939 -0.0593
  788W        W 4988   7.326   8.534   0.666 -0.0260 -0.0708 -0.0033
  789W        W 4989   3.607   1.360   2.588 -0.2071 -0.1958 -0.3623
  790W        W 4990   1.948   4.878   9.041 -0.0795 -0.2178 -0.2506
  791W        W 4991   6.810   3.012   2.919 -0.0591 -0.2310 -0.1049
  792W        W 4992   1.015   3.012   3.444  0.0095 -0.1459  0.2500
  793W        W 4993   4.092   2.646   4.074  0.3010  0.0088  0.1708
  794W        W 4994   3.285   8.882   3.484  0.1352  0.2510 -0.0702
  795W        W 4995   0.664   4.867  13.080 -0.4204 -0.1127  0.0020
  796W        W 4996   6.187   8.085   3.882 -0.1875 -0.2108  0.1335
  797W        W 4997   9.605   3.368  10.001 -0.3416 -0.0063  0.1863
  798W        W 4998   9.454   5.149   1.263  0.1710  0.3232 -0.1523
  799W        W 4999   9.043   4.209   5.159  0.1539 -0.2806 -0.1789
  800W        W 5000   0.520   4.208   2.285  0.3750 -0.1609  0.2198
  801W        W 5001   9.533   4.454   3.013  0.0279  0.0580  0.1944
  802W        W 5002   6.850   1.771   2.258 -0.4599 -0.1285  0.1634
  803W        W 5003   8.616   8.025   3.890 -0.0813 -0.2124  0.2575
  804W        W 5004   6.910   3.015   1.400 -0.1847  0.1082  0.0634
  805W        W 5005  10.415   4.281   9.083 -0.1057 -0.2373 -0.0756
  806W        W 5006   4.296   7.170   9.190 -0.3001 -0.1005  0.1721
  807W        W 5007   0.143   4.473  12.442 -0.0921  0.4231  0.0752
  808W        W 5008   7.073   5.484  10.162  0.0323 -0.0929 -0.0305
  809W        W 5009   5.265   4.984   9.246 -0.0045  0.1203 -0.1693
  810W        W 5010   6.057   6.853  11.550  0.1330  0.3666 -0.3309
  811W        W 5011  10.444   9.975  10.359 -0.1504  0.0909 -0.1652
  812W        W 5012   4.875   1.034   1.322 -0.1391 -0.1205  0.3364
  813W        W 5013   2.276   0.827   2.827  0.0650  0.2211  0.1416
  814W        W 5014   0.726   5.062   4.225  0.1365 -0.0216  0.2689
  815W        W 5015   6.633   8.553  12.897 -0.0534  0.2756 -0.0635
  816W        W 5016   6.019   4.451   4.317  0.1828 -0.0892  0.0360
  817W        W 5017   3.196   6.164  13.264 -0.1299 -0.3391 -0.1513
  818W        W 5018   5.115   6.314   2.617 -0.1309 -0.1249  0.4495
  819W        W 5019   8.637   9.408  11.496 -0.1790  0.2205  0.0244
  820W        W 5020   9.185   1.204  12.790  0.1218  0.1675  0.0238
  821W        W 5021   0.879   7.045   3.848  0.2561 -0.0765 -0.0368
  822W        W 5022   2.356   9.206   0.164 -0.0903 -0.0431  0.1041
  823W        W 5023   6.007   5.488   2.508 -0.1642 -0.0499  0.0765
  824W        W 5024   7.350   9.996   9.674 -0.0098  0.2795  0.0144
  825W        W 5025   4.801  10.021   0.954  0.1119  0.0581  0.0123
  826W        W 5026   8.111   1.628   0.780 -0.2016 -0.2659 -0.0737
  827W        W 5027   5.269   0.609   4.286 -0.0556  0.2921  0.2791
  828W        W 5028   7.358   2.607   0.574 -0.0314 -0.1518 -0.1065
  829W        W 5029   1.040   8.700   0.812  0.1327  0.2181 -0.4350
  830W        W 5030   2.402   8.988   2.357 -0.0232 -0.0719 -0.0144
  831W        W 5031   6.692   1.484   0.545 -0.0519 -0.1419 -0.0240
  832W        W 5032   2.592   1.232  12.558  0.3480 -0.3326 -0.0750
  833W        W 5033   4.362   0.810  10.198 -0.0784  0.0542 -0.1810
  834W        W 5034   5.129   6.323   0.152  0.2395 -0.1057 -0.0864
  835W        W 5035   1.888  10.481  12.105 -0.1970  0.2464  0.2969
  836W        W 5036   5.728   9.099   5.157 -0.0191 -0.2932 -0.3583
  837W        W 5037   7.867   4.830   9.220  0.0575 -0.3056 -0.0640
  838W        W 5038   3.538   3.538   2.762  0.0871  0.1255 -0.1455
  839W        W 5039  10.225   3.264   2.886  0.0795  0.1359 -0.0653
  840W        W 5040   3.252   9.942   2.265 -0.2324 -0.0897  0.2945
  841W        W 5041   1.456   5.098   9.577  0.0450  0.0842 -0.4603
  842W        W 5042   6.925   6.364   1.390  0.5189 -0.0472  0.0301
  843W        W 5043   8.877   6.276  13.071  0.1693 -0.2474  0.0790
  844W        W 5044   9.204   6.262  12.732  0.1358  0.1421 -0.2750
  845W        W 5045   4.012   6.830   3.899 -0.1640  0.2914  0.0674
  846W        W 5046   7.633   0.083   0.945 -0.3473 -0.0107 -0.0902
  847W        W 5047   4.724   0.974   4.981  0.3560  0.2442  0.2924
  848W        W 5048   4.135   3.221   4.121 -0.0623  0.0055  0.0270
  849W        W 5049   2.570   2.298  12.560 -0.3252 -0.0668  0.1152
  850W        W 5050   1.661   2.732  10.136 -0.0955 -0.2779  0.2690
  851W        W 5051   6.993   5.310   1.539 -0.0289  0.0348 -0.0047
  852W        W 5052   0.991   1.026   1.630  0.1435  0.1530 -0.0730
  853W        W 5053   3.549   7.050   3.688  0.2796 -0.1610 -0.1510
  854W        W 5054   8.046   3.173   5.110  0.0595  0.1435  0.1637
  855W        W 5055   5.963   2.080   0.854  0.0643 -0.0420 -0.0265
  856W        W 5056   0.213   9.567  10.621 -0.0277 -0.0405  0.1392
  857W        W 5057   2.434   1.754   0.827 -0.1554  0.0811  0.2351
  858W        W 5058   1.862   7.526  12.170 -0.0794 -0.0859  0.3628
  859W        W 5059   2.812   5.763   4.341  0.1342  0.3343  0.0266
  860W        W 5060   8.399   8.265   0.009  0.1054 -0.3807  0.1604
  861W        W 5061   7.673   4.556   5.125  0.4250  0.0818  0.0036
  862W        W 5062   2.016   6.292  10.683  0.1842  0.2688 -0.0439
  863W        W 5063   6.527   5.718  11.022 -0.0277 -0.1279 -0.1350
  864W        W 5064   2.933   4.786  10.292  0.0653  0.1498  0.0659
  865W        W 5065   8.970   1.032   3.550 -0.3923 -0.0426  0.0763
  866W        W 5066   7.968   4.920   2.536 -0.2036 -0.0278 -0.1697
  867W        W 5067   5.705   3.080   3.647 -0.2282 -0.1127 -0.0931
  868W        W 5068  10.145   3.978   3.483  0.2956 -0.1522  0.3315
  869W        W 5069   3.444   9.400   3.443 -0.1522  0.1681  0.1572
  870W        W 5070   8.348   1.495  11.474  0.0260  0.1260  0.1341
  871W        W 5071   7.452   4.673   0.884 -0.4771 -0.2019  0.1104
  872W        W 5072  10.481   8.097   3.687 -0.1233  0.4080  0.1278
  873W        W 5073   8.029   3.440   2.636 -0.4421 -0.1230 -0.0582
  874W        W 5074   6.323  10.216  12.797  0.1195 -0.2255 -0.0422
  875W        W 5075   2.024   3.148   1.368 -0.1984  0.1519 -0.3538
  876W        W 5076   0.868   1.206   1.202 -0.0441  0.1486  0.6054
  877W        W 5077   3.140   4.861   4.279 -0.1510 -0.1073 -0.2501
  878W        W 5078   6.344   6.441   8.690  0.0723 -0.4781  0.1445
  879W        W 5079  10.424   3.752   1.010  0.0429  0.0122  0.1389
  880W        W 5080   3.052   4.233   2.639  0.2452 -0.0009  0.0831
  881W        W 5081   8.536   9.625  12.237  0.0106  0.2092 -0.2668
  882W        W 5082   9.642   9.967   0.658  0.2012  0.1017 -0.0636
  883W        W 5083   9.459   8.943   3.823 -0.1634 -0.0445  0.1113
  884W        W 5084   0.214   5.476  13.279 -0.0379  0.0229  0.0295
  885W        W 5085   7.509   5.488  10.327  0.2190 -0.3044  0.0501
  886W        W 5086   1.924   1.148  10.330  0.0086  0.1444  0.1135
  887W        W 5087   4.004   7.678   4.272 -0.0087  0.0024 -0.0037
  888W        W 5088   8.265   5.943   3.441 -0.4950  0.1758  0.0751
  889W        W 5089   3.203   7.454   2.284  0.1644 -0.1657  0.0216
  890W        W 5090   7.701   0.653  12.304  0.0026  0.0736  0.2703
  891W        W 5091   3.415   3.411  11.377  0.1181  0.1425  0.1028
  892W        W 5092   8.134   5.367   8.922  0.2502 -0.3325  0.0662
  893W        W 5093   4.510   4.354   1.328  0.2096 -0.0892 -0.1905
  894W        W 5094   5.996   8.355   0.871  0.2419  0.1204  0.2012
  895W        W 5095   8.432   3.659   2.983 -0.1221  0.1728  0.2621
  896W        W 5096   9.112   0.859  11.981  0.0178 -0.1163  0.2234
  897W        W 5097   1.485   5.648   4.369  0.0013  0.2077 -0.0619
  898W        W 5098   7.392   4.857   3.186  0.0351 -0.0713 -0.1100
  899W        W 5099   9.894  10.412   1.677  0.0898 -0.0530 -0.5430
  900W        W 5100   2.814   7.800   1.209  0.1577 -0.1540 -0.0270
  901W        W 5101   2.758   2.638   0.443 -0.3765 -0.0717  0.0292
  902W        W 5102   0.573   2.390   9.869  0.1149  0.0262 -0.1909
  903W        W 5103   3.144   6.775  12.460 -0.1955  0.0903  0.1367
  904W        W 5104   6.244   2.691  11.072 -0.0715 -0.1098  0.0094
  905W        W 5105   3.719   2.605  11.301  0.0911 -0.2437 -0.0500
  906W        W 5106   8.155  10.235  11.011  0.0928 -0.1868  0.2243
  907W        W 5107   9.900   0.218   2.464 -0.0523  0.0789 -0.2288
  908W        W 5108   2.846   5.710   8.886 -0.1836 -0.0707 -0.1790
  909W        W 5109   0.076   8.263   4.164  0.0223 -0.0022  0.2789
  910W        W 5110   7.350   9.202   4.305 -0.0464  0.1989 -0.1354
  911W        W 5111   0.048  10.297   2.699 -0.3465  0.1982  0.1034
  912W        W 5112   1.063   6.907   2.895 -0.3144 -0.1888  0.0884
  913W        W 5113   4.623   6.434   2.749  0.1396  0.1563  0.0413
  914W        W 5114   4.836   8.995   4.339 -0.2032  0.3868  0.1142
  915W        W 5115   2.806   8.066  13.132 -0.3760 -0.2269 -0.4074
  916W        W 5116   5.619   4.088   1.904 -0.2518 -0.2361  0.1028
  917W        W 5117   7.607   8.017   3.181  0.0246  0.0585  0.0442
  918W        W 5118   0.736  10.003   2.125  0.2172 -0.1012 -0.2682
  919W        W 5119   4.354  10.395   9.679  0.1907 -0.2282  0.0555
  920W        W 5120  10.173   0.646   1.807 -0.3244  0.1251  0.2369
  921W        W 5121   4.640   9.734  10.218  0.0174  0.1183  0.0100
  922W        W 5122   4.009   0.426  12.533 -0.2758  0.0468  0.1213
  923W        W 5123   1.692   5.760   3.044  0.2372  0.0159 -0.0877
  924W        W 5124   0.353   3.591   4.274 -0.0136  0.0475  0.0347
  925W        W 5125   5.113   0.873   8.686 -0.2140  0.0141 -0.4784
  926W        W 5126   7.607   2.182  11.330  0.2687 -0.4201 -0.2236
  927W        W 5127   2.059   0.638  10.654 -0.0405 -0.1519  0.0902
  928W        W 5128   5.438   8.230   1.654  0.1798 -0.0307  0.1115
  929W        W 5129   0.469   5.080   9.393  0.0760 -0.0911 -0.3211
  930W        W 5130   4.365   2.699  13.047 -0.5043  0.0301  0.0831
  931W        W 5131   6.614   6.636  12.674 -0.1197  0.0153  0.0065
  932W        W 5132   2.872   1.491   3.900 -0.1433  0.2213  0.0311
  933W        W 5133   8.329   0.834   0.289  0.2312  0.0464  0.0012
  934W        W 5134   4.694   0.441   1.721 -0.0215 -0.1261 -0.0905
  935W        W 5135   9.774   5.310   0.046  0.4238  0.0840 -0.0940
  936W        W 5136   1.122   5.650   2.985 -0.0165  0.1303  0.2397
  937W        W 5137   5.760   8.657  10.490  0.0586 -0.0635  0.2120
  938W        W 5138   3.924   3.460   2.343  0.0560  0.0518 -0.0799
  939W        W 5139   8.403   9.798   8.807 -0.2393  0.0783 -0.0292
  940W        W 5140   9.271   8.241   1.702  0.0911 -0.0847 -0.0576
  941W        W 5141   0.942   3.318   2.066 -0.2526 -0.0863  0.0003
  942W        W 5142   9.934   0.515  10.375  0.0794  0.0305 -0.0283
  943W        W 5143   4.951   8.084  12.778 -0.0969  0.1231  0.1041
  944W        W 5144   5.885   9.066  13.209 -0.0374 -0.1462  0.2662
  945W        W 5145   2.643   3.446   0.738 -0.1803  0.1783  0.1662
  946W        W 5146   1.657   6.980   1.277 -0.1091  0.2499 -0.0156
  947W        W 5147   0.745   5.194   4.835  0.0619  0.2796  0.0674
  948W        W 5148   8.252   4.282  10.444 -0.3121  0.1347 -0.1189
  949W        W 5149   2.048   4.753  13.204  0.1157  0.0701  0.0748
  950W        W 5150   8.372   5.815  13.004  0.2942 -0.0940  0.1966
  951W        W 5151   7.390   6.681   0.771 -0.1272 -0.1587  0.3272
  952W        W 5152   4.029   4.816  11.443 -0.4681 -0.0677  0.0591
  953W        W 5153   6.996   4.037  12.542 -0.2430 -0.0249  0.0274
  954W        W 5154   7.279   7.935   4.665 -0.0788  0.0151 -0.1138
  955W        W 5155   7.548   2.771   8.919 -0.0513 -0.2275  0.0212
  956W        W 5156   4.310   0.900   4.722 -0.0069  0.2680 -0.0820
  957W        W 5157   5.235   7.545   0.392  0.1446 -0.0933  0.2635
  958W        W 5158   9.244   2.557  10.917 -0.2586  0.0054 -0.0923
  959W        W 5159   5.475   7.717   3.856 -0.0687  0.1626  0.1983
  960W        W 5160   5.924   2.073  11.870  0.0330  0.0464 -0.0879
  961W        W 5161   5.879   2.947   9.688  0.1370 -0.1375 -0.0381
  962W        W 5162   3.808   1.318  13.173 -0.3501 -0.0536  0.2810
  963W        W 5163   0.092   5.544  11.201 -0.0142 -0.2070  0.0981
  964W        W 5164  10.377   2.608   2.674 -0.2410  0.0620  0.2624
  965W        W 5165   8.328   7.201   9.446  0.0675 -0.1667  0.0794
  966W        W 5166   9.974  10.070  11.369 -0.1855 -0.1581  0.2965
  967W        W 5167   9.333   4.385   3.626 -0.2033 -0.2465 -0.0755
  968W        W 5168   0.639   9.258  11.923  0.3816  0.1417 -0.5868
  969W        W 5169   7.229   4.430   1.922  0.2581 -0.1869  0.2615
  970W        W 5170   2.951   2.718  11.298 -0.1264  0.3211  0.2810
  971W        W 5171   7.543   8.274   5.373 -0.2537 -0.0938  0.0731
  972W        W 5172   3.937   7.956  11.718  0.0859  0.1402 -0.1316
  973W        W 5173   1.490   3.509  10.629  0.0351  0.2958 -0.1265
  974W        W 5174   1.284   7.287  11.456 -0.0982  0.1056 -0.1130
  975W        W 5175   2.649   7.407  13.194  0.2615 -0.1853 -0.0078
  976W        W 5176   1.741   9.973  11.956  0.1206  0.0319 -0.0983
  977W        W 5177   1.710   9.740   1.126 -0.0976 -0.0511 -0.1565
  978W        W 5178   6.971   5.432   3.840  0.1575 -0.1283 -0.0484
  979W        W 5179   2.153   2.267   9.065  0.0475 -0.0254 -0.1493
  980W        W 5180   4.640   4.415   4.480 -0.1247 -0.0337 -0.0650
  981W        W 5181   1.894   2.370   0.832  0.2211 -0.1968 -0.0438
  982W        W 5182   7.484   3.215   3.926  0.1483  0.0542 -0.1248
  983W        W 5183   0.991   7.052  11.844  0.0919  0.0971 -0.2013
  984W        W 5184   2.294  10.046  11.794 -0.0739  0.0424  0.2427
  985W        W 5185   0.567   8.679  10.135  0.0206 -0.1913  0.3492
  986W        W 5186   7.183   5.352   0.593 -0.1457 -0.1625  0.0800
  987W        W 5187   1.073   8.467   2.287  0.2747  0.0603  0.0022
  988W        W 5188   7.318   2.690   1.460 -0.1722 -0.2628 -0.0018
  989W        W 5189   9.193   4.707   9.871  0.1616  0.2205 -0.0113
  990W        W 5190   1.218   4.912   1.711  0.0561 -0.1471  0.2415
  991W        W 5191   1.910   7.817   2.837 -0.1885 -0.1865 -0.1947
  992W        W 5192   9.334   0.140   1.794 -0.4664 -0.1831  0.0264
  993W        W 5193   4.682   7.442   0.190  0.1017 -0.3680  0.0232
  994W        W 5194   5.346   7.083   2.696 -0.1766  0.2849  0.1021
  995W        W 5195   8.801   6.787   8.199  0.1938  0.1644  0.1164
  996W        W 5196  10.032   9.161   1.045 -0.1693  0.1333 -0.1067
  997W        W 5197   3.086   5.509  12.596 -0.1026  0.3341  0.0649
  998W        W 5198   7.365   3.906  11.494  0.1146 -0.1316  0.0559
  999W        W 5199   3.438   9.644   3.015 -0.0554 -0.0370  0.1755
 1000W        W 5200   4.614   9.146  11.233  0.0844 -0.0226 -0.0218
 1001W        W 5201   7.376   9.734   4.205  0.0738  0.0604 -0.2070
 1002W        W 5202   7.846   9.435   1.681  0.0420 -0.0908 -0.2715
 1003W        W 5203   5.064   0.540   9.812 -0.0641  0.0494  0.1373
 1004W        W 5204   8.414   6.242   2.465 -0.0493  0.1929 -0.0527
 1005W        W 5205   2.243   1.298   1.059  0.0671 -0.1389  0.2455
 1006W        W 5206   0.577   3.732  12.759 -0.3040  0.1276 -0.1269
 1007W        W 5207   0.592   5.940  10.548 -0.1615  0.1628  0.2822
 1008W        W 5208   5.358   6.821   1.857 -0.1803  0.1820 -0.0656
 1009W        W 5209   5.703  10.238  11.164  0.2479  0.3460  0.1135
 1010W        W 5210   9.924   7.666   9.383  0.1859 -0.3304 -0.3096
 1011W        W 5211   9.030   9.986  12.068 -0.0690  0.0246  0.0608
 1012W        W 5212   0.875   4.221   2.608  0.0434  0.0313  0.2368
 1013W        W 5213   1.149   8.450   1.802  0.0200 -0.1855 -0.0181
 1014W        W 5214   4.850   3.683   3.989 -0.0617 -0.2856 -0.3302
 1015W        W 5215   5.893   9.678   5.086 -0.0859  0.1110 -0.0135
 1016W        W 5216   7.504   2.088   0.685 -0.0602  0.1291  0.1491
 1017W        W 5217   3.861   5.402   3.579 -0.2387  0.0320  0.0491
 1018W        W 5218   8.313   5.994  10.643  0.0489  0.0270 -0.0716
 1019W        W 5219   9.183  10.223   1.333 -0.0710 -0.0549 -0.1560
 1020W        W 5220  10.063   4.670  11.660  0.1495  0.1677 -0.1078
 1021W        W 5221   2.255   4.959  10.942 -0.1219 -0.1621 -0.0022
 1022W        W 5222   2.212   6.977   4.138 -0.1601 -0.0392  0.1182
 1023W        W 5223   5.837  10.007   4.642 -0.2584 -0.1908 -0.0149
 1024W        W 5224   8.288   2.024   2.321 -0.0480 -0.0495  0.1460
 1025W        W 5225   7.381   4.289  12.350  0.2867 -0.0831  0.2275
 1026W        W 5226   8.318   8.571   9.997 -0.1680  0.2251  0.2544
 1027W        W 5227   1.501   2.759  11.112  0.1802  0.0333  0.1256
 1028W        W 5228   5.209   5.419   4.831  0.3757  0.1987 -0.0070
 1029W        W 5229   5.447   8.368  13.181  0.0324  0.0928 -0.0771
 1030W        W 5230   9.728   9.829  10.943  0.0086  0.1779  0.0500
 1031W        W 5231   5.410  10.165  11.617  0.4942  0.0139 -0.2023
 1032W        W 5232   2.952  10.344  10.562 -0.2342  0.1662  0.0843
 1033W        W 5233   3.730   9.886   2.107 -0.0277 -0.1082  0.0121
 1034W        W 5234   6.736   2.419   4.590  0.0446 -0.0769  0.0110
 1035W        W 5235   1.556   3.009   2.876 -0.2033 -0.2465 -0.0153
 1036W        W 5236   0.907   9.418   2.969 -0.0340 -0.0725 -0.0284
 1037W        W 5237   7.005   2.088   1.768 -0.4206 -0.0561 -0.0779
 1038W        W 5238   1.377   2.790  12.443 -0.0561 -0.0463 -0.1133
 1039W        W 5239   5.178   5.539   0.709 -0.1897  0.0927 -0.2025
 1040W        W 5240   3.282   0.138  12.741  0.0620 -0.0371  0.4501
 1041W        W 5241   4.371   9.068   4.393  0.0580  0.1992  0.0468
 1042W        W 5242   8.443   8.478  10.462 -0.2651  0.5327  0.0035
 1043W        W 5243   4.674   6.880   2.278 -0.0201 -0.0662 -0.2188
 1044W        W 5244   5.753   4.975   9.267 -0.2773  0.0835  0.1014
 1045W        W 5245   0.567   1.493   0.367  0.0971  0.1340 -0.1365
 1046W        W 5246   4.205   4.062   4.769 -0.1247 -0.1512 -0.0988
 1047W        W 5247   8.308   9.952   1.500 -0.2759 -0.0194 -0.1597
 1048W        W 5248  10.082   4.788   9.131 -0.2413  0.0766 -0.1317
 1049W        W 5249   9.556   5.334   1.796  0.1347 -0.1102 -0.2729
 1050W        W 5250   3.216   3.122   3.475  0.2205 -0.0250  0.1812
 1051W        W 5251   2.781   6.033   9.844 -0.2370 -0.4515 -0.0690
 1052W        W 5252   8.853   4.220  11.909  0.1385 -0.2844 -0.1045
 1053W        W 5253   4.750   0.587  12.768  0.0166 -0.0885 -0.0182
 1054W        W 5254   0.981   7.523  13.353 -0.0326 -0.2449 -0.0056
 1055W        W 5255   2.594   8.253  12.669  0.0129 -0.3708  0.0286
 1056W        W 5256   5.452   9.752   4.485  0.2690  0.0629 -0.1589
 1057W        W 5257   6.521   0.917   3.206 -0.0659  0.0347 -0.2015
 1058W        W 5258   2.193   1.421   1.659 -0.0670  0.1798  0.1087
 1059W        W 5259   5.935   4.681   9.663 -0.2380  0.0275 -0.0993
 1060W        W 5260   5.895   9.757   1.826 -0.2675  0.0433  0.0942
 1061W        W 5261   7.123   1.543   9.789  0.0048 -0.0145 -0.1477
 1062W        W 5262   1.203   5.649   9.164 -0.0359 -0.2342  0.3333
 1063W        W 5263   4.002   5.512  11.589  0.0172 -0.0563  0.0432
 1064W        W 5264   8.345   8.367   3.078 -0.1251  0.2364 -0.0978
 1065W        W 5265   7.367   5.265  11.948  0.1187  0.0009 -0.0370
 1066W        W 5266   7.217   9.019  10.901  0.0007  0.0518  0.4509
 1067W        W 5267   9.779   3.193  10.442  0.0201 -0.3574 -0.2976
 1068W        W 5268   4.019   2.891   0.600  0.0130  0.0674  0.1051
 1069W        W 5269   4.581   7.421   3.648  0.1620  0.1744 -0.2994
 1070W        W 5270   5.303   3.849   5.345  0.1746  0.3157 -0.1407
 1071W        W 5271   7.367   1.219   3.396  0.0501 -0.4262 -0.0756
 1072W        W 5272   4.470   2.682  12.067  0.2597  0.0998 -0.2775
 1073W        W 5273   2.800  10.196   2.456  0.2580 -0.0546  0.1975
 1074W        W 5274   6.659   7.497   3.039  0.1104  0.1514 -0.0427
 1075W        W 5275   8.664   6.741   2.325  0.0076  0.1162 -0.0007
 1076W        W 5276   6.642   4.691   9.538  0.3301  0.0647 -0.2643
 1077W        W 5277   5.672   4.940  12.398  0.0608  0.1650  0.2187
 1078W        W 5278   5.958  10.349  10.253 -0.2714 -0.0549  0.1686
 1079W        W 5279   5.240   2.130  12.411 -0.1892  0.0799  0.1369
 1080W        W 5280   8.448   8.716   1.473  0.2175 -0.2395 -0.1506
 1081W        W 5281   8.390   5.341  11.753 -0.2105  0.0247 -0.1330
 1082W        W 5282   1.183   9.266   2.450  0.0063 -0.0376 -0.0549
 1083W        W 5283   1.831   9.705  11.138 -0.0885  0.2424  0.0787
 1084W        W 5284   6.220   6.510   3.102  0.2620 -0.1557  0.1446
 1085W        W 5285   6.698   7.316   2.557  0.2701  0.1604  0.1502
 1086W        W 5286   1.528   0.929   3.444  0.0985  0.1223  0.1761
 1087W        W 5287   1.381   6.528   2.786 -0.1250  0.1929  0.0648
 1088W        W 5288   1.340   6.288   3.744 -0.1339  0.1774 -0.3250
 1089W        W 5289   3.097   1.565   2.115  0.1183 -0.1704 -0.0033
 1090W        W 5290   5.177   5.109  12.346 -0.0475 -0.0948 -0.0137
 1091W        W 5291   1.176   6.555   8.197  0.2119 -0.0798  0.0180
 1092W        W 5292   0.227   7.202  12.676  0.1199 -0.1403 -0.1885
 1093W        W 5293  10.449   3.788   4.483  0.2806  0.1178  0.3273
 1094W        W 5294   1.784   5.458   2.240  0.0873 -0.0858 -0.0710
 1095W        W 5295   1.716   8.867   1.000  0.3206  0.0700 -0.2081
 1096W        W 5296   7.674   8.736  10.818 -0.0976  0.1770 -0.0848
 1097W        W 5297  10.322   0.950   2.151 -0.0585 -0.1135 -0.0979
 1098W        W 5298   7.116   4.762   0.572 -0.0367 -0.1524 -0.0384
 1099W        W 5299   5.598   3.236   4.179 -0.0195  0.3713 -0.0173
 1100W        W 5300   7.621   7.287  10.725  0.2926 -0.2000 -0.0759
 1101W        W 5301   7.937   1.242   3.650  0.3454  0.1256 -0.0339
 1102W        W 5302   0.284   2.386   0.121  0.0847  0.1590 -0.0021
 1103W        W 5303   1.172   5.707  10.786 -0.1409 -0.2106  0.0048
 1104W        W 5304   5.867   8.456   3.289  0.0946  0.1291 -0.2864
 1105W        W 5305   7.714   9.193   1.199 -0.2434 -0.0749 -0.0759
 1106W        W 5306  10.032   4.696   4.928  0.0432 -0.2944 -0.0197
 1107W        W 5307   9.787   7.147   1.721 -0.1377  0.0861 -0.1864
 1108W        W 5308   9.901   5.054   3.679  0.0726  0.0858 -0.3545
 1109W        W 5309   3.458   6.458  10.881 -0.1024 -0.0979 -0.0570
 1110W        W 5310   5.627  10.165  12.761 -0.2158 -0.1241 -0.0432
 1111W        W 5311   8.746   7.422   9.344  0.0801 -0.1993 -0.1673
 1112W        W 5312   8.045   2.376   3.600  0.2130  0.2583  0.3945
 1113W        W 5313   5.115   3.455   8.762 -0.0995  0.0664  0.0544
 1114W        W 5314   9.382   6.963   3.654 -0.0328 -0.1228 -0.1456
 1115W        W 5315   9.933   5.942   2.260  0.0163 -0.0769 -0.1973
 1116W        W 5316   1.384   2.057   0.800 -0.1520 -0.0459 -0.0034
 1117W        W 5317  10.174   8.571   2.535 -0.5364 -0.2372  0.0710
 1118W        W 5318   9.521   1.332   1.137 -0.2229 -0.2949  0.0568
 1119W        W 5319   7.047   6.903   3.689 -0.2425 -0.0375 -0.3829
 1120W        W 5320  10.079   7.521   9.835 -0.0294  0.0818 -0.0423
 1121W        W 5321   4.941   6.802   3.459  0.1104  0.0190  0.2853
 1122W        W 5322   0.439   3.797   9.334  0.2015  0.0387 -0.0775
 1123W        W 5323   6.045   1.594  11.692  0.2009 -0.4989  0.0067
 1124W        W 5324   8.376   7.698   3.622  0.1329 -0.2376  0.0825
 1125W        W 5325   1.494   1.008   8.758 -0.2264  0.3562  0.0966
 1126W        W 5326   1.658   7.821  10.765  0.0798 -0.1233  0.0676
 1127W        W 5327   5.099   1.528   4.336  0.2737  0.0992  0.1414
 1128W        W 5328   8.166   7.324  12.328 -0.1221  0.2856  0.1385
 1129W        W 5329   4.807   7.613   3.164  0.1579 -0.1511 -0.0211
 1130W        W 5330   9.672   3.613  10.626 -0.2279 -0.0215 -0.4505
 1131W        W 5331   4.900   9.583  11.096 -0.0224  0.1301 -0.1511
 1132W        W 5332   3.416   1.967   0.571 -0.0170  0.2444 -0.0113
 1133W        W 5333   1.644   3.948  11.703 -0.2724 -0.0065 -0.0087
 1134W        W 5334   3.317   3.410   0.086 -0.1771  0.0379 -0.1918
 1135W        W 5335   1.795   7.491   2.458  0.2262 -0.1365  0.1008
 1136W        W 5336   3.625   8.763   0.685 -0.0646 -0.3330 -0.1214
 1137W        W 5337   8.198   0.106   3.013 -0.1604  0.1908  0.1433
 1138W        W 5338   6.019   7.851   3.462  0.2719 -0.1859  0.2134
 1139W        W 5339   3.374   5.182  12.274  0.1134  0.2841  0.1253
 1140W        W 5340   9.203   2.048  10.451  0.0626  0.0741  0.0456
 1141W        W 5341   5.269   4.936   2.176  0.1595  0.0582 -0.0018
 1142W        W 5342   4.743   1.838   2.724  0.0945  0.2006 -0.1902
 1143W        W 5343   8.609   5.918  11.237  0.1525  0.2808  0.4138
 1144W        W 5344   3.154   3.274  10.006 -0.0567 -0.2323  0.3520
 1145W        W 5345   0.690   3.541   1.251  0.1035  0.0087  0.3235
 1146W        W 5346   4.963   4.964   3.477 -0.1865  0.0517  0.1721
 1147W        W 5347   5.660   7.053  11.324  0.0019  0.1405  0.0308
 1148W        W 5348   4.283   4.353  11.669 -0.3771 -0.1443  0.1558
 1149W        W 5349   3.418  10.207   1.791 -0.0023  0.2112  0.2307
 1150W        W 5350   1.396   0.813   3.000 -0.0875 -0.1432  0.0615
 1151W        W 5351   2.265   9.482  13.075  0.0792  0.2662 -0.1611
 1152W        W 5352   9.132   3.263   1.333 -0.1417  0.0830  0.0309
 1153W        W 5353   9.106   6.855  11.519 -0.0956 -0.2581  0.1254
 1154W        W 5354   2.469   9.396   2.631  0.2009  0.0374 -0.1129
 1155W        W 5355   5.257   3.036  11.059 -0.1719 -0.1169 -0.2647
 1156W        W 5356   3.823   3.106  10.537 -0.3556 -0.0668  0.3110
 1157W        W 5357   4.651   2.102   0.195 -0.1712  0.1260  0.0856
 1158W        W 5358   6.597   4.112   2.173 -0.1211 -0.1580  0.3402
 1159W        W 5359   1.419   8.449  12.026 -0.2845 -0.1057  0.1969
 1160W        W 5360   4.497   8.605  11.124 -0.0568 -0.1421 -0.1196
 1161W        W 5361   9.007   3.790   1.604 -0.0732  0.0698 -0.0136
 1162W        W 5362   0.993   9.282   0.699 -0.0001  0.0175 -0.0787
 1163W        W 5363   7.392   1.148  11.591  0.0121  0.1397 -0.1386
 1164W        W 5364   1.618   1.160  12.953 -0.1719  0.1905  0.2585
 1165W        W 5365   7.755   1.149  10.832 -0.1430  0.0010 -0.0507
 1166W        W 5366   1.654   0.146  11.359  0.0249 -0.0579 -0.2389
 1167W        W 5367   2.656   5.931   3.576 -0.2057  0.2187 -0.1322
 1168W        W 5368   0.086   4.087  11.084  0.0780  0.0369 -0.2559
 1169W        W 5369   6.092   1.130   4.672  0.2530  0.5613  0.0218
 1170W        W 5370   1.573   7.627  12.668  0.0282  0.2206 -0.1712
 1171W        W 5371  10.394   5.993   2.091 -0.2116 -0.2206  0.1909
 1172W        W 5372   3.955   5.711  12.877  0.0756 -0.0672  0.0715
 1173W        W 5373   0.948  10.037  12.345  0.2543  0.1054 -0.3145
 1174W        W 5374   5.202   6.540   8.347  0.0183  0.1291  0.1761
 1175W        W 5375   7.159   7.825   9.571 -0.0321 -0.1579  0.2111
 1176W        W 5376   5.838   9.722  12.102 -0.0587  0.1991  0.1632
 1177W        W 5377   7.546   7.526   9.387 -0.0006  0.0040 -0.0465
 1178W        W 5378   1.118   6.896   0.789 -0.0977  0.0048 -0.1105
 1179W        W 5379   4.543   6.509   3.279 -0.2173 -0.0819  0.0334
 1180W        W 5380   2.623   7.997  10.585 -0.0226  0.0476 -0.0791
 1181W        W 5381   0.546  10.104   9.884 -0.1614  0.2111 -0.0878
 1182W        W 5382   8.129  10.167   9.218 -0.1145 -0.2751 -0.0301
 1183W        W 5383   6.832   8.086   3.661  0.2326 -0.0163  0.2245
 1184W        W 5384   7.635   0.645  11.796 -0.1280 -0.1447 -0.0700
 1185W        W 5385   9.383   7.486   9.249  0.0715 -0.1196  0.0789
 1186W        W 5386   4.708   0.102   3.709  0.0889 -0.0552  0.0161
 1187W        W 5387   4.735   8.730   9.561 -0.0901  0.3478  0.1480
 1188W        W 5388   2.821   1.688   8.309  0.2823  0.2642 -0.1126
 1189W        W 5389   7.129   8.266   9.314  0.0231  0.1946  0.0902
 1190W        W 5390   2.478   9.681   0.680  0.0979  0.2569  0.2167
 1191W        W 5391   6.952   6.791   0.959 -0.3962  0.1877 -0.3485
 1192W        W 5392   2.412   8.258   3.828 -0.0740  0.3088  0.0518
 1193W        W 5393   4.896   2.400   3.504  0.1213  0.1774 -0.1959
 1194W        W 5394   4.724   1.186  10.450 -0.1119  0.1219  0.0152
 1195W        W 5395   9.497   5.150  12.867 -0.1329 -0.0797  0.3181
 1196W        W 5396   3.793   0.112   3.394  0.0278  0.2115 -0.0122
 1197W        W 5397   8.825   8.329   2.947 -0.1060 -0.3121  0.0883
 1198W        W 5398  10.170   8.232  13.274  0.1383 -0.0369 -0.0615
 1199W        W 5399   4.862   7.166   3.930  0.0923 -0.0335  0.0036
 1200W        W 5400   5.093   2.749   9.969  0.3389 -0.2880  0.1624
 1201W        W 5401   3.371   6.113   8.155  0.0668  0.2762 -0.1137
 1202W        W 5402   1.183   4.313   9.510 -0.2129  0.2171  0.1643
 1203W        W 5403   0.287   0.808   0.139  0.0501 -0.0192  0.0470
 1204W        W 5404   1.672   1.101  11.615  0.0166 -0.0274 -0.1451
 1205W        W 5405   1.331   5.961  12.828 -0.3883  0.0083 -0.0707
 1206W        W 5406  10.214   4.681  12.140 -0.2289  0.0732  0.1846
 1207W        W 5407   9.632   5.683  10.278 -0.1494 -0.2572 -0.0299
 1208W        W 5408   3.733   9.372   1.326  0.0031 -0.0793 -0.0323
 1209W        W 5409   7.753   3.960  12.369  0.3462  0.1138  0.0092
 1210W        W 5410   9.845   9.107  13.209 -0.2034 -0.3403 -0.0144
 1211W        W 5411   2.849   4.237  13.011 -0.0993 -0.6840  0.0309
 1212W        W 5412  10.322   4.585   9.586  0.2258  0.0540 -0.2694
 1213W        W 5413   9.118  10.504  10.888  0.3620 -0.2076 -0.2463
 1214W        W 5414   7.271  10.460  12.986 -0.0114  0.0812 -0.3798
 1215W        W 5415   5.961   3.109   3.164 -0.0761 -0.1050  0.0286
 1216W        W 5416   3.257   0.621  12.872  0.1696  0.0992 -0.1011
 1217W        W 5417   1.928   4.316   1.686 -0.0269  0.0919 -0.1748
 1218W        W 5418   6.474   0.882  13.072 -0.1895  0.1854 -0.0505
 1219W        W 5419   6.107   7.460   9.498  0.0414  0.2536  0.0413
 1220W        W 5420   4.051   8.545   1.619  0.0440  0.3933 -0.2592
 1221W        W 5421   3.030   7.963   9.193 -0.2186  0.1982 -0.1645
 1222W        W 5422   8.219   3.161   0.216 -0.2178 -0.1025  0.1100
 1223W        W 5423  10.316   2.355   0.280 -0.0487  0.0254 -0.0321
 1224W        W 5424   3.465   0.493   2.597  0.1212  0.0490  0.0689
 1225W        W 5425   5.582   2.671   1.537  0.0291  0.0424  0.0849
 1226W        W 5426   5.732   6.615  10.097 -0.0415 -0.1846  0.0598
 1227W        W 5427   4.546   8.054  12.448  0.2731  0.0309 -0.1193
 1228W        W 5428   9.297   1.105   1.641 -0.2094 -0.0062  0.1716
 1229W        W 5429   0.342   3.425   3.803 -0.0881 -0.1243 -0.1313
 1230W        W 5430   9.866   8.393  10.683  0.2459 -0.1779 -0.2474
 1231W        W 5431   6.253   0.814   0.997  0.1713 -0.0119  0.2595
 1232W        W 5432  10.252   4.897   1.727  0.1875 -0.0954 -0.2448
 1233W        W 5433   0.930   8.568  12.211 -0.3564  0.0692  0.3907
 1234W        W 5434   8.044   4.523  12.456  0.1281  0.0977 -0.0318
 1235W        W 5435   1.924   4.588  11.008  0.1412  0.3260 -0.1009
 1236W        W 5436   9.273   6.548   1.892 -0.0121  0.1726  0.3147
 1237W        W 5437   3.865   8.103   1.223 -0.0966 -0.1006  0.2132
 1238W        W 5438   5.252   6.050  12.628  0.0300 -0.0987  0.1049
 1239W        W 5439   9.977   6.912  10.069 -0.2450  0.2451  0.0020
 1240W        W 5440   4.075   7.702  10.985 -0.0054  0.0492 -0.0394
 1241W        W 5441   9.940   5.781   9.269 -0.0841 -0.2014  0.2070
 1242W        W 5442   5.283   1.691   1.697 -0.1211 -0.2384  0.0635
 1243W        W 5443   8.861   4.853   2.793  0.2435 -0.0418 -0.3630
 1244W        W 5444   3.969   3.727   9.999  0.4026  0.1215 -0.0632
 1245W        W 5445   6.775   1.852  10.993  0.1661 -0.2898 -0.2603
 1246W        W 5446   3.409   0.962   2.837  0.0202  0.0371  0.4155
 1247W        W 5447   2.818   5.794   0.242 -0.1827 -0.1906  0.1577
 1248W        W 5448   6.708  10.393   3.535 -0.0018 -0.1405 -0.1754
 1249W        W 5449   9.788   8.285  11.686  0.0284  0.1710  0.0020
 1250W        W 5450   4.370   3.082  10.498  0.3555  0.2695 -0.2198
 1251W        W 5451   0.850   7.568   9.242 -0.2268 -0.1712 -0.1815
 1252W        W 5452   3.847   7.656   3.386 -0.1771 -0.1705  0.0363
 1253W        W 5453   8.474   9.173   9.870  0.1084 -0.1233 -0.2297
 1254W        W 5454   9.391   9.441  11.040  0.0698 -0.3058  0.1868
 1255W        W 5455   7.390   8.656   0.120  0.0367  0.0343 -0.4064
 1256W        W 5456   1.997   0.356   0.594  0.2793  0.0470  0.1045
 1257W        W 5457   3.343   1.604   1.118  0.1227  0.0415 -0.2739
 1258W        W 5458   1.809  10.189   2.068  0.1048  0.1768  0.0346
 1259W        W 5459   9.081   4.440  12.300  0.1621 -0.2570  0.2709
 1260W        W 5460   2.409   0.954  10.878 -0.0348  0.1750  0.1398
 1261W        W 5461  10.126   6.086   0.192  0.1222  0.0716 -0.0077
 1262W        W 5462   6.781   2.426   1.469 -0.0477 -0.4404  0.2340
 1263W        W 5463   5.725   3.165   0.742  0.0042  0.3152 -0.1002
 1264W        W 5464   2.854   7.303   1.282 -0.4455  0.1945 -0.1273
 1265W        W 5465   4.867   7.461  11.785  0.1570 -0.1573 -0.2496
 1266W        W 5466   9.655   4.631   1.206  0.0963  0.0417 -0.1209
 1267W        W 5467   4.075   6.830   3.280 -0.0146 -0.2750  0.4381
 1268W        W 5468   5.464   5.259   4.296  0.0684 -0.2239  0.3398
 1269W        W 5469   7.340   1.633  13.015  0.2033 -0.3669  0.2336
 1270W        W 5470   6.826   4.659  11.376  0.0035 -0.0387 -0.2178
 1271W        W 5471   9.969   7.530   1.337  0.2181 -0.0883 -0.0646
 1272W        W 5472   4.011   4.684   1.319 -0.1035 -0.0241 -0.1523
 1273W        W 5473   1.868   5.829   9.848  0.0239 -0.1803  0.2633
 1274W        W 5474   2.972   9.529   0.768  0.1318  0.1487  0.1518
 1275W        W 5475   7.853   9.991   1.734  0.0269  0.0088  0.1801
 1276W        W 5476   7.530   7.006   9.443  0.1138  0.0281 -0.1134
 1277W        W 5477   2.752   9.640   2.362  0.0564  0.1904  0.0452
 1278W        W 5478   7.523   8.964   3.877 -0.2739 -0.1057 -0.2157
 1279W        W 5479   5.325   0.379   0.304 -0.4627  0.1052 -0.1463
 1280W        W 5480   4.552   7.084   3.318 -0.1007 -0.0329  0.0368
 1281W        W 5481   5.666   9.290  12.785  0.4603 -0.0954  0.1166
 1282W        W 5482   5.196   5.594  12.833  0.0736 -0.2139 -0.0209
 1283W        W 5483  10.377   6.532  12.351 -0.2963  0.1121 -0.3510
 1284W        W 5484   3.668   5.473  10.430 -0.2585 -0.0376  0.1215
 1285W        W 5485   0.401   6.392  11.624 -0.2842 -0.2266  0.1861
 1286W        W 5486   9.720   6.609   2.863  0.1721  0.1185  0.1968
 1287W        W 5487   6.822   9.310   0.126 -0.0895 -0.2148  0.2641
 1288W        W 5488   2.886   4.542   2.109 -0.0222  0.0756  0.1163
 1289W        W 5489   3.750   5.742  10.838 -0.2285 -0.0271 -0.1609
 1290W        W 5490   1.522   7.016   8.875  0.3802  0.3362 -0.0945
 1291W        W 5491  10.317   2.623  11.758 -0.1953 -0.2984  0.0447
 1292W        W 5492   1.665   3.745   4.287  0.0637 -0.2001  0.0655
 1293W        W 5493   2.098   3.262   2.879  0.0531  0.3630  0.0715
 1294W        W 5494   4.289   4.291  12.243  0.0710  0.0703 -0.1768
 1295W        W 5495   5.024   7.687   4.085  0.1428  0.0633 -0.0860
 1296W        W 5496   4.301   0.590   1.994  0.1349 -0.0167 -0.2004
 1297W        W 5497   8.127   4.325   1.677  0.0494  0.0144 -0.1714
 1298W        W 5498   5.682   8.866   3.975 -0.0179 -0.2410  0.1191
 1299W        W 5499   0.147   5.957  10.856  0.0152  0.0884 -0.0480
 1300W        W 5500   6.038   1.467   2.149  0.5130  0.0356 -0.1921
 1301W        W 5501   0.716   1.627  10.420  0.1386  0.3978  0.1599
 1302W        W 5502   6.358   3.340   0.820 -0.2423  0.1238  0.4408
 1303W        W 5503   6.337   7.926  10.514  0.1079  0.1267  0.1158
 1304W        W 5504   4.964   1.997  10.975 -0.2313  0.0514 -0.0696
 1305W        W 5505   2.258   5.008  10.162  0.2548 -0.0080 -0.4068
 1306W        W 5506   4.737   5.820  13.028  0.1147  0.1478  0.1751
 1307W        W 5507   6.784   4.737   2.211  0.0988  0.2106 -0.0471
 1308W        W 5508   9.251   4.767  10.390  0.1787 -0.0122 -0.1404
 1309W        W 5509   5.670   8.063   2.965  0.0511 -0.0839  0.0390
 1310W        W 5510   2.779   4.758  10.890 -0.1197  0.0705 -0.0333
 1311W        W 5511   1.207   5.727  11.622  0.1665  0.0485 -0.1634
 1312W        W 5512   2.780   9.505  13.124  0.1214  0.2146 -0.0765
 1313W        W 5513   0.384   5.979  11.285  0.1302  0.0481  0.4213
 1314W        W 5514   4.155   2.976  10.933 -0.0885 -0.1052  0.0458
 1315W        W 5515   0.287   3.946  12.377 -0.2658  0.2521 -0.0259
 1316W        W 5516   2.973   4.071  10.317 -0.1855  0.0025  0.3924
 1317W        W 5517   5.597   8.282   9.631 -0.3194 -0.2581 -0.6099
 1318W        W 5518   4.143   1.783   2.009 -0.3187  0.0475 -0.2651
 1319W        W 5519   1.753   3.627  12.063 -0.1895 -0.1821  0.0607
 1320W        W 5520   1.746   1.401   1.102  0.1362  0.0143  0.0022
 1321W        W 5521   7.002   0.493  10.468  0.0472 -0.1702 -0.1508
 1322W        W 5522   3.969   0.591   2.873  0.0850  0.0509 -0.1092
 1323W        W 5523   8.702   5.586   9.744  0.1923  0.0999 -0.1868
 1324W        W 5524   0.305   2.089   2.069  0.2606  0.1002  0.0389
 1325W        W 5525   3.106   5.249   1.666 -0.1900  0.1265 -0.0276
 1326W        W 5526   5.988   6.458  10.501 -0.0607 -0.4707  0.2526
 1327W        W 5527   4.047   8.587   0.470  0.0741  0.2195  0.3096
 1328W        W 5528   4.811   6.297   5.181 -0.3607  0.2390  0.2551
 1329W        W 5529   8.598   1.086  13.239 -0.2125 -0.2016  0.1576
 1330W        W 5530   1.821   8.610  12.867  0.1744  0.1362 -0.2050
 1331W        W 5531   7.489   5.225   9.820 -0.0379 -0.0790  0.0536
 1332W        W 5532   1.832   3.563   2.265  0.2539  0.0233 -0.1778
 1333W        W 5533   6.578   1.208   0.113  0.0935 -0.0320  0.2283
 1334W        W 5534   6.951   6.026  10.097  0.2337  0.0702 -0.1815
 1335W        W 5535   6.674   0.578  10.901 -0.1887  0.1474 -0.1457
 1336W        W 5536   6.768   3.955   8.651 -0.0531  0.0563  0.0265
 1337W        W 5537  10.116   5.518  12.312 -0.1411 -0.0116  0.1716
 1338W        W 5538   3.268   5.529   2.894 -0.1378  0.2497 -0.1136
 1339W        W 5539   9.560   4.464  10.212 -0.1813  0.0865  0.2189
 1340W        W 5540   9.902   1.341   0.206 -0.0049  0.0670  0.1767
 1341W        W 5541   4.894   6.075  11.485  0.1292  0.3686 -0.2761
 1342W        W 5542   2.265   5.251  12.938 -0.2287  0.3393 -0.1249
 1343W        W 5543   7.990   0.506  12.676 -0.0959  0.1294  0.0132
 1344W        W 5544   0.618   2.139  13.136 -0.1154 -0.1125 -0.1951
 1345W        W 5545   6.606   8.654   3.740  0.0715 -0.0056  0.1092
 1346W        W 5546   4.236   5.327  12.003  0.0619  0.1877 -0.1242
 1347W        W 5547   0.471   7.798   2.808 -0.3174 -0.0211  0.1244
 1348W        W 5548   6.641   3.631   2.723  0.1264 -0.2033  0.1407
 1349W        W 5549   6.039   5.024  10.640  0.0067  0.1179 -0.1022
 1350W        W 5550   2.583   9.137  11.850 -0.3583 -0.0302 -0.1249
 1351W        W 5551   2.206   2.034  11.405 -0.1735 -0.3258  0.1387
 1352W        W 5552   7.590   3.925   0.498  0.0245 -0.2220  0.1797
 1353W        W 5553   5.900   3.174   1.195 -0.1669  0.0119  0.1476
 1354W        W 5554   4.966   3.996   9.398  0.2723  0.0628  0.1775
 1355W        W 5555   8.797   2.890   1.564  0.2026  0.2279 -0.2430
 1356W        W 5556   5.245   6.176   0.676  0.3016 -0.4270  0.4385
 1357W        W 5557   9.949   1.786   2.378  0.0288 -0.0119 -0.1880
 1358W        W 5558   9.108   4.800   3.949  0.0750  0.2916  0.1423
 1359W        W 5559   4.558   6.154  11.159  0.0341 -0.2257  0.0691
 1360W        W 5560   4.328   3.619   1.266 -0.0358  0.1544 -0.0370
 1361W        W 5561  10.381   4.693   1.240 -0.1675 -0.0328 -0.0886
 1362W        W 5562   4.208   4.671   0.867 -0.2711 -0.0491 -0.2730
 1363W        W 5563   4.173   5.189   0.991 -0.1658  0.1133 -0.3061
 1364W        W 5564   5.000   5.147   4.478 -0.1153 -0.0667 -0.1312
 1365W        W 5565   0.211   5.117   3.105  0.3130 -0.0099  0.3108
 1366W        W 5566   8.148   2.344   4.612  0.1942  0.1505 -0.0035
 1367W        W 5567   9.181   9.412  11.509 -0.1610  0.3862  0.0649
 1368W        W 5568  10.230   7.581  11.354  0.1471  0.2364  0.0559
 1369W        W 5569  10.455   5.747   9.263  0.0996 -0.0098  0.1245
 1370W        W 5570   2.632   3.966  11.718  0.1474  0.0693  0.2207
 1371W        W 5571   6.297   4.759   1.883  0.1494  0.0303 -0.0197
 1372W        W 5572   3.067   7.032  10.532 -0.1951 -0.1103 -0.0363
 1373W        W 5573   6.518   8.325   0.872  0.2541  0.0333 -0.0065
 1374W        W 5574   2.763   9.555   2.957 -0.0874  0.0175 -0.1489
 1375W        W 5575   0.324   2.566   3.462 -0.1120  0.0453  0.0356
 1376W        W 5576   9.489   7.005   2.073 -0.1466 -0.3353 -0.1897
 1377W        W 5577   4.704   1.347   9.954  0.2484 -0.2358  0.0395
 1378W        W 5578   4.652   4.087  10.390 -0.2598 -0.1057  0.3356
 1379W        W 5579   6.164   1.770   9.622 -0.1980  0.0708  0.0851
 1380W        W 5580   8.425   0.931  11.380 -0.0130 -0.2737  0.0215
 1381W        W 5581   3.831   9.560   4.231 -0.1613  0.0236  0.0182
 1382W        W 5582   8.297   5.417   1.590 -0.3373  0.1354 -0.3682
 1383W        W 5583   2.229   3.101   9.643  0.0602 -0.1449  0.1016
 1384W        W 5584   6.725   1.086   0.954 -0.2012 -0.0229  0.0721
 1385W        W 5585   7.521   1.270   1.082  0.0205 -0.3338 -0.2744
 1386W        W 5586  10.268   8.182   0.957 -0.2464 -0.2862 -0.0773
 1387W        W 5587   1.805   9.381   0.721  0.2542  0.1126  0.2764
 1388W        W 5588   3.215   7.134   0.532  0.4479  0.2825 -0.1789
 1389W        W 5589   6.260   9.120   2.524 -0.0110 -0.5137  0.0689
 1390W        W 5590   9.348   9.078  10.712 -0.0884  0.4205  0.1059
 1391W        W 5591   7.725   8.099   9.526 -0.1740 -0.0032  0.0061
 1392W        W 5592   1.043   8.355   1.280  0.0893  0.6427  0.0112
 1393W        W 5593   3.763   7.450  11.780  0.1657  0.0182 -0.2365
 1394W        W 5594   3.763   1.895  11.999  0.0457 -0.0147 -0.3155
 1395W        W 5595   7.882   1.983   1.724  0.0808 -0.0360  0.0027
 1396W        W 5596   0.439   1.754  11.023  0.1533  0.1324  0.2395
 1397W        W 5597   9.504   0.902  13.021  0.0846 -0.1070  0.2497
 1398W        W 5598   9.224   9.075   1.718  0.1844  0.1849 -0.0889
 1399W        W 5599   2.962   5.549   9.531 -0.2578 -0.0720  0.2610
 1400W        W 5600   8.160   9.644  12.696  0.4518 -0.2343 -0.0878
 1401W        W 5601   6.604  10.142   0.346  0.0089 -0.1797 -0.4250
 1402W        W 5602   9.019   9.563  10.702 -0.0082  0.2577 -0.2268
 1403W        W 5603   1.783   4.895  10.550 -0.1899  0.1962 -0.1817
 1404W        W 5604   7.611   6.619  10.808 -0.2665  0.3034 -0.0560
 1405W        W 5605   1.939   0.526   1.844  0.2381  0.2834 -0.0128
 1406W        W 5606   0.058   6.160   3.370 -0.2856 -0.3461 -0.2871
 1407W        W 5607   5.781   5.773  11.218 -0.1062 -0.1231  0.0564
 1408W        W 5608   9.722  10.103   3.817 -0.0799  0.0953 -0.1360
 1409W        W 5609   8.503   7.145   8.527 -0.2152  0.3026  0.1643
 1410W        W 5610   3.391   7.909  10.245 -0.1449  0.0356  0.1005
 1411W        W 5611   1.247   4.723  12.407  0.1047 -0.0878 -0.1488
 1412W        W 5612   7.528   3.773  13.316  0.0533  0.0961  0.3260
 1413W        W 5613   9.781   1.154  10.685 -0.2444  0.2731  0.0083
 1414W        W 5614   8.109   5.912  12.041  0.1858 -0.2967 -0.0211
 1415W        W 5615   6.778   3.009   9.822 -0.0486 -0.0674 -0.2888
 1416W        W 5616   5.060   2.137   0.559 -0.0125  0.1896  0.0871
 1417W        W 5617   4.412  10.248   3.847 -0.2553  0.0520 -0.1846
 1418W        W 5618   2.479   8.995   1.533  0.0503 -0.3131 -0.0061
 1419W        W 5619   7.029   2.281  11.057 -0.3765 -0.0023  0.1353
 1420W        W 5620   5.121   7.244   3.146 -0.1197  0.2848 -0.0214
 1421W        W 5621   7.200   5.134   4.608  0.2139 -0.1323 -0.0691
 1422W        W 5622   7.883   7.262   4.201  0.1458 -0.0406  0.0982
 1423W        W 5623   9.896   3.185  10.924 -0.1307  0.1894  0.1445
 1424W        W 5624   9.654   1.751  12.775  0.1688 -0.0630  0.1469
 1425W        W 5625   1.501   4.014   8.601 -0.0900  0.3654  0.1076
 1426W        W 5626   3.578   0.569  10.865 -0.0613 -0.1557 -0.3368
 1427W        W 5627   5.317   7.801   0.787 -0.0402  0.0452  0.1824
 1428W        W 5628   6.946   8.949   3.428  0.1636  0.1577 -0.0495
 1429W        W 5629   7.963   0.976  13.273  0.0408  0.1424 -0.2505
 1430W        W 5630   4.690   3.406  10.701 -0.0039  0.1873  0.3235
 1431W        W 5631   2.044   6.836  10.565 -0.0948 -0.1068 -0.0621
 1432W        W 5632   8.936   2.295   2.809  0.0089  0.0975  0.0680
 1433W        W 5633   2.399   8.967  13.063 -0.0909 -0.0008  0.3518
 1434W        W 5634   6.088   3.857   4.556  0.2269  0.2322  0.0363
 1435W        W 5635   0.696   8.119   2.053  0.1665 -0.0162  0.1655
 1436W        W 5636   0.170   0.296   9.284  0.2155 -0.0189 -0.2509
 1437W        W 5637  10.192   5.371   4.453 -0.2942 -0.1820  0.0003
 1438W        W 5638   7.841  10.402  11.370 -0.2386  0.0916 -0.1532
 1439W        W 5639   8.230   0.555   0.639  0.0754 -0.0402  0.2688
 1440W        W 5640   4.057   1.955  10.105  0.4267 -0.0718 -0.3471
 1441W        W 5641  10.301   7.253   1.695 -0.3714  0.1131  0.0432
 1442W        W 5642   9.424   6.866   0.864 -0.0247  0.2599 -0.0338
 1443W        W 5643   9.253   5.874  12.319 -0.2115 -0.2209 -0.1454
 1444W        W 5644   1.730   1.205   0.078  0.2146  0.0594  0.0207
 1445W        W 5645   6.634   1.632   8.541 -0.3566 -0.0804 -0.1857
 1446W        W 5646   0.521   9.664   9.532 -0.0547 -0.2107 -0.0497
 1447W        W 5647   8.075   6.493  10.943 -0.3845 -0.2672  0.0825
 1448W        W 5648   3.291   5.211   3.330  0.0883 -0.1576 -0.0897
 1449W        W 5649   6.407   6.635  11.288 -0.2866  0.3801 -0.1746
 1450W        W 5650   5.138   1.513   1.222  0.0438  0.0262 -0.1650
 1451W        W 5651   0.746   3.095   3.904 -0.1660  0.3578  0.1059
 1452W        W 5652  10.357   3.737   2.800 -0.0323  0.1229 -0.2336
 1453W        W 5653   1.739   7.031   0.763 -0.0648  0.2706 -0.0184
 1454W        W 5654   3.848   2.810   4.708 -0.0115 -0.0788  0.1331
 1455W        W 5655   6.109   5.550  11.955 -0.1590  0.0677  0.1702
 1456W        W 5656   8.010   8.352  12.793  0.2658  0.1458 -0.0056
 1457W        W 5657   5.229   9.138   3.360  0.0731  0.1669  0.0077
 1458W        W 5658   9.678   9.034   2.828 -0.1839 -0.2005  0.0335
 1459W        W 5659   1.865  10.414   3.090  0.1972 -0.2679 -0.0215
 1460W        W 5660   7.851   5.049  11.871 -0.0660 -0.0887 -0.2225
 1461W        W 5661   6.967   7.615  11.418 -0.1017  0.1242  0.0128
 1462W        W 5662   8.964   7.692  10.748 -0.0642  0.1950  0.1087
 1463W        W 5663   5.323   9.298  10.928  0.0954  0.2667 -0.0240
 1464W        W 5664   6.380   8.428   9.276 -0.0569 -0.0815 -0.1600
 1465W        W 5665   3.873   3.574  11.556  0.4079 -0.3149  0.0086
 1466W        W 5666   4.250   7.334  11.978  0.2180  0.2080  0.3544
 1467W        W 5667   4.565   3.934  11.603 -0.1406  0.1507  0.1643
 1468W        W 5668   4.406   0.352   2.709  0.0222  0.1362  0.0311
 1469W        W 5669   3.146   7.942  12.277 -0.1050  0.0590 -0.0912
 1470W        W 5670   8.495  10.350   1.277 -0.0587  0.1807 -0.0207
 1471W        W 5671   6.070   0.708   0.557  0.1541 -0.1246 -0.0508
 1472W        W 5672   9.170   3.958   3.852  0.4922 -0.0366 -0.1263
 1473W        W 5673   3.697   5.522  12.013 -0.0690  0.0607 -0.0470
 1474W        W 5674   0.754   5.411   8.455 -0.0558 -0.1077  0.1155
 1475W        W 5675   4.314   4.425  10.593  0.2727  0.0307 -0.1526
 1476W        W 5676   5.609   7.508  12.323  0.0259  0.2106  0.0334
 1477W        W 5677   7.454   7.121  13.033  0.2525 -0.0242 -0.0251
 1478W        W 5678   3.043   5.905   3.901 -0.1931  0.0481 -0.1696
 1479W        W 5679   8.363   9.365  11.058 -0.0227  0.0348  0.3943
 1480W        W 5680   1.063   3.633   1.649  0.0506 -0.0583 -0.1489
 1481W        W 5681   7.803   0.170   2.134  0.0766  0.1599 -0.0719
 1482W        W 5682   5.081   8.075   1.119 -0.2550 -0.1318 -0.2728
 1483W        W 5683   6.537   7.404   9.150 -0.1959  0.4480 -0.0623
 1484W        W 5684  10.190   3.677   1.460  0.0372  0.0838  0.0366
 1485W        W 5685   1.804   6.500   2.524 -0.1848 -0.3254 -0.1603
 1486W        W 5686   0.832   7.619   3.504 -0.4714  0.2427  0.0482
 1487W        W 5687   4.581   3.103   3.942  0.1596 -0.2818  0.1440
 1488W        W 5688   3.419   9.873   3.983 -0.1547 -0.2651 -0.1782
 1489W        W 5689   2.224   1.608   3.846 -0.0347 -0.5207  0.0801
 1490W        W 5690   2.269   5.852   4.950 -0.0143  0.1217  0.4004
 1491W        W 5691   8.049   5.449  12.717  0.1281 -0.1307  0.1286
 1492W        W 5692   1.229   7.268   1.660 -0.0993  0.0058  0.1058
 1493W        W 5693   1.628   2.677   2.048  0.0658 -0.0946 -0.1267
 1494W        W 5694   2.637   7.329   0.813  0.1994  0.4711 -0.3116
 1495W        W 5695   8.160   1.790   1.275  0.1016 -0.2213  0.1403
 1496W        W 5696   2.869   0.963  12.935  0.1164 -0.1948  0.0797
 1497W        W 5697   0.543   7.619   2.274 -0.1406  0.0272 -0.1889
 1498W        W 5698   9.100   0.230  11.709 -0.0783  0.1359 -0.1283
 1499W        W 5699   6.513   5.725  10.076  0.0578  0.0406  0.1305
 1500W        W 5700  10.507   4.202   0.620 -0.0133 -0.1360  0.1930
 1501W        W 5701   4.978   1.829   2.259  0.3038 -0.1290  0.1613
 1502W        W 5702   0.490   2.983   9.478 -0.0807 -0.0709 -0.0643
 1503W        W 5703   3.032   5.047   3.823  0.0720  0.2867  0.2513
 1504W        W 5704   9.656   8.452   8.855 -0.0996 -0.2853  0.0967
 1505W        W 5705   1.434   7.962   0.934  0.3095  0.3175 -0.1025
 1506W        W 5706   2.558   2.281  10.480 -0.0146  0.0360  0.1147
 1507W        W 5707   0.761   0.527  11.453  0.1302 -0.1102 -0.2015
 1508W        W 5708   3.129   6.736   3.728 -0.2214  0.0066 -0.0637
 1509W        W 5709   4.644   1.520   1.070  0.1342  0.2771 -0.0572
 1510W        W 5710  10.137   5.904   3.563  0.0382 -0.0365  0.0657
 1511W        W 5711   0.528   7.135   3.430  0.0235 -0.1076 -0.2919
 1512W        W 5712   6.603   6.120  13.008  0.0418 -0.1367  0.0701
 1513W        W 5713   3.082   1.098   8.759 -0.0647  0.0146  0.2253
 1514W        W 5714   4.527   3.398   4.385  0.1358  0.0536  0.1058
 1515W        W 5715   3.731   4.949   1.037 -0.2222  0.1936 -0.2502
 1516W        W 5716   8.175   4.426   4.334  0.1709 -0.1025 -0.3921
 1517W        W 5717  10.368   6.762  11.476  0.0322 -0.0421 -0.2283
 1518W        W 5718   3.422   2.888  12.927  0.0042  0.0853  0.0618
 1519W        W 5719   4.060   3.138  11.886 -0.1187 -0.0376  0.0650
 1520W        W 5720   1.330   6.621   4.312 -0.5862 -0.2625 -0.0058
 1521W        W 5721   1.410   6.039   9.989  0.0809 -0.0729  0.3471
 1522W        W 5722   1.437  10.434   1.869  0.0411 -0.1956  0.0921
 1523W        W 5723   8.749   5.925   9.280  0.2936  0.0584  0.4902
 1524W        W 5724   6.289   1.083   3.572  0.1489 -0.1444  0.2162
 1525W        W 5725   6.367   5.960  10.598  0.2925  0.1603 -0.1134
 1526W        W 5726   2.417   0.346  12.525 -0.2891  0.2581  0.2616
 1527W        W 5727   7.964   5.413  11.215 -0.2559 -0.1399 -0.0447
 1528W        W 5728   0.299   7.190   1.591  0.0555  0.4767 -0.0560
 1529W        W 5729   6.388   0.472   9.495 -0.0829 -0.2035 -0.0619
 1530W        W 5730   5.087   9.151  11.529  0.2625  0.0361 -0.2068
 1531W        W 5731   3.316   8.144   0.526 -0.0636 -0.0359 -0.0952
 1532W        W 5732   9.917   0.521  12.908  0.1173  0.0975  0.1064
 1533W        W 5733   3.616   2.228   9.154 -0.1941  0.1547 -0.1923
 1534W        W 5734   2.519   3.305  10.617  0.1190  0.6010 -0.2577
 1535W        W 5735   6.451   8.950  11.340 -0.0228 -0.2116 -0.2945
 1536W        W 5736   6.631   9.586   4.610  0.0242 -0.0469  0.2947
 1537W        W 5737   4.098   7.722  12.240 -0.0132 -0.1490  0.1012
 1538W        W 5738   4.482   5.219   9.735  0.1586  0.1619 -0.4711
 1539W        W 5739   3.862   9.792   0.589 -0.2244 -0.0878  0.2140
 1540W        W 5740   6.307   4.971   9.260 -0.0762 -0.3481 -0.1237
 1541W        W 5741   6.016   6.180   9.558  0.2908 -0.0786  0.0112
 1542W        W 5742   1.171   0.632   1.931 -0.2195  0.0105 -0.3490
 1543W        W 5743   1.704   4.284   3.505  0.1457  0.2164  0.0496
 1544W        W 5744   9.877   7.183  11.495 -0.0436  0.2167 -0.1800
 1545W        W 5745   7.128  10.489   0.112  0.0501 -0.1444  0.0139
 1546W        W 5746   1.454   7.879   2.620 -0.1090 -0.2094  0.4472
 1547W        W 5747  10.291   0.192   1.725  0.0532 -0.1138 -0.1097
 1548W        W 5748   7.459   3.062  11.932 -0.0792  0.3332 -0.0546
 1549W        W 5749   5.836   3.996   1.447  0.4787  0.2059 -0.0899
 1550W        W 5750   6.377   4.123   0.201  0.0325 -0.0369  0.0532
 1551W        W 5751   0.310   7.440   9.725  0.0933  0.0943  0.1958
 1552W        W 5752   6.790   7.784  10.655 -0.1950 -0.0689 -0.0274
 1553W        W 5753   6.391   6.454   3.574  0.1640 -0.3402  0.1905
 1554W        W 5754   0.892   8.074  12.269 -0.0225  0.0381  0.0216
 1555W        W 5755   0.497   5.705   1.943  0.0265 -0.1577 -0.0446
 1556W        W 5756   7.396   3.218  10.527  0.0896  0.0515  0.0646
 1557W        W 5757   7.456   3.279  13.306  0.1270  0.3251  0.0920
 1558W        W 5758   4.917   8.384   9.191 -0.0889  0.1844  0.1450
 1559W        W 5759   2.190  10.394   3.571 -0.0659  0.0563  0.0767
 1560W        W 5760   8.618   4.728   9.699 -0.2661  0.0161  0.2298
 1561W        W 5761   9.074   5.524  12.021 -0.1199 -0.0826 -0.2788
 1562W        W 5762   3.241   5.423   4.085 -0.0351 -0.2231  0.0236
 1563W        W 5763   7.694   4.645   1.730  0.2803  0.1711 -0.0027
 1564W        W 5764   7.573   4.586   2.601 -0.3590 -0.1090 -0.3174
 1565W        W 5765   7.819   7.666  12.374  0.0276  0.3414  0.2799
 1566W        W 5766   1.385   6.130   9.440  0.2228  0.0397 -0.0743
 1567W        W 5767   5.705   0.838  12.695  0.1640 -0.0598  0.0061
 1568W        W 5768   2.250   0.554  12.039 -0.1638  0.0494 -0.0522
 1569W        W 5769   3.876   1.580   9.869 -0.3765 -0.2357 -0.3271
 1570W        W 5770   9.140   3.955  12.379 -0.0828 -0.0015  0.0323
 1571W        W 5771   3.744   5.467   4.162 -0.3146  0.0601  0.1685
 1572W        W 5772   3.301   0.894   4.538  0.1909 -0.0176  0.0388
 1573W        W 5773   4.821   6.094   1.678  0.1695  0.0119  0.1438
 1574W        W 5774   7.164   8.528   3.708 -0.1692 -0.1158  0.0806
 1575W        W 5775   0.399   8.724   0.734  0.0487 -0.0073 -0.0882
 1576W        W 5776   1.757   0.669   3.804 -0.0534  0.0269  0.0167
 1577W        W 5777   1.403   5.265  12.480  0.0621 -0.1095  0.1089
 1578W        W 5778   9.621   5.421   0.893  0.0369 -0.3324 -0.0739
 1579W        W 5779   1.865   3.174   8.559 -0.1019 -0.0411  0.1464
 1580W        W 5780   0.581   6.091   0.619 -0.0338 -0.5209 -0.2302
 1581W        W 5781   1.540   8.916  11.720 -0.3009  0.1006 -0.1463
 1582W        W 5782   8.910  10.472   0.918  0.3153  0.0093 -0.0670
 1583W        W 5783   1.158   6.370   0.062 -0.2198 -0.0411 -0.2921
 1584W        W 5784   2.155   8.244   1.895  0.3371 -0.2345  0.2849
 1585W        W 5785   7.200   8.766   2.500 -0.0108  0.1547 -0.0916
 1586W        W 5786   3.024   6.569  13.081  0.1152 -0.1393  0.0014
 1587W        W 5787   4.250   0.423  10.618 -0.2633 -0.1596 -0.2826
 1588W        W 5788   0.543   6.116   4.718  0.0870 -0.2745 -0.0479
 1589W        W 5789   6.806   5.453   9.170  0.0963 -0.2376 -0.1802
 1590W        W 5790   1.717   4.339   0.716 -0.0676 -0.2011  0.0301
 1591W        W 5791   2.428   6.359   2.089  0.1573  0.4113 -0.1053
 1592W        W 5792   0.915   5.343  10.665  0.0813  0.0191  0.2446
 1593W        W 5793   8.258   5.626   0.842  0.1565 -0.0471  0.0077
 1594W        W 5794   4.995   2.656   5.476 -0.2798 -0.2826 -0.3151
 1595W        W 5795   5.331   2.084   4.436 -0.0129  0.0210 -0.0026
 1596W        W 5796   9.460   3.547   2.873 -0.0607 -0.1433 -0.3605
 1597W        W 5797   6.745   1.588   1.015 -0.0294  0.0383 -0.0097
 1598W        W 5798   3.846   7.071   1.876 -0.1876 -0.4426 -0.0033
 1599W        W 5799   1.063   9.809   2.469 -0.2438  0.4427  0.0339
 1600W        W 5800   6.313   5.188  10.996  0.0045 -0.0848  0.1884
 1601W        W 5801   6.686   2.902   4.763  0.2655 -0.0892 -0.0114
 1602W        W 5802   9.082   1.631   9.115 -0.0231  0.2823  0.0577
 1603W        W 5803   2.404   5.420   1.158 -0.1119  0.2656 -0.0977
 1604W        W 5804   8.423   6.795   5.270  0.2387 -0.0891 -0.4519
 1605W        W 5805   7.361   3.474   2.496  0.1812  0.1815  0.0353
 1606W        W 5806   4.077   1.968   3.375 -0.1741 -0.2104  0.3244
 1607W        W 5807  10.417   7.602   9.485  0.3371  0.0997 -0.0957
 1608W        W 5808   1.668   2.504   2.966  0.0702 -0.0849  0.2302
 1609W        W 5809   4.457   4.357   0.391 -0.0010  0.1379  0.2817
 1610W        W 5810   5.934   9.345   8.902  0.3014  0.1766 -0.4213
 1611W        W 5811   2.619   3.455   4.193 -0.0534  0.0554 -0.3111
 1612W        W 5812   5.556   1.820   2.623 -0.1292  0.1001 -0.2385
 1613W        W 5813   7.906   1.940   0.334  0.1714  0.1298 -0.0476
 1614W        W 5814   9.713   7.031   3.118 -0.1032  0.0939 -0.0810
 1615W        W 5815   7.270   7.806  13.319  0.2297  0.0804 -0.0265
 1616W        W 5816   7.988   5.780   1.479  0.0178  0.2052  0.1536
 1617W        W 5817   8.875   9.585   1.811 -0.4182 -0.0951 -0.4239
 1618W        W 5818   4.024   1.336   1.819  0.0182 -0.0273  0.0233
 1619W        W 5819  10.257   9.063   0.084 -0.1207  0.1507 -0.2214
 1620W        W 5820   2.745   0.956   0.433 -0.2304 -0.1747 -0.0475
 1621W        W 5821   8.232   7.617  10.519  0.0329  0.3164 -0.1718
 1622W        W 5822   3.788   0.924   2.530 -0.2156 -0.1127  0.0042
 1623W        W 5823   7.904   8.911   0.883  0.0607  0.2951  0.2491
 1624W        W 5824   8.680   7.644   0.727  0.1532 -0.2413  0.0780
 1625W        W 5825   8.325   5.523   3.814  0.1519 -0.1874 -0.4219
 1626W        W 5826   8.798   5.990   3.645 -0.3598 -0.1057 -0.1982
 1627W        W 5827   8.889   8.677   3.352 -0.1314  0.0207  0.1690
 1628W        W 5828   9.570  10.443   2.173  0.1944 -0.0026 -0.0723
 1629W        W 5829   4.083   9.323   0.476  0.0218  0.0646 -0.0417
 1630W        W 5830   3.717   0.781  12.704 -0.0170  0.0413  0.4691
 1631W        W 5831   8.752   5.874   2.214 -0.1524  0.1069 -0.0322
 1632W        W 5832   5.344   0.886   0.752 -0.3006  0.2868 -0.0959
 1633W        W 5833   9.564   0.786   9.892 -0.3401  0.0025  0.2516
 1634W        W 5834   5.314   9.045   2.571 -0.0313  0.0603  0.0725
 1635W        W 5835   7.780   0.890  10.364  0.1847  0.0252 -0.1067
 1636W        W 5836   2.565   5.668   2.875 -0.3435 -0.2513 -0.1583
 1637W        W 5837   4.307   2.140   2.353 -0.0957  0.1423  0.1951
 1638W        W 5838   1.202   5.364  12.015 -0.3540  0.0124  0.0369
 1639W        W 5839   0.020   4.193   2.129  0.1563  0.1032  0.1214
 1640W        W 5840   9.431   4.931   0.037 -0.2468 -0.1428 -0.4712
 1641W        W 5841   6.538   2.321  10.740 -0.0142  0.5597 -0.0919
 1642W        W 5842   9.883   4.319   9.233  0.1599 -0.3365 -0.1382
 1643W        W 5843   9.270   0.484   0.024 -0.1458  0.1830 -0.0082
 1644W        W 5844   2.264   9.848  12.664 -0.2518 -0.0632  0.0692
 1645W        W 5845   0.027   7.333   3.496  0.1344  0.2215  0.1177
 1646W        W 5846   0.133   4.533   4.672 -0.0990  0.1191  0.1006
 1647W        W 5847   2.520  10.418   1.913  0.2648 -0.0358 -0.1424
 1648W        W 5848   8.299  10.147  12.740  0.0519  0.1156  0.1315
 1649W        W 5849   7.307   8.528   8.896 -0.0092  0.0228  0.0567
 1650W        W 5850   8.221   4.085  12.456 -0.1726  0.0778 -0.1040
 1651W        W 5851   6.819   2.146   2.691 -0.0028 -0.1213 -0.2664
 1652W        W 5852   4.117   6.886   0.543  0.1430  0.0312 -0.3622
 1653W        W 5853   8.551   6.921  12.302 -0.2388 -0.3328 -0.0455
 1654W        W 5854   9.303   2.593   0.815 -0.0631 -0.1259 -0.1534
 1655W        W 5855   9.709   8.173  12.194  0.0747 -0.1431 -0.3542
 1656W        W 5856  10.009   4.118   8.771  0.0595  0.1472 -0.0633
 1657W        W 5857  10.452   3.108   0.271 -0.0519 -0.0048  0.1866
 1658W        W 5858   4.814   7.497  10.306  0.5185 -0.3284 -0.1610
 1659W        W 5859   0.833   7.299   2.540 -0.4979 -0.1237 -0.0436
 1660W        W 5860   5.680   3.589   3.750 -0.1035  0.3386  0.2533
 1661W        W 5861   9.718  10.405   2.825  0.3420 -0.2227  0.3270
 1662W        W 5862   4.878   9.686   0.399 -0.2123  0.1694 -0.1583
 1663W        W 5863   8.092   2.541  13.320 -0.3021 -0.2235  0.3294
 1664W        W 5864   5.436   6.218  11.709  0.0993 -0.0277 -0.0994
 1665W        W 5865   1.151   9.015  12.116  0.0038 -0.2401 -0.1005
 1666W        W 5866   9.222   1.317  11.275 -0.1410  0.2732 -0.2140
 1667W        W 5867   2.350   9.005   0.681  0.1128  0.0222 -0.0435
 1668W        W 5868   7.922   6.179   3.816 -0.0749  0.0573 -0.0799
 1669W        W 5869   7.008   6.955   2.579  0.1781  0.1153  0.2732
 1670W        W 5870   6.937   0.977  13.285 -0.1595  0.0317  0.3108
 1671W        W 5871   3.753   1.734   0.147 -0.0195 -0.1223  0.1200
 1672W        W 5872   2.019  10.401   0.767 -0.0117  0.0345  0.1101
 1673W        W 5873   1.589   5.692  11.237 -0.4543  0.0278 -0.1614
 1674W        W 5874   5.598   1.351  11.895  0.0059 -0.0714 -0.0395
 1675W        W 5875   4.649   5.646   1.726 -0.0260  0.0106 -0.0573
 1676W        W 5876   9.564   7.700  12.100  0.0922 -0.4990 -0.2488
 1677W        W 5877   9.537   5.327   3.367 -0.0318  0.0654 -0.1483
 1678W        W 5878   2.183   5.753   1.510 -0.1635  0.0214  0.0855
 1679W        W 5879   2.777   3.720   0.338 -0.2024 -0.3183  0.1548
 1680W        W 5880   1.793   0.368   9.354  0.3000 -0.0610  0.2515
 1681W        W 5881   5.448   7.591   1.957  0.2125  0.1216 -0.0950
 1682W        W 5882   4.842   1.209  11.644 -0.0135 -0.2796  0.2309
 1683W        W 5883   9.355   2.256   4.142 -0.0828  0.1839  0.0090
 1684W        W 5884   8.139   2.877  10.886 -0.1870 -0.2499  0.2910
 1685W        W 5885   2.334   2.500  12.147  0.1826 -0.3431  0.2879
 1686W        W 5886   1.622   3.950   1.438  0.0384  0.0192 -0.0555
 1687W        W 5887   0.767   7.985  13.150 -0.2261  0.2492  0.0318
 1688W        W 5888   2.896   5.286  10.494  0.1519 -0.0930  0.3702
 1689W        W 5889   3.692   8.888   1.735 -0.0403 -0.0355  0.0773
 1690W        W 5890   8.964   3.273   4.733 -0.0597  0.2533 -0.0696
 1691W        W 5891   4.748   2.664   4.912  0.0023  0.1035  0.1001
 1692W        W 5892   8.580   9.295   9.435 -0.0109  0.1761  0.1194
 1693W        W 5893   8.142   4.480   0.387 -0.0042 -0.3144 -0.0049
 1694W        W 5894   9.288   7.928   9.526 -0.3160  0.0613  0.3382
 1695W        W 5895   5.530   2.280   1.873 -0.0557 -0.1277  0.0135
 1696W        W 5896   8.710   5.871  10.305 -0.1503 -0.0611  0.0240
 1697W        W 5897   6.385   8.969  12.687  0.3137  0.0482 -0.0133
 1698W        W 5898   8.097   6.541   2.245 -0.0377  0.2292  0.1760
 1699W        W 5899   7.407   3.093   9.782 -0.0786 -0.0832  0.0443
 1700W        W 5900   3.132   5.977   1.119  0.0526  0.0141 -0.2497
 1701W        W 5901   1.619   8.544  11.234 -0.1720 -0.2998 -0.0781
 1702W        W 5902   3.340   3.410   1.546 -0.2843  0.1080 -0.0704
 1703W        W 5903   8.606   6.342  10.918 -0.0225  0.2266 -0.2036
 1704W        W 5904   0.536   6.433   3.098 -0.0656  0.0066 -0.2628
 1705W        W 5905   9.740   1.239   2.156 -0.3339  0.1452 -0.1343
 1706W        W 5906   0.548   1.469  12.320  0.1887 -0.0593 -0.2449
 1707W        W 5907   9.959  10.014   9.025 -0.2055 -0.2144  0.0593
 1708W        W 5908   3.847   2.596  10.807  0.0036  0.1911 -0.1347
 1709W        W 5909   8.452   3.542   1.025  0.2620  0.0172  0.0012
 1710W        W 5910   4.303   1.313   2.776  0.1972  0.1181  0.1337
 1711W        W 5911   8.028   8.822   9.651  0.1532  0.0825  0.0139
 1712W        W 5912   7.441   4.164   9.691  0.1457  0.1105 -0.0917
 1713W        W 5913   6.227   9.259   1.228  0.1301  0.2942  0.1924
 1714W        W 5914   9.637   3.516   4.583 -0.1923  0.0171 -0.0017
 1715W        W 5915   9.191   1.466  11.736 -0.2147 -0.0688 -0.4117
 1716W        W 5916   9.606   4.348  12.385 -0.1575 -0.0944  0.3359
 1717W        W 5917   4.395   4.166   0.854 -0.0101  0.0961 -0.2487
 1718W        W 5918   2.000   1.432   0.665 -0.3940 -0.4142 -0.1083
 1719W        W 5919   1.925   1.641   2.983 -0.0489  0.3658 -0.0304
 1720W        W 5920   9.811   0.228   0.877  0.0702 -0.2045 -0.2848
 1721W        W 5921   0.884   1.727   1.245  0.0930 -0.1083 -0.0961
 1722W        W 5922   1.746   2.239  10.050  0.1354  0.0240  0.1971
 1723W        W 5923   8.402   4.108   3.955 -0.1422 -0.5655 -0.1082
 1724W        W 5924   2.428   7.975   1.516 -0.1054 -0.2777  0.4229
 1725W        W 5925   1.395   3.830   3.261  0.2926  0.2213  0.2396
 1726W        W 5926   6.222   1.198  12.030 -0.2616  0.2489  0.3381
 1727W        W 5927   3.658   9.478   0.215 -0.3453  0.2244 -0.0709
 1728W        W 5928   2.758   2.055   1.658  0.0339 -0.0729  0.1519
 1729W        W 5929   7.849   7.702   3.852 -0.1225  0.2360  0.3558
 1730W        W 5930   1.161   3.446   9.869  0.0061 -0.2338  0.1306
 1731W        W 5931   6.188   6.779   0.880  0.2572 -0.0173  0.0845
 1732W        W 5932   4.285   9.689   2.054 -0.0421 -0.3252  0.2349
 1733W        W 5933   4.516   2.070  12.178  0.0573  0.2505  0.0599
 1734W        W 5934   9.808   7.402  10.281  0.1970  0.2118 -0.0011
 1735W        W 5935   7.895   6.458   8.984  0.0359  0.0159  0.1891
 1736W        W 5936   2.003   1.671  10.217  0.1342  0.0605 -0.0807
 1737W        W 5937   1.162   7.997  12.752 -0.2964  0.0312  0.2923
 1738W        W 5938   4.179   7.579   9.853 -0.2181 -0.0445  0.0158
 1739W        W 5939   9.937   3.286  12.351 -0.1221  0.0985  0.3899
 1740W        W 5940   3.376   1.345   9.944  0.1119  0.0489 -0.2820
 1741W        W 5941   9.133   8.132  12.047 -0.0762  0.0393  0.5008
 1742W        W 5942   3.887   3.821  10.988  0.2390  0.0695 -0.2438
 1743W        W 5943   7.014   8.455  11.935 -0.4491  0.0658  0.3477
 1744W        W 5944   8.087   7.590  10.972 -0.0538  0.2709 -0.3120
 1745W        W 5945   9.343   3.862  13.321 -0.0248  0.0396 -0.0606
 1746W        W 5946   1.757   0.318  10.370  0.2836  0.0060  0.0129
 1747W        W 5947   4.112   7.520   1.885  0.0135  0.1997 -0.0580
 1748W        W 5948   4.391   3.379  11.560  0.2689 -0.1477  0.5115
 1749W        W 5949   0.513   1.974  10.138 -0.1407 -0.1489  0.1793
 1750W        W 5950   1.528   9.905  13.198 -0.1027 -0.2314  0.2609
 1751W        W 5951   2.405   0.746   1.029  0.2516  0.0317  0.1831
 1752W        W 5952   3.769   9.073   3.126 -0.0527 -0.2155  0.0352
 1753W        W 5953   7.387   0.192  10.412  0.3500  0.0206 -0.0464
 1754W        W 5954   4.510   8.175   1.467  0.0439 -0.1030  0.2489
 1755W        W 5955   9.591   6.498   9.855  0.1708  0.3212 -0.2857
 1756W        W 5956   3.549   3.521   9.765 -0.0317 -0.1979 -0.1469
 1757W        W 5957  10.404   7.392   9.029  0.0160 -0.2653 -0.2752
 1758W        W 5958   2.414   4.944   0.491  0.0007  0.0287 -0.1669
 1759W        W 5959   3.941   0.200   9.866  0.1790 -0.1060 -0.1535
 1760W        W 5960   8.194   5.276  13.169 -0.1199 -0.3021 -0.3172
 1761W        W 5961   5.089   0.443   3.651 -0.0602 -0.0325 -0.1742
 1762W        W 5962   6.428   9.549   4.069 -0.0453  0.1436 -0.3190
 1763W        W 5963  10.105   6.502   3.460 -0.1686 -0.1153 -0.0856
 1764W        W 5964   5.096   4.088   4.468  0.0873  0.1549 -0.0973
 1765W        W 5965   8.931   8.116  11.588  0.0117  0.1317  0.1718
 1766W        W 5966   9.644   2.295   8.873  0.1461  0.0123 -0.1601
 1767W        W 5967   5.413   6.725   1.319  0.1505  0.0033  0.0273
 1768W        W 5968   8.621   1.251   2.325  0.1674 -0.1229  0.0301
 1769W        W 5969   7.154   2.178   4.293  0.1340  0.0857  0.1162
 1770W        W 5970   0.422   5.261  11.919  0.1249 -0.0360 -0.1963
 1771W        W 5971   9.706   5.780  13.230 -0.0985 -0.5082 -0.0499
 1772W        W 5972   4.789   1.829   4.487 -0.0536  0.0537  0.0161
 1773W        W 5973   8.073   5.917  12.567 -0.2490 -0.0787 -0.0215
 1774W        W 5974   2.950   3.910  10.780 -0.1847 -0.0932  0.0209
 1775W        W 5975   1.381   9.630   0.674 -0.2930  0.1388 -0.2563
 1776W        W 5976  10.314   8.216  10.512 -0.1367 -0.0875  0.2225
 1777W        W 5977   3.021   4.882   5.237 -0.2513 -0.1606  0.1666
 1778W        W 5978   3.467   7.086   0.057  0.0036 -0.0943  0.2333
 1779W        W 5979   5.567  10.107   2.148 -0.1289  0.0995  0.0589
 1780W        W 5980   7.933   5.210   3.980  0.1405  0.0780 -0.3409
 1781W        W 5981   6.591   0.784   2.193 -0.0734  0.0108  0.5048
 1782W        W 5982   1.628   9.816   2.433  0.0803  0.0592  0.0560
 1783W        W 5983   6.078   5.921   4.372 -0.2591 -0.0287  0.0418
 1784W        W 5984   1.297   2.097   4.371  0.4564  0.2385  0.2731
 1785W        W 5985   8.729   2.729  10.808 -0.0592 -0.0991  0.0103
 1786W        W 5986   4.440   4.880   1.276 -0.0240 -0.0579  0.0741
 1787W        W 5987   3.244   1.907  12.892 -0.0547 -0.1265 -0.0220
 1788W        W 5988   7.710   0.394   2.568 -0.1370  0.0352 -0.1903
 1789W        W 5989   6.332   7.658   4.478 -0.1487  0.1080  0.0113
 1790W        W 5990   6.957   5.887   2.414  0.0348 -0.2977  0.0383
 1791W        W 5991   3.004   0.524  10.162  0.0079  0.1956  0.0550
 1792W        W 5992   8.577   7.200   2.394  0.4597 -0.0045  0.3478
 1793W        W 5993   3.922   6.221  12.574  0.0561 -0.0350 -0.0397
 1794W        W 5994   7.872   7.790   4.447 -0.2549  0.1857  0.3359
 1795W        W 5995   8.225   7.396   0.764 -0.1162  0.2668  0.2043
 1796W        W 5996   0.732   6.409   2.111 -0.0906 -0.0084  0.3925
 1797W        W 5997   5.154   5.082   1.058 -0.0923  0.0958  0.0219
 1798W        W 5998   6.053   8.253  10.770  0.0653  0.1674  0.3234
 1799W        W 5999   8.369   6.022   0.378 -0.2695 -0.2141 -0.1964
 1800W        W 6000   1.877   6.814   9.537  0.0148 -0.2029 -0.0631
 1801W        W 6001   7.874   0.840   9.731 -0.1527 -0.0817  0.1616
 1802W        W 6002   3.549   2.308  11.714 -0.1505  0.2115  0.0294
 1803W        W 6003   3.870   6.407   4.122 -0.2088  0.2009  0.0266
 1804W        W 6004   3.950   9.969   4.487 -0.0337  0.0794 -0.3231
 1805W        W 6005   0.887   2.888   2.456  0.3456  0.3207 -0.0281
 1806W        W 6006   9.529   0.078   1.353 -0.2347 -0.1019 -0.0244
 1807W        W 6007   3.284  10.299   0.249  0.1813  0.0945 -0.0446
 1808W        W 6008   4.145   0.855   4.272  0.0926 -0.0091  0.1054
 1809W        W 6009  10.457   0.671  12.967  0.0919  0.2101  0.0042
 1810W        W 6010   2.486   7.615   2.753  0.2852 -0.0308  0.1758
 1811W        W 6011   6.394   4.308   1.420  0.0781 -0.3458  0.2057
 1812W        W 6012   1.506   3.988  10.864 -0.2458 -0.1262 -0.0618
 1813W        W 6013   5.908   5.495   9.376  0.1376 -0.2243 -0.0992
 1814W        W 6014   6.593   6.072  12.434  0.2513  0.3877  0.1312
 1815W        W 6015   4.196   1.930  11.720 -0.0085 -0.1680  0.0044
 1816W        W 6016   6.829  10.358   2.468 -0.1833 -0.1299 -0.4115
 1817W        W 6017   7.058   0.125   3.804  0.5810 -0.1121 -0.0030
 1818W        W 6018   5.548   5.941   3.520 -0.0107 -0.2912  0.2741
 1819W        W 6019   0.127   4.709   3.648 -0.0086 -0.0291 -0.4112
 1820W        W 6020  10.074   2.094   9.100  0.1732 -0.1985 -0.0900
 1821W        W 6021   1.666   8.116  12.944 -0.3555  0.0051 -0.1021
 1822W        W 6022   7.049   0.320  11.543  0.1449  0.0757  0.2353
 1823W        W 6023   8.247   5.705   2.459 -0.1306 -0.1048  0.1149
 1824W        W 6024   4.750   5.359  12.128  0.4148  0.3367 -0.1207
 1825W        W 6025   8.497   4.317  10.876  0.0492 -0.0044 -0.0806
 1826W        W 6026   9.716   4.955   0.888  0.0331  0.1698  0.0640
 1827W        W 6027   8.937   0.861  11.120 -0.1797  0.0795 -0.3363
 1828W        W 6028   4.167   2.492   3.279 -0.1364 -0.1102 -0.1517
 1829W        W 6029   4.757  10.250   9.409  0.0150  0.1099  0.2726
 1830W        W 6030   4.637   8.177   9.629 -0.2432  0.1470 -0.2518
 1831W        W 6031   5.959   7.615   2.995 -0.0081 -0.2012  0.1178
 1832W        W 6032   9.993   1.522  11.480 -0.0218  0.0102  0.3144
 1833W        W 6033   4.942   7.569   1.848  0.0648 -0.1209 -0.0240
 1834W        W 6034  10.133   5.002   0.163  0.4763 -0.1641 -0.0952
 1835W        W 6035   7.488   9.945  12.096 -0.0460  0.2562 -0.0555
 1836W        W 6036   5.613   7.536  12.804 -0.0160 -0.1305 -0.3034
 1837W        W 6037   0.989   3.464  12.057 -0.4105  0.1006  0.0733
 1838W        W 6038   6.829   5.061   5.329 -0.0760 -0.1703 -0.2691
 1839W        W 6039   6.347   3.260   1.804  0.1061 -0.1965 -0.2220
 1840W        W 6040   0.861   9.289   9.590  0.1037 -0.1775  0.1303
 1841W        W 6041   3.690   2.771  11.831  0.0256 -0.0323 -0.0385
 1842W        W 6042   7.600   4.575   0.394 -0.3662 -0.1672 -0.2148
 1843W        W 6043   3.076   1.745   9.624 -0.0935 -0.0263 -0.1124
 1844W        W 6044   0.447   0.681   2.754  0.0665 -0.0672  0.1637
 1845W        W 6045   6.453   2.631  13.078  0.1613 -0.0939  0.2092
 1846W        W 6046   6.152   1.102   2.496 -0.1547  0.3636 -0.1136
 1847W        W 6047   3.052   0.436   2.811 -0.3934 -0.0653 -0.2638
 1848W        W 6048   3.697   4.654  13.135  0.0317 -0.1453  0.1725
 1849W        W 6049   9.590   3.127  12.678  0.2587  0.4212  0.0467
 1850W        W 6050   0.596   2.006   0.313  0.0902 -0.0392 -0.1164
 1851W        W 6051   4.057   9.214  12.524 -0.0551 -0.0271 -0.0356
 1852W        W 6052   6.401   6.605  13.165  0.2704 -0.1652 -0.2579
 1853W        W 6053   0.160   5.638   0.982  0.0617 -0.2970 -0.1722
 1854W        W 6054   3.134  10.439  10.079  0.2715 -0.0512  0.0943
 1855W        W 6055   5.152   8.388   9.611  0.2139  0.0696 -0.3517
 1856W        W 6056   2.770   2.701   1.982  0.2302 -0.0396  0.1835
 1857W        W 6057   2.550   4.210   3.885 -0.0665 -0.2077  0.2237
 1858W        W 6058  10.156   0.077  13.218  0.2534  0.0290  0.3249
 1859W        W 6059   4.357   2.873   4.384  0.0007  0.0775 -0.3207
 1860W        W 6060   5.566   4.075  11.735 -0.3823 -0.2169  0.1074
 1861W        W 6061   8.989   5.260  11.019  0.2136  0.1307 -0.0964
 1862W        W 6062   7.463   6.016   3.700 -0.1021  0.0473  0.3281
 1863W        W 6063   2.290   8.322  12.262 -0.0020  0.3452 -0.3161
 1864W        W 6064   8.993   2.551  11.329 -0.1928 -0.1008 -0.0480
 1865W        W 6065   7.239   3.516   2.050  0.1344 -0.1353  0.5183
 1866W        W 6066   2.202   8.755   1.919  0.1354  0.2272 -0.0083
 1867W        W 6067   9.137   1.687  12.806  0.1079  0.0883  0.3346
 1868W        W 6068   3.647   7.742   5.025  0.0267  0.0642  0.1245
 1869W        W 6069   7.739   2.225   2.308  0.1844 -0.2020 -0.0172
 1870W        W 6070   2.244   9.744   1.224  0.1032  0.1441 -0.3256
 1871W        W 6071   6.476   2.743   1.821 -0.0862  0.1316  0.1726
 1872W        W 6072   7.221   8.415  11.367 -0.2377 -0.1827 -0.0968
 1873W        W 6073   0.097   4.537  11.750  0.3033  0.1425  0.0457
 1874W        W 6074   7.013   7.583   9.118  0.1172 -0.1549 -0.0984
 1875W        W 6075   4.805   1.001   3.611  0.1589  0.0179  0.1914
 1876W        W 6076   2.947   6.372   3.386  0.0008 -0.1084  0.1883
 1877W        W 6077   3.551   2.294  12.196 -0.1732 -0.1970 -0.0869
 1878W        W 6078   8.529   7.311  10.987  0.0398 -0.2840 -0.3468
 1879W        W 6079   6.080   0.661   3.422 -0.2774 -0.1625 -0.1332
 1880W        W 6080   3.487  10.299  10.579 -0.2763  0.0430 -0.1307
 1881W        W 6081   3.735   0.155   2.911  0.1374 -0.2098  0.3477
 1882W        W 6082   6.063   7.649  11.391 -0.2495 -0.1080 -0.2564
 1883W        W 6083  10.454   5.124  13.059  0.0963 -0.0277  0.0950
 1884W        W 6084   6.041   5.308   3.907 -0.0459 -0.1088 -0.1254
 1885W        W 6085   6.633   9.836   8.755 -0.3002  0.0341 -0.0351
 1886W        W 6086   4.751   6.449   1.353 -0.0571 -0.3805  0.1617
 1887W        W 6087  10.373   2.759   1.183 -0.1032 -0.1169  0.2414
 1888W        W 6088   3.112   3.686  11.731 -0.3352  0.0661  0.1385
 1889W        W 6089   8.591   7.378   1.164 -0.0613  0.1407 -0.3389
 1890W        W 6090   2.206   7.595   3.191 -0.3697 -0.0686 -0.0649
 1891W        W 6091   5.225   9.656   9.534  0.1863  0.2503 -0.2403
 1892W        W 6092   1.965   5.940  10.339  0.3183 -0.0924 -0.1511
 1893W        W 6093   5.397   4.496  12.608 -0.0559  0.0764 -0.0873
 1894W        W 6094   5.724  10.403   4.261  0.2587 -0.1889  0.1093
 1895W        W 6095   9.943   5.489  10.598 -0.1726  0.0102  0.2532
 1896W        W 6096   4.955   6.461  11.064 -0.2788 -0.2207  0.1007
 1897W        W 6097   9.648   3.737  12.297  0.2941 -0.1576  0.0595
 1898W        W 6098   6.972   0.077  12.382 -0.1153  0.1993 -0.2359
 1899W        W 6099   7.890   3.006  10.529 -0.1191  0.1821  0.3211
 1900W        W 6100   4.620   2.805   1.798  0.4301 -0.0555 -0.0821
 1901W        W 6101   5.806   1.803  10.868  0.1207 -0.0211 -0.0435
 1902W        W 6102   3.584   2.350   1.509  0.1161  0.0698 -0.0620
 1903W        W 6103   7.310   6.716  12.288 -0.0729 -0.0764 -0.0002
 1904W        W 6104  10.240   6.432   2.025  0.0168 -0.1824 -0.1249
 1905W        W 6105   7.496   0.689   4.350  0.3260  0.0523  0.1299
 1906W        W 6106   9.057   8.045  11.028 -0.0615  0.0611 -0.4340
 1907W        W 6107   5.837   0.712   4.288 -0.0320  0.2610  0.1597
 1908W        W 6108   8.804   2.601   0.644  0.1813  0.2787  0.2943
 1909W        W 6109   9.655   6.029  10.717 -0.1786 -0.0327  0.3189
 1910W        W 6110   4.322   6.170   3.950  0.3104  0.1253 -0.2449
 1911W        W 6111   6.816   3.656  12.100  0.0346 -0.1767  0.0501
 1912W        W 6112   9.409   7.165   4.124 -0.1468  0.0940  0.0608
 1913W        W 6113   9.039   2.365   4.586 -0.0837  0.1787  0.0534
 1914W        W 6114   2.553   7.576  11.557  0.2241  0.0671 -0.2244
 1915W        W 6115   3.375   6.087   3.500  0.1405 -0.1164  0.0137
 1916W        W 6116   8.941   2.373   9.606 -0.0361  0.0207 -0.1620
 1917W        W 6117   8.898   2.666  12.179  0.2656 -0.0841 -0.0957
 1918W        W 6118   1.747   1.885  12.291  0.0472 -0.6104 -0.0120
 1919W        W 6119   9.051   2.403   5.041 -0.4971  0.0718 -0.0575
 1920W        W 6120   8.571   1.097  12.717 -0.2083 -0.0991 -0.1670
 1921W        W 6121   8.471   6.291   4.493 -0.0489  0.0063  0.0753
 1922W        W 6122   3.891   1.615  11.501 -0.0048  0.0783  0.1001
 1923W        W 6123   2.031   3.508  10.146  0.1663  0.0625 -0.1357
 1924W        W 6124   4.783   3.131   4.775 -0.0920 -0.2017 -0.0641
 1925W        W 6125   4.124   1.665  12.250 -0.4513  0.0755  0.2261
 1926W        W 6126   4.892   8.443   2.010  0.6166  0.1462 -0.0388
 1927W        W 6127   8.251   6.672   2.691 -0.0682 -0.1669 -0.2864
 1928W        W 6128   0.789   8.273   9.638  0.3403 -0.0985 -0.1215
 1929W        W 6129   5.990   3.663  11.791  0.2138 -0.3405 -0.0185
 1930W        W 6130   2.631   0.617   1.494  0.0342 -0.0400  0.1112
 1931W        W 6131   8.367   5.230   9.875  0.3015 -0.0117  0.0421
 1932W        W 6132   2.132   7.384  11.748  0.0181  0.1097  0.2430
 1933W        W 6133   8.883   0.657   1.353 -0.0693  0.1489  0.1761
 1934W        W 6134   5.507   8.464   4.566 -0.1076  0.1139  0.0108
 1935W        W 6135   4.919   4.211   0.639  0.1522  0.1392 -0.0967
 1936W        W 6136  10.134   5.023  11.340  0.0712 -0.0769 -0.1944
 1937W        W 6137   0.124   7.201  11.567  0.0481  0.1342  0.1151
 1938W        W 6138   3.776   5.315   2.828  0.3109 -0.3114  0.0265
 1939W        W 6139   9.707   4.702  11.980 -0.0786  0.1297 -0.1953
 1940W        W 6140  10.185   2.472   3.438 -0.1445 -0.0789 -0.1175
 1941W        W 6141   7.400   5.136   4.015 -0.0221 -0.0074  0.0529
 1942W        W 6142   6.378   4.703  10.875  0.3298  0.0578  0.0478
 1943W        W 6143   4.665   1.753  13.003  0.0102  0.0917 -0.1364
 1944W        W 6144   8.545   9.337   0.261 -0.1789 -0.0696 -0.1473
 1945W        W 6145   9.900   4.249   9.812 -0.0353  0.1366  0.1050
 1946W        W 6146   2.994   1.552  12.338  0.0905  0.0063  0.0194
 1947W        W 6147   3.403   2.857   0.101  0.1057 -0.1213  0.0623
 1948W        W 6148   6.056   9.061  11.662 -0.0142  0.0251  0.1600
 1949W        W 6149   4.499   9.001   1.300  0.2497 -0.2713  0.0518
 1950W        W 6150   8.930   3.799   0.332 -0.0675 -0.3953  0.0586
 1951W        W 6151   9.811   0.508  11.191  0.2784  0.0717 -0.2288
 1952W        W 6152   2.896   2.820   8.997 -0.1024  0.2259 -0.0573
 1953W        W 6153   5.275   0.092  12.003 -0.0581  0.0317 -0.0639
 1954W        W 6154   3.844   3.689  12.773 -0.0279 -0.0544  0.2873
 1955W        W 6155   0.295   6.480   0.805 -0.1430  0.2271  0.0850
 1956W        W 6156   3.865   3.129  11.394  0.1641  0.2811 -0.4252
 1957W        W 6157   5.100   3.958   2.189 -0.1051 -0.0594  0.0220
 1958W        W 6158   0.739  10.178  11.138 -0.0497 -0.0565  0.0799
 1959W        W 6159   2.417   4.486   1.717  0.0488  0.3404  0.0608
 1960W        W 6160   3.284   3.416   0.635 -0.1124  0.0540 -0.1626
 1961W        W 6161  10.465   3.609   9.461 -0.0233  0.4500  0.2260
 1962W        W 6162   7.631   4.885  13.232  0.0115 -0.0353  0.1451
 1963W        W 6163   5.435   2.781   4.055  0.0618  0.2722  0.0678
 1964W        W 6164   7.774   2.095  11.834 -0.2022 -0.0681  0.3152
 1965W        W 6165   2.446   0.875  10.357  0.1014 -0.0502 -0.0160
 1966W        W 6166   6.634   9.103   9.170  0.0729 -0.2290 -0.2158
 1967W        W 6167   7.683   4.946   4.394 -0.0458 -0.1735 -0.1528
 1968W        W 6168   4.810   2.078   3.194  0.0223  0.1440 -0.1402
 1969W        W 6169   4.901   8.894  10.339  0.2759  0.1252  0.0274
 1970W        W 6170   5.233   9.226  12.013  0.1111  0.0964  0.0851
 1971W        W 6171   1.400   1.615   9.082 -0.0799  0.1122 -0.4199
 1972W        W 6172   6.432   1.040   0.564  0.1747 -0.3986 -0.2050
 1973W        W 6173   3.543   2.987   1.607 -0.0028  0.0657 -0.3520
 1974W        W 6174   2.701   2.085   3.312 -0.0990  0.1230 -0.0250
 1975W        W 6175   9.586   6.972   0.358  0.1821  0.3609  0.1842
 1976W        W 6176   6.444   7.518   5.283  0.0844 -0.0615  0.3137
 1977W        W 6177   9.208   4.421   8.368 -0.0748 -0.1616  0.0411
 1978W        W 6178   1.033   7.592   1.299 -0.2328 -0.0427 -0.1427
 1979W        W 6179   8.184   6.615  12.518 -0.2301 -0.6517  0.0321
 1980W        W 6180   2.216   4.387   9.650 -0.0861 -0.0305 -0.1960
 1981W        W 6181   1.440   6.848   9.807  0.1369 -0.0700 -0.1819
 1982W        W 6182   2.676   1.963  11.249 -0.3807  0.0663 -0.3035
 1983W        W 6183   4.432   1.615   3.181  0.2594  0.1717 -0.2700
 1984W        W 6184   9.530   1.576   9.380 -0.4330  0.0177 -0.1452
 1985W        W 6185   0.108   4.617   3.169 -0.2566 -0.0063 -0.0752
 1986W        W 6186   0.443   7.068  10.147  0.2050 -0.0880 -0.3628
 1987W        W 6187   7.247   9.342  12.709  0.1853 -0.0989  0.0851
 1988W        W 6188   9.150   2.073   2.384 -0.1866  0.1592 -0.0037
 1989W        W 6189   2.677   3.423  12.866  0.2758 -0.1230  0.0118
 1990W        W 6190   7.127   4.037   3.257 -0.2015  0.0029 -0.0979
 1991W        W 6191   0.888   4.054   0.712 -0.0440  0.1468  0.0062
 1992W        W 6192   5.332   8.498   1.109  0.0464  0.1134  0.2050
 1993W        W 6193   8.248   0.347   1.966  0.0362 -0.0650 -0.2625
 1994W        W 6194   4.948   6.776  10.638 -0.0881 -0.1026 -0.3167
 1995W        W 6195   5.667   0.478   3.893  0.2303 -0.1635  0.0428
 1996W        W 6196   3.642   0.136   0.307 -0.2979  0.1245 -0.0659
 1997W        W 6197   9.227   0.370  11.200  0.1444  0.1651  0.1237
 1998W        W 6198   0.985   9.871   9.630  0.0676  0.0270 -0.1702
 1999W        W 6199   0.374   4.619  10.308 -0.0090  0.0078  0.0376
 2000W        W 6200   9.750   4.513  12.800  0.1520 -0.3779  0.1592
 2001W        W 6201   5.251   3.669  11.725  0.0637  0.1612 -0.0816
 2002W        W 6202   8.883   7.571   3.515  0.2974  0.0249 -0.0992
 2003W        W 6203   6.334   5.751   0.180  0.0530 -0.3011  0.1375
 2004W        W 6204   8.508   0.312  11.782  0.3387  0.3257 -0.0555
 2005W        W 6205   7.031   7.799   3.235 -0.1833  0.0370 -0.2388
 2006W        W 6206   4.006   2.160  12.350 -0.1488 -0.2492  0.2990
 2007W        W 6207   6.311   4.541   2.353 -0.0905  0.0049  0.1102
 2008W        W 6208   2.999   9.594   4.267  0.1571  0.1930  0.1785
 2009W        W 6209   7.267   9.698  11.712 -0.1928  0.0956  0.2724
 2010W        W 6210   7.166   7.191   0.114  0.0998  0.0104 -0.4068
 2011W        W 6211   8.975   9.249   9.855 -0.0966  0.0418  0.3396
 2012W        W 6212   9.379   3.591   1.867 -0.0193  0.1380 -0.0967
 2013W        W 6213   9.409   4.403  11.185  0.0182 -0.0049 -0.0158
 2014W        W 6214   0.399   2.022   0.866 -0.1319 -0.3452 -0.1530
 2015W        W 6215   0.470   9.030   2.922  0.0285  0.2881 -0.2362
 2016W        W 6216   5.812   3.628   3.254  0.2614  0.1722 -0.2261
 2017W        W 6217   7.120   8.844   9.358  0.1260  0.0002  0.0969
 2018W        W 6218   9.245   9.993  11.028 -0.0703 -0.0463 -0.2261
 2019W        W 6219   6.755   8.207   9.728 -0.0480  0.0982 -0.1279
 2020W        W 6220   5.785   6.292  11.345 -0.1294 -0.2953  0.2306
 2021W        W 6221   1.631   7.388   4.039 -0.1179 -0.3997 -0.2339
 2022W        W 6222   6.235   7.904   0.923  0.0498 -0.0230 -0.2575
 2023W        W 6223   9.089   6.617   9.771 -0.0987  0.1276  0.0940
 2024W        W 6224   3.440   2.981   4.843  0.0189 -0.2661  0.1740
 2025W        W 6225   8.238   8.494   0.676  0.0172  0.3103 -0.0853
 2026W        W 6226   3.929   9.541  10.706 -0.1615 -0.0720 -0.0723
 2027W        W 6227   8.242   7.505   2.574 -0.0525 -0.0100 -0.1031
 2028W        W 6228   7.594   2.741  10.772 -0.0933  0.2714 -0.1065
 2029W        W 6229   8.748   4.739   1.399  0.3673  0.1401  0.0398
 2030W        W 6230   3.682   2.982   9.894 -0.1985  0.1068 -0.0510
 2031W        W 6231   7.416   1.866   4.013  0.2580  0.0279 -0.2128
 2032W        W 6232   1.061   7.908   1.709 -0.4711  0.2610  0.0322
 2033W        W 6233   0.127   2.475  10.795 -0.1511  0.0333 -0.2957
 2034W        W 6234   7.022   8.917  12.732 -0.1542  0.1975 -0.0560
 2035W        W 6235   0.020   7.624  12.582  0.0512 -0.3337 -0.2509
 2036W        W 6236  10.098   2.152   1.308  0.1301  0.0415  0.0344
 2037W        W 6237   0.001   1.644   2.561  0.1287  0.0021 -0.1052
 2038W        W 6238   2.967   6.007  12.678 -0.3579  0.3472 -0.0393
 2039W        W 6239   0.935   5.781   0.443 -0.0637  0.3310  0.0234
 2040W        W 6240   2.816   5.981   8.473 -0.1784  0.2198  0.1188
 2041W        W 6241   9.308   4.247   1.287 -0.4185  0.0959  0.2251
 2042W        W 6242   7.168   2.165   2.304  0.1205 -0.1867  0.0465
 2043W        W 6243   7.420  10.119   1.883 -0.1832  0.4218 -0.2416
 2044W        W 6244   0.369   4.455   0.406 -0.0104 -0.2704 -0.0909
 2045W        W 6245   5.667   5.902   1.338 -0.3660  0.0963 -0.2861
 2046W        W 6246   9.974   8.095   3.898 -0.3280  0.0953  0.3723
 2047W        W 6247   5.464   8.897  11.261  0.2991 -0.1177 -0.0399
 2048W        W 6248   2.577   2.286   4.897  0.0260  0.0249  0.2421
 2049W        W 6249   8.046   9.917  12.207  0.2436 -0.2908  0.1782
 2050W        W 6250   0.678   2.846  10.662 -0.2253 -0.2036 -0.0309
 2051W        W 6251   8.332   2.124   2.819  0.3525 -0.0403  0.1159
 2052W        W 6252   9.919   7.447  12.348 -0.1648  0.2250  0.3116
 2053W        W 6253   6.758   3.749   4.742 -0.0100  0.1777 -0.0180
 2054W        W 6254   9.509   3.046   0.650 -0.0163  0.1776 -0.2880
 2055W        W 6255   8.417   8.482   2.005 -0.1996  0.3596 -0.1277
 2056W        W 6256   4.969   6.617   0.580  0.2153  0.0265  0.0757
 2057W        W 6257   4.426   9.527  10.894  0.3586 -0.0988 -0.0715
 2058W        W 6258   8.746   8.776  12.578 -0.0904  0.0492  0.1086
 2059W        W 6259   7.870   1.030   4.191 -0.0959  0.1404 -0.0634
 2060W        W 6260   2.787   8.970   2.678 -0.2039  0.1240  0.0914
 2061W        W 6261   9.591   1.045  12.082 -0.2644 -0.0254 -0.1403
 2062W        W 6262   7.809   0.415  13.201 -0.0757 -0.0419  0.0611
 2063W        W 6263   0.824   4.834   1.445  0.1869 -0.0992  0.1569
 2064W        W 6264   9.834   2.281   0.141  0.0214  0.1735 -0.0842
 2065W        W 6265   8.233   1.448   4.112 -0.0342 -0.0191  0.1083
 2066W        W 6266   4.975   6.595  11.742 -0.1906 -0.0403 -0.1415
 2067W        W 6267   5.273   7.285   1.599  0.0009  0.5309 -0.1166
 2068W        W 6268   5.930   5.296   3.084  0.1664  0.2136 -0.0332
 2069W        W 6269   5.071   0.833   0.063 -0.1391  0.0980 -0.0859
 2070W        W 6270   8.723   0.868   3.115 -0.1479 -0.2759 -0.0797
 2071W        W 6271   3.687   9.588  12.799 -0.3230 -0.1854  0.0454
 2072W        W 6272   5.781   1.511   1.137  0.3865 -0.1892 -0.3199
 2073W        W 6273   0.873   0.727   2.411  0.1593 -0.0946  0.0215
 2074W        W 6274   9.884   9.244  12.148 -0.0615 -0.0382 -0.4037
 2075W        W 6275   7.201   8.150   4.156 -0.0757  0.1524 -0.0354
 2076W        W 6276   2.308   4.489  12.232  0.0090  0.0433 -0.0964
 2077W        W 6277   3.881   0.024   3.929  0.0236 -0.3308 -0.0424
 2078W        W 6278   3.520   1.378   1.602  0.0326 -0.0632  0.1565
 2079W        W 6279   0.106   8.844  10.973 -0.1737 -0.3296 -0.0542
 2080W        W 6280  10.140   0.615   9.809  0.4346 -0.1863  0.0563
 2081W        W 6281   1.923   9.290  10.596 -0.0100 -0.0943  0.0041
 2082W        W 6282   8.639   7.072   0.709  0.1466 -0.0189  0.1134
 2083W        W 6283   0.020   6.737  10.169 -0.0964 -0.1569 -0.2747
 2084W        W 6284   7.426   2.754  10.167  0.0822 -0.0814  0.3137
 2085W        W 6285   3.221   9.146   2.991 -0.2011  0.0279  0.0683
 2086W        W 6286   2.032   9.019  11.972  0.2164 -0.0531 -0.1479
 2087W        W 6287   7.313   7.670  12.284 -0.2984 -0.0110  0.0238
 2088W        W 6288   0.563   5.388  12.904 -0.0537  0.2249 -0.2461
 2089W        W 6289   5.849   0.883  11.099 -0.1443 -0.2708 -0.1119
 2090W        W 6290   8.463   5.379  11.241 -0.0620  0.2160 -0.0680
 2091W        W 6291   4.191  10.160  13.359 -0.1582  0.0158 -0.1367
 2092W        W 6292   9.642   3.438   9.271  0.0478 -0.1552 -0.0784
 2093W        W 6293   5.873   3.259  12.598 -0.3677 -0.1979  0.0156
 2094W        W 6294   7.262  10.312  11.915  0.0438  0.0518  0.3430
 2095W        W 6295   6.764   0.101  13.069 -0.1397  0.2000 -0.0310
 2096W        W 6296   0.610   6.012   1.146  0.3112  0.3939 -0.0150
 2097W        W 6297   5.234   4.056  11.315  0.4146 -0.1742  0.2697
 2098W        W 6298   2.583   3.108   2.748 -0.0085 -0.2189  0.1351
 2099W        W 6299   4.867   6.381   9.269  0.3116  0.0784  0.1205
 2100W        W 6300  10.436   0.475  10.465  0.0248 -0.2816 -0.0149
 2101W        W 6301   7.096   6.226  10.625 -0.0490 -0.1160  0.3669
 2102W        W 6302   3.363  10.450   2.544  0.2647  0.0555 -0.0592
 2103W        W 6303   7.653   7.822   2.320  0.1355 -0.1925  0.3054
 2104W        W 6304   0.304   1.948   4.291 -0.0093 -0.1408 -0.2639
 2105W        W 6305   8.767   4.357   3.639  0.1550 -0.1568 -0.1904
 2106W        W 6306   0.510  10.329   2.586  0.2455  0.2441 -0.0402
 2107W        W 6307   6.856   2.674   3.299 -0.3819  0.0336 -0.0222
 2108W        W 6308   6.015   7.817  12.660 -0.3137  0.0978 -0.0619
 2109W        W 6309   9.517   0.111   3.218  0.0264  0.3952 -0.0090
 2110W        W 6310   1.620   3.604   8.819  0.0201 -0.0484 -0.0332
 2111W        W 6311   8.293   3.180  10.028  0.0903 -0.2167 -0.5108
 2112W        W 6312   3.459   1.975   4.820  0.2359  0.1815 -0.2234
 2113W        W 6313   0.457   9.208   2.184 -0.0619  0.1134  0.2774
 2114W        W 6314   4.997   8.513   4.468 -0.2564 -0.1422 -0.0767
 2115W        W 6315   3.962   8.590  10.862 -0.0817 -0.0897 -0.0694
 2116W        W 6316   5.585   1.170  10.344  0.1266 -0.3131  0.1852
 2117W        W 6317   4.547   0.497   0.247 -0.1643 -0.1432  0.4216
 2118W        W 6318   7.326   7.162   1.291  0.2626  0.2702 -0.0801
 2119W        W 6319   3.701   6.190  11.207 -0.0301 -0.2887 -0.0033
 2120W        W 6320   8.964   3.889   2.607  0.1266  0.2225 -0.1634
 2121W        W 6321   4.515   8.795   2.167 -0.2281 -0.0995  0.0400
 2122W        W 6322   4.357   4.513  13.180 -0.1381  0.1378 -0.0942
 2123W        W 6323   8.676   5.926   0.800  0.0722 -0.0386 -0.0143
 2124W        W 6324   3.469   0.940  12.192  0.1371 -0.0644  0.0023
 2125W        W 6325   2.523   5.942  10.792  0.2887  0.0366 -0.0894
 2126W        W 6326   8.428   1.120   0.699 -0.1734  0.0470 -0.0703
 2127W        W 6327   1.445   5.855   2.191 -0.0773 -0.1613  0.2493
 2128W        W 6328   8.636   5.406   2.288  0.1202 -0.3199  0.0586
 2129W        W 6329   2.525   9.041   3.636  0.0690  0.1364 -0.0799
 2130W        W 6330   2.931   3.647   1.871 -0.1978  0.4128 -0.1685
 2131W        W 6331   2.672   4.660   5.527 -0.3933 -0.2656 -0.0414
 2132W        W 6332   0.552   2.374  12.616  0.1541  0.0059  0.2132
 2133W        W 6333   7.854   9.944   9.601 -0.0416  0.0569 -0.1392
 2134W        W 6334   8.901   8.357   1.063 -0.1895 -0.2511  0.0680
 2135W        W 6335   9.220   7.498  12.954  0.1390  0.0421  0.0282
 2136W        W 6336   2.549   4.725   3.771 -0.4765 -0.2951  0.2301
 2137W        W 6337   0.223   4.630  13.127  0.0410  0.3114 -0.0198
 2138W        W 6338   1.666   7.333   9.854 -0.1269  0.3601 -0.1249
 2139W        W 6339   8.662   7.288   9.891 -0.1845  0.1483  0.1777
 2140W        W 6340   4.177   9.276   3.612  0.0165 -0.0774 -0.1310
 2141W        W 6341   2.712   6.839   0.566 -0.0662 -0.1075 -0.2141
 2142W        W 6342   4.682   7.010  10.280 -0.0142  0.1611  0.0655
 2143W        W 6343   5.680   8.394  12.732 -0.4219  0.0582  0.0901
 2144W        W 6344   5.677   0.816   1.635 -0.1477  0.0316  0.1642
 2145W        W 6345   3.815   3.570   4.016  0.0626  0.1674 -0.2370
 2146W        W 6346  10.015   9.604   2.100 -0.2155 -0.1985 -0.0368
 2147W        W 6347   7.781   1.994   9.530  0.0102 -0.1298 -0.0185
 2148W        W 6348   7.647   0.372   1.349  0.2628  0.0951  0.1763
 2149W        W 6349   6.355   7.991   3.017  0.2549  0.0723  0.1418
 2150W        W 6350   6.916   9.858   2.549  0.0252 -0.1432 -0.0265
 2151W        W 6351  10.133   4.478  10.372  0.0446 -0.0408  0.0335
 2152W        W 6352   0.927   0.780  12.179  0.0073  0.0460  0.2269
 2153W        W 6353   6.508   4.169   4.445  0.4236  0.0253  0.0390
 2154W        W 6354   0.004   4.478   1.674  0.1794  0.1509  0.2477
 2155W        W 6355   8.201   1.755  12.836  0.1310  0.1882  0.1154
 2156W        W 6356   4.154   0.876   0.312 -0.2305 -0.1963 -0.0062
 2157W        W 6357   1.998   6.633   1.026 -0.1317  0.2195 -0.0311
 2158W        W 6358   5.168   0.687   1.660 -0.0423  0.3789 -0.0048
 2159W        W 6359   6.466   2.072   0.368 -0.3257 -0.2663  0.0427
 2160W        W 6360   8.111  10.125   2.998 -0.2859 -0.1876 -0.1327
 2161W        W 6361   6.996   8.356   4.564 -0.1790 -0.0216 -0.1378
 2162W        W 6362   1.192   2.562   4.312 -0.2959  0.3850 -0.2416
 2163W        W 6363   9.439   0.256   0.552  0.0286  0.0660  0.0130
 2164W        W 6364   3.439   2.073   4.336  0.0156  0.0109  0.3679
 2165W        W 6365   9.789   9.676   3.137  0.1135 -0.0173  0.1033
 2166W        W 6366   8.725   2.415   1.709 -0.0054 -0.1509  0.1000
 2167W        W 6367   6.630   4.397   3.168  0.1598 -0.3030  0.0143
 2168W        W 6368   3.032   1.421  12.858 -0.2095 -0.0364 -0.0297
 2169W        W 6369   7.834   0.052  10.666 -0.0632  0.1188 -0.2517
 2170W        W 6370   0.562   6.898   2.915 -0.0378  0.0608  0.1392
 2171W        W 6371   9.505   2.837  11.218  0.1842  0.0757 -0.2799
 2172W        W 6372   7.158   7.445   4.722  0.2226  0.0929  0.0576
 2173W        W 6373   1.625   3.841   0.889  0.1017 -0.1338 -0.0590
 2174W        W 6374   7.300   2.071  12.021  0.0538  0.2346 -0.0986
 2175W        W 6375   3.921   0.978   9.398  0.0204  0.0145  0.4457
 2176W        W 6376   2.875   8.790   3.218  0.1178  0.1285  0.2201
 2177W        W 6377   7.131   9.750   3.467 -0.1642 -0.1627  0.0486
 2178W        W 6378   4.936   3.930   0.201  0.0563  0.1971 -0.0748
 2179W        W 6379   2.667   7.490   3.400  0.1348 -0.0350 -0.1680
 2180W        W 6380   7.919   0.194   0.471 -0.0821  0.1027  0.1596
 2181W        W 6381   3.611   9.012  12.517 -0.0856  0.2574 -0.1724
 2182W        W 6382   5.375   3.194  12.963 -0.2988 -0.2892 -0.1427
 2183W        W 6383   3.317   5.075  13.079  0.3540  0.4725  0.3277
 2184W        W 6384   6.395   7.111  10.032 -0.0470  0.0738 -0.1835
 2185W        W 6385   4.306   4.259   3.854 -0.2572  0.3555  0.0769
 2186W        W 6386   1.879   9.044   0.371 -0.3865 -0.0068  0.0459
 2187W        W 6387   1.265   7.414   2.776  0.1060  0.1363 -0.0108
 2188W        W 6388   8.304   9.179  13.186 -0.0894 -0.1980  0.2666
 2189W        W 6389   6.572   7.081   9.582  0.1906  0.3250 -0.2000
 2190W        W 6390   0.387   6.803   2.275 -0.1916 -0.1510  0.1579
 2191W        W 6391   8.916   7.191   3.148  0.2872  0.0258  0.0775
 2192W        W 6392   0.577   5.554   4.496  0.1407  0.0092  0.1451
 2193W        W 6393   9.989   6.402  11.480  0.0539  0.3178  0.0691
 2194W        W 6394   5.306   4.557  13.116 -0.1446 -0.3385  0.0849
 2195W        W 6395   7.772   2.822  13.091 -0.1361 -0.0862 -0.2161
 2196W        W 6396   4.461   3.895   9.934  0.0435 -0.1869  0.2132
 2197W        W 6397   7.119   2.291   3.797 -0.1485  0.2438 -0.0028
 2198W        W 6398   4.603   3.611   1.681  0.1662 -0.2697 -0.2267
 2199W        W 6399   4.194   9.957  12.113  0.0716 -0.0255  0.0784
 2200W        W 6400   3.181   3.080  12.114  0.2548 -0.0033 -0.1407
 2201W        W 6401   6.121   3.573   1.491  0.1406 -0.0199  0.0752
 2202W        W 6402   7.441   9.815   0.557  0.4561  0.1863  0.0823
 2203W        W 6403   4.559   8.170   4.624 -0.0984  0.1992  0.2272
 2204W        W 6404  10.058   5.520   2.039 -0.2830 -0.1976 -0.1226
 2205W        W 6405   3.859   2.347   9.953 -0.2330 -0.2450  0.3555
 2206W        W 6406   4.413   8.033  10.104 -0.1502  0.0717 -0.0231
 2207W        W 6407   0.701   5.661  10.950 -0.2881  0.0775  0.0610
 2208W        W 6408   7.573   3.184   9.236  0.0205 -0.1373 -0.1445
 2209W        W 6409   2.072   6.752  11.634  0.2647  0.0711 -0.3263
 2210W        W 6410   4.675   2.846   1.104  0.1324 -0.1160 -0.0408
 2211W        W 6411   9.240   2.586   8.774  0.1611  0.0093  0.0691
 2212W        W 6412   4.794   9.945   3.812 -0.0508  0.2558 -0.0508
 2213W        W 6413   3.729   5.944   2.695 -0.0021  0.3941  0.1262
 2214W        W 6414   1.076   2.213   0.226 -0.1000 -0.1101  0.0751
 2215W        W 6415   4.810   0.024   9.794 -0.0222  0.0451 -0.3247
 2216W        W 6416   4.744   0.640   2.185 -0.1169 -0.2446 -0.0949
 2217W        W 6417  10.028  10.379  11.804 -0.0304  0.1276  0.2556
 2218W        W 6418   3.470   5.951  12.836  0.1207 -0.0254  0.1721
 2219W        W 6419   8.526   4.605   3.958  0.2849  0.0018  0.1427
 2220W        W 6420   9.268   3.407  12.384 -0.2192  0.1284 -0.2744
 2221W        W 6421   2.920   7.759  12.735 -0.1508  0.1154  0.0118
 2222W        W 6422   4.803   4.664   1.658  0.1828 -0.0172 -0.3049
 2223W        W 6423   0.778   1.917   9.683  0.3781  0.1518 -0.0442
 2224W        W 6424   2.971   4.144   3.557  0.1476  0.1275 -0.1276
 2225W        W 6425   3.524   6.065  10.473 -0.2166  0.4605 -0.0876
 2226W        W 6426   6.701   8.099  12.633 -0.0933  0.0299 -0.4172
 2227W        W 6427   6.275   8.490   9.745 -0.1798  0.0899 -0.1326
 2228W        W 6428  10.238   0.921   3.439  0.3561 -0.3750  0.0140
 2229W        W 6429   2.856   8.262  11.046 -0.0166 -0.1199  0.1379
 2230W        W 6430   2.130   3.536   8.749  0.0203  0.1604  0.0355
 2231W        W 6431   2.902   9.006  13.255 -0.0203 -0.1407  0.0834
 2232W        W 6432   8.587   4.547   1.884  0.3694  0.2186 -0.3848
 2233W        W 6433   9.900   8.893   1.571  0.1892 -0.1450  0.1856
 2234W        W 6434   4.317   7.693   3.262  0.2476 -0.2242  0.0770
 2235W        W 6435   6.823   3.217  10.802 -0.0134  0.0656  0.1317
 2236W        W 6436   2.353   7.877   2.321  0.0885 -0.5935  0.0923
 2237W        W 6437   9.835   2.538   1.115  0.1433 -0.0911  0.1092
 2238W        W 6438   5.036   9.435  10.024  0.1651  0.1277 -0.3417
 2239W        W 6439   2.646   0.128   2.354 -0.0662 -0.1417 -0.1402
 2240W        W 6440   0.509   8.801  12.476 -0.1074  0.0407  0.1510
 2241W        W 6441   7.402   3.992   2.194  0.0546  0.1063  0.1178
 2242W        W 6442   7.407   4.955   9.370  0.2040 -0.1227  0.0833
 2243W        W 6443   5.213   0.408  10.614  0.0511  0.0243 -0.2134
 2244W        W 6444   3.456  10.179  11.228  0.0514 -0.0163  0.1681
 2245W        W 6445   8.478   8.116  12.872  0.1978  0.0638 -0.4268
 2246W        W 6446   6.502   6.867  11.753  0.2590  0.2919 -0.0739
 2247W        W 6447   7.427   1.851   1.932  0.4856 -0.2786  0.0325
 2248W        W 6448   1.992   4.096  12.092  0.0674  0.0511  0.0816
 2249W        W 6449   9.070  10.330   2.101  0.3618 -0.1361 -0.0838
 2250W        W 6450   7.476   5.621  10.850 -0.4180 -0.3239  0.0171
 2251W        W 6451   1.450  10.088   9.819  0.2482 -0.2457  0.1295
 2252W        W 6452   0.021   0.013  11.769  0.3232 -0.0358 -0.0219
 2253W        W 6453   4.685   4.114   2.923  0.3002  0.4101  0.0573
 2254W        W 6454   6.817   0.742   1.328 -0.1058  0.3580 -0.0549
 2255W        W 6455   5.733   8.206   3.741  0.1198  0.1253  0.0024
 2256W        W 6456   9.595   1.561   2.611  0.0086  0.1322 -0.1054
 2257W        W 6457   7.860   3.407  12.367 -0.1699  0.0370  0.1498
 2258W        W 6458   7.654   8.917   2.501 -0.1141 -0.1213 -0.2803
 2259W        W 6459   7.360   0.645  10.133  0.0708  0.0340 -0.3280
 2260W        W 6460   1.205   1.320  11.222  0.3949 -0.3677  0.1191
 2261W        W 6461   8.940   4.064  10.853 -0.1951 -0.0712 -0.1251
 2262W        W 6462   6.656   7.290  12.608  0.1979  0.1448 -0.0739
 2263W        W 6463   6.323   8.496   4.213  0.0320  0.1753  0.1041
 2264W        W 6464   3.779   2.209   2.143 -0.1752 -0.2390 -0.0584
 2265W        W 6465   6.689  10.335   5.114  0.3241  0.1745 -0.1552
 2266W        W 6466   7.349   5.838   5.085  0.1585 -0.0506  0.3095
 2267W        W 6467   0.399   2.681  13.027  0.2597  0.1727 -0.1692
 2268W        W 6468   0.628   8.507   2.950 -0.0760 -0.0625 -0.0290
 2269W        W 6469   8.858   7.218  13.192  0.1120  0.1928  0.0762
 2270W        W 6470   9.463   8.035   4.664 -0.1132 -0.1558 -0.2654
 2271W        W 6471   5.461   8.968   4.795 -0.2567  0.1643 -0.2258
 2272W        W 6472   2.481   4.053  12.225  0.0832 -0.1427  0.0633
 2273W        W 6473   2.788   6.958  12.886  0.3766 -0.1173  0.0185
 2274W        W 6474   1.339   9.255  12.570  0.0200 -0.1770  0.0245
 2275W        W 6475   6.264   1.252  11.194 -0.4693 -0.0122  0.2703
 2276W        W 6476   8.452   3.917   3.499  0.0876 -0.1455 -0.0437
 2277W        W 6477   4.345   6.767   9.997  0.0677 -0.2094  0.1510
 2278W        W 6478   1.411  10.134  10.549  0.0334 -0.1894 -0.0522
 2279W        W 6479   3.275  10.089   9.697 -0.0548  0.1236  0.0229
 2280W        W 6480   5.358   8.504   3.952 -0.1155 -0.1197  0.3110
 2281W        W 6481   5.116  10.131  12.091  0.1835  0.1215 -0.2712
 2282W        W 6482   6.282   3.489   3.132  0.1738  0.0127  0.1777
 2283W        W 6483   1.970   9.659  10.249 -0.1439 -0.3550 -0.4187
 2284W        W 6484   3.642   3.140  12.470  0.2390  0.1884 -0.1795
 2285W        W 6485   1.924   2.056   3.766 -0.2640 -0.0323 -0.3058
 2286W        W 6486   6.117   0.316   9.965 -0.1445  0.1790 -0.0120
 2287W        W 6487   6.576  10.329  12.299 -0.0808  0.4149  0.2407
 2288W        W 6488   0.575   3.341  13.351  0.1488 -0.1857 -0.1119
 2289W        W 6489   6.781   8.898  10.557  0.0006 -0.3374  0.2193
 2290W        W 6490   9.761   9.611  10.139 -0.0147  0.0976  0.1200
 2291W        W 6491   4.517   1.925  10.762 -0.0734 -0.4619  0.4479
 2292W        W 6492   9.850   1.275   9.698  0.1774 -0.1460 -0.1053
 2293W        W 6493   1.972   3.106   0.145 -0.0036 -0.0818 -0.1629
 2294W        W 6494   5.793   1.256   3.389  0.2423 -0.3439  0.2146
 2295W        W 6495   6.716   7.515   1.746 -0.0764  0.3850  0.0648
 2296W        W 6496   8.159  10.443   0.881  0.0080 -0.0246 -0.1240
 2297W        W 6497   5.427   1.956  11.956  0.1054  0.1488  0.2531
 2298W        W 6498  10.404   4.244  12.866 -0.0109 -0.0333  0.1014
 2299W        W 6499   8.940   7.809   9.171 -0.2653 -0.1927  0.1454
 2300W        W 6500   3.721   7.487   4.607  0.2796  0.3478  0.0828
 2301W        W 6501   1.432   5.548   3.465 -0.0857 -0.0292  0.0293
 2302W        W 6502   8.623   4.935  11.511  0.1897  0.2143  0.0527
 2303W        W 6503   4.784  10.321   4.140 -0.1361 -0.1294 -0.1490
 2304W        W 6504   9.374   9.693   1.568 -0.2746  0.0737 -0.1203
 2305W        W 6505   7.689   5.843   3.289 -0.2511 -0.0613 -0.0686
 2306W        W 6506   5.528   7.743  10.657 -0.0005 -0.0957 -0.2148
 2307W        W 6507   2.150   8.443  10.468 -0.0094 -0.1685 -0.0480
 2308W        W 6508   9.021   9.193   0.260  0.1457  0.2293  0.0198
 2309W        W 6509   6.365   6.935   2.682 -0.0410 -0.1299 -0.0781
 2310W        W 6510   4.326   3.022   5.193 -0.1838 -0.2714 -0.1469
 2311W        W 6511   4.435   0.088   5.020  0.1567  0.0084  0.0175
 2312W        W 6512   6.927   5.967   0.001  0.1176 -0.2489 -0.0747
 2313W        W 6513   2.916   6.373  11.123 -0.2361  0.2087 -0.0268
 2314W        W 6514   7.007   6.815   9.679  0.1429 -0.1638 -0.0675
 2315W        W 6515   4.414   8.910  12.881 -0.0729  0.1988  0.0376
 2316W        W 6516   1.458   9.752  11.461 -0.4008  0.0561  0.2414
 2317W        W 6517   3.919   5.127  12.352  0.4027  0.0203  0.0042
 2318W        W 6518   8.281   1.815  10.615 -0.2129 -0.3373 -0.1521
 2319W        W 6519   7.892   1.905   3.892  0.2263 -0.1768  0.5898
 2320W        W 6520   1.972   2.580   0.052 -0.0097 -0.2934  0.0248
 2321W        W 6521   7.404  10.269   2.854  0.2541 -0.0148  0.4541
 2322W        W 6522   4.174   1.353   4.407  0.1728 -0.2963  0.2177
 2323W        W 6523   5.575   4.521  12.149  0.2710  0.0242 -0.0795
 2324W        W 6524   2.363   9.325  12.634  0.0473  0.2325  0.2197
 2325W        W 6525   7.250   4.646   4.784 -0.1384  0.4633  0.0649
 2326W        W 6526   4.018   6.376  12.076 -0.3493 -0.4004 -0.0629
 2327W        W 6527   9.067   7.957   3.749  0.1636 -0.2367  0.0745
 2328W        W 6528  10.434   7.983   9.126  0.2857 -0.0353  0.0214
 2329W        W 6529   6.659   4.335  13.232 -0.2404 -0.3726 -0.1761
 2330W        W 6530   3.299   7.440  11.097 -0.2423  0.0312  0.0415
 2331W        W 6531   2.514   5.536  11.415  0.2687 -0.1950  0.2197
 2332W        W 6532   4.381   5.219  12.550  0.0879  0.0754  0.0099
 2333W        W 6533   8.162   2.319  11.596  0.0294  0.0017 -0.2082
 2334W        W 6534   8.324   1.135  10.064  0.1768 -0.2005 -0.0842
 2335W        W 6535   1.836   5.491   3.811  0.1206  0.0729 -0.2654
 2336W        W 6536   2.489   2.395  11.576 -0.1918 -0.0633 -0.1760
 2337W        W 6537   3.761   9.002   3.617 -0.3362  0.2485  0.2286
 2338W        W 6538   9.914   1.917  12.223  0.0969 -0.0756 -0.5812
 2339W        W 6539   4.933   7.819  10.949 -0.0659  0.0872 -0.1264
 2340W        W 6540   3.659   6.255   8.703  0.0048  0.0435 -0.2123
 2341W        W 6541   7.171   9.318  11.285  0.0121 -0.0881  0.0507
 2342W        W 6542   0.113   2.168   2.599  0.1330  0.0741 -0.1071
 2343W        W 6543   2.316   2.438   2.066  0.1098  0.2859  0.1728
 2344W        W 6544   8.301   0.342   0.083  0.1213  0.2136  0.2263
 2345W        W 6545   8.288   9.392  10.524 -0.2034 -0.1229 -0.0622
 2346W        W 6546   0.109   7.683   1.707 -0.2269 -0.0232  0.1815
 2347W        W 6547   4.179   8.942   0.861  0.1520 -0.0048 -0.1071
 2348W        W 6548   2.476   1.208  11.291 -0.0158  0.2780 -0.0934
 2349W        W 6549   7.709  10.448   1.554 -0.2867 -0.3010  0.1960
 2350W        W 6550   6.517   8.976  11.863 -0.1413  0.0641  0.0409
 2351W        W 6551   9.258   2.870   3.921  0.0501 -0.0512  0.0066
 2352W        W 6552   3.516   0.701  11.722  0.1062  0.0831  0.2049
 2353W        W 6553   9.386   5.479   2.846 -0.0263 -0.0906 -0.1167
 2354W        W 6554   0.324   4.702  10.935  0.1050  0.2195  0.0028
 2355W        W 6555   6.408   4.395  11.637 -0.2479  0.2115  0.1230
 2356W        W 6556   6.250   7.996   2.096  0.1080  0.0885  0.3296
 2357W        W 6557   8.317   7.859   4.214 -0.1102 -0.0946  0.0577
 2358W        W 6558   3.945   6.677   9.577 -0.1002  0.0392  0.0538
 2359W        W 6559   6.078   0.296   1.884  0.2197 -0.0204 -0.4118
 2360W        W 6560   1.879   4.136   4.028  0.0212 -0.0281 -0.3547
 2361W        W 6561   3.767  10.428  12.581  0.1288 -0.4418  0.0993
 2362W        W 6562   2.433   5.610   0.013  0.2926  0.1290  0.0416
 2363W        W 6563   1.472   4.836   3.689 -0.1983  0.2847  0.0311
 2364W        W 6564   1.564   0.334   1.595  0.0884  0.3151 -0.3569
 2365W        W 6565   6.182   7.144   3.645  0.4164 -0.2018  0.0148
 2366W        W 6566  10.139   5.971  11.090  0.2857 -0.0381  0.1038
 2367W        W 6567   7.288   3.155   1.652 -0.3798  0.1047  0.0487
 2368W        W 6568   2.970   8.159   1.589  0.0300 -0.2217 -0.1349
 2369W        W 6569   4.375   9.277   2.326  0.1279 -0.0494 -0.0948
 2370W        W 6570   9.412   7.844  11.674 -0.2676  0.1056  0.1375
 2371W        W 6571   7.671   1.650  10.751  0.0968 -0.1293 -0.4410
 2372W        W 6572   9.133  10.018   0.873  0.1843  0.1682 -0.0915
 2373W        W 6573   4.679   1.049   0.288 -0.1819  0.1685 -0.1084
 2374W        W 6574   4.215   5.706   3.967  0.0585  0.0830  0.0100
 2375W        W 6575   9.615   7.646  12.700 -0.1328 -0.0765 -0.0344
 2376W        W 6576   3.483   1.350   4.402 -0.1375 -0.0168  0.3369
 2377W        W 6577   3.522   2.576   9.600  0.0817  0.2918  0.0790
 2378W        W 6578   8.938   5.944   1.235 -0.0256 -0.1867  0.1890
 2379W        W 6579   4.564   9.423   9.803 -0.1549 -0.3943  0.1312
 2380W        W 6580   3.715   1.399  10.318  0.2763  0.0447 -0.0231
 2381W        W 6581   9.998   1.938   1.839 -0.1021 -0.1719  0.0951
 2382W        W 6582   7.616   5.702   0.569  0.2354  0.0362 -0.1444
 2383W        W 6583   3.415   3.984   2.859 -0.0360 -0.2232 -0.1262
 2384W        W 6584   2.077   6.277   1.680  0.1081  0.3988  0.0914
 2385W        W 6585   6.729   7.623  11.903 -0.0626 -0.3432  0.1812
 2386W        W 6586   0.300   7.243   2.542 -0.2567  0.0784 -0.0306
 2387W        W 6587   2.758   5.711  11.868  0.1020  0.1512  0.0292
 2388W        W 6588   0.779   7.166   1.559  0.1588 -0.0169 -0.0465
 2389W        W 6589   5.635   0.471   9.801 -0.3112  0.2255  0.1771
 2390W        W 6590   6.540   5.224   8.778 -0.2794 -0.0109 -0.2518
 2391W        W 6591   7.875   6.115   0.493 -0.2060 -0.2000 -0.1873
 2392W        W 6592   6.537   4.278  10.286 -0.3710  0.2745  0.2706
 2393W        W 6593   5.871   4.925   4.484 -0.0930  0.0405 -0.1978
 2394W        W 6594   5.178   7.190  10.308  0.1048 -0.2035  0.1171
 2395W        W 6595   3.072   2.215   0.810 -0.3781  0.1023 -0.3087
 2396W        W 6596   7.132   1.442  11.291  0.0906 -0.6241  0.2215
 2397W        W 6597   5.198   4.569   3.709 -0.1543  0.1045 -0.2191
 2398W        W 6598   4.930   8.482   3.512 -0.1526 -0.1149 -0.2666
 2399W        W 6599   3.967   5.507   0.060 -0.0399 -0.1727 -0.0267
 2400W        W 6600   2.019   6.981   2.465  0.1905  0.0708  0.2360
 2401W        W 6601   7.151   7.523  10.301  0.0958  0.1240  0.3322
 2402W        W 6602   9.910   7.362  11.000 -0.1312 -0.1234  0.1854
 2403W        W 6603   0.365   1.333   3.722  0.0935  0.1740 -0.0868
 2404W        W 6604   9.343   7.810   2.047  0.2839  0.1444  0.1637
 2405W        W 6605   9.374   5.956   9.796  0.1482  0.0782  0.2162
 2406W        W 6606   9.809   2.807   2.020 -0.2266  0.0785 -0.3000
 2407W        W 6607  10.097   1.385   0.678 -0.0567 -0.4367 -0.0414
 2408W        W 6608   8.917   9.227  11.020 -0.0872 -0.0041 -0.2410
 2409W        W 6609   8.279   7.562  10.005  0.1244 -0.2031  0.0783
 2410W        W 6610   8.894   0.798   2.613  0.2360  0.0032  0.0912
 2411W        W 6611   4.285   2.576   0.876  0.0472  0.1063  0.1760
 2412W        W 6612  10.491   4.644   0.210 -0.1840  0.2595  0.1523
 2413W        W 6613   6.560   2.432   3.604  0.3952 -0.1670  0.2848
 2414W        W 6614   5.872   9.023   3.469  0.1463  0.1621  0.0153
 2415W        W 6615   2.155   0.005   2.232  0.0697 -0.4411  0.0286
 2416W        W 6616   3.817   6.998  12.019 -0.0988  0.2283 -0.1231
 2417W        W 6617   0.390   7.919   0.529  0.1971 -0.4218 -0.1830
 2418W        W 6618   5.642  10.451   0.332 -0.3243 -0.2767 -0.3590
 2419W        W 6619   6.230   3.209  10.250 -0.2221  0.1000 -0.2442
 2420W        W 6620   0.047   6.749   2.725 -0.1190  0.1190 -0.1515
 2421W        W 6621   8.510   7.881  10.887  0.1793 -0.1574 -0.0831
 2422W        W 6622   5.796   8.410   2.278 -0.1409 -0.1052 -0.1779
 2423W        W 6623   8.938   8.258  12.462 -0.1871  0.0949 -0.0570
 2424W        W 6624   0.355   6.442   1.329 -0.0628  0.0626  0.1265
 2425W        W 6625   9.014   6.319   2.347 -0.1097 -0.2369 -0.4543
 2426W        W 6626   0.154   8.311   2.791 -0.1236 -0.3891 -0.0251
 2427W        W 6627   3.453   4.013   9.758  0.1239  0.0852 -0.0118
 2428W        W 6628   2.426   0.206   0.432 -0.1762  0.3619 -0.2003
 2429W        W 6629   6.283   0.137   9.042  0.0853 -0.3880  0.4477
 2430W        W 6630   9.468   9.644   1.012  0.0366 -0.1725 -0.0010
 2431W        W 6631   6.666   8.396  10.681 -0.0340 -0.2168 -0.3962
 2432W        W 6632   8.894   0.406   0.557 -0.0037  0.0812 -0.2415
 2433W        W 6633   5.830   4.237   3.208 -0.2377  0.0982 -0.0051
 2434W        W 6634   4.304   6.832  11.839  0.4039  0.1252  0.1336
 2435W        W 6635   4.864   6.708   0.007  0.2788 -0.1896  0.0132
 2436W        W 6636   4.233   8.875   2.627 -0.4820  0.0330  0.0953
 2437W        W 6637   7.262   5.744   3.045 -0.0952 -0.0934 -0.4948
 2438W        W 6638   0.494   7.135  11.143  0.0275 -0.2853 -0.0144
 2439W        W 6639   8.510   8.978   3.676 -0.1734 -0.1082 -0.1420
 2440W        W 6640   5.174   7.275  12.170 -0.1303  0.1359  0.0635
 2441W        W 6641   0.104   4.757   2.162 -0.2039  0.0896 -0.1078
 2442W        W 6642   1.766  10.176  10.189  0.3674 -0.1831  0.0634
 2443W        W 6643   9.343   4.525  13.151  0.1443  0.3811 -0.1765
 2444W        W 6644   1.752   1.237   2.276 -0.1025 -0.0866 -0.0642
 2445W        W 6645   5.857   2.043  10.392  0.0770  0.0547 -0.0828
 2446W        W 6646   1.836   2.513  12.393 -0.2604 -0.1810  0.1969
 2447W        W 6647   4.945   0.032   1.154 -0.0152  0.1550  0.1364
 2448W        W 6648   2.054   5.300  11.278  0.0018  0.0033  0.0892
 2449W        W 6649   5.504   5.707   4.486  0.0103 -0.3823  0.2178
 2450W        W 6650   7.789   9.439   0.557 -0.2554 -0.1370 -0.3025
 2451W        W 6651   7.100   8.982   0.359 -0.0198 -0.1186  0.0649
 2452W        W 6652   9.209   6.468   1.247 -0.0383  0.1031  0.1250
 2453W        W 6653   6.075   4.020  12.647 -0.0423 -0.0493 -0.2102
 2454W        W 6654   9.885   7.790   0.127  0.3657 -0.1998 -0.0085
 2455W        W 6655   9.285   2.593   1.679 -0.3557 -0.0641  0.0402
 2456W        W 6656   5.756   7.911   1.831 -0.1964  0.1914 -0.2340
 2457W        W 6657   0.741   2.089   3.291 -0.0256  0.0730 -0.1184
 2458W        W 6658   9.123   1.519  13.278 -0.0819  0.1999  0.0578
 2459W        W 6659   8.797   6.586  12.667  0.0940  0.2039  0.5005
 2460W        W 6660   8.988   2.640  10.030 -0.0176 -0.3656  0.0319
 2461W        W 6661   3.484   4.589  10.325  0.4563  0.3136  0.0991
 2462W        W 6662   4.113  10.501  12.991  0.3141  0.2005 -0.0519
 2463W        W 6663   8.788   4.729  11.961  0.1444  0.2798  0.0600
 2464W        W 6664   7.602   9.669   3.748  0.2704  0.0546 -0.0205
 2465W        W 6665   5.131   1.109  10.143 -0.3217  0.3538 -0.0344
 2466W        W 6666   4.789   2.270   9.954  0.3463  0.0743  0.1747
 2467W        W 6667   3.861   1.001   1.532  0.1449  0.0916  0.1720
 2468W        W 6668   3.503   2.252   2.656  0.2862 -0.1993  0.1117
 2469W        W 6669   1.565   7.042   2.852  0.0339 -0.0609 -0.0110
 2470W        W 6670   8.571   9.612   2.307  0.0400 -0.2718  0.0811
 2471W        W 6671   5.074   0.599   1.109  0.0599  0.0008 -0.0611
 2472W        W 6672   6.675   8.351  11.504 -0.2109  0.1137  0.0648
 2473W        W 6673   2.613   4.861  12.050  0.2042 -0.1398 -0.0624
 2474W        W 6674   9.648   1.949   1.504  0.0846  0.0790 -0.1337
 2475W        W 6675   8.197   9.468  11.684  0.0113 -0.3773 -0.2203
 2476W        W 6676   7.085   8.387  12.633  0.2929  0.0470  0.3079
 2477W        W 6677   3.537   8.060   3.412  0.0842  0.1565 -0.0620
 2478W        W 6678   4.453   6.161   4.711  0.1202 -0.3122  0.0123
 2479W        W 6679   0.101   4.290  10.571  0.1130 -0.2999  0.0607
 2480W        W 6680   9.172   3.390   0.039 -0.0186  0.0484 -0.0007
 2481W        W 6681   7.845   5.093   1.781  0.3971  0.0710 -0.4271
 2482W        W 6682  10.338   3.222  10.677 -0.0504 -0.1988  0.1542
 2483W        W 6683   5.663   4.208  10.470  0.0930 -0.0832  0.1250
 2484W        W 6684   6.092   1.792   1.766 -0.1651 -0.0902 -0.1028
 2485W        W 6685   6.534   5.865   3.684  0.0124  0.3394  0.0754
 2486W        W 6686   2.226   6.967   0.665  0.0183 -0.1868 -0.0872
 2487W        W 6687   2.285   1.058   0.632 -0.3016 -0.0051 -0.0464
 2488W        W 6688   2.892   1.497  11.473  0.3928  0.1284  0.2332
 2489W        W 6689   7.019   2.047  12.997  0.0295  0.0855 -0.0065
 2490W        W 6690   3.584   3.968   3.484 -0.0989  0.1486 -0.1803
 2491W        W 6691   4.533  10.316   2.544  0.3299  0.0613 -0.1544
 2492W        W 6692   1.181   5.429   1.848  0.3570 -0.2880 -0.0789
 2493W        W 6693   4.219   5.647   8.821 -0.1585 -0.2029  0.2661
 2494W        W 6694  10.166   4.466   3.434 -0.0592 -0.1127 -0.2008
 2495W        W 6695   8.651   3.738   9.357 -0.1719 -0.3843  0.2044
 2496W        W 6696   1.786   3.712   4.823  0.1889 -0.0371 -0.3099
 2497W        W 6697   1.169  10.291  13.245  0.1176 -0.0470 -0.1505
 2498W        W 6698   4.284   6.115   2.485  0.0797  0.0772  0.2126
 2499W        W 6699   6.706   9.092   1.358 -0.1457  0.2599  0.0038
 2500W        W 6700   1.372   1.238  10.242 -0.0250 -0.0248 -0.0667
 2501W        W 6701   7.216   5.264   8.910  0.1681  0.0911  0.0350
 2502W        W 6702   9.932   2.880   1.500  0.0725 -0.0125 -0.2684
 2503W        W 6703   4.850  10.446   1.912 -0.0364 -0.1502  0.0203
 2504W        W 6704   1.476   6.896   1.833 -0.2023 -0.1178  0.2218
 2505W        W 6705   3.056   6.130   9.433  0.0361  0.0119 -0.0922
 2506W        W 6706   3.597   4.394   2.616  0.2351 -0.0438 -0.1831
 2507W        W 6707   3.825   6.238   3.257 -0.4346 -0.1823  0.1898
 2508W        W 6708   7.256   6.686   3.221  0.1949 -0.0955  0.0727
 2509W        W 6709   4.022  10.295   2.691 -0.2597 -0.0834 -0.3161
 2510W        W 6710   1.518   4.683   2.716  0.0504 -0.0085 -0.2382
 2511W        W 6711   5.324   4.129  13.322 -0.0357 -0.1279  0.1826
 2512W        W 6712   1.114   2.080  13.009  0.1759  0.0344 -0.2291
 2513W        W 6713   1.875   4.460   4.794 -0.0190  0.0521  0.1865
 2514W        W 6714   8.342   8.855   3.209 -0.2295  0.0803  0.1503
 2515W        W 6715  10.278   2.781   0.582  0.0717  0.3970 -0.2743
 2516W        W 6716   6.888   9.704  11.363  0.0611  0.2654 -0.3717
 2517W        W 6717   6.119   7.521  10.001 -0.3202  0.1525  0.0955
 2518W        W 6718   1.815   4.197   5.207  0.1921  0.0415  0.0202
 2519W        W 6719   8.630   8.688   0.372 -0.0066  0.0736 -0.0452
 2520W        W 6720   1.289   0.178  12.954 -0.1981 -0.0767  0.0471
 2521W        W 6721   7.797   9.889   2.713  0.1115  0.0332 -0.4341
 2522W        W 6722   0.120   2.056   9.813 -0.4343  0.0363 -0.1550
 2523W        W 6723   9.734   2.728   4.029 -0.1031  0.0732 -0.0736
 2524W        W 6724   2.094   7.412  12.619  0.0255  0.1558 -0.2337
 2525W        W 6725   4.349   9.134   9.503 -0.0610 -0.0890 -0.0035
 2526W        W 6726   1.414   5.279   4.083 -0.1084  0.2514 -0.1392
 2527W        W 6727   1.895   8.162   0.921  0.1041 -0.0380  0.0815
 2528W        W 6728   4.154   9.698  10.296  0.1879 -0.1014  0.0337
 2529W        W 6729   1.687   0.605   1.198  0.1969 -0.1802  0.3864
 2530W        W 6730   2.200   1.858   3.371 -0.2017 -0.1330  0.4209
 2531W        W 6731   0.833   5.738   1.510 -0.0973  0.0603 -0.1705
 2532W        W 6732   7.814   9.930   0.158  0.2524 -0.1848  0.0606
 2533W        W 6733   7.497   1.107  12.582 -0.0724  0.0224 -0.1929
 2534W        W 6734   0.608   3.104   1.535 -0.0291  0.5189  0.5243
 2535W        W 6735   1.795   8.666   3.294  0.1076  0.0983 -0.3260
 2536W        W 6736   9.263   8.644  12.646 -0.0995  0.1690 -0.2219
 2537W        W 6737   0.148   9.043  13.186 -0.1558  0.1792  0.3912
 2538W        W 6738   5.797   0.521  11.909  0.1783 -0.2371  0.1042
 2539W        W 6739   5.505   6.684   0.237  0.0834  0.0269  0.0606
 2540W        W 6740   5.755   8.612  12.155  0.1750  0.0126 -0.1028
 2541W        W 6741   8.410   8.359  12.429  0.0388 -0.1183 -0.2109
 2542W        W 6742   1.111   0.254   0.093  0.0106  0.1205 -0.0651
 2543W        W 6743   9.810  10.094  12.667  0.0685  0.0808 -0.1579
 2544W        W 6744   9.815   0.328   1.976 -0.1167  0.1025  0.0628
 2545W        W 6745   2.692  10.411   0.129 -0.1918  0.0454 -0.0250
 2546W        W 6746  10.237   9.587  12.264 -0.1021  0.1334 -0.2811
 2547W        W 6747   4.826   1.617  11.256  0.2947  0.1517 -0.0164
 2548W        W 6748   6.109   4.851   3.983 -0.0194  0.0958  0.3440
 2549W        W 6749   2.275   4.348  11.653 -0.0016 -0.2703 -0.1697
 2550W        W 6750   0.031   3.587  11.063 -0.2693  0.0299  0.2991
 2551W        W 6751   1.384   1.076   1.115 -0.1311  0.2101 -0.2140
 2552W        W 6752   5.152  10.240   0.185  0.0937  0.0512  0.0441
 2553W        W 6753   8.890   9.596  13.279 -0.0518  0.0746  0.2692
 2554W        W 6754   4.005   2.443  12.765 -0.1183  0.0470  0.0504
 2555W        W 6755   1.384   2.448  11.462 -0.1208 -0.1296 -0.2524
 2556W        W 6756   4.217  10.504   3.069 -0.0302 -0.4037  0.0698
 2557W        W 6757   4.840   0.176   2.537  0.1078 -0.0030  0.1162
 2558W        W 6758   2.504   4.299   4.503 -0.1540 -0.1438 -0.1924
 2559W        W 6759   5.506   0.675  10.242 -0.0565 -0.0145  0.0900
 2560W        W 6760   0.248   3.759  10.678 -0.2390  0.1879  0.0056
 2561W        W 6761   0.707   5.425   0.022 -0.0319 -0.1301 -0.0539
 2562W        W 6762   3.435   7.515   4.212  0.1992 -0.2278  0.3705
 2563W        W 6763   8.621   7.180   4.749  0.1645 -0.3111 -0.2097
 2564W        W 6764   7.805   3.828   4.797 -0.0046 -0.0025 -0.0059
 2565W        W 6765   8.231   8.135  11.732 -0.0187  0.0928  0.0774
 2566W        W 6766   9.730   8.062   0.702 -0.1149 -0.0434 -0.2032
 2567W        W 6767   6.840   4.052   2.830 -0.0029 -0.1969 -0.0881
 2568W        W 6768   9.855   9.650  12.931 -0.1444  0.1536  0.2437
 2569W        W 6769   3.469   1.774   2.894 -0.1910  0.0513 -0.1435
 2570W        W 6770   8.599   7.878  12.469  0.3886  0.0794 -0.1148
 2571W        W 6771   0.276   8.261   3.291  0.2232  0.0023 -0.0050
 2572W        W 6772   6.361   5.029   4.397  0.0990  0.2757 -0.3514
 2573W        W 6773   3.978   0.789  12.165 -0.3334  0.2294  0.0856
 2574W        W 6774   0.951   4.840   0.202  0.1181  0.0791  0.0569
 2575W        W 6775   7.033   8.937   3.983  0.1246  0.2193  0.1276
 2576W        W 6776   5.719   6.122  12.621 -0.1414  0.0520 -0.0161
 2577W        W 6777   1.955   6.735   2.002  0.2316  0.2539 -0.2527
 2578W        W 6778   9.126   7.999   1.299  0.0255  0.1469 -0.1879
 2579W        W 6779   3.176   0.914   2.329  0.2053 -0.1652 -0.1269
 2580W        W 6780   8.232   7.087   1.424 -0.1491 -0.1488 -0.3536
 2581W        W 6781   0.974   5.237   3.630  0.1048 -0.2576 -0.0986
 2582W        W 6782   1.800  10.408   0.338 -0.1811 -0.4688  0.1747
 2583W        W 6783   0.471   8.358  12.172 -0.2710  0.1756 -0.0129
 2584W        W 6784   4.877   6.845   2.928  0.3213 -0.0183 -0.4554
 2585W        W 6785   6.164   2.323   8.492 -0.1260  0.0217 -0.1101
 2586W        W 6786   3.481   0.373   3.906 -0.1806 -0.1526  0.1156
 2587W        W 6787   2.536   3.749   1.146  0.0513 -0.2124 -0.3904
 2588W        W 6788   9.201   4.693   1.156  0.1271 -0.2092  0.1209
 2589W        W 6789   4.009   7.240  12.472  0.0484  0.1107 -0.3320
 2590W        W 6790   6.934   7.969   1.798 -0.0180 -0.0933  0.0908
 2591W        W 6791   5.204  10.001   0.615 -0.3552 -0.0918  0.2027
 2592W        W 6792   6.610   4.883  13.227  0.0427 -0.2037 -0.0528
 2593W        W 6793   8.881   6.454  11.789 -0.1467  0.2677 -0.0352
 2594W        W 6794   4.006   4.942   5.361  0.4756 -0.1049 -0.1019
 2595W        W 6795   5.358   6.768  13.126  0.2492 -0.0878 -0.2662
 2596W        W 6796  10.194  10.439  12.322 -0.1945  0.2788 -0.2645
 2597W        W 6797   4.745   7.030  12.043  0.1799  0.0131  0.2384
 2598W        W 6798   5.012   4.228  12.900  0.2999 -0.1974 -0.0166
 2599W        W 6799   4.610   4.589   2.670  0.0103 -0.0424 -0.0707
 2600W        W 6800   7.830   1.940   2.705 -0.1159  0.0000 -0.2360
 2601W        W 6801   7.792   6.148  10.070  0.3097 -0.0689 -0.0402
 2602W        W 6802   5.051   2.660   0.740 -0.0519 -0.2983  0.0247
 2603W        W 6803   4.782   2.326   2.414  0.0358 -0.3188  0.0229
 2604W        W 6804   5.571   6.086   0.285  0.1855 -0.0948  0.1158
 2605W        W 6805   2.901   5.490   2.571  0.0656  0.1319  0.0427
 2606W        W 6806   0.490   3.469  11.862  0.1494 -0.1660  0.2792
 2607W        W 6807  10.063   7.953  12.533  0.0942  0.0595  0.2634
 2608W        W 6808  10.164   2.376  11.262  0.0425 -0.1402 -0.1224
 2609W        W 6809   3.154   1.734   3.559 -0.0383 -0.0244 -0.0360
 2610W        W 6810   3.922   4.303   5.092 -0.1842 -0.2248 -0.1321
 2611W        W 6811   8.495   4.227   9.465 -0.1301 -0.4618 -0.0157
 2612W        W 6812   4.099   5.855   1.332  0.0583  0.2799  0.0101
 2613W        W 6813   1.294   8.092   0.059 -0.2558  0.1523 -0.2478
 2614W        W 6814  10.217   8.870  12.993 -0.0065 -0.3935  0.0935
 2615W        W 6815   2.664   2.578   2.540  0.1000  0.0960 -0.2133
 2616W        W 6816   7.814   8.300  13.286 -0.0262 -0.0580 -0.0023
 2617W        W 6817   2.142   5.731  11.049 -0.1265  0.1635  0.2757
 2618W        W 6818   9.494   7.354  10.670  0.0139  0.0357 -0.2541
 2619W        W 6819   9.588   2.176   0.910 -0.0606 -0.1396  0.1445
 2620W        W 6820   4.541   1.734   5.344  0.3902  0.0475 -0.0109
 2621W        W 6821   8.615   9.100  12.166  0.2433  0.1031 -0.3435
 2622W        W 6822   8.085   7.944   8.539 -0.1659  0.0213 -0.0466
 2623W        W 6823   6.093   2.363  11.499  0.1518 -0.1889 -0.0164
 2624W        W 6824   5.987   0.781   5.043 -0.0893  0.1079 -0.2436
 2625W        W 6825   3.435  10.309   3.055  0.1237  0.0827 -0.0363
 2626W        W 6826   5.472   6.917   8.552  0.1399  0.1729 -0.0289
 2627W        W 6827   3.512   4.851  12.667  0.0595 -0.1202 -0.6104
 2628W        W 6828   8.791   2.783   4.503 -0.0203  0.1895 -0.0902
 2629W        W 6829   7.726   0.365   9.894 -0.2491  0.0179 -0.3204
 2630W        W 6830   1.037   4.726   2.620 -0.0209 -0.0312 -0.1468
 2631W        W 6831   9.306   6.495   3.891 -0.1667 -0.1598 -0.0618
 2632W        W 6832   2.990   7.871   0.212  0.0001 -0.0302 -0.1740
 2633W        W 6833   9.422   7.155   2.729 -0.1005 -0.0270 -0.0731
 2634W        W 6834   8.693   5.703   3.265  0.1047 -0.0589  0.2376
 2635W        W 6835   2.978   1.199   0.013  0.0363 -0.1969  0.0843
 2636W        W 6836   1.781   6.336   9.757  0.1934  0.0213  0.0231
 2637W        W 6837   3.228   4.878  10.716 -0.0155 -0.4148 -0.0614
 2638W        W 6838   7.679   9.357  11.454  0.0010  0.0365 -0.0098
 2639W        W 6839   3.107   4.388   9.932  0.0105  0.0313 -0.1514
 2640W        W 6840   2.570   6.834   9.354  0.1421 -0.3125  0.0775
 2641W        W 6841   7.798   5.639   3.750  0.1226  0.0623  0.1584
 2642W        W 6842  10.022   3.113   3.952  0.3164  0.1315  0.0289
 2643W        W 6843   4.279   9.229  11.626  0.1086  0.2375  0.1259
 2644W        W 6844   2.828   2.049   0.388  0.0733  0.2607  0.0297
 2645W        W 6845   4.899   0.707  10.235  0.2765 -0.1839 -0.0121
 2646W        W 6846   1.318   4.872  10.380 -0.0534  0.0167 -0.1449
 2647W        W 6847   1.792   4.799   0.938  0.0363 -0.1152 -0.2161
 2648W        W 6848   0.832   7.151  10.442 -0.1167 -0.0724  0.3591
 2649W        W 6849   0.276   5.063  10.461 -0.2061  0.2650  0.0136
 2650W        W 6850   9.334   3.427  11.448 -0.2401 -0.2483  0.0649
 2651W        W 6851   7.055   4.839   1.772 -0.3069  0.0646  0.1358
 2652W        W 6852   9.663  10.073   1.192 -0.1835  0.1296 -0.1984
 2653W        W 6853   6.416   3.175  11.085  0.0171 -0.0517  0.1826
 2654W        W 6854   6.691   8.020   0.346  0.1356 -0.2023  0.1155
 2655W        W 6855   2.271   2.104   1.631 -0.0031 -0.0455 -0.0924
 2656W        W 6856   9.930   7.933   2.903  0.2620 -0.1072 -0.1424
 2657W        W 6857   8.669   3.918  12.266 -0.0996  0.1477 -0.1074
 2658W        W 6858   0.612   4.027   4.389 -0.2037 -0.2131  0.1738
 2659W        W 6859   5.323   1.610  10.285  0.1735  0.2134 -0.0577
 2660W        W 6860   0.741   0.998  11.334  0.3777 -0.0385  0.1813
 2661W        W 6861   1.192   9.766  12.664 -0.1697 -0.0529 -0.0843
 2662W        W 6862   0.184   7.390  13.144  0.0534 -0.2243 -0.1308
 2663W        W 6863   3.034   2.480   1.588 -0.2133  0.0154  0.1022
 2664W        W 6864   7.836   4.146   1.276  0.0617  0.0105  0.0727
 2665W        W 6865   7.037   9.509   0.581  0.0677  0.0569 -0.0429
 2666W        W 6866   1.206   9.870  11.893  0.1921 -0.3120  0.2039
 2667W        W 6867  10.056   7.214   2.175 -0.0715 -0.0478  0.0301
 2668W        W 6868   4.036   5.849  10.386  0.1315 -0.0510  0.1543
 2669W        W 6869   3.821   0.530   8.941 -0.1253 -0.0159  0.0561
 2670W        W 6870   9.783   7.456   2.900  0.0042 -0.0702  0.2814
 2671W        W 6871   6.009   8.125   4.501 -0.2585  0.0611  0.1738
 2672W        W 6872   2.233  10.167  10.975 -0.0159  0.0665 -0.1496
 2673W        W 6873   0.750   4.989  11.221  0.0825  0.2038 -0.1334
 2674W        W 6874   0.602   2.823   3.189 -0.1333 -0.0656  0.0638
 2675W        W 6875   1.052   7.057  13.308 -0.2045  0.0059 -0.1623
 2676W        W 6876   6.899   7.888   2.734  0.0132 -0.2815 -0.0063
 2677W        W 6877   0.589   5.521  11.439  0.1193  0.1274 -0.1854
 2678W        W 6878   2.835   4.035   4.271  0.1056  0.1201  0.1441
 2679W        W 6879   4.246   5.239  11.221  0.2252  0.2013  0.2549
 2680W        W 6880   2.385   9.017   9.623 -0.2820 -0.1361  0.1225
 2681W        W 6881   8.766   7.682  13.302 -0.0312 -0.1114 -0.1082
 2682W        W 6882   7.893   6.667  11.607 -0.1703 -0.0941  0.1779
 2683W        W 6883   4.938   9.495  12.274 -0.1407  0.0868 -0.3681
 2684W        W 6884   1.226   4.957   0.615  0.2200  0.2332 -0.0468
 2685W        W 6885   7.847   5.743  10.555  0.1981  0.0039 -0.3103
 2686W        W 6886   4.100   2.120   1.672  0.2221 -0.1785 -0.1845
 2687W        W 6887   5.147   2.219   1.541  0.1527  0.3807 -0.0233
 2688W        W 6888   4.373   4.811   8.407 -0.2390 -0.1340  0.3823
 2689W        W 6889   9.565   5.407  12.380 -0.2213 -0.0944  0.1603
 2690W        W 6890   9.829   6.156  10.207  0.0192 -0.0331  0.0106
 2691W        W 6891   1.707   8.551   1.769 -0.2420 -0.0688  0.1566
 2692W        W 6892   0.753   2.724   0.852  0.1826  0.2112 -0.3579
 2693W        W 6893   2.959   5.139   0.880 -0.1887 -0.1581 -0.1177
 2694W        W 6894   1.355   0.438   3.486 -0.0132  0.1397  0.0734
 2695W        W 6895   3.059   0.237  10.960 -0.0895  0.3339 -0.3203
 2696W        W 6896   0.914   1.171   9.062 -0.2302  0.0635  0.3517
 2697W        W 6897   0.265   1.886   8.874  0.0886 -0.1084  0.0116
 2698W        W 6898   2.692   9.253  11.215  0.4532 -0.4308 -0.2687
 2699W        W 6899   8.935   7.202  10.565 -0.1997  0.1830 -0.0968
 2700W        W 6900   8.789   1.971   9.265  0.0633 -0.0662 -0.0016
 2701W        W 6901   5.912   6.660   1.285  0.0560  0.3274  0.0644
 2702W        W 6902   7.478   5.837  12.553 -0.0529  0.1998  0.1569
 2703W        W 6903  10.356   4.939   4.553  0.2334 -0.2222 -0.0608
 2704W        W 6904   1.587   6.686  11.981 -0.4117 -0.0885  0.1039
 2705W        W 6905   4.051   8.757   4.554  0.1109  0.0227 -0.1835
 2706W        W 6906   2.062   5.785  11.590  0.1396  0.0172  0.2116
 2707W        W 6907   7.627   7.857   1.457 -0.0454 -0.0226 -0.2741
 2708W        W 6908   3.381   4.369   4.277  0.0416 -0.0438  0.1709
 2709W        W 6909   3.738   6.518   2.836  0.0714 -0.1694 -0.2780
 2710W        W 6910   7.086   0.863  12.756 -0.2200 -0.1376  0.1012
 2711W        W 6911   3.688   0.224   0.850  0.1210 -0.2087 -0.0308
 2712W        W 6912   5.099   5.892   9.268  0.0581  0.2257  0.0777
 2713W        W 6913   0.613   9.245   1.680  0.1638  0.1863 -0.0765
 2714W        W 6914   9.234   8.171   9.074 -0.0169  0.2063  0.3318
 2715W        W 6915   8.459   7.315   3.934  0.2467  0.0479 -0.0806
 2716W        W 6916   5.165   4.602   9.959 -0.1207 -0.6150  0.2826
 2717W        W 6917   8.281   0.128   9.864 -0.2237  0.2771  0.3778
 2718W        W 6918   4.086  10.331  10.443  0.2056  0.1848  0.1544
 2719W        W 6919   3.443   3.010   1.119  0.1585  0.0046  0.1080
 2720W        W 6920   6.945   0.113  10.785  0.1046 -0.1800 -0.1151
 2721W        W 6921   5.430   3.190   1.430 -0.2727  0.1029  0.2157
 2722W        W 6922   4.436   0.116  12.601  0.4131 -0.0506 -0.1969
 2723W        W 6923   6.898   9.708   9.687  0.1179 -0.2034  0.2198
 2724W        W 6924   7.898   1.025  11.623  0.0337  0.1035 -0.1563
 2725W        W 6925   5.769   5.708   2.980  0.3070  0.1408 -0.2240
 2726W        W 6926   1.675   8.343  10.668  0.0235  0.0919  0.0510
 2727W        W 6927   8.246   8.069  10.269 -0.0714 -0.0540  0.1696
 2728W        W 6928   6.696   6.268  11.105  0.1689 -0.1157 -0.2356
 2729W        W 6929   9.068   7.118  10.112  0.1358 -0.1371 -0.0169
 2730W        W 6930   1.890   8.795   2.434 -0.2769  0.2075 -0.0147
 2731W        W 6931   5.483   6.511  10.889 -0.1254 -0.0029  0.4191
 2732W        W 6932   2.305   3.384   2.434  0.1451  0.0946 -0.1327
 2733W        W 6933   8.712   5.634  10.760  0.1247 -0.3412  0.2246
 2734W        W 6934   6.404   2.071  11.758 -0.1945 -0.0337 -0.2332
 2735W        W 6935   5.898   6.368   4.329  0.0077 -0.1995  0.0196
 2736W        W 6936   1.847   8.471   0.501 -0.0502 -0.3257 -0.1358
 2737W        W 6937   6.157   2.675   5.480  0.1763 -0.1492  0.1582
 2738W        W 6938   8.798   4.341  11.333  0.0552 -0.0565 -0.0838
 2739W        W 6939   2.285   8.959  10.595  0.2666 -0.0237  0.2140
 2740W        W 6940   5.550   8.890   3.064  0.1753 -0.0507 -0.1050
 2741W        W 6941  10.247   1.577  11.940 -0.2671 -0.5289  0.1982
 2742W        W 6942   8.249   4.818  11.977 -0.1921 -0.2737 -0.0363
 2743W        W 6943   8.798   0.856  10.567 -0.2337  0.0052  0.1242
 2744W        W 6944   4.732   7.568  12.883 -0.1679  0.0256 -0.1050
 2745W        W 6945   6.223  10.250   3.868 -0.0984 -0.2643  0.1445
 2746W        W 6946   8.600   4.338   4.626 -0.3758  0.1545 -0.0500
 2747W        W 6947   5.520   5.735   2.440 -0.0923  0.1092 -0.0142
 2748W        W 6948   5.588   0.782   3.388 -0.2208  0.3931 -0.0370
 2749W        W 6949   9.933   2.086   0.536 -0.2002 -0.3147  0.1296
 2750W        W 6950   9.414  10.128   1.780 -0.3097 -0.0468  0.2787
 2751W        W 6951   4.338   5.508   3.509 -0.2590 -0.0798  0.0321
 2752W        W 6952   4.213   3.812  12.427 -0.0840 -0.2021  0.1799
 2753W        W 6953   1.331   3.779   9.345  0.0007 -0.2607  0.4601
 2754W        W 6954   9.507   0.294  10.160  0.3215  0.0819  0.0233
 2755W        W 6955   0.821   4.756   3.793 -0.0139 -0.2247 -0.0370
 2756W        W 6956   7.495   5.505   1.569 -0.0184  0.1486  0.1575
 2757W        W 6957   1.063   2.375   3.151  0.0444 -0.0601  0.2493
 2758W        W 6958   5.909   4.979   1.736 -0.0161 -0.3565 -0.0375
 2759W        W 6959   1.807   5.925   2.520 -0.1393  0.1439  0.0445
 2760W        W 6960   8.244   7.782  12.101 -0.2633  0.0812 -0.2397
 2761W        W 6961   8.275   3.519   0.560 -0.3488 -0.2852 -0.1509
 2762W        W 6962   2.363   1.362  10.180 -0.1270  0.4162  0.4633
 2763W        W 6963   2.890   7.788  10.093 -0.1250 -0.1607 -0.1844
 2764W        W 6964   5.991   2.064   0.344 -0.2609 -0.1357 -0.0223
 2765W        W 6965   8.713   2.073  12.639  0.2707 -0.1934 -0.0232
 2766W        W 6966   6.247   1.916   4.218  0.1001  0.0519  0.2666
 2767W        W 6967   1.380   1.123  10.838  0.1891  0.2202  0.0888
 2768W        W 6968   1.466   3.719   0.061 -0.1674  0.0916 -0.0433
 2769W        W 6969   9.244   8.703   2.751 -0.0624 -0.1433 -0.1340
 2770W        W 6970   2.806   9.511  10.804  0.3985 -0.0549 -0.3038
 2771W        W 6971   8.314   0.397  11.305 -0.0308 -0.1009  0.0047
 2772W        W 6972   6.549   9.647   0.508  0.3466  0.0829  0.3004
 2773W        W 6973   6.080   0.444   4.622  0.3277  0.3361 -0.1956
 2774W        W 6974   2.545   6.864  10.502  0.0034 -0.1795 -0.0389
 2775W        W 6975   3.255   0.928  11.064 -0.0073  0.4002 -0.0555
 2776W        W 6976   3.375   0.793   3.712  0.1110 -0.2224 -0.0726
 2777W        W 6977   0.262   7.966  10.821  0.2407 -0.0132  0.0482
 2778W        W 6978   7.264   3.530   0.338 -0.2997 -0.1161  0.0251
 2779W        W 6979   0.938   8.800  12.749  0.2136  0.0584  0.0650
 2780W        W 6980   3.097   1.027  12.484  0.0036  0.0377 -0.3618
 2781W        W 6981   8.001   9.097  10.085  0.0008  0.0779 -0.0345
 2782W        W 6982   7.032   6.863   1.558  0.0352  0.1473 -0.1995
 2783W        W 6983   6.357   2.480   0.705 -0.1803  0.1245  0.3185
 2784W        W 6984   2.531   7.038   1.544 -0.0087  0.2392 -0.2070
 2785W        W 6985   5.943  10.236   3.491  0.1460  0.3856  0.2901
 2786W        W 6986   0.887   8.442  10.461 -0.3026 -0.0157  0.0358
 2787W        W 6987   0.102   0.306   0.247  0.0996  0.0596 -0.4338
 2788W        W 6988   6.986   9.862   2.068 -0.2541 -0.0662 -0.0059
 2789W        W 6989   8.689   8.769   2.827 -0.0251 -0.0438  0.0993
 2790W        W 6990   0.107   5.450   4.154  0.2508 -0.1948  0.2176
 2791W        W 6991   7.097   6.474   2.510  0.0090 -0.0776  0.0238
 2792W        W 6992   3.800   5.805   0.461 -0.2436 -0.1151  0.1047
 2793W        W 6993   9.526   5.535   2.364  0.0903 -0.0679 -0.1587
 2794W        W 6994   4.079   0.248   0.075 -0.1889 -0.2090  0.0206
 2795W        W 6995   4.586   0.180   9.318 -0.4046 -0.0832  0.1283
 2796W        W 6996   3.199   3.761   2.469  0.2806  0.0160  0.0144
 2797W        W 6997   6.635   4.109   3.590  0.3072 -0.2338  0.1945
 2798W        W 6998   7.762   3.234  10.087 -0.0292  0.0338 -0.0706
 2799W        W 6999   6.098   1.011  10.338  0.3053  0.2536 -0.0859
 2800W        W 7000   7.882   1.086  12.187  0.1927 -0.2052 -0.3400
 2801W        W 7001   6.200  10.080   4.336  0.1999 -0.2744  0.0009
 2802W        W 7002   0.492  10.021   1.110 -0.2985 -0.1993 -0.1010
 2803W        W 7003   9.940   5.841  11.549  0.2615 -0.1135  0.1877
 2804W        W 7004   0.909   0.803  10.748 -0.3073 -0.0700 -0.1888
 2805W        W 7005   2.513   6.590   1.679  0.0108 -0.0608  0.1048
 2806W        W 7006   2.761  10.087   9.878 -0.3458 -0.0870 -0.0521
 2807W        W 7007   6.189   8.359  12.368  0.1263 -0.1144  0.1667
 2808W        W 7008   3.857   5.753   2.216 -0.1323 -0.0765 -0.1471
 2809W        W 7009   4.040   5.119   4.475 -0.0717  0.0041  0.2984
 2810W        W 7010   0.252   8.611  11.412 -0.0657  0.0898  0.0323
 2811W        W 7011   7.118   4.161  11.194 -0.2706 -0.2271  0.0586
 2812W        W 7012   1.033   2.781  11.367 -0.2275 -0.0835  0.1469
 2813W        W 7013   0.611   3.371  10.750  0.0605 -0.3277 -0.2312
 2814W        W 7014   1.341   4.359   1.381  0.1989  0.2570 -0.0629
 2815W        W 7015   2.637   1.735  12.625 -0.1480 -0.1703 -0.1859
 2816W        W 7016   9.789   7.766  10.675  0.3558  0.1780 -0.2542
 2817W        W 7017   4.524   7.730  10.654 -0.2822  0.3384  0.4596
 2818W        W 7018   8.195  10.056   2.488  0.0610  0.0017 -0.3393
 2819W        W 7019   4.669   4.745   9.831 -0.1728 -0.2620 -0.0829
 2820W        W 7020   9.910   4.601  11.159 -0.2186 -0.1910  0.0804
 2821W        W 7021   7.459   2.293  10.313 -0.1623 -0.0711  0.2076
 2822W        W 7022   9.118   7.336   2.334  0.4567  0.0135  0.1870
 2823W        W 7023  10.141   6.344   0.735 -0.2189  0.1958 -0.1191
 2824W        W 7024   4.792   5.074   9.305 -0.1372 -0.0440  0.1128
 2825W        W 7025   9.959   2.841   2.956  0.1250  0.0387 -0.2432
 2826W        W 7026   0.670   2.206   1.210  0.2633  0.0882  0.1460
 2827W        W 7027   1.443   3.139  12.075  0.1817 -0.3289 -0.0056
 2828W        W 7028   8.527   5.225   3.148  0.0309 -0.0149  0.0581
 2829W        W 7029   5.175   4.269  10.356  0.1412  0.2119 -0.0498
 2830W        W 7030   1.249   0.997   2.602 -0.0653  0.1580  0.0748
 2831W        W 7031   7.402   0.301  12.547  0.0620 -0.1192 -0.2693
 2832W        W 7032   0.253   6.398   1.890 -0.2435 -0.2120 -0.1294
 2833W        W 7033   2.099   6.910  11.199 -0.2118 -0.1964 -0.2397
 2834W        W 7034   3.949   2.995   3.259 -0.0666  0.2912  0.3794
 2835W        W 7035   2.130   3.453   4.436  0.1290 -0.1217  0.3944
 2836W        W 7036   4.303   7.692   1.401  0.5473 -0.3612 -0.0595
 2837W        W 7037   5.373   1.073  11.503  0.1146  0.0474  0.0634
 2838W        W 7038   7.878   2.860  12.194 -0.1570  0.1211 -0.2491
 2839W        W 7039   7.500   0.255   0.173  0.0349  0.1898  0.0477
 2840W        W 7040   5.078   7.613   2.313 -0.4448 -0.0556 -0.0393
 2841W        W 7041   3.935   2.016   0.648 -0.1095  0.0990  0.0190
 2842W        W 7042  10.386   3.601   0.540  0.0080 -0.4017 -0.2223
 2843W        W 7043   2.773   7.153  11.904  0.0936  0.3924  0.2167
 2844W        W 7044   7.715   4.842  11.206  0.1577  0.0269 -0.1406
 2845W        W 7045   7.875   8.307   9.952  0.0284 -0.3142 -0.0514
 2846W        W 7046   9.318   4.237   9.126 -0.0721 -0.1011 -0.0884
 2847W        W 7047   0.960   5.865  10.242  0.0207 -0.0014 -0.0894
 2848W        W 7048   6.071   3.592   4.144  0.0936  0.1514  0.0468
 2849W        W 7049   3.271   3.594   3.310  0.0965  0.0698  0.1417
 2850W        W 7050   6.234   8.635   2.287 -0.1209  0.1646 -0.1064
 2851W        W 7051   5.832   8.825   2.037 -0.0120  0.0255  0.1309
 2852W        W 7052   8.611   9.835  11.769 -0.1004  0.0420 -0.0161
 2853W        W 7053   9.788   8.584   0.610 -0.0186 -0.2205 -0.5112
 2854W        W 7054   4.640   5.082   0.842  0.1198 -0.3271  0.4913
 2855W        W 7055   4.005   4.594  10.282  0.1354  0.2236 -0.0116
 2856W        W 7056   3.419   1.364   3.121  0.2173 -0.1414  0.1949
 2857W        W 7057   7.224   5.428   2.571 -0.0444 -0.1926 -0.3091
 2858W        W 7058   8.051   7.224   3.179 -0.2520 -0.0297 -0.2551
 2859W        W 7059   9.698   4.886   5.293 -0.0573  0.0963  0.1426
 2860W        W 7060   1.142   5.153   2.849 -0.0451  0.1637  0.0788
 2861W        W 7061   7.723   3.456  11.457 -0.3837  0.1342 -0.3029
 2862W        W 7062   9.092   4.657   9.402  0.1544  0.0648 -0.3307
 2863W        W 7063   6.403   3.937  11.919  0.0519 -0.2103 -0.0743
 2864W        W 7064   4.977   3.115   1.700 -0.1416  0.1377 -0.1683
 2865W        W 7065  10.295   8.671   0.710  0.0182  0.1283 -0.1742
 2866W        W 7066   6.119   2.475  10.464  0.0821 -0.0270 -0.0859
 2867W        W 7067   4.023   8.645   4.037 -0.0814  0.5646 -0.1375
 2868W        W 7068   2.882   6.388  10.657 -0.1215  0.0804  0.1949
 2869W        W 7069   3.922   4.530  11.912  0.0609  0.2808 -0.1733
 2870W        W 7070   6.577   2.552  10.183 -0.4325  0.3059  0.3666
 2871W        W 7071   3.291   9.167   0.361 -0.0081  0.1609 -0.0996
 2872W        W 7072   3.416   9.002  10.189 -0.1158 -0.2240 -0.1441
 2873W        W 7073   3.004   6.798   1.480 -0.2232  0.0119 -0.0399
 2874W        W 7074   0.447   6.366  10.818  0.0271 -0.3433 -0.0160
 2875W        W 7075   6.188   1.400   8.608  0.1124  0.1366  0.0587
 2876W        W 7076   6.320   9.990   3.107  0.0495 -0.0121 -0.2042
 2877W        W 7077   9.465   9.001   0.406 -0.0813 -0.1728 -0.1803
 2878W        W 7078   4.653   4.624   3.991  0.2075 -0.2634  0.1959
 2879W        W 7079   4.513   8.391   3.832 -0.0235  0.1193  0.2618
 2880W        W 7080   6.898   9.668  12.566 -0.2002 -0.4032  0.3400
 2881W        W 7081   9.290   7.068   9.535 -0.0802  0.3591  0.6449
 2882W        W 7082   5.836   6.792   3.382  0.0768  0.0617 -0.3922
 2883W        W 7083   2.154   5.949   3.218  0.0572 -0.1108  0.4754
 2884W        W 7084   5.920   6.674  12.516 -0.2660 -0.1088 -0.2524
 2885W        W 7085   4.191   6.794  10.473  0.0829  0.0363 -0.2615
 2886W        W 7086   9.692   7.206   9.781 -0.1708  0.3587  0.2413
 2887W        W 7087   3.378   1.509  13.311 -0.1893  0.1520  0.1910
 2888W        W 7088   2.947   1.761   0.849  0.1928 -0.0324 -0.0603
 2889W        W 7089   6.341   0.752  11.212  0.1205 -0.0993 -0.3295
 2890W        W 7090   3.339   8.826   2.079  0.0152 -0.2003  0.1554
 2891W        W 7091   9.785   2.496  10.961  0.1370  0.0119 -0.1254
 2892W        W 7092   5.427   2.907   9.586  0.0772  0.3798  0.1394
 2893W        W 7093   4.979   9.144   4.769 -0.2490 -0.2452 -0.2245
 2894W        W 7094   9.720   1.536  11.968  0.2738 -0.0516  0.0639
 2895W        W 7095   5.534   5.140   3.831  0.0467 -0.0255  0.0518
 2896W        W 7096   0.320   6.019   1.584  0.1735 -0.2359  0.1021
 2897W        W 7097   2.535   5.454  10.869 -0.2987  0.2020  0.0959
 2898W        W 7098   6.816   3.251   2.422 -0.2240 -0.1848 -0.1803
 2899W        W 7099   6.734   3.456  13.179  0.2814 -0.2179 -0.0429
 2900W        W 7100   6.843   0.994  10.661  0.3220 -0.2019  0.1108
 2901W        W 7101  10.287   5.905  12.630 -0.1802 -0.2301 -0.0448
 2902W        W 7102   7.382   4.679  10.825 -0.3272 -0.0330 -0.0424
 2903W        W 7103   0.844   2.111  10.761  0.0902  0.1892 -0.1648
 2904W        W 7104   5.284   9.774  10.405 -0.1042 -0.0209  0.2235
 2905W        W 7105   7.644   3.584  10.780  0.1246  0.0144  0.1415
 2906W        W 7106   5.015   5.513   4.200 -0.2226  0.0407 -0.1743
 2907W        W 7107   6.507   6.483  12.143  0.0176 -0.0907  0.0267
 2908W        W 7108   5.937   4.308   4.797  0.0509 -0.0161 -0.2631
 2909W        W 7109   0.572   3.834  11.010 -0.0648  0.1254 -0.1542
 2910W        W 7110   2.747   3.815   2.577  0.1063  0.2251 -0.0308
 2911W        W 7111   5.277   7.692   8.887  0.0279  0.3964 -0.3429
 2912W        W 7112   2.973   6.298   1.540 -0.0513  0.1511  0.1635
 2913W        W 7113   6.183   4.627   3.203 -0.1641  0.0721  0.0341
 2914W        W 7114   0.044   6.380   2.377 -0.1610  0.0528 -0.0611
 2915W        W 7115   8.189   1.437  13.180 -0.0623 -0.2635 -0.1775
 2916W        W 7116   0.636   3.125   4.384 -0.0395  0.1146 -0.0056
 2917W        W 7117   8.816   7.492   2.714  0.1827 -0.2896  0.4064
 2918W        W 7118   2.886   8.982  10.777 -0.1119  0.0724  0.1967
 2919W        W 7119   2.339   5.915   0.920  0.0213  0.1103  0.1237
 2920W        W 7120   6.958  10.151  11.595  0.2191  0.0929  0.1406
 2921W        W 7121   1.326   1.972   2.856 -0.0538  0.0777 -0.1506
 2922W        W 7122   7.135   1.397   0.141  0.0742 -0.2254  0.0800
 2923W        W 7123   0.988  10.039  10.262  0.1361 -0.1962  0.2712
 2924W        W 7124   2.668   4.817   8.853  0.1490 -0.0061  0.0397
 2925W        W 7125   3.542   2.082   8.661  0.1127 -0.1178  0.3122
 2926W        W 7126   7.396   1.585   4.914 -0.2071  0.0158 -0.1958
 2927W        W 7127   9.686   2.984   9.604 -0.0946 -0.1555 -0.0515
 2928W        W 7128   9.576   1.677   1.998 -0.0175  0.0194  0.0515
 2929W        W 7129   4.456   1.698   9.181 -0.0644 -0.1993  0.0696
 2930W        W 7130  10.143   8.132   0.434 -0.0866 -0.0948  0.2784
 2931W        W 7131   4.008   3.916   9.554  0.0434 -0.0532 -0.1320
 2932W        W 7132   6.245   8.259   1.283  0.1606  0.0266 -0.1302
 2933W        W 7133   2.670   9.223   1.063  0.2431 -0.1434  0.0248
 2934W        W 7134   7.437   0.865   2.146  0.0417  0.1494  0.5645
 2935W        W 7135   7.979   7.234   3.686  0.0378  0.2565  0.1031
 2936W        W 7136   7.896   4.151   3.992  0.1393  0.1070  0.1693
 2937W        W 7137   0.500   5.940   4.168  0.1599 -0.1318  0.4373
 2938W        W 7138   9.508   7.964   8.633  0.1323 -0.1110  0.0646
 2939W        W 7139   1.755   5.617  12.242  0.0119 -0.2099  0.2841
 2940W        W 7140   0.798   6.525  12.527  0.0801 -0.1479 -0.0394
 2941W        W 7141   7.851   8.960  11.737  0.1154  0.2753  0.1982
 2942W        W 7142   9.878   6.747  12.951 -0.1579  0.0233  0.2092
 2943W        W 7143   2.366   4.030  11.253  0.1023 -0.1272  0.5222
 2944W        W 7144   2.265   3.329   5.014  0.0429 -0.1656 -0.1382
 2945W        W 7145   5.283   5.073   0.553 -0.1260  0.2438  0.0466
 2946W        W 7146   9.540   5.079  10.010  0.2914  0.0463 -0.0726
 2947W        W 7147   9.093   7.920   0.834 -0.1355  0.2145  0.0901
 2948W        W 7148   2.645   6.859  12.364  0.0017 -0.0007 -0.2520
 2949W        W 7149   2.861   2.809   3.545 -0.0062 -0.1839  0.4413
 2950W        W 7150   0.882   4.225   3.918  0.0542 -0.0745  0.0003
 2951W        W 7151   2.117   2.065  12.646  0.1044 -0.0612 -0.2365
 2952W        W 7152   9.919   1.037  11.242 -0.0106 -0.0577  0.2945
 2953W        W 7153   4.486   5.919  12.127 -0.0995 -0.2664  0.0412
 2954W        W 7154   9.410   9.577  12.050 -0.0289  0.0935 -0.1032
 2955W        W 7155   3.297   9.357  10.569  0.0890  0.1644  0.1946
 2956W        W 7156   4.498   6.381  13.178 -0.2554 -0.2566  0.1383
 2957W        W 7157   6.611   0.332  10.010 -0.3275  0.3156 -0.0935
 2958W        W 7158   7.830   3.928  11.644  0.4363  0.2118 -0.0282
 2959W        W 7159   5.964   7.588   2.154 -0.1383  0.0771  0.0150
 2960W        W 7160   2.030   0.403   0.096 -0.1012  0.1106 -0.2285
 2961W        W 7161   0.492  10.483  12.613 -0.1943  0.0901 -0.0263
 2962W        W 7162   5.017   1.837   9.990 -0.0887  0.4987 -0.0036
 2963W        W 7163   7.763   4.570   3.477 -0.1653 -0.2447 -0.2213
 2964W        W 7164   4.405  10.204  11.591  0.0166  0.0645  0.0171
 2965W        W 7165   1.130   4.086  11.196  0.0740  0.2181  0.0844
 2966W        W 7166   8.799   8.154   2.096 -0.1283 -0.1550  0.1002
 2967W        W 7167  10.504   1.541  12.351 -0.1938  0.1294 -0.1547
 2968W        W 7168   0.972   8.908   0.389  0.3817 -0.0087 -0.1616
 2969W        W 7169   7.639   3.045   0.808  0.0821 -0.1132  0.0349
 2970W        W 7170   9.921   2.755  11.458  0.0818 -0.2220 -0.2147
 2971W        W 7171   8.820   6.351   3.988  0.0555  0.1782  0.2653
 2972W        W 7172   2.667   5.497   1.631 -0.0830  0.1266 -0.1318
 2973W        W 7173   4.326   0.760  12.562 -0.0558 -0.0941 -0.3152
 2974W        W 7174   6.767   7.579   0.121  0.1508  0.1360  0.0136
 2975W        W 7175   5.767   1.341   2.579  0.2824  0.1279  0.0223
 2976W        W 7176   6.702   4.673   0.837  0.0075 -0.4472 -0.1276
 2977W        W 7177   5.637   9.456  10.521 -0.0962 -0.0820  0.0372
 2978W        W 7178   4.436   2.264   2.869 -0.0712 -0.2452  0.1008
 2979W        W 7179   8.558   2.437   9.300  0.0316 -0.1005  0.1482
 2980W        W 7180   0.816   7.391   3.093  0.1167  0.0984  0.1254
 2981W        W 7181   5.283   3.182  11.832 -0.0443 -0.1441 -0.2653
 2982W        W 7182   0.721   8.718  11.246 -0.1111 -0.0977  0.0158
 2983W        W 7183  10.042   8.372   9.256 -0.0304 -0.0006 -0.1780
 2984W        W 7184   0.998   8.155   0.783 -0.2984 -0.4038 -0.1368
 2985W        W 7185   8.867   1.976  10.026  0.2610  0.0407 -0.0322
 2986W        W 7186   5.820   4.891  10.137 -0.1631 -0.2052  0.0253
 2987W        W 7187   1.882   8.285   2.622  0.1480 -0.2441  0.1743
 2988W        W 7188   3.812   7.094   9.237 -0.2252  0.1583 -0.0679
 2989W        W 7189   0.417   4.170   1.760 -0.1981 -0.3252  0.1528
 2990W        W 7190   1.905   0.952   0.924 -0.2544 -0.0701 -0.3432
 2991W        W 7191   5.582   5.726  13.117  0.3592 -0.0898 -0.3024
 2992W        W 7192   6.996   6.612  10.197 -0.1696  0.0163  0.0365
 2993W        W 7193   4.865   5.203   1.967  0.0288 -0.3043 -0.1513
 2994W        W 7194   5.955   9.842   2.353 -0.1285 -0.2470 -0.0621
 2995W        W 7195   2.122   0.934   9.906 -0.2955 -0.1934 -0.1492
 2996W        W 7196   0.504   4.472   2.842  0.0572  0.0666 -0.0227
 2997W        W 7197   4.618   7.896   2.342  0.1474 -0.3100 -0.0027
 2998W        W 7198   7.839   9.007   3.194 -0.0493  0.3383  0.3589
 2999W        W 7199   7.881   8.810   4.252  0.2157 -0.0123  0.4248
 3000W        W 7200  10.266   1.458   2.056 -0.1327  0.0804 -0.0647
 3001W        W 7201   5.309   7.830  12.068 -0.0113 -0.1429  0.3429
 3002W        W 7202   6.055   8.495   2.812  0.1466  0.0792 -0.0931
 3003W        W 7203   5.182   4.592   0.808  0.0928  0.1642  0.1463
 3004W        W 7204   0.101   8.637  12.243  0.0336  0.1373  0.0808
 3005W        W 7205   1.254   6.360  12.519 -0.2517  0.2167 -0.1054
 3006W        W 7206   9.302   2.710  12.629  0.0904 -0.4422  0.1940
 3007W        W 7207   1.278   4.432   8.703 -0.2629  0.0749 -0.2819
 3008W        W 7208   8.303   3.587   2.248  0.3143  0.1001  0.0713
 3009W        W 7209   0.200   4.902  11.347  0.3496 -0.1329 -0.1276
 3010W        W 7210   5.315   0.052   2.886 -0.0535  0.0171 -0.1427
 3011W        W 7211   7.662   7.823  10.833  0.0845 -0.1488 -0.2449
 3012W        W 7212   4.152   5.190   3.906 -0.1696 -0.0386 -0.1036
 3013W        W 7213   2.253   3.682   3.783 -0.1357 -0.2118  0.0319
 3014W        W 7214   4.870   2.473  12.381 -0.0580  0.0594  0.1185
 3015W        W 7215   7.424   1.809   2.500  0.0931 -0.3226 -0.0430
 3016W        W 7216   6.011   6.704  10.960 -0.0040  0.1170  0.0521
 3017W        W 7217  10.315   6.497  13.303  0.1227 -0.2431  0.3534
 3018W        W 7218   7.789   5.823   9.388  0.0408  0.0048 -0.0723
 3019W        W 7219   1.677   6.569  11.282 -0.1130  0.0897  0.0573
 3020W        W 7220   7.304   3.546   0.842 -0.2297  0.0576 -0.0407
 3021W        W 7221   3.938   9.568   2.397  0.0222  0.2460  0.0064
 3022W        W 7222   1.769   5.434  10.294 -0.1545  0.2208  0.2616
 3023W        W 7223   4.398   6.269   9.397 -0.3163 -0.2340  0.2301
 3024W        W 7224   1.152   1.575  10.652 -0.1098 -0.3112 -0.0695
 3025W        W 7225   6.443   7.990   1.656  0.3391  0.2006 -0.1781
 3026W        W 7226   8.500   8.058   9.294  0.1179  0.2666  0.0941
 3027W        W 7227   3.863   7.613  10.246 -0.1835 -0.1310 -0.2236
 3028W        W 7228   3.166   9.491   2.600  0.2422 -0.1863 -0.0315
 3029W        W 7229   2.132   4.083   3.551 -0.1140  0.0330  0.1097
 3030W        W 7230   9.222   5.462  10.225  0.2313 -0.0317  0.1084
 3031W        W 7231   3.943   0.326   2.464 -0.1908 -0.2693 -0.1112
 3032W        W 7232   0.914   3.859   9.870 -0.2411  0.1669  0.3128
 3033W        W 7233   9.692   1.861   3.606  0.0727  0.3090  0.3804
 3034W        W 7234   5.269   0.954   9.256  0.2095  0.1090 -0.0669
 3035W        W 7235   9.442   1.128  10.283  0.0755 -0.0789 -0.1422
 3036W        W 7236   3.652   2.393   3.999 -0.1147  0.1106 -0.3737
 3037W        W 7237   1.608   4.975  12.080 -0.0768 -0.1830 -0.5157
 3038W        W 7238   9.055   6.024   8.832  0.0567 -0.1941  0.3604
 3039W        W 7239   5.580   5.947   9.432 -0.0424 -0.2716  0.3177
 3040W        W 7240   8.188  10.163   0.394  0.0119  0.0267  0.1040
 3041W        W 7241   1.857   8.073  11.145  0.2423 -0.0697  0.1286
 3042W        W 7242   3.599   1.752   1.952  0.0875 -0.1655 -0.1223
 3043W        W 7243   2.504   3.163   8.692  0.2859  0.0155  0.0106
 3044W        W 7244   4.152   0.210   1.148 -0.1807  0.0705  0.1660
 3045W        W 7245   9.672   2.115   9.390  0.0521  0.2894  0.2904
 3046W        W 7246   8.763   1.760   2.439  0.1567  0.3822  0.3857
 3047W        W 7247   7.978   0.703   2.240  0.0570 -0.1830  0.2650
 3048W        W 7248   3.243   3.886   0.346  0.1854 -0.0859 -0.2601
 3049W        W 7249   7.168   3.497  10.000  0.0241  0.1705 -0.2329
 3050W        W 7250   7.893   1.679   9.202 -0.1035  0.2394  0.1518
 3051W        W 7251   9.221   2.430  11.823 -0.0514  0.1101  0.1363
 3052W        W 7252   6.222   6.682   9.606 -0.1900 -0.1394 -0.0457
 3053W        W 7253   9.301   8.920  11.370 -0.1395 -0.0466 -0.2209
 3054W        W 7254   9.590   9.199   9.825  0.0597 -0.0935 -0.1461
 3055W        W 7255   8.528   8.928  11.232 -0.2107  0.0586  0.2505
 3056W        W 7256   0.867   8.816   1.566  0.0807  0.1539 -0.0865
 3057W        W 7257   5.881   7.851  10.291  0.1014  0.0880 -0.1702
 3058W        W 7258   0.621   4.654  12.467 -0.2367  0.2203 -0.1253
 3059W        W 7259   3.508  10.144   1.305 -0.0851  0.4463 -0.0331
 3060W        W 7260   4.840   2.559  13.302  0.1845 -0.0328  0.3522
 3061W        W 7261   9.148   9.085  12.322 -0.2617  0.1138 -0.1996
 3062W        W 7262   4.044  10.289   0.951  0.3157 -0.3540  0.3060
 3063W        W 7263   1.693   2.026  11.363 -0.3171  0.0561 -0.0161
 3064W        W 7264   1.349   3.815  12.842 -0.1291  0.2056  0.2106
 3065W        W 7265   9.879   9.515   1.376 -0.1188  0.1595  0.2035
 3066W        W 7266   6.481   6.197   9.092  0.3340 -0.0120  0.1841
 3067W        W 7267   6.354   0.723  12.527 -0.0363  0.2918 -0.0827
 3068W        W 7268   8.506  10.413   4.151 -0.1670 -0.0152  0.2698
 3069W        W 7269   8.711   8.246  10.031  0.2415  0.0036 -0.1326
 3070W        W 7270   7.388   9.818  10.583  0.0472 -0.1438 -0.0306
 3071W        W 7271   1.952   8.898   1.486 -0.1856 -0.2007 -0.0908
 3072W        W 7272   1.525   4.583   1.888  0.0073  0.1961  0.0661
 3073W        W 7273   1.960   4.928   9.551 -0.1349  0.1789 -0.3532
 3074W        W 7274   6.372   3.727  10.096  0.0410 -0.3465  0.0388
 3075W        W 7275   0.734   3.897  12.045  0.1066 -0.1723  0.0072
 3076W        W 7276   4.291   4.158   3.339 -0.1857  0.3568 -0.1851
 3077W        W 7277   4.575   1.819   9.791 -0.0611 -0.0392  0.0490
 3078W        W 7278   8.714   1.594  11.969 -0.1063  0.1340 -0.1450
 3079W        W 7279   6.413   7.343   2.136 -0.1418  0.1950  0.1262
 3080W        W 7280   1.043   3.995   0.054  0.0289  0.0527 -0.2821
 3081W        W 7281   2.954   3.699  13.233 -0.1225 -0.3423  0.1143
 3082W        W 7282   2.710   7.026   4.495  0.0961 -0.1192 -0.3219
 3083W        W 7283   3.581   3.889   4.290 -0.1389 -0.0984  0.2718
 3084W        W 7284   8.401   7.650   9.030  0.0019 -0.0773 -0.1601
 3085W        W 7285   5.102   6.750  12.289  0.1708 -0.0196  0.1008
 3086W        W 7286  10.411  10.056  11.967  0.0998 -0.1066 -0.3497
 3087W        W 7287   4.275   1.467   9.549 -0.1008  0.0909  0.1741
 3088W        W 7288   5.022   5.228   9.689 -0.0049 -0.0118  0.1690
 3089W        W 7289   6.590   5.141   1.739 -0.0889  0.0353 -0.0316
 3090W        W 7290   6.882   2.354   9.352 -0.0454 -0.2691 -0.0701
 3091W        W 7291   7.937   5.340   0.565 -0.2259 -0.1025  0.1582
 3092W        W 7292  10.267   2.594   4.057  0.3707 -0.0434  0.1987
 3093W        W 7293   6.703   3.541   9.581  0.1524 -0.3267 -0.2724
 3094W        W 7294   3.300   9.520  12.412  0.1011 -0.1430  0.1533
 3095W        W 7295   0.878   1.110   3.003 -0.1417 -0.2014  0.0210
 3096W        W 7296   7.189   5.604  11.366  0.0260  0.2227  0.0796
 3097W        W 7297   8.326   9.831  11.261 -0.1955 -0.0438  0.0428
 3098W        W 7298   5.581   8.213  10.646  0.3464 -0.2196 -0.1272
 3099W        W 7299   8.532   2.587   2.925 -0.0152  0.0649  0.0374
 3100W        W 7300   1.467   3.430  12.491  0.0060  0.1370  0.1479
 3101W        W 7301   7.934   8.257   2.199 -0.0441 -0.1515  0.0657
 3102W        W 7302   0.255   7.008   3.815 -0.0817 -0.1236 -0.1592
 3103W        W 7303   6.187   8.214  11.718 -0.1103  0.0931  0.4350
 3104W        W 7304  10.505   0.402  10.022  0.0217  0.1152 -0.0216
 3105W        W 7305   8.455   0.065   0.467  0.3836 -0.0958 -0.0560
 3106W        W 7306   7.419   6.661  11.612  0.0630  0.0788  0.1509
 3107W        W 7307   0.764   2.532  12.200 -0.3586  0.1284  0.0846
 3108W        W 7308   9.566   1.993  11.890 -0.2658  0.1722 -0.1019
 3109W        W 7309   9.875   4.563   2.670  0.0670 -0.0248  0.0943
 3110W        W 7310   4.736   2.844   3.500 -0.4052 -0.1907  0.2317
 3111W        W 7311   7.892   9.324   3.579 -0.1524  0.0206  0.2058
 3112W        W 7312   5.119   7.502   3.570  0.1340 -0.0178 -0.0312
 3113W        W 7313   7.111   2.381   0.157  0.0239  0.1276  0.1505
 3114W        W 7314   7.232   0.335  12.019 -0.2438 -0.0418  0.2283
 3115W        W 7315   8.814   1.922   1.976  0.0874  0.1194  0.3818
 3116W        W 7316   9.202   7.380   0.135  0.0872 -0.1180  0.1777
 3117W        W 7317   3.844   5.293   1.390  0.1974 -0.1063 -0.1863
 3118W        W 7318   7.678   7.930   0.253  0.2297  0.0049 -0.2100
 3119W        W 7319   5.904   3.040  13.097 -0.2645 -0.2218  0.3693
 3120W        W 7320   2.214  10.008   3.188  0.3076  0.1957 -0.2181
 3121W        W 7321   8.503   6.745  11.252 -0.0860 -0.2697 -0.2093
 3122W        W 7322   1.985   6.732   9.981  0.1744 -0.2882 -0.3228
 3123W        W 7323   9.931   8.588   3.872 -0.3580 -0.0050 -0.0319
 3124W        W 7324  10.104  10.457   1.235  0.1868  0.0508 -0.0254
 3125W        W 7325   2.342   4.999  11.660  0.1008 -0.1068 -0.0287
 3126W        W 7326   7.292   3.875  12.081  0.4370 -0.2015 -0.1664
 3127W        W 7327   9.545   4.105   0.376  0.3311 -0.0022  0.1543
 3128W        W 7328   0.102   8.337   0.493  0.2431  0.1645 -0.3721
 3129W        W 7329   7.559   5.291  11.493 -0.3093  0.0486  0.1257
 3130W        W 7330   7.064   1.775   2.897  0.0011  0.2803 -0.5270
 3131W        W 7331   3.335   9.240   1.660 -0.2521 -0.0293  0.0364
 3132W        W 7332   7.488   9.388   8.817 -0.1721 -0.2429 -0.0971
 3133W        W 7333   2.291   1.825  13.092  0.1234 -0.3218 -0.0645
 3134W        W 7334   3.240   1.895   2.437 -0.2879  0.1654  0.2274
 3135W        W 7335   5.328   6.249   2.134  0.0851 -0.3347 -0.5783
 3136W        W 7336   7.885   9.868   0.791  0.2780 -0.4492  0.2270
 3137W        W 7337   4.805   3.403   3.577 -0.1182  0.1933 -0.0107
 3138W        W 7338   4.800   1.195   2.923  0.2324  0.3604  0.0514
 3139W        W 7339   7.606   8.304   4.566 -0.2982 -0.1638 -0.1000
 3140W        W 7340   7.524   3.706  10.307 -0.1748 -0.3338 -0.3806
 3141W        W 7341   0.469   5.230   2.182  0.0327  0.0615  0.3762
 3142W        W 7342   8.873   0.192  10.494 -0.2769 -0.1111 -0.1696
 3143W        W 7343   5.965   0.113   1.357  0.0678  0.1670  0.0390
 3144W        W 7344   9.414   0.415   2.232 -0.1572  0.0226  0.1295
 3145W        W 7345   6.071   4.006  10.354  0.0104 -0.2862  0.3238
 3146W        W 7346   3.527   8.119   1.590 -0.0252 -0.3356  0.1387
 3147W        W 7347   4.883   1.280  13.125  0.1961  0.0064 -0.0862
 3148W        W 7348   4.337   9.748   0.304 -0.0397 -0.1270 -0.1087
 3149W        W 7349   2.901   0.214   1.721  0.0664 -0.3991  0.1664
 3150W        W 7350   5.018   5.848   5.109  0.0650  0.4842  0.0995
 3151W        W 7351   5.955   0.087  13.153 -0.0715 -0.3144  0.2119
 3152W        W 7352   8.904   3.744   1.148  0.1880 -0.2786  0.0829
 3153W        W 7353   0.167   2.848   1.609 -0.1943 -0.0325 -0.0628
 3154W        W 7354   0.487   6.920  11.640  0.0439  0.1703 -0.1458
 3155W        W 7355   7.762   9.621  11.886 -0.1664  0.0033  0.0223
 3156W        W 7356   7.852   6.880  12.225  0.1438 -0.1805  0.0458
 3157W        W 7357   6.621   0.756   3.730 -0.0793  0.3839 -0.1367
 3158W        W 7358   0.890   2.278  11.265 -0.0559 -0.0357  0.2174
 3159W        W 7359  10.001   5.123  12.049  0.0306  0.1061 -0.0362
 3160W        W 7360   9.232   3.201   9.459 -0.2824  0.0751  0.3217
 3161W        W 7361   0.308   6.016   9.390 -0.0081 -0.0508 -0.2858
 3162W        W 7362   6.886   3.853  10.152  0.1426 -0.4447  0.1777
 3163W        W 7363   0.426   0.689  10.986 -0.0636 -0.1913  0.1141
 3164W        W 7364   1.272   2.994   0.709 -0.0531 -0.1402 -0.1669
 3165W        W 7365   0.057   5.548  10.534  0.0285 -0.0981  0.0325
 3166W        W 7366   3.847   5.238   2.312  0.0821  0.2111 -0.0822
 3167W        W 7367   5.750   2.898  11.738 -0.1172  0.0408  0.0518
 3168W        W 7368   0.480   1.010   9.285 -0.1933 -0.2348 -0.0903
 3169W        W 7369   3.494   1.272   2.120 -0.1622  0.2570  0.2700
 3170W        W 7370   8.979   4.269   0.077  0.1117 -0.2382 -0.0120
 3171W        W 7371   1.512   3.193  10.178  0.0676 -0.0341  0.0393
 3172W        W 7372   9.035   4.551   2.146 -0.0638  0.2144  0.2856
 3173W        W 7373   7.563   5.759   8.038  0.1071  0.0834 -0.2099
 3174W        W 7374   3.947   9.575   3.243 -0.3173 -0.0788 -0.0656
 3175W        W 7375   7.109   2.693  10.747 -0.0636  0.2203 -0.1998
 3176W        W 7376   9.681   7.249   0.787 -0.0059 -0.1457  0.0196
 3177W        W 7377  10.290   3.156  11.312  0.2368  0.2000  0.2051
 3178W        W 7378   9.646   9.528   9.481 -0.2471 -0.2935 -0.0650
 3179W        W 7379   7.643   5.823  11.386 -0.3770  0.1049 -0.1047
 3180W        W 7380   6.652   4.631   2.696 -0.0549  0.2109 -0.1664
 3181W        W 7381   8.409   1.969  11.223  0.2265  0.2609 -0.0316
 3182W        W 7382   3.891   4.246   9.924  0.1230  0.1450 -0.0856
 3183W        W 7383   3.374   5.417   0.610 -0.0565 -0.0450 -0.0650
 3184W        W 7384  10.366  10.448  10.469  0.2208  0.0431 -0.0192
 3185W        W 7385   8.554   2.413   4.279  0.2326 -0.1742  0.1403
 3186W        W 7386   6.856   2.858  13.343 -0.2245  0.0503  0.0006
 3187W        W 7387   6.122   7.185   1.345 -0.0743 -0.0183  0.2219
 3188W        W 7388   6.399   0.062  10.364 -0.0833 -0.1487  0.0169
 3189W        W 7389   1.644   8.217  12.403  0.0536  0.2663 -0.0598
 3190W        W 7390   7.578   8.377   1.555 -0.1916 -0.1563 -0.0269
 3191W        W 7391   3.247   7.627   8.771 -0.2333 -0.1326 -0.1754
 3192W        W 7392   0.377   5.599   0.409  0.1472  0.1067 -0.1687
 3193W        W 7393   7.922   6.267  10.527 -0.0989 -0.3142 -0.1017
 3194W        W 7394   0.047   7.464   1.276 -0.0181 -0.0168  0.1212
 3195W        W 7395   6.916   1.032   0.473 -0.1466  0.0754  0.1385
 3196W        W 7396   6.706   2.226  13.317  0.5173  0.0390  0.0410
 3197W        W 7397   7.477   2.352  13.059  0.1718  0.3690  0.2035
 3198W        W 7398   1.727   7.095  11.487  0.1293 -0.0776  0.1424
 3199W        W 7399   3.879   3.101   9.438 -0.1802 -0.2812 -0.0008
 3200W        W 7400   5.190   3.606   9.763 -0.2900  0.1997 -0.2551
 3201W        W 7401   9.940   6.389  12.168 -0.0501  0.0293 -0.0492
 3202W        W 7402   6.958   7.699   4.375  0.0316 -0.2171 -0.2111
 3203W        W 7403   3.146   7.049   9.402  0.1502 -0.0247 -0.0491
 3204W        W 7404   4.234   6.871  13.031  0.0193 -0.1087  0.2618
 3205W        W 7405   6.103   7.250  11.100 -0.2774 -0.1062  0.1045
 3206W        W 7406   9.066   2.505   2.138  0.0717 -0.1306  0.2119
 3207W        W 7407  10.019   6.452   3.989  0.2463 -0.2213 -0.1119
 3208W        W 7408   6.315   7.052   0.453 -0.0081  0.0099 -0.1388
 3209W        W 7409   9.058   8.382   9.502  0.1663  0.3006  0.3148
 3210W        W 7410   7.328   1.848  11.085  0.0135 -0.2017 -0.0300
 3211W        W 7411   7.821   2.804   3.962  0.0717  0.1415  0.0163
 3212W        W 7412   4.925   6.802  12.757  0.2644  0.3320 -0.1754
 3213W        W 7413   0.737   9.788  11.863  0.0413 -0.1191 -0.0033
 3214W        W 7414  10.482   2.901  10.332  0.1497  0.2071 -0.1613
 3215W        W 7415   0.404   6.489  12.102 -0.1701  0.3776  0.0750
 3216W        W 7416   2.551   6.847   4.966  0.2440 -0.0640  0.0186
 3217W        W 7417   6.358  10.356  13.258 -0.2800  0.2641  0.0456
 3218W        W 7418   3.204   1.452   9.082  0.0269 -0.2481  0.0780
 3219W        W 7419   8.220   1.420   9.598 -0.1674 -0.1484 -0.0715
 3220W        W 7420   4.372   6.993   2.873  0.2782  0.1564  0.2110
 3221W        W 7421   3.940   2.124   2.905  0.0747 -0.2144  0.3079
 3222W        W 7422   2.154   5.080   0.907  0.2298 -0.0639  0.0539
 3223W        W 7423   6.229   1.949   3.075  0.0934 -0.0233 -0.0677
 3224W        W 7424   8.698   1.104  12.125  0.2208  0.2352 -0.2124
 3225W        W 7425   0.585   6.103   0.077 -0.2239 -0.1373 -0.2309
 3226W        W 7426   7.083   8.445  13.154  0.0297 -0.2755 -0.1414
 3227W        W 7427   1.496   7.675   2.068  0.3377  0.1853 -0.0459
 3228W        W 7428   6.399   7.570   1.264  0.0475 -0.0244  0.0166
 3229W        W 7429   8.147   8.827  12.404 -0.1488 -0.0952  0.1015
 3230W        W 7430   0.030   1.790  11.539  0.2417  0.3913  0.0160
 3231W        W 7431   0.617   8.298  10.946  0.2768 -0.0536  0.1662
 3232W        W 7432   8.415   6.553   0.648 -0.2844  0.1098 -0.0537
 3233W        W 7433   2.061   4.170   2.228 -0.1689 -0.2917 -0.2117
 3234W        W 7434   5.638   3.720   2.253  0.1011 -0.4016  0.2097
 3235W        W 7435   5.451   7.998  11.079 -0.0731  0.1805 -0.1476
 3236W        W 7436   1.967   3.636  13.353  0.0652  0.2088  0.0471
 3237W        W 7437   1.001   1.637  12.042 -0.2691 -0.0216 -0.1214
 3238W        W 7438   2.858   0.744   3.677  0.0428  0.1546  0.0997
 3239W        W 7439   6.199   6.196   0.533  0.0523 -0.3262 -0.0371
 3240W        W 7440   0.912   1.502  11.570 -0.0439 -0.0995  0.1408
 3241W        W 7441   5.285   6.416   3.554  0.1412 -0.0125  0.0870
 3242W        W 7442   5.017   1.990   1.128  0.1089 -0.2953  0.0094
 3243W        W 7443   6.806   7.219   0.536 -0.0503 -0.2852 -0.1479
 3244W        W 7444   3.040   9.309  11.546 -0.1732 -0.2205 -0.0154
 3245W        W 7445   4.031   0.759  10.862 -0.0563 -0.0909  0.0613
 3246W        W 7446   2.848   4.723   0.465  0.1063  0.0391 -0.1578
 3247W        W 7447   2.520   3.585   2.958  0.1468 -0.1706  0.0275
 3248W        W 7448   2.829   3.247   1.505  0.1671  0.1007  0.2950
 3249W        W 7449   2.494   6.748  11.903 -0.3313 -0.2934  0.3596
 3250W        W 7450   2.461   6.963   2.120  0.0741 -0.1519  0.1223
 3251W        W 7451   2.665   5.452   3.908  0.3022  0.4159 -0.0664
 3252W        W 7452   5.112   9.933   2.017  0.0297  0.1805  0.0453
 3253W        W 7453   0.273   8.418  10.568  0.0098  0.0824 -0.4758
 3254W        W 7454  10.479   0.605   0.675  0.0787 -0.0998  0.0452
 3255W        W 7455  10.480   2.865   3.686  0.0091 -0.0756  0.1393
 3256W        W 7456   7.484   8.042   0.740  0.0646  0.1734 -0.0844
 3257W        W 7457   2.918   6.488   2.617  0.2478  0.0785 -0.1130
 3258W        W 7458  10.478   5.130  10.985  0.0941 -0.0019 -0.2341
 3259W        W 7459   0.726   2.686   4.134 -0.3413 -0.3737 -0.1427
 3260W        W 7460   3.632   1.720   9.050 -0.1221 -0.2909 -0.2951
 3261W        W 7461   1.333   1.550   0.827 -0.3566  0.2062  0.2914
 3262W        W 7462   2.878   7.171   1.944 -0.0886 -0.3633 -0.0298
 3263W        W 7463   1.903   5.343   4.332  0.0551  0.0695  0.2251
 3264W        W 7464   6.433   6.588   4.314  0.4182 -0.0662 -0.0504
 3265W        W 7465   0.126   0.890  10.680  0.0028 -0.0296 -0.2895
 3266W        W 7466   1.248   1.395   0.138 -0.0985 -0.1807 -0.0270
 3267W        W 7467   5.441   3.254   9.137 -0.0090 -0.1715  0.0293
 3268W        W 7468   5.755   9.942  10.386 -0.1767 -0.1147  0.1734
 3269W        W 7469   8.184   8.565  11.461 -0.1416 -0.1648 -0.2576
 3270W        W 7470   4.323   3.678  12.904 -0.0071  0.0209 -0.2422
 3271W        W 7471   5.413   2.304   1.098 -0.0493 -0.3497  0.0634
 3272W        W 7472   6.562   1.532  11.492  0.1496  0.0107 -0.1170
 3273W        W 7473  10.273   5.005   2.434 -0.0611 -0.1995 -0.4105
 3274W        W 7474   5.792   1.374   9.502 -0.0674  0.1210  0.0037
 3275W        W 7475   3.915   1.083   3.021 -0.0242 -0.0628 -0.2434
 3276W        W 7476  10.110   0.855  12.601  0.1420  0.2096  0.1219
 3277W        W 7477   2.218   9.612  10.842 -0.1950 -0.2054  0.0530
 3278W        W 7478   3.106   9.688   9.188  0.1274 -0.1550 -0.2216
 3279W        W 7479   8.870   2.999  13.241 -0.3560  0.0150 -0.0047
 3280W        W 7480  10.106   9.345  12.616 -0.1477  0.0424  0.1756
 3281W        W 7481   2.189   3.595   9.607  0.3511  0.1148  0.0828
 3282W        W 7482   3.953   7.067  10.114  0.1189  0.1978  0.4572
 3283W        W 7483   6.549   5.975   3.178 -0.0202  0.2481  0.1840
 3284W        W 7484   4.378   3.255   2.526  0.1144 -0.0293  0.2576
 3285W        W 7485   4.368   5.641   0.851 -0.1655 -0.3821 -0.2949
 3286W        W 7486   9.676   6.121   0.404 -0.3191  0.0708  0.1294
 3287W        W 7487   8.192   6.969   8.965 -0.1982  0.1641 -0.5768
 3288W        W 7488   8.399   0.263  10.397 -0.0954 -0.0459 -0.2086
 3289W        W 7489   2.883   5.321  12.140 -0.2757 -0.1621  0.0754
 3290W        W 7490   0.658   5.465   2.718  0.0701 -0.0379  0.1252
 3291W        W 7491   3.497   8.274  11.593 -0.0528 -0.2945  0.3059
 3292W        W 7492   5.752   1.542   9.969  0.2184  0.0979 -0.2243
 3293W        W 7493   0.214   1.588   1.953  0.2033 -0.1457  0.1868
 3294W        W 7494   9.839   8.881  12.660 -0.2509  0.1665 -0.0245
 3295W        W 7495   4.226   1.678   1.485  0.0847 -0.2563  0.0133
 3296W        W 7496   0.879   6.078  11.647  0.0178 -0.0601 -0.1610
 3297W        W 7497   0.011   5.532   1.816  0.0889 -0.3502 -0.0248
 3298W        W 7498   9.335   5.127   9.499 -0.1032 -0.3009  0.2218
 3299W        W 7499   6.609   4.098  11.272 -0.2559  0.0317 -0.0515
 3300W        W 7500   8.757   3.040  10.224 -0.0972 -0.0440  0.3894
 3301W        W 7501   0.006   4.133   3.083  0.2166 -0.1237 -0.2540
 3302W        W 7502   2.061   4.235  12.553 -0.1118 -0.3010 -0.2225
 3303W        W 7503   3.425   4.125   2.192  0.0705 -0.0476 -0.4442
 3304W        W 7504   4.371   5.314   1.442  0.0994 -0.0635 -0.0288
 3305W        W 7505   4.992   9.537   8.755  0.3109  0.2245 -0.0820
 3306W        W 7506   0.234   5.005   1.718 -0.0675 -0.1947  0.0912
 3307W        W 7507   4.358   3.694   4.011  0.1629 -0.0573  0.1383
 3308W        W 7508   2.341   5.577  10.417 -0.3080  0.4338 -0.3150
 3309W        W 7509   5.678   2.105   2.999  0.2342 -0.3433 -0.2688
 3310W        W 7510   1.295   8.518   0.418  0.2380 -0.0119  0.1210
 3311W        W 7511   4.725   3.960   1.202 -0.0850 -0.1972 -0.0960
 3312W        W 7512  10.177   2.398  12.988  0.0250  0.1580  0.2461
 3313W        W 7513   9.630   4.761   3.977  0.1413 -0.2937 -0.1207
 3314W        W 7514   3.835  10.016  12.933 -0.6356  0.0198  0.0215
 3315W        W 7515   9.929   2.756  12.625  0.2175  0.0444 -0.1530
 3316W        W 7516   5.325   0.093   9.760  0.2192 -0.3681 -0.0702
 3317W        W 7517   8.718   4.115   5.587  0.4109  0.0748  0.2837
 3318W        W 7518  10.409   7.022  10.564  0.0796  0.2091  0.1180
 3319W        W 7519   7.575   4.357  11.420 -0.1561  0.4649 -0.1350
 3320W        W 7520   5.962   8.581  13.130  0.1423 -0.4317  0.1744
 3321W        W 7521   6.687   7.739   2.223 -0.0156  0.2079  0.0687
 3322W        W 7522   8.343   9.010  11.723  0.1419  0.1164  0.0347
 3323W        W 7523   0.937   3.037  13.236 -0.1363  0.0100 -0.0360
 3324W        W 7524   7.519   5.067   2.698 -0.1126 -0.2553  0.3640
 3325W        W 7525   4.284   1.050   3.796  0.1089  0.3539  0.0021
 3326W        W 7526   9.859   5.055   3.087  0.0391  0.0616 -0.1114
 3327W        W 7527   0.814   3.428   9.392  0.2154  0.0808 -0.0798
 3328W        W 7528   3.791   9.988   3.043  0.0014  0.3326 -0.3757
 3329W        W 7529   3.561   7.017   9.678  0.0618 -0.1025  0.1429
 3330W        W 7530   7.533   0.231   3.504  0.2882 -0.3760  0.3444
 3331W        W 7531  10.207   5.320   9.182  0.0699  0.0922 -0.0363
 3332W        W 7532   5.639   5.338   2.118  0.1552 -0.1538  0.3293
 3333W        W 7533   6.482   6.165   8.325 -0.2028  0.1466 -0.1748
 3334W        W 7534   0.174   2.448   0.767  0.0540 -0.0626 -0.0443
 3335W        W 7535  10.117   1.129   1.689  0.0447 -0.4244 -0.0802
 3336W        W 7536   3.765   8.656   2.727  0.1232  0.1692 -0.1632
 3337W        W 7537   3.461   8.945   1.269 -0.3448 -0.2774 -0.3367
 3338W        W 7538   5.617   6.914   9.056 -0.0981 -0.0365  0.2195
 3339W        W 7539   3.189   4.654   2.465  0.4069 -0.1181 -0.1359
 3340W        W 7540   6.960   5.869   4.066 -0.1248 -0.1249  0.1411
 3341W        W 7541   6.207   2.818   4.563  0.1850 -0.1829  0.0323
 3342W        W 7542   5.507   6.224  10.417  0.0640 -0.2799 -0.2295
 3343W        W 7543   6.605   0.509  11.792  0.0020  0.1730  0.1028
 3344W        W 7544   5.135   2.001   9.513 -0.1625 -0.2571 -0.0417
 3345W        W 7545   7.207   1.404  10.790 -0.1230  0.0453 -0.2022
 3346W        W 7546   5.091   9.547   0.879  0.1716 -0.2511 -0.0481
 3347W        W 7547   7.997   8.567   1.789  0.1182 -0.0278  0.1883
 3348W        W 7548   0.266   6.526  13.038 -0.0186  0.1440 -0.0736
 3349W        W 7549   0.861   3.784   3.048  0.1767 -0.0260 -0.0624
 3350W        W 7550   5.625   2.467   4.417 -0.3206  0.0702 -0.0244
 3351W        W 7551   7.374   1.835  11.554 -0.0858 -0.0743 -0.2261
 3352W        W 7552   8.016   4.102   9.517  0.0025 -0.2168 -0.0375
 3353W        W 7553   7.732   4.392   2.159  0.2098 -0.3957  0.0084
 3354W        W 7554   8.786   6.333  10.428  0.2255  0.0792 -0.0098
 3355W        W 7555   5.034   6.257  10.572  0.0431 -0.1191  0.2557
 3356W        W 7556   3.034   4.387  10.687 -0.2077 -0.3818 -0.0844
 3357W        W 7557   9.810   2.863  12.103 -0.1066 -0.0074 -0.0801
 3358W        W 7558   8.844   9.730   9.780 -0.0678 -0.0810 -0.2074
 3359W        W 7559   0.672   3.103   8.986 -0.1173  0.0928 -0.1924
 3360W        W 7560   6.520   6.041   9.670  0.3121 -0.3584 -0.1720
 3361W        W 7561   8.475   4.428  11.705  0.2314  0.0154  0.1863
 3362W        W 7562   7.904   8.638   4.873  0.2042  0.0262 -0.3164
 3363W        W 7563   5.740   5.008   1.265 -0.1325 -0.2036  0.2219
 3364W        W 7564   4.376   0.280   4.154  0.1687 -0.0896  0.0033
 3365W        W 7565   1.143   4.273   3.024  0.2862 -0.1050 -0.0025
 3366W        W 7566   9.991   5.401   1.570 -0.0715 -0.1381 -0.1113
 3367W        W 7567   0.744   3.427   3.417  0.6055 -0.2606 -0.0039
 3368W        W 7568   4.671   5.275  11.597 -0.3708  0.0588 -0.0603
 3369W        W 7569   9.354   8.193   2.700  0.1828  0.0556  0.0222
 3370W        W 7570   0.370   0.321   3.575  0.0761  0.1386 -0.1320
 3371W        W 7571   8.413  10.262  11.978 -0.0928  0.0541 -0.2028
 3372W        W 7572   8.331   5.408   5.083  0.1356  0.1537 -0.2304
 3373W        W 7573   2.484   3.879  13.311  0.0750 -0.2542  0.0223
 3374W        W 7574   5.300   5.720  10.271 -0.0483 -0.0942 -0.0170
 3375W        W 7575   6.156   9.131   9.350  0.3732  0.1550  0.0314
 3376W        W 7576   6.839   1.887   3.777 -0.3723 -0.0376  0.0840
 3377W        W 7577   4.374   9.994  10.630 -0.1002  0.1336  0.0533
 3378W        W 7578   1.695   9.716  12.723  0.1394  0.1499  0.0088
 3379W        W 7579   7.308   4.528   1.344  0.1011  0.3179 -0.3133
 3380W        W 7580   0.917   6.844   3.356  0.3105 -0.1286  0.1811
 3381W        W 7581   3.176   8.134   2.788 -0.0117 -0.2255 -0.2764
 3382W        W 7582   3.189   6.001   2.638  0.1529 -0.0554  0.0101
 3383W        W 7583   9.100   1.686   3.358 -0.2027 -0.2829  0.1670
 3384W        W 7584   5.714   3.763  11.378  0.0621  0.2210  0.3629
 3385W        W 7585   6.189   3.896   0.587  0.0682  0.1365  0.2690
 3386W        W 7586   2.122   9.161  10.060 -0.1344  0.0170  0.1429
 3387W        W 7587   1.389   7.007   0.412  0.0628 -0.0971 -0.0203
 3388W        W 7588   9.912   5.869   9.801  0.0076 -0.0167  0.0434
 3389W        W 7589   8.485   5.397   8.446 -0.1810  0.3086 -0.0094
 3390W        W 7590   8.397   6.500   9.776  0.0397  0.0207  0.0044
 3391W        W 7591   9.877   8.884  10.514  0.3619 -0.2524 -0.1147
 3392W        W 7592   3.022   4.281   1.075  0.0918  0.0370  0.1421
 3393W        W 7593   6.282   6.646  10.101 -0.1800  0.3778  0.0132
 3394W        W 7594  10.198   5.986  11.995  0.2406 -0.5430 -0.0893
 3395W        W 7595   6.932   3.312   4.503 -0.0602 -0.1365 -0.3478
 3396W        W 7596   6.783   8.626   9.049  0.1059 -0.1775 -0.0662
 3397W        W 7597   3.944   5.218  12.840  0.1463 -0.2030  0.0381
 3398W        W 7598   6.502   6.823   1.296  0.0899 -0.1568  0.2403
 3399W        W 7599   8.181   4.187   2.246  0.1348 -0.2677 -0.0412
 3400W        W 7600   1.542   6.555   0.592  0.2163  0.2065 -0.0927
 3401W        W 7601   9.312   6.812  10.708 -0.3138  0.0410  0.0668
 3402W        W 7602   5.979   3.488   0.429  0.1016  0.1606  0.4359
 3403W        W 7603   6.514   3.844  12.454  0.0243 -0.0487 -0.0342
 3404W        W 7604   3.378   5.511   2.287 -0.2073  0.0640 -0.0555
 3405W        W 7605   5.622   1.738   2.138 -0.1779  0.0883  0.3978
 3406W        W 7606   7.344   6.732   4.563  0.0402  0.2272  0.2319
 3407W        W 7607   6.693   0.423   4.115 -0.0383  0.0427 -0.1454
 3408W        W 7608   6.857   9.840   4.266 -0.0807 -0.0645 -0.0645
 3409W        W 7609   1.746   6.280   2.053  0.0711  0.2332  0.1821
 3410W        W 7610   8.136   7.830  13.202  0.0985  0.0613 -0.1408
 3411W        W 7611   7.414   7.955   2.747  0.0190  0.1979 -0.0005
 3412W        W 7612   8.434   0.735   2.649 -0.0083 -0.0636  0.4830
 3413W        W 7613   4.421   4.990   1.799  0.2065  0.1277 -0.4109
 3414W        W 7614   0.899   2.772   9.514  0.2500  0.0366 -0.3442
 3415W        W 7615   2.781  10.475  12.456 -0.0443 -0.2037  0.0421
 3416W        W 7616   4.663   4.094   2.421 -0.0840 -0.1119  0.3063
 3417W        W 7617   9.103   3.281  12.907  0.0144 -0.1119 -0.0217
 3418W        W 7618   5.678   3.248  10.983  0.0028  0.0606  0.1791
 3419W        W 7619   7.791   7.374  10.245  0.1903  0.1290  0.0691
 3420W        W 7620   3.939   7.592   9.429  0.0407 -0.1801  0.1014
 3421W        W 7621   1.275   7.621   3.287 -0.2449 -0.1960  0.0406
 3422W        W 7622   2.417   2.970   3.150 -0.2800 -0.2082  0.0716
 3423W        W 7623   6.742   6.603   1.862 -0.3219 -0.2742  0.0511
 3424W        W 7624   4.256   9.072   3.149  0.2500  0.2292 -0.2799
 3425W        W 7625   4.444   9.512  12.116 -0.1973  0.0684  0.0095
 3426W        W 7626   4.907   0.573   9.230  0.1730  0.2000  0.1364
 3427W        W 7627   2.301   2.883  11.639 -0.2850 -0.2070 -0.0177
 3428W        W 7628   6.389   7.669   0.419 -0.0345  0.1019  0.1205
 3429W        W 7629   7.631   5.357   3.079 -0.0713  0.0547  0.4945
 3430W        W 7630   9.371   3.866   4.909 -0.2585  0.1726  0.0657
 3431W        W 7631   3.082   3.824   0.830  0.2375  0.2936 -0.0601
 3432W        W 7632   0.560   4.663   1.875  0.1064  0.0957 -0.1023
 3433W        W 7633   0.436   3.472  11.382 -0.1323  0.0081 -0.0602
 3434W        W 7634   1.789   2.690  11.941  0.3643  0.0207 -0.2308
 3435W        W 7635   8.868   2.130  10.872  0.0098 -0.3069 -0.0161
 3436W        W 7636   4.487   3.523  13.325  0.1034  0.0943 -0.1091
 3437W        W 7637   3.620   9.709   9.030  0.1307 -0.1256  0.3532
 3438W        W 7638   1.916   4.947   3.449  0.1820 -0.0408  0.1078
 3439W        W 7639   3.709   6.488   9.943 -0.0631 -0.2912 -0.0663
 3440W        W 7640   1.855   6.133   1.224  0.2253  0.1582  0.0786
 3441W        W 7641   4.320   9.858   2.582  0.2289  0.1189  0.1035
 3442W        W 7642   6.761   8.298   4.986 -0.3083 -0.0636 -0.1207
 3443W        W 7643   8.153   3.653   3.840 -0.0261 -0.0821 -0.0115
 3444W        W 7644   7.560   4.411   9.264  0.2221 -0.3119  0.1415
 3445W        W 7645   0.859   8.127  11.292  0.0537 -0.0368  0.2454
 3446W        W 7646   7.372   7.969  10.078  0.1982  0.0243 -0.5146
 3447W        W 7647   9.158   3.649   9.658  0.0692 -0.2868 -0.1346
 3448W        W 7648   8.221   1.826  11.909  0.0453 -0.2453 -0.3483
 3449W        W 7649   1.077   8.564  13.338 -0.1701  0.0086  0.1286
 3450W        W 7650   6.435   2.035   9.303  0.1350  0.0297 -0.0562
 3451W        W 7651   7.465   8.846   4.670  0.1171 -0.0602 -0.2534
 3452W        W 7652   3.482   1.236  12.758 -0.0867  0.0771 -0.2594
 3453W        W 7653   8.391   3.921   1.857  0.1041  0.0540 -0.4081
 3454W        W 7654   1.150  10.460   0.897 -0.0557 -0.0985  0.0840
 3455W        W 7655   9.533   7.086  11.085 -0.0847  0.0837 -0.1405
 3456W        W 7656   5.178  10.109  11.052  0.0387  0.3490  0.0792
 3457W        W 7657   6.104   6.746   3.978 -0.0752  0.2817  0.0313
 3458W        W 7658   2.886   1.137  12.070 -0.0332 -0.1125 -0.0669
 3459W        W 7659   2.451   4.575   2.812  0.1639 -0.2071  0.1489
 3460W        W 7660   3.770   1.313  12.217 -0.1760  0.3906  0.3457
 3461W        W 7661   3.526   1.379   9.465  0.0969 -0.1453 -0.1571
 3462W        W 7662   8.932   3.451   8.481  0.0780 -0.0473  0.1998
 3463W        W 7663   5.466   6.732   0.784  0.3281  0.2900 -0.2969
 3464W        W 7664   3.428   9.431   2.165  0.0113 -0.0940  0.1776
 3465W        W 7665   4.632   9.429   3.170  0.2292 -0.1644  0.3390
 3466W        W 7666   6.320   2.173  12.246  0.0264 -0.0432  0.0262
 3467W        W 7667   5.970   2.578   1.829  0.1100 -0.2009 -0.0293
 3468W        W 7668   3.672   4.755   9.907 -0.0246 -0.0190 -0.2687
 3469W        W 7669   0.589   8.580  13.137 -0.1570  0.0586 -0.3636
 3470W        W 7670  10.044   1.710   9.402  0.0855 -0.1853 -0.0006
 3471W        W 7671   8.150   7.721  11.518  0.0292 -0.0828  0.2179
 3472W        W 7672   8.729   7.205  11.469  0.2423  0.0323 -0.2083
 3473W        W 7673   4.109   4.635   4.493  0.0663  0.1470  0.2606
 3474W        W 7674   6.100   3.873   3.542  0.0287  0.0891 -0.0836
 3475W        W 7675   8.958   9.424  11.926 -0.0580  0.0838 -0.1706
 3476W        W 7676   5.090   6.700  10.149 -0.1476 -0.1021  0.0439
 3477W        W 7677   2.039   1.809  11.872  0.1342 -0.2631  0.1301
 3478W        W 7678   5.328   7.254   4.019  0.0243 -0.1295  0.1472
 3479W        W 7679   6.995   6.061  12.774 -0.0135 -0.1497  0.2278
 3480W        W 7680   0.193   1.941   3.422 -0.1451  0.0324 -0.1614
 3481W        W 7681   1.745  10.182   3.564 -0.1113  0.1275  0.1084
 3482W        W 7682   1.912  10.132  11.458  0.1790  0.1150  0.2856
 3483W        W 7683   3.053  10.242  11.009  0.1437  0.3244 -0.1948
 3484W        W 7684   2.964   8.565   2.396  0.1157 -0.0330  0.0093
 3485W        W 7685   9.704   6.179   3.692  0.3467 -0.2436  0.2526
 3486W        W 7686   1.959   7.023  12.110  0.1493 -0.1048  0.3931
 3487W        W 7687   6.983   1.749   5.247  0.2307  0.1179 -0.0822
 3488W        W 7688   2.916   0.758   1.925  0.2445 -0.1455 -0.3114
 3489W        W 7689   8.916   3.946  13.025 -0.0220 -0.0251 -0.3445
 3490W        W 7690   7.409   2.169   2.978 -0.0496  0.0404  0.1340
 3491W        W 7691  10.031   2.724  10.488 -0.0800 -0.2334  0.0631
 3492W        W 7692  10.466   6.309  11.289  0.2205  0.4866  0.1246
 3493W        W 7693   4.995   0.347  13.300 -0.0913  0.2462  0.0713
 3494W        W 7694   3.194   2.186   3.109 -0.0829 -0.1436 -0.0706
 3495W        W 7695   0.522   3.387  12.362 -0.0662  0.3196  0.4357
 3496W        W 7696   4.115   5.008  13.318 -0.0565  0.2617  0.3885
 3497W        W 7697  10.507   1.203   2.851 -0.1206 -0.0661  0.2265
 3498W        W 7698   4.684   9.029  12.355  0.0363  0.2047  0.0395
 3499W        W 7699   2.399   9.433  10.433  0.1531 -0.1067  0.2224
 3500W        W 7700   9.785   4.862  12.451  0.0912  0.3063  0.0965
 3501W        W 7701   4.187   1.646  13.131 -0.3931  0.0869  0.0480
 3502W        W 7702   7.413   9.735  11.111  0.2096  0.0224 -0.1077
 3503W        W 7703   5.296   1.181   3.497  0.0235 -0.2303 -0.0235
 3504W        W 7704   7.808   2.083  12.732 -0.1604  0.0655 -0.1309
 3505W        W 7705   4.830   8.235  11.340 -0.0755  0.0754  0.0179
 3506W        W 7706   3.462   6.267   1.628 -0.1213 -0.2312  0.4528
 3507W        W 7707   8.390   4.203   9.945 -0.0375 -0.0778 -0.4174
 3508W        W 7708  10.245   3.218   1.330 -0.0476  0.0260  0.0093
 3509W        W 7709   0.539   0.956  10.492 -0.1444  0.0560 -0.0171
 3510W        W 7710   7.473   8.351   2.401  0.1805  0.1784 -0.1858
 3511W        W 7711   0.598   3.859  13.245 -0.3147 -0.0348  0.2179
 3512W        W 7712   8.387   0.996   4.263 -0.0130  0.0425  0.0225
 3513W        W 7713   7.808   1.455   8.621  0.1368 -0.1224 -0.2875
 3514W        W 7714   0.814   3.903   2.009  0.0296  0.0316 -0.0970
 3515W        W 7715   8.490   2.982   1.173 -0.0608  0.0165  0.0484
 3516W        W 7716   8.986   7.800   1.735  0.5016 -0.0373  0.4735
 3517W        W 7717   2.939   2.975   3.063  0.2037  0.2250 -0.3130
 3518W        W 7718   7.833   5.363   2.358  0.2010  0.2228  0.1896
 3519W        W 7719   5.814   9.408   0.958  0.0091 -0.0674  0.0709
 3520W        W 7720   1.550   4.977  13.334 -0.0761 -0.0887  0.4902
 3521W        W 7721   8.844   5.703  12.972  0.0173  0.0938  0.0506
 3522W        W 7722   7.968   0.562   2.958  0.3843  0.2488 -0.3517
 3523W        W 7723   7.050   9.767   0.184 -0.2552  0.2750 -0.1063
 3524W        W 7724   5.358   7.873  12.997  0.2693 -0.2586 -0.3331
 3525W        W 7725   2.475   2.702   9.308  0.1727  0.2253 -0.0422
 3526W        W 7726  10.365   1.210   3.880  0.1298  0.3271  0.4146
 3527W        W 7727   2.926   5.270   0.372  0.2768  0.0631  0.0178
 3528W        W 7728   9.701   3.755   3.824  0.1279  0.0066 -0.0223
 3529W        W 7729   1.263   5.655  13.329  0.1847  0.1542 -0.0396
 3530W        W 7730   2.473   6.008  10.203  0.0467  0.1170 -0.2171
 3531W        W 7731   2.350   7.640  10.361 -0.0290 -0.4334 -0.1237
 3532W        W 7732   0.529   2.670  11.088 -0.0691  0.1169  0.2919
 3533W        W 7733   6.774   7.002   2.981  0.1373 -0.0223  0.1407
 3534W        W 7734   7.492   7.094   2.942 -0.1128  0.1069 -0.0449
 3535W        W 7735   9.028   5.303   3.177 -0.1958  0.2343  0.3043
 3536W        W 7736   4.845   7.788  12.181 -0.1612 -0.1134  0.0346
 3537W        W 7737   1.721   2.109   3.301  0.1018 -0.2255  0.0529
 3538W        W 7738   3.007   3.330   1.073  0.0354  0.2232 -0.0143
 3539W        W 7739   0.108  10.385  13.303  0.2222  0.1655 -0.2319
 3540W        W 7740   1.014   2.173   3.986  0.1265 -0.3350  0.3324
 3541W        W 7741   4.716  10.285  12.412  0.1453  0.1840  0.2028
 3542W        W 7742   6.349   8.818   8.907 -0.1724 -0.2415 -0.0346
 3543W        W 7743   7.085   6.361   3.635  0.0444 -0.0381 -0.1011
 3544W        W 7744   7.710  10.289   0.524 -0.1518  0.1690  0.0570
 3545W        W 7745   6.447   4.924  11.396 -0.1954 -0.5072 -0.0741
 3546W        W 7746   8.997   4.750   0.154  0.0089  0.2876 -0.0146
 3547W        W 7747   9.167   6.221  10.808  0.0899  0.1939 -0.2080
 3548W        W 7748   5.334   0.530  12.353 -0.2348  0.1116 -0.1782
 3549W        W 7749   1.726   7.004   4.368  0.0538  0.0600  0.0621
 3550W        W 7750   4.213   6.316   2.982  0.0579 -0.0599 -0.1296
 3551W        W 7751   9.036   4.630  10.849  0.0171  0.0691 -0.1383
 3552W        W 7752  10.154  10.221  10.013  0.0340  0.0566 -0.2220
 3553W        W 7753   7.165   0.683  12.342  0.1846 -0.1460  0.3339
 3554W        W 7754  10.418   3.205   0.850 -0.0117  0.0293  0.0764
 3555W        W 7755   4.457   2.886  12.572  0.0522  0.0705  0.2257
 3556W        W 7756   9.650   4.043   2.706 -0.2595 -0.1421 -0.0543
 3557W        W 7757   4.477  10.050   5.222  0.0273  0.1584 -0.0138
 3558W        W 7758  10.092  10.177  10.835  0.0053  0.2455  0.1570
 3559W        W 7759   5.601   3.945  12.572 -0.1880 -0.0570  0.0997
 3560W        W 7760   5.438   0.104  10.250 -0.2552  0.0937 -0.2307
 3561W        W 7761   1.090   2.853   2.933 -0.1971  0.3709  0.0516
 3562W        W 7762   4.830   4.734   0.465 -0.2033 -0.2836  0.0030
 3563W        W 7763   5.896   3.929   2.827  0.1991  0.1583 -0.2328
 3564W        W 7764   7.989   8.687  10.367  0.1334  0.1467  0.0726
 3565W        W 7765   5.350   7.727   1.431 -0.0275 -0.2119  0.0173
 3566W        W 7766   5.932   5.232   0.332  0.0084  0.2208 -0.0573
 3567W        W 7767   9.692   1.785   0.138 -0.0627  0.0701 -0.0583
 3568W        W 7768   1.620   5.893  11.830  0.0117 -0.1932 -0.0168
 3569W        W 7769   7.400   9.413   1.483  0.2371  0.1269  0.2171
 3570W        W 7770   4.601   5.357  10.709  0.3195 -0.0623 -0.4688
 3571W        W 7771   9.935  10.100   2.399  0.4161  0.3463 -0.1767
 3572W        W 7772   8.124   0.178   1.448 -0.1493 -0.2895  0.3353
 3573W        W 7773   9.646   6.755  11.476 -0.2170 -0.1011 -0.0078
 3574W        W 7774   0.182   8.282   1.309  0.0901  0.0077  0.0231
 3575W        W 7775   2.736   1.223   2.245  0.0723  0.3132  0.1228
 3576W        W 7776   1.129   3.953   8.891  0.0096  0.1851 -0.2847
 3577W        W 7777   6.556   3.336  12.403 -0.1687  0.2815  0.1185
 3578W        W 7778   7.575   9.890   1.344 -0.1071 -0.1162 -0.2405
 3579W        W 7779   7.793   6.315   9.559 -0.0244 -0.3233 -0.1246
 3580W        W 7780   4.576   2.178  11.200  0.2350 -0.0215  0.0916
 3581W        W 7781   9.021   3.926   8.520  0.0154 -0.1223 -0.0978
 3582W        W 7782   5.962   7.403   0.291  0.1551 -0.2222  0.0110
 3583W        W 7783  10.500   9.912  11.507  0.1894 -0.0784  0.0352
 3584W        W 7784   4.433   2.197  10.340 -0.2854  0.2020  0.1477
 3585W        W 7785   5.045   8.737   2.863  0.0964 -0.1080  0.1141
 3586W        W 7786   0.406   0.232   3.054 -0.1311 -0.2583 -0.1308
 3587W        W 7787   1.692   4.756   1.472  0.2074 -0.1201 -0.0941
 3588W        W 7788   6.431  10.078   2.086 -0.0274  0.2681 -0.1613
 3589W        W 7789   3.890   7.337   0.858 -0.0524 -0.1914  0.2548
 3590W        W 7790   9.537   2.432  12.255 -0.0742 -0.0540  0.1021
 3591W        W 7791   1.676   7.519  11.181 -0.1940 -0.0350 -0.0997
 3592W        W 7792   2.513   5.502   0.542  0.2692  0.2278 -0.1324
 3593W        W 7793   7.832   3.633   1.002  0.1169 -0.0811 -0.1153
 3594W        W 7794   4.947   1.670   0.727  0.0822  0.0240 -0.1281
 3595W        W 7795   7.397   2.644  11.213  0.3483 -0.0834 -0.0615
 3596W        W 7796   6.898   4.859   3.106 -0.1288  0.3914  0.5482
 3597W        W 7797   2.586   3.244   1.994 -0.0602 -0.1578 -0.1200
 3598W        W 7798   3.046   0.409  12.417 -0.1587  0.0635  0.1457
 3599W        W 7799   3.825   2.724  13.203 -0.1077  0.0039 -0.1347
 3600W        W 7800   4.586   4.997   3.059 -0.1312 -0.0801  0.1687
 3601W        W 7801   9.231   4.007   2.984  0.1811  0.1935  0.2094
 3602W        W 7802   8.740   2.001   1.316 -0.0694  0.0796 -0.0701
 3603W        W 7803   9.076   4.554   8.829  0.0289 -0.1086 -0.0203
 3604W        W 7804   6.846   2.804  11.164 -0.0006 -0.1237 -0.0428
 3605W        W 7805   4.632   1.593  12.474 -0.3575 -0.0109  0.1231
 3606W        W 7806   2.640   9.494   1.526 -0.1799  0.2619  0.1081
 3607W        W 7807   8.113   6.285   1.729 -0.1077 -0.3517 -0.0280
 3608W        W 7808   6.255   1.373   0.895  0.0077  0.0897 -0.3418
 3609W        W 7809   5.536   5.659   3.909 -0.2589 -0.1096  0.2414
 3610W        W 7810   1.047   6.383   0.536 -0.2677  0.2134 -0.2480
 3611W        W 7811   2.990   8.370  11.575 -0.1784 -0.0810  0.3513
 3612W        W 7812  10.367   9.839   2.432  0.0432  0.1863 -0.2192
 3613W        W 7813   4.758   5.420   2.752 -0.1690 -0.0938  0.0436
 3614W        W 7814   3.536   4.565   3.748  0.1143 -0.2961 -0.1191
 3615W        W 7815   8.905   9.189   9.000 -0.1951 -0.1584 -0.5387
 3616W        W 7816   4.697   7.986   0.417 -0.1096  0.0872  0.1929
 3617W        W 7817   7.305   5.814  13.088  0.0003  0.0017 -0.1115
 3618W        W 7818   3.442   0.836   1.881 -0.0469  0.0086  0.2573
 3619W        W 7819   2.815   4.239  11.168  0.4461  0.0870 -0.0366
 3620W        W 7820   3.355   6.321   4.036  0.1817  0.0156 -0.1981
 3621W        W 7821   2.710   0.353  10.535  0.0820 -0.0236 -0.1619
 3622W        W 7822   6.937   2.317  10.436 -0.1137 -0.0779 -0.0314
 3623W        W 7823   6.364   0.088   2.727  0.0891  0.2915  0.0268
 3624W        W 7824   3.999   8.909   1.303 -0.3264  0.0820 -0.1128
 3625W        W 7825   0.846   0.653   1.277 -0.0467 -0.1056 -0.1674
 3626W        W 7826   0.527   4.727   2.398 -0.0237  0.1572  0.0297
 3627W        W 7827   1.276   3.339   2.559 -0.0972  0.0696  0.0982
 3628W        W 7828   2.531  10.409   3.221  0.3044  0.1555  0.1374
 3629W        W 7829   6.055  10.328  12.383 -0.0966 -0.1011 -0.1465
 3630W        W 7830   2.218   9.431   3.733  0.1270 -0.0117  0.2869
 3631W        W 7831   2.419   3.139   0.412  0.1277 -0.0130  0.1014
 3632W        W 7832   8.603   0.248   4.509  0.0925 -0.1292 -0.2857
 3633W        W 7833   7.368   6.109   9.429  0.0535  0.2314 -0.0840
 3634W        W 7834   9.633   7.135  12.733 -0.2736  0.1697  0.0405
 3635W        W 7835   6.557   8.072   4.558 -0.0250 -0.1843 -0.0085
 3636W        W 7836   4.350   6.659  10.908 -0.0325 -0.0843 -0.0093
 3637W        W 7837   7.613   2.956  11.485  0.0120 -0.0379 -0.0517
 3638W        W 7838  10.092   5.195  12.692  0.0154  0.1197  0.1555
 3639W        W 7839   5.111   8.297  10.939  0.2810  0.0996  0.3248
 3640W        W 7840   7.773   6.886   1.328 -0.0498  0.2087  0.3691
 3641W        W 7841   8.754   4.853   3.481 -0.0462 -0.0115  0.2707
 3642W        W 7842   9.149   8.670   0.155  0.0403  0.0311 -0.2813
 3643W        W 7843   1.558   0.491   0.305 -0.2328  0.2061  0.2708
 3644W        W 7844   5.334   8.961   1.153  0.2408 -0.0183  0.1115
 3645W        W 7845   8.118   2.144   0.879  0.1635 -0.0201  0.1780
 3646W        W 7846   5.555   5.260   2.703  0.0675  0.1904  0.1110
 3647W        W 7847   4.144   8.853  13.307 -0.0292  0.0252 -0.2027
 3648W        W 7848   3.686   7.798  11.258  0.0676 -0.0331  0.0657
 3649W        W 7849   3.496   9.950  12.022  0.4386  0.0968  0.0220
 3650W        W 7850   4.555   0.574   9.806  0.0798 -0.0189  0.0712
 3651W        W 7851   6.678   1.483  12.102 -0.1052  0.1709  0.2683
 3652W        W 7852  10.379   7.825  12.126  0.0908  0.0100  0.2136
 3653W        W 7853   8.647   6.325   8.289 -0.0220 -0.2768 -0.2042
 3654W        W 7854   1.797  10.450  10.705 -0.0267  0.2201  0.3404
 3655W        W 7855   4.234   3.461  11.115  0.2898 -0.0447 -0.1427
 3656W        W 7856   3.902   7.762  12.721 -0.0696 -0.1655 -0.1284
 3657W        W 7857   7.649   6.991   3.459  0.2375  0.0536  0.2622
 3658W        W 7858   0.420   7.831  12.217 -0.1754  0.2929  0.2359
 3659W        W 7859   4.018   2.950  12.778  0.1006 -0.1763 -0.4011
 3660W        W 7860  10.270   8.549  11.434 -0.1716 -0.2795 -0.0034
 3661W        W 7861   2.053   7.665   0.837 -0.0097  0.3350 -0.1764
 3662W        W 7862   8.137   3.985   0.512  0.0195 -0.2594  0.0495
 3663W        W 7863   4.557   1.368   0.610  0.1229  0.1031  0.3297
 3664W        W 7864   3.232   5.698   4.592 -0.4519 -0.0668  0.0529
 3665W        W 7865   4.956   8.763   2.380 -0.0218  0.1283 -0.0437
 3666W        W 7866   4.546   6.500   8.925  0.1678 -0.1096  0.0867
 3667W        W 7867   0.898   7.206   0.400  0.1835  0.4475 -0.2227
 3668W        W 7868   3.825   1.823  12.789 -0.3176 -0.2322  0.1813
 3669W        W 7869   6.019   3.650  10.983 -0.1972  0.4388  0.1656
 3670W        W 7870   9.745   8.064   2.403 -0.1200  0.2070 -0.0225
 3671W        W 7871   0.776   1.119   0.098 -0.2236  0.0805 -0.1997
 3672W        W 7872   1.505   1.690  11.019  0.0827 -0.1476 -0.1745
 3673W        W 7873   9.004   7.628  11.886  0.0926 -0.1650 -0.2022
 3674W        W 7874  10.448  10.198   0.922 -0.1740  0.0951 -0.1795
 3675W        W 7875   4.172   3.930  11.357 -0.1243  0.2849  0.0814
 3676W        W 7876   1.835   2.507   2.473  0.0248 -0.1431 -0.3019
 3677W        W 7877   6.114   4.591  11.282 -0.0337  0.2685  0.0139
 3678W        W 7878   2.179   9.385  11.586  0.0569  0.0803  0.1363
 3679W        W 7879   9.474   6.359  12.351  0.2847 -0.1952  0.3400
 3680W        W 7880   0.637   3.634   8.936 -0.0242  0.2231  0.2719
 3681W        W 7881   3.982   4.037  11.851 -0.1755  0.4140 -0.0952
 3682W        W 7882   4.311   9.434   1.575 -0.2673 -0.1133  0.1385
 3683W        W 7883   4.624   1.707  10.283  0.0656 -0.0308  0.1264
 3684W        W 7884   2.779   6.474  10.186  0.0502  0.1389  0.1388
 3685W        W 7885   4.884   9.947  10.643  0.0798  0.1363  0.2552
 3686W        W 7886   5.331   6.300   4.979  0.0247 -0.2283 -0.1759
 3687W        W 7887   2.359   4.805   3.286  0.2761  0.0422 -0.1093
 3688W        W 7888   4.599   7.209   4.822 -0.2271  0.0544  0.0673
 3689W        W 7889   9.227  10.396  11.313  0.0372  0.2970  0.2544
 3690W        W 7890   9.122  10.137   2.667 -0.0616 -0.0750 -0.1962
 3691W        W 7891   8.680   3.448   3.472 -0.3653  0.0367  0.3773
 3692W        W 7892   3.100   6.730   2.994 -0.1051 -0.0730 -0.0868
 3693W        W 7893   9.721   7.068  12.097 -0.0746  0.0782 -0.1375
 3694W        W 7894   4.992   2.615  11.248  0.2454  0.0529 -0.0096
 3695W        W 7895   2.420   4.082   2.989  0.0905 -0.0564  0.2183
 3696W        W 7896   2.666   6.848   3.919  0.1575 -0.0644  0.0006
 3697W        W 7897   7.511   0.049   5.622 -0.0796  0.1280 -0.0055
 3698W        W 7898   6.272   2.876   9.360 -0.0265 -0.1573 -0.0691
 3699W        W 7899   5.729   9.888   9.535  0.1271 -0.1211 -0.1943
 3700W        W 7900   2.965   2.933   2.391 -0.0503 -0.1811  0.0586
 3701W        W 7901   7.909  10.432  13.316  0.0626  0.1002 -0.1316
 3702W        W 7902   3.273   7.644   1.307  0.0606 -0.0492  0.1852
 3703W        W 7903   8.603   9.903   0.195  0.0393  0.2223  0.2608
 3704W        W 7904  10.133   7.649   4.597  0.0336 -0.2381  0.1169
 3705W        W 7905   9.635   0.555  11.960 -0.1717  0.1253  0.0999
 3706W        W 7906   3.854  10.298  12.089 -0.0763 -0.1040  0.0120
 3707W        W 7907   7.520   3.537  12.808  0.3997  0.7128  0.0428
 3708W        W 7908   5.881   1.005   9.896 -0.0149 -0.0167  0.3337
 3709W        W 7909   8.317   1.117   1.838  0.0227 -0.0625 -0.0332
 3710W        W 7910   0.838   2.933   0.379  0.0766  0.3971 -0.1452
 3711W        W 7911   3.833   1.264   3.954  0.1377  0.1667  0.0535
 3712W        W 7912   9.329   5.710   4.313  0.0943  0.1072  0.3142
 3713W        W 7913   1.907   8.675  12.303  0.1610 -0.0648 -0.0317
 3714W        W 7914   0.299   1.966  12.430  0.2019  0.0598  0.0666
 3715W        W 7915   1.919   1.790   9.742 -0.1522  0.0506 -0.0163
 3716W        W 7916   5.282   1.789   3.083  0.0210 -0.0906  0.3478
 3717W        W 7917   6.712   5.116   0.608  0.1066 -0.0308  0.4491
 3718W        W 7918   5.248   2.374   0.169  0.0397  0.0887  0.0182
 3719W        W 7919   1.749   2.375  10.959 -0.0883  0.2773 -0.0785
 3720W        W 7920   6.754   0.133   8.898  0.0453 -0.1256 -0.1918
 3721W        W 7921   0.459   0.968  12.255  0.2133  0.4759 -0.0762
 3722W        W 7922   8.739   9.619   0.855  0.0633 -0.3086  0.3657
 3723W        W 7923   6.607   8.293   2.041  0.2546  0.1578 -0.1930
 3724W        W 7924   8.258   6.144   0.894  0.0781  0.0640 -0.1568
 3725W        W 7925   9.955   7.759  11.794 -0.0684  0.0851 -0.3284
 3726W        W 7926   1.141   6.847  12.299  0.0085  0.1683  0.1497
 3727W        W 7927   4.395   0.404  12.186  0.1387  0.2064  0.1337
 3728W        W 7928   2.297   7.542   1.295  0.0628  0.0356 -0.2933
 3729W        W 7929   4.956   4.681  12.757  0.0091 -0.3681  0.0517
 3730W        W 7930   1.613   7.200   9.409  0.1792 -0.0149 -0.2506
 3731W        W 7931   9.454   5.223  10.576 -0.2468 -0.2418  0.0965
 3732W        W 7932   0.653   8.362   1.572  0.1572  0.0627 -0.3458
 3733W        W 7933   0.064   3.802   9.036  0.1144  0.3586 -0.0239
 3734W        W 7934   8.883   5.597   4.010 -0.2326  0.0437  0.0670
 3735W        W 7935   6.716   3.744   3.233  0.0108 -0.4412 -0.2969
 3736W        W 7936   7.594  10.161   3.706  0.2597 -0.2974  0.0045
 3737W        W 7937   9.825   8.020   1.305 -0.0120  0.0706 -0.1771
 3738W        W 7938   7.957   1.040   0.706  0.1921  0.0109  0.1067
 3739W        W 7939   1.505   6.394  12.972 -0.3831 -0.0422  0.1125
 3740W        W 7940   8.590   3.627  10.898 -0.0211 -0.1953 -0.0689
 3741W        W 7941   0.041   1.361   0.369 -0.0407 -0.1470  0.2588
 3742W        W 7942   8.653   3.936   8.123 -0.0984  0.0505  0.2175
 3743W        W 7943  10.447   5.937   9.796  0.0529 -0.1390 -0.0265
 3744W        W 7944   8.438   2.034   3.421  0.3415 -0.0215 -0.2992
 3745W        W 7945   0.516   7.509   1.287  0.3530  0.1614 -0.3431
 3746W        W 7946  10.306   5.283   2.887  0.1185  0.1186 -0.2104
 3747W        W 7947  10.255   4.007  10.325 -0.1365  0.2009 -0.0067
 3748W        W 7948   5.954   2.471   4.953  0.1040  0.3192  0.2642
 3749W        W 7949   2.100   3.555   1.049  0.3817  0.2714  0.1313
 3750W        W 7950   0.097   9.437   9.740 -0.1156 -0.0449  0.1176
 3751W        W 7951   9.032   0.875   8.993  0.0783  0.1483 -0.0777
 3752W        W 7952   4.609   8.362   2.502 -0.0880 -0.4289 -0.5242
 3753W        W 7953   6.018   1.077   1.341  0.2683 -0.1845  0.1443
 3754W        W 7954   2.989   6.027  10.327  0.2750  0.3950 -0.0901
 3755W        W 7955   4.027   9.320  11.237 -0.1574 -0.1631  0.0817
 3756W        W 7956   6.537   9.060   4.654 -0.0409 -0.2602 -0.1115
 3757W        W 7957   1.355   4.050   0.464  0.0070 -0.1278  0.0314
 3758W        W 7958   1.273   8.383   2.724  0.3841  0.2313  0.0863
 3759W        W 7959   9.616   3.237   3.678  0.0193 -0.0157  0.0086
 3760W        W 7960   7.866   8.164   4.106  0.1541 -0.2774  0.1418
 3761W        W 7961   1.573   1.580  11.559  0.2043 -0.0768  0.2802
 3762W        W 7962   3.463   7.789   2.568  0.0649  0.2054 -0.1126
 3763W        W 7963   3.755   9.116  10.828 -0.0047  0.2651 -0.1400
 3764W        W 7964   8.106   7.773   3.125  0.1601  0.0721  0.1698
 3765W        W 7965   2.120   5.817  12.990 -0.0638 -0.2839 -0.2601
 3766W        W 7966   5.537  10.225   3.202 -0.1608 -0.1207  0.0293
 3767W        W 7967   5.100   2.683   1.908  0.2951  0.4545  0.3549
 3768W        W 7968   5.756   6.323   1.665  0.1745  0.0805 -0.0395
 3769W        W 7969   6.894  10.477   0.965  0.2201 -0.1667  0.3555
 3770W        W 7970   5.870   5.466   1.463 -0.1833 -0.2555  0.0355
 3771W        W 7971   8.118   3.451  10.934 -0.1248  0.1615 -0.1063
 3772W        W 7972   2.392   3.033  12.123 -0.2132 -0.3810 -0.0391
 3773W        W 7973   2.139   5.000  12.192  0.0045  0.2481 -0.1728
 3774W        W 7974   2.747   3.630  11.367  0.0076  0.3611  0.3370
 3775W        W 7975   0.174   1.183  12.665 -0.2920  0.1901 -0.2871
 3776W        W 7976   3.354   6.293   3.040  0.2551  0.0283 -0.2630
 3777W        W 7977   8.228   8.520   3.957  0.1625  0.0114  0.1326
 3778W        W 7978   1.590   5.920   0.821  0.1367  0.3552 -0.0898
 3779W        W 7979   1.011   5.428   2.303  0.1830 -0.1769  0.1683
 3780W        W 7980   9.381   9.968  12.430 -0.0909  0.1980 -0.2559
 3781W        W 7981   0.172   6.518   9.346  0.1279  0.0231 -0.1773
 3782W        W 7982   7.206   3.586  11.121 -0.3342  0.2228 -0.2027
 3783W        W 7983   4.577   7.325   1.619 -0.0373  0.3157 -0.0968
 3784W        W 7984   5.579   7.156   0.052 -0.4119 -0.0149  0.3234
 3785W        W 7985   9.244   7.548  10.321  0.3275  0.1668 -0.0632
 3786W        W 7986   1.305   5.716   1.347  0.2667  0.2633 -0.0104
 3787W        W 7987   6.107   2.406   9.551  0.2023 -0.1493 -0.0195
 3788W        W 7988   9.910   2.984   4.473 -0.0840  0.1593 -0.0636
 3789W        W 7989   0.495   4.926   0.183  0.2018  0.1261 -0.2231
 3790W        W 7990   1.230   3.881  12.250 -0.2780  0.1473  0.1317
 3791W        W 7991   0.134   6.451   0.324 -0.0246  0.2200 -0.0487
 3792W        W 7992   3.964   2.594   9.420  0.0364  0.0432  0.0379
 3793W        W 7993   0.754   7.444  12.927 -0.2952  0.1491  0.2512
 3794W        W 7994   8.958   0.180   1.432 -0.2099  0.3691 -0.0202
 3795W        W 7995   4.163   4.101   4.282  0.1859  0.1217 -0.1894
 3796W        W 7996   2.854   8.283   4.157  0.1256  0.3497  0.2119
 3797W        W 7997   6.271   9.333   0.180 -0.2012 -0.0696 -0.2568
 3798W        W 7998   5.445   3.614  10.284 -0.0751 -0.3540  0.1347
 3799W        W 7999   5.509   1.347   0.173 -0.0602  0.1963 -0.0400
 3800W        W 8000   5.135   5.601  11.381  0.3638  0.0143  0.0446
 3801W        W 8001   8.613   9.713  10.309  0.1321 -0.1578 -0.1518
 3802W        W 8002   5.991   5.811   3.880 -0.1774 -0.2120 -0.0809
 3803W        W 8003   7.022   7.646   3.853  0.0628 -0.3356  0.2982
 3804W        W 8004   8.915   6.582   8.712 -0.1978  0.2812  0.2195
 3805W        W 8005   3.318   5.732   9.173  0.1685 -0.0308 -0.1302
 3806W        W 8006   4.325   5.074   2.593  0.0079 -0.0769  0.1667
 3807W        W 8007   7.724   1.583   4.305  0.1089  0.1961 -0.1034
 3808W        W 8008   8.192   8.718   0.118  0.0936 -0.1376  0.0266
 3809W        W 8009   7.984   3.540  10.457 -0.2974 -0.3340  0.0681
 3810W        W 8010   1.696   1.336   9.866 -0.0250  0.0705  0.0487
 3811W        W 8011   9.052   3.403   0.661  0.0252  0.3019  0.0980
 3812W        W 8012   7.903   3.574   4.313  0.1411 -0.1546 -0.0822
 3813W        W 8013   9.937   8.221   3.367  0.3146  0.2592 -0.1008
 3814W        W 8014   8.543   3.161  11.085  0.0606 -0.2949 -0.3948
 3815W        W 8015  10.019   5.479   3.468  0.1433  0.1207  0.1088
 3816W        W 8016   6.556   6.100   4.453 -0.2780 -0.1696  0.0133
 3817W        W 8017   7.709   0.881   2.623 -0.0419 -0.0646 -0.3609
 3818W        W 8018   8.298   1.540   2.570 -0.0968 -0.3216 -0.3194
 3819W        W 8019   4.553   3.271   9.946  0.0582 -0.0592  0.0098
 3820W        W 8020   4.088   0.465   0.640 -0.0259 -0.1964  0.0704
 3821W        W 8021   6.226   4.883  12.699  0.3864  0.1026  0.1591
 3822W        W 8022   4.071   3.722   0.889 -0.1113  0.1990 -0.2676
 3823W        W 8023   6.382   2.930  12.057  0.2064 -0.1280  0.0626
 3824W        W 8024   4.024   8.163   3.704 -0.0999  0.0229 -0.0474
 3825W        W 8025   9.587   5.529  10.983  0.0355  0.0743 -0.1245
 3826W        W 8026   7.901   2.244   1.302 -0.0255  0.0144 -0.0645
 3827W        W 8027   5.917   3.666   0.969  0.1566  0.2002 -0.4031
 3828W        W 8028   7.122   6.652  12.818 -0.1531  0.2465 -0.2668
 3829W        W 8029   8.849   1.544   4.699  0.0185 -0.0450 -0.0723
 3830W        W 8030   6.139   3.650   2.489 -0.2129 -0.0524 -0.0795
 3831W        W 8031   8.165   7.207  11.401 -0.1525 -0.1881 -0.0053
 3832W        W 8032   1.575   8.329   2.238  0.1029  0.0706 -0.1617
 3833W        W 8033   6.047   5.741   9.789  0.2675  0.1903 -0.1262
 3834W        W 8034   9.452   5.679   0.389 -0.2725  0.1604  0.2344
 3835W        W 8035   0.849   9.730  13.214  0.0767 -0.1820  0.1122
 3836W        W 8036   4.357   6.936   1.861  0.1428  0.1882  0.0813
 3837W        W 8037   5.288   4.100  12.180 -0.1169 -0.0027  0.0101
 3838W        W 8038   1.889   1.162   2.865  0.1890  0.0230  0.2053
 3839W        W 8039   9.504   6.208   2.331  0.1403  0.0737 -0.0258
 3840W        W 8040   4.614   0.772  13.200  0.3031 -0.1898 -0.1137
 3841W        W 8041   6.961   3.215   3.968 -0.0452  0.0227  0.5045
 3842W        W 8042   2.839   6.372   3.878  0.0960  0.0457  0.1049
 3843W        W 8043   1.430   9.756  10.193  0.2147  0.0398  0.1509
 3844W        W 8044   7.111   9.337   9.279 -0.3189  0.1071 -0.1736
 3845W        W 8045   0.070   3.658  12.072 -0.1489  0.0305  0.2917
 3846W        W 8046   3.328   4.647   0.258  0.3240 -0.0250 -0.0756
 3847W        W 8047   8.856   4.285   1.567 -0.0180  0.0099  0.2941
 3848W        W 8048   0.824   2.547  13.304  0.3679  0.0875 -0.0022
 3849W        W 8049   1.744   3.580   2.760 -0.0521 -0.4341 -0.0453
 3850W        W 8050   8.134   7.708   9.487 -0.2830  0.0813 -0.0389
 3851W        W 8051   7.603   7.496   3.315 -0.2620  0.0457 -0.1178
 3852W        W 8052   6.473   5.167  11.890  0.3531  0.0927  0.0624
 3853W        W 8053   1.504   1.921   1.715 -0.2214 -0.1751 -0.0485
 3854W        W 8054   4.402   1.137   3.274 -0.2186  0.0239 -0.1714
 3855W        W 8055   8.231   6.302  11.458 -0.0731  0.1893 -0.0127
 3856W        W 8056   8.530   4.978   5.276 -0.0910  0.0656 -0.1237
 3857W        W 8057   9.038   5.016   9.053 -0.3143 -0.5159  0.0900
 3858W        W 8058   4.165   0.098  11.655  0.0420 -0.2814 -0.0798
 3859W        W 8059   2.045   9.088   3.416  0.1280  0.1624  0.0526
 3860W        W 8060   8.809   9.871   1.293  0.0806  0.0029  0.1516
 3861W        W 8061   4.268   0.205   3.628 -0.2058 -0.4253  0.0381
 3862W        W 8062   2.953   9.996  13.239 -0.1042 -0.0159 -0.1074
 3863W        W 8063   8.773   0.304   3.971  0.1155 -0.0258  0.0591
 3864W        W 8064   7.501   5.007   1.403  0.2643 -0.1442  0.0752
 3865W        W 8065   4.427   4.761   9.298 -0.3019  0.1823  0.1613
 3866W        W 8066   8.005   1.274   1.180 -0.3910 -0.2950  0.2520
 3867W        W 8067   7.841  10.057  10.565  0.5225  0.1936 -0.1421
 3868W        W 8068   5.938   5.972   9.113  0.1506  0.4673  0.3870
 3869W        W 8069   4.149   6.438   3.567 -0.2514 -0.0268 -0.1036
 3870W        W 8070   4.141   7.522  11.462 -0.0338 -0.1003 -0.2345
 3871W        W 8071   4.845   3.543   9.207 -0.3321  0.0459  0.0621
 3872W        W 8072   4.242   5.370   0.454  0.1302 -0.0596 -0.2119
 3873W        W 8073   4.031   7.005  11.462 -0.0260  0.1652  0.0030
 3874W        W 8074   2.657   8.486  10.602  0.1095 -0.3118  0.3635
 3875W        W 8075   6.682   0.923  12.072  0.0551  0.2257 -0.2869
 3876W        W 8076   6.800   9.297   2.186  0.0847 -0.2718  0.1429
 3877W        W 8077   2.140   3.314   3.393  0.1562 -0.0547  0.0340
 3878W        W 8078   7.630   8.316  11.046  0.0793  0.0619  0.2350
 3879W        W 8079   3.547   3.263  11.864  0.2206 -0.0501 -0.0791
 3880W        W 8080   6.456   5.568   4.126  0.1031  0.0293  0.0759
 3881W        W 8081   7.602  10.203  10.976 -0.1475 -0.3471 -0.1845
 3882W        W 8082   9.727   3.736  11.693  0.1388 -0.3153 -0.1228
 3883W        W 8083   1.315   9.124   9.447 -0.1263  0.3417  0.2010
 3884W        W 8084   9.180   0.046  13.101  0.0444  0.2881 -0.2236
 3885W        W 8085   9.419   3.697   2.348  0.0907  0.3113  0.0476
 3886W        W 8086   6.981   9.684  13.027  0.3411 -0.1947 -0.1345
 3887W        W 8087   5.662   7.500   9.811  0.0959  0.0774 -0.1010
 3888W        W 8088   5.121   7.426  10.746 -0.0386  0.1199  0.0042
 3889W        W 8089   3.446   5.104  11.395 -0.1186  0.2284 -0.3260
 3890W        W 8090   2.655  10.168  11.429  0.4512 -0.0499 -0.0788
 3891W        W 8091   7.281   0.455   9.476  0.2205 -0.0638 -0.0924
 3892W        W 8092   0.552   2.678  11.630 -0.2040  0.0644 -0.1590
 3893W        W 8093   0.696   3.310   9.870 -0.2415  0.1148 -0.1660
 3894W        W 8094   0.400   3.938   0.408 -0.1830 -0.1298  0.2103
 3895W        W 8095   3.397   2.445  13.176  0.0264 -0.0117  0.2373
 3896W        W 8096   6.495   8.086  10.999 -0.2291 -0.2516 -0.2631
 3897W        W 8097   3.707   4.510   8.922  0.1722  0.2479 -0.1769
 3898W        W 8098   9.926   9.289   9.135  0.2119  0.4058  0.0330
 3899W        W 8099   1.981   3.064  11.345 -0.2066  0.2225 -0.1771
 3900W        W 8100   9.720   1.443   1.599  0.1004 -0.0197 -0.0049
 3901W        W 8101   5.044   1.433   3.835 -0.4192  0.2120 -0.1181
 3902W        W 8102   3.317   4.896   0.705 -0.5009 -0.0439 -0.1488
 3903W        W 8103   9.546   8.284   4.153  0.2398  0.1837  0.2589
 3904W        W 8104  10.033   8.514  10.181  0.0393  0.2327  0.1852
 3905W        W 8105   2.030   2.238   9.549 -0.1939  0.1535 -0.1141
 3906W        W 8106   0.004   4.499   2.558 -0.0907 -0.1717 -0.4190
 3907W        W 8107   9.096   1.940  11.860 -0.0530 -0.0815  0.0518
 3908W        W 8108   5.143   9.422   1.797  0.2813 -0.0603  0.0534
 3909W        W 8109   1.150   7.531   0.820  0.3531  0.0382  0.1540
 3910W        W 8110   3.611   8.759  11.254 -0.1541 -0.0873  0.2313
 3911W        W 8111   3.838   9.258  10.279 -0.0405 -0.0359  0.0091
 3912W        W 8112   2.262   5.715   3.757  0.0642  0.2621 -0.0381
 3913W        W 8113  10.223   5.514   9.631 -0.0819  0.3961  0.0961
 3914W        W 8114   6.152   9.147   4.365  0.0786  0.1694 -0.1678
 3915W        W 8115   6.093   1.782   2.600 -0.0142  0.2091 -0.0404
 3916W        W 8116   9.490   3.622   0.481  0.1405  0.1769 -0.0160
 3917W        W 8117   1.400   3.513   1.303 -0.2229  0.0247  0.0629
 3918W        W 8118   6.711   4.448   1.810 -0.1652 -0.0728  0.1017
 3919W        W 8119   8.833   9.123   2.020 -0.0485  0.0329  0.0181
 3920W        W 8120  10.147   8.456  12.662 -0.0430  0.0381  0.2831
 3921W        W 8121   1.133   3.975  11.752 -0.1487 -0.1638 -0.1543
 3922W        W 8122   9.244   2.033   1.793  0.0907 -0.5221  0.0866
 3923W        W 8123   7.486   3.340   4.663  0.2532  0.1403  0.2803
 3924W        W 8124   7.294   4.195   8.773 -0.1963 -0.2393 -0.1968
 3925W        W 8125  10.320   2.893   1.955 -0.4049 -0.2790  0.1347
 3926W        W 8126   4.451   2.406  12.609 -0.0891  0.1964 -0.0310
 3927W        W 8127   2.396  10.491  12.112  0.0465  0.0307 -0.2106
 3928W        W 8128   5.565   4.670   8.902  0.1229  0.2036 -0.0843
 3929W        W 8129   4.485   3.839   9.320  0.0970  0.0162  0.6123
 3930W        W 8130   4.437   3.137   1.450  0.0891  0.0710 -0.1253
 3931W        W 8131   1.810   3.946   0.389 -0.3439 -0.2715 -0.0798
 3932W        W 8132   7.819  10.414   2.608 -0.0071 -0.0225  0.0006
 3933W        W 8133   9.828   3.647   8.264  0.0346  0.0231 -0.0833
 3934W        W 8134   5.594   3.554  12.121 -0.3465  0.4095  0.1199
 3935W        W 8135   5.578   3.083   0.150 -0.0159  0.3962  0.2614
 3936W        W 8136  10.483   5.477   2.360 -0.0389  0.1766  0.1476
 3937W        W 8137   7.014   5.063   3.506  0.1392  0.1930 -0.1494
 3938W        W 8138   6.219   9.114  10.567 -0.0567  0.1866 -0.1947
 3939W        W 8139   0.062   5.413  12.662  0.1781  0.0030  0.1475
 3940W        W 8140   9.491   2.666   0.244 -0.0234 -0.0872 -0.1725
 3941W        W 8141   4.375   9.911   0.783  0.0601 -0.0457  0.2127
 3942W        W 8142   5.388   8.610   2.028  0.4642 -0.2150 -0.0585
 3943W        W 8143  10.099   0.683   0.991 -0.1100  0.4005  0.4429
 3944W        W 8144   9.435   0.866   1.054  0.0262 -0.3205 -0.0497
 3945W        W 8145   8.652   7.402   0.337 -0.0309 -0.1559  0.0578
 3946W        W 8146  10.102   4.508   2.173 -0.2835 -0.0937  0.0945
 3947W        W 8147   0.860   4.502  11.077  0.0826 -0.2022  0.2206
 3948W        W 8148   3.610   6.767   3.208 -0.1231 -0.3545 -0.1862
 3949W        W 8149   7.298   0.067   1.769 -0.1092 -0.0069  0.2027
 3950W        W 8150   2.093   6.821   1.498 -0.0009 -0.1530  0.0436
 3951W        W 8151   8.030   4.879  12.876  0.2650 -0.1014 -0.2136
 3952W        W 8152   6.671   1.690  10.020  0.5431  0.0376 -0.0477
 3953W        W 8153   2.583   3.744  10.408  0.2383  0.1529  0.1328
 3954W        W 8154   1.252   7.212  10.129  0.0157 -0.1219 -0.0324
 3955W        W 8155  10.102   9.308   3.282 -0.0032 -0.2695 -0.3158
 3956W        W 8156   3.480   9.693   9.500  0.0872  0.0829 -0.0588
 3957W        W 8157   8.107   1.870   4.416  0.0543  0.2264 -0.1443
 3958W        W 8158   4.897   6.492   1.986 -0.1721 -0.0425  0.0972
 3959W        W 8159  10.305   6.191   9.318 -0.1332  0.1092 -0.0924
 3960W        W 8160   3.874   1.060   9.944  0.1047 -0.4382  0.1760
 3961W        W 8161   7.132   7.616   0.494  0.2191 -0.1840 -0.0944
 3962W        W 8162   9.908   5.038   2.138  0.0143  0.1341  0.0826
 3963W        W 8163   8.522  10.038   3.625 -0.0182 -0.1992  0.0712
 3964W        W 8164   8.519   0.042   1.700  0.1828 -0.2750  0.0139
 3965W        W 8165   8.317   2.821   1.685  0.1094 -0.0908  0.2177
 3966W        W 8166   1.526   9.549  10.753  0.1986  0.4165  0.1716
 3967W        W 8167   2.777   7.310  10.184 -0.2903 -0.0672 -0.3878
 3968W        W 8168   4.751   3.881  12.134 -0.0309  0.0070  0.1539
 3969W        W 8169   6.022   5.021  11.619  0.0045 -0.2456 -0.3104
 3970W        W 8170   8.451   3.220  10.565  0.2012 -0.1436 -0.0375
 3971W        W 8171   2.972   0.130  13.128 -0.0702  0.2865  0.0879
 3972W        W 8172   5.352   4.450   0.371  0.0681  0.0986  0.0750
 3973W        W 8173   4.714   9.315   9.141  0.0081 -0.0762  0.0595
 3974W        W 8174   0.111   6.067  12.226  0.2421 -0.0272  0.3894
 3975W        W 8175   3.685   7.915   2.090  0.1016  0.3487  0.1098
 3976W        W 8176   5.436   6.535  12.698 -0.2745 -0.0103  0.1406
 3977W        W 8177   8.336   9.678   9.703  0.0366 -0.0355  0.2265
 3978W        W 8178   0.071   3.799  12.901  0.0053  0.0941 -0.1791
 3979W        W 8179   3.517   6.632   9.200  0.1588 -0.2574 -0.0496
 3980W        W 8180   1.812   5.020  12.821 -0.2065 -0.1586  0.2357
 3981W        W 8181   1.923   8.379  10.037  0.0828 -0.1954  0.1020
 3982W        W 8182   7.719   2.838   3.450  0.1542  0.0167  0.3475
 3983W        W 8183   9.459   3.036   1.743  0.0844  0.0533  0.0614
 3984W        W 8184   3.747   6.638  10.532 -0.0628  0.4140 -0.0167
 3985W        W 8185   2.330   8.270  10.959  0.2993 -0.1184  0.0353
 3986W        W 8186   0.055   8.949   0.451 -0.1938 -0.1160 -0.1222
 3987W        W 8187   2.826   4.464  12.096  0.2367  0.1744 -0.1203
 3988W        W 8188   3.564   8.401   4.216 -0.2895  0.0489 -0.0498
 3989W        W 8189   4.263   1.807   2.721  0.1926 -0.1083 -0.0574
 3990W        W 8190   3.063   5.588  13.096  0.1183 -0.0025  0.0432
 3991W        W 8191   3.052   7.750   0.787 -0.0123 -0.3013 -0.2970
 3992W        W 8192   0.934   0.649   2.874  0.1775  0.2290 -0.0444
 3993W        W 8193   9.592   6.573   3.377 -0.0503 -0.0251 -0.4907
 3994W        W 8194   2.505   2.779  10.580 -0.3643  0.2288 -0.2443
 3995W        W 8195   8.775   6.934   9.454  0.0691  0.1068 -0.0473
 3996W        W 8196   5.513   3.805   8.847  0.1138 -0.0107 -0.1497
 3997W        W 8197   7.370   9.178   2.885 -0.1278  0.1524  0.1166
 3998W        W 8198   3.085   1.022  11.618  0.0979 -0.1891 -0.0333
 3999W        W 8199   8.062   8.147   1.526  0.0186  0.2040 -0.4470
 4000W        W 8200   1.999   8.427   1.373  0.2351 -0.0492  0.1922
 4001W        W 8201   2.403   4.548   0.126 -0.0634 -0.0864 -0.0678
 4002W        W 8202   8.162   0.292   2.486  0.0862  0.2886  0.0143
 4003W        W 8203   6.861   5.723   1.441  0.4097 -0.3345  0.2088
 4004W        W 8204   4.701  10.026   0.050 -0.0801  0.0239  0.2322
 4005W        W 8205   5.522   0.584   2.939  0.0095 -0.1443  0.0931
 4006W        W 8206   1.689   4.971  11.050 -0.1053 -0.0795 -0.3946
 4007W        W 8207   5.655   5.616  12.644  0.4995  0.1749 -0.0003
 4008W        W 8208   9.888   6.763   0.846 -0.0103 -0.1264  0.2215
 4009W        W 8209   8.440   6.876  11.811 -0.3099 -0.2123  0.1221
 4010W        W 8210   7.863   2.601   0.669 -0.1113  0.2172  0.0451
 4011W        W 8211   3.213   9.736  12.915  0.0686  0.1711  0.2054
 4012W        W 8212  10.363   9.095   1.459 -0.0817  0.1635  0.2031
 4013W        W 8213   4.628   6.535  12.206  0.1093  0.2001  0.2809
 4014W        W 8214   7.132   2.547   2.862  0.0845 -0.2718  0.1054
 4015W        W 8215   4.238   8.469   1.075 -0.0034 -0.0750  0.1143
 4016W        W 8216   5.175   5.966   1.120  0.1221  0.4384 -0.2593
 4017W        W 8217   8.572   0.002  10.845  0.1103 -0.1634 -0.2018
 4018W        W 8218  10.322   1.210  10.392  0.1072  0.0008  0.0851
 4019W        W 8219   5.839   2.242   2.556 -0.0068  0.3376 -0.2681
 4020W        W 8220   6.174   4.630   1.065  0.3154  0.0261  0.0884
 4021W        W 8221   9.287   6.761  12.809 -0.1362  0.1142 -0.0925
 4022W        W 8222   6.470   0.521   0.330 -0.0447 -0.1811 -0.2654
 4023W        W 8223   0.554   0.527  10.086  0.0947  0.2096  0.2812
 4024W        W 8224   8.359  10.417  11.475  0.1960  0.0233 -0.2210
 4025W        W 8225  10.427   9.416   2.211  0.1591 -0.0574 -0.0832
 4026W        W 8226  10.292   4.548   4.100  0.1000 -0.3262  0.1601
 4027W        W 8227   1.291   3.148   9.385  0.4229 -0.1091 -0.3631
 4028W        W 8228   0.921   3.593   0.256 -0.1214  0.0652 -0.1649
 4029W        W 8229   9.012  10.462   3.077 -0.1418 -0.3615 -0.0321
 4030W        W 8230   3.591  10.204   0.782 -0.0897 -0.1216 -0.2046
 4031W        W 8231   1.360   1.259  12.033  0.3105 -0.1867 -0.0888
 4032W        W 8232   8.803   0.122   9.545 -0.1307  0.1973  0.1153
 4033W        W 8233   5.379   2.469  10.344 -0.3294  0.2943 -0.0366
 4034W        W 8234   6.537   1.953   4.647  0.1773 -0.0568 -0.0888
 4035W        W 8235   5.667   0.550   2.102  0.0138 -0.2117 -0.1463
 4036W        W 8236   2.907   4.511   3.033  0.1750 -0.0014  0.0300
 4037W        W 8237   4.073   3.630   4.481  0.1890  0.1235  0.0631
 4038W        W 8238   2.998   3.155   3.944 -0.0486 -0.2646  0.1364
 4039W        W 8239   0.349   5.942   2.351 -0.1249 -0.2372 -0.0239
 4040W        W 8240   0.893   0.831   9.482  0.0374 -0.1369  0.1708
 4041W        W 8241   0.285   4.894  12.725  0.4070 -0.1137  0.0471
 4042W        W 8242   4.689   2.920  11.599 -0.2810 -0.0837 -0.1710
 4043W        W 8243   0.471   1.950   4.820 -0.1105 -0.0577 -0.2897
 4044W        W 8244   3.680   4.778   4.346 -0.2567  0.0277 -0.0124
 4045W        W 8245   6.213   1.135   4.082  0.0801  0.0810 -0.1745
 4046W        W 8246   0.829   5.839  13.121  0.0870  0.1489 -0.0496
 4047W        W 8247   6.235   5.514  11.398  0.1091 -0.3332 -0.2733
 4048W        W 8248   9.105   4.743  11.366 -0.3144 -0.0853  0.1604
 4049W        W 8249   0.349   1.158   3.197 -0.3217 -0.0243  0.0047
 4050W        W 8250   5.751   6.776   2.829 -0.1759  0.4183 -0.1095
 4051W        W 8251   6.432   1.436   4.464 -0.1276  0.1471  0.0700
 4052W        W 8252   6.030   6.063   2.819 -0.0784 -0.3303 -0.0135
 4053W        W 8253   4.019   2.697  12.335  0.0847  0.2169 -0.0488
 4054W        W 8254   0.499   6.644   3.569 -0.1304 -0.1134  0.0189
 4055W        W 8255   7.050   1.221  12.401  0.1744 -0.0264 -0.3647
 4056W        W 8256   0.766   3.247   0.726  0.1363 -0.0440 -0.1270
 4057W        W 8257   5.754   2.687   3.265  0.0942 -0.0921  0.0152
 4058W        W 8258   7.993   4.683  10.494 -0.1151 -0.2933 -0.0662
 4059W        W 8259   1.272   2.845   3.830  0.0009  0.1674  0.0416
 4060W        W 8260  10.054   9.924   0.430  0.2301  0.1444  0.1203
 4061W        W 8261   9.909   4.951  13.074  0.0103 -0.2263 -0.0055
 4062W        W 8262   0.708   4.369  13.284  0.1240  0.0506  0.1311
 4063W        W 8263   5.486   1.299   3.974 -0.1655  0.0909  0.3172
 4064W        W 8264   9.085   1.350   4.009  0.0129  0.1039  0.3236
 4065W        W 8265   5.656   9.314   8.482  0.0096 -0.3368 -0.1606
 4066W        W 8266   9.799   9.834   1.762 -0.2929  0.0339 -0.0668
 4067W        W 8267   8.368   2.656   0.847 -0.0772  0.2657 -0.0269
 4068W        W 8268  10.132   3.440  12.834  0.1807  0.1684 -0.3167
 4069W        W 8269   9.315   7.351   1.791  0.0840  0.1654 -0.1309
 4070W        W 8270   7.455   4.093   1.640 -0.0180 -0.1102  0.0332
 4071W        W 8271   6.564   8.935   0.320  0.2518 -0.0189 -0.1697
 4072W        W 8272   9.746   0.922   1.451 -0.0795  0.0081  0.1100
 4073W        W 8273   4.341   2.341   9.799  0.3151  0.0233  0.0734
 4074W        W 8274   6.999   3.608   8.918  0.2817  0.0260 -0.0579
 4075W        W 8275   2.046   2.670   1.598  0.0953 -0.1925 -0.0488
 4076W        W 8276   8.214   4.035   1.010 -0.1054  0.1808  0.0399
 4077W        W 8277   3.918   2.186  13.131 -0.0352 -0.1484 -0.0972
 4078W        W 8278   8.166   9.370   0.900 -0.3305  0.1104  0.0365
 4079W        W 8279   6.796   5.452  13.241  0.0199  0.1007  0.1437
 4080W        W 8280   5.401   5.463   9.363  0.0579 -0.0728  0.1179
 4081W        W 8281   2.726   9.344   9.499 -0.3060  0.0333  0.1216
 4082W        W 8282   7.686   7.529   2.765 -0.1132 -0.0132 -0.1743
 4083W        W 8283   6.518   8.183   2.581 -0.0200  0.1557  0.0434
 4084W        W 8284   3.018   3.404   2.852 -0.0159  0.0660 -0.0601
 4085W        W 8285   6.506   4.732   3.563 -0.0118  0.2162 -0.1554
 4086W        W 8286   2.730   4.599  11.614 -0.3208 -0.1848 -0.1237
 4087W        W 8287   9.116   2.787  10.485  0.0076  0.1171  0.0138
 4088W        W 8288   9.506   7.731   1.553 -0.2520 -0.2813 -0.2182
 4089W        W 8289  10.444   5.861  11.606  0.0412  0.0470  0.2700
 4090W        W 8290   7.808   7.802   9.888  0.0694  0.0063 -0.2082
 4091W        W 8291   7.149   2.829   9.396  0.2263  0.0010 -0.2064
 4092W        W 8292   0.293   9.132  11.597  0.1611 -0.1423  0.1018
 4093W        W 8293   0.950   3.615  11.417 -0.2350  0.2173 -0.0048
 4094W        W 8294   1.773   6.615  12.579  0.1709 -0.3964  0.3529
 4095W        W 8295   4.572   0.026   1.444 -0.2360 -0.2415 -0.0525
 4096W        W 8296   9.751   6.756  12.445  0.0166 -0.0501 -0.0102
 4097W        W 8297   2.656   0.717   2.324 -0.1655  0.0291  0.0719
 4098W        W 8298   7.621   3.508  11.940 -0.1614  0.3122 -0.2452
 4099W        W 8299  10.358   9.521   1.208 -0.1912 -0.2549  0.2404
 4100W        W 8300   2.269   1.338   9.653 -0.1631 -0.1887 -0.1537
 4101W        W 8301   3.693   1.559   0.739  0.3010 -0.1031 -0.0890
 4102W        W 8302  10.023   2.788   0.093  0.0717  0.0003 -0.0950
 4103W        W 8303   7.126   5.163  10.506 -0.1557  0.2589 -0.0277
 4104W        W 8304   7.079  10.154   0.533  0.1219  0.1724  0.0414
 4105W        W 8305   1.477  10.108   0.864 -0.2620 -0.1606 -0.2262
 4106W        W 8306   9.064   9.134   4.245 -0.1141 -0.1842  0.1299
 4107W        W 8307   7.926   2.004   3.252 -0.0640 -0.0065  0.2363
 4108W        W 8308   1.743   5.686  10.726  0.4240  0.1739  0.4705
 4109W        W 8309   2.234   3.595  12.977  0.1875  0.0135  0.0898
 4110W        W 8310   4.164   6.973   1.014  0.2092  0.3396 -0.2970
 4111W        W 8311   4.673   2.404   1.412 -0.1623  0.2635 -0.4526
 4112W        W 8312   6.997   5.081   0.200  0.1429 -0.0449 -0.1378
 4113W        W 8313   9.215  10.318   0.423  0.0479 -0.0141 -0.2159
 4114W        W 8314  10.293   8.153   1.940  0.0052  0.0487  0.0675
 4115W        W 8315   3.866   3.127   8.938 -0.0148 -0.0616  0.0028
 4116W        W 8316   2.209   3.066   9.092 -0.0373  0.1487  0.0982
 4117W        W 8317   1.927  10.434   9.671  0.2248 -0.0395 -0.0700
 4118W        W 8318   1.960  10.189  12.961 -0.1778 -0.1513 -0.0889
 4119W        W 8319   7.088   1.980   4.809 -0.1746  0.2374  0.0296
 4120W        W 8320   5.234   2.951   3.591  0.0267 -0.2720 -0.0795
 4121W        W 8321   8.007   3.513  13.333  0.3569  0.0790  0.0313
 4122W        W 8322   7.241   7.875   5.155  0.1516  0.3266 -0.0921
 4123W        W 8323   2.205   0.303   3.134  0.3093  0.4223 -0.2332
 4124W        W 8324   1.443   1.785   9.986 -0.1764  0.3851 -0.0165
 4125W        W 8325   2.659   4.497  12.596  0.1453  0.0883 -0.2891
 4126W        W 8326   8.103  10.149   3.881 -0.1751 -0.0352 -0.2381
 4127W        W 8327   6.689   4.974   4.807 -0.0531  0.1160  0.0297
 4128W        W 8328   0.662   4.833  11.708  0.1510  0.2998 -0.0843
 4129W        W 8329   4.505   9.674  11.429 -0.2286 -0.0304 -0.3463
 4130W        W 8330   7.307   0.434   2.272  0.1232  0.4160  0.2351
 4131W        W 8331   6.661   3.491   1.393 -0.1561  0.2284 -0.0883
 4132W        W 8332   9.350   9.717   9.841 -0.0780 -0.2269  0.3876
 4133W        W 8333   0.577   7.626   1.776  0.0107  0.1616 -0.1361
 4134W        W 8334   6.113   8.014   8.544  0.2319 -0.2908 -0.1985
 4135W        W 8335   5.956   2.536   0.462  0.1867  0.0833 -0.2661
 4136W        W 8336   8.856   8.830   1.150  0.2528 -0.0597 -0.0455
 4137W        W 8337   8.397   8.864   1.001 -0.0031  0.0809  0.0324
 4138W        W 8338   0.000   3.497  11.575  0.0115 -0.0298 -0.1821
 4139W        W 8339   5.742   7.411   3.508 -0.0562  0.0075 -0.0429
 4140W        W 8340   3.092   4.659   3.473 -0.2388 -0.0388 -0.0625
 4141W        W 8341   4.370   4.907   0.449  0.0479  0.0263 -0.0397
 4142W        W 8342   1.349   0.466   2.595  0.1330  0.1686  0.3011
 4143W        W 8343   6.047   7.341  12.516 -0.2313  0.4416 -0.0573
 4144W        W 8344   9.372   8.295  11.319 -0.1556  0.5170  0.1056
 4145W        W 8345   2.118   2.666   9.853 -0.4574  0.1907  0.3450
 4146W        W 8346   5.072   7.437  11.228 -0.1257  0.5258 -0.0743
 4147W        W 8347   7.757   2.326   5.562  0.1421 -0.2079 -0.1917
 4148W        W 8348   8.266   2.042  12.488  0.1268 -0.3279  0.3392
 4149W        W 8349   7.260   2.993   3.190  0.0123 -0.3345 -0.1934
 4150W        W 8350   5.737   1.915  11.423 -0.0957  0.0625 -0.0707
 4151W        W 8351   6.761   3.228  11.442 -0.0208 -0.1727  0.3311
 4152W        W 8352   7.950   6.537   0.734 -0.0326  0.1086 -0.2511
 4153W        W 8353   2.550   4.367  10.215  0.0440  0.1482 -0.1958
 4154W        W 8354   5.457   0.037  13.209  0.0545 -0.0044  0.1143
 4155W        W 8355   2.940   5.042   2.915  0.0988  0.1860  0.2751
 4156W        W 8356   5.491   8.826  13.035 -0.0748 -0.1061 -0.0836
 4157W        W 8357   6.507   0.510   1.745  0.0898 -0.1954 -0.1055
 4158W        W 8358   7.350   2.486   3.390  0.0236  0.1303 -0.0157
 4159W        W 8359   6.168   4.450  13.002 -0.0581 -0.0004  0.4084
 4160W        W 8360   5.419   4.690  10.416  0.1561  0.0945  0.1453
 4161W        W 8361   2.973   8.869   1.254  0.2416  0.2840  0.0840
 4162W        W 8362   9.420   1.974  13.164  0.0576  0.1669  0.1905
 4163W        W 8363   2.270   7.134  13.001 -0.1327  0.2847  0.2652
 4164W        W 8364   0.535   5.204  12.426  0.1506  0.2179 -0.3323
 4165W        W 8365   0.349   0.010  11.316  0.1650  0.3011 -0.3727
 4166W        W 8366   3.341   9.845   0.542 -0.1785 -0.1104 -0.1118
 4167W        W 8367   2.478   1.282   2.681  0.0220 -0.2242  0.1091
 4168W        W 8368   9.377   2.605   2.794 -0.1660 -0.0593  0.2060
 4169W        W 8369   7.063   9.962   1.026 -0.2059 -0.0333  0.0906
 4170W        W 8370   7.835   7.372   2.232  0.0360 -0.0756  0.1100
 4171W        W 8371   8.906   8.191   0.043  0.2831  0.0110 -0.0982
 4172W        W 8372   7.984   8.489   2.745 -0.1633  0.0144 -0.0075
 4173W        W 8373   3.864   9.049   2.355 -0.2845  0.0836  0.1469
 4174W        W 8374   8.474   6.265  12.219 -0.1627  0.0847  0.2264
 4175W        W 8375   2.202   4.495   4.173 -0.2845 -0.3944 -0.2636
 4176W        W 8376  10.467   2.771  13.194 -0.0342 -0.0476 -0.2274
 4177W        W 8377   2.284  10.400   4.042 -0.1074  0.0444 -0.2061
 4178W        W 8378   9.439   1.167   0.318 -0.1077  0.4361  0.3584
 4179W        W 8379  10.411   4.577  11.201 -0.1600 -0.0409 -0.2662
 4180W        W 8380   6.514   3.880   1.695  0.2210 -0.0320 -0.4011
 4181W        W 8381   5.589  10.118  12.265 -0.2260 -0.0801 -0.0833
 4182W        W 8382   1.568   2.369   4.033 -0.0604  0.4415  0.1594
 4183W        W 8383   6.814   7.257   1.288 -0.1054 -0.0897 -0.0802
 4184W        W 8384   9.516   5.718   9.148  0.1537 -0.1818 -0.0391
 4185W        W 8385   8.618   8.950  10.741  0.1968  0.0971 -0.1862
 4186W        W 8386   7.497   8.543   2.872  0.3533 -0.2355  0.0425
 4187W        W 8387   2.896   1.300  11.034 -0.1627  0.3996  0.0097
 4188W        W 8388   3.603   2.718  10.302  0.0317 -0.3005  0.2562
 4189W        W 8389   0.171   7.354  12.198 -0.0812 -0.2179  0.2373
 4190W        W 8390   8.584   9.228   2.799  0.2789 -0.2656  0.0083
 4191W        W 8391   8.421   5.054   2.598 -0.1329 -0.3782 -0.0586
 4192W        W 8392   8.628   3.130   0.650  0.0404  0.1700 -0.3383
 4193W        W 8393   8.787   3.778   4.686 -0.0044 -0.1013 -0.1995
 4194W        W 8394   6.724   7.590   0.864 -0.0175 -0.1867  0.0439
 4195W        W 8395   5.879  10.331   1.807  0.0003 -0.3338 -0.0603
 4196W        W 8396   4.793   7.256   9.419  0.0857  0.1442  0.1194
 4197W        W 8397   4.617   0.767   4.270 -0.3783  0.1176  0.1140
 4198W        W 8398   0.341   9.546  13.087  0.1847  0.0367 -0.2263
 4199W        W 8399   8.374   3.584  12.501  0.1623 -0.1758  0.2208
 4200W        W 8400   9.319   2.283   9.940 -0.0821  0.1578  0.0053
 4201W        W 8401  10.282   3.812  12.433 -0.1612  0.1747 -0.0172
 4202W        W 8402   7.133   3.821  13.086 -0.1924  0.1668 -0.1731
 4203W        W 8403   5.932   2.821   4.118  0.0914 -0.2471 -0.2028
 4204W        W 8404   2.439   6.589   2.495 -0.0089  0.3130  0.0555
 4205W        W 8405   9.414   1.916  12.348 -0.0913 -0.0506  0.1834
 4206W        W 8406   9.987   0.673  11.633  0.1735 -0.1968 -0.2112
 4207W        W 8407   4.538   6.296  11.792  0.3002 -0.1009  0.1782
 4208W        W 8408  10.188   4.197  11.569 -0.2153  0.1908  0.2231
 4209W        W 8409   0.570   4.913   3.418 -0.3948 -0.0047 -0.1405
 4210W        W 8410   8.130   4.515   2.724  0.1513  0.0674 -0.4065
 4211W        W 8411   0.027   8.181  12.503  0.2310  0.1615 -0.1568
 4212W        W 8412   5.375   9.437   4.977  0.0012  0.4812  0.1353
 4213W        W 8413   9.705   5.229   9.167 -0.2366 -0.3026 -0.0500
 4214W        W 8414   5.199   0.261  11.443  0.1927 -0.0129 -0.2238
 4215W        W 8415   0.375   6.741  12.549 -0.0972 -0.0578  0.0871
 4216W        W 8416   6.431   5.254   0.132  0.1959 -0.2289  0.1776
 4217W        W 8417   5.666   0.057  11.618  0.0144  0.0104 -0.1767
 4218W        W 8418   6.259  10.026  10.434  0.2714  0.0773  0.0929
 4219W        W 8419   6.818   4.412   8.456 -0.2216 -0.0750 -0.0052
 4220W        W 8420   5.106   5.005  10.630  0.0831  0.2167  0.1042
 4221W        W 8421   9.128   5.124   0.870 -0.2140 -0.2909 -0.3974
 4222W        W 8422   5.556   5.931  12.194 -0.4081 -0.0233 -0.0581
 4223W        W 8423   0.591   7.191   2.012 -0.1680 -0.0750 -0.3785
 4224W        W 8424   8.150   4.191  11.404 -0.4519 -0.0196  0.1068
 4225W        W 8425   6.722   0.589   0.801  0.0105 -0.2615  0.2276
 4226W        W 8426   4.199   1.632   4.002 -0.2236  0.2190 -0.0075
 4227W        W 8427   3.603   0.393   2.074 -0.2377  0.2375 -0.1527
 4228W        W 8428   2.379   8.452   2.381 -0.0370  0.0474 -0.0247
 4229W        W 8429   2.939   9.146   2.239 -0.0364 -0.2043 -0.0893
 4230W        W 8430   4.158  10.185   2.192 -0.1160 -0.0184 -0.1194
 4231W        W 8431   7.229   3.040  12.922  0.0298  0.2482 -0.1578
 4232W        W 8432   3.845   9.563   3.762  0.1646 -0.2394  0.0259
 4233W        W 8433   2.021   9.650   2.705 -0.1406  0.0241  0.2463
 4234W        W 8434   5.520   2.707   2.170 -0.1178  0.2424  0.1091
 4235W        W 8435   6.808   4.957  10.917 -0.0539  0.1545  0.1499
 4236W        W 8436   8.006   0.298  11.675  0.2203 -0.1098  0.0234
 4237W        W 8437  10.028   6.720   1.666 -0.1096 -0.4886 -0.1359
 4238W        W 8438   7.293   4.176   0.195  0.2172  0.2183  0.3059
 4239W        W 8439   3.030   0.663  13.355 -0.1471  0.0465 -0.1818
 4240W        W 8440   4.011   1.137  11.788  0.0509  0.1451  0.2634
 4241W        W 8441   5.003   3.607   4.521  0.3382 -0.1079 -0.1640
 4242W        W 8442   2.423   0.036   1.439 -0.1247 -0.1798 -0.6371
 4243W        W 8443   0.520   7.916  12.748 -0.2411 -0.0634 -0.0736
 4244W        W 8444   2.647   1.906  11.756 -0.0506  0.1110 -0.1514
 4245W        W 8445   5.096   6.543   1.044  0.2258 -0.0587  0.1218
 4246W        W 8446   4.925   0.526   5.181 -0.0778  0.0776 -0.1786
 4247W        W 8447   0.985  10.340   9.817 -0.3115  0.2057  0.3072
 4248W        W 8448   0.306   4.808  12.103 -0.0974  0.1172 -0.3072
 4249W        W 8449   8.347   5.004   3.714  0.4476 -0.0294  0.1767
 4250W        W 8450   1.657   0.356   3.064  0.0893 -0.0177  0.1061
 4251W        W 8451   5.692   4.236  13.005  0.1047  0.2538  0.2189
 4252W        W 8452   5.622   0.866   0.298  0.1193 -0.1417  0.1034
 4253W        W 8453   2.643   4.704   0.970 -0.3747  0.0979  0.1928
 4254W        W 8454   4.466   6.043  10.111  0.1213  0.0410  0.5492
 4255W        W 8455   1.304   3.254   0.230 -0.1098  0.0544  0.1084
 4256W        W 8456   2.498   0.956  13.244 -0.0373  0.1299 -0.2468
 4257W        W 8457   4.286   3.744   2.031  0.0674  0.0187  0.4042
 4258W        W 8458   4.471   0.090   2.186 -0.2967 -0.3593  0.2077
 4259W        W 8459   5.145   9.777   0.008 -0.1349  0.1046 -0.0372
 4260W        W 8460   2.988   4.455   3.954 -0.2262  0.2526 -0.2963
 4261W        W 8461   2.385   5.264   4.694 -0.1817 -0.0174 -0.2818
 4262W        W 8462   0.555   5.658   9.223 -0.4404  0.1819 -0.1859
 4263W        W 8463   8.811   9.694  11.108 -0.0572 -0.1298  0.0857
 4264W        W 8464   8.823   6.083   9.737 -0.0220 -0.1392 -0.2129
 4265W        W 8465   1.226   1.636   9.559 -0.0779 -0.2924 -0.1153
 4266W        W 8466   4.394   3.673   3.102  0.0575  0.0970  0.0041
 4267W        W 8467   2.352   4.655   2.231 -0.2863 -0.3275 -0.3375
 4268W        W 8468   6.262   0.034   0.362 -0.0607  0.1559 -0.0132
 4269W        W 8469   6.548   0.075   2.077 -0.0444 -0.1201 -0.0385
 4270W        W 8470   6.888   5.220   2.102 -0.3174 -0.0070  0.0048
 4271W        W 8471   4.944   5.172  11.084 -0.2836  0.2980 -0.0533
 4272W        W 8472   2.002   7.708  12.995 -0.1616 -0.2629 -0.1245
 4273W        W 8473   1.346   0.365  12.397 -0.0480 -0.3195  0.1917
 4274W        W 8474   6.814   7.237  10.672 -0.0284  0.0288  0.2348
 4275W        W 8475   3.799   0.174  10.561  0.0596 -0.1622  0.2694
 4276W        W 8476   7.084   3.508   2.936 -0.1303 -0.0026 -0.2104
 4277W        W 8477   7.781   0.830   3.444 -0.0058  0.1326 -0.1229
 4278W        W 8478   7.004   8.049  11.094  0.0491  0.1394  0.2358
 4279W        W 8479   2.870   2.388  10.923  0.2105  0.0548  0.0399
 4280W        W 8480   8.249   4.854   1.614 -0.0215  0.2377 -0.0352
 4281W        W 8481   6.489   2.703   2.642 -0.0163  0.1982 -0.1214
 4282W        W 8482   1.298   6.198   1.392  0.1812  0.0452  0.0069
 4283W        W 8483   5.591   5.466   9.900 -0.0198 -0.5044  0.0976
 4284W        W 8484   7.836  10.193   2.181 -0.1152  0.1300  0.1313
 4285W        W 8485   9.487   9.108  11.865 -0.1669 -0.2051  0.2441
 4286W        W 8486   1.266   1.925   3.359 -0.1658  0.0322 -0.4208
 4287W        W 8487   4.496   3.022   0.624 -0.1655  0.0089  0.1765
 4288W        W 8488   9.577   6.730   1.493  0.0692 -0.4257 -0.2386
 4289W        W 8489   9.688   1.835   9.838 -0.2115  0.0082  0.0066
 4290W        W 8490   6.891   2.994   5.273  0.0223  0.0761 -0.2615
 4291W        W 8491   2.269  10.039   9.988 -0.0679  0.0400 -0.2874
 4292W        W 8492   9.199   5.636   1.537  0.2652  0.0787 -0.2259
 4293W        W 8493   8.535  10.415   2.212  0.0537 -0.0031 -0.0107
 4294W        W 8494   7.288  10.231  10.137  0.3083 -0.1137  0.0318
 4295W        W 8495   6.932   6.755   5.309  0.3344 -0.0727  0.1240
 4296W        W 8496   6.361   0.422  13.237 -0.1327 -0.0905  0.0189
 4297W        W 8497   2.549   6.170   3.034  0.1671 -0.0769  0.0209
 4298W        W 8498   9.777   4.359   1.591 -0.0987  0.2824  0.0571
 4299W        W 8499   0.490   6.387   2.540 -0.1645  0.2909  0.4421
 4300W        W 8500   7.732   9.439  10.475 -0.1240 -0.1859  0.2410
 4301W        W 8501   5.597   7.508  11.140 -0.2748  0.0709 -0.3374
 4302W        W 8502   5.570   9.424   3.663  0.1144  0.0399 -0.2180
 4303W        W 8503   1.087   1.953  10.265 -0.0535  0.0023  0.5078
 4304W        W 8504   3.680   3.295  13.128 -0.3341 -0.0616 -0.2666
 4305W        W 8505   8.909   5.153  10.553 -0.2486  0.3232  0.0449
 4306W        W 8506   9.713   1.023   3.347 -0.0717 -0.0994  0.0317
 4307W        W 8507   0.437   4.425   3.910 -0.2350  0.0014  0.3487
 4308W        W 8508   6.416   3.503  10.622 -0.2618  0.0044 -0.1136
 4309W        W 8509   7.921   2.493   1.711 -0.2472 -0.2053 -0.0355
 4310W        W 8510   5.744   7.061  12.819  0.0554  0.1562 -0.1018
 4311W        W 8511   8.541   5.394  12.704 -0.4053 -0.0158 -0.0721
 4312W        W 8512  10.103   1.325  12.856  0.2573  0.0108 -0.0386
 4313W        W 8513   6.791   8.036  13.181 -0.1554 -0.0733  0.0666
 4314W        W 8514   6.250   7.308   3.187 -0.3469  0.0414  0.0933
 4315W        W 8515   9.512   7.968  10.369 -0.0942  0.0049  0.0835
 4316W        W 8516   5.814   6.433   5.191 -0.1970 -0.1321 -0.1056
 4317W        W 8517   6.253   7.430  10.561 -0.0076  0.1417  0.0854
 4318W        W 8518   5.724   6.651   2.140 -0.2010  0.0685 -0.1670
 4319W        W 8519   6.834   9.333   4.204  0.1478 -0.0643 -0.0588
 4320W        W 8520   3.769   8.978   0.269 -0.0179  0.1021 -0.0410
 4321W        W 8521   8.258   1.996   9.270  0.0486  0.0423  0.0299
 4322W        W 8522   4.762   8.584   1.187 -0.2036 -0.1643 -0.0637
 4323W        W 8523   3.259   8.354  12.005 -0.0172  0.1629 -0.1793
 4324W        W 8524   8.698   1.427   3.341  0.3001 -0.0360  0.0470
 4325W        W 8525   0.937   6.072   3.993 -0.0543  0.0572  0.1690
 4326W        W 8526   3.560   4.018  11.474  0.1496 -0.0470  0.1763
 4327W        W 8527   9.860   6.922   3.884  0.2160 -0.4686 -0.0498
 4328W        W 8528   6.977   8.852   4.485  0.2943 -0.1895  0.3002
 4329W        W 8529   7.335   9.848  12.757  0.1697  0.0445  0.0136
 4330W        W 8530   4.919   3.158   2.222  0.0611  0.0883 -0.0506
 4331W        W 8531   4.163   4.726   3.016 -0.3148  0.1091 -0.0184
 4332W        W 8532   0.838   7.760   0.416 -0.2418 -0.3693 -0.1521
 4333W        W 8533   8.036   1.017  12.798 -0.0851 -0.2350  0.1200
 4334W        W 8534   1.463   8.453   0.866  0.1303 -0.1924  0.1083
 4335W        W 8535   3.628   7.567  13.229  0.0888 -0.3115  0.2520
 4336W        W 8536   1.527   8.267   1.342  0.0719  0.0615 -0.1735
 4337W        W 8537  10.247  10.438   0.295 -0.0307 -0.0714 -0.1098
 4338W        W 8538   1.009  10.022   0.706  0.1280 -0.0228 -0.0245
 4339W        W 8539   5.748   8.074   5.187 -0.0307  0.0690 -0.0160
 4340W        W 8540   3.595   8.522   3.746 -0.2979 -0.2339  0.1395
 4341W        W 8541   4.646   6.216   0.234 -0.0960  0.1836  0.1525
 4342W        W 8542   9.657   0.825   1.904  0.0729 -0.3003 -0.5749
 4343W        W 8543   5.881   9.118  10.194  0.2808 -0.1349 -0.4333
 4344W        W 8544   4.076  10.344   5.283 -0.3325  0.2842  0.0968
 4345W        W 8545   3.067   0.672  12.009 -0.0740 -0.2547 -0.0046
 4346W        W 8546   8.784   8.787   9.884 -0.0258 -0.0992 -0.3250
 4347W        W 8547   4.035   0.420   1.574  0.0184 -0.2581  0.1349
 4348W        W 8548   9.994   6.406  10.918  0.0048  0.2769 -0.0523
 4349W        W 8549   0.552   3.207   4.878 -0.0615 -0.2161  0.3158
 4350W        W 8550   5.782   8.499   1.395 -0.1347 -0.0268  0.1941
 4351W        W 8551   5.106   8.265   2.552  0.0983  0.3868  0.2774
 4352W        W 8552   2.554   0.391   2.816  0.1065  0.0027  0.0020
 4353W        W 8553   9.945   3.301   0.523 -0.1422  0.3271  0.1131
 4354W        W 8554   5.765   9.313   4.632  0.0126  0.0834 -0.3614
 4355W        W 8555   7.748   2.524   4.411 -0.3037  0.1263 -0.1982
 4356W        W 8556   2.790   7.337  11.039 -0.0108  0.1724  0.1545
 4357W        W 8557   0.328   4.696   9.676  0.0607  0.0779 -0.0485
 4358W        W 8558   6.469   0.219   3.749 -0.2455  0.1359  0.0968
 4359W        W 8559  10.201   1.775   0.312 -0.0200  0.1518  0.2853
 4360W        W 8560   7.742   7.941  12.868 -0.0058 -0.4263 -0.0605
 4361W        W 8561   3.459   7.535  12.753 -0.3442  0.3668 -0.0072
 4362W        W 8562   1.529   2.378  13.309 -0.2044 -0.4027  0.1509
 4363W        W 8563   3.596   8.511   0.269  0.1868 -0.0137  0.0272
 4364W        W 8564   6.881   1.915   9.129  0.2314  0.3485 -0.1003
 4365W        W 8565   8.613   5.236   8.980  0.0990 -0.2831 -0.0092
 4366W        W 8566   9.006   6.290  12.293  0.0551 -0.0738 -0.1441
 4367W        W 8567   2.565   7.899   0.668 -0.0014 -0.0583  0.0056
 4368W        W 8568   4.167   8.035   9.385 -0.2366  0.1758 -0.0997
 4369W        W 8569   1.899   1.050   1.842  0.1454  0.1183  0.0258
 4370W        W 8570   1.825   0.917  12.116  0.2564  0.2438  0.1579
 4371W        W 8571   4.036   9.638  11.645 -0.1418  0.2485  0.1237
 4372W        W 8572   7.891   8.465   3.263  0.0022 -0.1297 -0.0403
 4373W        W 8573   5.572   2.264   0.560  0.2879  0.0957 -0.3752
 4374W        W 8574  10.309   7.063  12.359  0.0663  0.0802 -0.1774
 4375W        W 8575   2.640   9.958  10.331  0.0070 -0.0018  0.0246
 4376W        W 8576   7.036   4.107   4.461  0.0090  0.0081  0.3184
 4377W        W 8577   1.899   2.101  13.347  0.1986  0.3626 -0.1554
 4378W        W 8578   4.572   0.526   1.242  0.0402  0.1975 -0.1982
 4379W        W 8579   1.416   4.690   9.283  0.0836 -0.1391  0.3093
 4380W        W 8580   4.170   2.122   3.999  0.1236  0.1438 -0.3607
 4381W        W 8581   7.805   8.449   8.948  0.0693  0.1301 -0.1200
 4382W        W 8582   4.418   6.945   8.744  0.0954 -0.1884  0.0064
 4383W        W 8583   3.770   6.028  13.264 -0.0008  0.2250 -0.2428
 4384W        W 8584  10.479   6.361  11.810  0.2722 -0.0849 -0.0280
 4385W        W 8585   6.076   8.900   4.855  0.0033  0.0313 -0.1697
 4386W        W 8586   2.985   7.637   2.704  0.0751  0.1663 -0.0142
 4387W        W 8587   6.306   8.279   3.457  0.0451 -0.0379  0.1148
 4388W        W 8588   1.346   9.009   0.084 -0.1974  0.2726  0.0293
 4389W        W 8589   4.808   5.798   0.546  0.0652 -0.2822 -0.0830
 4390W        W 8590   0.288   7.444   0.652  0.3473  0.1005 -0.1792
 4391W        W 8591   7.624   5.204  12.797 -0.1032 -0.0561 -0.4200
 4392W        W 8592   3.765   3.403   3.511  0.1676 -0.1549 -0.0430
 4393W        W 8593   5.686   7.217   2.072 -0.1125  0.2349 -0.0812
 4394W        W 8594   0.906   9.446   3.467  0.1312  0.0873 -0.3628
 4395W        W 8595   2.687   8.589   1.970  0.0561 -0.1732  0.1950
 4396W        W 8596   7.493   6.364   8.069  0.0590 -0.0071 -0.2412
 4397W        W 8597   5.346   5.732  11.788 -0.0737  0.3280  0.0537
 4398W        W 8598   3.947   3.610  10.572 -0.1253 -0.0337  0.0571
 4399W        W 8599   5.756   0.090  12.134 -0.1328 -0.0524 -0.2303
 4400W        W 8600   1.968   5.833   2.012 -0.2724  0.1597  0.0200
 4401W        W 8601   0.724   4.546   9.957 -0.0943 -0.2181 -0.3461
 4402W        W 8602   9.197   5.676  10.708 -0.3104  0.1739  0.2269
 4403W        W 8603   7.055   5.827   3.510 -0.0784  0.1587  0.0579
 4404W        W 8604   4.883   3.693   3.181 -0.1414  0.2553  0.1062
 4405W        W 8605   8.585   1.273  10.589 -0.3862 -0.4948  0.0273
 4406W        W 8606   4.590   9.750   8.905  0.0381  0.0628  0.0611
 4407W        W 8607   2.055   3.658  12.506  0.1932 -0.0859  0.1532
 4408W        W 8608   6.633   5.521  12.203  0.1477 -0.1986 -0.4859
 4409W        W 8609   9.122   1.839   2.825 -0.1039 -0.2558 -0.1179
 4410W        W 8610   4.882   5.836  10.966 -0.1859  0.0679  0.1523
 4411W        W 8611   5.334   0.314   5.021 -0.5149 -0.1655 -0.2437
 4412W        W 8612   9.078   6.915   1.521  0.0750 -0.1639  0.1484
 4413W        W 8613   9.733   6.354   1.915  0.2393 -0.3986  0.2045
 4414W        W 8614   2.006   9.885   0.752  0.1720  0.0459 -0.2239
 4415W        W 8615   1.796   0.699   2.738  0.1628  0.1634  0.0121
 4416W        W 8616   3.395   5.254   1.160  0.0273  0.0636  0.1482
 4417W        W 8617   1.799   0.538  11.634 -0.1456 -0.1621 -0.3659
 4418W        W 8618   9.355   8.325  13.085  0.0370  0.1999 -0.0703
 4419W        W 8619   8.800   1.492  12.449 -0.0396 -0.1847  0.0061
 4420W        W 8620   0.596   1.605   3.418  0.1243 -0.1449  0.2912
 4421W        W 8621   4.062   3.242  10.127 -0.3166 -0.1609  0.0360
 4422W        W 8622   1.984   1.755  10.970  0.1129 -0.0068  0.2710
 4423W        W 8623   7.275   8.002  10.563  0.1748 -0.1036  0.2220
 4424W        W 8624   8.060   2.449   3.117  0.2313  0.2028  0.0580
 4425W        W 8625   2.627   5.799  12.337 -0.0150  0.0264  0.0265
 4426W        W 8626   8.567   3.914  11.236  0.0587 -0.2756 -0.2832
 4427W        W 8627   7.565   6.107  10.859 -0.1566 -0.2016  0.0766
 4428W        W 8628   8.042   8.047  11.169 -0.1798  0.0039 -0.3725
 4429W        W 8629   1.067   4.664   8.145 -0.0411  0.2348 -0.3194
 4430W        W 8630   6.205   7.719  11.865  0.0294 -0.1914  0.0995
 4431W        W 8631   9.490   1.424   3.682 -0.3158  0.2262 -0.2802
 4432W        W 8632  10.514   1.878   9.381 -0.0405  0.0567  0.1832
 4433W        W 8633   8.020   4.817   0.747  0.4964 -0.3533  0.3417
 4434W        W 8634   6.151   9.649   9.266 -0.0145  0.1294 -0.2216
 4435W        W 8635   3.506   3.847  13.148  0.0388  0.2937  0.1283
 4436W        W 8636   2.260   4.533   8.807  0.1108  0.2380  0.4590
 4437W        W 8637   7.724   8.966   1.679 -0.1217  0.0443 -0.0998
 4438W        W 8638   3.617   0.783   4.182  0.0908  0.1399 -0.2895
 4439W        W 8639   5.556   1.092   8.559 -0.1577  0.1224 -0.1402
 4440W        W 8640   7.128   1.380   1.868 -0.0115 -0.1024  0.2836
 4441W        W 8641   7.744   2.302   4.946  0.0075  0.0623  0.2084
 4442W        W 8642   9.678   2.344   3.746  0.0973 -0.1305  0.0698
 4443W        W 8643   4.210   2.589   0.194  0.0931  0.0586 -0.3483
 4444W        W 8644   4.703   4.729  10.821 -0.1696  0.0110 -0.2676
 4445W        W 8645   8.693   9.154   1.541 -0.3511 -0.1566  0.2461
 4446W        W 8646   8.487   2.956  12.061  0.1138 -0.3478 -0.1131
 4447W        W 8647   6.843   0.190   1.509  0.2154 -0.2312 -0.4591
 4448W        W 8648   8.701   0.845  10.047 -0.0081  0.2896 -0.1775
 4449W        W 8649   1.200   4.891   1.119 -0.1305 -0.3850  0.1574
 4450W        W 8650   2.683   4.236   0.691 -0.1885 -0.0715 -0.0158
 4451W        W 8651   1.048   6.541   9.203 -0.1000 -0.0945  0.3888
 4452W        W 8652   8.388   0.725  13.001  0.2747 -0.1598 -0.1010
 4453W        W 8653   7.253   6.023   1.502 -0.3358  0.0439  0.4100
 4454W        W 8654   2.537   2.517   1.479  0.0616 -0.1738 -0.0857
 4455W        W 8655   0.979   7.483   2.060 -0.0263  0.1495 -0.3477
 4456W        W 8656   5.120   4.022   1.473  0.0782  0.3309  0.0954
 4457W        W 8657   5.790   8.789   0.712  0.1162 -0.2903 -0.0105
 4458W        W 8658   0.060   3.788   1.715  0.1412 -0.0633  0.2050
 4459W        W 8659   2.975   4.893  12.375  0.3257 -0.1892 -0.2406
 4460W        W 8660   6.332   3.203   2.768 -0.1629  0.1094 -0.1407
 4461W        W 8661   9.794   4.029   2.214 -0.1513  0.3249  0.0049
 4462W        W 8662   3.400   0.989   1.339  0.3337  0.1569  0.4538
 4463W        W 8663   7.157   0.462   1.013  0.4553  0.3353  0.3802
 4464W        W 8664   7.708   0.123   3.042  0.1214  0.0728 -0.4484
 4465W        W 8665   5.291   5.157  10.172 -0.2058  0.0694 -0.1448
 4466W        W 8666   6.315   6.398   1.479  0.1605  0.0349  0.0480
 4467W        W 8667   3.354   5.747   9.750  0.0893  0.0813 -0.0565
 4468W        W 8668   7.592   1.957   4.617 -0.0085 -0.1227  0.0431
 4469W        W 8669   3.343   1.444  11.988 -0.0686  0.1897 -0.1368
 4470W        W 8670  10.121   4.490  13.189 -0.2474 -0.2170  0.4324
 4471W        W 8671   5.845   7.264   3.972  0.2667 -0.3350 -0.0008
 4472W        W 8672   9.327   5.721  12.851 -0.1063  0.0996 -0.0204
 4473W        W 8673   9.843   4.877  10.413 -0.0813 -0.0070  0.0905
 4474W        W 8674   5.294   2.945  10.593  0.0387 -0.3138  0.4547
 4475W        W 8675   6.840   4.374   0.486 -0.1732  0.3366  0.2735
 4476W        W 8676   8.499   1.867   9.702 -0.0618  0.0516 -0.1316
 4477W        W 8677   1.588   2.433   9.041  0.0771  0.3113  0.1408
 4478W        W 8678   3.638   8.124  10.690  0.1824 -0.0170  0.0923
 4479W        W 8679   7.229   2.799   3.839 -0.2053  0.2213  0.1095
 4480W        W 8680   2.474   5.848   1.976  0.1957 -0.0492  0.0551
 4481W        W 8681   8.300   8.398   1.169 -0.3098 -0.1401 -0.1152
 4482W        W 8682   9.100   0.896   2.180  0.1204  0.0288 -0.1840
 4483W        W 8683   0.645   5.631   0.842 -0.2594  0.1378  0.2369
 4484W        W 8684   7.530   5.059   0.368  0.0802 -0.3617 -0.1944
 4485W        W 8685   9.741   2.218  12.619 -0.2242  0.1560 -0.0741
 4486W        W 8686   9.459   0.885  11.051  0.0235  0.0363  0.0674
 4487W        W 8687   4.723   1.945  11.651 -0.0330  0.2531 -0.0271
 4488W        W 8688   3.196   1.710   1.629  0.4227 -0.1223  0.0734
 4489W        W 8689   4.262   1.817  11.204  0.1574 -0.0720 -0.4769
 4490W        W 8690   6.735   3.058  12.849  0.1248 -0.2844  0.1252
 4491W        W 8691   9.870   2.818   3.486 -0.1731 -0.5324 -0.2336
 4492W        W 8692   3.161   2.540  11.959 -0.0363  0.4071 -0.1868
 4493W        W 8693   8.496   8.446   3.573 -0.3499 -0.1959  0.2151
 4494W        W 8694  10.079   0.743  10.800 -0.2879  0.0574 -0.0653
 4495W        W 8695   9.928   0.300   0.399  0.0609  0.1869 -0.2135
 4496W        W 8696   5.340   7.394   1.088 -0.0219 -0.0651  0.0290
 4497W        W 8697   3.311   7.818   9.603  0.2584  0.0751 -0.0229
 4498W        W 8698   9.849   2.462  11.840  0.2119 -0.0041 -0.1874
 4499W        W 8699   5.248   8.056   2.102  0.0122 -0.3175  0.3686
 4500W        W 8700   0.515   7.011  13.035 -0.3691 -0.2709  0.0335
 4501W        W 8701   8.460   7.183  10.410  0.0328  0.1478 -0.0939
 4502W        W 8702  10.125   2.164   2.631  0.1825 -0.1386  0.1900
 4503W        W 8703   2.456   7.581   9.867  0.0433 -0.2141 -0.1103
 4504W        W 8704   6.077   1.715  12.229  0.3140  0.2415  0.0034
 4505W        W 8705   9.432   9.727   3.524 -0.0537  0.2169  0.3291
 4506W        W 8706   5.478   6.469  12.214 -0.0765 -0.0756  0.1275
 4507W        W 8707   4.044   1.421   3.492  0.0795 -0.0476  0.2889
 4508W        W 8708   8.731   0.542  12.117 -0.2537  0.0979 -0.0678
 4509W        W 8709   7.242   1.650   4.442  0.1064  0.0763 -0.1125
 4510W        W 8710   9.563   2.680   9.199  0.1529  0.4283  0.1675
 4511W        W 8711   4.394   7.800  11.804 -0.0180  0.2160 -0.3207
 4512W        W 8712   3.760   0.653   0.070  0.0361  0.2315 -0.0857
 4513W        W 8713   2.303   7.748   3.655  0.0648 -0.2577  0.1236
 4514W        W 8714   3.141   8.669   0.404  0.0164  0.3480 -0.2370
 4515W        W 8715   9.321   5.298   3.845  0.1015  0.1411  0.0548
 4516W        W 8716   8.446   5.533   4.308  0.4028  0.1858  0.1288
 4517W        W 8717   1.501   9.728  12.299 -0.2636  0.3000  0.1663
 4518W        W 8718   4.786   2.568  10.448 -0.0672 -0.1226  0.0966
 4519W        W 8719   1.750   1.697  12.897  0.2049  0.0954 -0.1086
 4520W        W 8720   0.320   8.768   3.300 -0.2089 -0.1917 -0.3548
 4521W        W 8721   4.926   7.816  13.248 -0.0082  0.0139  0.1784
 4522W        W 8722   7.417   9.971   2.422  0.0435 -0.2393 -0.0976
 4523W        W 8723   8.644   3.134   2.921 -0.0639  0.1592  0.0123
 4524W        W 8724   0.443   0.380  13.211  0.0055 -0.2309  0.3099
 4525W        W 8725   3.487   3.057  10.930 -0.0742  0.1376  0.0620
 4526W        W 8726   3.242   0.072   0.669 -0.1821 -0.1339 -0.1725
 4527W        W 8727   1.305   6.685  11.591  0.0900  0.0158  0.0817
 4528W        W 8728   2.208   5.371   1.952 -0.0776 -0.2886  0.0147
 4529W        W 8729   3.150   2.038   1.261  0.2213 -0.2775  0.0804
 4530W        W 8730   4.456   6.537   4.224  0.1916  0.2305 -0.2688
 4531W        W 8731   2.498   4.007  12.724  0.1810  0.0214 -0.0128
 4532W        W 8732   1.692   7.844   3.328 -0.3834 -0.0393 -0.1386
 4533W        W 8733   2.622  10.441  10.992  0.0209 -0.0268  0.1355
 4534W        W 8734   2.455   1.782  10.478 -0.2771 -0.2909 -0.2260
 4535W        W 8735   8.225   3.047  12.496 -0.0645 -0.0066 -0.0018
 4536W        W 8736   9.645   3.884   9.081  0.0259 -0.2063 -0.0738
 4537W        W 8737   1.639   5.991   1.680 -0.3292  0.0829 -0.0607
 4538W        W 8738   5.872   0.397   0.181  0.1989  0.2659  0.1286
 4539W        W 8739   3.535   2.218  10.950  0.2058  0.0943 -0.1014
 4540W        W 8740   6.636   2.325   2.245 -0.1679 -0.3164 -0.3211
 4541W        W 8741   9.108   5.603   9.466  0.3329 -0.0092 -0.0358
 4542W        W 8742   8.792   9.210  10.355 -0.0851 -0.1157  0.0686
 4543W        W 8743   1.855   4.779   2.220 -0.0019  0.1519  0.0989
 4544W        W 8744   4.642   6.507  10.299 -0.2350 -0.0077  0.2267
 4545W        W 8745   1.974   4.299   7.997  0.1287 -0.1741  0.1006
 4546W        W 8746   8.308   6.259   2.960 -0.0821 -0.1954 -0.0238
 4547W        W 8747   2.311   5.176   3.680  0.1648 -0.2212 -0.1346
 4548W        W 8748   1.575   9.265  10.156 -0.0528 -0.3056  0.2224
 4549W        W 8749   5.872   2.334   9.006 -0.1819  0.0842 -0.0587
 4550W        W 8750   7.861   3.940   1.883  0.0680  0.0045 -0.1352
 4551W        W 8751   0.078   2.241   1.216  0.1593  0.1105  0.1632
 4552W        W 8752   3.302   1.976   0.110  0.0877 -0.1233  0.1704
 4553W        W 8753   1.762   2.789   4.273 -0.1335  0.1158 -0.1627
 4554W        W 8754   6.501   7.774  12.896 -0.0724 -0.0211  0.0587
 4555W        W 8755   0.496   0.398   0.747 -0.1248 -0.1728 -0.0016
 4556W        W 8756   9.562   9.885   0.148  0.2322 -0.4407 -0.0680
 4557W        W 8757   9.052   6.972   0.372 -0.2702  0.4415 -0.1823
 4558W        W 8758   4.242   0.206   8.873 -0.0869  0.1457 -0.0123
 4559W        W 8759   0.333   9.865  11.138 -0.1369  0.2047  0.1580
 4560W        W 8760   4.923  10.185   2.856  0.1259 -0.0035  0.1622
 4561W        W 8761   3.343   1.676   4.067 -0.3168  0.2714  0.2865
 4562W        W 8762   5.926   5.394   8.519  0.1426 -0.0475  0.2851
 4563W        W 8763   7.849   3.299   3.617  0.1917  0.0738 -0.1666
 4564W        W 8764   3.690   3.036   3.948  0.0204  0.3066  0.0972
 4565W        W 8765   3.858   3.857   3.085 -0.0421 -0.1060  0.0373
 4566W        W 8766   3.398   7.421  10.282  0.0899 -0.3620  0.1558
 4567W        W 8767   0.245   3.259   3.348  0.1185 -0.2075  0.1231
 4568W        W 8768   2.113   9.417   1.615  0.1615  0.1504  0.1598
 4569W        W 8769   8.903   6.670   0.718  0.0078  0.4857  0.0028
 4570W        W 8770   4.405   4.338  10.089 -0.0826 -0.1766  0.2680
 4571W        W 8771   9.913   0.753   2.317  0.2552  0.1058  0.4430
 4572W        W 8772   1.820   3.660   3.613 -0.0971 -0.0420  0.1545
 4573W        W 8773   0.227   6.351   9.920 -0.0298  0.5678 -0.2647
 4574W        W 8774   3.441   8.459  10.256 -0.0322  0.0928 -0.0547
 4575W        W 8775   7.109   5.305   3.023 -0.0863 -0.2174 -0.3313
 4576W        W 8776   4.930   9.052   0.341 -0.1667 -0.2259  0.1884
 4577W        W 8777  10.172   4.129   2.581 -0.1124 -0.0524  0.1496
 4578W        W 8778   4.044   3.016   1.738 -0.1514 -0.0067  0.3273
 4579W        W 8779   2.610   1.440  13.118  0.0103  0.3472  0.3223
 4580W        W 8780   2.522   3.353  13.342  0.0768 -0.1544 -0.1555
 4581W        W 8781   3.313   2.669   3.279  0.1908 -0.1101  0.0279
 4582W        W 8782   0.539   6.748   1.689 -0.1999  0.2532  0.1259
 4583W        W 8783   4.918   1.903   9.081 -0.2085  0.1094 -0.0849
 4584W        W 8784   9.339   6.152  10.227  0.0554 -0.3652  0.1893
 4585W        W 8785   8.175   9.647   9.259 -0.3653  0.2553 -0.1855
 4586W        W 8786   7.773   2.861   0.254 -0.1121  0.0248  0.3848
 4587W        W 8787   0.611   7.421  12.407 -0.0969  0.2172 -0.0996
 4588W        W 8788   6.867   9.903   3.041  0.3087 -0.1855  0.2134
 4589W        W 8789   1.266   2.566  12.935  0.0381  0.0572 -0.2949
 4590W        W 8790   9.436   2.887   1.201 -0.1847  0.0955 -0.1089
 4591W        W 8791   5.472   8.994   8.851 -0.1189 -0.0078 -0.1210
 4592W        W 8792   7.818  10.108  12.582 -0.1935  0.2232 -0.1164
 4593W        W 8793   8.594   6.027  11.740 -0.1909  0.1823 -0.2256
 4594W        W 8794   5.818   0.729   2.529  0.2072 -0.1120  0.1362
 4595W        W 8795   2.467   7.771  12.908 -0.1580  0.1771  0.0226
 4596W        W 8796   2.665   2.844  12.882 -0.0031 -0.1631 -0.0987
 4597W        W 8797   7.153   9.384   3.828 -0.0922  0.0645 -0.3434
 4598W        W 8798   0.932   8.856   2.760  0.1308  0.2069  0.2904
 4599W        W 8799   4.179   7.615  13.283 -0.0458  0.0609  0.2854
 4600W        W 8800   7.593   6.927   0.375 -0.2510 -0.1301 -0.5218
 4601W        W 8801   8.477   2.604   9.938 -0.0002 -0.0441 -0.0996
 4602W        W 8802   9.971   5.030  10.834 -0.1614  0.0144 -0.0509
 4603W        W 8803   7.444   4.789  11.635 -0.2207  0.0686 -0.1269
 4604W        W 8804   6.510   8.774   2.800 -0.3097  0.2613  0.0801
 4605W        W 8805   1.320   0.460  10.194  0.4459  0.0444  0.0624
 4606W        W 8806   3.280   5.409  11.773  0.0873 -0.1865 -0.3029
 4607W        W 8807   5.981  10.390  10.784 -0.1100 -0.1748 -0.1235
 4608W        W 8808   5.636   4.461   9.951  0.1726 -0.0446  0.0757
 4609W        W 8809   8.031   9.880   3.427 -0.0966  0.2547  0.1861
 4610W        W 8810   0.945   5.285   1.323  0.0739 -0.1453 -0.3488
 4611W        W 8811   1.180   0.963  11.619 -0.2423 -0.3023 -0.0243
 4612W        W 8812   4.770   2.079  12.625 -0.3032 -0.1909 -0.1496
 4613W        W 8813   7.331   7.497  11.814  0.0113  0.0213 -0.1196
 4614W        W 8814   8.642   4.248   3.102 -0.4433  0.0893  0.4284
 4615W        W 8815   1.570   4.172   0.027 -0.3047 -0.2007  0.0139
 4616W        W 8816   0.094   6.791   4.894 -0.0397 -0.2815  0.3913
 4617W        W 8817   1.150   6.364  10.227 -0.0433 -0.2220  0.2373
 4618W        W 8818   6.847   3.138   1.955 -0.0830  0.0079  0.2548
 4619W        W 8819   5.870   5.938  11.791 -0.0659  0.0943  0.2963
 4620W        W 8820   3.472   5.951   2.062  0.3864  0.1769  0.1863
 4621W        W 8821   4.711   4.572   0.961 -0.1899  0.4110 -0.1588
 4622W        W 8822   7.267   8.331   9.777 -0.0922  0.2283 -0.0217
 4623W        W 8823   6.668   2.891   3.741 -0.1994  0.0573  0.0236
 4624W        W 8824   3.526   4.834   5.327 -0.1801  0.1736 -0.0809
 4625W        W 8825  10.513   7.788   0.062 -0.0497  0.1825 -0.1140
 4626W        W 8826   9.259   2.745   9.636 -0.3104  0.3114  0.0660
 4627W        W 8827   4.057   5.478   1.812  0.3048  0.2284 -0.0726
 4628W        W 8828   1.690   0.003  13.205  0.0331 -0.1064  0.0689
 4629W        W 8829   6.637   5.991   0.623 -0.4298 -0.2538  0.1363
 4630W        W 8830   3.113   0.077   4.140  0.0076 -0.1224  0.1133
 4631W        W 8831   7.085   0.666   4.005  0.2032 -0.2177 -0.2932
 4632W        W 8832   7.242   0.245   2.799 -0.0188  0.0370 -0.2641
 4633W        W 8833   2.166   4.525   0.781 -0.1377 -0.0960 -0.2425
 4634W        W 8834   7.097   0.824   2.532  0.0239  0.3116  0.2667
 4635W        W 8835   7.361   0.912  10.568 -0.0265 -0.3134 -0.2770
 4636W        W 8836   0.943   6.300   3.443  0.0859 -0.0164 -0.3522
 4637W        W 8837  10.192   8.819  12.304 -0.1060  0.0849 -0.0120
 4638W        W 8838   5.880   2.920   2.441  0.0744  0.1035 -0.0934
 4639W        W 8839   1.519   0.592  13.161 -0.1317 -0.1012  0.3250
 4640W        W 8840   7.801   6.113  11.741 -0.3419  0.0480 -0.0950
 4641W        W 8841  10.387   3.043   9.468  0.0359 -0.0392 -0.0385
 4642W        W 8842   4.449   8.016  13.324  0.2628  0.0353  0.3178
 4643W        W 8843   7.943   3.259   9.635  0.0445 -0.1345 -0.0644
 4644W        W 8844   6.534   5.597   4.643 -0.2324 -0.0062  0.1166
 4645W        W 8845   8.458   3.879   0.165  0.0510 -0.0698  0.0558
 4646W        W 8846   0.634   7.765   0.910 -0.1519 -0.1968  0.0416
 4647W        W 8847  10.291   5.159  10.414  0.0313  0.3453  0.1122
 4648W        W 8848   4.269   1.213  12.270  0.1470  0.1667 -0.2295
 4649W        W 8849   4.257   2.483   1.983  0.0693  0.0178 -0.0233
 4650W        W 8850   6.420  10.143  11.773 -0.5578 -0.2438  0.0129
 4651W        W 8851   9.415   6.671  11.895  0.1204 -0.2166 -0.2093
 4652W        W 8852   1.388   4.847  12.860 -0.1463 -0.3163  0.0101
 4653W        W 8853   5.003   4.616   3.017  0.2205 -0.4316  0.2355
 4654W        W 8854   1.790   7.437   0.469  0.2211 -0.0224 -0.3806
 4655W        W 8855   2.871   6.981   0.006  0.1150 -0.0160  0.1627
 4656W        W 8856   3.225   1.331  10.603 -0.2296  0.0267  0.3652
 4657W        W 8857   3.712   0.209  11.431  0.3004  0.1594 -0.2374
 4658W        W 8858   1.565   8.100  11.604 -0.1597 -0.0560  0.1462
 4659W        W 8859   8.223   4.914   4.274  0.1610 -0.2653 -0.1632
 4660W        W 8860   4.863   0.119   3.112  0.1878 -0.2749  0.1832
 4661W        W 8861   7.222   8.171   1.218 -0.0704  0.0854  0.0878
 4662W        W 8862   3.524   7.078  10.748  0.0780 -0.0850  0.0407
 4663W        W 8863   5.763   2.824  12.410 -0.2331 -0.1444  0.1547
 4664W        W 8864   7.821   9.819  11.355 -0.2167  0.0129 -0.0946
 4665W        W 8865   2.938   2.626  13.221  0.2059  0.1500 -0.0762
 4666W        W 8866   3.221   3.686   8.440 -0.3390  0.2444 -0.3171
 4667W        W 8867   9.991   7.667   0.841  0.0539  0.0537  0.3749
 4668W        W 8868   2.819   8.406   1.182  0.1362  0.1522 -0.0326
 4669W        W 8869   4.899   9.102   0.973  0.3703  0.2033  0.3894
 4670W        W 8870   6.262   9.366   1.685  0.1947  0.0105 -0.0313
 4671W        W 8871   2.300   1.381   2.138 -0.3098 -0.2723 -0.2479
 4672W        W 8872   4.976   8.753  11.202  0.0372  0.0910  0.0927
 4673W        W 8873   8.827   5.949   4.328  0.3467  0.2441  0.2288
 4674W        W 8874   6.252   6.086  11.290 -0.0599  0.1429 -0.1329
 4675W        W 8875   7.279   5.237  13.191  0.0610 -0.0991  0.0883
 4676W        W 8876   6.824   0.746  11.389  0.2033 -0.3077 -0.1296
 4677W        W 8877   8.907   6.309  11.312 -0.0831  0.0248  0.1541
 4678W        W 8878   3.331  10.411  12.329  0.1364  0.0189  0.3951
 4679W        W 8879   9.701   2.557  13.010  0.1166 -0.1566  0.0835
 4680W        W 8880   8.018   7.914   1.006  0.0286  0.0575  0.1756
 4681W        W 8881   9.815   4.129  11.113 -0.0298 -0.0899  0.0429
 4682W        W 8882   1.002   7.650  10.409  0.2159  0.3197 -0.1219
 4683W        W 8883   0.382   2.894  12.454  0.2091  0.2534 -0.1863
 4684W        W 8884   3.117   6.888  11.014  0.1678  0.2060 -0.0804
 4685W        W 8885   7.987   7.935   9.023  0.2049 -0.1476  0.1452
 4686W        W 8886   3.371   9.252   8.928  0.1483  0.2594  0.0123
 4687W        W 8887   2.823   8.700  11.878 -0.1411  0.0493  0.0502
 4688W        W 8888  10.077   6.545   1.223 -0.2420 -0.2265 -0.3078
 4689W        W 8889   5.324   8.896   5.428 -0.2319 -0.0355  0.3002
 4690W        W 8890   5.293   4.184   9.686 -0.0208  0.1319  0.1325
 4691W        W 8891   1.388   5.808   3.878  0.0251  0.0528  0.2563
 4692W        W 8892   7.555   1.359   9.050 -0.0255 -0.1510  0.2090
 4693W        W 8893   5.114   5.856  13.314 -0.1433 -0.3113 -0.5060
 4694W        W 8894   0.849   2.294  11.760 -0.6723  0.0432 -0.0966
 4695W        W 8895   4.075   5.050  10.057  0.3529  0.1519 -0.0954
 4696W        W 8896   2.843   3.399   2.384  0.1361  0.2783  0.1009
 4697W        W 8897   2.758   5.548   9.984 -0.2086  0.0801 -0.3498
 4698W        W 8898   5.460   2.344   4.850  0.2871  0.0776  0.1677
 4699W        W 8899   8.692   5.364   0.814  0.1075 -0.1382  0.0871
 4700W        W 8900   0.563   7.375  11.910  0.0889 -0.0431  0.2316
 4701W        W 8901   5.330   6.952  11.828  0.0476  0.1811  0.0629
 4702W        W 8902   6.981   2.250   1.026  0.0058 -0.1674  0.1996
 4703W        W 8903   4.833   5.296   0.452 -0.0348 -0.1929 -0.1037
 4704W        W 8904   8.060   6.517   0.236 -0.0805  0.0861 -0.1365
 4705W        W 8905   9.197   6.955   9.039 -0.0557 -0.1368 -0.0329
 4706W        W 8906   1.590   5.253  11.463 -0.0497 -0.1529  0.1796
 4707W        W 8907   5.035   4.686   8.932 -0.3317  0.0662  0.0200
 4708W        W 8908   5.423   1.850   0.877 -0.2012  0.1407 -0.1346
 4709W        W 8909   7.566   4.643   9.723  0.0938 -0.2522 -0.0530
 4710W        W 8910   5.966   3.184  12.123  0.1605  0.1512 -0.1981
 4711W        W 8911   5.530   7.973   4.672  0.1131 -0.1129  0.1845
 4712W        W 8912   0.551   5.579   3.848 -0.0925  0.2501  0.0914
 4713W        W 8913   8.896   1.065  11.586 -0.0087  0.1928 -0.3028
 4714W        W 8914   2.554   2.449   4.414  0.2551  0.1899 -0.1310
 4715W        W 8915   5.393   7.409   9.299  0.2510  0.0839  0.2435
 4716W        W 8916   5.186   5.637  12.255 -0.0175 -0.0008 -0.2338
 4717W        W 8917   9.071   0.567   3.492 -0.0356  0.0320 -0.1588
 4718W        W 8918   8.647  10.146   2.765 -0.0565  0.2571  0.0152
 4719W        W 8919   2.168   8.602   2.965  0.2016  0.2484  0.5325
 4720W        W 8920   9.942   6.707   9.491 -0.0068  0.2677  0.1350
 4721W        W 8921   0.448   9.253   0.713 -0.2607  0.3658  0.2902
 4722W        W 8922   5.965  10.354   2.291  0.0463 -0.2263  0.0107
 4723W        W 8923   2.509   4.288   1.219 -0.1818  0.0015 -0.0371
 4724W        W 8924   3.141   2.755  10.015  0.0729 -0.2139 -0.0902
 4725W        W 8925   0.246   0.504  11.465 -0.2015  0.2010  0.0059
 4726W        W 8926   6.146   4.597  10.438  0.0117  0.1313 -0.0368
 4727W        W 8927   7.378   9.524   1.960  0.0902 -0.0752  0.2049
 4728W        W 8928   1.070   2.591  10.890  0.0226 -0.1279 -0.1631
 4729W        W 8929   5.840   2.015   3.489  0.0303  0.3110  0.1640
 4730W        W 8930   4.958   8.296  12.202 -0.0266  0.0811  0.1707
 4731W        W 8931   8.093   4.232  11.998 -0.0025  0.1570 -0.1471
 4732W        W 8932   1.796  10.429   4.056  0.1497  0.3000 -0.1060
 4733W        W 8933   7.749   8.344  11.519 -0.1512  0.3040 -0.3622
 4734W        W 8934   8.858   5.271   1.314 -0.0471  0.3403 -0.0980
 4735W        W 8935   9.384   1.646  10.147  0.0779 -0.4820 -0.1675
 4736W        W 8936   0.759   4.713   0.739 -0.1628  0.1360  0.4300
 4737W        W 8937   7.773   5.767   1.019 -0.3612  0.0339 -0.3584
 4738W        W 8938   4.181   0.442  11.180  0.0089  0.1580 -0.0693
 4739W        W 8939   3.382   7.553   0.302 -0.2386  0.2674 -0.3502
 4740W        W 8940   8.166   4.429   9.146 -0.1201 -0.2337  0.0100
 4741W        W 8941   6.853   3.324   0.880  0.1997 -0.0300 -0.1829
 4742W        W 8942   1.103   6.687   1.486  0.2028  0.0162  0.0095
 4743W        W 8943   2.506   5.278   9.180 -0.1940  0.1344  0.1647
 4744W        W 8944   5.212   8.138   3.671 -0.0337  0.2283  0.0977
 4745W        W 8945   3.489   1.727  12.407  0.1952  0.1198 -0.3004
 4746W        W 8946   4.659   9.747   9.399  0.2010  0.0523 -0.2883
 4747W        W 8947   6.794   0.475  12.718 -0.0753  0.1599  0.0079
 4748W        W 8948   4.449   6.515  12.683 -0.3721  0.1559  0.1098
 4749W        W 8949   6.487   9.709  10.053 -0.3874 -0.2510  0.2377
 4750W        W 8950   5.558   5.827   0.846 -0.0643 -0.1336  0.1139
 4751W        W 8951   6.121   0.689  10.747  0.1451  0.0197 -0.1122
 4752W        W 8952   2.654   6.023   2.497 -0.2384 -0.0925 -0.0907
 4753W        W 8953   6.145   8.938   9.813 -0.1951  0.1044 -0.0864
 4754W        W 8954   5.536   7.788   2.395  0.1518 -0.0197  0.1576
 4755W        W 8955   3.283   3.580  12.818  0.0407  0.0298  0.0506
 4756W        W 8956   7.613   4.358   3.023 -0.0285  0.2008  0.1151
 4757W        W 8957   7.890   4.413  11.033  0.0755  0.0170  0.1922
 4758W        W 8958   6.462   6.887   3.330  0.2152  0.0827  0.0730
 4759W        W 8959   3.235   5.591  10.185 -0.1114 -0.0923 -0.0857
 4760W        W 8960  10.289   1.748  11.088  0.0221  0.1778  0.1295
 4761W        W 8961   6.990   8.600   8.530 -0.2638  0.1537  0.2051
 4762W        W 8962   2.794  10.021   1.978 -0.1744 -0.0195 -0.0789
 4763W        W 8963   3.206   7.954  11.255 -0.1117 -0.2060 -0.2954
 4764W        W 8964   8.731   4.340   8.517  0.1507 -0.0784  0.4696
 4765W        W 8965  10.043   0.179  10.023 -0.0676 -0.1318  0.1198
 4766W        W 8966   8.829   4.273   4.145  0.0936 -0.1078 -0.3230
 4767W        W 8967   1.220   2.793  10.330  0.1873  0.0067 -0.1129
 4768W        W 8968   3.984   6.442   4.655  0.0921 -0.2280 -0.3552
 4769W        W 8969   6.092   0.602   1.446  0.1096 -0.2565 -0.0618
 4770W        W 8970   5.696   7.120   9.504 -0.3943  0.0823  0.1483
 4771W        W 8971   3.399   1.843  10.170 -0.3338 -0.3672  0.0756
 4772W        W 8972   0.973   5.494   4.171 -0.1170  0.0100  0.1521
 4773W        W 8973   4.425   4.942  10.438 -0.1137 -0.1667 -0.2514
 4774W        W 8974   9.179   1.714  10.966  0.0969  0.6081 -0.0194
 4775W        W 8975   5.339   3.911   3.168 -0.1938  0.0861 -0.1512
 4776W        W 8976   2.745   6.481  12.689 -0.0901  0.0948 -0.1126
 4777W        W 8977   2.413   6.980   0.157  0.0659  0.4144 -0.1272
 4778W        W 8978  10.497   0.868  11.707  0.0548 -0.1534 -0.4202
 4779W        W 8979  10.060   5.474  11.129  0.1159  0.0794 -0.3551
 4780W        W 8980   3.529   9.307  11.468  0.0126 -0.1467 -0.2574
 4781W        W 8981   5.381   8.738   3.512  0.0139 -0.1578 -0.0887
 4782W        W 8982   2.058   6.005   9.398 -0.3301  0.1198  0.1232
 4783W        W 8983   7.454   7.159   2.426  0.0806 -0.0855 -0.1981
 4784W        W 8984   2.713   1.928   3.783 -0.2418  0.1141 -0.2510
 4785W        W 8985   6.697   5.194   2.686  0.0125  0.1087 -0.2237
 4786W        W 8986   6.884   7.268   8.651 -0.0197  0.2449  0.0825
 4787W        W 8987   7.506   7.199  12.156  0.0402 -0.2074 -0.2806
 4788W        W 8988   3.710   8.603   9.867  0.0708  0.1550  0.0099
 4789W        W 8989   6.886   3.837   1.050  0.2454 -0.0932  0.0311
 4790W        W 8990   2.399   4.544  11.185  0.1214 -0.2185 -0.2466
 4791W        W 8991   2.029   4.114   4.512 -0.1284 -0.1042  0.3207
 4792W        W 8992   6.437   0.511   4.968 -0.0057  0.0849  0.1504
 4793W        W 8993   4.518   2.042   8.781  0.0179 -0.3121 -0.0236
 4794W        W 8994   9.848   7.386   3.932 -0.1213 -0.0486  0.2061
 4795W        W 8995   5.946   6.916   5.095 -0.0157 -0.0946  0.2696
 4796W        W 8996   3.731   2.626   1.919  0.0923 -0.1381  0.0528
 4797W        W 8997   6.500   7.585  11.066 -0.1730 -0.2063  0.1120
 4798W        W 8998   0.647   7.786  11.670  0.0621  0.0613 -0.3937
 4799W        W 8999   9.249   1.706   0.387  0.3824 -0.1316  0.0485
 4800W        W 9000   6.424   9.676  12.700  0.1703  0.2594 -0.0454
 4801W        W 9001   5.066   2.534   9.463  0.2664 -0.3335 -0.1109
 4802W        W 9002   1.057   8.512  10.906  0.1889 -0.2030 -0.0727
 4803W        W 9003   9.602   1.214  11.603 -0.2290  0.0709  0.2434
 4804W        W 9004   8.852   0.025  12.183  0.1356 -0.2857  0.0727
 4805W        W 9005   3.468   5.203   4.522  0.2169 -0.0224  0.2048
 4806W        W 9006   0.161   9.545  12.567  0.0936 -0.2706  0.1324
 4807W        W 9007   4.530   3.172  12.056  0.2637 -0.1238 -0.3277
 4808W        W 9008   5.614   4.069   4.498 -0.2128 -0.0616 -0.0028
 4809W        W 9009   7.270   6.984  10.507  0.2063  0.0013 -0.2927
 4810W        W 9010   0.723   9.590   1.011 -0.0973  0.2059 -0.0896
 4811W        W 9011   8.160   6.516   1.257 -0.4654  0.1567 -0.1279
 4812W        W 9012   0.523   5.493  10.367 -0.1273  0.0541  0.0941
 4813W        W 9013   6.061   9.791  10.857  0.0770  0.0244 -0.1498
 4814W        W 9014   7.080   4.853   2.621 -0.2131 -0.1342 -0.2578
 4815W        W 9015   6.474   7.709  12.383  0.4946  0.0082 -0.1542
 4816W        W 9016   4.629   0.065   4.544  0.0239 -0.2358 -0.1120
 4817W        W 9017   2.174   4.742  12.647 -0.1668  0.1288  0.3013
 4818W        W 9018   9.362   8.822   3.285  0.0043  0.0305 -0.2369
 4819W        W 9019   8.571   1.525   1.081 -0.1174 -0.4064 -0.1680
 4820W        W 9020   5.964   3.766   9.087 -0.1263 -0.0703  0.2577
 4821W        W 9021   8.199   8.569  10.965 -0.1337 -0.1186  0.1496
 4822W        W 9022   7.907   5.521  11.797 -0.2470 -0.1780  0.0925
 4823W        W 9023   4.212   7.697   3.753 -0.0729  0.1138 -0.0961
 4824W        W 9024   0.983   3.097   1.153 -0.0999  0.0302 -0.1677
 4825W        W 9025   5.249   6.896   9.378 -0.0314 -0.1088  0.0449
 4826W        W 9026   0.291  10.121  12.925 -0.2649 -0.2372  0.0558
 4827W        W 9027   7.106   3.449   3.451 -0.3926 -0.1738 -0.0159
 4828W        W 9028   4.584   1.310   1.551  0.0173 -0.2346 -0.1133
 4829W        W 9029   6.176   7.046   9.111  0.1752 -0.1158 -0.2351
 4830W        W 9030   2.072   3.716   5.249 -0.2530  0.0079 -0.4049
 4831W        W 9031   3.326   6.960  12.933  0.2142  0.0571 -0.1854
 4832W        W 9032   5.011   8.529   0.231  0.2408 -0.1153  0.0866
 4833W        W 9033   1.094   7.938   2.271 -0.2337 -0.1796  0.1309
 4834W        W 9034   4.167   9.678  12.651 -0.2584 -0.3427  0.2435
 4835W        W 9035   5.111   9.383  12.775 -0.1430  0.0273 -0.0306
 4836W        W 9036   6.116   6.183  13.234 -0.3015  0.5519 -0.5383
 4837W        W 9037   9.025   7.847   0.351  0.1639  0.2546  0.1411
 4838W        W 9038   8.774   0.181  11.248  0.3135 -0.2417  0.2134
 4839W        W 9039   3.253   4.051   4.628  0.0262  0.1684 -0.1535
 4840W        W 9040   4.394   0.170  10.247 -0.0440 -0.3630  0.0081
 4841W        W 9041   7.594   7.112  11.651 -0.2187  0.1703 -0.0989
 4842W        W 9042   1.040   4.893  10.825  0.3003  0.2118  0.3265
 4843W        W 9043   1.350   6.603   3.258  0.1497 -0.1353  0.2891
 4844W        W 9044   4.446  10.150   1.785 -0.1024 -0.1846 -0.2675
 4845W        W 9045   2.490   8.247   0.194  0.2999 -0.0161 -0.1139
 4846W        W 9046   9.771   7.835  11.306 -0.2352 -0.3368 -0.0869
 4847W        W 9047   3.032   3.486  10.464 -0.3131  0.0710 -0.1445
 4848W        W 9048   2.037   2.500  10.467 -0.0456  0.1962 -0.1633
 4849W        W 9049   6.027   5.500  13.240 -0.0907  0.0828 -0.0836
 4850W        W 9050   8.216   5.332   2.075 -0.0829  0.0940  0.0248
 4851W        W 9051   5.856   3.422  10.479 -0.0730 -0.1285 -0.2844
 4852W        W 9052   5.237   8.099   0.199  0.0416  0.1346 -0.0267
 4853W        W 9053   4.916   0.967   9.598  0.0214  0.3488  0.0860
 4854W        W 9054   4.770   6.067   2.325 -0.0299  0.2120 -0.0526
 4855W        W 9055   8.926   5.092   0.452 -0.2531  0.0243  0.1868
 4856W        W 9056   8.523   4.982  12.998  0.0467 -0.0186  0.5186
 4857W        W 9057   2.468   1.794   9.869  0.0067 -0.1533  0.0997
 4858W        W 9058   2.669   0.351  12.016  0.2104 -0.0876  0.0302
 4859W        W 9059   0.234   5.511   9.592 -0.5494  0.2514  0.0690
 4860W        W 9060  10.192   0.529   0.031  0.2206  0.1578  0.3716
 4861W        W 9061   4.576   8.695  11.591  0.0537  0.0990  0.0354
 4862W        W 9062   6.200  10.242   1.114  0.1156 -0.2197  0.2041
 4863W        W 9063   0.941   4.393   0.381  0.0808  0.1132  0.1980
 4864W        W 9064   0.118  10.113  12.479 -0.0019 -0.1146  0.1074
 4865W        W 9065   1.175   7.396  12.283 -0.0221 -0.0630 -0.0212
 4866W        W 9066   8.357   0.996  10.893  0.0923 -0.0167  0.0101
 4867W        W 9067   1.732   3.472   0.498  0.2224  0.0472  0.3501
 4868W        W 9068   3.741   2.630   2.962 -0.0394  0.0233 -0.2539
 4869W        W 9069  10.176   1.604   1.406  0.0454 -0.2866  0.0778
 4870W        W 9070   2.445   1.768   2.906 -0.0181 -0.2512  0.2551
 4871W        W 9071   0.068   7.497  10.991 -0.2402 -0.0381  0.1506
 4872W        W 9072   0.099   9.885   0.522  0.3360  0.0269  0.4451
 4873W        W 9073   5.143   4.359   1.892  0.1091 -0.1814  0.0336
 4874W        W 9074   2.352   4.680  10.545  0.4921 -0.0222 -0.0604
 4875W        W 9075   7.395   6.443   0.333  0.1122  0.2671 -0.4266
 4876W        W 9076   1.898   4.796   8.432  0.0102 -0.1493 -0.1597
 4877W        W 9077   0.007   8.911   9.777  0.0682  0.0199  0.0915
 4878W        W 9078   7.451  10.103  11.461 -0.2418  0.0935 -0.2542
 4879W        W 9079   9.256   4.543   1.649  0.3224 -0.4429  0.1734
 4880W        W 9080   9.070   7.980   9.936 -0.1023 -0.0131  0.3741
 4881W        W 9081   4.433   2.677   8.694 -0.1434  0.0056 -0.0425
 4882W        W 9082   7.921   4.837   3.065 -0.2736 -0.0970  0.0885
 4883W        W 9083   1.386   1.146   9.227  0.1886  0.1738  0.1218
 4884W        W 9084   1.056   4.082  10.704  0.0614  0.2296 -0.0177
 4885W        W 9085   5.331   3.491   2.832 -0.1563  0.0560 -0.0562
 4886W        W 9086   0.165   2.249  11.685 -0.3031 -0.0314  0.1242
 4887W        W 9087   5.261  10.119   4.071 -0.2206 -0.1129 -0.0429
 4888W        W 9088   6.034   9.935  11.517 -0.1617  0.2770  0.2318
 4889W        W 9089   6.724   4.408  10.792 -0.1594 -0.1489  0.1829
 4890W        W 9090   0.971   8.988   2.004  0.2239  0.0793 -0.1880
 4891W        W 9091   6.566   7.077   0.910  0.1640  0.2106  0.0216
 4892W        W 9092   8.172   7.655   1.419  0.0906  0.2662  0.0007
 4893W        W 9093   4.660   1.834   4.022 -0.0282  0.1302  0.2245
 4894W        W 9094   3.580   2.118   1.050  0.0135  0.0433 -0.1313
 4895W        W 9095   5.083   7.370   9.818  0.2037  0.0574 -0.0734
 4896W        W 9096   7.633   2.695   3.008 -0.1671  0.2228  0.1537
 4897W        W 9097   8.276   3.918   9.117 -0.2470  0.4164  0.1703
 4898W        W 9098   5.642   2.465   8.583  0.0472  0.0962  0.1186
 4899W        W 9099   3.964   4.832   9.141 -0.0549 -0.1921 -0.0422
 4900W        W 9100   1.759   4.327  10.580 -0.0069 -0.3899 -0.1842
 4901W        W 9101   9.406  10.395   0.884 -0.2314  0.2251  0.1071
 4902W        W 9102   6.729   2.578  11.575  0.2416  0.2727 -0.2397
 4903W        W 9103   8.671   8.868  13.286  0.1148 -0.0526 -0.1312
 4904W        W 9104   4.347   9.776   3.619  0.0392 -0.0825  0.0216
 4905W        W 9105   7.786   3.029   2.535  0.2573  0.0795  0.0724
 4906W        W 9106   8.303   0.005  12.436 -0.0710 -0.1661 -0.1773
 4907W        W 9107   7.656   5.109  10.748  0.1965  0.0369  0.0871
 4908W        W 9108   9.601   7.753   9.904 -0.0490 -0.1320  0.1487
 4909W        W 9109   0.797   5.644  11.897 -0.3683 -0.1763 -0.2169
 4910W        W 9110   4.446   8.001   4.125  0.1707  0.3076 -0.4466
 4911W        W 9111   2.421   1.692   1.333 -0.0729  0.4262 -0.0616
 4912W        W 9112   2.029   0.839  13.242  0.0953  0.1258 -0.2846
 4913W        W 9113  10.494   7.690   2.684 -0.1453 -0.1939  0.1244
 4914W        W 9114   2.247   2.235  10.058 -0.2206  0.1038  0.0672
 4915W        W 9115   8.844   0.576  11.532 -0.1614  0.0050  0.3630
 4916W        W 9116   3.358   0.110   1.206  0.2341  0.0182  0.1767
 4917W        W 9117   3.774   1.500   4.767  0.2601  0.2585  0.0864
 4918W        W 9118   4.381   5.465  12.968 -0.1141 -0.1001  0.0353
 4919W        W 9119   0.759   4.160  12.500 -0.0425  0.2231  0.1000
 4920W        W 9120   9.640   3.468  13.141 -0.0255  0.1358  0.0370
 4921W        W 9121   3.403   7.286   2.741 -0.1787 -0.1254  0.0378
 4922W        W 9122   8.625   2.401   2.454  0.2203 -0.0354 -0.0992
 4923W        W 9123   6.334   3.345   4.576  0.3802 -0.2158  0.3384
 4924W        W 9124   4.140   9.864  11.144 -0.0282 -0.1453  0.1363
 4925W        W 9125  10.418   1.643  13.243  0.1397  0.0819 -0.2000
 4926W        W 9126   1.692   4.434  12.932  0.0354 -0.0329 -0.1544
 4927W        W 9127   2.289   6.456  10.312 -0.0534  0.3249 -0.1726
 4928W        W 9128   5.610   6.716   3.955  0.2016 -0.4261 -0.0285
 4929W        W 9129   7.022   7.430  13.050 -0.0276  0.0122  0.0108
 4930W        W 9130   2.667   0.868   9.636  0.1004  0.1438 -0.2782
 4931W        W 9131   2.043   5.487   2.830  0.1846  0.0201 -0.0385
 4932W        W 9132  10.253   9.554   1.678 -0.1992  0.0384 -0.0729
 4933W        W 9133   6.740   5.850  11.478 -0.1268  0.2057 -0.2596
 4934W        W 9134   5.158   4.946   0.108 -0.1395 -0.0639 -0.1747
 4935W        W 9135   4.457   5.440   2.210  0.2397 -0.1614 -0.1339
 4936W        W 9136   7.180   0.543  10.939  0.0366  0.3657  0.1347
 4937W        W 9137  10.438   4.395  10.003  0.0106 -0.0281  0.1627
 4938W        W 9138   9.956   9.526   0.056 -0.2628  0.0802 -0.3827
 4939W        W 9139   8.211   1.291  11.908 -0.1906 -0.2394 -0.0247
 4940W        W 9140   0.178   9.246   2.614  0.0834 -0.1871 -0.1055
 4941W        W 9141   1.568   9.455  11.795 -0.1776  0.4109 -0.1501
 4942W        W 9142   7.609   7.440   0.346  0.1265  0.2649  0.2735
 4943W        W 9143   6.105   5.689   4.844  0.2816 -0.4493 -0.1752
 4944W        W 9144   7.904   7.139  13.272 -0.0090 -0.1934  0.0063
 4945W        W 9145   6.970  10.015  12.177  0.0039 -0.1860  0.0259
 4946W        W 9146   7.648   1.629   3.520 -0.3462 -0.1102 -0.1109
 4947W        W 9147   2.369   8.513  11.805 -0.3895  0.0697 -0.1460
 4948W        W 9148   0.121   3.238  13.080  0.2804  0.3132 -0.0140
 4949W        W 9149   5.555   7.305   0.661 -0.2291  0.3498 -0.1043
 4950W        W 9150   8.886   6.459   9.225  0.3442 -0.0867  0.0390
 4951W        W 9151   7.775   4.086  10.579 -0.2078  0.2876 -0.0625
 4952W        W 9152   4.250   5.771  10.839 -0.1295 -0.1280 -0.0289
 4953W        W 9153   4.128   7.197   3.583 -0.1612 -0.4384  0.1442
 4954W        W 9154   7.641   6.671  12.671  0.5179  0.1380  0.2977
 4955W        W 9155   3.060   2.214  11.607  0.0299  0.0664 -0.2645
 4956W        W 9156   1.357   6.965  11.084 -0.1283 -0.0891  0.0282
 4957W        W 9157   4.639   2.576   0.430  0.1262  0.1406  0.3998
 4958W        W 9158   9.515   9.793   2.175 -0.1964  0.0390  0.2700
 4959W        W 9159   1.827   0.415  12.262  0.1106  0.0690 -0.1483
 4960W        W 9160   7.313   1.091   8.542  0.0289 -0.1253  0.1227
 4961W        W 9161   3.246   4.463  12.433 -0.1313 -0.3812 -0.0022
 4962W        W 9162   8.225   2.889   8.458 -0.2881  0.3913 -0.0383
 4963W        W 9163   9.635   8.754  10.076 -0.0901 -0.1279  0.2726
 4964W        W 9164   4.595   4.009  12.658 -0.1021  0.2291  0.0652
 4965W        W 9165   0.213  10.153   2.226 -0.2605 -0.0306 -0.0130
 4966W        W 9166   4.115   5.953  11.242 -0.0275  0.3000 -0.1133
 4967W        W 9167   9.616   3.286   2.178 -0.0777 -0.0235  0.3167
 4968W        W 9168   3.677   2.211  10.432  0.2270  0.0380  0.1398
 4969W        W 9169   2.335   6.375   1.257  0.0840  0.1630  0.1711
 4970W        W 9170   4.399   3.611  10.327 -0.2449 -0.1922 -0.0800
 4971W        W 9171   4.369   7.895  12.868  0.1145  0.2702 -0.0123
 4972W        W 9172   0.077   5.992   0.015 -0.0965 -0.0726 -0.0449
 4973W        W 9173   7.683   2.333   0.143 -0.0815  0.3156 -0.2115
 4974W        W 9174   8.299   5.024   9.391  0.0860  0.2248 -0.1013
 4975W        W 9175   5.422   1.803   0.332  0.1213  0.0506  0.1793
 4976W        W 9176   1.300   3.257  11.239  0.2552  0.3685  0.1562
 4977W        W 9177   9.708   2.506   9.699 -0.0654 -0.0402 -0.2308
 4978W        W 9178   3.082   5.786   1.564  0.1715 -0.0006 -0.1528
 4979W        W 9179   6.995   2.313  12.450 -0.0528 -0.0664  0.2249
 4980W        W 9180   6.121   6.798  12.076  0.3778 -0.3128  0.0164
 4981W        W 9181   2.531   0.460  10.997  0.1121 -0.2387  0.1609
 4982W        W 9182   6.250   6.205   4.032  0.0632  0.0316 -0.0316
 4983W        W 9183   0.922   6.749   2.442  0.1126  0.0466 -0.1978
 4984W        W 9184   3.712   3.220   4.462 -0.4670 -0.0484 -0.0273
 4985W        W 9185   7.519   4.096   4.323 -0.2238  0.3282 -0.0702
 4986W        W 9186   6.064   2.968   0.270 -0.0726 -0.3537  0.2800
 4987W        W 9187   5.176   9.236   8.415 -0.0381 -0.1875 -0.0356
 4988W        W 9188   2.832   7.656   9.562  0.0955  0.1622 -0.2771
 4989W        W 9189   0.562   1.347   1.642 -0.0472  0.1079  0.0152
 4990W        W 9190   7.439   2.938   4.383 -0.1965 -0.0537 -0.0092
 4991W        W 9191   2.657   3.636   5.205  0.3185 -0.1116  0.0587
 4992W        W 9192   7.207   7.624   1.012 -0.1205  0.3326 -0.0015
 4993W        W 9193  10.381   2.837   4.523  0.0002  0.1256  0.5321
 4994W        W 9194   5.801   7.271   2.586 -0.1756 -0.0789 -0.4514
 4995W        W 9195   5.626   3.550   1.783 -0.2191  0.2573 -0.0093
 4996W        W 9196   7.398   9.254   3.414 -0.0861  0.2137  0.1026
 4997W        W 9197   8.571   8.608  12.042  0.0729 -0.1295 -0.2089
 4998W        W 9198   6.837   2.897   0.558 -0.0007 -0.0357  0.2475
 4999W        W 9199   7.392   1.027  12.081  0.1301  0.2981  0.0654
 5000W        W 9200   2.847   3.372   8.393  0.0311 -0.0232  0.0844
 5001W        W 9201   0.120   2.539   2.062  0.0642 -0.1581 -0.0491
 5002W        W 9202   9.992   5.314   0.597 -0.3469  0.0182  0.1791
 5003W        W 9203   5.354   9.175   0.722 -0.5291 -0.4022  0.0862
 5004W        W 9204   8.040   3.057   2.981 -0.3935 -0.0196 -0.1557
 5005W        W 9205   6.723   8.780   2.347  0.0080  0.1363 -0.0399
 5006W        W 9206   2.077   7.321   0.019  0.3673  0.0013 -0.1172
 5007W        W 9207   6.582   9.629   3.357 -0.2447  0.0897 -0.0224
 5008W        W 9208   1.509   8.826   9.905 -0.0661 -0.1305  0.0511
 5009W        W 9209   0.927   5.315   9.407  0.1804 -0.3698  0.0223
 5010W        W 9210   1.806   4.772  11.577  0.1731 -0.2924 -0.1013
 5011W        W 9211   9.336   7.451   3.720 -0.1551 -0.0819  0.2176
 5012W        W 9212   3.160   6.278  12.312 -0.2151 -0.0461  0.1259
 5013W        W 9213   6.708   1.665   9.529 -0.1097  0.2068  0.0185
 5014W        W 9214   9.605   6.752   4.269 -0.1025  0.0586 -0.0546
 5015W        W 9215   5.231   9.330   4.390 -0.0277 -0.4027 -0.0161
 5016W        W 9216   9.526   8.702  12.192  0.0554 -0.2507  0.1840
 5017W        W 9217   7.362   9.574   0.993 -0.2036  0.0313  0.1523
 5018W        W 9218   9.412   3.728   1.355 -0.2416  0.0091  0.1841
 5019W        W 9219   9.252   4.257  10.538  0.1615 -0.0886  0.0123
 5020W        W 9220   2.269   7.386   2.250 -0.0984  0.0035 -0.2079
 5021W        W 9221   0.011   2.307   3.796  0.2391  0.1074  0.0416
 5022W        W 9222   4.864   1.224  12.202 -0.5171  0.2319  0.1364
 5023W        W 9223   6.591   9.457  10.534 -0.2296 -0.1617 -0.0422
 5024W        W 9224   8.701   9.153   0.737 -0.0484  0.1231  0.0699
 5025W        W 9225   3.245   8.149   4.901 -0.2193  0.1202  0.2289
 5026W        W 9226   9.791   3.931  10.114  0.0166  0.2211 -0.2289
 5027W        W 9227   6.520   7.883  11.459  0.1327 -0.1450 -0.2851
 5028W        W 9228   7.351   0.082  11.143  0.3011 -0.3138  0.0248
 5029W        W 9229   6.308   9.539  11.496 -0.4184 -0.1659  0.3924
 5030W        W 9230   4.300   6.411   1.147 -0.1490 -0.1811  0.0332
 5031W        W 9231   3.794   3.058   2.668 -0.1123  0.3482 -0.2582
 5032W        W 9232   2.555   3.260   3.705  0.2055  0.1303 -0.1092
 5033W        W 9233   3.512   4.587  11.600 -0.2966 -0.1493  0.2147
 5034W        W 9234  10.309   9.836  12.743 -0.1004  0.1035 -0.1331
 5035W        W 9235   1.325   7.361  10.629 -0.0315  0.1455  0.1234
 5036W        W 9236   1.339   7.156   2.343  0.1363 -0.1984  0.3626
 5037W        W 9237   4.319   5.906   2.027 -0.0990 -0.0027  0.2760
 5038W        W 9238   4.621   5.088   0.058 -0.2148  0.1254 -0.3053
 5039W        W 9239   2.158   2.697   2.772 -0.0983  0.0915 -0.0847
 5040W        W 9240  10.012   1.929  13.180 -0.0728 -0.2754  0.2860
 5041W        W 9241   9.559   8.328   9.402 -0.1823 -0.0417 -0.1286
 5042W        W 9242   2.733   6.853   3.424  0.0451  0.0834  0.0538
 5043W        W 9243   8.515   7.879   2.801  0.2017 -0.2874  0.0069
 5044W        W 9244   5.356   1.207  12.315  0.1060 -0.1275 -0.1282
 5045W        W 9245   1.573   1.417  12.431 -0.3972 -0.5741 -0.1401
 5046W        W 9246   4.060   4.080  10.354  0.0498  0.3381 -0.0916
 5047W        W 9247   5.646   7.856  11.600 -0.0647 -0.0762 -0.2883
 5048W        W 9248   0.705   2.481   2.010 -0.1192 -0.1831 -0.1755
 5049W        W 9249   4.841  10.495  11.242 -0.1328  0.0700 -0.0275
 5050W        W 9250   1.668   4.188   2.999 -0.3071  0.0819 -0.0106
 5051W        W 9251   6.333   4.024   3.056  0.2242  0.2221 -0.1449
 5052W        W 9252   4.895   3.155  13.176 -0.0995  0.0483 -0.0986
 5053W        W 9253  10.241   5.426  11.672 -0.0307  0.1997 -0.1970
 5054W        W 9254   6.295   7.626   2.616 -0.2115  0.1000 -0.0704
 5055W        W 9255   8.224   6.679  10.405  0.1778 -0.1902  0.2255
 5056W        W 9256   7.160   6.251   1.978 -0.0701 -0.2422 -0.1600
 5057W        W 9257  10.418   2.616   9.896 -0.0767 -0.1557  0.1103
 5058W        W 9258   9.807   1.772   1.032 -0.0007 -0.0919  0.0486
 5059W        W 9259   0.917   8.072  10.124 -0.0238  0.0990  0.0086
 5060W        W 9260  10.403   7.871   9.885 -0.1175 -0.2046 -0.1456
 5061W        W 9261   1.895   0.880   0.400 -0.0093  0.0873  0.2334
 5062W        W 9262   2.951   0.451  11.575 -0.3155 -0.2095 -0.3067
 5063W        W 9263   7.945   7.352   9.106 -0.2758  0.0663 -0.0375
 5064W        W 9264   0.117   4.254   4.281  0.0040 -0.2720 -0.0335
 5065W        W 9265   5.730   7.981   8.867 -0.0667  0.1852 -0.3540
 5066W        W 9266  10.255   7.613  10.596 -0.0744  0.2528 -0.2231
 5067W        W 9267   5.793   8.509  11.504  0.0185  0.1005  0.0754
 5068W        W 9268   4.213   8.986   1.775 -0.0170 -0.2958 -0.1001
 5069W        W 9269   8.331   4.721  10.097  0.5372  0.1841 -0.2145
 5070W        W 9270   8.370   1.944   3.984  0.2546 -0.4431 -0.0767
 5071W        W 9271   9.077   9.750   0.385 -0.0738  0.2226  0.1459
 5072W        W 9272   8.301   1.018   3.355 -0.0514 -0.0646  0.0085
 5073W        W 9273   0.073   2.114  13.085  0.1859  0.0395 -0.0433
 5074W        W 9274   2.031   4.929   2.909 -0.0502 -0.0774  0.2224
 5075W        W 9275   2.296   1.265   0.168 -0.0844  0.0408  0.5585
 5076W        W 9276   3.295   9.098  11.074  0.2546  0.0231 -0.1806
 5077W        W 9277   5.269   8.780   9.883  0.4198  0.0283 -0.0953
 5078W        W 9278   8.104   4.114   3.017  0.1357  0.0890  0.4660
 5079W        W 9279   4.997  10.456  10.712  0.1134  0.6319 -0.0068
 5080W        W 9280   5.207   7.378   8.417  0.1579 -0.3199 -0.0424
 5081W        W 9281  10.085   3.358   9.605  0.1219 -0.1013  0.0484
 5082W        W 9282   2.548   9.674   0.204 -0.0375  0.2207  0.4364
 5083W        W 9283   1.744   5.950   3.520  0.2707 -0.0093  0.2162
 5084W        W 9284   7.634   9.854  10.071  0.0378 -0.3625  0.1182
 5085W        W 9285   3.408   0.302  13.253 -0.0293  0.0240  0.2129
 5086W        W 9286   6.968   5.451  10.860 -0.1701  0.1596 -0.3042
 5087W        W 9287   4.751   7.063  10.953  0.0976  0.1304 -0.0001
 5088W        W 9288   5.382   3.412   3.340 -0.0315  0.2556 -0.1882
 5089W        W 9289   8.883   2.117   4.025  0.1726 -0.0614  0.2021
 5090W        W 9290   4.632   1.597   0.127 -0.1531  0.1609 -0.0289
 5091W        W 9291   4.169   5.127   8.744 -0.0774 -0.1714  0.5333
 5092W        W 9292   5.605   0.328   1.663 -0.2672  0.0741  0.0685
 5093W        W 9293   5.199   7.622  12.595  0.0034 -0.2480 -0.1890
 5094W        W 9294   4.072   5.900  11.853  0.1372  0.5619 -0.0814
 5095W        W 9295   8.371   4.473   1.248 -0.2656  0.2669 -0.2052
 5096W        W 9296   0.312   4.092  10.109 -0.1514  0.0559  0.0833
 5097W        W 9297   5.559   2.296   9.376 -0.1600 -0.1199  0.0350
 5098W        W 9298   2.547  10.256   1.070 -0.0297  0.1692 -0.1136
 5099W        W 9299   6.848   9.491   1.054  0.0678  0.2556  0.0775
 5100W        W 9300   0.064   6.109   1.055  0.0362  0.0783 -0.2054
 5101W        W 9301   3.533   4.994   8.939  0.2096  0.0988  0.1254
 5102W        W 9302   6.528   2.871  10.570 -0.2017 -0.0504 -0.0941
 5103W        W 9303   8.442   3.993   2.620 -0.0178  0.1498 -0.2232
 5104W        W 9304   2.363   0.693   0.276 -0.0502  0.5001 -0.2151
 5105W        W 9305   5.159   1.801  13.247 -0.1220 -0.1348  0.1164
 5106W        W 9306   6.286   1.771  10.777 -0.1541  0.3297 -0.1812
 5107W        W 9307   2.051   5.524   0.692 -0.0495 -0.1306  0.2748
 5108W        W 9308   0.672   4.946   2.909  0.4137 -0.5073  0.2114
 5109W        W 9309   1.936   0.723   3.254  0.0068 -0.1389  0.2171
 5110W        W 9310   3.163   7.417   9.852 -0.1790  0.1704 -0.2047
 5111W        W 9311  10.273   4.723  12.709 -0.2895  0.1178  0.2121
 5112W        W 9312   4.587   9.803  12.463 -0.0682 -0.1421  0.0709
 5113W        W 9313   4.150   2.861   9.822 -0.2886  0.1163  0.2185
 5114W        W 9314   4.809   5.561   9.399  0.5246  0.0041 -0.0899
 5115W        W 9315   3.907   8.706  12.867  0.0850 -0.0987 -0.1460
 5116W        W 9316   4.828   4.391  11.330  0.1229  0.2334 -0.2471
 5117W        W 9317   5.590  10.370   3.780 -0.0817 -0.0389 -0.0361
 5118W        W 9318   4.645   8.883  13.309 -0.2167  0.1137  0.3620
 5119W        W 9319   4.043   2.206   1.188  0.1499  0.2545  0.0342
 5120W        W 9320   9.166   1.466   2.106  0.0185 -0.0937  0.5437
 5121W        W 9321   6.095   9.549  10.293  0.0040  0.0888 -0.4967
 5122W        W 9322   9.324   9.484   2.767  0.2626  0.3254 -0.2021
 5123W        W 9323   6.553   1.658   2.796 -0.0248  0.0984  0.0781
 5124W        W 9324   9.236   6.217   3.506 -0.1736 -0.3223 -0.1212
 5125W        W 9325   1.594   1.380   1.613  0.0684  0.2054 -0.2828
 5126W        W 9326   2.426   7.780   9.275 -0.2438 -0.0769 -0.0964
 5127W        W 9327   9.384   7.652  11.126 -0.3408 -0.0825 -0.2046
 5128W        W 9328   2.683   8.129   9.712 -0.0454 -0.2386 -0.1141
 5129W        W 9329   2.625   5.368   2.196 -0.3115  0.0500  0.1495
 5130W        W 9330   6.166   0.600   3.949 -0.0968  0.1051 -0.0385
 5131W        W 9331   7.184   1.778   1.133 -0.0230 -0.1964 -0.5702
 5132W        W 9332  10.199   8.405   1.540 -0.0575  0.1259 -0.0642
 5133W        W 9333  10.228   1.867   3.541 -0.1523  0.0596  0.0970
 5134W        W 9334   8.677   1.329   2.823 -0.3629  0.0851 -0.1442
 5135W        W 9335   2.772   0.510  12.820  0.1364  0.2120 -0.0406
 5136W        W 9336   6.332   4.869   1.413  0.3265 -0.0528 -0.1408
 5137W        W 9337   5.538   6.868  10.479 -0.0334 -0.1571  0.1260
 5138W        W 9338   2.104   1.606   2.518  0.3722 -0.0018 -0.1152
 5139W        W 9339   6.365   3.160  13.272  0.0421  0.2772  0.1763
 5140W        W 9340   2.623   4.984   1.420  0.1319 -0.0971 -0.0409
 5141W        W 9341   7.590   0.804   9.289 -0.1538  0.2463  0.4562
 5142W        W 9342   9.620   2.208   2.145 -0.2915 -0.1364  0.0275
 5143W        W 9343   1.384   4.360   2.341  0.1881  0.0154 -0.0994
 5144W        W 9344   7.942   1.799  11.453 -0.1138 -0.2815 -0.1062
 5145W        W 9345   6.458   8.515   0.021 -0.0567 -0.2307  0.1153
 5146W        W 9346   9.335   8.964  13.199  0.1443  0.2759  0.2136
 5147W        W 9347   4.776   2.619   4.428 -0.1565 -0.2544 -0.1214
 5148W        W 9348   6.630   6.365  10.333 -0.0546  0.0751  0.0620
 5149W        W 9349   9.059   9.600   3.158  0.1550 -0.0133  0.0988
 5150W        W 9350   6.635   1.026   2.628 -0.1136  0.0697  0.1498
 5151W        W 9351   4.169   8.190   8.762  0.0513 -0.0897 -0.0510
 5152W        W 9352  10.269   0.724   3.911  0.1203 -0.1249  0.0672
 5153W        W 9353   1.948   7.910   1.302 -0.0297 -0.1053 -0.3503
 5154W        W 9354   2.261   2.202  10.860  0.0197 -0.0115 -0.0877
 5155W        W 9355   9.720   4.224  13.193 -0.3787  0.2844  0.3001
 5156W        W 9356   6.145   4.118  10.977 -0.3079  0.0106  0.3817
 5157W        W 9357   5.525   0.691  13.181  0.0540 -0.0928 -0.3256
 5158W        W 9358   0.724   9.464   2.519  0.0411 -0.2128 -0.1302
 5159W        W 9359   8.298   4.441   3.510  0.0928 -0.1650  0.0965
 5160W        W 9360   5.048   1.047   4.201 -0.0225  0.0942  0.2211
 5161W        W 9361   8.211   0.691   8.960  0.1672  0.2458  0.1859
 5162W        W 9362   0.156   0.505   1.748 -0.0167  0.2976  0.0739
 5163W        W 9363   6.109   0.791   1.995  0.2336  0.0668  0.0307
 5164W        W 9364   2.072   0.637  11.192  0.3751 -0.1303 -0.2141
 5165W        W 9365   7.457   6.277   8.941  0.1912 -0.0113  0.2634
 5166W        W 9366   5.847   4.489   1.529 -0.1434 -0.2141 -0.0323
 5167W        W 9367   6.339   1.984   3.716  0.0244 -0.1139  0.2115
 5168W        W 9368   6.531   4.834  12.329  0.0767 -0.1905 -0.1038
 5169W        W 9369   2.631   8.760   0.266 -0.0831 -0.0841  0.3276
 5170W        W 9370   6.647   2.157   9.844 -0.0736  0.0241  0.1633
 5171W        W 9371   7.201   3.386  11.611 -0.0310 -0.1475  0.0726
 5172W        W 9372   3.580   7.767   0.925  0.0320 -0.0678  0.0292
 5173W        W 9373   5.486   4.978   9.732 -0.2261 -0.0424  0.1658
 5174W        W 9374   1.325   6.035   3.311 -0.1112  0.1688  0.0931
 5175W        W 9375   2.935   4.924   0.034 -0.0768  0.2117  0.1121
 5176W        W 9376   7.074   4.366   2.401 -0.0116 -0.0928  0.1154
 5177W        W 9377   4.720   3.621   2.182  0.0217  0.1379 -0.0020
 5178W        W 9378   6.786   5.675   2.833  0.1554 -0.1800 -0.2101
 5179W        W 9379   8.387   5.058   1.129  0.3302  0.2117  0.1151
 5180W        W 9380   1.914   4.560  12.005 -0.0202 -0.0181 -0.1952
 5181W        W 9381   9.112   2.417   0.047 -0.0229  0.0297 -0.1624
 5182W        W 9382   4.539   2.945   0.096  0.1884 -0.1379 -0.2891
 5183W        W 9383   7.815   4.665   1.264  0.3843 -0.3239  0.0701
 5184W        W 9384   5.507   4.517   4.666  0.2973 -0.1102  0.1077
 5185W        W 9385   3.803   4.771   4.921 -0.3951  0.1226  0.2468
 5186W        W 9386   9.009  10.205   3.988  0.0797 -0.0271  0.1223
 5187W        W 9387   3.883   8.739  10.389  0.1436  0.2032  0.0160
 5188W        W 9388   9.065   8.012   4.335  0.2858 -0.1285  0.1275
 5189W        W 9389   7.277   3.677   4.352  0.2770  0.1353  0.1882
 5190W        W 9390   6.640   3.712   0.571  0.1620 -0.2708 -0.2565
 5191W        W 9391   2.337   2.879   2.294 -0.3336  0.2257 -0.2084
 5192W        W 9392   6.117   4.327   3.741  0.0992 -0.0028  0.1069
 5193W        W 9393   5.145   8.398  10.452  0.2665  0.0899  0.2338
 5194W        W 9394  10.219   5.770  10.186 -0.0758  0.1152 -0.1553
 5195W        W 9395   7.595   3.333   2.939  0.2595 -0.0008 -0.0379
 5196W        W 9396   1.851   3.453   9.230  0.0547  0.1760  0.0086
 5197W        W 9397   5.550   3.878  10.890 -0.0457  0.1023 -0.0784
 5198W        W 9398   1.009   6.733   8.692  0.0079  0.0707  0.3457
 5199W        W 9399   3.006   6.941  10.014 -0.0584  0.2094  0.0682
 5200W        W 9400   3.336   6.722   2.574 -0.1242 -0.2581 -0.1144
 5201W        W 9401   3.098   8.417  13.316 -0.0912 -0.1390 -0.3504
 5202W        W 9402   9.274   0.164   2.675 -0.1025  0.1351  0.0906
 5203W        W 9403   6.014   5.041   3.516 -0.1823  0.1189 -0.1072
 5204W        W 9404   4.279   9.933   9.857  0.0033  0.0394  0.3705
 5205W        W 9405   8.309   0.869  12.387  0.0423 -0.0547  0.0278
 5206W        W 9406   9.680   2.490   3.159  0.3982  0.2973  0.1700
 5207W        W 9407   9.577   4.789  11.511  0.0677 -0.2059  0.3515
 5208W        W 9408   0.429   3.631   2.763  0.1183 -0.3875 -0.3574
 5209W        W 9409   7.567   6.945   3.930  0.0825  0.2424 -0.0369
 5210W        W 9410   4.415   8.891   3.930 -0.1814  0.0759  0.1583
 5211W        W 9411   4.668   7.056   0.454  0.2262 -0.2241  0.3488
 5212W        W 9412   8.492   7.969   1.783  0.1232  0.2431 -0.0748
 5213W        W 9413   5.561   4.998  10.861 -0.1662 -0.1531  0.2778
 5214W        W 9414   7.762   9.405   4.204  0.1199  0.5606  0.2603
 5215W        W 9415   8.408   8.928  10.279  0.2170 -0.2686  0.0200
 5216W        W 9416  10.253   6.417   3.000  0.0155  0.2464 -0.1752
 5217W        W 9417   6.198   3.389   3.610  0.1973  0.3102 -0.2319
 5218W        W 9418   0.024   9.558   3.504  0.4765  0.1262  0.0037
 5219W        W 9419   0.412   4.497   1.396  0.1462  0.0775 -0.2705
 5220W        W 9420   3.848   3.984   1.938 -0.1368 -0.0621  0.0117
 5221W        W 9421   1.711   3.236  10.992  0.1591  0.2518 -0.2711
 5222W        W 9422   7.793   8.482   0.440  0.0490  0.1808 -0.1264
 5223W        W 9423   0.915   4.103  12.941 -0.0729  0.0604 -0.1196
 5224W        W 9424   1.180   0.253   9.334  0.2308 -0.2259 -0.1340
 5225W        W 9425   1.222   7.129   4.209  0.1071 -0.0817 -0.0247
 5226W        W 9426   6.009   4.483   2.739 -0.0757 -0.0660  0.1058
 5227W        W 9427   1.540   7.269   0.021  0.2676 -0.0798 -0.0598
 5228W        W 9428   8.096   2.355   4.103  0.4095  0.2546  0.3628
 5229W        W 9429   1.266   6.206   8.887  0.0245 -0.0931  0.2064
 5230W        W 9430   2.965   8.300  10.268  0.0494  0.2777 -0.0298
 5231W        W 9431   0.318   0.145  10.573 -0.0302 -0.3002  0.0127
 5232W        W 9432   3.950   5.154   9.560  0.4709  0.1868  0.0777
 5233W        W 9433  10.372   6.800   0.852 -0.0522  0.0474 -0.1853
 5234W        W 9434   7.712  10.104   4.232  0.0950  0.0990 -0.1311
 5235W        W 9435   5.822   8.013  12.136  0.0012  0.0561  0.2929
 5236W        W 9436   4.935  10.015  11.512  0.2663  0.0254  0.1307
 5237W        W 9437   7.665   0.529  10.708 -0.0526 -0.3592 -0.2117
 5238W        W 9438   5.850   1.666   0.064  0.1200 -0.1752  0.4071
 5239W        W 9439  10.485   1.968   1.657  0.3451  0.2993  0.1793
 5240W        W 9440   5.425   7.417  11.621  0.1033  0.0600  0.0805
 5241W        W 9441   0.511   7.662  11.168  0.2259  0.2897 -0.3738
 5242W        W 9442   4.803   6.951   4.410  0.0109 -0.1659  0.0024
 5243W        W 9443   8.639   3.463  11.970  0.1085 -0.0492 -0.0456
 5244W        W 9444   4.490   2.200  13.105  0.0980 -0.3495 -0.0605
 5245W        W 9445   7.095   6.503   9.201  0.2388  0.4599 -0.0161
 5246W        W 9446  10.342   4.154   1.341  0.0466 -0.0979  0.2103
 5247W        W 9447   4.937   7.849   2.751 -0.2438 -0.0295  0.2692
 5248W        W 9448   6.881   4.762   3.905 -0.2415 -0.1822  0.2303
 5249W        W 9449   5.558   4.296   2.846  0.2545  0.3008  0.1938
 5250W        W 9450   1.509   4.270  12.033 -0.1521 -0.0674 -0.0629
 5251W        W 9451   0.820   0.680  13.220  0.0403  0.1857  0.0179
 5252W        W 9452   0.302   7.733   3.362 -0.0768  0.0633 -0.2134
 5253W        W 9453   0.931   1.950   2.331 -0.1720  0.0922  0.0342
 5254W        W 9454   9.034   7.126   1.007  0.2287  0.4357  0.2785
 5255W        W 9455   6.849   8.697   1.040 -0.1204  0.2448 -0.4104
 5256W        W 9456   5.477   8.294  11.932  0.1229 -0.0274 -0.1655
 5257W        W 9457   7.532   2.282  10.810  0.0154 -0.0738 -0.0469
 5258W        W 9458   9.999   6.029   8.771  0.0241  0.0109 -0.0444
 5259W        W 9459   2.450   8.497   1.575  0.1958 -0.1272  0.1509
 5260W        W 9460   6.907   0.453   2.006 -0.0217  0.0279  0.0458
 5261W        W 9461   5.068   3.837  10.747  0.5602  0.1966  0.0704
 5262W        W 9462   3.351   0.534  11.319  0.0539 -0.0666  0.2367
 5263W        W 9463   2.101   3.927   1.443  0.2577  0.1088  0.1697
 5264W        W 9464   2.416   7.714   4.575 -0.1095  0.2968 -0.0506
 5265W        W 9465   4.504   3.116   9.454  0.1096 -0.2122  0.0558
 5266W        W 9466   2.819   6.190   9.001 -0.4442  0.4409 -0.1108
 5267W        W 9467   5.187   2.160  11.476  0.0374 -0.1207  0.2806
 5268W        W 9468   8.746   5.170  12.156 -0.0787  0.1056 -0.1471
 5269W        W 9469   5.870   9.576   0.022 -0.1873 -0.0309  0.0790
 5270W        W 9470   6.898   6.543  13.283 -0.0896 -0.2060  0.0366
 5271W        W 9471   2.887   0.817   1.102  0.1006 -0.1982  0.0009
 5272W        W 9472  10.168   0.318  11.955  0.0468  0.1183  0.0097
 5273W        W 9473   7.855   7.311   9.692 -0.0291  0.2886 -0.0888
 5274W        W 9474   0.673   2.011   2.813  0.2619 -0.0054  0.0473
 5275W        W 9475   3.185   8.134   3.790 -0.0186 -0.1089 -0.0141
 5276W        W 9476   3.578   4.772  12.167  0.1907  0.2945  0.0861
 5277W        W 9477   7.298   0.786   3.037 -0.2152 -0.0304  0.0312
 5278W        W 9478   4.442   4.316   9.558 -0.0244  0.0925 -0.0429
 5279W        W 9479   0.811   4.688   9.475  0.1666 -0.1629 -0.0722
 5280W        W 9480   1.215   3.398   3.035 -0.1446  0.0866  0.0475
 5281W        W 9481   7.756   5.295   9.343 -0.0046  0.2835 -0.0173
 5282W        W 9482   7.851   1.953  10.422 -0.0812  0.0357  0.1656
 5283W        W 9483   2.852   8.302   0.597 -0.0364 -0.3255 -0.1200
 5284W        W 9484   0.320   1.684   2.968 -0.0091 -0.0087  0.1085
 5285W        W 9485   2.894   8.070   2.356  0.1107 -0.1287  0.3036
 5286W        W 9486   0.401   2.672   2.503  0.0196  0.1051  0.1979
 5287W        W 9487   7.856   1.866  13.195 -0.0013 -0.4067  0.0682
 5288W        W 9488   8.056   6.120  13.314  0.3776  0.0632  0.0493
 5289W        W 9489   7.454   6.165   0.837 -0.0327  0.0161  0.0818
 5290W        W 9490   3.081   3.741   7.894  0.0157  0.0634  0.4198
 5291W        W 9491   2.603   2.128   9.570  0.0465 -0.1898  0.1271
 5292W        W 9492   7.350   1.131  13.076  0.1863 -0.0544 -0.1272
 5293W        W 9493   3.367   4.349  11.130 -0.1773  0.0204  0.0381
 5294W        W 9494   9.266   6.814   3.118  0.3685 -0.0780  0.0856
 5295W        W 9495   8.081   6.670  13.147 -0.0858 -0.1465  0.1106
 5296W        W 9496   3.960   4.565   0.191  0.2761  0.0388 -0.0454
 5297W        W 9497  10.215   9.534  10.419  0.0341  0.1174  0.1293
 5298W        W 9498   3.295   4.326  13.255 -0.0108 -0.2179  0.0696
 5299W        W 9499   1.754   7.220   2.061  0.3338  0.3533 -0.1690
 5300W        W 9500   6.376   5.978   2.171 -0.0782 -0.0838 -0.0755
 5301W        W 9501   2.543   8.087  11.565  0.4013  0.1191 -0.1976
 5302W        W 9502   5.044   1.892   3.658 -0.1241  0.0585  0.1341
 5303W        W 9503   7.527   9.029   9.591  0.0893 -0.1765  0.1805
 5304W        W 9504  10.137   1.283   2.504  0.0897 -0.1225 -0.0910
 5305W        W 9505   2.554   7.337   3.882  0.1468  0.5748  0.2506
 5306W        W 9506   3.045  10.471  11.455  0.2651  0.1927 -0.1324
 5307W        W 9507   5.676   0.649   1.128 -0.1734 -0.1135 -0.2602
 5308W        W 9508   6.467   5.379   9.725 -0.3860  0.1622  0.1097
 5309W        W 9509   9.180   6.796  12.338 -0.0840  0.1774 -0.1582
 5310W        W 9510   8.611   7.339   1.700  0.1391  0.1302 -0.0324
 5311W        W 9511   3.780   3.930   2.478  0.0243  0.1868 -0.2073
 5312W        W 9512   2.892   4.319   1.576  0.0669 -0.0984  0.0691
 5313W        W 9513   5.657   2.729  11.230 -0.3108 -0.0245 -0.0643
 5314W        W 9514   4.992   6.106  10.114  0.3939  0.1868  0.3065
 5315W        W 9515   3.360   6.213   9.084 -0.4424  0.0817  0.2268
 5316W        W 9516   0.993   5.200  11.595 -0.3544 -0.0452  0.0845
 5317W        W 9517   1.578   9.458   0.276  0.1087 -0.0292  0.0859
 5318W        W 9518   5.216   2.897   5.005  0.4859 -0.0356 -0.0203
 5319W        W 9519  10.221   6.317   9.983 -0.0662 -0.2126 -0.0375
 5320W        W 9520   5.337   2.270   3.930 -0.0871 -0.0806  0.1367
 5321W        W 9521   9.269  10.441  12.461  0.1263  0.1163 -0.2347
 5322W        W 9522   7.769   1.508  12.674 -0.0583  0.1092  0.2698
 5323W        W 9523   6.151   0.823   0.085 -0.1737 -0.2298 -0.2397
 5324W        W 9524   8.185   7.712  12.714  0.0816  0.0711 -0.2804
 5325W        W 9525   1.765   6.274   3.011  0.1016 -0.1393  0.0643
 5326W        W 9526   5.425   2.205   2.331  0.0745 -0.0025  0.0535
 5327W        W 9527  10.297   1.919  10.160  0.3459 -0.1674 -0.1593
 5328W        W 9528   3.783   3.105   0.264  0.0416 -0.2986  0.0153
 5329W        W 9529   5.074   4.414   2.484  0.0900  0.1122 -0.1161
 5330W        W 9530   3.052   3.172  12.603 -0.0507  0.1489 -0.0338
 5331W        W 9531   7.569   4.983  10.291  0.0973 -0.2182 -0.0334
 5332W        W 9532   9.159   8.479  10.023  0.3267 -0.4300  0.0527
 5333W        W 9533   3.254   3.684   9.329  0.3427  0.0948 -0.2478
 5334W        W 9534   5.975   6.834   1.742  0.1951  0.1154 -0.1164
 5335W        W 9535   4.646   8.240  10.517  0.0978 -0.0810  0.3527
 5336W        W 9536   4.985   8.050   1.650 -0.0064  0.0403  0.1249
 5337W        W 9537   7.162   0.081   9.138  0.1073 -0.2464  0.3021
 5338W        W 9538   3.763   4.458   2.126 -0.0788  0.2413  0.1179
 5339W        W 9539   2.538   4.008   1.653 -0.0718  0.3897 -0.1477
 5340W        W 9540   7.336   9.728   2.870  0.1056 -0.2906 -0.1681
 5341W        W 9541   8.751   3.874   9.872 -0.3714 -0.1634  0.1054
 5342W        W 9542   3.448   8.549  12.611  0.0614 -0.1303 -0.0463
 5343W        W 9543   8.994   9.362   1.186  0.2892  0.3017 -0.3639
 5344W        W 9544   0.210   9.682  12.004 -0.2817 -0.2239  0.1231
 5345W        W 9545   2.596   7.372  12.677  0.0216  0.3743 -0.1801
 5346W        W 9546   7.656   6.029   8.553  0.1671 -0.0011  0.2017
 5347W        W 9547   8.985   8.631   1.911 -0.0634  0.3684  0.3524
 5348W        W 9548   1.879   4.233  11.386 -0.0152 -0.0744 -0.0793
 5349W        W 9549   4.998   8.520  11.714  0.2618  0.0504  0.3225
 5350W        W 9550   8.356   7.074  12.799 -0.1532 -0.0884  0.0359
 5351W        W 9551   8.954   6.617   3.568  0.3469 -0.1922  0.0831
 5352W        W 9552   5.680   3.569   4.520 -0.2602  0.0968 -0.3690
 5353W        W 9553   1.255   0.885   0.174 -0.1634 -0.1390 -0.2082
 5354W        W 9554   8.303   2.280  10.203  0.1270  0.5399 -0.1325
 5355W        W 9555   0.046   6.250  10.479  0.0481 -0.2025  0.2361
 5356W        W 9556   0.066   5.146   0.361 -0.1442 -0.0510 -0.0147
 5357W        W 9557   9.876   1.336   9.108 -0.1905 -0.0431 -0.2018
 5358W        W 9558   4.373   3.818  10.755 -0.0725 -0.2262 -0.1863
 5359W        W 9559   5.082   7.128   0.687  0.2461 -0.2905 -0.2203
 5360W        W 9560   8.839   3.519  11.420  0.0543  0.0152  0.0193
 5361W        W 9561   6.156   2.558   2.261 -0.1841 -0.2079  0.0052
 5362W        W 9562   4.448   4.887  11.786  0.3917  0.0253  0.2351
 5363W        W 9563   6.781   5.582   0.896 -0.2221  0.0869 -0.0946
 5364W        W 9564   1.732   6.403  10.298  0.1191 -0.1898 -0.0631
 5365W        W 9565   2.417   6.436  10.909  0.1952  0.1320  0.1072
 5366W        W 9566   6.882   6.725  11.360 -0.4353 -0.1096  0.2486
 5367W        W 9567   7.965   9.691  10.919  0.0011  0.0048 -0.1158
 5368W        W 9568   1.074   9.327   1.538 -0.0910  0.0691  0.0889
 5369W        W 9569   3.175   1.973   9.068  0.2476  0.1386 -0.0218
 5370W        W 9570   1.483   5.192   9.064  0.1890  0.2531  0.0675
 5371W        W 9571   7.111   4.841  12.942 -0.1926 -0.0331  0.2608
 5372W        W 9572   2.936   2.656  10.422  0.0405  0.1095  0.0758
 5373W        W 9573   5.189   1.517  10.786  0.3416 -0.1796 -0.1290
 5374W        W 9574   7.966   3.725  12.744  0.1729 -0.0906 -0.5441
 5375W        W 9575   1.085   9.820   1.690 -0.0392  0.3100  0.2119
 5376W        W 9576   7.885   3.584   9.275 -0.0473  0.0051 -0.0095
 5377W        W 9577   4.419   8.963   0.381  0.0981 -0.3650 -0.0303
 5378W        W 9578   6.675  10.171   1.327  0.1346  0.0514 -0.0260
 5379W        W 9579   3.274   3.057  10.490 -0.1113 -0.0776 -0.3264
 5380W        W 9580   0.614   0.160   0.290  0.3948  0.2314  0.2121
 5381W        W 9581   6.491   3.269   4.086  0.3493  0.2481  0.0179
 5382W        W 9582   8.513   0.756   2.108 -0.3804  0.3863 -0.2185
 5383W        W 9583   6.143   9.310  12.892  0.1125  0.1155 -0.4682
 5384W        W 9584   3.656  10.014   2.545 -0.0609  0.1497  0.1757
 5385W        W 9585   6.566   9.564   2.751 -0.2639 -0.0926 -0.0556
 5386W        W 9586   9.028   5.024   4.798 -0.1801 -0.1322 -0.1559
 5387W        W 9587   3.557   5.896   4.173  0.0558  0.0054  0.0458
 5388W        W 9588   9.696   5.733   1.343  0.0587  0.0399  0.1189
 5389W        W 9589  10.128   5.921   4.641  0.1309  0.1495 -0.2978
 5390W        W 9590   4.344   9.970   3.106  0.0013  0.1381 -0.1861
 5391W        W 9591   7.168   2.941   4.793  0.0522  0.2815  0.0582
 5392W        W 9592   3.950   8.466  11.729  0.1346 -0.1052 -0.2249
 5393W        W 9593   1.199   8.037   9.669  0.0288 -0.0042 -0.2099
 5394W        W 9594   0.791   3.278   2.862 -0.0477  0.0779 -0.0084
 5395W        W 9595   7.058   1.487   3.975 -0.0898  0.1231  0.1013
 5396W        W 9596   1.490   2.810   3.351 -0.3588  0.0497  0.2414
 5397W        W 9597   6.622   0.019   9.402 -0.1414  0.2178  0.2527
 5398W        W 9598   6.130   2.389   3.355 -0.4049 -0.1621  0.3528
 5399W        W 9599   1.579   8.065   0.429  0.1521 -0.0221 -0.0782
 5400W        W 9600   0.372   5.921  11.806 -0.1812  0.0779  0.0811
 5401W        W 9601  10.077   1.624  10.619 -0.4485  0.3686  0.1649
 5402W        W 9602   7.616   9.249  10.982 -0.2433 -0.1793  0.2478
 5403W        W 9603   8.349   1.601   2.058  0.3072  0.0570 -0.1480
 5404W        W 9604   1.393   4.347   3.983 -0.0768  0.0628  0.1558
 5405W        W 9605   8.323   4.630  11.267 -0.0418  0.0584  0.1039
 5406W        W 9606   1.955   1.623   0.076  0.2992 -0.1556 -0.2328
 5407W        W 9607   8.275   0.755  10.447 -0.2006 -0.0429 -0.0396
 5408W        W 9608   2.263   3.060   4.067  0.1420 -0.0325  0.0752
 5409W        W 9609   0.151   7.894   0.976 -0.0599  0.0106 -0.0319
 5410W        W 9610   9.337  10.385  11.973  0.1805  0.1696  0.1276
 5411W        W 9611   1.098   5.541  12.871 -0.0107 -0.0594 -0.0546
 5412W        W 9612   5.442   6.999   9.952 -0.3631  0.1160  0.0836
 5413W        W 9613   6.844   0.227   0.498 -0.0673 -0.2143 -0.1302
 5414W        W 9614   2.047   9.093   2.801 -0.1347 -0.2131  0.0520
 5415W        W 9615   0.164   1.533   0.865  0.0842  0.1299 -0.0987
 5416W        W 9616   7.376   9.470   9.722 -0.0720 -0.3920  0.3391
 5417W        W 9617   8.379   4.505  12.816 -0.1964  0.1567 -0.0806
 5418W        W 9618   2.508   3.721  10.885 -0.1412  0.0848  0.0691
 5419W        W 9619   0.880   3.169  11.631  0.2269 -0.1604 -0.0304
 5420W        W 9620   7.534   8.953  12.733  0.0553 -0.1634  0.1286
 5421W        W 9621   9.663   6.110  12.855 -0.2264 -0.1257 -0.0787
 5422W        W 9622   1.148   7.749  11.327 -0.0201  0.0817 -0.2247
 5423W        W 9623   6.401   1.170  10.738  0.0239 -0.4630  0.4424
 5424W        W 9624   4.024   5.334   4.982  0.0713 -0.1043  0.0292
 5425W        W 9625  10.505   5.114  12.261  0.1506  0.2893 -0.1583
 5426W        W 9626   9.455   5.701  11.545  0.2196  0.0170  0.1774
 5427W        W 9627   2.369   6.161  12.760  0.5117  0.0675 -0.3256
 5428W        W 9628   1.107   2.766   2.028 -0.1131  0.2592 -0.0030
 5429W        W 9629   5.093   0.156   4.539 -0.0009  0.3091  0.0813
 5430W        W 9630   4.033   9.669  13.210 -0.2021  0.1123 -0.3539
 5431W        W 9631   4.071   7.319   3.100 -0.0274  0.0972 -0.1436
 5432W        W 9632   3.016   3.966  12.626 -0.0438  0.0736 -0.1526
 5433W        W 9633   4.041   1.235  11.233 -0.1960  0.5838 -0.1860
 5434W        W 9634   4.012   2.481   2.559  0.0045 -0.2267  0.3027
 5435W        W 9635   5.296   9.862   3.569 -0.2471 -0.2905 -0.3978
 5436W        W 9636   1.438   5.975  10.435 -0.1630 -0.1014 -0.0620
 5437W        W 9637   5.845   0.947   3.792 -0.1857 -0.2544 -0.1280
 5438W        W 9638   3.540   5.064   3.903 -0.0826 -0.3392 -0.2324
 5439W        W 9639   3.830   3.284   1.340  0.1192 -0.0745  0.0019
 5440W        W 9640   2.976   9.754  11.246  0.0590 -0.0267 -0.1198
 5441W        W 9641   9.392   0.428  12.823 -0.1167 -0.0166  0.4672
 5442W        W 9642   7.088   7.997  11.690  0.2396  0.1076 -0.0844
 5443W        W 9643  10.082   2.086  11.658 -0.2113  0.1660 -0.1350
 5444W        W 9644   8.225   5.480  10.709 -0.2318 -0.2862  0.0202
 5445W        W 9645   1.678   0.291   2.156 -0.0591  0.1723 -0.1472
 5446W        W 9646   5.122   3.921   2.690 -0.0429  0.1233  0.0147
 5447W        W 9647   1.988   2.542  11.418  0.1914  0.2238  0.1534
 5448W        W 9648   8.159   2.352  12.153 -0.1081 -0.0440  0.1630
 5449W        W 9649   8.190   5.737  10.160 -0.4193 -0.1576 -0.2938
 5450W        W 9650   1.716   4.871   4.996  0.0535 -0.0408 -0.0380
 5451W        W 9651   2.319  10.176   0.414 -0.0833 -0.1848 -0.1297
 5452W        W 9652   8.619   3.898   0.685  0.1869 -0.0092  0.0925
 5453W        W 9653   7.083   6.806   0.392  0.0398 -0.1099  0.1514
 5454W        W 9654   4.671   2.643   3.055 -0.2447  0.0451  0.3266
 5455W        W 9655   9.504   4.331   5.294  0.0249 -0.0040  0.0923
 5456W        W 9656   0.085   9.962   9.744  0.1848  0.1553  0.1914
 5457W        W 9657   0.657   9.809  10.775 -0.0102  0.1127  0.1218
 5458W        W 9658   1.036   1.754   0.443  0.1199  0.2729 -0.1577
 5459W        W 9659   6.214   0.722  12.021 -0.3047 -0.1653 -0.1106
 5460W        W 9660   2.429   1.862  12.212 -0.1606 -0.1365 -0.3203
 5461W        W 9661   0.460   0.820  11.761 -0.0494 -0.1259 -0.1604
 5462W        W 9662   3.889   0.665  10.292  0.1024 -0.0504  0.2102
 5463W        W 9663   9.472   0.818  12.497  0.4004  0.1346  0.1398
 5464W        W 9664   3.639   6.559   3.695 -0.0008 -0.4063 -0.1548
 5465W        W 9665   8.141   3.731  12.083  0.1980 -0.2763 -0.0097
 5466W        W 9666   9.159   1.795   4.321 -0.2000  0.0326 -0.0270
 5467W        W 9667   3.311   0.235   3.196 -0.1122 -0.1109 -0.1016
 5468W        W 9668   7.268   3.483   8.510 -0.0511  0.1103  0.0818
 5469W        W 9669   9.274   8.668   1.399  0.0558 -0.1049  0.3134
 5470W        W 9670   4.594   8.591  12.094 -0.2182  0.0246  0.0463
 5471W        W 9671   3.596   0.622   3.253 -0.1669  0.0805  0.0606
 5472W        W 9672   2.312   5.612   4.382  0.0917  0.0677  0.1716
 5473W        W 9673   6.092   6.286   0.993 -0.1884  0.0817 -0.2236
 5474W        W 9674   3.596   7.572  10.712 -0.1907 -0.1034 -0.1977
 5475W        W 9675   8.947   0.315  12.648 -0.5935  0.1813  0.1238
 5476W        W 9676   9.202   1.916   9.588 -0.3074  0.1509 -0.1069
 5477W        W 9677   1.829   3.409  11.618  0.1642  0.1227 -0.1196
 5478W        W 9678   7.202   6.773   2.093  0.0178 -0.1794 -0.0057
 5479W        W 9679   3.521  10.345  11.709 -0.0089 -0.0138 -0.1642
 5480W        W 9680   2.411   0.897   1.830 -0.0473  0.0096 -0.0086
 5481W        W 9681   4.571   0.018   0.065 -0.0563  0.1140 -0.0775
 5482W        W 9682   1.493   5.233   1.303  0.0080 -0.5053  0.0338
 5483W        W 9683   5.676   6.683   4.759 -0.0287  0.2568 -0.1190
 5484W        W 9684   2.788   6.128   0.752  0.0210  0.0923  0.5603
 5485W        W 9685   4.954   9.315  13.305 -0.1627 -0.0666 -0.1945
 5486W        W 9686   3.061   9.600   0.219  0.3389  0.0422  0.3217
 5487W        W 9687   0.472   0.567   9.576 -0.0565  0.0404  0.1223
 5488W        W 9688   5.766   9.863   2.823  0.0215 -0.0143 -0.3649
 5489W        W 9689   5.084   3.123   0.968 -0.0630  0.3091  0.3812
 5490W        W 9690   2.763   5.227  11.696  0.0507  0.2085 -0.2725
 5491W        W 9691   0.917   6.904  11.376  0.0685 -0.0479  0.1060
 5492W        W 9692   7.573   4.359  13.194 -0.0754 -0.0772  0.1094
 5493W        W 9693   1.906  10.146   2.663 -0.2080 -0.2248 -0.0503
 5494W        W 9694   2.076   0.306  12.964  0.2865 -0.2215 -0.1440
 5495W        W 9695   1.041   1.221   0.553 -0.0971 -0.2238  0.0509
 5496W        W 9696   6.562   5.567   2.339  0.0922 -0.0838 -0.0993
 5497W        W 9697   2.611   0.927  11.699  0.0704  0.0785  0.1122
 5498W        W 9698   2.493   6.550  11.427  0.0089  0.4086  0.2026
 5499W        W 9699   3.289   5.993  10.996 -0.0914  0.0445 -0.0233
 5500W        W 9700   2.558   0.739   3.234 -0.0290 -0.1459  0.0808
 5501W        W 9701   9.171   3.984  11.481 -0.0649  0.1437 -0.0054
 5502W        W 9702   6.712   9.274  12.899  0.2703  0.2730 -0.0628
 5503W        W 9703   2.453   9.945  13.157 -0.4811 -0.1568 -0.0894
 5504W        W 9704   2.154   4.893   1.776 -0.1809 -0.3424  0.2950
 5505W        W 9705   1.155   7.121   1.223 -0.1573 -0.3718 -0.0001
 5506W        W 9706   1.163   8.928  11.212  0.3194  0.1444 -0.0477
 5507W        W 9707   2.881   6.432   5.191 -0.1175  0.0654  0.1961
 5508W        W 9708   2.180   6.245  13.229  0.0733 -0.0890 -0.0830
 5509W        W 9709   5.470   9.510  12.346  0.0654  0.2583 -0.0574
 5510W        W 9710   8.817   4.253   1.045 -0.2445 -0.0190  0.2430
 5511W        W 9711   7.531   0.826   1.345  0.3735  0.2058  0.2656
 5512W        W 9712   4.901   0.109   0.423 -0.2169  0.2869 -0.0870
 5513W        W 9713  10.406   4.758  10.665  0.0421  0.0687 -0.1063
 5514W        W 9714   4.247   9.033  10.855 -0.0467  0.1457  0.0226
 5515W        W 9715   7.079   8.938  12.165  0.0442 -0.0106  0.0767
 5516W        W 9716   4.806   9.652   1.282  0.3255  0.1234 -0.1117
 5517W        W 9717   4.903   6.315   4.239 -0.0542  0.2436  0.0352
 5518W        W 9718   9.764   8.147   1.888  0.2391  0.0497 -0.1311
 5519W        W 9719  10.242   3.666   2.188  0.0079  0.2396  0.0148
 5520W        W 9720   7.238  10.340   1.333  0.0694 -0.1333  0.0991
 5521W        W 9721  10.379   6.304   1.567 -0.0036 -0.0709 -0.0327
 5522W        W 9722   4.554   0.887  11.937  0.2583  0.1011  0.0356
 5523W        W 9723   4.005   3.409   2.918 -0.0035 -0.3380 -0.0480
 5524W        W 9724   3.072  10.211  12.766 -0.2347 -0.1029 -0.0633
 5525W        W 9725   0.718   7.235   0.872  0.0026 -0.0020 -0.2143
 5526W        W 9726   0.559   3.304   2.405  0.0342 -0.0302  0.3064
 5527W        W 9727   7.487   6.220   4.741  0.2551 -0.4560  0.1548
 5528W        W 9728   8.689   8.032   3.384 -0.0774 -0.3021  0.0615
 5529W        W 9729   8.795   1.547   0.654  0.0097  0.0669  0.2015
 5530W        W 9730   9.112   3.804   9.137  0.2149  0.2575 -0.3981
 5531W        W 9731   1.085   5.153  13.159 -0.1551  0.0391  0.0834
 5532W        W 9732   2.398   5.305   8.196  0.0748  0.1031  0.2554
 5533W        W 9733   6.848   5.165   4.230 -0.3486 -0.2558  0.1387
 5534W        W 9734   5.555  10.260   2.606 -0.0681  0.1610  0.2221
 5535W        W 9735   2.941   3.185  11.427  0.0603  0.1499 -0.1522
 5536W        W 9736   3.637   6.239   9.488 -0.3501  0.1073  0.0272
 5537W        W 9737   7.784   9.390   2.647 -0.0405  0.3398  0.1197
 5538W        W 9738   3.695   3.619   0.364 -0.1002 -0.1019 -0.0116
 5539W        W 9739   2.255   6.075   4.492 -0.3090 -0.3216 -0.1922
 5540W        W 9740   6.941   2.586   1.918 -0.0772 -0.1179  0.2223
 5541W        W 9741   1.107   0.224   2.220  0.3257 -0.0978 -0.0861
 5542W        W 9742   6.581   1.652   1.854  0.1208  0.0724 -0.1377
 5543W        W 9743   1.174   5.367   8.717 -0.0422 -0.1391 -0.3283
 5544W        W 9744   3.246   4.387   0.644 -0.2493 -0.1121 -0.2470
 5545W        W 9745   8.346   9.000   1.874  0.1957  0.2272  0.0940
 5546W        W 9746   0.645   1.828   1.757 -0.2148 -0.0089 -0.1197
 5547W        W 9747   6.031   2.772   0.932  0.2095  0.1177  0.0203
 5548W        W 9748   6.857   8.497   0.389  0.2115 -0.0401  0.1441
 5549W        W 9749   6.191   6.340  12.710  0.0370 -0.1537  0.1558
 5550W        W 9750   7.199   5.750   4.519  0.1985 -0.3565  0.0901
 5551W        W 9751   6.619   9.173   3.694  0.0024 -0.3516 -0.0237
 5552W        W 9752   1.870   2.500   3.583  0.2197 -0.0248 -0.0700
 5553W        W 9753   0.300   6.698  11.184 -0.0740 -0.0647  0.1163
 5554W        W 9754   4.906   9.936   3.313  0.4639  0.2996  0.0468
 5555W        W 9755   6.508   2.412   3.059  0.0178 -0.0287  0.0467
 5556W        W 9756   1.303   0.102  10.674  0.2321  0.0281  0.1794
 5557W        W 9757   1.712   6.123   9.064 -0.1175 -0.0239  0.2126
 5558W        W 9758   0.479   4.339  11.921 -0.1191 -0.0056  0.0943
 5559W        W 9759  10.489   2.789   3.130  0.1523 -0.1626 -0.1036
 5560W        W 9760   0.818   7.216   9.788 -0.0600 -0.0995 -0.0508
 5561W        W 9761   4.799   5.493   3.286 -0.1323 -0.1221 -0.4097
 5562W        W 9762   2.826   2.167   2.788 -0.0243 -0.1998 -0.1302
 5563W        W 9763   6.420   6.070   5.056  0.1630 -0.3921  0.1725
 5564W        W 9764   2.632  10.078   3.564 -0.0596  0.0699  0.0040
 5565W        W 9765   7.780   6.873  10.387 -0.1371 -0.1475 -0.1267
 5566W        W 9766   9.060   2.305   8.370  0.2608  0.0884 -0.0158
 5567W        W 9767   5.552   4.656   4.103 -0.0077  0.1749 -0.1924
 5568W        W 9768   5.284   2.814  12.534  0.1562  0.0002  0.1597
 5569W        W 9769   0.026   5.161   0.915  0.4035  0.1519  0.0573
 5570W        W 9770   9.894   0.942   2.841  0.0668  0.1308 -0.2979
 5571W        W 9771   1.637   3.286   0.929 -0.1498 -0.0773  0.1498
 5572W        W 9772   6.806   1.756  12.566  0.1908 -0.0083 -0.1199
 5573W        W 9773   2.919   0.845  10.674 -0.0645 -0.1885 -0.0278
 5574W        W 9774   6.418  10.477   1.605 -0.0920  0.0037 -0.0533
 5575W        W 9775   2.527   4.221   2.434  0.0013  0.0488  0.0541
 5576W        W 9776   6.389   3.420  11.943 -0.1021 -0.0553  0.0440
 5577W        W 9777   4.087   6.352  10.305 -0.0809  0.2229 -0.3216
 5578W        W 9778   8.421   2.662  11.290  0.1284  0.2270 -0.0008
 5579W        W 9779   2.512   6.021   4.039  0.0498  0.2167 -0.0116
 5580W        W 9780   4.501  10.460  10.769 -0.1401  0.1325 -0.1756
 5581W        W 9781   7.399   1.874   0.146  0.0581  0.0857 -0.1737
 5582W        W 9782   7.397   0.622  11.387 -0.0410 -0.2597 -0.2747
 5583W        W 9783   4.981   8.009  10.002  0.0601  0.0464 -0.1046
 5584W        W 9784   5.798   3.320   2.726 -0.1674  0.0001 -0.1514
 5585W        W 9785   3.570   3.975   0.711 -0.0161 -0.1157 -0.2746
 5586W        W 9786   8.396   5.024   0.544 -0.3047 -0.0146  0.0143
 5587W        W 9787   5.473  10.257  10.596 -0.1300 -0.3164  0.0388
 5588W        W 9788  10.134   5.484   3.950 -0.2189 -0.0348 -0.5111
 5589W        W 9789   1.067   9.952   3.217  0.0736  0.4677 -0.1225
 5590W        W 9790   7.159   9.839   9.158  0.1441 -0.1265 -0.0083
 5591W        W 9791   4.298   3.749   2.541 -0.1188 -0.0594 -0.0827
 5592W        W 9792   7.669   9.495   3.115 -0.2269 -0.0794 -0.0778
 5593W        W 9793   5.110   5.718   1.528  0.4121 -0.1653  0.0264
 5594W        W 9794   8.178   3.612  11.425 -0.1987  0.0716 -0.0361
 5595W        W 9795   8.384   2.943  13.111  0.1055  0.3749  0.1153
 5596W        W 9796   7.962   3.220  12.876 -0.1096  0.0474  0.4556
 5597W        W 9797   9.363   9.988   3.148  0.2885 -0.1721 -0.0179
 5598W        W 9798  10.114   4.084   4.098 -0.1268  0.0971  0.0245
 5599W        W 9799   6.500   7.025   1.777 -0.1541 -0.0052 -0.2222
 5600W        W 9800   9.519   2.040  10.835 -0.1735  0.3543 -0.1311
 5601W        W 9801   4.361   6.260   1.627 -0.1681  0.1034 -0.0221
 5602W        W 9802   6.133   5.405   8.953 -0.0820  0.0541 -0.2278
 5603W        W 9803  10.470   7.744   2.166  0.0384  0.0697 -0.2134
 5604W        W 9804   8.428   0.607   1.580  0.0864  0.0249  0.0777
 5605W        W 9805   2.914   3.999   3.054 -0.0586 -0.3385 -0.1137
 5606W        W 9806   7.664   0.543   0.748  0.0530  0.0757 -0.0295
 5607W        W 9807   8.877   0.102   0.145  0.2663 -0.1304 -0.0874
 5608W        W 9808   1.002   4.371  12.102  0.1141  0.2667 -0.1505
 5609W        W 9809   6.221   1.862  11.273  0.0489 -0.1884 -0.4112
 5610W        W 9810   6.120   2.143   9.977  0.0047  0.2279  0.0771
 5611W        W 9811   6.608   9.928   3.798  0.2219 -0.1852 -0.1561
 5612W        W 9812   2.303   8.641  12.652  0.1468 -0.2902  0.0702
 5613W        W 9813   7.592   6.493   3.611 -0.3661  0.0468 -0.0712
 5614W        W 9814   5.362   1.201  13.105 -0.1928  0.0237  0.0472
 5615W        W 9815   2.895   8.652   9.946 -0.1358 -0.2336 -0.0898
 5616W        W 9816   7.228   3.482   9.466  0.3552  0.0406 -0.1104
 5617W        W 9817   0.998   0.069  12.382  0.2582  0.2632 -0.2329
 5618W        W 9818   6.692   8.670  12.324  0.1812 -0.3438  0.2476
 5619W        W 9819  10.088   5.837   0.629  0.1907 -0.2169  0.0963
 5620W        W 9820  10.357   1.786   3.021 -0.0578 -0.4131  0.1370
 5621W        W 9821   3.033   6.151   2.170 -0.2822  0.4180  0.1091
 5622W        W 9822   8.936   8.153  10.592  0.1484  0.4143 -0.3136
 5623W        W 9823   1.705   8.045   1.778 -0.0018 -0.2077 -0.0491
 5624W        W 9824   0.699   5.194   0.539  0.0437 -0.3510  0.0735
 5625W        W 9825   1.982   5.828   0.149  0.0638 -0.4040  0.0895
 5626W        W 9826   4.288   1.141   1.194  0.1221 -0.0634 -0.2324
 5627W        W 9827   2.175   7.228   1.787  0.1395 -0.0754 -0.2034
 5628W        W 9828   7.470   6.455  10.363  0.0509  0.0131  0.0335
 5629W        W 9829   9.621   1.525   0.621 -0.1472  0.1073  0.0332
 5630W        W 9830   8.070   7.995   0.503 -0.2401  0.0042 -0.1322
 5631W        W 9831   9.524   7.667   0.490 -0.0767 -0.1257 -0.2591
 5632W        W 9832   0.026   2.432  12.552 -0.0584 -0.1051  0.2636
 5633W        W 9833   6.372   3.928   3.991 -0.1271  0.0813  0.0999
 5634W        W 9834   7.362   6.515   1.229  0.1927 -0.0424  0.0340
 5635W        W 9835   1.498   0.195   9.727 -0.0639  0.2215 -0.2194
 5636W        W 9836   1.433   9.256   1.054 -0.0306  0.2341  0.0786
 5637W        W 9837   5.061   2.714   2.631  0.0100 -0.1352 -0.0786
 5638W        W 9838   8.266   4.125   8.676  0.0220 -0.4841  0.2788
 5639W        W 9839   7.718   6.847   2.155  0.1870 -0.1436  0.1351
 5640W        W 9840   6.422   7.208  12.099 -0.2798  0.2280  0.0720
 5641W        W 9841   1.723   1.969   2.268  0.0520  0.2831 -0.1056
 5642W        W 9842   8.433   1.022   1.265  0.3134 -0.0917 -0.1167
 5643W        W 9843   4.620   6.829   0.873  0.1072 -0.0074  0.0798
 5644W        W 9844   1.333   2.282   2.201  0.1640 -0.0648  0.3420
 5645W        W 9845   5.613   0.604  11.436  0.3930  0.0966  0.0709
 5646W        W 9846   7.157   4.404   2.922  0.2006 -0.1258  0.2233
 5647W        W 9847   2.351   7.323  12.226  0.2108  0.0537  0.4572
 5648W        W 9848   3.909   6.036   1.793 -0.2084 -0.2189 -0.2839
 5649W        W 9849   7.240   2.779   8.514  0.2871 -0.2592  0.1402
 5650W        W 9850   3.245   1.160   4.030  0.1851  0.1467  0.1768
 5651W        W 9851   7.464   7.963  11.337  0.1990 -0.0221  0.1776
 5652W        W 9852   0.833   0.233   3.330 -0.4255  0.2281  0.0683
 5653W        W 9853   0.075   0.258  10.980  0.0603  0.0446 -0.3547
 5654W        W 9854   6.764   7.192  11.187 -0.3475 -0.1061  0.1254
 5655W        W 9855  10.404   2.331  10.351 -0.0408  0.2797  0.1814
 5656W        W 9856   3.420   4.747   9.435  0.0434  0.1479 -0.2123
 5657W        W 9857   5.799   8.918   2.526  0.2038  0.1155 -0.3416
 5658W        W 9858   0.429   1.764   2.357 -0.1174  0.1342  0.0821
 5659W        W 9859   4.655   2.120   9.420 -0.0286  0.0654 -0.2606
 5660W        W 9860   0.408   1.751   1.309 -0.1355  0.1409  0.2692
 5661W        W 9861   9.319   4.724  12.697  0.0543 -0.0168  0.1161
 5662W        W 9862   9.684   4.849   1.730 -0.3242 -0.1532  0.1369
 5663W        W 9863   6.356   2.857   3.171 -0.0679  0.3838  0.0025
 5664W        W 9864   8.023   1.206   2.234  0.0589 -0.4693  0.0113
 5665W        W 9865   1.712   7.378   1.627  0.1328  0.1174  0.3550
 5666W        W 9866   7.422   6.217   3.180 -0.0894  0.0336  0.0509
 5667W        W 9867   0.442  10.064  10.393  0.1315  0.0197  0.0854
 5668W        W 9868   4.369   7.385   8.498 -0.0157  0.0598 -0.0921
 5669W        W 9869   7.898   1.401  10.034  0.0124  0.1703 -0.3303
 5670W        W 9870   2.728  10.478   3.851 -0.1321  0.2961  0.0008
 5671W        W 9871  10.498   7.299   0.271  0.0950  0.0458 -0.0803
 5672W        W 9872  10.135   3.931   9.421 -0.0619 -0.1479  0.2242
 5673W        W 9873   0.481   0.852   1.511 -0.0554 -0.3798 -0.0307
 5674W        W 9874   1.771   3.313   4.062 -0.0837 -0.2591 -0.2576
 5675W        W 9875   4.769   5.609   4.649 -0.2930  0.2397 -0.0585
 5676W        W 9876   6.020   8.980   2.958 -0.2623 -0.0016 -0.1136
 5677W        W 9877  10.311   5.629  13.017 -0.0780 -0.1290 -0.0082
 5678W        W 9878   4.019   8.085   3.190 -0.1872 -0.1484 -0.1090
 5679W        W 9879   9.529  10.007   9.313 -0.1375  0.0955 -0.1286
 5680W        W 9880   0.068   5.451  10.023  0.2089  0.1569 -0.1125
 5681W        W 9881   1.710   5.627  12.784 -0.0302  0.1520  0.1528
 5682W        W 9882   2.002   4.041  10.891  0.2461  0.1923 -0.1691
 5683W        W 9883   0.788   1.452   2.092  0.3035  0.0829 -0.0831
 5684W        W 9884   5.571   0.446   0.706 -0.1788 -0.0142 -0.0310
 5685W        W 9885   2.979   8.630  12.350  0.1085  0.2220 -0.1202
 5686W        W 9886   8.068   5.422   3.382 -0.2097 -0.3699 -0.0516
 5687W        W 9887   2.979   7.639   3.850 -0.1077  0.2951  0.0245
 5688W        W 9888   0.662   1.891  11.450  0.0460  0.1118 -0.0750
 5689W        W 9889   8.343   5.571   9.341  0.0179 -0.1435 -0.3044
 5690W        W 9890   1.200   3.076   4.336  0.1200  0.2992 -0.0590
 5691W        W 9891   2.457   5.479   3.312 -0.2940 -0.2486 -0.4946
 5692W        W 9892   0.207   7.382   3.017 -0.5047  0.0764 -0.1781
 5693W        W 9893   2.008   6.698  13.077  0.1102 -0.0188 -0.0817
 5694W        W 9894   6.751   1.649   0.026 -0.1840  0.0649 -0.0316
 5695W        W 9895   9.360   4.337   4.105  0.1146 -0.1582 -0.2452
 5696W        W 9896   1.341   7.601   0.357 -0.0003 -0.0506  0.3872
 5697W        W 9897   9.875   1.928   3.097  0.0822  0.2786 -0.0179
 5698W        W 9898   1.315  10.477  10.155 -0.0707 -0.0752 -0.4255
 5699W        W 9899   1.800   2.548  12.951 -0.4467 -0.2436  0.1982
 5700W        W 9900   6.685   6.963   0.137  0.0418  0.1580  0.3476
 5701W        W 9901  10.263   8.089   2.485 -0.0035 -0.1821  0.0137
 5702W        W 9902   3.140   1.100   9.542  0.2654 -0.2570  0.0748
 5703W        W 9903   0.625  10.327  13.168  0.0279 -0.0680 -0.1010
 5704W        W 9904   6.498   2.601   0.245 -0.0447 -0.0874 -0.2821
 5705W        W 9905   7.988   9.664   1.275  0.0003  0.2673  0.0967
 5706W        W 9906   3.570   9.786  11.460  0.3403 -0.1086 -0.3007
 5707W        W 9907   2.103   3.129   0.808 -0.4299  0.3498  0.1156
 5708W        W 9908   8.465   9.182  12.688  0.0329  0.3663  0.4035
 5709W        W 9909   9.979   5.327  10.022 -0.2451  0.1655  0.0709
 5710W        W 9910   1.448   6.904   3.811  0.0740  0.3120 -0.2648
 5711W        W 9911   3.986   6.560   1.888 -0.0363  0.1590 -0.2595
 5712W        W 9912   5.388   4.331  10.886 -0.2133 -0.3931 -0.2617
 5713W        W 9913   1.446   1.836  13.311 -0.0593  0.0867 -0.1120
 5714W        W 9914   3.779   3.517   9.279  0.2134 -0.2691 -0.1336
 5715W        W 9915   1.920   8.004  10.340  0.0503  0.1159 -0.1556
 5716W        W 9916  10.055   7.609   2.468 -0.0400  0.0207 -0.1090
 5717W        W 9917   5.196   1.476   9.148 -0.2513  0.1660  0.0538
 5718W        W 9918   1.046   0.356   0.660 -0.0874 -0.0513  0.4017
 5719W        W 9919   4.415   8.401  12.998 -0.3836 -0.2042  0.3436
 5720W        W 9920   6.641   6.870   2.267  0.1925  0.3793 -0.1028
 5721W        W 9921   0.230   3.072   2.798 -0.0473  0.0637 -0.2755
 5722W        W 9922   6.110   8.624   3.784  0.1491  0.0343 -0.2880
 5723W        W 9923   4.548   0.615   3.747  0.0130  0.1080 -0.2289
 5724W        W 9924   5.968  10.282   2.937  0.1734 -0.1218 -0.2259
 5725W        W 9925   8.504   4.312  13.322 -0.2987  0.3034  0.2780
 5726W        W 9926   5.347   8.348  11.370  0.2015 -0.1829 -0.2107
 5727W        W 9927   1.087   1.357  12.441  0.1124 -0.0046 -0.0279
 5728W        W 9928   9.340   4.887   8.530  0.0216  0.2003  0.3825
 5729W        W 9929   5.598   4.525   1.081 -0.0007 -0.0663  0.0789
 5730W        W 9930   3.012   7.284   3.042 -0.3504  0.2119  0.0750
 5731W        W 9931   1.938   5.404   4.894  0.0679 -0.1544 -0.0219
 5732W        W 9932   9.627   1.507  11.022  0.0682 -0.0844  0.2553
 5733W        W 9933   3.720   2.701   3.575  0.4442 -0.2241  0.0085
 5734W        W 9934   7.017   4.521   3.455 -0.2167 -0.0789  0.2420
 5735W        W 9935   8.813   2.119   0.304  0.1272 -0.0790  0.0008
 5736W        W 9936   1.545   2.935  13.202  0.0662  0.2666 -0.0930
 5737W        W 9937   1.220   1.119   2.099  0.2578  0.0451 -0.0553
 5738W        W 9938   3.458   9.356   3.975  0.1295  0.5160 -0.1088
 5739W        W 9939   6.978   4.852   8.119  0.1163  0.0212  0.1549
 5740W        W 9940   8.560   4.027   5.051  0.3656  0.0334 -0.2798
 5741W        W 9941   4.814   2.880  10.802 -0.4410  0.1325 -0.1228
 5742W        W 9942   8.436   3.259   8.798  0.0405 -0.0498  0.1265
 5743W        W 9943   6.580   4.703   0.311 -0.0541  0.0436  0.1284
 5744W        W 9944   3.688   8.130  12.096  0.1152  0.0943 -0.0644
 5745W        W 9945   2.736   5.553   4.808  0.1368  0.0552  0.0105
 5746W        W 9946   9.391   7.425   3.203  0.1365  0.3806 -0.2247
 5747W        W 9947   4.044   4.109   0.525  0.1651 -0.0460 -0.2248
 5748W        W 9948   2.626   9.296   4.062  0.1042  0.1509 -0.2072
 5749W        W 9949   3.356   2.560   1.053  0.1187  0.0717  0.1094
 5750W        W 9950   7.077   5.909  10.990 -0.0608  0.1763 -0.0590
 5751W        W 9951   0.104   7.874  10.346 -0.3471 -0.0866 -0.1924
 5752W        W 9952   8.960   6.935   2.704 -0.0423  0.0888 -0.2773
 5753W        W 9953   2.928   4.037   2.136 -0.0147  0.1357  0.1717
 5754W        W 9954   2.406   3.803   2.123  0.1115 -0.3792  0.0290
 5755W        W 9955   8.625   1.178   9.688  0.1568  0.0386 -0.0239
 5756W        W 9956   7.653   7.477  11.292  0.1126  0.1877 -0.2118
 5757W        W 9957   1.139   6.236   2.374 -0.0671 -0.0097  0.2638
 5758W        W 9958   2.214   2.640   1.107  0.0819 -0.1113 -0.0040
 5759W        W 9959   2.396   4.407   7.779 -0.2774 -0.0686  0.1897
 5760W        W 9960   4.000   3.723  13.332  0.0340 -0.1914  0.0026
 5761W        W 9961   0.148   0.078   2.061 -0.1932 -0.1578 -0.0058
 5762W        W 9962   4.249  10.384   4.310  0.1892  0.1712 -0.0575
 5763W        W 9963   9.122   7.480   9.696  0.0425 -0.0674  0.4439
 5764W        W 9964   8.367   8.658   5.357  0.0488  0.1303 -0.4068
 5765W        W 9965   3.373   3.487   3.821  0.2864  0.1122  0.0273
 5766W        W 9966   6.361   9.060   2.069 -0.0163 -0.0159 -0.0795
 5767W        W 9967   9.232   2.752   8.314  0.0008 -0.2171 -0.2421
 5768W        W 9968   2.092   2.947  10.862  0.1580 -0.0725 -0.3011
 5769W        W 9969   5.828   4.004   4.037  0.1592  0.1066 -0.0961
 5770W        W 9970   9.634   6.132  11.845  0.1017 -0.3071 -0.0793
 5771W        W 9971   2.089   7.705   1.882 -0.0992  0.3981  0.1387
 5772W        W 9972   7.442   8.657  11.753  0.2483 -0.4193 -0.2181
 5773W        W 9973   6.969   2.200   3.229  0.1803 -0.5423 -0.2404
 5774W        W 9974   9.681   3.573  11.151  0.2498 -0.0308 -0.0333
 5775W        W 9975   3.996   8.268   2.498  0.1106 -0.3381  0.2977
 5776W        W 9976   6.149   2.312  13.276 -0.0040 -0.0561  0.0824
 5777W        W 9977   5.359   4.818   2.763 -0.0944 -0.1241  0.1900
 5778W        W 9978   7.010   3.076  12.451 -0.4924  0.0156 -0.1435
 5779W        W 9979   7.994   0.033   4.334 -0.1662  0.0834 -0.0733
 5780W        W 9980   9.040   0.545   1.845  0.0757  0.0696  0.3785
 5781W        W 9981   5.819  10.408   0.865 -0.2612  0.1585  0.1145
 5782W        W 9982   4.679   7.102  13.130  0.0772  0.0828 -0.0354
 5783W        W 9983   1.223   4.801  11.304 -0.1736 -0.1026  0.3648
 5784W        W 9984   9.067   3.156   1.966 -0.4352  0.0806 -0.1679
 5785W        W 9985   7.441   5.829   2.203 -0.2345  0.1060 -0.2068
 5786W        W 9986   1.854   2.054   2.753 -0.0653  0.0382 -0.0286
 5787W        W 9987   6.137   6.597   0.290  0.0835  0.0729 -0.0661
 5788W        W 9988   9.757   9.140   2.316  0.0909  0.4877  0.0475
 5789W        W 9989   4.224   8.869  12.031  0.1620 -0.2471  0.2426
 5790W        W 9990   4.369   1.033   9.738  0.0889  0.2181 -0.3812
 5791W        W 9991   2.882   2.099   4.231 -0.2916 -0.0437 -0.2646
 5792W        W 9992   0.984  10.370  11.942  0.0802 -0.2285 -0.1965
 5793W        W 9993   9.574  10.275  10.777  0.3082  0.3277 -0.2033
 5794W        W 9994   5.033   8.259   0.671 -0.1469 -0.1704  0.3291
 5795W        W 9995   1.906   6.320  11.729  0.1399 -0.0717  0.0279
 5796W        W 9996   9.506  10.029  11.710 -0.3556  0.0882 -0.1021
 5797W        W 9997   2.677   2.140   1.164  0.1740 -0.1835 -0.0705
 5798W        W 9998   8.212   4.928   8.881 -0.1020 -0.0734  0.0761
 5799W        W 9999   0.160   4.666   0.820  0.2494  0.2870  0.1594
 5800W        W10000   3.898   9.895   1.138 -0.0323  0.1362  0.0077
 5801W        W10001   9.173   3.756  10.581  0.0420  0.0521 -0.0920
 5802W        W10002  10.237   2.769  10.959 -0.6152 -0.0801  0.1794
 5803W        W10003   4.166   2.032   0.165 -0.0232  0.2672 -0.0143
 5804W        W10004   5.979   1.222   0.310  0.2889  0.0912 -0.3302
 5805W        W10005   8.113   8.194   4.595  0.0255 -0.1263  0.0435
 5806W        W10006   8.917   2.008  13.194 -0.2760 -0.4207  0.3936
 5807W        W10007   3.331   1.156   0.838 -0.2091  0.0309 -0.2232
 5808W        W10008   1.728   5.535   1.636  0.2385  0.0611  0.0525
 5809W        W10009   4.788   3.585   2.699  0.1216  0.1170  0.1286
 5810W        W10010   0.326  10.489   1.024  0.1547  0.2107  0.1390
 5811W        W10011  10.478   4.990  11.818 -0.1872  0.1845  0.2182
 5812W        W10012   9.207   1.347  12.218  0.0072  0.1175  0.2334
 5813W        W10013   7.314   4.585   8.414  0.1828 -0.0870 -0.0137
 5814W        W10014   9.553   2.306  11.421  0.2158 -0.0841  0.1707
 5815W        W10015   2.080   5.976  12.153  0.0828  0.0705 -0.1122
 5816W        W10016   6.791   1.738   4.281 -0.2838 -0.0308 -0.2079
 5817W        W10017   1.895   1.780   1.438  0.1651  0.0298  0.0761
 5818W        W10018   9.386   4.712   4.446  0.1452  0.1664 -0.2738
 5819W        W10019   7.673   5.049   8.818 -0.0720  0.1248  0.1561
 5820W        W10020   8.626   7.514  12.850  0.2750  0.1427  0.0356
 5821W        W10021   3.807   0.753  11.324 -0.0040  0.1374  0.0761
 5822W        W10022   5.100   5.820   2.617  0.0859 -0.1782  0.1651
 5823W        W10023   5.924   4.096  12.096 -0.3652 -0.1976  0.0693
 5824W        W10024   4.858   4.222   9.926 -0.0191 -0.0869  0.2831
 5825W        W10025   4.145   4.159  12.762  0.4430 -0.1146  0.2228
 5826W        W10026   5.080   2.294  11.926  0.1160  0.0550  0.2362
 5827W        W10027   1.465   7.809   1.418  0.0819  0.0215  0.1846
 5828W        W10028   7.447   7.013   1.745  0.0689  0.0390 -0.2361
 5829W        W10029   0.667   1.001   2.041 -0.1739 -0.1306  0.0553
 5830W        W10030   8.252   5.854   1.923 -0.1252 -0.0561  0.3194
 5831W        W10031   9.270   5.211   4.347  0.0654 -0.0431  0.2451
 5832W        W10032   0.421   0.876  13.025  0.0076  0.1690 -0.0895
 5833W        W10033   4.313   7.093   5.354 -0.1516 -0.1117 -0.3169
 5834W        W10034   4.091   4.216   2.808  0.0233 -0.1963  0.0465
 5835W        W10035   4.073   1.941   9.498 -0.0061  0.1198 -0.0719
 5836W        W10036   4.848   0.039  12.861  0.1349 -0.3013  0.3101
 5837W        W10037   0.446   5.216  10.915 -0.1352 -0.2702 -0.0580
 5838W        W10038   4.851   5.688  11.835  0.2226 -0.1871  0.1304
 5839W        W10039   7.432   2.389   1.934 -0.0299  0.0224 -0.2569
 5840W        W10040   1.880   1.853   0.927 -0.0258  0.2133  0.0166
 5841W        W10041   6.049   2.635   2.852  0.1266  0.1370  0.4288
 5842W        W10042   3.540   6.519  13.267  0.0351  0.2080  0.1469
 5843W        W10043  10.046  10.016   2.855  0.3628  0.1758  0.1910
 5844W        W10044   9.760   2.414   1.617 -0.0676 -0.0648  0.1019
 5845W        W10045   3.003   5.669   2.031 -0.1283 -0.1478  0.2342
 5846W        W10046   4.321   5.329   9.237  0.0106 -0.0297  0.1497
 5847W        W10047   3.891   6.757   0.067  0.2340  0.2035 -0.0593
 5848W        W10048   5.749   7.452   1.469  0.0576  0.2168  0.0199
 5849W        W10049   3.093   0.779   3.190 -0.0902 -0.0624 -0.0515
 5850W        W10050  10.279   4.810   2.918  0.0655 -0.1128 -0.0268
 5851W        W10051   5.932   0.301   9.425  0.1306  0.0452  0.0887
 5852W        W10052   1.682   4.429   9.653  0.1600 -0.1496 -0.0602
 5853W        W10053   6.208   8.008   9.505 -0.3454  0.2844 -0.1613
 5854W        W10054   8.650   2.820   2.141  0.3225  0.4357 -0.2737
 5855W        W10055   0.138   6.157   2.850  0.1620 -0.2116  0.1341
 5856W        W10056   8.531   7.618   8.491  0.0297  0.0292 -0.2342
 5857W        W10057   4.428   1.428  10.930  0.3809  0.0284  0.0315
 5858W        W10058   7.033   7.140  11.620 -0.0639  0.3310 -0.0993
 5859W        W10059   0.148   3.998   5.271  0.0750 -0.1045 -0.1172
 5860W        W10060   1.755   3.008   9.705  0.0398 -0.2403 -0.0222
 5861W        W10061  10.426   3.341   4.163 -0.0631 -0.0929 -0.3557
 5862W        W10062   0.053   3.649  13.358 -0.0394 -0.0508  0.0853
 5863W        W10063   3.157   9.875  10.664  0.1437 -0.1427  0.0164
 5864W        W10064   7.024   6.742   8.689  0.1204 -0.3517 -0.0928
 5865W        W10065   3.160   4.309   9.393 -0.0253 -0.0721  0.4213
 5866W        W10066   7.377   1.262   2.778  0.2038 -0.0631  0.0103
 5867W        W10067   0.966   3.535  13.025  0.2257  0.0996  0.0492
 5868W        W10068   2.610   7.592   1.719 -0.1250  0.0162 -0.0624
 5869W        W10069   9.111   3.231   9.967 -0.0064  0.0133 -0.1483
 5870W        W10070   1.705   9.227  11.376  0.2052  0.1225 -0.1285
 5871W        W10071   7.450   0.041   4.089 -0.1663  0.3051  0.0737
 5872W        W10072   7.430   8.774   3.399  0.0511  0.0613 -0.2325
 5873W        W10073   7.319   3.048   2.176 -0.2950  0.0215 -0.0468
 5874W        W10074   0.343   8.567   9.696 -0.0469  0.1514  0.0199
 5875W        W10075   0.368   5.551   1.440 -0.0020  0.0599 -0.0498
 5876W        W10076   8.437   5.025  10.520  0.0180  0.0053 -0.0943
 5877W        W10077   0.172   1.080   1.808  0.0967 -0.1218 -0.3700
 5878W        W10078   6.380   8.979  13.206 -0.0371 -0.2236  0.1024
 5879W        W10079   8.404   6.360  12.865 -0.0626  0.1724  0.2359
 5880W        W10080   9.319   3.062   8.949  0.1536  0.0087 -0.1603
 5881W        W10081   8.044   6.456  12.047  0.1839 -0.1607  0.2400
 5882W        W10082   1.284   8.035  10.532  0.3359  0.0369 -0.3294
 5883W        W10083   5.083   4.659   4.318  0.0956  0.2542 -0.3022
 5884W        W10084   8.734   7.732  10.281  0.1488 -0.0490  0.2754
 5885W        W10085   9.652   9.641  11.444  0.2297 -0.3122 -0.0889
 5886W        W10086   8.651   0.114   2.772  0.0494  0.0241 -0.3707
 5887W        W10087   5.337   4.724   1.590 -0.3708  0.1205  0.0662
 5888W        W10088   3.186   9.032   0.817  0.2624 -0.0130 -0.3212
 5889W        W10089   9.518   4.701   9.095  0.0135 -0.0597  0.2233
 5890W        W10090   0.292   2.915   9.894 -0.3255  0.2585 -0.1283
 5891W        W10091   7.977   3.595   3.138 -0.3721 -0.1115  0.0631
 5892W        W10092   4.304   5.922   0.438 -0.1957  0.0883 -0.2447
 5893W        W10093   2.755   7.138   9.666 -0.0108  0.1470 -0.1596
 5894W        W10094  10.436   0.769  11.148 -0.1137 -0.1514  0.1045
 5895W        W10095   6.057   5.571  10.796  0.3951 -0.0768 -0.2612
 5896W        W10096   7.206   0.447  13.006 -0.3229 -0.0873 -0.0655
 5897W        W10097   3.080  10.000   2.786 -0.2525  0.2581  0.1543
 5898W        W10098   9.782   9.422   0.558 -0.0748 -0.0357  0.1810
 5899W        W10099   9.941   1.401   8.626 -0.0870  0.0473 -0.0439
 5900W        W10100   2.048   8.854  11.447 -0.1580  0.0605 -0.0134
 5901W        W10101   0.699   2.340   4.573 -0.1409 -0.0226  0.1815
 5902W        W10102   6.229   7.578   3.951  0.2118 -0.2363 -0.0997
 5903W        W10103   0.419   5.098   3.839  0.3951  0.2820  0.0650
 5904W        W10104   4.666   0.662   3.274  0.0107 -0.3167  0.0388
 5905W        W10105   1.895   3.175  12.185 -0.0067 -0.1302  0.1550
 5906W        W10106   4.953   1.800  12.177  0.0098 -0.0124 -0.0081
 5907W        W10107   3.316   2.692  12.452 -0.0310 -0.2185  0.0895
 5908W        W10108   3.369   8.941   2.550 -0.3545  0.2421 -0.0596
 5909W        W10109   0.007   4.920   8.257  0.2115  0.1207  0.0150
 5910W        W10110   4.982   0.653   0.542  0.1940  0.0591  0.1401
 5911W        W10111   9.381   2.101   3.163 -0.3113 -0.2812 -0.0028
 5912W        W10112   6.393   3.831   1.153 -0.0808  0.0359 -0.0510
 5913W        W10113   5.410   9.556   0.386 -0.0437  0.1024  0.1096
 5914W        W10114   7.066   0.197   4.349  0.0181  0.1775 -0.1186
 5915W        W10115   8.353   2.366   1.351 -0.2174 -0.1115  0.4300
 5916W        W10116   9.098   6.679  10.307 -0.1262 -0.0547  0.1005
 5917W        W10117   1.380   9.584   2.784 -0.1322 -0.1920  0.0417
 5918W        W10118   9.321   6.394  11.505  0.0902  0.0615  0.2634
 5919W        W10119  10.498   6.750   1.344  0.0012 -0.2792 -0.0905
 5920W        W10120   9.253   9.379   2.156 -0.0942  0.0089  0.0122
 5921W        W10121   8.391   4.940  12.476 -0.1777  0.0919  0.2872
 5922W        W10122   7.416   1.865   9.059  0.0690 -0.0779 -0.2316
 5923W        W10123   9.251   1.616   1.481 -0.1487 -0.0496  0.2054
 5924W        W10124   5.650   6.103   9.947  0.0949  0.1452 -0.1473
 5925W        W10125   4.677   1.890   4.933  0.0431  0.1420 -0.0421
 5926W        W10126   7.713   9.187   2.095  0.2482 -0.3331 -0.4738
 5927W        W10127   7.758   2.737   9.495 -0.0694 -0.3604  0.4154
 5928W        W10128   1.192   1.827  12.499 -0.1692  0.1473 -0.1948
 5929W        W10129   0.996  10.295   1.817  0.3244 -0.0953 -0.0073
 5930W        W10130   9.361   8.293   0.465 -0.0822 -0.0128  0.2908
 5931W        W10131  10.337   7.923   1.365 -0.1275  0.2927 -0.3323
 5932W        W10132   6.963   2.846   4.336  0.0131 -0.1802  0.3489
 5933W        W10133  10.201   9.086   2.687  0.4845  0.1313 -0.0440
 5934W        W10134   3.970   2.377   4.446  0.0023  0.0725  0.1745
 5935W        W10135   3.667   4.061   9.119  0.1480  0.2115 -0.2280
 5936W        W10136   0.343   5.686   8.630  0.0217  0.0814 -0.2158
 5937W        W10137   1.394   5.064   2.303  0.3375  0.0902 -0.1358
 5938W        W10138   6.312  10.486   3.237 -0.2573 -0.1068 -0.0145
 5939W        W10139   8.596   6.195   8.752  0.2457  0.0286 -0.2847
 5940W        W10140   8.962   4.132   9.518 -0.1131 -0.0119  0.0654
 5941W        W10141   4.127   0.636  11.731 -0.2941  0.0189  0.0948
 5942W        W10142   1.354   8.448  12.876  0.4831 -0.3708 -0.0821
 5943W        W10143   3.669   8.687  12.136 -0.2483  0.1341  0.0585
 5944W        W10144   8.743   2.411  10.428  0.2471 -0.2011  0.0110
 5945W        W10145  10.436   0.843   1.421  0.3850  0.1027  0.3668
 5946W        W10146   5.749   9.104  10.847 -0.0379  0.3390  0.4344
 5947W        W10147   0.950   4.561  10.461  0.1504 -0.2823  0.0979
 5948W        W10148   4.937   7.138   1.187  0.1884  0.3021 -0.2681
 5949W        W10149   9.240   4.671   0.642 -0.0796 -0.0536  0.0703
 5950W        W10150   0.228   2.687  12.029  0.4093  0.0206  0.1521
 5951W        W10151   5.729   1.438   1.678 -0.2758  0.1056  0.3616
 5952W        W10152   4.980   4.601   9.466 -0.0877  0.2248  0.0878
 5953W        W10153   1.621   7.633  11.650 -0.0781  0.0883 -0.1401
 5954W        W10154   0.210   1.239   2.312 -0.0618  0.0983  0.0900
 5955W        W10155   1.989   5.413   8.036 -0.0122 -0.1973  0.1588
 5956W        W10156   0.407   1.386  13.254  0.2503 -0.3399  0.2995
 5957W        W10157   6.609   0.209   4.586  0.1381  0.0196 -0.2476
 5958W        W10158   5.741   0.206  12.740  0.2700 -0.2152  0.0745
 5959W        W10159  10.131   7.249  12.772  0.0162  0.1616 -0.2021
 5960W        W10160   8.305   9.702  13.192 -0.3669 -0.1144 -0.2212
 5961W        W10161   1.969   5.864   4.166  0.2917  0.0876 -0.0381
 5962W        W10162   6.152  10.125   0.588  0.1567  0.0283  0.1134
 5963W        W10163   5.084  10.267  10.232 -0.2314 -0.0945 -0.1602
 5964W        W10164   5.869   1.612   0.616  0.2282  0.1163  0.0170
 5965W        W10165   7.891   7.855   1.872  0.0854  0.0298 -0.1466
 5966W        W10166   7.643   2.365  12.254 -0.0545  0.0406  0.0615
 5967W        W10167   2.151  10.208  10.469 -0.1922  0.0458  0.0793
 5968W        W10168   0.988   7.322  11.030  0.1648 -0.1536 -0.4542
 5969W        W10169   8.606   3.235   1.958  0.3054 -0.1408 -0.1865
 5970W        W10170   4.520   9.372  12.711  0.0748  0.1301  0.1373
 5971W        W10171   2.979   2.882  10.870  0.1137  0.1216  0.3737
 5972W        W10172   2.327   3.645  12.035 -0.1925  0.0284  0.0248
 5973W        W10173   1.764   9.473  13.186 -0.2028  0.0261  0.2321
 5974W        W10174   8.333   1.955  13.337  0.0383  0.1788  0.1351
 5975W        W10175   6.931   1.159   3.000  0.0627  0.2662 -0.0575
 5976W        W10176   5.806   8.419   4.164 -0.1402 -0.1390  0.0544
 5977W        W10177   5.921   9.793  12.567  0.2446 -0.0807 -0.1938
 5978W        W10178   5.737   2.922   4.717  0.0040  0.1194  0.4566
 5979W        W10179   2.198   2.128   1.133 -0.1336 -0.0904  0.1575
 5980W        W10180   4.621   5.890   4.270  0.1738  0.1663 -0.2451
 5981W        W10181   1.984   5.507   3.357 -0.3089  0.0814 -0.1209
 5982W        W10182   9.641   6.343   1.008 -0.2236 -0.2133 -0.1763
 5983W        W10183   9.892   0.040  12.768  0.3198 -0.0434 -0.7689
 5984W        W10184   2.206   6.470   3.189  0.2576 -0.0770 -0.0515
 5985W        W10185   3.494  10.035  12.546 -0.2059  0.0851 -0.1932
 5986W        W10186   8.628   3.260   3.909 -0.0350  0.1038 -0.0970
 5987W        W10187   6.374   5.103   2.297  0.1730  0.1240 -0.0409
 5988W        W10188   0.774   9.126   1.174 -0.0671  0.0957  0.4223
 5989W        W10189   6.506   1.410   2.348 -0.1404  0.0915 -0.2172
 5990W        W10190   5.787   9.250   0.399  0.1610  0.2278  0.4228
 5991W        W10191  10.399   0.325   1.246  0.0604  0.0265  0.1213
 5992W        W10192  10.366   8.791  10.552 -0.4825  0.1767 -0.2937
 5993W        W10193   0.428   3.920   3.834 -0.1026 -0.2035 -0.3184
 5994W        W10194   1.624   0.777   2.258 -0.0955  0.0448  0.1151
 5995W        W10195   5.336   8.401   3.124  0.0296 -0.1361 -0.2390
 5996W        W10196   4.210   9.399   2.790 -0.2075 -0.2340  0.1863
 5997W        W10197   8.998   9.856   2.278  0.0237 -0.2780  0.0278
 5998W        W10198   2.168   9.232   1.126  0.0187 -0.2569 -0.2382
 5999W        W10199   0.164   3.442   1.351 -0.0596 -0.2115  0.0850
 6000W        W10200   2.482   2.046   8.732  0.3473 -0.3323 -0.4237
 6001W        W10201   5.229   3.510   2.313  0.1635  0.3255 -0.1728
 6002W        W10202   2.775   8.772   0.783  0.2851 -0.0407  0.0384
 6003W        W10203   3.548   2.835   9.145  0.3687 -0.0987 -0.0489
 6004W        W10204   9.982   8.657   1.109 -0.2492  0.1212 -0.0744
 6005W        W10205   1.660   5.939  13.180  0.1572 -0.0868 -0.0192
 6006W        W10206   5.116   6.773   3.927 -0.3032 -0.0102  0.1935
 6007W        W10207   3.918   8.764   9.454 -0.1500  0.0715 -0.0140
 6008W        W10208   3.132   8.352   3.295 -0.2476  0.1380  0.2078
 6009W        W10209   6.267   6.491   2.506 -0.0785  0.3165 -0.1030
 6010W        W10210   5.074   5.761   2.058 -0.1941  0.1169 -0.1841
 6011W        W10211   5.380   5.491   1.193 -0.0528 -0.1017  0.1220
 6012W        W10212   3.118  10.453   2.104 -0.2809  0.1779 -0.3422
 6013W        W10213   8.447   8.066   0.837 -0.4116 -0.0586  0.0219
 6014W        W10214   1.815   6.136  12.714 -0.0720  0.0675  0.1352
 6015W        W10215   3.532   4.027  10.746 -0.0752  0.0331  0.1436
 6016W        W10216   9.912   9.925  10.424  0.1057 -0.5104  0.0965
 6017W        W10217   5.602   6.170   3.995 -0.3239 -0.1617  0.1851
 6018W        W10218   2.803   1.261   3.092  0.1046  0.3083  0.0366
 6019W        W10219   7.104   4.938   1.117  0.1788 -0.2101 -0.2260
 6020W        W10220   8.496   4.979   4.722  0.1869 -0.4103  0.0390
 6021W        W10221   4.600   8.701   3.206 -0.1128  0.2723  0.0758
 6022W        W10222   1.196   2.216   5.253 -0.0335 -0.0420 -0.1977
 6023W        W10223   5.106   7.848  11.565  0.0469  0.4810  0.1334
 6024W        W10224   8.529   0.348   1.135 -0.0259 -0.2687  0.0316
 6025W        W10225   6.086   7.318   0.779 -0.1140  0.1033 -0.1309
 6026W        W10226   5.934   5.780  10.303 -0.0084  0.2212 -0.3379
 6027W        W10227   9.007   3.203   4.244 -0.1457  0.2403 -0.0634
 6028W        W10228   0.363   2.603  10.305 -0.1812 -0.1012  0.1654
 6029W        W10229   9.833   5.708   4.290 -0.0602 -0.1023 -0.0383
 6030W        W10230   6.874  10.477  10.312  0.1705 -0.2892  0.2775
 6031W        W10231   2.409   8.133   1.066 -0.1166 -0.1371 -0.1634
 6032W        W10232   1.202   6.513  11.089 -0.1461  0.1049 -0.2409
 6033W        W10233   7.125   3.940   0.627 -0.0861 -0.1237 -0.1958
 6034W        W10234   4.030   8.177   0.156  0.0155 -0.0365  0.0212
 6035W        W10235   3.823   4.348  12.397  0.0350  0.0557 -0.0302
 6036W        W10236   5.635   0.717  10.698 -0.0982  0.1210 -0.0797
 6037W        W10237   9.336   2.910  13.147 -0.4059 -0.3152  0.0569
 6038W        W10238   9.631   4.327   4.736  0.0446 -0.1273  0.2015
 6039W        W10239   5.551   9.310  11.667  0.1511 -0.0272 -0.2749
 6040W        W10240   6.446   9.937   9.574  0.0151  0.1029 -0.1557
 6041W        W10241   7.434   1.482  12.308  0.0134 -0.0073  0.0911
 6042W        W10242   6.863   4.286   3.990  0.0994  0.0058  0.2565
 6043W        W10243   6.362   1.369  13.078  0.0439  0.2349 -0.1116
 6044W        W10244   6.286   0.387   2.372 -0.1567  0.1678  0.0021
 6045W        W10245   5.792   9.760   3.287  0.3619  0.0507 -0.3631
 6046W        W10246   4.813   9.021   3.610  0.1283 -0.1727  0.0052
 6047W        W10247   0.355   3.975   1.301 -0.2080 -0.0373  0.1747
 6048W        W10248   1.775   9.048   2.035 -0.1969 -0.0509  0.1397
 6049W        W10249   9.513   8.122  10.892 -0.0227  0.0423 -0.1852
 6050W        W10250   5.854   5.232  12.825  0.0706 -0.0975 -0.1573
 6051W        W10251   6.946   2.717   2.395 -0.0584 -0.0223 -0.0929
 6052W        W10252   4.063   2.872   2.232 -0.0098  0.1589 -0.0233
 6053W        W10253   3.365   7.143   8.921  0.1337 -0.2161  0.0457
 6054W        W10254  10.387   6.777   9.677  0.0970  0.2187  0.0964
 6055W        W10255   9.941   3.061  13.034  0.1161  0.0568 -0.2806
 6056W        W10256   8.488   4.489  12.285 -0.2121  0.1964  0.1989
 6057W        W10257   2.319   8.082   8.933  0.1249 -0.0849  0.0535
 6058W        W10258   6.986   6.152   2.906  0.0144  0.2611 -0.0131
 6059W        W10259   4.235  10.426   0.503  0.0492  0.0067 -0.0102
 6060W        W10260   1.516   6.163   4.199 -0.3177  0.2618 -0.0621
 6061W        W10261   9.660   4.447   0.737 -0.2989 -0.0497  0.0315
 6062W        W10262   5.590   2.559  12.797  0.1394 -0.3484 -0.0065
 6063W        W10263   2.473   1.578  10.988  0.3287 -0.1539  0.0322
 6064W        W10264   4.234   4.475   1.790  0.4938 -0.0958 -0.0011
 6065W        W10265   0.060   8.527  10.098 -0.1506  0.4826  0.0116
 6066W        W10266   2.149   0.935   2.276  0.2629  0.0633 -0.1077
 6067W        W10267   9.508   8.422   3.625  0.2665  0.0233 -0.3345
 6068W        W10268   9.668   0.732   0.223  0.2490 -0.1839 -0.1250
 6069W        W10269   7.720   1.863   5.176  0.3167  0.0022  0.1578
 6070W        W10270   6.206   8.872   1.542  0.3839  0.0816  0.0714
 6071W        W10271   8.948   9.707   3.676  0.0819 -0.1384 -0.1737
 6072W        W10272   5.321  10.349   1.742  0.4859 -0.0539  0.1046
 6073W        W10273   3.885   6.525   0.798  0.0812  0.1398  0.0300
 6074W        W10274   1.877  10.067  12.426  0.0384  0.1698 -0.2043
 6075W        W10275  10.286   6.852   9.174  0.0723  0.0791 -0.1223
 6076W        W10276   6.858   2.389   0.559 -0.0348 -0.0382  0.0338
 6077W        W10277   1.504  10.360   2.476  0.4926  0.3822  0.0307
 6078W        W10278   2.221   2.666   0.470  0.1053  0.2046 -0.0817
 6079W        W10279  10.280   1.888   0.868  0.0763 -0.0746  0.1199
 6080W        W10280   2.566   3.831   3.416 -0.1280  0.0721  0.3056
 6081W        W10281   7.163   7.475   2.880  0.1137  0.0054  0.0656
 6082W        W10282   2.309   3.510   1.657  0.0823  0.1958 -0.1913
 6083W        W10283   0.893   6.561  11.849  0.3347 -0.2268 -0.1907
 6084W        W10284   1.230   3.491   4.112 -0.2879 -0.0454  0.1013
 6085W        W10285   4.992   4.170  11.775 -0.0947  0.0671 -0.1638
 6086W        W10286   4.586   2.627   9.461 -0.4841  0.1372 -0.1293
 6087W        W10287   2.491   8.776  10.992 -0.3260  0.2515 -0.2859
 6088W        W10288   9.692   8.490   2.965  0.3563  0.3012 -0.1334
 6089W        W10289  10.228   7.674   3.674  0.0583 -0.1161 -0.0983
 6090W        W10290   6.218   6.939  12.812  0.1364  0.0956  0.0979
 6091W        W10291   0.037   3.458   2.493 -0.1227  0.1005 -0.1931
 6092W        W10292   3.764   4.253   1.561 -0.1632 -0.1900 -0.1954
 6093W        W10293   0.350   5.867  10.071  0.1880  0.2984  0.0176
 6094W        W10294   4.136   8.034  10.625 -0.0148  0.1051  0.0127
 6095W        W10295  10.043   2.655   9.399  0.1191  0.2367  0.4160
 6096W        W10296   6.100   9.161   3.875 -0.0808  0.1298 -0.2887
 6097W        W10297   3.345   5.130  10.227 -0.4702 -0.0108  0.2392
 6098W        W10298  10.091   6.821  11.893 -0.2740  0.0991  0.0501
 6099W        W10299   6.951   8.832  11.635 -0.0631 -0.0638 -0.2284
 6100W        W10300   7.585   9.977   3.243 -0.1768  0.0404  0.0533
 6101W        W10301   2.871   5.550   1.180 -0.1270 -0.0233  0.0438
 6102W        W10302   5.552   2.547   2.789  0.0088  0.1858 -0.1503
 6103W        W10303   2.768   9.783   1.135 -0.3402  0.0958  0.0947
 6104W        W10304   4.435   6.002   3.353 -0.3176 -0.0688 -0.2643
 6105W        W10305   8.654   9.593  12.839 -0.4441  0.0335  0.1791
 6106W        W10306   5.311   8.876   4.344 -0.4328 -0.0395 -0.1240
 6107W        W10307   2.983   0.254   0.300 -0.1380  0.1889  0.3328
 6108W        W10308   5.210   7.406  13.133  0.0094 -0.0165 -0.0349
 6109W        W10309   4.355  10.413  12.061 -0.2064 -0.2663 -0.3350
 6110W        W10310   1.386   6.009   2.729  0.0623 -0.1071  0.0389
 6111W        W10311   2.680   6.055  13.187  0.0280  0.3306  0.0600
 6112W        W10312   1.218   9.806   1.151  0.0032 -0.2704  0.0906
 6113W        W10313   6.101  10.338   9.494  0.0526  0.0218  0.1705
 6114W        W10314   5.179   2.910   8.672  0.0934  0.0734  0.1444
 6115W        W10315   1.397   2.764   2.454 -0.2456 -0.1894 -0.1574
 6116W        W10316   7.580   5.981   0.065  0.0205  0.1040 -0.0466
 6117W        W10317   6.578   8.093  12.014 -0.5125 -0.1263  0.0134
 6118W        W10318   9.036   9.081   3.003 -0.2962  0.0048 -0.0680
 6119W        W10319   4.466   3.205   2.039  0.1656 -0.2551  0.2338
 6120W        W10320   6.117   2.743   8.783 -0.1301 -0.1392 -0.0689
 6121W        W10321   2.285   3.056  10.162  0.2601  0.2197 -0.1538
 6122W        W10322   6.327   5.490   0.608 -0.1426 -0.2508  0.2337
 6123W        W10323   7.223   1.991   9.536 -0.2942 -0.1711 -0.3679
 6124W        W10324   6.563   1.199  12.470 -0.0871 -0.1695 -0.0789
 6125W        W10325   7.640   5.550   8.894  0.0615  0.0153  0.1977
 6126W        W10326   2.679   1.691   2.451 -0.0242  0.2379 -0.0545
 6127W        W10327   1.043   4.532   2.019  0.0334  0.0611  0.0056
 6128W        W10328   0.271   8.020   2.416  0.2414  0.1461 -0.1057
 6129W        W10329   9.839   0.005  11.165  0.0042 -0.1823 -0.0200
 6130W        W10330   8.575   0.322   3.217 -0.2890 -0.0455 -0.2743
 6131W        W10331   1.962   9.484  12.347  0.2063  0.2459 -0.2561
 6132W        W10332   6.144   4.238   9.917  0.1324  0.0297 -0.2142
 6133W        W10333   4.099   0.688   1.100  0.1929 -0.5875  0.1937
 6134W        W10334   8.768   0.298  10.021  0.0091 -0.2463 -0.1050
 6135W        W10335   4.545   2.808   2.342 -0.0948  0.1653 -0.0847
 6136W        W10336   9.217   6.181   0.773  0.2593  0.0484  0.0458
 6137W        W10337   3.576   5.851  11.603 -0.0299  0.0027 -0.1457
 6138W        W10338   4.911   8.161   4.108  0.3386  0.0943  0.1610
 6139W        W10339   5.789   3.616  12.915  0.0677  0.4517  0.2622
 6140W        W10340   4.160   8.831  11.353  0.0909 -0.1799  0.0720
 6141W        W10341   8.229   0.596   9.994  0.2054  0.0442 -0.1173
 6142W        W10342   3.793   4.821   2.719 -0.1303  0.1628  0.0894
 6143W        W10343   2.218   0.637   9.474  0.2977 -0.2838  0.3596
 6144W        W10344   4.956   6.001   3.505 -0.1853  0.0391 -0.1041
 6145W        W10345   7.014   0.229   4.888 -0.3182 -0.0125 -0.0574
 6146W        W10346   7.487   7.532  12.767  0.1388 -0.0347 -0.1418
 6147W        W10347   0.102   3.342   1.975 -0.0319 -0.6998 -0.0482
 6148W        W10348  10.360   9.064  11.311 -0.0650 -0.0277  0.1264
 6149W        W10349   3.449  10.388   3.715  0.3107  0.1922 -0.0907
 6150W        W10350   1.403   0.664  11.981 -0.3043 -0.0796 -0.3484
 6151W        W10351   4.461   7.655   9.405 -0.2655 -0.0563 -0.1132
 6152W        W10352   8.862   2.629  12.965 -0.2737 -0.0194  0.1115
 6153W        W10353  10.002   9.714  11.839  0.1138  0.0734  0.0308
 6154W        W10354   8.998   0.478   2.957  0.0183  0.3033  0.2654
 6155W        W10355   2.678   4.690   4.258  0.0096 -0.2399 -0.0145
 6156W        W10356   7.513   9.652  13.221  0.0264  0.1465  0.5877
 6157W        W10357   7.042   6.249   4.486 -0.3112 -0.0645  0.1388
 6158W        W10358   7.863   5.605   9.808  0.2002 -0.0430 -0.1480
 6159W        W10359   3.842   7.298   0.334 -0.1542  0.0971  0.2528
 6160W        W10360   5.086   5.016   3.997 -0.5845  0.0361 -0.0670
 6161W        W10361   0.288   0.303   2.476 -0.0454 -0.1610 -0.0682
 6162W        W10362   6.490   4.183   0.850 -0.0345 -0.1707 -0.0028
 6163W        W10363   9.952   1.442   3.415 -0.3929  0.0219  0.0730
 6164W        W10364   3.053   2.423   2.323  0.1672  0.1714  0.0275
 6165W        W10365   5.378   9.116  10.251 -0.1931  0.0299 -0.0030
 6166W        W10366   9.391   9.853  10.526  0.0717  0.0988  0.1569
 6167W        W10367   6.035   8.815   0.259 -0.0947 -0.2775  0.0773
 6168W        W10368   6.477   9.653  13.213 -0.1182  0.3012  0.1922
 6169W        W10369   2.270   1.237   3.146 -0.0921 -0.0114 -0.1024
 6170W        W10370   5.496   2.795   1.027  0.0023 -0.0622  0.1045
 6171W        W10371   6.452   2.084  10.323  0.0827  0.0839 -0.1535
 6172W        W10372   4.026   2.412  11.891  0.0976 -0.0279  0.0185
 6173W        W10373  10.152  10.491   2.967 -0.0176  0.2152  0.1227
 6174W        W10374   5.853   6.582  13.088  0.0221  0.0009  0.0957
 6175W        W10375   6.349   2.246   1.759 -0.1385  0.0388 -0.2152
 6176W        W10376   6.141   0.639   9.068  0.0307  0.0407  0.0857
 6177W        W10377   2.495   3.170   1.153 -0.0975  0.1528 -0.0309
 6178W        W10378   1.741   2.316   1.330  0.1105  0.0474  0.0455
 6179W        W10379   9.510   8.656  11.022 -0.0162 -0.0238 -0.1172
 6180W        W10380   7.946   0.795  11.141  0.3111  0.0317 -0.0726
 6181W        W10381   8.097   8.099   3.616 -0.4313  0.0268  0.1894
 6182W        W10382   5.491   2.574  12.047  0.3496 -0.0820 -0.1948
 6183W        W10383   3.945   4.229  13.187  0.1575  0.0651 -0.0453
 6184W        W10384   1.634   3.778  10.204  0.0536 -0.0304  0.2731
 6185W        W10385   1.185   6.777  12.928 -0.1382 -0.1927  0.1443
 6186W        W10386   0.127   8.345  11.795 -0.1084 -0.0420  0.3915
 6187W        W10387   9.987   1.460   2.907  0.2296  0.3121  0.0087
 6188W        W10388   9.909   3.665   2.565  0.1114 -0.1692 -0.3964
 6189W        W10389   1.355   1.317   3.041 -0.1702 -0.0038  0.1458
 6190W        W10390   2.167   8.218  12.902  0.1986  0.1930  0.0693
 6191W        W10391   3.905   0.851   2.050 -0.0557  0.2153 -0.1150
 6192W        W10392   4.216   2.801   2.858  0.0349  0.2858 -0.1792
 6193W        W10393   7.233   4.642   0.074  0.1719 -0.1378 -0.2114
 6194W        W10394   3.035   2.556   4.235  0.0149 -0.0162  0.0182
 6195W        W10395   7.502   8.583  12.289 -0.0375 -0.0082 -0.1850
 6196W        W10396   1.165   2.314   1.174  0.2306  0.0320  0.0222
 6197W        W10397   8.512   9.804   3.151  0.1728  0.1173 -0.1784
 6198W        W10398   3.503   0.384  10.026  0.0710  0.0828 -0.0945
 6199W        W10399   3.968   7.725   2.802 -0.1679  0.3167  0.1607
 6200W        W10400   9.451   1.515  10.583 -0.2704  0.0298  0.1146
 6201W        W10401   7.754   7.395   1.261 -0.2371 -0.0714 -0.0437
 6202W        W10402   0.545   6.441  10.354  0.1941 -0.0333  0.0240
 6203W        W10403   2.180   8.721   0.140 -0.0979  0.0673 -0.0342
 6204W        W10404   2.908   4.782   9.416 -0.2618 -0.0956  0.1321
 6205W        W10405   9.081   2.171   0.749 -0.0876  0.1648 -0.3159
 6206W        W10406   9.778   7.411  13.197  0.0762 -0.0860 -0.2991
 6207W        W10407   4.464   1.907   0.656 -0.2222 -0.1797 -0.0240
 6208W        W10408   7.482   1.362   2.239  0.0394  0.2969 -0.1763
 6209W        W10409   2.055   6.795   2.887  0.0245 -0.3139 -0.1607
 6210W        W10410   4.846   1.446   5.065  0.0190 -0.1641 -0.0138
 6211W        W10411   3.804   4.440  10.732  0.1333 -0.1394 -0.3069
 6212W        W10412   5.465   2.775   0.490  0.0367  0.1801  0.0209
 6213W        W10413   8.672   6.016  12.655  0.1417  0.2035 -0.2207
 6214W        W10414   0.356   8.145  11.382  0.1063 -0.2906  0.2424
 6215W        W10415   9.068   1.203   9.374  0.0753 -0.0172  0.3024
 6216W        W10416   7.091   8.798   3.013 -0.1210  0.0675 -0.0645
 6217W        W10417   1.456  10.314  11.070 -0.0339  0.0610 -0.0050
 6218W        W10418   1.096   1.496   2.564 -0.5006  0.0048 -0.0219
 6219W        W10419   1.459   5.525   2.639 -0.1090 -0.1184 -0.0798
 6220W        W10420   6.878  10.210   9.150  0.2485 -0.1256 -0.1484
 6221W        W10421   8.224   1.125   2.822  0.4435 -0.1526  0.2110
 6222W        W10422   1.920   1.156  11.011  0.0527 -0.0749  0.2486
 6223W        W10423   9.739   0.376   9.683  0.2411 -0.0101 -0.3700
 6224W        W10424   2.134   1.578  12.448 -0.0851 -0.0720  0.0660
 6225W        W10425   7.096   2.524   8.982  0.3424 -0.3120 -0.0028
 6226W        W10426   3.729   5.961  10.051  0.0096  0.0555 -0.0401
 6227W        W10427   8.951  10.060   3.372 -0.1116 -0.0996 -0.1066
 6228W        W10428   8.331   2.833   2.553  0.0652  0.0675 -0.1284
 6229W        W10429   3.126   6.143   4.424  0.0177 -0.0882 -0.0152
 6230W        W10430   3.847   5.975   3.684  0.1179 -0.5166 -0.3746
 6231W        W10431   6.619   6.146   1.733 -0.0304  0.1958  0.2525
 6232W        W10432   6.257   0.229  12.738  0.1821 -0.4381 -0.0159
 6233W        W10433   2.010   4.568  10.138  0.1091 -0.0380  0.2699
 6234W        W10434   5.498   2.023  10.045  0.2488  0.1229  0.1719
 6235W        W10435   3.919   0.635   3.820 -0.0809  0.2714  0.2453
 6236W        W10436   9.400   6.427  13.213 -0.1986  0.3342 -0.3481
 6237W        W10437   0.164   1.424   4.248  0.1242  0.0073  0.1742
 6238W        W10438   7.437   4.814   2.174  0.0299 -0.0684 -0.0551
 6239W        W10439   5.309   1.696  11.240  0.0581 -0.0634  0.4765
 6240W        W10440   2.118   6.561  12.189  0.0389  0.1858  0.0608
 6241W        W10441   1.672   6.539   1.580  0.0831  0.2048 -0.0690
 6242W        W10442   9.274   7.303  12.247 -0.0656 -0.2648 -0.0492
 6243W        W10443   7.078   9.691  10.105  0.1183 -0.0188  0.1174
 6244W        W10444   9.993   4.749   9.953 -0.0623  0.0482  0.0666
 6245W        W10445   2.176   6.800   3.609 -0.0117  0.0809  0.2454
 6246W        W10446   5.933  10.218  11.907 -0.3881  0.1938  0.0687
 6247W        W10447   9.591   3.362  11.983 -0.0652 -0.0272 -0.1775
 6248W        W10448   9.409   3.611   3.362  0.0321  0.0747 -0.0980
 6249W        W10449   6.202   1.785   1.150 -0.1994 -0.0103  0.3937
 6250W        W10450   2.078   5.302   0.224  0.2531  0.1444 -0.1515
 6251W        W10451   9.046   9.973  10.166  0.3221  0.0542  0.4373
 6252W        W10452  10.363   1.959   2.205 -0.2080  0.1256  0.1223
 6253W        W10453   3.173   8.049  10.713 -0.0044  0.0254 -0.0334
 6254W        W10454   3.536   4.347  12.813 -0.0795  0.0241 -0.0853
 6255W        W10455   5.507   9.710  12.978 -0.0457  0.5607 -0.2751
 6256W        W10456  10.333   1.962  12.601 -0.1791 -0.1557 -0.0562
 6257W        W10457   9.480   7.640   1.033 -0.0075  0.1681 -0.1637
 6258W        W10458   3.667   8.109   2.867  0.0410 -0.2228  0.0265
 6259W        W10459   3.463   0.936  10.373 -0.2482  0.2489  0.0699
 6260W        W10460   9.238   1.832   3.842  0.1539 -0.1379 -0.0537
 6261W        W10461   1.240   8.627   3.135  0.2200  0.0230 -0.1276
 6262W        W10462   3.283   2.908  11.637 -0.0080 -0.1999 -0.0479
 6263W        W10463   5.335   1.519   8.678 -0.0625 -0.1168 -0.1335
 6264W        W10464   5.689   3.742   0.015  0.1642 -0.3433  0.0578
 6265W        W10465   8.638   5.131   4.064  0.2812 -0.4838 -0.1880
 6266W        W10466   7.292   0.552   8.930 -0.0626  0.0611 -0.1483
 6267W        W10467   8.150   3.224   1.377 -0.0254 -0.1834 -0.1647
 6268W        W10468   1.875   7.502  10.493  0.0421  0.1298 -0.0921
 6269W        W10469   8.094   2.796  11.751  0.1304  0.1215  0.0263
 6270W        W10470   9.133   6.004  11.747  0.1084 -0.2379 -0.1252
 6271W        W10471   3.095   4.698  12.860 -0.0355 -0.0920  0.0849
 6272W        W10472   4.980  10.435   4.963 -0.0574 -0.2002 -0.0570
 6273W        W10473   1.003   0.753   3.325 -0.2084 -0.1170 -0.3821
 6274W        W10474   4.161   3.171   1.006  0.2638 -0.3608 -0.1722
 6275W        W10475  10.161   9.132   1.912  0.1334 -0.0965  0.1292
 6276W        W10476   1.921   0.445   9.848 -0.1317  0.1477  0.3189
 6277W        W10477   4.570   1.515   3.652 -0.2100 -0.3669 -0.1585
 6278W        W10478   4.222   8.472   9.849  0.3705 -0.1138  0.2761
 6279W        W10479   3.647   0.562   1.264 -0.1369 -0.1887 -0.0644
 6280W        W10480   0.180   6.919   0.514 -0.2117  0.0653  0.1900
 6281W        W10481   5.058   1.357   0.332 -0.0573 -0.1677 -0.2318
 6282W        W10482   1.410   4.355  11.511  0.0728 -0.1538 -0.1833
 6283W        W10483   0.468   4.461  11.361  0.2004 -0.1153 -0.1033
 6284W        W10484   6.379   7.962   9.997 -0.0193  0.3856  0.3291
 6285W        W10485   8.280   3.703   9.732  0.1252 -0.0701  0.3006
 6286W        W10486   9.863   9.242  11.120  0.0188 -0.1165 -0.1335
 6287W        W10487   8.691   5.673   1.749  0.1319 -0.2563  0.0083
 6288W        W10488   5.468   8.816  11.802 -0.0957 -0.0892 -0.0357
 6289W        W10489   3.570   5.351   1.849 -0.1008 -0.0914  0.1332
 6290W        W10490   2.730   1.483   0.441  0.1297 -0.0217 -0.2704
 6291W        W10491   8.593   6.800   3.854  0.2133  0.0722  0.0826
 6292W        W10492   0.626   6.947  12.173 -0.0383  0.0629  0.1495
 6293W        W10493   1.268   2.757   0.211 -0.1064 -0.1483  0.5894
 6294W        W10494  10.282   7.260   0.732 -0.3896  0.0004 -0.0807
 6295W        W10495   6.577   0.830   8.953 -0.1917 -0.3098 -0.1062
 6296W        W10496   6.722   3.360  10.242 -0.2235  0.0640  0.4251
 6297W        W10497   4.838   3.618  12.941 -0.3445 -0.0880  0.2889
 6298W        W10498   3.331   8.368   8.965  0.3430  0.0623 -0.0021
 6299W        W10499   9.421   6.587   9.377 -0.0668 -0.1305  0.0786
 6300W        W10500   8.799   5.108   9.437 -0.0290 -0.0842  0.1106
 6301W        W10501   2.812   3.352  11.966  0.0474  0.1708  0.0121
 6302W        W10502  10.383   5.720   3.147  0.0340  0.0841 -0.2911
 6303W        W10503  10.449   3.657   3.292  0.3374 -0.0585  0.0795
 6304W        W10504   3.771   4.417   3.079  0.5256 -0.4050 -0.0759
 6305W        W10505   6.570   3.954  10.629 -0.0378  0.0117 -0.0874
 6306W        W10506   0.105   2.601  11.355 -0.0547 -0.0456  0.1146
 6307W        W10507   9.595   2.165   2.653 -0.3799  0.3526 -0.0130
 6308W        W10508   4.816   5.166  10.253 -0.1293 -0.0807  0.2474
 6309W        W10509   4.496   3.237  12.905  0.0626  0.2448  0.1126
 6310W        W10510   9.167   5.826   2.518  0.0678  0.1808 -0.1068
 6311W        W10511  10.462   7.034  11.076 -0.0278 -0.6134 -0.1201
 6312W        W10512   3.525   2.715   2.443 -0.0760  0.4503  0.2426
 6313W        W10513   3.315   4.801   4.822  0.0491  0.0576 -0.1454
 6314W        W10514   1.951   6.286   0.663  0.0413  0.1573 -0.0136
 6315W        W10515   3.122   9.218  12.739  0.2813  0.2090 -0.1617
 6316W        W10516   9.016   9.613  12.433  0.3976 -0.2321 -0.2711
 6317W        W10517   5.568  10.395   4.763 -0.5370  0.0715  0.0553
 6318W        W10518   0.698   0.113   9.269  0.1256 -0.2102  0.3092
 6319W        W10519   5.702   7.221  10.776  0.0341 -0.1658 -0.1659
 6320W        W10520  10.158  10.000   1.340  0.0217  0.0879 -0.2445
 6321W        W10521   6.921   0.868  10.023 -0.4886 -0.2002 -0.0784
 6322W        W10522   2.277   7.285  10.724 -0.1173 -0.1965  0.0162
 6323W        W10523   5.117  10.368   3.574 -0.1260  0.1247 -0.1526
 6324W        W10524   8.543   3.395  13.065  0.2602  0.1446 -0.0113
 6325W        W10525   7.064   0.326   3.311 -0.5832  0.1324 -0.4319
 6326W        W10526   5.732   8.516  11.025 -0.1970  0.3774  0.0628
 6327W        W10527   3.113   9.830   1.484  0.0748  0.0478  0.3002
 6328W        W10528   1.397   8.940   1.750  0.4033 -0.1591  0.2047
 6329W        W10529   4.769   6.167  12.516  0.1384 -0.0469 -0.0665
 6330W        W10530  10.414   7.722   0.541  0.0257 -0.4816  0.1345
 6331W        W10531   0.133   1.939  10.623  0.1225 -0.1192  0.0452
 6332W        W10532   0.979   5.083  12.675  0.2319  0.2984 -0.3445
 6333W        W10533   9.570   0.777  10.555  0.1767 -0.1158 -0.0077
 6334W        W10534   2.274   5.707   2.458  0.1899  0.0814  0.1224
 6335W        W10535   1.274   3.095  10.724 -0.0702 -0.1846 -0.1377
 6336W        W10536  10.393   3.240   8.994 -0.1950 -0.1880  0.1585
 6337W        W10537   0.111   2.114  11.150  0.0503 -0.1646 -0.2097
 6338W        W10538   7.070   5.720   1.916  0.1893 -0.1140  0.0437
 6339W        W10539   2.729   7.518   2.232  0.1372  0.0524 -0.3216
 6340W        W10540   0.501   7.157   0.140 -0.3247 -0.1542  0.1927
 6341W        W10541   6.141   6.172  10.136 -0.0736 -0.0751  0.0855
 6342W        W10542   2.540   5.160  12.479 -0.1577  0.1912  0.1037
 6343W        W10543   7.757   6.664   4.378 -0.1819 -0.1102 -0.2599
 6344W        W10544   3.029   9.832   3.329 -0.0609  0.2861 -0.0045
 6345W        W10545   2.266   0.133  10.648 -0.0612  0.2535 -0.1879
 6346W        W10546  10.146   2.131   9.712  0.3160  0.2976 -0.1864
 6347W        W10547   1.431   8.489   3.664 -0.2415 -0.2789  0.0279
 6348W        W10548   3.812   6.787   2.319  0.0622 -0.1108  0.1093
 6349W        W10549   2.363   7.853  11.964 -0.4978 -0.0835 -0.0150
 6350W        W10550   5.118   2.677   1.368  0.0489  0.0642  0.0884
 6351W        W10551   0.027   9.109   3.061 -0.1058  0.1615 -0.2156
 6352W        W10552   6.930   9.211   9.960 -0.1804  0.0523  0.1618
 6353W        W10553   2.990   5.145   9.790 -0.2392  0.4802 -0.2053
 6354W        W10554   6.587   2.651  12.566  0.1396 -0.1725 -0.0282
 6355W        W10555   5.827   1.612   3.036 -0.4351  0.3808  0.2518
 6356W        W10556   8.119   3.137   0.792 -0.0480  0.0018  0.0094
 6357W        W10557   4.686   4.357   9.113  0.1247 -0.0167  0.2041
 6358W        W10558   7.203   7.542  10.970  0.1575 -0.0558  0.0378
 6359W        W10559   2.654   0.743  12.351 -0.2304 -0.1862 -0.0266
 6360W        W10560   0.183   9.144  12.092  0.0843  0.2157  0.0510
 6361W        W10561   4.548   7.200   9.850 -0.1637 -0.0723  0.1205
 6362W        W10562   8.668   7.841   9.656 -0.2445  0.2589 -0.0421
 6363W        W10563   4.570   5.959   1.265 -0.1234 -0.0112 -0.3775
 6364W        W10564   0.743   5.245   1.744 -0.3560 -0.1305  0.0623
 6365W        W10565   2.315   2.432  13.003 -0.1109 -0.0833  0.0818
 6366W        W10566   9.707   9.363   3.624  0.3614  0.1695 -0.1440
 6367W        W10567   7.345   2.748   0.013  0.1486  0.0493  0.0415
 6368W        W10568  10.213   2.371   0.881  0.1984 -0.0297  0.0565
 6369W        W10569   7.953   9.418   0.043 -0.1972  0.0515 -0.1251
 6370W        W10570   2.975  10.312   1.375  0.0857  0.0101 -0.2839
 6371W        W10571   4.503   5.712  11.397 -0.1772  0.0690  0.0972
 6372W        W10572   7.334   6.235  11.972 -0.0761 -0.0860 -0.2758
 6373W        W10573   0.944   5.933   1.987 -0.0299 -0.0642  0.1447
 6374W        W10574   0.011   6.808   1.839 -0.0382 -0.0727 -0.1963
 6375W        W10575   9.348   0.063   9.430  0.0997 -0.4247 -0.1047
 6376W        W10576   6.518   6.052   2.651  0.1355 -0.0624 -0.1528
 6377W        W10577   4.568   8.951   9.945 -0.1603  0.0275 -0.3137
 6378W        W10578   6.157   1.682  10.311  0.1308 -0.0100  0.1853
 6379W        W10579   3.982   2.538   8.867  0.1240  0.0393  0.2297
 6380W        W10580  10.003   7.330   0.358  0.1277 -0.1475 -0.1718
 6381W        W10581   5.633   1.269   9.029 -0.0420  0.0232 -0.3263
 6382W        W10582   0.371   0.398   1.302 -0.2924  0.0002 -0.1469
 6383W        W10583   0.946   4.178   4.689 -0.1691  0.0723 -0.2441
 6384W        W10584   7.993   6.325   3.364 -0.2005 -0.6473 -0.1232
 6385W        W10585   2.207   5.106   2.360 -0.1075 -0.0916  0.1924
 6386W        W10586   1.969   0.942   1.400 -0.3521 -0.1213  0.0819
 6387W        W10587   1.392   4.530  10.906  0.3343  0.2504 -0.3698
 6388W        W10588   1.193   0.464  11.026  0.0682 -0.0357  0.1962
 6389W        W10589   8.170   0.386  10.824  0.0026  0.0714  0.0197
 6390W        W10590   4.808   1.776   1.526  0.0108  0.1562  0.0416
 6391W        W10591   4.649   7.525   4.383 -0.3151  0.0608  0.1569
 6392W        W10592   9.990   6.853  11.088  0.2593  0.3250 -0.2423
 6393W        W10593   3.513   4.927   2.079 -0.0321  0.0434 -0.0487
 6394W        W10594   8.441   4.782   0.118 -0.3521  0.2932 -0.1803
 6395W        W10595   7.802   8.819  13.184 -0.2679  0.0581  0.0279
 6396W        W10596   5.629   5.405  12.113 -0.0219 -0.1117  0.0482
 6397W        W10597   9.146   5.098  11.699  0.0551  0.0838 -0.0464
 6398W        W10598   0.855   2.513   3.635  0.2969 -0.1589  0.3602
 6399W        W10599   9.426   0.856   3.810  0.1199  0.0599 -0.2075
 6400W        W10600   3.491   3.656   2.051  0.5521  0.0257 -0.1354
 6401W        W10601   5.702   2.455   9.865 -0.1768 -0.0095  0.3752
 6402W        W10602   0.404   8.750   1.281 -0.0510 -0.0699  0.0673
 6403W        W10603   0.590   7.555  10.149  0.0308  0.0510 -0.3457
 6404W        W10604  10.333   6.841   2.310 -0.2582  0.2526  0.2751
 6405W        W10605   5.882   6.080  10.816 -0.3149  0.0242 -0.1032
 6406W        W10606   0.909   5.805   8.789 -0.0018 -0.0159 -0.0284
 6407W        W10607   0.725   6.105  12.145 -0.0363  0.1026  0.2603
 6408W        W10608   2.181   5.573  12.512  0.2362 -0.0085  0.2016
 6409W        W10609  10.043   3.364   1.791  0.3270  0.2048 -0.2496
 6410W        W10610   7.994   1.439   1.731  0.0701 -0.0564 -0.2066
 6411W        W10611   2.724   4.272   9.657 -0.1335  0.0481  0.2588
 6412W        W10612   7.665   2.562  11.819  0.0936  0.3968 -0.1690
 6413W        W10613   8.921   9.207   4.761  0.0515  0.1703 -0.2093
 6414W        W10614   3.289   8.633   2.930  0.2811  0.1003 -0.0254
 6415W        W10615   1.367   3.499  11.728 -0.1540  0.3637  0.1650
 6416W        W10616   9.780   3.821   1.686 -0.3799 -0.2285  0.1793
 6417W        W10617   8.541   8.125  11.315  0.0143 -0.3084 -0.2432
 6418W        W10618   0.749   6.134   9.861 -0.2769  0.1148 -0.1303
 6419W        W10619   7.251   3.979   9.199  0.1115  0.1355  0.2644
 6420W        W10620   6.000   7.740  10.870  0.1149  0.2658  0.2274
 6421W        W10621  10.356   7.225   2.602  0.2303  0.2722  0.0207
 6422W        W10622   0.180   5.371   9.070 -0.3496  0.3022  0.0754
 6423W        W10623   0.018   9.024  12.635  0.1466 -0.0814  0.1509
 6424W        W10624   6.273   3.577  12.873 -0.2307  0.2527  0.1149
 6425W        W10625   8.670   2.528   3.559 -0.0957  0.2983 -0.1182
 6426W        W10626   0.705   1.871  12.717 -0.4901  0.1878 -0.2255
 6427W        W10627   8.864   6.447   1.585  0.3797  0.1269  0.1060
 6428W        W10628   8.198   9.121   4.032 -0.0311 -0.2712  0.1149
 6429W        W10629   6.296   8.834   0.999 -0.4884 -0.1821 -0.1197
 6430W        W10630   6.714   1.871   1.436  0.0370 -0.1375  0.2269
 6431W        W10631   9.161   3.746   4.338 -0.0555  0.2582 -0.0715
 6432W        W10632   4.943   8.935  12.860  0.3895 -0.0499  0.1694
 6433W        W10633  10.360   5.171   8.706 -0.0585  0.0686  0.0836
 6434W        W10634   5.250  10.107   1.152  0.1633 -0.2655  0.0188
 6435W        W10635   1.059   0.228   1.668  0.3141 -0.3691  0.2441
 6436W        W10636   3.765   1.013   3.500  0.3119 -0.0577 -0.0146
 6437W        W10637   3.790   1.818   2.459 -0.0205 -0.2061 -0.1784
 6438W        W10638   4.804   4.161   3.984  0.3365 -0.0860 -0.1107
 6439W        W10639   2.313   4.384  12.975 -0.1837 -0.0035  0.1024
 6440W        W10640   4.077   0.874  13.046 -0.0995  0.1126 -0.1902
 6441W        W10641  10.188   7.939  10.968 -0.1680 -0.0510 -0.1311
 6442W        W10642  10.485   1.083   0.834  0.0113  0.1820 -0.0486
 6443W        W10643   1.679   4.021   2.504 -0.1567  0.0232  0.2491
 6444W        W10644   7.107   0.772  11.802  0.3433 -0.0944  0.1144
 6445W        W10645   8.746   4.139   2.235 -0.1758  0.1973  0.0332
 6446W        W10646  10.195   8.401  12.025  0.1483  0.2167 -0.5575
 6447W        W10647   2.138   7.430  11.218 -0.0683 -0.3291  0.1166
 6448W        W10648   7.022   4.280   9.940 -0.2797 -0.2184 -0.1357
 6449W        W10649   5.491   4.209   2.368  0.0400  0.0018 -0.3415
 6450W        W10650   8.838   3.634  12.645  0.0194  0.0574  0.1345
 6451W        W10651   4.672  10.047   4.771  0.0287 -0.4129  0.1544
 6452W        W10652   3.922   4.185   1.044  0.1447 -0.0848 -0.2743
 6453W        W10653   5.770   4.239   0.194 -0.0088  0.0814  0.2311
 6454W        W10654   8.308   5.428  12.273 -0.1364  0.3785 -0.3628
 6455W        W10655   4.426   6.395   2.112  0.0252  0.2747 -0.2526
 6456W        W10656  10.134   3.853  13.165 -0.2134 -0.0109 -0.0786
 6457W        W10657   0.970   3.282  10.343 -0.0109  0.2917 -0.0119
 6458W        W10658   4.975   9.395  10.529  0.2934  0.1049  0.1622
 6459W        W10659   7.015   6.599  11.897 -0.0583 -0.1046 -0.0221
 6460W        W10660   1.298   5.863  12.342 -0.2969 -0.0342 -0.0291
 6461W        W10661   8.730   1.749   3.730  0.2514 -0.0317  0.0564
 6462W        W10662   7.587   4.606  12.697  0.1438 -0.0222 -0.4203
 6463W        W10663   0.675   4.007  11.494 -0.2584 -0.2869  0.2649
 6464W        W10664   2.718   3.629  12.421  0.0106  0.0715  0.3613
 6465W        W10665  10.243   9.551  11.290  0.1017 -0.3246  0.0106
 6466W        W10666   6.545   0.355  12.263  0.1019  0.0979 -0.0967
 6467W        W10667   2.957   5.504   3.541  0.0895  0.3084  0.0138
 6468W        W10668   3.584   5.529  13.107 -0.1344 -0.0018  0.1961
 6469W        W10669   1.630   2.971   1.654  0.0165 -0.1821  0.0695
 6470W        W10670   2.516   6.846   9.989  0.0474 -0.1693  0.3003
 6471W        W10671  10.033   5.951   1.776 -0.0802 -0.1918  0.1838
 6472W        W10672   4.769   3.073   2.721 -0.0361  0.1476 -0.1902
 6473W        W10673   6.042   3.241  11.482 -0.2322  0.1193 -0.2026
 6474W        W10674   2.799   6.349   0.272  0.0671  0.0553  0.0227
 6475W        W10675  10.276  10.450   2.305 -0.0070  0.2763 -0.2936
 6476W        W10676  10.003  10.287   0.769 -0.3447  0.0774 -0.3805
 6477W        W10677   5.848   2.042   4.639 -0.0823 -0.5026 -0.1327
 6478W        W10678   2.852   5.731  11.119  0.1790 -0.1067 -0.2829
 6479W        W10679   1.839   1.383  12.023 -0.1274  0.2272 -0.0153
 6480W        W10680   2.253   6.324   3.688  0.1551 -0.1152  0.2479
 6481W        W10681   4.763   6.226   0.867 -0.0274  0.0033 -0.0011
 6482W        W10682   5.474   9.154   2.106 -0.1577 -0.2371  0.0312
 6483W        W10683   8.914   6.214   0.350 -0.0402 -0.1644 -0.0167
 6484W        W10684  10.400   1.603   9.831 -0.0624 -0.0830  0.0732
 6485W        W10685  10.444   9.912  13.216  0.0831  0.2506  0.1556
 6486W        W10686   2.365   3.901   4.200 -0.0870 -0.0906 -0.3408
 6487W        W10687   1.375   9.379   1.998 -0.1875  0.2105 -0.1402
 6488W        W10688   3.608   5.550  12.537 -0.2262  0.1843 -0.4333
 6489W        W10689   1.252   4.453   0.857  0.2816  0.0253 -0.2703
 6490W        W10690   8.923   2.105   3.292  0.2594 -0.2277 -0.3280
 6491W        W10691   4.590   8.726   4.729  0.0034  0.1479  0.3912
 6492W        W10692   7.599   2.100   3.562  0.0824 -0.1423 -0.0615
 6493W        W10693   4.670   9.963  11.941 -0.0601 -0.0493  0.2648
 6494W        W10694   1.431   3.981   9.787 -0.1748  0.1074 -0.1080
 6495W        W10695   8.815   7.203   4.300 -0.1849 -0.2672  0.0435
 6496W        W10696   8.204   1.621   3.626  0.1777  0.2201  0.2674
 6497W        W10697   0.789   1.156   3.490 -0.2009 -0.0513  0.1336
 6498W        W10698   8.546  10.364   3.247  0.0814  0.3604 -0.0064
 6499W        W10699  10.222   6.946   3.040 -0.0882  0.1596  0.0216
 6500W        W10700   0.915   4.980   2.114  0.0836  0.0611  0.0373
 6501W        W10701   3.237   3.542  12.255 -0.0722  0.3271 -0.1377
 6502W        W10702   7.609   1.388   9.539 -0.0763 -0.4568 -0.2630
 6503W        W10703   7.394   7.418   9.866 -0.0695  0.3673  0.0486
 6504W        W10704   0.628   2.508   0.440 -0.0342  0.2479 -0.0832
 6505W        W10705   8.772   4.207  12.643  0.1427  0.1721  0.5256
 6506W        W10706   8.120   5.409   7.994  0.0807 -0.1868 -0.0474
 6507W        W10707   8.777   3.247   9.134 -0.2368  0.2183 -0.0227
 6508W        W10708   7.409   7.267   8.996 -0.0553  0.6045  0.0420
 6509W        W10709   2.266   1.853   2.107  0.1020  0.0888 -0.2368
 6510W        W10710   6.534   2.011   0.844  0.2081 -0.1762  0.4400
 6511W        W10711   4.485   6.925   1.386 -0.0626  0.0450 -0.1430
 6512W        W10712   5.364   3.469  12.568  0.1146 -0.3295 -0.0210
 6513W        W10713   2.885   9.246   3.328 -0.0972  0.0184 -0.0716
 6514W        W10714   2.654   2.598   3.921 -0.4643 -0.0031  0.2124
 6515W        W10715   4.436   9.408  13.267 -0.1310 -0.1669  0.0945
 6516W        W10716   6.376   5.517   1.390  0.0139  0.1299  0.0864
 6517W        W10717   6.588   7.620   9.708 -0.2298 -0.3026  0.0729
 6518W        W10718   5.934   2.027  12.829 -0.0562 -0.0619 -0.0165
 6519W        W10719   0.455   4.236   0.834 -0.1410 -0.0317  0.1851
 6520W        W10720   1.786   2.802   0.585  0.1466  0.2824 -0.0137
 6521W        W10721   8.100   3.104  11.335  0.5244  0.3192  0.2031
 6522W        W10722   6.077   4.552   9.119  0.1779  0.0048  0.4338
 6523W        W10723   4.750   9.671   2.704  0.3438  0.2662  0.0671
 6524W        W10724   0.050   8.644   1.768 -0.0509  0.1966 -0.1323
 6525W        W10725   4.068   6.967   4.857  0.1414  0.2474 -0.0571
 6526W        W10726  10.209   3.110  11.852  0.1652 -0.1361 -0.0156
 6527W        W10727   1.379   8.156  11.006 -0.0852 -0.1160  0.2469
 6528W        W10728   2.100   9.474   2.242  0.3574  0.0251 -0.2359
 6529W        W10729   5.023   1.823   5.400 -0.0364 -0.3809 -0.0269
 6530W        W10730   8.593   5.419  10.280 -0.1418  0.0470 -0.1262
 6531W        W10731   4.651   4.477  11.977  0.2275 -0.0627  0.1579
 6532W        W10732   9.290   4.116   1.875  0.2112 -0.0374  0.0609
 6533W        W10733   1.244   2.417  10.010 -0.4107 -0.1589  0.0142
 6534W        W10734   1.039   0.749   9.948 -0.0360  0.2224 -0.1120
 6535W        W10735   5.228   9.313   9.132  0.1509 -0.0190 -0.0046
 6536W        W10736   6.455  10.086   2.650  0.1604 -0.1191  0.2241
 6537W        W10737   4.162   7.818   0.945  0.3092  0.0876  0.1060
 6538W        W10738   2.361   2.325   3.621  0.1522 -0.0191 -0.0837
 6539W        W10739   2.838   2.283   9.083  0.0238 -0.0820  0.0841
 6540W        W10740   7.232   7.992  12.884 -0.0993  0.0825  0.1712
 6541W        W10741   3.068   0.311   3.669 -0.1769 -0.2061  0.0877
 6542W        W10742   1.886   8.975  13.210 -0.5028  0.2364 -0.1792
 6543W        W10743   3.086   7.526  11.555  0.2002 -0.0901 -0.2033
 6544W        W10744  10.167   4.299  12.464  0.1792 -0.1280 -0.1581
 6545W        W10745   7.572   1.698   3.060 -0.2184  0.2279 -0.0284
 6546W        W10746   7.051   8.106   2.304 -0.0581 -0.2309  0.0387
 6547W        W10747   5.374   5.870  10.749 -0.2065  0.0815 -0.1301
 6548W        W10748   4.851   7.262  12.546 -0.4985 -0.0213  0.0315
 6549W        W10749   7.941   3.935   3.516  0.0049  0.0426 -0.1283
 6550W        W10750   6.048   0.635  12.903 -0.0604  0.1143 -0.0540
 6551W        W10751   5.624   2.097  13.293  0.4230 -0.1281  0.0649
 6552W        W10752   0.272   7.067   1.016 -0.0479  0.1614 -0.2112
 6553W        W10753   0.587   8.036  10.485 -0.0308  0.0849 -0.1199
 6554W        W10754   0.091   7.114   9.441 -0.0177 -0.0990  0.1800
 6555W        W10755   7.292   7.210   4.295  0.1034 -0.1508 -0.0608
 6556W        W10756   3.110   7.956   4.333  0.3837  0.1347 -0.1834
 6557W        W10757   8.562   6.897   0.205  0.1228 -0.2513  0.3438
 6558W        W10758   7.096   2.918  11.560 -0.1715  0.0216 -0.1017
 6559W        W10759   8.329   2.402  10.782 -0.0041  0.0526  0.0986
 6560W        W10760   9.272   0.718   0.561  0.1703 -0.0725  0.2810
 6561W        W10761   0.416   1.817  11.891 -0.2142 -0.0595  0.0958
 6562W        W10762   9.864   5.512   2.986  0.1190  0.0014  0.0788
 6563W        W10763   7.575   6.707   2.633  0.2989  0.1282  0.1582
 6564W        W10764   1.270   0.401   1.193  0.2944 -0.1523 -0.0970
 6565W        W10765   4.491   6.193  10.680 -0.0721  0.1136  0.1051
 6566W        W10766   9.271   0.997   3.092  0.2842  0.0919 -0.0374
 6567W        W10767   2.256   4.162   0.391  0.0971  0.1936 -0.1739
 6568W        W10768   7.393   6.688  13.246  0.1976  0.0444 -0.0726
 6569W        W10769   0.616   1.358  12.832  0.1344  0.3486  0.0278
 6570W        W10770   7.540  10.217   9.246  0.1632 -0.0953 -0.0605
 6571W        W10771   6.900   1.375  12.887 -0.0366  0.0349  0.0783
 6572W        W10772   3.376   9.375  13.197  0.0326  0.3081  0.3743
 6573W        W10773   8.392   6.593   9.234 -0.3273 -0.0158 -0.0576
 6574W        W10774   9.113   2.236  12.787 -0.0460 -0.0500  0.0041
 6575W        W10775   6.855   3.779  11.593 -0.2750 -0.1202 -0.1270
 6576W        W10776   8.897   7.166   3.778  0.0862 -0.0304 -0.1076
 6577W        W10777   5.325   3.158  10.074 -0.0753  0.2377  0.2740
 6578W        W10778   8.558   1.524   1.646 -0.2777  0.0900 -0.1125
 6579W        W10779   2.734   1.272   0.877 -0.1165 -0.1181  0.0395
 6580W        W10780   2.196   1.442   4.478 -0.0607 -0.1129  0.2508
 6581W        W10781   6.118  10.437  11.414  0.1388 -0.4505 -0.1253
 6582W        W10782  10.017   4.209   3.025  0.0380 -0.2857  0.0580
 6583W        W10783   7.037   5.054  11.624  0.0916 -0.0822  0.1167
 6584W        W10784   1.301   8.760   1.267 -0.2670 -0.1189 -0.1640
 6585W        W10785   9.362   9.609  12.967  0.1531 -0.2061 -0.1267
 6586W        W10786   9.159   5.884   3.099  0.0263  0.3458 -0.1767
 6587W        W10787   1.126   5.375  11.154  0.5260  0.0493  0.1236
 6588W        W10788   7.440   5.741  11.822  0.2485 -0.0269  0.1512
 6589W        W10789   6.071   5.639   2.010  0.0967  0.0239 -0.0012
 6590W        W10790   7.680   7.630   0.796 -0.3556  0.1851  0.0702
 6591W        W10791   5.239   8.691   0.606  0.1520  0.0921 -0.2524
 6592W        W10792   4.932   1.521   3.320 -0.2746 -0.0338 -0.1233
 6593W        W10793   3.591   9.791  10.429 -0.0431 -0.0207  0.0922
 6594W        W10794   9.816   8.532  13.049  0.0233  0.1672  0.1951
 6595W        W10795   0.352   1.168  11.046 -0.0564  0.4189 -0.2663
 6596W        W10796   0.106   4.799   9.035  0.0700 -0.1431  0.4680
 6597W        W10797   0.944   1.749  11.119 -0.1452  0.1661  0.0054
 6598W        W10798   2.896   1.790  10.722  0.2613  0.3434 -0.2189
 6599W        W10799   8.647   8.747   4.069 -0.0406 -0.2565  0.1964
 6600W        W10800   0.129   0.561  12.088  0.2072 -0.0313  0.2471
 6601W        W10801   2.451   0.418   1.940  0.1543  0.0085  0.1030
 6602W        W10802  10.191   5.928   2.687  0.0871 -0.2898 -0.0741
 6603W        W10803   1.548   0.798  11.178  0.0545 -0.3691 -0.2129
 6604W        W10804   7.532   0.135  11.663  0.0424 -0.0039  0.2025
 6605W        W10805   5.983   5.180   9.754  0.0194  0.2651  0.4232
 6606W        W10806   0.166   7.405  10.395 -0.0367  0.0309 -0.3894
 6607W        W10807   4.342   3.643  11.991  0.1185 -0.1498 -0.1931
 6608W        W10808   7.390   5.445   3.502  0.1553 -0.0724  0.2561
 6609W        W10809   3.885   9.359   1.930 -0.2305 -0.3343  0.4937
 6610W        W10810   6.410   0.764   4.415 -0.2421  0.2288  0.1114
 6611W        W10811   7.833   0.661   0.302  0.2794 -0.1072 -0.0679
 6612W        W10812   4.192   2.739  11.532 -0.1896  0.1800  0.2537
 6613W        W10813   4.592   2.749   9.994  0.3150 -0.0756  0.0113
 6614W        W10814   7.154   9.128   1.129  0.1334  0.4106 -0.0520
 6615W        W10815   9.078   7.235  11.071 -0.0677 -0.2809 -0.0451
 6616W        W10816   0.518   1.057   0.562  0.3216  0.0996  0.3848
 6617W        W10817   4.191   4.785  12.181 -0.3772  0.0613 -0.3025
 6618W        W10818   4.209   2.830   3.634 -0.0889 -0.1363  0.3385
 6619W        W10819  10.111   6.553  10.441  0.1656 -0.0110  0.1290
 6620W        W10820   0.103   8.771   2.690  0.2087 -0.1336  0.2700
 6621W        W10821   7.782   0.342  11.131  0.2020 -0.1099  0.0755
 6622W        W10822   1.240   3.412   3.579 -0.2105  0.2195 -0.1617
 6623W        W10823   2.882   3.680   3.792  0.0425 -0.1059 -0.4606
 6624W        W10824   5.799   8.955   1.193 -0.0782  0.1276  0.0840
 6625W        W10825   6.425   6.497  10.762  0.1752 -0.2290  0.2020
 6626W        W10826   6.013   0.424   3.027 -0.1108  0.0905 -0.1786
 6627W        W10827   8.685   6.885   1.268  0.0030  0.2940  0.0993
 6628W        W10828   9.601   4.690   9.636  0.1234 -0.0747  0.1762
 6629W        W10829   8.351   4.552   5.142 -0.0474 -0.0259 -0.2374
 6630W        W10830   3.557   5.248  10.920 -0.0567  0.0855 -0.1936
 6631W        W10831   9.791   4.421   4.263 -0.2581  0.1691  0.0129
 6632W        W10832   5.951   2.142   2.102 -0.0274 -0.0233  0.2167
 6633W        W10833   5.409   3.139   1.969  0.0257 -0.0766  0.0964
 6634W        W10834   2.798   0.891   2.770 -0.0972  0.1987  0.0473
 6635W        W10835   2.155   2.557   4.025 -0.0133  0.0830  0.3182
 6636W        W10836   0.211   9.630   0.930 -0.5039 -0.1509 -0.2037
 6637W        W10837   8.637   6.785  10.127  0.1004  0.1841  0.0615
 6638W        W10838   0.784   2.830  10.033 -0.2240 -0.5479  0.0740
 6639W        W10839   8.735  10.408  12.785  0.4398  0.0709 -0.1877
 6640W        W10840   8.629   1.507  11.028  0.1888 -0.1984  0.0910
 6641W        W10841   6.016   9.921  13.059  0.1573  0.1065  0.0443
 6642W        W10842   4.511   2.719  11.157 -0.0067  0.1434  0.0471
 6643W        W10843   0.089   3.233   4.635 -0.1071 -0.0471 -0.2391
 6644W        W10844   4.947   9.105   1.451  0.3093  0.1399 -0.1828
 6645W        W10845   7.643   6.086   1.821 -0.1568  0.1802 -0.2304
 6646W        W10846   6.712   5.675  12.732  0.2394 -0.1960  0.0099
 6647W        W10847   3.320   6.505  11.350 -0.2885  0.0720 -0.1701
 6648W        W10848   2.088   9.550   0.369  0.0243 -0.0040  0.0388
 6649W        W10849   0.042   8.577  13.334 -0.1564 -0.1637  0.0231
 6650W        W10850   4.166   7.097   2.417 -0.1771 -0.1697  0.2138
 6651W        W10851   5.366   5.086  12.836  0.3140  0.2771  0.0928
 6652W        W10852   4.630   9.269   1.933 -0.1283  0.3976 -0.1354
 6653W        W10853   9.873   9.549   2.548  0.2018 -0.2798  0.0781
 6654W        W10854   4.539   4.807  11.266  0.0356  0.1632 -0.4056
 6655W        W10855   4.043   8.080   1.719  0.0787  0.4193 -0.2628
 6656W        W10856   8.270   2.848   9.548  0.1231  0.0484  0.0190
 6657W        W10857   8.927   3.212  10.751 -0.3612  0.3065 -0.0172
 6658W        W10858   2.112   7.172   1.077  0.1684 -0.2333 -0.2763
 6659W        W10859   1.707   9.285   2.522 -0.2549 -0.3527 -0.0180
 6660W        W10860   7.052   2.001  10.105  0.0188  0.1364  0.2406
 6661W        W10861   4.208   3.428   0.402 -0.0835 -0.3024  0.1739
 6662W        W10862   3.732   5.035  11.768 -0.2037 -0.2283 -0.0368
 6663W        W10863   2.361   7.116   3.219  0.4790 -0.0289 -0.1796
 6664W        W10864   4.845   7.278   2.610 -0.3039  0.3156 -0.1545
 6665W        W10865   1.146   1.576   1.673  0.3138  0.2243  0.1491
 6666W        W10866   7.940   4.600  11.628 -0.0574 -0.1077 -0.0141
 6667W        W10867   6.495   2.763   4.164 -0.0026 -0.1705  0.4164
 6668W        W10868   7.034   4.372   0.989  0.0563  0.0124 -0.1055
 6669W        W10869   0.869   0.030  11.496  0.1509 -0.2406  0.4342
 6670W        W10870   4.862   0.644   2.779  0.0313 -0.1737 -0.1435
 6671W        W10871   8.137  10.388   1.858 -0.3091 -0.0178  0.1721
 6672W        W10872   2.739   3.758   9.476 -0.2529 -0.0243 -0.3192
 6673W        W10873   8.135   9.992  11.663 -0.0952  0.0426 -0.3491
 6674W        W10874   1.817   0.067  12.655 -0.1058 -0.1505 -0.1668
 6675W        W10875   5.672   5.377  11.615 -0.0195 -0.1501 -0.1220
 6676W        W10876   5.244   3.272   0.541 -0.2576  0.2063  0.2366
 6677W        W10877   8.906   2.851   2.582 -0.0929  0.3599 -0.0244
 6678W        W10878   6.245   8.466  11.263  0.0575 -0.0940  0.0307
 6679W        W10879   5.570   9.414   3.026 -0.2353  0.3134 -0.5463
 6680W        W10880   0.125   7.764  11.695 -0.1964  0.1858  0.2144
 6681W        W10881   5.245   0.601  11.063  0.5065  0.2751  0.0043
 6682W        W10882   6.194   6.387  11.737  0.0940  0.2807  0.2566
 6683W        W10883   3.482   8.312  11.106 -0.0440 -0.2382 -0.2424
 6684W        W10884   6.112   4.027  11.504  0.0600 -0.3932  0.0791
 6685W        W10885   4.325   8.313   2.098 -0.0983 -0.1259  0.2685
 6686W        W10886   0.690   5.548   9.819  0.1243 -0.1856 -0.0785
 6687W        W10887   6.042   5.832  12.363 -0.1194 -0.0393  0.4615
 6688W        W10888   9.770   3.952  12.727 -0.0324  0.0541  0.2982
 6689W        W10889   7.521   8.422  12.909 -0.3066  0.2183  0.2744
 6690W        W10890   3.013   2.425  12.774 -0.1974 -0.3385  0.2135
 6691W        W10891   4.718   2.338   0.871  0.3197 -0.3336 -0.2401
 6692W        W10892   4.222   4.200   2.279  0.1212  0.2841  0.2709
 6693W        W10893   6.985   7.078  10.086 -0.2370 -0.2582 -0.0541
 6694W        W10894   9.786   0.796   8.951  0.1422  0.0724 -0.1221
 6695W        W10895   6.003   4.090   2.315  0.0913  0.0527  0.2931
 6696W        W10896   9.196   5.365   0.107 -0.1786 -0.1291 -0.1688
 6697W        W10897   8.263   8.071   9.764  0.2000 -0.2368 -0.0878
 6698W        W10898   1.226   8.174   3.271  0.2198 -0.0859  0.2167
 6699W        W10899   8.483  10.341  13.304 -0.1137 -0.0007  0.1130
 6700W        W10900   0.898   9.513   2.011 -0.1990  0.0813 -0.0246
 6701W        W10901   4.098   4.659   9.769  0.0938  0.1726  0.0760
 6702W        W10902   1.854   7.955   2.238 -0.2788 -0.0382 -0.1070
 6703W        W10903   1.032   3.650  10.897  0.1376 -0.1142 -0.0177
 6704W        W10904   7.938   7.073   2.693  0.0239  0.0439  0.0706
 6705W        W10905   0.162   5.005   2.630  0.0527  0.1582 -0.3833
 6706W        W10906   9.063   5.386  12.541  0.3258 -0.3681  0.1038
 6707W        W10907   4.961   7.770   9.373 -0.1962  0.0171 -0.0049
 6708W        W10908   3.718   6.706  11.645  0.0117  0.1146 -0.1959
 6709W        W10909   7.164   0.633   0.481 -0.0568 -0.3010 -0.0086
 6710W        W10910   1.662   3.281   3.257  0.2879 -0.0863 -0.0183
 6711W        W10911  10.250   7.550   3.125  0.1202 -0.2441  0.0696
 6712W        W10912   5.278   6.971  10.945  0.1513  0.1032  0.0788
 6713W        W10913   4.248   2.565   4.902 -0.0956 -0.0102 -0.2531
 6714W        W10914   8.090   9.015  10.728  0.0922 -0.1316 -0.3638
 6715W        W10915   5.048   4.496   1.281  0.1076  0.1432  0.0781
 6716W        W10916   7.987   5.701   0.243  0.0021 -0.0462  0.1862
 6717W        W10917   4.272   8.168   0.621 -0.1272  0.1775 -0.1877
 6718W        W10918   6.649   7.337   4.654  0.3423  0.2422  0.1954
 6719W        W10919   2.935   5.836   3.195 -0.2676  0.1397  0.1090
 6720W        W10920   4.503   3.880   0.467  0.2535  0.1484 -0.3218
 6721W        W10921   4.220   8.666  12.489  0.0362  0.0299  0.2003
 6722W        W10922   1.122   9.424   0.220  0.1577 -0.2780  0.2037
 6723W        W10923  10.077   3.164   2.370 -0.1266 -0.1919  0.0653
 6724W        W10924   6.442   7.335  13.217 -0.0176  0.0525  0.0306
 6725W        W10925   3.811   9.747  12.313  0.1224  0.0328  0.0380
 6726W        W10926   0.960   4.557  12.788 -0.0423 -0.0266 -0.0764
 6727W        W10927   3.429   5.245   9.485 -0.3255  0.0164 -0.0408
 6728W        W10928   1.484   0.762  10.559 -0.1426 -0.1793 -0.2609
 6729W        W10929   4.876   9.974   9.846  0.2110  0.0300  0.2215
 6730W        W10930  10.082   3.530  10.259  0.0139 -0.2104  0.1530
 6731W        W10931   1.561   8.516  13.352 -0.1549 -0.0101  0.0897
 6732W        W10932   2.443   7.076   2.652 -0.1744  0.0732 -0.3822
 6733W        W10933   8.810   4.193   9.040  0.1270  0.1806 -0.1125
 6734W        W10934   4.272   3.350   9.098  0.0518  0.0469  0.1640
 6735W        W10935   0.045   5.569  12.083  0.2128  0.1609 -0.0345
 6736W        W10936   3.181   2.661   2.786 -0.1015 -0.4501 -0.1434
 6737W        W10937   7.794   3.078   1.738 -0.1014 -0.0988 -0.2726
 6738W        W10938   8.150   1.585   3.066  0.2388  0.1664 -0.3950
 6739W        W10939   8.688   6.896   8.948 -0.2215  0.1751 -0.0705
 6740W        W10940   1.813   2.974  12.713  0.4145  0.0692  0.1393
 6741W        W10941   1.816   8.824  10.377  0.0994  0.3983 -0.0320
 6742W        W10942   5.566   0.082   2.132 -0.2893 -0.0532  0.4046
 6743W        W10943   6.809   7.823   5.411  0.1264 -0.0190  0.1411
 6744W        W10944   0.491   5.109   1.158  0.0083 -0.1640  0.0428
 6745W        W10945   9.456   8.165  12.581 -0.0005 -0.2993 -0.0381
 6746W        W10946   6.873   8.842  13.271  0.1691 -0.2382 -0.1613
 6747W        W10947   0.746   1.171  11.896  0.0704  0.0272  0.0135
 6748W        W10948   0.459   8.164  10.024  0.0718 -0.0453  0.0440
 6749W        W10949   3.939  10.039   4.005  0.1519  0.2218  0.1284
 6750W        W10950   9.257   9.043  10.210 -0.0064 -0.4372  0.1037
 6751W        W10951   1.413   6.650   2.230  0.1328 -0.0242 -0.1393
 6752W        W10952   4.057   0.150   1.995 -0.1419  0.3050 -0.0382
 6753W        W10953   1.570   1.583   2.666 -0.0601  0.1732  0.1141
 6754W        W10954   4.871   0.426  11.891 -0.0796 -0.0172  0.1133
 6755W        W10955   0.394  10.128   1.753 -0.0949  0.0537  0.2792
 6756W        W10956   5.460   5.617   0.282  0.1831  0.0360 -0.1071
 6757W        W10957   0.727   8.444   0.492 -0.2132  0.0269  0.0163
 6758W        W10958   5.393   8.792   9.362 -0.0915  0.2091 -0.2294
 6759W        W10959   6.060   2.544  11.976  0.1245 -0.2045  0.0092
 6760W        W10960   4.600   3.428   0.892 -0.0122 -0.0899 -0.2063
 6761W        W10961   8.456   4.711   3.075  0.2312  0.2475 -0.2332
 6762W        W10962   8.170   9.155   1.419  0.4354  0.0719 -0.5684
 6763W        W10963   0.645   9.845  12.720 -0.4625  0.2565 -0.1219
 6764W        W10964   8.792   4.949   2.292  0.1096  0.1961 -0.1934
 6765W        W10965   1.774   3.008   3.698 -0.1298  0.3145 -0.2015
 6766W        W10966   2.374   7.802   0.031 -0.2026 -0.0175 -0.1066
 6767W        W10967   6.467   5.414  10.553  0.1799 -0.1113  0.0019
 6768W        W10968   5.552   8.262   0.608 -0.0315  0.1630  0.1786
 6769W        W10969   1.006   6.882   1.953  0.1935 -0.2331 -0.0993
 6770W        W10970   7.912   1.792  12.286 -0.2625 -0.1204  0.2562
 6771W        W10971   7.535   3.750   3.288  0.4750 -0.2401 -0.1785
 6772W        W10972   7.809   7.771  11.851 -0.0379 -0.2946 -0.3789
 6773W        W10973   8.285   6.931   0.996  0.0366  0.2705  0.0343
 6774W        W10974   5.801   2.080   4.016  0.0263  0.2126  0.0142
 6775W        W10975   2.717   2.769  11.858  0.1244 -0.0250 -0.0818
 6776W        W10976   1.866   1.606   1.933  0.1729  0.0901  0.0161
 6777W        W10977   7.426   9.114   0.718 -0.0731 -0.0166 -0.1048
 6778W        W10978  10.044   2.376  12.275 -0.2064 -0.0068 -0.0098
 6779W        W10979   9.036   8.671  10.935  0.1825  0.1007 -0.1440
 6780W        W10980   9.938   5.420   2.519 -0.2087 -0.4882 -0.0339
 6781W        W10981   2.192   0.451   2.425 -0.3271  0.0269 -0.0045
 6782W        W10982   7.598   9.055  12.208  0.0880 -0.1367 -0.3210
 6783W        W10983   2.092  10.023   1.653 -0.3459 -0.0416 -0.0415
 6784W        W10984   6.638   3.226   3.356  0.2388  0.1736  0.3595
 6785W        W10985   9.562   5.097   0.477  0.1521  0.2547  0.1765
 6786W        W10986   6.937   4.187   1.438 -0.5472  0.0625  0.1817
 6787W        W10987  10.457   1.022  12.228 -0.3065 -0.1903  0.3618
 6788W        W10988   7.641   3.607   9.798 -0.0997  0.1399  0.0435
 6789W        W10989   7.893   7.276   1.722 -0.1621  0.0177 -0.0583
 6790W        W10990   8.976   7.952  12.884  0.2950  0.2367  0.4698
 6791W        W10991   4.984   3.148   9.645  0.1006 -0.2608  0.1758
 6792W        W10992   2.694   4.988   1.891  0.4154 -0.1698 -0.0716
 6793W        W10993   1.021   5.219   9.936 -0.1505  0.2111  0.1686
 6794W        W10994   3.575   8.002   0.119 -0.0454 -0.0721  0.3279
 6795W        W10995  10.077   2.995  10.043  0.2303  0.0313  0.2707
 6796W        W10996   9.794   8.836  11.434  0.0454 -0.1624  0.0409
 6797W        W10997   2.319   2.739  12.591 -0.0920  0.0321 -0.0665
 6798W        W10998   8.708  10.085  12.394 -0.0909 -0.0502 -0.2606
 6799W        W10999   6.216   8.239  12.839  0.2817  0.0442 -0.1203
 6800W        W11000   7.418   8.099   1.920 -0.0976 -0.0943  0.0028
 6801W        W11001   4.734   9.073   2.653  0.0184 -0.0974 -0.3267
 6802W        W11002   0.907   8.880  11.661 -0.0519 -0.0590  0.0434
 6803W        W11003   5.912   8.306   9.244  0.1589  0.5727 -0.2128
 6804W        W11004   8.991   3.054  11.253 -0.1486 -0.1096  0.0130
 6805W        W11005   9.577   2.429   5.168  0.1958  0.1714  0.0330
 6806W        W11006   8.253   7.530   2.005  0.2490 -0.1636  0.2133
 6807W        W11007   6.854   8.639  11.093 -0.2023  0.0805 -0.5715
 6808W        W11008   0.424   4.226  12.918 -0.0738 -0.0360  0.1918
 6809W        W11009   6.642   3.615   3.704  0.5060  0.2666 -0.0151
 6810W        W11010   7.891   1.743   2.244 -0.2187 -0.0507  0.1003
 6811W        W11011   8.625   5.812  12.195 -0.0754 -0.0364  0.2927
 6812W        W11012   6.085   6.934  10.430 -0.4032  0.0280 -0.0509
 6813W        W11013   3.577   1.204  11.606  0.0197  0.1968  0.2770
 6814W        W11014   9.320   8.789   9.669 -0.0391  0.3488  0.1391
 6815W        W11015   4.266   7.362  12.878  0.0702 -0.0417 -0.0619
 6816W        W11016   6.965   9.642  10.827  0.1084 -0.1765 -0.1571
 6817W        W11017   6.868   5.713   9.692  0.1399  0.1069  0.0380
 6818W        W11018   8.140   4.607   9.653 -0.0569 -0.1028 -0.4450
 6819W        W11019   5.492   8.795   8.345  0.0748  0.0414 -0.0716
 6820W        W11020   9.161   3.319   2.454 -0.1380 -0.0370  0.0286
 6821W        W11021   2.600   7.841  12.372 -0.1373 -0.1747  0.5422
 6822W        W11022   2.395   0.218   0.951  0.3418 -0.2763 -0.2491
 6823W        W11023   2.491   2.809   0.042 -0.1647 -0.1815  0.1040
 6824W        W11024   7.447   0.993   3.852  0.5044 -0.1564 -0.1530
 6825W        W11025   0.406   0.827   1.040 -0.1456  0.1635  0.2945
 6826W        W11026   4.672   9.925   2.257  0.1433  0.3091 -0.1416
 6827W        W11027   5.303   7.544   2.829 -0.2403  0.2827 -0.0083
 6828W        W11028   3.441   8.870  13.302  0.2593  0.1111  0.0863
 6829W        W11029   9.303   3.937   0.835  0.2005  0.3594  0.4296
 6830W        W11030   8.065   6.740   3.567 -0.2039  0.2615 -0.0921
 6831W        W11031  10.267   1.088   9.836 -0.1163  0.1722 -0.2381
 6832W        W11032   5.299   1.365   2.145  0.1183  0.2466  0.4540
 6833W        W11033   4.125   6.308   0.180 -0.3116 -0.0621 -0.1187
 6834W        W11034   5.417   1.119  11.012  0.0677 -0.1991 -0.0470
 6835W        W11035   3.213   1.965  11.193  0.0122  0.4112 -0.2053
 6836W        W11036   7.323   5.049  12.448  0.0114 -0.0968 -0.2154
 6837W        W11037   3.454   0.023   9.683 -0.1409 -0.1588  0.1846
 6838W        W11038   6.542   5.579   5.126  0.0976 -0.0481  0.2793
 6839W        W11039   6.352   4.262   9.397 -0.1864 -0.1732  0.1214
 6840W        W11040   1.715   1.611   3.500  0.4288 -0.3191 -0.1192
 6841W        W11041   3.203   5.579  10.701  0.2239 -0.1402  0.1175
 6842W        W11042   9.957   2.989   0.904 -0.3046 -0.1919 -0.0494
 6843W        W11043   8.793   1.724  10.509  0.3807 -0.0141  0.2065
 6844W        W11044   5.141   5.280  11.871 -0.1102 -0.2645  0.3776
 6845W        W11045   5.520   8.538   2.682  0.2050 -0.1636  0.1480
 6846W        W11046   4.357   6.005  12.731 -0.4482 -0.2042 -0.4156
 6847W        W11047   5.673   2.566   0.055  0.1293  0.0232  0.0987
 6848W        W11048   2.179   4.700   1.307 -0.2105 -0.2034  0.1065
 6849W        W11049  10.208   4.824   0.675  0.2703 -0.1104 -0.1612
 6850W        W11050   2.477   5.224   9.696  0.2163 -0.3383 -0.0660
 6851W        W11051   4.526   7.213  11.537  0.1182 -0.3559  0.1171
 6852W        W11052   3.182   8.270   9.833 -0.0480 -0.1385  0.1256
 6853W        W11053   8.964   9.170   2.524  0.3314  0.3123  0.2528
 6854W        W11054   2.268   6.288   9.783  0.0897 -0.0814 -0.2169
 6855W        W11055   0.347   2.922   0.640  0.3295 -0.2231  0.2366
 6856W        W11056   1.751   6.902   3.263  0.3262  0.2235 -0.0719
 6857W        W11057   4.932   3.155  12.588  0.0473 -0.2020 -0.0503
 6858W        W11058   8.922   4.377   2.706 -0.2980  0.0967  0.1595
 6859W        W11059   6.634   7.517  10.205  0.0202 -0.3014 -0.5082
 6860W        W11060   3.267   6.610   9.611 -0.0491 -0.0655 -0.2103
 6861W        W11061   6.951   8.085   0.810  0.1026 -0.3944  0.0452
 6862W        W11062   7.741   8.507   3.761 -0.1315 -0.0326 -0.1210
 6863W        W11063   7.284   4.564   4.264  0.4316 -0.1052 -0.1792
 6864W        W11064   1.850   2.019  10.527 -0.0282  0.4202  0.4582
 6865W        W11065   3.729   9.876   9.951 -0.0687  0.0994  0.0996
 6866W        W11066   2.430   8.081  10.133 -0.0714  0.2274 -0.3162
 6867W        W11067   6.568   8.923   4.130 -0.3638 -0.2730  0.0249
 6868W        W11068   8.066   3.577   8.787  0.0376  0.1678 -0.0459
 6869W        W11069   2.069   4.561   3.711  0.1398  0.0843 -0.0971
 6870W        W11070   0.404   4.338   9.265 -0.2225 -0.0005  0.2922
 6871W        W11071   8.268   7.912   2.282  0.3430  0.4481 -0.2177
 6872W        W11072  10.298   2.479   1.626  0.0718 -0.1229  0.1057
 6873W        W11073   3.558   3.785  11.933 -0.0872 -0.2226  0.0671
 6874W        W11074   0.898   4.432  11.586  0.1827  0.0250  0.1075
 6875W        W11075   7.505   0.094   4.583 -0.2160  0.2956  0.3000
 6876W        W11076   0.485   3.624   5.307 -0.1261 -0.0771 -0.1388
 6877W        W11077   5.861   3.378   9.468 -0.1699  0.1647  0.0782
 6878W        W11078   8.949   6.958   2.027 -0.0034 -0.1865  0.0892
 6879W        W11079   9.652   1.259  12.599 -0.1929 -0.0965  0.0084
 6880W        W11080   4.069  10.176   3.479 -0.0948 -0.0226 -0.2197
 6881W        W11081   9.486   2.767  10.090  0.0381  0.5665  0.0308
 6882W        W11082   4.030   1.376   2.307 -0.1232 -0.3033  0.0473
 6883W        W11083   2.076   7.844  11.505  0.0709 -0.0145  0.2331
 6884W        W11084   8.856   4.384  10.042  0.2978  0.1423 -0.0447
 6885W        W11085   6.058   6.849   4.491 -0.1624  0.1132 -0.1311
 6886W        W11086   1.058   9.594  10.561 -0.0432  0.3208  0.0098
 6887W        W11087   1.539   2.737   1.149 -0.0983 -0.2992  0.2585
 6888W        W11088   4.515   5.373   4.241  0.0569 -0.2113  0.0084
 6889W        W11089   2.822   3.092  10.277  0.2570 -0.2912 -0.0706
 6890W        W11090   2.462   5.127   2.810  0.3550  0.3771 -0.0346
 6891W        W11091   1.775   9.849   3.071  0.2124  0.1832 -0.2495
 6892W        W11092   3.646  10.378  13.248 -0.2769 -0.1975 -0.1377
 6893W        W11093   8.552   5.525   2.797  0.1222 -0.1920 -0.0258
 6894W        W11094   6.830   5.730  10.524 -0.1114 -0.2014 -0.0792
 6895W        W11095   1.865   5.588   1.171  0.2549  0.0367  0.1913
 6896W        W11096   8.869   7.063  12.715  0.0326 -0.2665  0.0276
 6897W        W11097   4.623   8.368   5.207  0.2794  0.0649 -0.0390
 6898W        W11098   4.830   6.928   1.727 -0.0977 -0.0413  0.4598
 6899W        W11099   6.962   8.093   8.865 -0.1070 -0.2529 -0.0302
 6900W        W11100   9.076   8.734   0.651 -0.4554  0.4247  0.1795
 6901W        W11101   1.254   2.932   9.837  0.1642  0.3261 -0.0507
 6902W        W11102  10.480   1.336  11.341 -0.0413  0.2750 -0.5486
 6903W        W11103   3.242   8.105   1.174  0.1510  0.1513 -0.1069
 6904W        W11104   3.700   5.437   9.939 -0.0178  0.0948 -0.0269
 6905W        W11105   3.463   6.956  10.187  0.0209 -0.1846 -0.2764
 6906W        W11106   9.257   0.370  12.216 -0.0674  0.2691 -0.0337
 6907W        W11107   7.300   0.122   0.592 -0.0804  0.3005 -0.0360
 6908W        W11108   8.754   0.655   0.050  0.0080  0.0368 -0.0132
 6909W        W11109   7.068   7.292   9.521 -0.1650 -0.3067 -0.2158
 6910W        W11110   4.699   9.075  11.873  0.1207 -0.1142  0.2511
 6911W        W11111   9.191   5.033   1.669 -0.0596 -0.2250  0.1652
 6912W        W11112   6.273   8.731  10.313 -0.1330  0.4008 -0.0554
 6913W        W11113   6.246   2.958  12.700 -0.2103 -0.2044  0.4846
 6914W        W11114   1.544   2.158  12.732 -0.2122  0.0353  0.2820
 6915W        W11115   4.806   3.503  11.771 -0.3392 -0.1228 -0.1306
 6916W        W11116   4.523   7.845   1.837  0.0241  0.2096  0.2844
 6917W        W11117   6.832   7.900   1.269  0.2792  0.0648 -0.2860
 6918W        W11118   7.561   5.188   0.919 -0.1697  0.1869  0.0351
 6919W        W11119   6.819   0.494   9.206  0.2978  0.2355  0.1883
 6920W        W11120   9.182   5.859  13.284  0.0553 -0.3616 -0.0191
 6921W        W11121   4.762   5.824  10.458 -0.1087  0.0308  0.3250
 6922W        W11122   4.040   4.707  12.696 -0.1236  0.0799 -0.3435
 6923W        W11123   1.783   7.710   0.078  0.0534 -0.0027  0.0424
 6924W        W11124   4.158   4.716   2.265  0.3221 -0.1513 -0.1027
 6925W        W11125   1.663   5.708   9.330 -0.0355 -0.4835  0.3198
 6926W        W11126   6.060   3.754   1.926  0.0780 -0.0933  0.1015
 6927W        W11127   1.094   2.341  12.504  0.6095 -0.1201  0.2545
 6928W        W11128   4.311   2.494  10.721 -0.0253 -0.1881  0.0715
 6929W        W11129   7.800   1.417   2.642 -0.1275 -0.0762  0.1518
 6930W        W11130   2.525   7.096  11.436  0.0632  0.2961 -0.3237
 6931W        W11131   6.951   2.570  12.912 -0.1272 -0.1910  0.2616
 6932W        W11132   3.280   8.573   1.560 -0.1436 -0.3496 -0.3293
 6933W        W11133   9.685   8.425   1.449 -0.0836  0.0435  0.0198
 6934W        W11134   6.594   0.384   3.288  0.0549 -0.0255  0.0409
 6935W        W11135   6.734   8.415   1.445  0.0506 -0.0056 -0.1673
 6936W        W11136   3.691   8.634   3.268  0.0225  0.0723 -0.2397
 6937W        W11137   1.056   2.263   9.556 -0.1161 -0.3470 -0.2870
 6938W        W11138   5.306   8.824  10.730  0.0605  0.0023 -0.1248
 6939W        W11139   0.035   5.406   3.518  0.0438 -0.1982 -0.0324
 6940W        W11140   8.122   5.054  10.909  0.3128 -0.0358  0.4630
 6941W        W11141   4.035   5.987   4.354 -0.2322  0.1454  0.1754
 6942W        W11142   9.153   0.558  10.738  0.1617 -0.1195 -0.2190
 6943W        W11143   9.669   0.186  13.299 -0.2078  0.3767 -0.0669
 6944W        W11144   5.245   9.802   3.014 -0.2786 -0.0701 -0.3062
 6945W        W11145   1.616   2.296   0.407 -0.2572  0.3239 -0.3647
 6946W        W11146   5.000   6.314   3.150 -0.1924 -0.0623 -0.0395
 6947W        W11147   1.960   2.861   3.217 -0.0381  0.0096  0.0293
 6948W        W11148   7.698   3.146  10.993 -0.3466  0.4321  0.1361
 6949W        W11149   0.978   3.558  12.541 -0.3304 -0.0841  0.3065
 6950W        W11150   0.056   8.063  12.978  0.2449  0.0151  0.0392
 6951W        W11151   6.755   0.351   2.491  0.0565 -0.0229 -0.1024
 6952W        W11152   9.883   4.895   4.475  0.2305  0.2345 -0.2457
 6953W        W11153   0.335   1.533   9.182 -0.0584  0.2762 -0.1071
 6954W        W11154   2.776   3.173   9.306 -0.0391  0.0199  0.0945
 6955W        W11155   1.453   5.265  10.759 -0.0294 -0.0041  0.4118
 6956W        W11156   4.443   4.045  13.236 -0.1205  0.3991  0.2403
 6957W        W11157   5.660   4.784   0.087 -0.0027  0.0148  0.1130
 6958W        W11158   5.775   4.836   3.016 -0.0529  0.0350 -0.0615
 6959W        W11159   5.205   5.377   2.391  0.2122  0.0569 -0.0121
 6960W        W11160  10.282   8.069  11.508  0.0628  0.1279  0.0533
 6961W        W11161   7.300   6.969  11.079  0.1528 -0.0488 -0.3429
 6962W        W11162   8.733  10.170  11.198  0.0743 -0.0599 -0.0598
 6963W        W11163   9.819   2.584   0.618 -0.2164 -0.1173  0.1997
 6964W        W11164   2.443   4.762   9.329  0.2233 -0.2096 -0.1288
 6965W        W11165   9.900   9.266  11.644  0.0151  0.2811 -0.0340
 6966W        W11166   2.942   7.048   2.512  0.0860  0.1360 -0.1623
 6967W        W11167   6.671   8.766   9.584 -0.0456 -0.0616 -0.1395
 6968W        W11168   9.677   4.572   0.263 -0.0677  0.1117 -0.2531
 6969W        W11169   5.962   6.300  12.144 -0.1439 -0.2634 -0.1581
 6970W        W11170   2.958   1.717   3.018 -0.0671 -0.2850 -0.1212
 6971W        W11171   9.243   4.521  11.819  0.0076  0.0260  0.2077
 6972W        W11172   4.634   5.209   3.787  0.2479  0.1794 -0.1250
 6973W        W11173   3.941   9.126   4.055 -0.3842 -0.0723  0.2295
 6974W        W11174   4.808   0.998   1.839 -0.0619  0.2897 -0.3586
 6975W        W11175   0.427  10.126  11.626  0.0301  0.1954 -0.3458
 6976W        W11176   6.076   4.933  12.122  0.2997 -0.1048 -0.0289
 6977W        W11177   8.135   8.993   2.748 -0.0243  0.1419  0.0305
 6978W        W11178   4.140   2.365  11.173  0.1401  0.0409  0.0598
 6979W        W11179   4.898   5.076   1.465  0.3392 -0.1235  0.0883
 6980W        W11180   0.876   2.091   0.774 -0.2687  0.0730 -0.3122
 6981W        W11181   0.785   3.330   8.531  0.0677 -0.1340 -0.1440
 6982W        W11182   5.543   3.245  11.441  0.1386  0.4838  0.2758
 6983W        W11183   2.114   4.018   0.903  0.1812 -0.0623 -0.3644
 6984W        W11184   6.669   2.222   4.081  0.0442  0.1590 -0.0790
 6985W        W11185   2.801   0.277   3.207  0.0540 -0.2235  0.0080
 6986W        W11186   4.708   4.494   2.129 -0.2434  0.0512 -0.2691
 6987W        W11187   2.412   8.616   1.092  0.3157 -0.0790  0.1721
 6988W        W11188   0.586   0.027   1.581 -0.1349 -0.3304 -0.1733
 6989W        W11189  10.106   0.244  10.807  0.0683  0.1527 -0.0588
 6990W        W11190   4.738   5.717   3.823  0.1158  0.1605  0.1856
 6991W        W11191   4.987   3.673   0.739 -0.1311 -0.3419 -0.4124
 6992W        W11192   7.370   6.352   9.910 -0.1734 -0.0388  0.2574
 6993W        W11193   1.957   1.097  12.516 -0.1320 -0.0650 -0.0877
 6994W        W11194   6.047   9.932   9.947 -0.2640  0.0857 -0.0237
 6995W        W11195   7.343   5.571   0.179  0.2010  0.2382  0.1415
 6996W        W11196   7.929   8.714   1.335  0.1768  0.3760  0.1036
 6997W        W11197   8.607   0.530  10.910 -0.2278 -0.2790  0.1517
 6998W        W11198   9.315   8.856   2.245  0.1002 -0.3008  0.2686
 6999W        W11199   7.742   3.411   0.391 -0.2473 -0.0356  0.3184
 7000W        W11200  10.473   0.342   2.843  0.0756 -0.0585  0.0899
 7001W        W11201   1.261   6.311   1.861  0.0200 -0.0226 -0.1251
 7002W        W11202   9.560   9.316  12.590  0.2509  0.0553 -0.1156
 7003W        W11203   1.612   7.444   1.072 -0.2036 -0.1568  0.0309
 7004W        W11204   0.609   4.608   4.460  0.0198 -0.3182  0.0055
 7005W        W11205   7.918   2.747   1.220 -0.4024 -0.2492 -0.1230
 7006W        W11206   0.341   7.795   4.160 -0.0131 -0.3250 -0.2930
 7007W        W11207   7.229   9.159  13.186  0.2225 -0.0693  0.4362
 7008W        W11208   3.975   7.283  10.659 -0.0359  0.2222 -0.0988
 7009W        W11209   8.616   1.939   4.506 -0.2174  0.0777  0.1885
 7010W        W11210   3.758   1.293  10.804 -0.0670  0.3043 -0.0901
 7011W        W11211   6.572   1.153  10.283 -0.0147  0.0003 -0.0423
 7012W        W11212   5.734  10.370   9.840 -0.3391 -0.3361  0.1369
 7013W        W11213   3.381   0.578   0.377  0.1105 -0.1871 -0.1317
 7014W        W11214   5.520   9.181   9.793 -0.0182 -0.1964 -0.1428
 7015W        W11215   6.513   2.299  11.253 -0.2246  0.3581 -0.1609
 7016W        W11216   4.838   1.451   1.972 -0.0242 -0.1423 -0.1087
 7017W        W11217   2.806   5.196  12.896  0.0489  0.0556 -0.0332
 7018W        W11218  10.065   6.385   2.500 -0.2000 -0.1061 -0.1861
 7019W        W11219   9.406   3.133  10.876  0.0395 -0.1599  0.1900
 7020W        W11220  10.176   8.630   0.254  0.0364 -0.1347 -0.3796
 7021W        W11221   0.826   6.769  10.117 -0.1367  0.0536 -0.2986
 7022W        W11222   9.616   3.161   0.192  0.1404 -0.0577 -0.0165
 7023W        W11223   8.496   3.938  11.744  0.2023 -0.2015 -0.0265
 7024W        W11224   9.464   9.390   0.076  0.1787  0.4425 -0.1591
 7025W        W11225   2.424   1.807   0.184  0.0520  0.2466 -0.0119
 7026W        W11226   8.063   9.422   5.001 -0.1801  0.2838  0.2335
 7027W        W11227   1.417   2.650   9.451  0.0794 -0.0057  0.0035
 7028W        W11228   5.622  10.122  13.300 -0.1972  0.0881 -0.2322
 7029W        W11229   4.983   0.741  11.459  0.0911 -0.1740  0.0887
 7030W        W11230   8.112   5.786   3.000 -0.0455 -0.0663  0.3525
 7031W        W11231   8.087   5.329   4.655  0.1492  0.2144  0.6564
 7032W        W11232   2.317   2.821   3.600 -0.0228  0.4183 -0.2012
 7033W        W11233  10.316   9.501   0.631 -0.1638  0.4332 -0.2118
 7034W        W11234   2.826   6.480   1.119  0.1216  0.2661  0.1331
 7035W        W11235   9.505   1.512   3.128  0.0347 -0.1524  0.2020
 7036W        W11236   4.155   4.713   4.012 -0.1894 -0.1208 -0.2000
 7037W        W11237   2.985   2.979   0.758 -0.0829  0.2919  0.2636
 7038W        W11238   9.104   3.430   3.800 -0.1935  0.0885  0.1147
 7039W        W11239   0.874  10.352  10.682 -0.0731 -0.1115  0.3171
 7040W        W11240   3.266   2.476   8.866 -0.0368 -0.3161  0.1138
 7041W        W11241   5.516   1.062   4.384  0.3197 -0.1176 -0.2316
 7042W        W11242   6.723   9.242   5.054  0.0695 -0.0738 -0.0319
 7043W        W11243   2.943   6.814  11.482 -0.1602 -0.1430 -0.2202
 7044W        W11244   5.787   7.380  10.293 -0.0125  0.1941 -0.0327
 7045W        W11245   8.850   2.939   5.206 -0.2670 -0.1518  0.0505
 7046W        W11246   6.076   3.991  13.161 -0.0054 -0.2236 -0.3443
 7047W        W11247   5.920   4.947   2.494 -0.0073 -0.1331  0.1186
 7048W        W11248   4.813   1.117  11.049  0.2834  0.2606  0.2972
 7049W        W11249   4.035   7.716   8.458  0.2221 -0.0663  0.2087
 7050W        W11250   6.261   6.901   8.299 -0.1575  0.1714  0.0540
 7051W        W11251   5.417   8.963   1.659 -0.1210  0.1701  0.1643
 7052W        W11252   1.823   3.983   9.475 -0.0474  0.1649 -0.0854
 7053W        W11253   3.363   7.088  11.459  0.1915 -0.0684  0.0969
 7054W        W11254   8.448   1.636  10.141  0.2434  0.0566  0.3395
 7055W        W11255   1.288   5.471  10.361 -0.0095 -0.1452  0.0980
 7056W        W11256   2.883   6.402  11.819  0.1674  0.0387 -0.1590
 7057W        W11257   8.493   3.892   1.375 -0.1279 -0.1374  0.2030
 7058W        W11258   4.699   6.817   5.208  0.1908 -0.0875 -0.0814
 7059W        W11259   7.544   6.105   4.285 -0.1643  0.4008 -0.1891
 7060W        W11260   5.887   6.004   5.400  0.1581  0.3030 -0.1807
 7061W        W11261   4.578   0.331  11.487  0.0089  0.5869 -0.0194
 7062W        W11262   5.613   8.083   1.213  0.1669 -0.0564 -0.2806
 7063W        W11263   5.898   1.516  12.910 -0.0926 -0.0442 -0.4106
 7064W        W11264   0.804   0.161   1.119 -0.1232  0.0007  0.0438
 7065W        W11265   7.379   0.798   0.100  0.2009 -0.4746 -0.0691
 7066W        W11266   0.409   9.888   0.098 -0.0011 -0.3077  0.1663
 7067W        W11267   5.334   8.121   9.209 -0.1252  0.1312  0.0383
 7068W        W11268   5.339   9.729  11.375 -0.1518 -0.2214 -0.0238
 7069W        W11269   2.131   7.999   0.474  0.0832 -0.2217  0.1913
 7070W        W11270   0.359   1.622   9.739  0.0879 -0.1911 -0.1366
 7071W        W11271   7.223   0.529   1.566  0.0859  0.4035 -0.1325
 7072W        W11272   3.125   3.621   4.255  0.1737  0.0491  0.2388
 7073W        W11273   6.996   4.228  11.678 -0.2739 -0.1286  0.0202
 7074W        W11274   8.999   0.719  12.938  0.2704  0.0934  0.3002
 7075W        W11275   9.037   6.661  13.313  0.0842 -0.1921 -0.0570
 7076W        W11276  10.460   4.164  12.040 -0.0547 -0.1717 -0.1159
 7077W        W11277   0.657   6.758   0.535 -0.1465 -0.0885  0.5863
 7078W        W11278   3.628   6.320   0.413  0.3416  0.1125 -0.1517
 7079W        W11279   8.783   5.307   3.629 -0.1516 -0.1870  0.0644
 7080W        W11280   4.516  10.095  12.908 -0.0610 -0.0521 -0.0823
 7081W        W11281   5.912   8.279   0.219 -0.0551  0.1841  0.1021
 7082W        W11282   5.260   0.888   2.096 -0.1985 -0.0037 -0.0080
 7083W        W11283   3.224   2.421   0.353 -0.1789  0.4028 -0.0199
 7084W        W11284   6.550   9.298   9.620  0.1162  0.1084 -0.4047
 7085W        W11285   6.741   9.989  10.332  0.0875  0.2784 -0.1522
 7086W        W11286   4.976   3.501   5.070  0.0871  0.0859 -0.0652
 7087W        W11287   9.630   0.540   2.671  0.0408 -0.1686  0.2132
 7088W        W11288   2.566   4.801  12.964  0.0561  0.0762 -0.1645
 7089W        W11289   9.098   2.536   3.232 -0.0577  0.2338 -0.0092
 7090W        W11290   4.687   8.523  12.545 -0.4389  0.0616  0.0446
 7091W        W11291   4.742   3.356   0.375 -0.0764  0.1181 -0.2445
 7092W        W11292   3.507   9.168  12.055  0.0196  0.1801  0.2079
 7093W        W11293   3.394   5.125   2.578  0.5771  0.0564 -0.1845
 7094W        W11294   7.188   3.600   1.502 -0.0008  0.0273 -0.0912
 7095W        W11295   4.077   3.822   3.595  0.0773  0.2972  0.4204
 7096W        W11296   4.695   4.073   1.875 -0.1744 -0.0336  0.0299
 7097W        W11297   2.793   6.522   9.698  0.1847 -0.1373 -0.3600
 7098W        W11298   1.021   2.135   1.629 -0.0167 -0.1578  0.2201
 7099W        W11299   2.994   9.110  12.213  0.0474  0.0600 -0.0102
 7100W        W11300   9.977   5.001   1.313 -0.1827 -0.2265  0.0115
 7101W        W11301   1.695   5.119   1.860  0.1485  0.0667  0.2290
 7102W        W11302   9.000  10.007  12.821  0.1565  0.1436 -0.1282
 7103W        W11303   5.720   1.068   2.094 -0.1542 -0.3035  0.1364
 7104W        W11304   8.243   9.006   0.519  0.3520  0.0591  0.0785
 7105W        W11305   7.221   1.825   3.397  0.1155  0.0165  0.0874
 7106W        W11306   3.489   3.972  12.414 -0.0351  0.2064  0.0144
 7107W        W11307   7.923   9.423   9.733 -0.2683  0.1863  0.2454
 7108W        W11308   2.980   5.686   0.689  0.0017  0.3111 -0.2599
 7109W        W11309   6.581   3.588   2.190  0.1919 -0.1649 -0.3415
 7110W        W11310   5.182   2.470  10.785  0.0377  0.0103 -0.0972
 7111W        W11311   8.148   2.367   9.640 -0.0142 -0.0765 -0.2408
 7112W        W11312   3.586   5.814   1.347 -0.1023 -0.1876  0.1115
 7113W        W11313   8.327   8.864   9.269  0.1016 -0.1302  0.2656
 7114W        W11314   2.421   2.307   0.157  0.0157 -0.1005 -0.4381
 7115W        W11315   8.181   9.285   2.276  0.0243  0.1574 -0.2554
 7116W        W11316   5.065   6.154  12.087  0.1362 -0.1928  0.0439
 7117W        W11317   0.962   7.853   2.864  0.1097 -0.1452  0.1066
 7118W        W11318   2.588  10.464  10.242 -0.1200 -0.0182  0.0329
 7119W        W11319   9.819   4.075  10.598 -0.2815 -0.1840 -0.2015
 7120W        W11320   9.416   2.847   3.438  0.2985 -0.1645 -0.0471
 7121W        W11321   7.756  10.407  10.219 -0.1574  0.1569 -0.0868
 7122W        W11322   4.217   0.631   9.234 -0.0144 -0.1101 -0.3396
 7123W        W11323   5.682   4.966   8.447 -0.1161  0.2911 -0.0133
 7124W        W11324   7.267   3.039   2.703 -0.4159  0.0708  0.2839
 7125W        W11325   0.741   9.196  10.996 -0.1270 -0.3858  0.0103
 7126W        W11326   9.917   7.010   2.646  0.0969  0.1523  0.3786
 7127W        W11327   3.820   9.273   9.276  0.1403  0.0302 -0.1019
 7128W        W11328   4.922   3.922   8.869  0.1843 -0.0469  0.1319
 7129W        W11329   7.389   2.179   1.449  0.2354 -0.1642 -0.1423
 7130W        W11330   9.615   0.258  10.798  0.0971 -0.1589  0.2280
 7131W        W11331   5.897   3.035   1.689  0.0829  0.0352  0.1874
 7132W        W11332   0.469   9.130  12.826 -0.2990 -0.1589  0.0904
 7133W        W11333   9.890   4.192   8.297 -0.3347 -0.1101 -0.2520
 7134W        W11334   9.153   3.034   2.970  0.0184  0.3370  0.0945
 7135W        W11335   3.715   4.939  10.571  0.0682 -0.1641 -0.0866
 7136W        W11336   5.843   1.073   0.833  0.0918 -0.2076  0.0312
 7137W        W11337   3.078   8.237  12.636 -0.0763  0.1886 -0.0714
 7138W        W11338   1.581   6.631   9.215  0.1669 -0.2270  0.0796
 7139W        W11339   3.642   7.925   4.022  0.1141  0.1441 -0.2046
 7140W        W11340   8.898   8.584  11.462  0.0807  0.0972 -0.1768
 7141W        W11341   7.271   6.575   4.071 -0.4283  0.0106 -0.3211
 7142W        W11342   2.566   1.111   1.374 -0.1426 -0.2267  0.0960
 7143W        W11343   4.818   8.656  10.755  0.1196 -0.2227 -0.3943
 7144W        W11344   0.818   6.783  10.873  0.1847 -0.1386 -0.2235
 7145W        W11345   3.173   7.730   3.337  0.0711 -0.2498  0.1266
 7146W        W11346   4.808   9.374   4.036  0.3724  0.0923 -0.0601
 7147W        W11347   8.834   7.658  11.261  0.0826  0.1405  0.0964
 7148W        W11348   2.879   8.569   3.700  0.2967  0.3369  0.1171
 7149W        W11349   0.580   0.398  12.268 -0.3342 -0.0813 -0.1023
 7150W        W11350   3.089   4.021  12.104  0.2018  0.1218  0.1469
 7151W        W11351   6.775   8.458   3.311  0.0853  0.3759  0.0273
 7152W        W11352   9.671   1.372  13.114 -0.0746  0.1967 -0.1078
 7153W        W11353   7.128   9.020   2.023  0.0815 -0.0975  0.1032
 7154W        W11354   6.620  10.087   0.816  0.2669  0.1274 -0.2722
 7155W        W11355   1.809   4.432   8.739  0.0036  0.2092  0.1641
 7156W        W11356   3.750   7.651   1.497 -0.0908 -0.1848 -0.1585
 7157W        W11357   2.546   4.266  10.743  0.0086  0.0725  0.2047
 7158W        W11358   7.619   0.488   1.846  0.0984  0.1312 -0.0292
 7159W        W11359   8.833   8.473  12.950 -0.2360  0.2952  0.3535
 7160W        W11360   5.008   3.148   3.193 -0.1120 -0.1968  0.1400
 7161W        W11361   8.853   2.977   3.454  0.1406  0.0100 -0.0586
 7162W        W11362   8.526   8.853   2.361 -0.2262 -0.4221 -0.3456
 7163W        W11363   9.430   0.997   2.537 -0.1031 -0.2562 -0.0251
 7164W        W11364   8.617   8.480   9.562 -0.2892 -0.0589 -0.1634
 7165W        W11365   5.357   3.815   0.408  0.0909 -0.1322 -0.2059
 7166W        W11366   4.760   5.990   9.587  0.4039 -0.1389  0.2382
 7167W        W11367   5.690   4.257  11.265  0.0693  0.0139  0.2351
 7168W        W11368   1.957   4.404   9.225  0.0029 -0.2554  0.4134
 7169W        W11369  10.025   0.545   3.069  0.2234 -0.1416  0.1008
 7170W        W11370   2.720   1.790   9.256  0.1121  0.0798 -0.3140
 7171W        W11371   4.530   2.020   3.583 -0.0348  0.0656 -0.0920
 7172W        W11372   3.571   2.249   3.463 -0.3040  0.4202 -0.1292
 7173W        W11373   9.512   6.997  10.268  0.0928 -0.2728  0.1065
 7174W        W11374   3.887   4.995   0.548  0.0839 -0.0783 -0.3436
 7175W        W11375   6.317   3.224   9.736  0.2704 -0.0919  0.0635
 7176W        W11376   4.425   5.481  10.263 -0.2099 -0.3899 -0.0306
 7177W        W11377   8.219   7.004   2.121 -0.2523 -0.0476  0.1816
 7178W        W11378   2.284   5.022   4.208  0.2984 -0.0319  0.0260
 7179W        W11379   0.650   5.368   3.212  0.2601  0.1578 -0.0256
 7180W        W11380   0.388   3.392   0.427  0.2609 -0.1727 -0.1185
 7181W        W11381   8.605   4.951  11.015 -0.2467 -0.1179  0.3397
 7182W        W11382   1.827   3.503   1.645  0.0158 -0.1061  0.0927
 7183W        W11383   9.256   0.372   1.046  0.0135  0.2207 -0.0867
 7184W        W11384   2.014   5.320   9.844  0.2385 -0.2617 -0.1217
 7185W        W11385   2.992   6.597   9.134 -0.2858 -0.3701 -0.1526
 7186W        W11386   4.805   3.046   5.283  0.1836 -0.2485  0.0277
 7187W        W11387   3.235   2.162   1.912 -0.0574  0.0925  0.1894
 7188W        W11388   5.379   6.096  11.193  0.4488  0.0475 -0.2142
 7189W        W11389   0.903   9.387  12.813 -0.1154 -0.3122 -0.0541
 7190W        W11390   4.491   0.887  11.390  0.2451  0.0833  0.0368
 7191W        W11391   0.893   6.392   2.781  0.1034  0.5409 -0.2008
 7192W        W11392  10.119   6.070  10.597  0.2295 -0.0652  0.2038
 7193W        W11393   0.770   4.991  10.329  0.0329  0.0280 -0.1566
 7194W        W11394   1.545   6.766  13.343  0.0813  0.0054 -0.0254
 7195W        W11395   9.926   0.989  10.198  0.0679  0.3056 -0.0910
 7196W        W11396   8.084   9.750  10.226 -0.3471  0.1972  0.1338
 7197W        W11397   2.564   0.412  13.281  0.0437 -0.2611  0.3457
 7198W        W11398   8.456   8.406   2.554  0.1078  0.0182  0.3551
 7199W        W11399   2.236   9.481   3.125  0.0491 -0.1645  0.2357
 7200W        W11400   7.774   9.730   2.202  0.3617  0.2768  0.1690
 7201W        W11401   6.313   2.216   2.594 -0.0410 -0.0263  0.1898
 7202W        W11402   0.902   8.935   3.245  0.1306 -0.2031 -0.0058
 7203W        W11403   4.667   7.657   9.837 -0.4004  0.1273  0.0509
 7204W        W11404   4.753   4.476   8.596 -0.0946  0.2320  0.0381
 7205W        W11405   9.460   6.972  13.188 -0.0069  0.1846  0.1480
 7206W        W11406   7.528   2.457   1.042  0.3607 -0.1236 -0.3470
 7207W        W11407   0.881   0.311   9.733  0.2383 -0.0454  0.0193
 7208W        W11408   2.048   1.424  11.494 -0.2463  0.1157  0.1955
 7209W        W11409   0.753   8.514   3.455  0.2515 -0.0087 -0.2088
 7210W        W11410   7.555   2.344   4.023 -0.1985  0.0368  0.0642
 7211W        W11411   3.346   6.490   1.148  0.1787 -0.1208 -0.2506
 7212W        W11412   4.413   1.428  11.510  0.0121 -0.3179 -0.0383
 7213W        W11413   1.025   4.860   3.223  0.1342 -0.1246 -0.1409
 7214W        W11414   1.767   6.481   3.545 -0.1217  0.1656 -0.2049
 7215W        W11415   7.345   6.853   5.075  0.1945  0.1866  0.3668
 7216W        W11416  10.337   6.877   3.683 -0.0208 -0.2087  0.2192
 7217W        W11417   5.899   0.385  10.441  0.0329  0.1212 -0.1735
 7218W        W11418   4.168   3.278  12.440  0.1280 -0.2514 -0.1070
 7219W        W11419   5.811   3.347   9.991 -0.0357 -0.1658 -0.2063
 7220W        W11420   5.542   5.810   1.806 -0.1845 -0.1872  0.3299
 7221W        W11421   3.576   2.061   9.724  0.0180 -0.0663  0.1092
 7222W        W11422   3.139   2.072  12.422  0.2678 -0.1725  0.0651
 7223W        W11423   4.268   2.256   9.147  0.3093 -0.2582 -0.1172
 7224W        W11424   8.556   0.660   3.577  0.2948  0.2851 -0.0109
 7225W        W11425   3.542   9.690   1.688  0.0924  0.0620  0.0942
 7226W        W11426   5.452   0.492   9.330 -0.0718  0.1578  0.1735
 7227W        W11427   4.855   3.091  10.316  0.0434  0.2163  0.3929
 7228W        W11428   1.447   1.901   3.865  0.1282  0.0803  0.1071
 7229W        W11429   0.516   7.677   0.067 -0.0336  0.2115 -0.0320
 7230W        W11430   2.124   0.894  11.612 -0.2612 -0.4339 -0.1490
 7231W        W11431   0.296   3.312   9.212 -0.1379  0.0793  0.0386
 7232W        W11432   6.746   1.160  11.154 -0.1266  0.1810 -0.2179
 7233W        W11433   3.098   4.732  11.258  0.0616  0.0636  0.0008
 7234W        W11434   8.114   1.575  11.053 -0.1580  0.2927 -0.1789
 7235W        W11435   9.404   6.086   1.513 -0.0085 -0.0639  0.0116
 7236W        W11436  10.464   6.336   3.820  0.0470 -0.3579 -0.0321
 7237W        W11437   6.355   1.904   2.206 -0.3755  0.1057  0.1794
 7238W        W11438   5.703   9.406   4.134  0.0889  0.2521 -0.2663
 7239W        W11439   4.869   0.271   8.300  0.2294  0.1483  0.1661
 7240W        W11440   9.231   3.641  11.931 -0.0217 -0.2703  0.1326
 7241W        W11441   2.320   2.056   4.055 -0.1485 -0.2469  0.0844
 7242W        W11442   9.415   8.402   0.992  0.2649  0.2097 -0.0788
 7243W        W11443   0.015   2.984   2.367  0.0455  0.2708  0.0113
 7244W        W11444   0.037   4.917   5.000  0.1913  0.1315 -0.0407
 7245W        W11445   3.153   3.326   8.895  0.3602 -0.1954 -0.1969
 7246W        W11446   8.976   4.250   0.539 -0.1508 -0.0030  0.0882
 7247W        W11447   6.645   1.358   9.039 -0.0197 -0.1965 -0.0628
 7248W        W11448  10.335   0.451   2.242  0.1775 -0.0143  0.0007
 7249W        W11449   3.577   5.704   3.243  0.3599  0.0528 -0.0409
 7250W        W11450   6.987   6.353  12.374  0.5173  0.0365 -0.2489
 7251W        W11451   7.670   4.642  12.148  0.4648  0.0432 -0.3202
 7252W        W11452   8.460   7.068   3.467 -0.0211 -0.1341  0.0355
 7253W        W11453   4.035   8.250   4.386  0.0423  0.0255  0.3369
 7254W        W11454   2.434   6.486   0.796 -0.1542  0.1885 -0.2784
 7255W        W11455   2.818   4.201   0.194  0.2365  0.1273  0.0358
 7256W        W11456   1.385   7.697  13.144 -0.0774 -0.0001  0.0976
 7257W        W11457   9.407   0.786  11.546 -0.2530 -0.1967  0.3742
 7258W        W11458   0.770   9.935   2.831  0.0522 -0.0774  0.0208
 7259W        W11459   3.810   7.280   4.048  0.0213  0.3502  0.0139
 7260W        W11460   8.880   0.800   3.956  0.0324  0.2357  0.2223
 7261W        W11461   6.756   4.636   1.344 -0.0628  0.1228 -0.0315
 7262W        W11462   0.966   6.586   3.832  0.1510  0.1939 -0.1725
 7263W        W11463   6.863   6.667  10.805  0.0389 -0.0104 -0.2638
 7264W        W11464   1.457   7.739  10.054  0.0178  0.2929  0.0381
 7265W        W11465   4.261   7.201  11.046 -0.0219 -0.1078 -0.1401
 7266W        W11466   4.184   5.607   2.588  0.1272 -0.2396 -0.1517
 7267W        W11467   3.181   6.097   0.415  0.0370 -0.1113 -0.2708
 7268W        W11468   3.278   2.704   3.841  0.2119 -0.0011 -0.0139
 7269W        W11469   6.148   5.864  12.886  0.0506  0.0108  0.0460
 7270W        W11470   8.790   1.012   1.713 -0.1328  0.0280  0.2151
 7271W        W11471   6.573   5.160   3.807  0.2663 -0.1132 -0.1334
 7272W        W11472   2.705   2.109   2.171 -0.2930  0.1169  0.1585
 7273W        W11473   0.439   5.119   9.929 -0.1906  0.0559 -0.1609
 7274W        W11474   0.916   6.036   9.258  0.0392  0.0052  0.3356
 7275W        W11475   8.357   2.351   0.443  0.2989 -0.0798  0.2476
 7276W        W11476   5.207   5.713   3.078 -0.2467  0.0974  0.1204
 7277W        W11477   5.092   0.928  10.686  0.1448 -0.1454  0.3192
 7278W        W11478   5.971   8.892  11.229 -0.3389 -0.2569 -0.3396
 7279W        W11479   9.028   3.003   0.934 -0.0781 -0.1030  0.1282
 7280W        W11480   2.929   1.578  10.254 -0.1656  0.0541  0.4326
 7281W        W11481   4.859   7.654   1.305 -0.0343 -0.1165 -0.1230
 7282W        W11482   3.949   9.360  12.017 -0.0481 -0.1613 -0.0815
 7283W        W11483   8.013   5.269  10.321 -0.3796 -0.1221 -0.0254
 7284W        W11484   7.003   1.364   2.466 -0.1197  0.1743 -0.2449
 7285W        W11485   8.925   8.420   3.750 -0.2039  0.0148 -0.2054
 7286W        W11486   4.708   6.885   9.135 -0.1517  0.0927  0.1702
 7287W        W11487   5.495   7.843   3.339  0.1019  0.1467 -0.1519
 7288W        W11488   7.526   1.815  10.006  0.0837 -0.0432  0.1971
 7289W        W11489   4.543   1.870   8.132 -0.2064  0.2378  0.4583
 7290W        W11490   6.625   6.646   9.261  0.1256 -0.1301  0.0606
 7291W        W11491   8.789   8.331   1.582  0.1623 -0.2194 -0.2089
 7292W        W11492   7.168  10.298   4.893  0.0618  0.0097 -0.3745
 7293W        W11493   9.049  10.133  13.342  0.2250  0.0564  0.1482
 7294W        W11494   1.943   8.067  11.990 -0.1410  0.2203  0.1664
 7295W        W11495   7.478  10.141   0.904  0.0339  0.1697 -0.0052
 7296W        W11496   0.732  10.188   0.294 -0.3995  0.3419  0.0716
 7297W        W11497   3.068   9.400   1.266  0.1096 -0.1455 -0.1770
 7298W        W11498   2.772   8.011   3.593  0.1672 -0.0117  0.2173
 7299W        W11499   0.516   1.198   2.681 -0.3142 -0.0306 -0.3948
 7300W        W11500   8.048   3.721   1.398 -0.0163  0.0384 -0.2528
 7301W        W11501   6.205   5.361  12.417 -0.1589 -0.0254 -0.1127
 7302W        W11502   7.117   3.677  10.605 -0.0882 -0.1787 -0.0107
 7303W        W11503   9.977   3.517   0.983 -0.1930 -0.0610  0.3974
 7304W        W11504  10.248   7.358  11.831  0.0055  0.1027  0.0742
 7305W        W11505   9.737   8.000   9.076  0.2309  0.0669  0.1874
 7306W        W11506   2.470   0.438  10.071 -0.2161 -0.3428  0.0839
 7307W        W11507   1.417   9.023   0.555  0.1797 -0.0537  0.0798
 7308W        W11508  10.358   8.023   3.114  0.1522  0.2241  0.1453
 7309W        W11509   5.090   6.001   4.608  0.2795 -0.2362  0.0526
 7310W        W11510   5.379   1.001   1.241  0.0461 -0.2123  0.0581
 7311W        W11511   2.848   0.287   1.156 -0.2546 -0.1862  0.6951
 7312W        W11512   5.465   0.184   3.413  0.3509 -0.0895 -0.0180
 7313W        W11513   4.344   6.452   0.608 -0.0841 -0.3578 -0.2189
 7314W        W11514   4.600   2.096   1.910 -0.3428 -0.2769 -0.0562
 7315W        W11515   5.728   7.073   1.053 -0.1221 -0.1983  0.3036
 7316W        W11516   4.062   5.861   3.064 -0.0418 -0.1804  0.0102
 7317W        W11517   9.969   9.738   0.923 -0.2454  0.0682 -0.2268
 7318W        W11518   8.989   7.794   3.078 -0.0917  0.1060  0.2104
 7319W        W11519   0.744   8.176   2.586  0.0221 -0.1934  0.2597
 7320W        W11520   9.468   3.381   0.987  0.1859  0.0378 -0.0768
 7321W        W11521   2.988   8.807  11.347  0.1478 -0.3672  0.3325
 7322W        W11522  10.389   5.041   3.919  0.2657 -0.2105  0.1164
 7323W        W11523   3.764   1.822   1.443  0.1800  0.5499  0.4162
 7324W        W11524   5.207   6.371   9.723  0.1572  0.1605  0.0798
 7325W        W11525   4.493   5.757   5.040  0.0363  0.1422 -0.0905
 7326W        W11526   3.275   6.503  10.401 -0.2118 -0.1163 -0.0178
 7327W        W11527  10.224   4.291  10.852 -0.0596  0.1293 -0.1667
 7328W        W11528   7.581   6.366   2.282 -0.1628 -0.2384  0.3311
 7329W        W11529   6.837   1.684  10.541  0.1321 -0.3368  0.0627
 7330W        W11530   8.023   4.651   3.898  0.0401 -0.0104 -0.0330
 7331W        W11531   1.504   0.780   1.633  0.1311  0.0187  0.0273
 7332W        W11532   2.009   9.939   0.045 -0.1750 -0.2621  0.0591
 7333W        W11533   4.463   8.463   0.181 -0.1645 -0.2515 -0.1833
 7334W        W11534   5.221  10.150   9.479  0.1654  0.1226 -0.0595
 7335W        W11535   3.403   9.506  10.020  0.1196  0.2480  0.2703
 7336W        W11536   4.251   1.363  10.078  0.0407 -0.3408 -0.1774
 7337W        W11537   5.162   1.519   2.587  0.0087 -0.1214  0.2579
 7338W        W11538   1.380   2.398   3.579 -0.0532 -0.1017  0.1988
 7339W        W11539   1.416   4.292  10.241 -0.0215 -0.0329  0.0724
 7340W        W11540   2.617   8.532  13.149 -0.1781 -0.1718  0.1140
 7341W        W11541   2.067   7.914  12.447  0.0949 -0.2700  0.0184
 7342W        W11542   2.061   6.473   9.204  0.1656  0.0850 -0.1239
 7343W        W11543   3.794   5.018   3.239 -0.2687 -0.1979 -0.1342
 7344W        W11544   8.157   3.014   2.127 -0.0866 -0.0643 -0.1654
 7345W        W11545   4.622   5.550   0.133 -0.1220 -0.3118  0.3020
 7346W        W11546   5.940   4.555  12.497 -0.1413  0.3275  0.1027
 7347W        W11547   4.292   9.447   4.107 -0.1415 -0.3364  0.1269
 7348W        W11548   1.758   0.133   3.529  0.0721  0.1249 -0.2734
 7349W        W11549   3.554   1.749  10.774  0.1911 -0.1407  0.0989
 7350W        W11550   5.659   9.406   9.410  0.1410 -0.2268 -0.1072
 7351W        W11551   0.157   3.027  10.973  0.1327 -0.2220  0.2614
 7352W        W11552   1.164   4.528  13.210  0.0518 -0.1926  0.2105
 7353W        W11553   8.839   1.673  11.426  0.2531  0.2731 -0.1520
 7354W        W11554   3.294   7.905  13.053  0.1600 -0.0264 -0.2485
 7355W        W11555   5.771   2.977   5.216  0.0834  0.1844 -0.3172
 7356W        W11556  10.395   0.766   2.631 -0.1088 -0.0421 -0.1072
 7357W        W11557   2.034   5.203   1.423  0.1370  0.1439 -0.2409
 7358W        W11558   3.029   3.142   1.970 -0.1811  0.1089  0.4118
 7359W        W11559   4.852   2.736  12.833  0.2791  0.0223 -0.0063
 7360W        W11560   6.202  10.033   1.581  0.0726 -0.1073  0.0358
 7361W        W11561   5.506   4.265   5.108 -0.1196  0.1140  0.3515
 7362W        W11562   0.838   2.716  12.791 -0.0132 -0.0202 -0.0290
 7363W        W11563   7.702   5.059   3.590  0.0465  0.0084 -0.0176
 7364W        W11564   3.582   6.800   0.568  0.0640 -0.1970 -0.1088
 7365W        W11565   7.596   0.726  12.918 -0.1213 -0.0508  0.2010
 7366W        W11566   8.258   9.645   2.740 -0.1685 -0.1219  0.1021
 7367W        W11567   0.671   0.696   3.705  0.3048 -0.2167 -0.0131
 7368W        W11568   9.880   8.832  11.885 -0.1206 -0.1126 -0.2885
 7369W        W11569   5.318   0.852   3.840 -0.2318 -0.0709  0.1038
 7370W        W11570   7.221   2.333  11.617 -0.1217 -0.5716  0.3042
 7371W        W11571   3.590   9.909   3.485  0.4324 -0.0042  0.2392
 7372W        W11572   8.982   3.144  11.771  0.1409 -0.0007 -0.2590
 7373W        W11573   5.428   0.191   1.184 -0.1298  0.0159 -0.1281
 7374W        W11574   2.008   1.825   8.692  0.1877 -0.0623 -0.4088
 7375W        W11575   6.368   5.975  11.959 -0.1664 -0.1419  0.0407
 7376W        W11576   5.209   2.744  11.675 -0.1262  0.1723 -0.1132
 7377W        W11577   6.845   6.977  13.016  0.4827  0.1523  0.3304
 7378W        W11578   1.905   7.132   8.619  0.3623  0.0110 -0.0600
 7379W        W11579   7.343   8.614   4.235  0.0316 -0.1450  0.0823
 7380W        W11580   3.264   0.210  10.497  0.0348  0.0015 -0.0263
 7381W        W11581   1.990   7.310   2.864  0.1704  0.1685  0.0562
 7382W        W11582   6.361   4.379  12.254 -0.0431 -0.2391 -0.0982
 7383W        W11583   4.006   1.949   8.852  0.3231 -0.5042 -0.0067
 7384W        W11584   0.767   0.237   2.638  0.2292  0.0421 -0.3258
 7385W        W11585   6.096   5.944   1.637 -0.0185 -0.2717  0.0231
 7386W        W11586   3.416   0.983  13.213 -0.1583 -0.1762  0.0582
 7387W        W11587   5.009   8.941   1.938  0.1877 -0.2842  0.0776
 7388W        W11588   7.112   4.234  10.489 -0.1357  0.1375 -0.2561
 7389W        W11589   6.438   4.155   2.615 -0.0367 -0.0959  0.1334
 7390W        W11590   8.259   9.663   0.484 -0.4428  0.2098 -0.1522
 7391W        W11591   4.334   8.450   9.184  0.4447 -0.1006 -0.0118
 7392W        W11592   4.912   4.322  10.798  0.0898 -0.0537  0.0755
 7393W        W11593   7.105   1.146   1.321 -0.1718  0.1304 -0.0995
 7394W        W11594   8.805   4.075  10.410  0.2979 -0.1189 -0.0661
 7395W        W11595   9.992   7.936  10.227  0.2424 -0.1722 -0.0479
 7396W        W11596   9.648   0.146  11.678  0.0149  0.1630  0.1485
 7397W        W11597   3.630   0.560   9.482  0.1028 -0.0490  0.2400
 7398W        W11598   5.009   4.255   3.355  0.2319 -0.3395  0.3260
 7399W        W11599   8.712   6.541   2.748 -0.1736  0.2745  0.0414
 7400W        W11600   7.995   2.507   2.647  0.4095 -0.0896  0.0654
 7401W        W11601   5.752   7.668   0.979  0.0678  0.0479  0.0726
 7402W        W11602   1.378   8.783  12.500 -0.3513  0.1436 -0.1493
 7403W        W11603   5.025   9.660   4.737  0.1056 -0.2258 -0.1751
 7404W        W11604   6.943   4.591  12.540 -0.2010 -0.1684  0.0242
 7405W        W11605   2.050  10.186   1.218 -0.2949  0.3166  0.2610
 7406W        W11606   0.426   2.287   1.631 -0.1327  0.1570 -0.2608
 7407W        W11607   7.182   9.457  12.205  0.1933 -0.2690 -0.1818
 7408W        W11608   6.642   3.932  13.025  0.0561  0.3354 -0.1225
 7409W        W11609   2.780   2.259  12.092  0.2733 -0.2526 -0.1777
 7410W        W11610   2.295   7.495   0.410 -0.1428 -0.0121  0.3551
 7411W        W11611   8.931   3.624   2.137 -0.1250  0.1653 -0.2333
 7412W        W11612   9.928   2.338  10.165 -0.0908 -0.1081 -0.0294
 7413W        W11613   3.016   6.002  11.484 -0.0645  0.0559 -0.0416
 7414W        W11614   4.300   8.232  12.003  0.0878  0.0337 -0.0601
 7415W        W11615   5.172   2.205   2.799 -0.2934 -0.0104  0.4066
 7416W        W11616   6.653   6.358   2.266 -0.0195  0.3147 -0.0014
 7417W        W11617   8.023   8.149  12.299  0.0348 -0.0052  0.0074
 7418W        W11618   5.856   6.966   0.480  0.2815  0.0614 -0.0165
 7419W        W11619   5.762   2.212  12.366  0.1685  0.1379 -0.2661
 7420W        W11620  10.247   1.232  10.901 -0.0810 -0.0938  0.1342
 7421W        W11621   0.563   8.711   2.416 -0.1469 -0.3789  0.2359
 7422W        W11622   3.067  10.104   0.898  0.0897  0.0325  0.0830
 7423W        W11623   1.362   6.028   0.377  0.1447 -0.0878  0.2132
 7424W        W11624   7.400   5.946  10.316  0.2352  0.2794 -0.2351
 7425W        W11625   4.721   4.851  12.372  0.1695  0.0038  0.1245
 7426W        W11626   8.776   2.819   3.979 -0.0665 -0.0768 -0.0663
 7427W        W11627   3.054   3.792   1.416 -0.1065  0.1113 -0.0163
 7428W        W11628   3.183   5.839  12.079  0.1976 -0.1225  0.0927
 7429W        W11629  10.432   6.550  10.866 -0.0264  0.0063  0.1351
 7430W        W11630   3.394   0.841   9.892 -0.1152  0.4226  0.2673
 7431W        W11631   6.232   1.380   9.923 -0.0959 -0.0803 -0.0515
 7432W        W11632   0.083   4.175   3.585 -0.0841  0.0613  0.0190
 7433W        W11633   7.700   1.805   1.111 -0.0679  0.0807  0.1852
 7434W        W11634   9.258   6.351   2.850  0.0703  0.3683  0.3038
 7435W        W11635   9.883   5.113   9.571 -0.1527  0.0094  0.0392
 7436W        W11636   8.225   7.065   9.947  0.2506  0.0852  0.0824
 7437W        W11637   0.792   9.656  10.046  0.1769 -0.5160 -0.0861
 7438W        W11638   8.734   3.014  12.684  0.0348 -0.2612 -0.1222
 7439W        W11639   3.761   5.364   5.556 -0.2530 -0.2966 -0.1483
 7440W        W11640   1.114   7.572  11.827  0.0103  0.2028 -0.0662
 7441W        W11641   4.012   9.829   1.616 -0.0321 -0.0676 -0.0660
 7442W        W11642   3.405   9.576  11.000  0.0948 -0.1363 -0.1713
 7443W        W11643   7.607   1.461  11.225  0.2094  0.3687 -0.0312
 7444W        W11644   5.074   3.865  12.532  0.2622  0.1062  0.3679
 7445W        W11645   1.760   0.705  12.682 -0.2138  0.0602 -0.1529
 7446W        W11646   5.883   0.947   2.974  0.0145  0.0902  0.0895
 7447W        W11647   7.195   7.760   8.620  0.3434 -0.0084 -0.1783
 7448W        W11648   5.411   1.785   4.056 -0.0091  0.0782 -0.1309
 7449W        W11649   5.985   1.213  12.496  0.0994 -0.2482 -0.3317
 7450W        W11650   5.664   2.581  10.736  0.0630 -0.1974  0.0594
 7451W        W11651   2.038   5.318  10.738 -0.1627  0.0080 -0.0798
 7452W        W11652   8.122   3.492   1.812  0.2112 -0.1299  0.1862
 7453W        W11653   7.145   8.852   1.546 -0.2332 -0.2932 -0.1029
 7454W        W11654   3.543   0.409  12.362 -0.0195  0.1796  0.0312
 7455W        W11655   5.000   2.958   0.284 -0.0852 -0.4175  0.4114
 7456W        W11656   5.302   7.093  12.638  0.4221 -0.1738  0.1368
 7457W        W11657   8.145   3.978  10.931 -0.3627  0.2692  0.1272
 7458W        W11658   2.487   8.467   9.281 -0.2751 -0.1331 -0.2158
 7459W        W11659   4.603   0.408   0.731 -0.2191 -0.0391 -0.1835
 7460W        W11660   1.173   3.903   1.103  0.1288  0.2177  0.2544
 7461W        W11661   1.538   4.691   3.211  0.2347 -0.2778  0.0299
 7462W        W11662   1.172   9.913  10.943  0.0283  0.1591 -0.2357
 7463W        W11663   2.905   0.804   9.176  0.0577 -0.0075 -0.0330
 7464W        W11664   5.175   3.486   0.062 -0.0436  0.1791 -0.0845
 7465W        W11665   1.129   8.070  11.817 -0.2107 -0.2995 -0.0942
 7466W        W11666   2.466   9.014   3.090  0.5010  0.1334 -0.4833
 7467W        W11667   3.781   7.003   2.819 -0.0330 -0.1199  0.1323
 7468W        W11668   6.301   1.622   0.344 -0.0716  0.2032  0.1644
 7469W        W11669   9.960   3.598   4.184 -0.1479  0.6074 -0.3535
 7470W        W11670   3.259   8.502   0.881  0.2018  0.1824 -0.0438
 7471W        W11671   9.588   5.518   9.606 -0.0128 -0.0257 -0.1921
 7472W        W11672   4.298   7.362  10.317 -0.2693  0.1716  0.0205
 7473W        W11673   9.753   7.666   3.525  0.0215 -0.1321 -0.2333
 7474W        W11674   4.469   2.010   1.176  0.2070  0.0591  0.0373
 7475W        W11675   4.112   1.446   0.298 -0.0459  0.1580 -0.0660
 7476W        W11676   6.808   6.502   3.290 -0.0621 -0.0355  0.3834
 7477W        W11677   7.964   0.804   1.667 -0.2369  0.0651 -0.0570
 7478W        W11678   7.173   6.123  11.495 -0.0142 -0.1208  0.0728
 7479W        W11679   0.557   7.971   1.373 -0.1402  0.2577 -0.1409
 7480W        W11680   3.816   8.980  11.749  0.1148 -0.1021  0.0536
 7481W        W11681   5.746   2.854  10.215 -0.0690 -0.2086 -0.2889
 7482W        W11682   2.958   3.377  10.979 -0.2559 -0.2154  0.2043
 7483W        W11683   5.873   8.898  12.642  0.2927  0.0969  0.2168
 7484W        W11684   8.237   1.393  12.452 -0.0166 -0.1225  0.4310
 7485W        W11685   5.506   6.228  13.125  0.2005 -0.0960 -0.1052
 7486W        W11686   7.496   4.486  10.311  0.0908 -0.1229 -0.0406
 7487W        W11687   5.383   3.067   2.486  0.0965  0.1170 -0.1418
 7488W        W11688   1.313  10.205  11.510 -0.0554 -0.0448 -0.2622
 7489W        W11689   2.806   7.367   0.339 -0.0085  0.3198  0.1004
 7490W        W11690   0.448   2.798   8.523  0.3010  0.0422  0.1185
 7491W        W11691  10.286   3.806   8.494 -0.2637  0.1875  0.0254
 7492W        W11692   4.025  10.350   1.455  0.1648  0.1886 -0.0465
 7493W        W11693   3.947   6.204  10.758 -0.0101 -0.2918  0.2272
 7494W        W11694   9.434   7.226   1.303 -0.1417  0.1089 -0.2091
 7495W        W11695   0.559   4.332  10.709  0.1401  0.3204  0.1266
 7496W        W11696   5.010   6.326  13.031 -0.0946  0.2586  0.0284
 7497W        W11697   9.676   3.177   3.180  0.0416 -0.2686 -0.1136
 7498W        W11698   5.865   7.924   9.822  0.3861 -0.0497 -0.4349
 7499W        W11699   1.775   9.607   3.624 -0.0351  0.0125  0.0107
 7500W        W11700   7.237   2.678  12.159  0.0813  0.1155  0.0324
 7501W        W11701   6.181   8.837  12.210  0.2298  0.1275  0.0671
 7502W        W11702   0.074   9.423   0.264 -0.0320 -0.2243  0.0194
 7503W        W11703   0.796   7.369  11.454  0.2991 -0.0895 -0.3306
 7504W        W11704   6.864   4.906   9.127  0.0782  0.0312 -0.1344
 7505W        W11705   4.585   0.765  10.663 -0.0441 -0.1024 -0.0703
 7506W        W11706   2.251  10.388  12.586 -0.2243  0.1115 -0.0976
 7507W        W11707   0.876   2.420   2.705  0.1738 -0.0363 -0.3304
 7508W        W11708   3.448   9.657   1.032 -0.0692  0.0147 -0.3969
 7509W        W11709   3.488   8.376   2.416 -0.0748 -0.2327 -0.0899
 7510W        W11710   8.835   2.546   1.166  0.0274 -0.2181  0.1959
 7511W        W11711   2.075   4.128  13.299  0.0163 -0.0328  0.0237
 7512W        W11712   3.160   3.845  11.211  0.2999 -0.3019  0.1046
 7513W        W11713  10.403   2.021  12.098  0.0564 -0.3625  0.0888
 7514W        W11714   5.968   1.597   3.876 -0.2687 -0.1283  0.1150
 7515W        W11715   3.091   1.422   2.614 -0.2528 -0.2125 -0.2695
 7516W        W11716   8.879   8.850   9.428 -0.2776 -0.1859  0.0069
 7517W        W11717   6.716   9.124   0.751 -0.0707  0.0427 -0.2923
 7518W        W11718   4.617   8.031   0.987 -0.3860 -0.0293 -0.0600
 7519W        W11719   7.530   8.678   2.026 -0.2710  0.1364  0.1074
 7520W        W11720   0.830   7.011  12.658  0.0093 -0.2383  0.2643
 7521W        W11721   2.043   4.451   3.180 -0.0483  0.5821  0.2510
 7522W        W11722   5.311   0.448   2.482  0.2969 -0.0614 -0.1571
 7523W        W11723   6.590   8.566   4.598  0.0224 -0.1137 -0.0809
 7524W        W11724   0.190   1.459  10.662  0.0445  0.0360 -0.5323
 7525W        W11725   1.422   3.857   3.809  0.3872  0.0417  0.0667
 7526W        W11726   2.583   5.808   9.279  0.0935 -0.1259 -0.1345
 7527W        W11727   1.244   1.549  12.948 -0.0508 -0.1721  0.1840
 7528W        W11728   3.313   6.207   9.912  0.3653  0.1404 -0.0608
 7529W        W11729   5.305  10.477   0.715 -0.2847 -0.1675  0.1570
 7530W        W11730   4.775   4.633  10.333 -0.1849 -0.3055 -0.0846
 7531W        W11731   7.403   5.779   9.798  0.1391 -0.2113 -0.0384
 7532W        W11732   6.097   6.967   2.239  0.0942 -0.1051 -0.0272
 7533W        W11733   5.828   0.303  11.083  0.1858 -0.1128  0.0622
 7534W        W11734   5.180   1.176   4.735  0.1161  0.3641  0.1546
 7535W        W11735   5.402   6.423   4.460  0.1141 -0.1636  0.0790
 7536W        W11736   0.730   5.956   3.069 -0.1501 -0.1326 -0.1660
 7537W        W11737   7.641   1.044   8.171  0.0823 -0.1949 -0.3464
 7538W        W11738   5.753   5.454   3.516  0.3139 -0.0713  0.0078
 7539W        W11739   4.600   8.711   1.687 -0.1136  0.0997  0.0027
 7540W        W11740   3.476   2.882   0.599 -0.0804  0.0352 -0.1228
 7541W        W11741   3.164   2.162  10.543  0.1569  0.0524  0.3026
 7542W        W11742   6.247   5.484   3.498 -0.1391  0.2369  0.2503
 7543W        W11743   4.744  10.300   5.518  0.4232  0.0191  0.0510
 7544W        W11744   8.627   2.051   8.377 -0.0024 -0.4790 -0.2619
 7545W        W11745   6.877   0.637   4.565 -0.3552 -0.1952 -0.2082
 7546W        W11746   1.807   7.134  10.879 -0.0974 -0.1137 -0.2195
 7547W        W11747   6.227   2.347   4.494  0.2839  0.0465  0.2202
 7548W        W11748   1.840   3.939  12.892  0.1347 -0.1201 -0.1533
 7549W        W11749   8.543   7.410  11.839  0.2593 -0.2700  0.1999
 7550W        W11750   5.006   5.347  13.223  0.0538 -0.3257  0.0842
 7551W        W11751   2.881   1.274   4.543 -0.3509 -0.1108  0.0803
 7552W        W11752  10.102   4.269   0.307  0.1517  0.0505  0.1323
 7553W        W11753   4.973   2.931  12.129 -0.0491  0.1976  0.2210
 7554W        W11754   4.734   9.730   1.757  0.0892 -0.1120  0.0278
 7555W        W11755   9.770   9.391  10.578  0.1937 -0.0632 -0.1601
 7556W        W11756   5.328   5.117  11.422 -0.1717  0.0381 -0.1336
 7557W        W11757   7.178   7.586   1.523 -0.2737 -0.0123 -0.1578
 7558W        W11758   2.809   9.517  12.395  0.1495 -0.2374 -0.1242
 7559W        W11759   1.839   3.066   2.483  0.0474 -0.0836 -0.2832
 7560W        W11760   5.481   9.618   2.107 -0.1272  0.1569  0.2901
 7561W        W11761   9.646   3.175   2.646 -0.0469 -0.1119  0.0412
 7562W        W11762   3.437   6.610   4.556  0.1250  0.3001  0.2928
 7563W        W11763  10.297   0.385  12.429  0.1921 -0.3043 -0.0408
 7564W        W11764   0.522   2.960   2.042 -0.0240 -0.1902  0.2397
 7565W        W11765   4.568   3.843   3.589  0.0570 -0.0024 -0.0224
 7566W        W11766   3.118   9.930  10.203 -0.0197 -0.0473 -0.0687
 7567W        W11767   5.677   9.393   2.554  0.1647 -0.1835 -0.1222
 7568W        W11768   3.345   4.530   1.818 -0.0924 -0.1865  0.0077
 7569W        W11769   2.657   9.679  11.693 -0.0015 -0.0554  0.0297
 7570W        W11770   3.647   6.012  12.219  0.0930 -0.0536 -0.3139
 7571W        W11771   3.586   6.571  12.211 -0.1462  0.3200 -0.2383
 7572W        W11772   0.488   8.765   1.954 -0.0316  0.0856  0.3436
 7573W        W11773   3.966   4.925   1.840  0.4454 -0.3469 -0.1518
 7574W        W11774   2.215   2.911   4.527  0.0009  0.2635  0.0847
 7575W        W11775  10.179   7.132  13.261  0.0592 -0.0506  0.1939
 7576W        W11776   2.009   6.982   9.080 -0.0809  0.3723  0.3019
 7577W        W11777   9.514   3.344   4.145  0.0686  0.0230 -0.0504
 7578W        W11778   0.458   6.805   9.674  0.3961 -0.1376  0.4187
 7579W        W11779   3.066   7.246  12.577 -0.1846 -0.3934 -0.3795
 7580W        W11780  10.455   7.190   9.968  0.0286  0.3507  0.0336
 7581W        W11781   0.708   6.397  11.229 -0.0997 -0.1237 -0.3088
 7582W        W11782   7.050   0.807   3.441 -0.1369 -0.0217 -0.0424
 7583W        W11783   4.190  10.247   4.823 -0.2859 -0.2516  0.0384
 7584W        W11784   2.686   6.313  12.255  0.0410 -0.1104 -0.3645
 7585W        W11785   9.706   8.231   0.129  0.0201  0.0820  0.1448
 7586W        W11786   5.746   9.212  12.093 -0.0992  0.2633  0.1744
 7587W        W11787   8.355   2.285  12.902  0.0741 -0.0545 -0.1142
 7588W        W11788   4.597  10.072  11.094 -0.0417 -0.0025  0.2655
 7589W        W11789   6.098   4.988  13.191 -0.2116 -0.0778  0.1849
 7590W        W11790   3.656   8.517   1.233 -0.0601 -0.0891  0.1159
 7591W        W11791   7.404   7.965   9.123 -0.0486  0.6793  0.1721
 7592W        W11792   9.218   5.997   3.925 -0.1516 -0.0189  0.2984
 7593W        W11793   6.752   6.892  12.298 -0.1664 -0.2303 -0.0546
 7594W        W11794   4.909   9.821   4.279 -0.1201  0.1385  0.0047
 7595W        W11795   8.080   0.054   8.869  0.0011 -0.1083 -0.0781
 7596W        W11796   8.120   0.421  12.138  0.0018  0.3207 -0.1168
 7597W        W11797   5.355   5.317   1.664  0.1365  0.2480  0.0437
 7598W        W11798   7.565   0.519   3.879  0.3226 -0.0526  0.1831
 7599W        W11799   3.983   2.078  10.828 -0.2415 -0.1047 -0.1626
 7600W        W11800   0.243   1.177   9.753 -0.0749 -0.0783  0.0708
 7601W        W11801   6.394   8.783   3.324 -0.0510  0.0699  0.1872
 7602W        W11802   9.623  10.117  10.114  0.0866  0.1568  0.1246
 7603W        W11803   8.351   0.080   9.307 -0.4976 -0.2408 -0.0967
 7604W        W11804   9.154   1.013  13.326  0.0747  0.1348 -0.1809
 7605W        W11805   1.031   6.002  11.143  0.0100 -0.1355 -0.5500
 7606W        W11806   3.443   3.052   2.983  0.2164 -0.0919 -0.0235
 7607W        W11807   6.886  10.263   1.829  0.0906 -0.2402  0.0259
 7608W        W11808   2.320   3.235  12.566  0.1652  0.1298  0.4285
 7609W        W11809   1.314   0.494  11.489  0.0053 -0.0735 -0.1194
 7610W        W11810   4.969   9.506   3.591  0.1149 -0.0855  0.0913
 7611W        W11811   7.797   8.367   1.005  0.5163  0.0383  0.1213
 7612W        W11812   6.166   2.859   3.634 -0.0228  0.1735  0.0334
 7613W        W11813   7.873   6.238   2.735 -0.0379 -0.1473 -0.1003
 7614W        W11814   2.096   3.517  10.733  0.2268 -0.0419  0.2929
 7615W        W11815   9.543   8.918   1.021  0.1761  0.1958 -0.1854
 7616W        W11816   5.454   1.932   9.036  0.3791 -0.2337  0.2057
 7617W        W11817   7.967   6.748   1.728 -0.0628 -0.2469 -0.1712
 7618W        W11818   9.716   4.305  11.566 -0.3702 -0.1415 -0.4339
 7619W        W11819   2.675   1.250  10.602  0.2549 -0.1706  0.2490
 7620W        W11820   5.465   8.202  10.118  0.2854  0.0494 -0.3804
 7621W        W11821   7.450   1.153   0.471 -0.4935 -0.0632  0.0038
 7622W        W11822   1.915   8.576  11.830  0.1451  0.1924 -0.2227
 7623W        W11823   9.305   7.661   2.668 -0.1712  0.0288 -0.1902
 7624W        W11824   6.810   4.386   9.105 -0.1498 -0.0068  0.3163
 7625W        W11825   2.376   6.026   0.411 -0.0602  0.0011 -0.0244
 7626W        W11826   5.605   9.608   9.990  0.0769  0.3743 -0.3916
 7627W        W11827  10.458   8.377  10.997 -0.4064  0.1086  0.0095
 7628W        W11828   6.444   7.354  11.580  0.0653 -0.0415 -0.1781
 7629W        W11829   0.337   9.122   9.452 -0.3440  0.0148 -0.0605
 7630W        W11830   0.917   3.891   3.555  0.0147 -0.0866 -0.1468
 7631W        W11831   5.066   0.327   2.039  0.1076 -0.1846 -0.1867
 7632W        W11832   9.381   8.518  10.531 -0.1236 -0.0912 -0.0580
 7633W        W11833   7.822   3.913   2.609 -0.0044  0.0805  0.2341
 7634W        W11834   8.107   0.720   3.856  0.0308 -0.5116  0.0215
 7635W        W11835   6.008   2.257  11.031 -0.0960 -0.0578  0.0391
 7636W        W11836   7.861   0.686   5.074  0.3338 -0.3920 -0.3406
 7637W        W11837   0.053   4.181   0.068  0.0896 -0.1327 -0.3265
 7638W        W11838   4.917   8.088   3.194  0.0460  0.0367 -0.0007
 7639W        W11839   0.990   0.331  11.898  0.0767 -0.1267  0.4474
 7640W        W11840  10.330   1.281   9.388  0.2902 -0.1847 -0.1085
 7641W        W11841   6.679   8.614  10.084  0.3531 -0.4570 -0.0471
 7642W        W11842   8.089   1.822   8.306  0.1344  0.1294 -0.1234
 7643W        W11843   8.324   6.241  10.173  0.0297 -0.2866  0.3289
 7644W        W11844  10.451   8.686   1.200  0.1167  0.0614 -0.0740
 7645W        W11845   6.632  10.172  10.749  0.0732 -0.5647 -0.1549
 7646W        W11846   9.822   6.216   9.480  0.3922  0.1841  0.0490
 7647W        W11847   7.025   8.353   2.772  0.1996  0.3145  0.2161
 7648W        W11848   6.256   1.555   3.445 -0.1931 -0.4438 -0.0617
 7649W        W11849   8.947   1.230   1.190 -0.4267  0.2140 -0.1518
 7650W        W11850   5.071   7.930  10.517 -0.2251 -0.0835 -0.0425
 7651W        W11851   0.111   0.153  12.875  0.0318  0.1368 -0.1236
 7652W        W11852   4.698   6.417   9.806 -0.3944 -0.1376 -0.1406
 7653W        W11853   9.135   2.065  11.302  0.1104  0.0547  0.1594
 7654W        W11854   2.663   2.567   3.154  0.0800  0.0232 -0.0548
 7655W        W11855   1.589   0.788   9.959 -0.1790 -0.1801 -0.0061
 7656W        W11856   9.496   1.730  11.492 -0.1668  0.1275 -0.0620
 7657W        W11857   4.339   1.166  13.289  0.2829 -0.1099 -0.0904
 7658W        W11858   0.394   3.656   0.829  0.1303  0.3387 -0.1712
 7659W        W11859   6.835   0.951   1.804 -0.1330 -0.2196  0.0383
 7660W        W11860   4.913   8.458  13.109  0.0530  0.4781 -0.2484
 7661W        W11861   9.898   4.197  12.012  0.0444 -0.2573 -0.2738
 7662W        W11862  10.238   0.240  11.396  0.0545  0.0631 -0.0112
 7663W        W11863   4.850   7.586   0.787  0.0476 -0.1203 -0.0755
 7664W        W11864   5.075   7.175   2.073  0.0975 -0.0150 -0.0259
 7665W        W11865   0.535   4.216   9.695  0.0442  0.1646  0.0316
 7666W        W11866   3.403   7.860  11.824 -0.1039  0.1402  0.1308
 7667W        W11867   8.873   4.912  12.604 -0.0815  0.1930  0.3708
 7668W        W11868   2.413   4.060   8.735  0.0551  0.2397  0.0553
 7669W        W11869   8.367   3.954  12.987 -0.1909 -0.1554 -0.0250
 7670W        W11870   1.052   9.365  11.694 -0.0431 -0.1471  0.0118
 7671W        W11871   6.417  10.265   9.955  0.0087  0.0352 -0.0423
 7672W        W11872   3.385   5.718   0.162  0.0855 -0.0133 -0.0876
 7673W        W11873   9.865   8.838   3.353  0.1434 -0.0659  0.2429
 7674W        W11874   1.590   9.373   1.538 -0.1433  0.0790  0.0100
 7675W        W11875   7.626   6.284  13.004 -0.2735  0.4599  0.4933
 7676W        W11876   2.927   3.258   0.268 -0.1061  0.2486  0.1535
 7677W        W11877   2.145   3.846   2.583  0.0061  0.0586 -0.1014
 7678W        W11878   3.067   7.173   4.049  0.0991  0.0788  0.1003
 7679W        W11879   6.438   6.978  10.880 -0.0502  0.0223 -0.0188
 7680W        W11880   1.123   5.433   0.761 -0.1463 -0.0554  0.0245
 7681W        W11881   1.784   9.704   1.874  0.2456 -0.2807 -0.1243
 7682W        W11882   9.715   3.356   1.434  0.1087  0.0917 -0.0119
 7683W        W11883   5.488   3.729   9.360 -0.0719 -0.3802 -0.1848
 7684W        W11884   8.524   2.774   8.955  0.1153 -0.0041  0.0705
 7685W        W11885   4.425   6.992  12.396 -0.6113  0.1050 -0.1127
 7686W        W11886   8.837  10.303  11.715 -0.0639 -0.0942  0.0974
 7687W        W11887   1.672   1.502  10.614  0.0798 -0.1265  0.1030
 7688W        W11888   8.092   4.521  13.207  0.2090 -0.0182  0.1752
 7689W        W11889   4.568   2.446  11.636  0.1367  0.1939 -0.0877
 7690W        W11890   0.113   6.915   0.012  0.0105 -0.0849 -0.0227
 7691W        W11891   2.888   3.696   4.724  0.1817  0.2910  0.1271
 7692W        W11892   3.485   3.986  10.257 -0.1729 -0.2162 -0.2460
 7693W        W11893   3.969   6.908   4.384  0.2622  0.4019  0.0884
 7694W        W11894   1.628   5.190   3.120 -0.3642  0.0151  0.2116
 7695W        W11895   4.804   9.703  12.934 -0.1438 -0.2074  0.2114
 7696W        W11896   3.120   4.272  11.598  0.1142  0.0381 -0.0628
 7697W        W11897   2.031   3.791   3.143 -0.2372  0.0338 -0.0603
 7698W        W11898   8.865   0.854   0.801 -0.0189 -0.1085 -0.0319
 7699W        W11899   9.962  10.100  13.177 -0.0343 -0.0185  0.0386
 7700W        W11900   4.109   2.735  10.308  0.2981  0.1036  0.1207
 7701W        W11901   9.772   0.434  12.441  0.2050 -0.3144  0.0093
 7702W        W11902   8.615   3.421   1.480  0.2128  0.0742  0.1256
 7703W        W11903   9.049   9.898  11.514  0.2907  0.3272  0.1897
 7704W        W11904   3.192   9.583  11.939 -0.2382 -0.0372 -0.2392
 7705W        W11905   6.067   9.528   2.744 -0.3019  0.3555  0.0459
 7706W        W11906   0.232   1.702  12.857 -0.2038  0.1651  0.1837
 7707W        W11907   8.039   8.861   3.591 -0.0871  0.2429  0.2922
 7708W        W11908  10.418   5.048   9.537 -0.0031 -0.4051  0.0198
 7709W        W11909   5.507   2.239  11.127 -0.2543 -0.0856  0.2742
 7710W        W11910   3.078   4.480   8.908 -0.0750 -0.2234 -0.0184
 7711W        W11911   3.854   5.355   9.051  0.1290  0.0612  0.0243
 7712W        W11912   9.698   9.348   1.849  0.1521  0.2072 -0.0741
 7713W        W11913   8.626   6.749  10.634  0.1683 -0.2280  0.1725
 7714W        W11914   3.454   4.550   1.157  0.2351  0.2354  0.0281
 7715W        W11915   1.244   1.646   4.190 -0.0768  0.1220  0.0765
 7716W        W11916   0.070  10.397   1.465 -0.0493  0.5404 -0.1166
 7717W        W11917   2.293  10.034   2.341  0.1424  0.2089  0.0199
 7718W        W11918   1.997   4.062   9.938  0.3286  0.0334 -0.0919
 7719W        W11919   2.738   8.278  12.172  0.1709 -0.0709  0.3781
 7720W        W11920   6.895   0.499   0.071 -0.2516 -0.0807  0.3246
 7721W        W11921   2.659   5.080  11.275  0.0208 -0.0667 -0.2581
 7722W        W11922   5.204   6.736   2.324  0.1537 -0.2486  0.0714
 7723W        W11923   4.640   0.838   8.796 -0.1026 -0.1796  0.1885
 7724W        W11924   6.039   6.986  13.294  0.1385 -0.0176  0.1373
 7725W        W11925   1.197   2.531   0.693 -0.2084 -0.1088  0.0053
 7726W        W11926   8.866   4.556  13.028 -0.2628 -0.0616  0.1741
 7727W        W11927   2.335  10.489   2.713  0.0459  0.0366 -0.0048
 7728W        W11928   8.965   7.569   4.031 -0.1187  0.1761 -0.0555
 7729W        W11929   2.407   3.540   9.135 -0.0379 -0.2934  0.0886
 7730W        W11930   7.413   5.244   2.009  0.0277  0.0438 -0.0227
 7731W        W11931   0.069   2.572   9.429 -0.0447 -0.1320  0.0656
 7732W        W11932   7.935   2.069  10.974 -0.0000 -0.0617  0.2619
 7733W        W11933   9.148   0.641  10.268  0.1423 -0.0523  0.0439
 7734W        W11934   6.081   0.419  11.485 -0.0976  0.1175 -0.1691
 7735W        W11935   5.919   2.399   1.240 -0.1737  0.2402  0.0216
 7736W        W11936  10.315  10.304  12.817  0.0116 -0.2623 -0.2912
 7737W        W11937   9.215   7.154   4.613  0.0435 -0.0090 -0.3349
 7738W        W11938   5.351   6.707   3.103  0.0536 -0.0138 -0.1296
 7739W        W11939   9.321   4.215  12.744  0.1100 -0.0462 -0.0979
 7740W        W11940   8.150   3.162   4.065 -0.1453 -0.3185 -0.0866
 7741W        W11941   4.839   5.501   1.129 -0.0148  0.0383  0.0876
 7742W        W11942   1.615   5.549   0.423 -0.1799  0.0945 -0.1407
 7743W        W11943   8.155   9.419   3.174  0.1328  0.1694  0.0863
 7744W        W11944   1.587   3.710  11.261 -0.0812 -0.1429  0.0589
 7745W        W11945   6.291   0.722   2.762  0.2722 -0.1734  0.0448
 7746W        W11946   8.503   6.433   0.095  0.0405  0.1478 -0.0537
 7747W        W11947   3.795  10.199   0.324  0.3189  0.3737 -0.0550
 7748W        W11948   4.507   6.721  11.406 -0.2626 -0.0310  0.1303
 7749W        W11949   2.569   9.305   1.975 -0.0378  0.3911 -0.1834
 7750W        W11950   0.650   9.722   1.526 -0.0842 -0.0707 -0.0143
 7751W        W11951   0.048   5.967   0.572 -0.1177 -0.1330 -0.1727
 7752W        W11952   2.473   0.299   3.546 -0.4102 -0.1207 -0.4300
 7753W        W11953   5.310   3.807  12.950 -0.2376  0.0851  0.0119
 7754W        W11954   4.853   4.979   2.497 -0.1544 -0.1563 -0.0621
 7755W        W11955   9.073   4.558   3.183  0.1061 -0.1600  0.0790
 7756W        W11956   9.334   4.963   3.009 -0.0485 -0.0771  0.1376
 7757W        W11957   4.601   3.499  12.433  0.0468 -0.0749 -0.1943
 7758W        W11958   6.567   6.409   1.003 -0.1775  0.0840  0.2021
 7759W        W11959   9.787   6.711   8.328 -0.2677  0.2001 -0.0429
 7760W        W11960   0.726   2.035  12.233 -0.0495 -0.0128  0.1205
 7761W        W11961   3.344   8.793   9.573  0.3479  0.3098 -0.2453
 7762W        W11962   5.405   6.627  11.385  0.1710  0.0532  0.0947
 7763W        W11963   7.164   1.440   0.791  0.0030  0.0236 -0.1991
 7764W        W11964   2.240   0.770   3.613 -0.0175  0.2562  0.1691
 7765W        W11965   3.676  10.361   2.133  0.1425 -0.0443  0.3408
 7766W        W11966   9.793   4.301   3.745  0.3284  0.0098  0.1168
 7767W        W11967   8.710   9.285   3.296  0.1637 -0.0090  0.0806
 7768W        W11968   0.615   9.206  10.438 -0.0232 -0.3437  0.1107
 7769W        W11969   8.129   8.390   9.376 -0.1341 -0.3500  0.0830
 7770W        W11970   2.970   4.480   4.592  0.0291  0.1747  0.1436
 7771W        W11971   5.008   7.944   4.556  0.1707 -0.1566 -0.4435
 7772W        W11972   9.329   3.788   5.405 -0.1515  0.0890  0.0811
 7773W        W11973   6.365   0.933   9.428  0.4290  0.2365  0.0141
 7774W        W11974   1.743   6.283   0.177 -0.1004 -0.2622 -0.0828
 7775W        W11975   3.257   6.773  11.890  0.2030  0.0987  0.0330
 7776W        W11976   3.513   4.954   1.534 -0.0367 -0.1855 -0.1691
 7777W        W11977   8.831   5.455   4.538 -0.1392 -0.1606  0.0609
 7778W        W11978   7.161   2.896   0.947  0.1129  0.0410 -0.0115
 7779W        W11979   6.699   5.199  10.164  0.1403  0.2673  0.0372
 7780W        W11980   2.356   5.758   9.725  0.0532  0.1732 -0.1354
 7781W        W11981   8.064   1.306  10.490  0.1649  0.0388  0.1754
 7782W        W11982   0.485   6.160   3.667  0.1928 -0.0515  0.2701
 7783W        W11983   5.483   7.295   4.855  0.0424 -0.0232  0.2081
 7784W        W11984   9.996   0.977  13.265  0.1782 -0.2868 -0.2722
 7785W        W11985   7.735   2.755   2.097 -0.3324  0.2835  0.1260
 7786W        W11986   4.781   5.637   9.970  0.0190 -0.0986 -0.0470
 7787W        W11987   9.547   9.902   2.677  0.1913  0.0559 -0.1408
 7788W        W11988   1.644   9.106  12.242  0.0163  0.1418 -0.0073
 7789W        W11989   7.980   4.951   0.192  0.0477  0.3558 -0.0880
 7790W        W11990   8.637   8.062  12.021  0.1976  0.1166  0.0376
 7791W        W11991   2.366   9.805  11.282 -0.1591 -0.1860  0.1513
 7792W        W11992   8.029   8.551  12.006  0.0199 -0.1165  0.1526
 7793W        W11993   4.516   2.213   4.409  0.0417 -0.0841 -0.0241
 7794W        W11994   3.438   6.454   2.116  0.0914  0.2262  0.0814
 7795W        W11995   4.935   8.693   3.979  0.0037  0.0138  0.0429
 7796W        W11996   6.014   6.539   9.137 -0.3227  0.0743 -0.3534
 7797W        W11997   3.264   2.716   2.015  0.2033 -0.1538 -0.1935
 7798W        W11998   8.505   4.536   2.369  0.0258  0.0115  0.2224
 7799W        W11999   9.466   4.976  11.044 -0.0150 -0.0507  0.0381
 7800W        W12000   6.387   2.282   1.238 -0.0855 -0.0159 -0.3099
 7801W        W12001   8.338  10.447   4.749 -0.0332 -0.0442  0.3108
 7802W        W12002   7.068   2.510   9.908 -0.0812  0.0170 -0.0115
 7803W        W12003   5.809   6.076   2.159  0.3429  0.0614 -0.2260
 7804W        W12004   4.895   3.420   1.321  0.2423  0.3591 -0.1308
 7805W        W12005   0.130   6.798   3.272  0.2832  0.0396 -0.1035
 7806W        W12006   5.879   5.536   5.333  0.0019 -0.0703  0.0365
 7807W        W12007   9.649   4.079   3.289 -0.2040 -0.1038 -0.0172
 7808W        W12008   1.403   1.860   1.241 -0.2805  0.3042 -0.0994
 7809W        W12009   7.589   1.156   1.765 -0.0330  0.0102  0.0566
 7810W        W12010   9.045   6.788   4.113 -0.3234 -0.1044 -0.0090
 7811W        W12011   7.175   9.301  10.502  0.0367 -0.3220  0.0497
 7812W        W12012   8.223   2.876   3.644 -0.0780 -0.0101  0.2037
 7813W        W12013  10.391   9.375  11.783 -0.1342 -0.1233  0.0291
 7814W        W12014   1.259   7.273  12.892 -0.0148  0.0648  0.0787
 7815W        W12015   3.058   2.248   9.689 -0.0557 -0.2758  0.3823
 7816W        W12016   5.648   2.016   1.415  0.1851  0.1142  0.0275
 7817W        W12017  10.463   6.320  12.772 -0.0654  0.3797  0.0160
 7818W        W12018   9.365   2.841   2.339 -0.3710 -0.1718  0.1354
 7819W        W12019   8.514   6.756   1.806  0.1988  0.0454 -0.1707
 7820W        W12020   5.102   3.614   1.795 -0.0091 -0.0173  0.5417
 7821W        W12021   2.411   6.487   4.168 -0.0500  0.0406  0.3833
 7822W        W12022   8.715   5.323  13.331 -0.0324 -0.0501 -0.0851
 7823W        W12023   0.907   4.366   9.064  0.1306  0.1524  0.2800
 7824W        W12024  10.207   0.969   0.354  0.0628 -0.0012  0.2492
 7825W        W12025   2.633   9.053  10.100  0.0484  0.1111 -0.0803
 7826W        W12026   4.551  10.436   0.911 -0.1996  0.0621  0.0365
 7827W        W12027   3.085   0.412   2.193 -0.1405  0.5728  0.1750
 7828W        W12028   2.621   8.077   1.961 -0.5256 -0.0370  0.0860
 7829W        W12029   5.315   4.071   0.983  0.1378  0.0916  0.4577
 7830W        W12030   8.907   3.491  10.315  0.0057 -0.0195 -0.3616
 7831W        W12031   9.850   3.075   9.089 -0.2371 -0.1211 -0.2009
 7832W        W12032   4.259   0.740   2.455 -0.0646 -0.1811  0.0632
 7833W        W12033   0.614   3.170  12.861 -0.3960  0.1619  0.3865
 7834W        W12034   3.252   6.482   0.702  0.3082  0.1413 -0.0792
 7835W        W12035   6.474   4.606   4.077 -0.1584  0.1235 -0.2953
 7836W        W12036   7.923   6.605   9.975 -0.0428  0.0835  0.0482
 7837W        W12037   9.865   1.432  10.200  0.0108 -0.1215  0.4546
 7838W        W12038   1.350   2.480   1.663 -0.1329  0.3615 -0.0227
 7839W        W12039   7.952   5.761   4.224  0.1946  0.1121 -0.1715
 7840W        W12040   3.345   2.579  10.656 -0.0214  0.0619  0.0234
 7841W        W12041   5.643   6.268   3.186 -0.2323  0.0281  0.1963
 7842W        W12042   2.074   7.262   9.601  0.0548 -0.2590 -0.1312
 7843W        W12043   4.895   4.405   0.043 -0.2860  0.3181  0.3244
 7844W        W12044   3.841   6.641  11.172 -0.1683 -0.2949  0.0084
 7845W        W12045   3.574   8.080  12.554  0.0252 -0.3737 -0.0433
 7846W        W12046   9.907   3.702   3.131 -0.1524 -0.0268  0.3439
 7847W        W12047   7.248   5.800   8.907 -0.2056  0.3843 -0.0296
 7848W        W12048   1.300   3.853   2.781 -0.3872 -0.0821  0.0149
 7849W        W12049   6.710   6.348  11.620 -0.0349 -0.3096 -0.0641
 7850W        W12050   7.728   9.033   0.300 -0.0842  0.0890 -0.2699
 7851W        W12051   8.604   5.717   8.841  0.0484 -0.0621  0.2168
 7852W        W12052   6.677   2.753   1.006  0.0792 -0.2086  0.0115
 7853W        W12053   7.599   3.707   3.863 -0.0591 -0.1792  0.1508
 7854W        W12054   8.358   8.693  12.914 -0.1450 -0.1205 -0.0829
 7855W        W12055   7.658   9.380   4.678 -0.0696 -0.1646 -0.1989
 7856W        W12056   9.280   9.316   0.714  0.0461 -0.1174 -0.3750
 7857W        W12057   8.712   2.930   9.594  0.0092 -0.0852  0.1823
 7858W        W12058   3.465   7.280   1.512 -0.2390  0.2076  0.2306
 7859W        W12059   9.247   1.227   0.742  0.0895 -0.0794 -0.3722
 7860W        W12060   5.426   1.354   0.693  0.0996 -0.4654  0.1271
 7861W        W12061   4.469   7.342   1.055 -0.1379 -0.1957  0.3586
 7862W        W12062  10.381   9.422  13.038  0.1506 -0.3436 -0.0131
 7863W        W12063   3.729   7.340   2.370 -0.0229 -0.0281 -0.0400
 7864W        W12064   9.788   0.991   0.673  0.1274 -0.2355  0.2585
 7865W        W12065  10.044   3.977   0.764  0.1603  0.1294 -0.2640
 7866W        W12066   3.039   5.111   9.067  0.2882  0.0724  0.0847
 7867W        W12067   1.429   8.922  12.971  0.0097 -0.3638  0.1764
 7868W        W12068   3.815   2.089  11.362 -0.1367 -0.1608  0.0790
 7869W        W12069  10.325   9.202  10.787 -0.0063 -0.0446  0.0509
 7870W        W12070   5.867   4.525  10.856  0.2941  0.0447  0.0213
 7871W        W12071   7.804   1.539  11.898  0.0689  0.4252  0.3571
 7872W        W12072   8.033   5.348   2.810  0.3222 -0.0736 -0.4052
 7873W        W12073   6.342   1.638  12.642  0.5784 -0.2369  0.2142
 7874W        W12074   7.944   4.381  10.065 -0.1241  0.0114  0.1279
 7875W        W12075   0.594   9.320  12.412 -0.1925  0.1516  0.1684
 7876W        W12076   6.690  10.373   4.090  0.2192 -0.1527  0.0777
 7877W        W12077   4.167   4.216   9.170 -0.2537  0.3435  0.1227
 7878W        W12078   8.910   8.501   2.425  0.2131  0.0879 -0.1972
 7879W        W12079   5.716   4.036   0.656  0.3158  0.1568  0.1089
 7880W        W12080   1.532   9.987   1.514  0.2363 -0.1400 -0.0668
 7881W        W12081   1.478   0.182  11.866 -0.1190  0.1197  0.1293
 7882W        W12082   6.434   5.087   3.223 -0.1002 -0.2839  0.0136
 7883W        W12083   5.112   4.681  12.058  0.1731 -0.0713  0.1301
 7884W        W12084   4.331   9.246  10.315  0.0100 -0.0096 -0.0427
 7885W        W12085   2.214   6.149   2.685 -0.1522  0.4554  0.1355
 7886W        W12086   8.508   0.443  12.578 -0.0953 -0.0194 -0.1488
 7887W        W12087   7.488   6.784   8.963  0.0083  0.3288  0.1469
 7888W        W12088   0.070   3.391  12.557 -0.2340 -0.0601 -0.0229
 7889W        W12089   6.323   1.763   8.881  0.0886 -0.0297  0.2890
 7890W        W12090   5.240   3.743   3.625  0.4458  0.0110  0.0051
 7891W        W12091   1.491   6.126  10.978 -0.1010 -0.0694 -0.1247
 7892W        W12092   5.222   3.582  11.172 -0.1391 -0.0150  0.0714
 7893W        W12093   6.360   0.228  10.835  0.0457  0.2153 -0.0555
 7894W        W12094   6.509   6.292   0.160 -0.0282  0.1156 -0.1277
 7895W        W12095   6.135   4.589   0.131  0.0085  0.0648 -0.0682
 7896W        W12096   0.924  10.279  12.762 -0.1180  0.1172 -0.0245
 7897W        W12097   8.948   0.851  12.469  0.0853  0.0169 -0.0533
 7898W        W12098   8.963   3.830   3.429 -0.1322  0.0520  0.0743
 7899W        W12099  10.492   4.125   4.847 -0.1874 -0.2606  0.0908
 7900W        W12100   6.828   4.231  12.131 -0.0205  0.0194 -0.2910
 7901W        W12101   6.512   2.180  12.783 -0.2632 -0.0579 -0.2541
 7902W        W12102   4.508   8.537   4.298  0.0579  0.2388 -0.0015
 7903W        W12103  10.058   8.779  10.971  0.3295  0.1274  0.1804
 7904W        W12104   5.400   0.965   9.776  0.2057 -0.2701  0.0737
 7905W        W12105   5.157   4.717  11.139 -0.1370 -0.3882 -0.2486
 7906W        W12106   3.534   1.456   3.618 -0.1308 -0.0172  0.0927
 7907W        W12107   8.067   3.079   9.107  0.1908  0.1618  0.0516
 7908W        W12108   4.716   6.336   3.765 -0.1730 -0.4274 -0.1519
 7909W        W12109   0.743   0.648   0.326  0.0242  0.1067 -0.3676
 7910W        W12110   3.984   8.973   9.933  0.2216  0.0803  0.4550
 7911W        W12111   4.924   2.250   4.111  0.1032  0.3632 -0.1475
 7912W        W12112   0.131   0.072  12.261 -0.1632  0.0682 -0.0689
 7913W        W12113   4.919   1.107   2.352 -0.1157 -0.0743 -0.2972
 7914W        W12114   4.550   1.544  11.951 -0.1186  0.0577  0.3311
 7915W        W12115   1.365   2.288  10.469  0.1890 -0.0196 -0.1912
 7916W        W12116   8.726   4.800   0.898 -0.0326 -0.2271  0.0572
 7917W        W12117   6.986   3.823   2.406  0.5183  0.0979  0.1090
 7918W        W12118   0.744   7.811   9.755 -0.1576  0.3563 -0.2953
 7919W        W12119   0.673   1.484   0.832 -0.0645 -0.5228  0.2024
 7920W        W12120   5.408   8.037   4.184 -0.1198 -0.3459 -0.3321
 7921W        W12121   9.715   0.040  12.185 -0.1422 -0.1531 -0.3288
 7922W        W12122   6.716   5.532   3.316 -0.1529  0.2377  0.1617
 7923W        W12123   9.093   2.940   0.345 -0.1680  0.1309 -0.1983
 7924W        W12124   5.496   1.683   3.579  0.1901 -0.2023  0.4540
 7925W        W12125   2.208   1.386  10.653 -0.0026  0.1993  0.3482
 7926W        W12126   5.632   6.986  12.211 -0.3492 -0.0856  0.1189
 7927W        W12127   9.107   4.290   4.642 -0.1597  0.0883  0.3328
 7928W        W12128   8.973   7.063  11.967  0.0563 -0.0880  0.2152
 7929W        W12129  10.404  10.295  11.233  0.1220 -0.0473 -0.0034
 7930W        W12130   4.420   4.973  12.926 -0.2278  0.4503 -0.1478
 7931W        W12131   8.830   1.060   0.365 -0.1062  0.0644  0.3164
 7932W        W12132   8.110   4.739   2.089 -0.1132  0.3472  0.0205
 7933W        W12133   0.909   4.974  12.131  0.1340  0.0918  0.2413
 7934W        W12134   3.629   4.168   0.275  0.0052 -0.2917 -0.2460
 7935W        W12135   5.600   0.306   4.495  0.0519  0.0109 -0.2373
 7936W        W12136   7.915   5.281   1.286 -0.2041 -0.2432  0.2564
 7937W        W12137   2.047   3.108   1.890 -0.1195 -0.1143 -0.1249
 7938W        W12138   5.949   0.205   3.554 -0.3477  0.0917 -0.0248
 7939W        W12139   5.609   3.838   9.851  0.0819 -0.0099 -0.0568
 7940W        W12140   7.186  10.265  10.654 -0.0701 -0.3663 -0.0197
 7941W        W12141   2.155   0.138  11.141  0.1367 -0.1986 -0.2103
 7942W        W12142   8.390   9.874  10.758  0.1211 -0.0433  0.0262
 7943W        W12143   5.330   9.721  11.892  0.1579  0.2596  0.0017
 7944W        W12144   6.021   7.838   1.402  0.0438 -0.1506  0.1839
 7945W        W12145   5.744   1.372  11.349  0.1112  0.0277  0.2431
 7946W        W12146   0.819   4.052   1.476  0.2363 -0.0275  0.1459
 7947W        W12147   4.471   7.540  12.469  0.3028 -0.0594 -0.4554
 7948W        W12148   2.325   3.371  11.606 -0.0627  0.1169 -0.0113
 7949W        W12149   3.345   4.772   3.000  0.1095 -0.0223  0.2025
 7950W        W12150   6.996   1.352  10.243 -0.1141  0.2061  0.2257
 7951W        W12151   6.853   3.176  11.989  0.2228  0.2500  0.2776
 7952W        W12152   4.867   9.526  11.775  0.1488 -0.0817  0.0714
 7953W        W12153   7.931   4.241  12.869 -0.0803  0.2798 -0.3614
 7954W        W12154   7.966   7.306  11.865 -0.0121 -0.2557  0.1345
 7955W        W12155   5.728  10.175   1.390  0.1390  0.1365  0.2477
 7956W        W12156   4.280   4.989   3.444 -0.3615 -0.1168 -0.3757
 7957W        W12157   0.923  10.155   1.326 -0.1526 -0.0202  0.2394
 7958W        W12158   1.136   3.743  10.329 -0.1306 -0.0136  0.0399
 7959W        W12159   6.218   9.912   0.143  0.2565  0.0520  0.1709
 7960W        W12160   6.650   8.788   1.824  0.0943 -0.2180 -0.1833
 7961W        W12161   2.601   7.798   4.136 -0.1948  0.3642  0.0814
 7962W        W12162   3.902   7.761   0.442  0.2135  0.0035  0.2633
 7963W        W12163   8.280  10.314  10.456 -0.0918 -0.0650 -0.0929
 7964W        W12164   1.818   2.270   1.850 -0.2349  0.2256  0.2288
 7965W        W12165   4.786   8.508  10.037 -0.1487  0.1444 -0.2120
 7966W        W12166   6.564   4.308  12.694 -0.0619  0.0907 -0.2097
 7967W        W12167   6.223   9.291   0.695  0.1364  0.2990 -0.2535
 7968W        W12168   8.217   6.101   9.206  0.1671  0.3333 -0.0226
 7969W        W12169   6.356   2.883  11.579 -0.2251  0.1475  0.1334
 7970W        W12170   6.815   0.031   2.958  0.0387 -0.2465  0.1802
 7971W        W12171   3.765   3.308   0.756 -0.0823  0.5307 -0.2499
 7972W        W12172   0.500   5.731  12.462  0.3215  0.1062 -0.4262
 7973W        W12173   7.694   5.512  12.231 -0.1963  0.3114 -0.3955
 7974W        W12174   3.543   6.048   0.845  0.2008  0.0275 -0.0350
 7975W        W12175   6.809   0.647   2.908 -0.0135 -0.1766 -0.0890
 7976W        W12176   9.364   8.588  11.739 -0.2863 -0.1214 -0.0484
 7977W        W12177   6.214   0.121  11.948  0.0924  0.4941  0.0952
 7978W        W12178   4.626   3.919   4.422 -0.1450 -0.1747 -0.1908
 7979W        W12179   6.928   7.212   2.102 -0.3432  0.3700 -0.3131
 7980W        W12180   4.117   7.777   2.297  0.0967  0.0915  0.0549
 7981W        W12181   4.880  10.138   1.516 -0.2007  0.1314  0.1314
 7982W        W12182   2.485   6.019  11.309  0.1718 -0.1484 -0.4935
 7983W        W12183   5.920   7.038   9.920 -0.1758  0.0337  0.1196
 7984W        W12184   0.315  10.228  10.826  0.0123  0.2446  0.1453
 7985W        W12185   4.556   9.445   0.707  0.0949 -0.0572 -0.2798
 7986W        W12186   7.574   8.132  12.460 -0.0143 -0.0208  0.0936
 7987W        W12187   0.075   8.432   2.277 -0.0809  0.0940  0.1773
 7988W        W12188   3.863   9.195  13.073  0.2226 -0.1486 -0.2552
 7989W        W12189   2.776  10.432   0.655  0.1012 -0.0098 -0.0067
 7990W        W12190   2.691   8.946  12.640  0.0188  0.0079 -0.0053
 7991W        W12191   2.388   9.728   1.944  0.3909 -0.0112 -0.1345
 7992W        W12192   2.913  10.015   3.943  0.2041  0.1077  0.1444
 7993W        W12193   6.807   4.756  10.392 -0.0681  0.5561 -0.2717
 7994W        W12194   7.817   9.333  12.911 -0.1863  0.1568  0.0306
 7995W        W12195   5.818   7.294   4.460 -0.1489  0.0823 -0.2886
 7996W        W12196   8.525   6.686   3.171  0.1836  0.0891  0.1070
 7997W        W12197   6.889   3.808   0.138 -0.0813 -0.0802  0.2115
 7998W        W12198   0.390   2.691   1.167 -0.0012 -0.1697  0.1291
 7999W        W12199   5.292   1.641   8.192  0.0195 -0.0892 -0.2925
 8000W        W12200   1.243   4.256  12.550  0.1198 -0.4002 -0.3066
 8001W        W12201   8.535   9.490   1.263  0.1169  0.0443  0.1048
 8002W        W12202   5.531   4.970  11.880  0.0831  0.0514 -0.3459
 8003W        W12203   6.712   5.293  11.304 -0.4401 -0.3692  0.1175
 8004W        W12204   5.409   6.340   9.196 -0.0127  0.2119 -0.0596
 8005W        W12205   7.541   3.970  11.055 -0.0220 -0.3266  0.0018
 8006W        W12206   0.542   2.180   3.871  0.4326 -0.1160 -0.2370
 8007W        W12207   2.754   9.869  12.734  0.0433 -0.1652  0.2023
 8008W        W12208   6.339   1.845  13.152 -0.0805  0.0957 -0.2208
 8009W        W12209   6.602   6.852  10.420 -0.1189  0.1642  0.1644
 8010W        W12210   0.409   3.182  10.298 -0.0290 -0.0478  0.3297
 8011W        W12211   6.510   0.622  10.424 -0.1522 -0.1891  0.0186
 8012W        W12212   1.649   6.217  12.208 -0.0877 -0.0550 -0.0019
 8013W        W12213   2.348   2.141   2.527  0.1517  0.1962  0.0998
 8014W        W12214   6.854  10.256  12.733 -0.2937  0.1474 -0.1098
 8015W        W12215   5.142   2.378  12.872 -0.0589  0.3404 -0.3181
 8016W        W12216   6.646   6.483   9.821  0.2730 -0.2149 -0.4277
 8017W        W12217   3.313   0.592   0.882 -0.2466 -0.3551 -0.1978
 8018W        W12218   9.295   6.707   8.196 -0.1061 -0.0962 -0.4808
 8019W        W12219   6.789   1.247   3.588  0.0967  0.1748 -0.0373
 8020W        W12220   5.936   9.347   2.091  0.0690  0.2573  0.0775
 8021W        W12221   8.363   3.338   9.355  0.5285 -0.3470 -0.1605
 8022W        W12222   6.293   1.173   1.712  0.4567  0.1604 -0.3710
 8023W        W12223   5.390   9.870   1.601 -0.2944  0.0140 -0.0389
 8024W        W12224   7.071   9.528   4.578 -0.1006 -0.2674 -0.2834
 8025W        W12225   1.961   6.132  11.217 -0.0026  0.0438 -0.1605
 8026W        W12226   2.580  10.067   1.535  0.1038  0.0511  0.0396
 8027W        W12227   2.809   5.038   3.393 -0.0932  0.0914  0.2594
 8028W        W12228   8.689   0.322  13.067  0.1162  0.0439 -0.2480
 8029W        W12229   9.282   3.899  10.105 -0.0995 -0.1377 -0.0026
 8030W        W12230  10.477   1.117  13.275  0.2368  0.1026  0.0052
 8031W        W12231   2.521   8.821  11.462 -0.1684  0.4113  0.1308
 8032W        W12232   4.865   0.356   4.103  0.1087 -0.4532 -0.0741
 8033W        W12233   7.067   3.824   3.799  0.0428  0.0441 -0.2657
 8034W        W12234   4.246   3.320   3.637 -0.1035  0.0292  0.2034
 8035W        W12235   6.923   9.422   1.693  0.0740 -0.3508  0.0041
 8036W        W12236   4.756   7.891   3.665 -0.4663  0.0142  0.2604
 8037W        W12237   1.880   8.272   3.617 -0.1709  0.3094  0.2720
 8038W        W12238   3.035   8.666  12.877  0.0989 -0.1744  0.0741
 8039W        W12239   1.048   6.204  10.705  0.1817 -0.1277 -0.1085
 8040W        W12240   4.120   3.771   8.976  0.0205  0.2069  0.1817
 8041W        W12241   6.712   9.624   9.250 -0.3773 -0.2052 -0.1652
 8042W        W12242   2.009   4.455   2.633 -0.0901  0.1525  0.1484
 8043W        W12243   3.537   2.265  12.722 -0.2126 -0.1537 -0.1439
 8044W        W12244   2.837   2.708  12.385 -0.1034  0.1047  0.1492
 8045W        W12245   0.370   6.606   4.529  0.0933 -0.0044 -0.2413
 8046W        W12246   0.081   6.874  11.948 -0.1583 -0.1852  0.1148
 8047W        W12247   1.407   2.114  11.966  0.4358 -0.1808 -0.4365
 8048W        W12248   1.721   3.912   1.936  0.1463 -0.1394  0.1123
 8049W        W12249   3.988   6.770  12.532 -0.1317  0.0378  0.3967
 8050W        W12250   7.804   6.925  11.168  0.1390 -0.0120 -0.0622
 8051W        W12251   6.728   3.678   4.225 -0.0863  0.2984 -0.1612
 8052W        W12252   8.107   0.418   3.464 -0.0558  0.0834 -0.2057
 8053W        W12253   9.828   1.944  11.181  0.2969 -0.0143 -0.4820
 8054W        W12254   7.942  10.493   9.569 -0.0091 -0.0663  0.4516
 8055W        W12255   1.353   1.637   2.120 -0.0363 -0.2626 -0.0360
 8056W        W12256  10.388   8.863  11.818 -0.2386  0.1767  0.0600
 8057W        W12257   7.907   2.544  11.187 -0.0254  0.1864 -0.3076
 8058W        W12258   1.741   5.001   0.461 -0.2492 -0.0289  0.3203
 8059W        W12259   7.773   7.864  10.395  0.0465  0.2397  0.0980
 8060W        W12260   4.081   8.191  12.491  0.1827 -0.3219 -0.0104
 8061W        W12261   3.782   8.305   0.767 -0.0733  0.0649 -0.0677
 8062W        W12262   4.789   0.362  10.910  0.3616 -0.3472  0.0841
 8063W        W12263   0.544   7.471  10.727  0.2841 -0.0732 -0.0018
 8064W        W12264   1.045   4.916   9.032 -0.0601 -0.3860 -0.3502
 8065W        W12265   5.916   9.669   1.343 -0.1263 -0.1713 -0.0652
 8066W        W12266   4.490   4.506  12.733 -0.1581 -0.0259  0.0702
 8067W        W12267   6.673   2.491  12.080  0.2909  0.2415 -0.1643
 8068W        W12268   9.460   4.084  11.934  0.0646 -0.0974 -0.3589
 8069W        W12269   8.415   6.405   3.603 -0.2771  0.3373 -0.0216
 8070W        W12270   7.535   8.197  11.938 -0.1816 -0.1969  0.3083
 8071W        W12271   4.158  10.204  12.523  0.1394 -0.1631 -0.2381
 8072W        W12272   3.671   4.772  11.073 -0.4236  0.2351  0.0301
 8073W        W12273   5.380   2.033  10.630 -0.0980  0.3338 -0.0018
 8074W        W12274   2.432   7.038   8.635 -0.3952  0.3668 -0.0527
 8075W        W12275   7.414   6.521   1.716 -0.0874  0.1340  0.1707
 8076W        W12276   6.047   5.703   1.047  0.1325 -0.2502 -0.1955
 8077W        W12277   8.357   7.350  13.288  0.2228  0.0931 -0.2488
 8078W        W12278   0.345   3.753   2.181  0.1806  0.0893 -0.0647
 8079W        W12279   5.355   2.229   3.395  0.0065 -0.0837  0.1832
 8080W        W12280   2.064   5.402   9.351 -0.3108  0.1117  0.0549
 8081W        W12281   8.713   6.740   4.502  0.0148  0.0292  0.1925
 8082W        W12282   8.451   5.488   0.369  0.0960  0.1360  0.0884
 8083W        W12283   5.873   5.252  11.194 -0.2098 -0.2622 -0.2624
 8084W        W12284   2.510   9.929   2.778  0.0122 -0.0933 -0.0306
 8085W        W12285   4.447   6.773   9.498  0.3551 -0.0394 -0.0636
 8086W        W12286   9.607   7.400   2.352 -0.2104  0.2165  0.0349
 8087W        W12287   0.478   8.817   0.237  0.4345  0.0822 -0.1976
 8088W        W12288   9.343   6.726   2.455 -0.2650  0.3128 -0.2375
 8089W        W12289   8.669   5.883   0.034  0.1856 -0.2883  0.0719
 8090W        W12290  10.177   4.388   4.546 -0.0138  0.1919 -0.3768
 8091W        W12291   8.916   7.939   2.561 -0.5609  0.0130  0.1500
 8092W        W12292   3.756   2.459   0.757 -0.0284  0.5328  0.0570
 8093W        W12293  10.272   0.427   3.512  0.2157 -0.2033  0.0381
 8094W        W12294   0.228   5.800  12.886 -0.2031 -0.0075 -0.2327
 8095W        W12295   8.104   7.075  10.718 -0.1794 -0.0508 -0.0979
 8096W        W12296   8.179   6.506   4.082 -0.1503  0.2643 -0.0374
 8097W        W12297   4.263   3.970   1.575 -0.0636 -0.1594 -0.3839
 8098W        W12298   0.834   0.986  12.640 -0.1246  0.2007 -0.2530
 8099W        W12299   7.132   1.609  11.952 -0.1965  0.0910 -0.1513
 8100W        W12300   6.823   0.030  11.893 -0.4752 -0.0694  0.3779
 8101W        W12301   7.141   5.434  12.698  0.0244  0.2827  0.2250
 8102W        W12302   6.962   7.682  12.607  0.0389 -0.1873 -0.0258
 8103W        W12303   2.553  10.056  12.284  0.3780  0.1497  0.1420
 8104W        W12304   7.419   4.163   3.709  0.2263  0.1443  0.0544
 8105W        W12305   7.276   8.320   3.287  0.3307  0.1109 -0.0700
 8106W        W12306   1.877   4.466   0.229 -0.1493  0.2134 -0.2564
 8107W        W12307   4.529   4.886   4.380  0.1474  0.1557 -0.1225
 8108W        W12308   8.313   9.885   0.960  0.0233 -0.2954  0.3565
 8109W        W12309  10.024   6.398  12.666 -0.0210  0.0349 -0.1022
 8110W        W12310   6.903   5.509  11.765  0.0496 -0.0353 -0.1775
 8111W        W12311   8.601   6.750  13.056 -0.3822 -0.2200  0.0313
 8112W        W12312   4.103   0.602   3.368 -0.0712 -0.0496 -0.3351
 8113W        W12313   3.499   4.306  12.027  0.0447  0.0057 -0.2576
 8114W        W12314   3.624   5.097   0.104 -0.2144  0.3201 -0.0391
 8115W        W12315   9.351   8.295   2.183  0.6343  0.2393  0.3544
 8116W        W12316   8.366   2.748  10.396 -0.0739  0.1300 -0.0539
 8117W        W12317   6.777   1.662   3.278  0.0422 -0.3330  0.0186
 8118W        W12318   4.031   0.132   9.286  0.0358  0.0252 -0.0185
 8119W        W12319   1.498   2.965  11.583 -0.0802  0.1711  0.1422
 8120W        W12320   6.855  10.121  13.255  0.1510 -0.0928  0.3677
 8121W        W12321   3.084   9.958  12.277 -0.3300 -0.0678  0.1123
 8122W        W12322   0.015   0.795   9.529  0.3204  0.1281  0.1645
 8123W        W12323   4.905   4.323  12.415  0.0100  0.1484 -0.0235
 8124W        W12324   1.227   1.154   9.721 -0.0098  0.0109 -0.0900
 8125W        W12325   9.282   4.948  12.169 -0.2027  0.0370  0.0035
 8126W        W12326   6.597   4.009   9.783 -0.0628 -0.0049  0.1505
 8127W        W12327   7.366   1.110   9.887 -0.1700 -0.3027  0.1036
 8128W        W12328   7.460   6.883   9.930 -0.0906  0.1425 -0.0243
 8129W        W12329   5.084   2.223   2.002 -0.1104 -0.3235  0.0761
 8130W        W12330   7.995   6.178   4.572 -0.0239 -0.2272  0.2810
 8131W        W12331   7.231   3.097  11.034 -0.0154  0.1310 -0.0980
 8132W        W12332   8.229   2.460   2.105 -0.1129 -0.0400  0.0375
 8133W        W12333   5.776   9.279   1.574 -0.5062  0.0673 -0.0342
 8134W        W12334   3.686   7.450   9.821  0.1108 -0.0281 -0.0297
 8135W        W12335   5.983   7.870   0.455  0.0748  0.1262  0.0542
 8136W        W12336   4.632   4.585   3.409  0.1238 -0.0282 -0.0132
 8137W        W12337   5.384  10.069   9.925 -0.2384 -0.0077 -0.0333
 8138W        W12338   3.057  10.322   3.439  0.2883  0.1521  0.2119
 8139W        W12339   8.555   6.300   1.966 -0.0366  0.2248 -0.1035
 8140W        W12340   1.267  10.405   0.388 -0.0523 -0.0641 -0.0056
 8141W        W12341   3.867   2.779   1.156  0.0072  0.2204 -0.5418
 8142W        W12342   7.346  10.259  12.505  0.0263 -0.0358 -0.0079
 8143W        W12343  10.039   7.684   1.816 -0.1095  0.3075 -0.2418
 8144W        W12344   3.436   1.770  11.649 -0.1291 -0.0928  0.0441
 8145W        W12345   7.399  10.101   0.002  0.1420  0.1086 -0.1475
 8146W        W12346   1.112   9.134  10.669  0.2089 -0.0833  0.0177
 8147W        W12347   7.247   6.413  11.062  0.1543 -0.0454 -0.0005
 8148W        W12348   4.193   2.628   1.504 -0.3287  0.1871  0.3180
 8149W        W12349   7.554   2.398   9.797 -0.2032  0.1254  0.1684
 8150W        W12350  10.272   9.561   2.851 -0.3042 -0.0425 -0.0557
 8151W        W12351   4.769   3.818  11.145 -0.3461 -0.0358 -0.0697
 8152W        W12352   7.978   6.804   9.445  0.0288  0.0015  0.0722
 8153W        W12353   8.029   9.301  12.236 -0.4848  0.0279  0.0759
 8154W        W12354   3.368   6.414  12.750  0.1945  0.0148 -0.5026
 8155W        W12355   9.924   6.085   3.078  0.2875 -0.0414 -0.0916
 8156W        W12356   6.221   9.766   0.944 -0.2065  0.0869 -0.0279
 8157W        W12357   6.936   5.224   9.632 -0.2589 -0.1613 -0.0054
 8158W        W12358   3.443   3.553  10.813  0.0264  0.1168 -0.1119
 8159W        W12359   8.762   5.595  11.544  0.0275  0.0007 -0.0140
 8160W        W12360   3.328   8.777  11.740 -0.2834 -0.1647 -0.1753
 8161W        W12361   4.147   9.419   1.070 -0.0500 -0.0477 -0.0918
 8162W        W12362   0.567   8.781  10.718  0.0653 -0.1599 -0.2196
 8163W        W12363   3.537   8.409  13.100 -0.0658 -0.3563 -0.0307
 8164W        W12364   8.714   3.332   0.213  0.4383 -0.0511 -0.1020
 8165W        W12365   3.565   7.482   1.946 -0.0126 -0.1247 -0.0828
 8166W        W12366   8.034   9.735   4.029 -0.2294 -0.0495  0.0150
 8167W        W12367   1.233   6.246  11.974 -0.2136  0.0486  0.1090
 8168W        W12368   3.855   5.581   0.943 -0.0723  0.0454  0.1148
 8169W        W12369   1.836   2.247  11.815  0.0348 -0.0209  0.0247
 8170W        W12370   9.303   4.223   2.436  0.0278 -0.1236  0.0683
 8171W        W12371   2.273   2.871   8.377 -0.1404  0.1114 -0.0792
 8172W        W12372   2.086   0.280   3.882 -0.0688  0.3223 -0.1018
 8173W        W12373   5.487   5.447  11.013  0.3683 -0.1101 -0.0705
 8174W        W12374   0.981  10.319   2.382 -0.2009 -0.2450 -0.2780
 8175W        W12375   4.567  10.230  10.144 -0.1694 -0.0372  0.1321
 8176W        W12376   3.788   7.941   9.764 -0.1301  0.3198  0.4504
 8177W        W12377   1.474   6.584   1.074  0.1191  0.4825 -0.2259
 8178W        W12378   5.880   4.509  11.739  0.0809  0.1764  0.2039
 8179W        W12379   2.227   6.544   0.346  0.1293 -0.3555  0.0119
 8180W        W12380   2.676   0.425   4.017  0.2073 -0.2390  0.2275
 8181W        W12381   7.959   4.022   0.043 -0.1815  0.3578 -0.1486
 8182W        W12382   1.562   7.034  12.405  0.0989  0.1624 -0.1016
 8183W        W12383   6.153   5.180   1.082 -0.1303 -0.0746 -0.1085
 8184W        W12384   9.584   5.848   3.320 -0.2397  0.2131 -0.0310
 8185W        W12385   2.439   2.965   1.665 -0.1610  0.0674  0.0504
 8186W        W12386   4.496   8.101  10.967 -0.1080  0.1220  0.1013
 8187W        W12387   4.497   6.719   4.727 -0.3510  0.2754 -0.2250
 8188W        W12388   3.521   7.139  12.429  0.2039  0.1036  0.1657
 8189W        W12389   1.486   7.204  11.952 -0.0057 -0.0780  0.0469
 8190W        W12390   4.119   1.104   0.740 -0.0460 -0.0230  0.0592
 8191W        W12391   2.744   2.607   0.977 -0.0243  0.0106  0.2172
 8192W        W12392   1.107   1.005  13.056  0.1937 -0.1437 -0.0005
 8193W        W12393   6.515   9.669   1.365 -0.1321  0.1146 -0.0732
 8194W        W12394   8.405   1.995   1.671 -0.1504  0.0332  0.1629
 8195W        W12395   0.877   7.852  10.866 -0.3165 -0.0667 -0.0840
 8196W        W12396   1.235   4.764  11.838 -0.2663 -0.0142  0.3967
 8197W        W12397   8.936   3.541   2.993 -0.0284 -0.1061  0.4713
 8198W        W12398   6.018   5.426   4.385  0.0469  0.0844 -0.0154
 8199W        W12399   0.697   6.632   0.022 -0.0294 -0.1780  0.1339
 8200W        W12400   0.478   0.248  11.813 -0.0780  0.1750  0.1874
 8201W        W12401   3.076   7.231   3.550  0.0929  0.1285 -0.1584
 8202W        W12402   7.471   8.699   1.146 -0.1127  0.0648 -0.0537
 8203W        W12403   7.172   8.788   9.893  0.0246  0.1301  0.1254
 8204W        W12404   5.294  10.342   5.344  0.2212 -0.1196 -0.5284
 8205W        W12405   8.531   7.552   3.176 -0.4728 -0.1882  0.0084
 8206W        W12406   9.881   8.320  11.170  0.0972 -0.0438 -0.0397
 8207W        W12407   5.871   4.578   2.086 -0.0817 -0.0962 -0.0055
 8208W        W12408  10.297   4.958   3.408  0.0092 -0.2559  0.0579
 8209W        W12409   4.385   0.817   2.916  0.4185  0.1314 -0.1287
 8210W        W12410   4.056   6.308  11.568  0.0877 -0.2912  0.1916
 8211W        W12411   2.968   1.236   1.730  0.1108  0.0353  0.0278
 8212W        W12412   3.022   6.694   4.251  0.0748  0.1633  0.1907
 8213W        W12413   5.276   2.789  13.215  0.2370  0.0334  0.1537
 8214W        W12414   2.432   0.474  11.529 -0.0771  0.2597 -0.3217
 8215W        W12415   3.097   1.901  11.970  0.2902  0.1103 -0.1870
 8216W        W12416   7.080   8.493   1.894 -0.1054  0.0747 -0.1691
 8217W        W12417   1.846   0.176   2.640  0.2141  0.2925 -0.1555
 8218W        W12418   9.524   2.434  10.493 -0.0579  0.1342  0.0125
 8219W        W12419   5.226   9.143   3.919 -0.2781  0.1403  0.4477
 8220W        W12420   1.529   1.155   0.559  0.2039  0.0280  0.1176
 8221W        W12421   0.993   9.547  12.249  0.3037  0.0471 -0.1255
 8222W        W12422   0.338   9.692   1.981  0.3010  0.0142  0.2328
 8223W        W12423  10.085   6.103  13.064  0.0523  0.1195  0.1767
 8224W        W12424   6.176   4.235   1.836  0.0797  0.0970 -0.2412
 8225W        W12425   1.746   1.974   9.200  0.0003  0.2155 -0.0284
 8226W        W12426  10.083   2.134  10.836 -0.1577  0.3560  0.0563
 8227W        W12427   1.626   9.044  10.929  0.1117 -0.0593  0.3612
 8228W        W12428   1.344  10.410   1.381 -0.0894  0.0036 -0.1154
 8229W        W12429   5.878   7.274  11.912 -0.1595  0.1536  0.1969
 8230W        W12430   3.791   8.447   2.023  0.2834 -0.4539  0.0508
 8231W        W12431  10.065   1.208   1.157  0.2803  0.0217 -0.1973
 8232W        W12432   3.904   0.364   4.295  0.4848 -0.2846 -0.1206
 8233W        W12433   1.704   4.574  12.461 -0.3682  0.2644  0.0917
 8234W        W12434   8.422   5.998   4.038 -0.1464 -0.0486  0.1900
 8235W        W12435  10.507   9.108   0.883  0.2278  0.1078 -0.1775
 8236W        W12436   5.098   0.191   1.559 -0.1042 -0.0609  0.3378
 8237W        W12437   4.379   7.180   4.092  0.0388 -0.0297 -0.2364
 8238W        W12438   5.097   7.123   0.183 -0.0335  0.2208 -0.1471
 8239W        W12439   0.245   9.302  11.085 -0.2154 -0.2264 -0.0529
 8240W        W12440   3.550   0.107  10.995 -0.1559  0.0887 -0.5160
 8241W        W12441  10.123   3.551   3.742 -0.4806 -0.0017  0.4174
 8242W        W12442   6.887  10.313   9.827 -0.0893  0.0029 -0.3436
 8243W        W12443   5.906   9.703   0.542 -0.2391  0.0538 -0.0318
 8244W        W12444   2.631  10.350  12.944  0.0161 -0.3237 -0.2647
 8245W        W12445   7.907   0.365  10.328 -0.0539 -0.0999  0.3190
 8246W        W12446   7.530   1.454  10.311 -0.0151  0.1659 -0.5084
 8247W        W12447   0.942   1.692   3.068 -0.0822 -0.0353 -0.0106
 8248W        W12448   9.432   5.764   8.595 -0.3106  0.0943  0.0707
 8249W        W12449   0.862   9.059  13.174  0.0298  0.0112  0.0576
 8250W        W12450   0.458   8.241   0.897  0.0402 -0.3645  0.1613
 8251W        W12451   8.202   2.767   4.413 -0.1788  0.0718  0.2128
 8252W        W12452   4.363   7.531   0.556  0.0374  0.0748  0.2276
 8253W        W12453   7.963   2.552  12.620  0.0834 -0.1127  0.2019
 8254W        W12454   6.649   5.171   1.117  0.2764 -0.2086 -0.0863
 8255W        W12455   7.048   1.884   0.555  0.2422 -0.2623  0.0577
 8256W        W12456   4.459   3.155   3.136 -0.0348  0.1590  0.1263
 8257W        W12457   9.813  10.451  10.403  0.0129 -0.3446 -0.1576
 8258W        W12458  10.512   0.012   3.325 -0.1308  0.0409 -0.2552
 8259W        W12459   0.686   6.825   1.194 -0.0053  0.0525 -0.4008
 8260W        W12460   3.941   8.232  11.185  0.1328  0.3689  0.3438
 8261W        W12461   3.711   2.398   0.264  0.4595 -0.3217 -0.1780
 8262W        W12462   6.729   1.161   4.133 -0.0126 -0.3764 -0.2536
 8263W        W12463   6.724   9.223  11.001  0.0023  0.1789 -0.0266
 8264W        W12464   6.836   7.241   4.093  0.2963 -0.0439  0.0440
 8265W        W12465   5.752   0.219   8.907 -0.1268  0.1252  0.1222
 8266W        W12466   8.352   9.527   1.758 -0.1745 -0.0370  0.0508
 8267W        W12467   7.738   6.257  12.399  0.2949  0.0407  0.0032
 8268W        W12468   2.380   6.234  11.843  0.4719  0.2048  0.4595
 8269W        W12469   0.289   3.692   8.544  0.3136  0.0487  0.6243
 8270W        W12470   9.642   5.902   2.707  0.1023 -0.1159  0.2756
 8271W        W12471   7.834  10.281  11.860 -0.2286 -0.3668  0.0291
 8272W        W12472   5.242   3.398  10.695  0.5045  0.0062  0.2125
 8273W        W12473   2.391   9.570  12.127 -0.1640 -0.1736  0.0328
 8274W        W12474   1.869   6.958   0.277  0.0347 -0.1010  0.0377
 8275W        W12475   1.183   3.133  12.792 -0.4522  0.1305 -0.2962
 8276W        W12476   0.279   0.759   2.202 -0.1945  0.4132 -0.2468
 8277W        W12477   3.519   3.602   1.040 -0.0217 -0.0049  0.0429
 8278W        W12478   7.740   0.062  12.305 -0.0538  0.0495  0.0063
 8279W        W12479   8.526   3.107  11.607  0.2385 -0.0264  0.1406
 8280W        W12480   1.682   5.015  10.077 -0.0389 -0.2863 -0.0376
 8281W        W12481   7.898   9.997  13.050  0.2640  0.2507  0.1608
 8282W        W12482   7.341   0.995  11.088  0.1130 -0.1252 -0.0728
 8283W        W12483   7.191   7.576   2.370 -0.0208  0.2581  0.0500
 8284W        W12484   9.054   5.752  11.190 -0.1222  0.0751  0.0274
 8285W        W12485   1.855   4.345   1.202  0.0361 -0.2709 -0.0434
 8286W        W12486   5.066   9.331   2.918 -0.0065 -0.1675 -0.0950
 8287W        W12487   5.446   9.297  13.272  0.0650  0.3892 -0.2002
 8288W        W12488  10.429   6.820  12.858  0.0781  0.2686  0.1110
 8289W        W12489   6.172   3.782   9.578 -0.1494 -0.3425 -0.0543
 8290W        W12490   2.789   0.488   0.693  0.0136 -0.0533  0.1002
 8291W        W12491   9.851   3.261  11.510  0.1352  0.1572  0.1165
 8292W        W12492   2.144   3.857  11.641 -0.3193  0.2324 -0.1741
 8293W        W12493   0.596   9.486  11.470 -0.3701  0.1410 -0.3516
 8294W        W12494   2.609   1.619   3.423  0.2554 -0.0395  0.1444
 8295W        W12495   0.834   2.343  10.343  0.2186 -0.0359 -0.0679
 8296W        W12496   4.988   6.938  11.365 -0.0304 -0.3405  0.1959
 8297W        W12497   9.869   6.526   0.125 -0.2339 -0.0032  0.1348
 8298W        W12498   2.669   5.967   1.302 -0.0953 -0.0262 -0.1475
 8299W        W12499   2.079   7.287   3.725 -0.2430 -0.1495 -0.0746
 8300W        W12500   5.132  10.163  13.024  0.3684 -0.2275  0.0738
 8301W        W12501   3.225   3.121   4.429 -0.0269 -0.2563 -0.0608
 8302W        W12502   8.514   7.887   0.301 -0.1627 -0.6245  0.4026
 8303W        W12503   7.625   6.935   8.094  0.0597  0.0430  0.2070
 8304W        W12504   5.582   4.088   3.607 -0.0130  0.2125 -0.3061
 8305W        W12505   1.097   6.493   9.738  0.0471 -0.1826 -0.1280
 8306W        W12506   0.205   5.656   2.797  0.0344 -0.1867 -0.0189
 8307W        W12507   4.207   3.484   9.612  0.0036 -0.1755  0.2433
 8308W        W12508   8.247   9.917   2.040 -0.0404  0.2747  0.1976
 8309W        W12509   0.804   8.815   9.588 -0.0761  0.0117 -0.2799
 8310W        W12510   5.290   1.451   9.767 -0.2822  0.0420  0.1947
 8311W        W12511   2.561   6.571  13.255  0.3740 -0.0695  0.0365
 8312W        W12512   4.161   1.554   0.965  0.0105 -0.0946 -0.0072
 8313W        W12513   4.055   6.050   0.874  0.0754  0.2210 -0.0498
 8314W        W12514   4.716   0.800   8.257  0.3333 -0.0053  0.1758
 8315W        W12515   5.498   8.007  12.497  0.0561  0.2249 -0.0761
 8316W        W12516   6.478   9.212  10.157 -0.3911  0.1130  0.1046
 8317W        W12517   0.661   0.192  10.946  0.3400 -0.0118 -0.1086
 8318W        W12518   0.964   0.802   0.801 -0.0719  0.3383 -0.3491
 8319W        W12519   9.722   8.739   0.110 -0.1039  0.0247 -0.0420
 8320W        W12520   4.555   0.891   0.802 -0.3173 -0.1683 -0.5523
 8321W        W12521   3.822   7.132  13.047 -0.1931  0.1633 -0.2279
 8322W        W12522   5.701   1.491   4.505 -0.0039  0.2210  0.0253
 8323W        W12523   4.212   5.361   3.076 -0.0401 -0.0848  0.2075
 8324W        W12524   0.263   0.630  12.580 -0.0561  0.0162  0.2491
 8325W        W12525   5.845   1.252  10.733  0.0529 -0.0647 -0.0911
 8326W        W12526   4.713  10.141   0.510  0.1866 -0.1264 -0.1114
 8327W        W12527   8.309   6.972   4.280  0.2292  0.0048 -0.3847
 8328W        W12528   7.022   3.944   1.907 -0.1044 -0.1051  0.2739
 8329W        W12529   0.413   3.187   1.033  0.1554 -0.2372  0.2729
 8330W        W12530   5.312   4.220   4.038 -0.2792  0.0405 -0.1115
 8331W        W12531   7.146  10.062   3.888  0.3265 -0.1369 -0.0031
 8332W        W12532   9.154   0.438   9.769 -0.1255  0.3373  0.1048
 8333W        W12533   2.648   1.615   1.788  0.2296 -0.2923 -0.1066
 8334W        W12534   7.097   0.315   9.903 -0.0073  0.1316 -0.2625
 8335W        W12535   2.800   9.230   0.411 -0.0032  0.1154  0.0087
 8336W        W12536   8.999   9.180  12.830  0.2826  0.0529 -0.1151
 8337W        W12537   6.496   1.510   3.884 -0.3811  0.0084 -0.0944
 8338W        W12538   5.791   6.447   0.617 -0.0644 -0.0513 -0.1903
 8339W        W12539   4.057   9.459   9.723  0.2312 -0.1899 -0.0656
 8340W        W12540   0.666   6.426   9.479 -0.2245  0.0119  0.2358
 8341W        W12541   7.836   5.632   1.931  0.3237 -0.0717 -0.2966
 8342W        W12542   3.093   9.144   9.897  0.2053 -0.1794  0.1733
 8343W        W12543   6.384   3.604   0.159 -0.2085 -0.1693 -0.0549
 8344W        W12544   3.961   1.374  12.678  0.2362 -0.1705 -0.0578
 8345W        W12545   8.260   0.165  12.935 -0.1576  0.3178 -0.1678
 8346W        W12546   2.423   7.284   9.240 -0.0784  0.2137 -0.2026
 8347W        W12547   9.120   7.405   0.631 -0.0897  0.0042 -0.2101
 8348W        W12548   2.995   3.118  13.158 -0.0033  0.2236 -0.2451
 8349W        W12549   6.117   9.407   3.253  0.1818 -0.1299 -0.0357
 8350W        W12550   7.549   3.054  12.506 -0.0397  0.1851  0.3518
 8351W        W12551   6.901   6.019   9.235  0.1014  0.1493  0.2656
 8352W        W12552   8.042   0.669   1.185  0.0331 -0.2339  0.3855
 8353W        W12553   1.396   4.580   0.324 -0.2512  0.0938  0.2790
 8354W        W12554   1.384   8.843   2.400 -0.2816 -0.0370 -0.4587
 8355W        W12555   2.167   6.916  12.588  0.1081  0.3134 -0.0378
 8356W        W12556   9.541   5.375  11.910  0.0620 -0.0920  0.2063
 8357W        W12557  10.267   3.771   9.868  0.0392 -0.1148  0.1758
 8358W        W12558   2.414   2.663  11.156  0.2604  0.3644 -0.0199
 8359W        W12559   4.111   5.658  12.366 -0.0157 -0.0144  0.2434
 8360W        W12560   9.197   2.150   1.286 -0.2818  0.0380  0.0277
 8361W        W12561   9.694  10.352   0.337  0.2207  0.5072  0.2109
 8362W        W12562   6.325   5.546   2.915  0.0145  0.2407  0.0495
 8363W        W12563   4.960   3.149   4.287 -0.1087  0.1763 -0.1126
 8364W        W12564   3.108   7.700   1.868  0.4019  0.0527  0.4676
 8365W        W12565   4.698   8.650   0.624  0.1775  0.1154 -0.2243
 8366W        W12566   4.710   3.188  11.182 -0.2091  0.0847  0.1573
 8367W        W12567   4.218   4.503   5.448  0.2551  0.0496  0.2567
 8368W        W12568   6.371   3.636  11.432 -0.0585  0.1191  0.0475
 8369W        W12569   7.653   9.548  12.435 -0.0572 -0.3845  0.1799
 8370W        W12570   4.876   1.529   9.485  0.2990  0.3460 -0.2268
 8371W        W12571   1.415   6.180  11.517  0.3200 -0.0476 -0.2022
 8372W        W12572   0.494   9.264   3.365 -0.0527 -0.0140  0.2632
 8373W        W12573   3.430   6.863   4.136  0.1226 -0.2084  0.2990
 8374W        W12574   8.591   2.812   0.231 -0.0633  0.0536 -0.2356
 8375W        W12575   8.011   8.015   2.721 -0.3125 -0.0073 -0.0553
 8376W        W12576   1.825   5.470  13.224 -0.1362  0.4572 -0.1208
 8377W        W12577   8.757   5.004  10.091  0.2546  0.0920 -0.2844
 8378W        W12578   6.391   3.046   2.245  0.1178 -0.1238 -0.4294
 8379W        W12579   5.802   8.870   4.444 -0.0969  0.0451  0.1580
 8380W        W12580   7.201   0.931   0.879 -0.1257  0.4521 -0.1073
 8381W        W12581   5.989   7.513  13.117  0.0339  0.0790 -0.3774
 8382W        W12582   6.560   0.306  11.355  0.1348 -0.0124 -0.1006
 8383W        W12583   2.934   7.946  11.797  0.0534  0.0476  0.2661
 8384W        W12584   0.032   1.812   3.900  0.0248  0.0003  0.1575
 8385W        W12585   3.310   7.018   2.072  0.0209 -0.1359 -0.2537
 8386W        W12586   7.043   8.055  12.264 -0.2466 -0.2704 -0.0123
 8387W        W12587   8.185   5.796  11.515 -0.0138  0.1423 -0.0334
 8388W        W12588   4.571   9.482   4.529 -0.0193  0.0661  0.0071
 8389W        W12589   5.714   8.636   9.954  0.0942  0.1074 -0.2391
 8390W        W12590   7.732   1.420   0.050 -0.3300 -0.2482  0.0051
 8391W        W12591   5.227   1.189   1.682  0.0793 -0.0225 -0.0661
 8392W        W12592   5.385   4.525  11.615  0.2145  0.0483  0.0412
 8393W        W12593   9.850   4.033   1.217  0.0214  0.0499  0.1473
 8394W        W12594   5.122  10.181   4.558 -0.1357 -0.2990  0.2624
 8395W        W12595   7.344   3.999   2.723  0.3583  0.0286 -0.2380
 8396W        W12596   2.798   0.847  11.203  0.0782 -0.0002  0.0195
 8397W        W12597   6.418   5.547   8.370 -0.0055 -0.0981  0.4936
 8398W        W12598   4.526   3.587   8.724  0.3419 -0.0266  0.0725
 8399W        W12599   6.557   2.594   9.646  0.0972 -0.0220  0.0377
 8400W        W12600   6.752   8.153   8.428  0.2259 -0.1123 -0.2789
 8401W        W12601   3.572   7.671  12.249  0.0652 -0.1351  0.0170
 8402W        W12602   5.182   8.520  12.629  0.0575 -0.3295  0.1377
 8403W        W12603   3.895   3.504   1.824  0.1784  0.1099 -0.1662
 8404W        W12604   4.426   9.932   4.272 -0.1026 -0.1849  0.2601
 8405W        W12605   0.425   1.445  11.487  0.1660 -0.3535 -0.0652
 8406W        W12606   7.261   3.447  12.296 -0.2386  0.0923  0.2855
 8407W        W12607  10.509   3.773   3.938  0.1127 -0.1137  0.0102
 8408W        W12608   3.861   5.734   9.391 -0.0576  0.0266  0.0283
 8409W        W12609   0.603  10.508   2.139 -0.0495  0.1191  0.0252
 8410W        W12610   5.345   3.740   4.158  0.1483  0.2797  0.0189
 8411W        W12611   9.664   8.586   2.467  0.2842  0.2963  0.1442
 8412W        W12612   5.806   0.212   2.575 -0.0981  0.0860 -0.1411
 8413W        W12613   5.641   5.339   0.806  0.2699  0.3055  0.0972
 8414W        W12614   3.312   4.297   3.245  0.3231  0.1190  0.2162
 8415W        W12615  10.514   8.908   2.200  0.2275 -0.0145  0.0357
 8416W        W12616   1.945   5.296  11.777 -0.2372  0.1212 -0.0888
 8417W        W12617   3.997   6.757   1.457 -0.3690  0.3352  0.0680
 8418W        W12618   2.150   8.343  11.402  0.1112 -0.0196  0.1062
 8419W        W12619   6.611   7.873   4.065 -0.0175  0.2905  0.0503
 8420W        W12620   1.120   9.458  11.150 -0.0128 -0.0127 -0.4837
 8421W        W12621   7.761   0.032  12.831 -0.0337  0.1096  0.4373
 8422W        W12622   3.469   7.540   3.696  0.2257 -0.2806 -0.0211
 8423W        W12623   9.489   7.897   3.105 -0.0400 -0.0822 -0.3382
 8424W        W12624   0.353   5.772   3.317 -0.1750 -0.0792 -0.2213
 8425W        W12625   8.227   5.998   9.711 -0.2114 -0.2210  0.1472
 8426W        W12626   6.826   8.481   4.136 -0.0438 -0.0222  0.2374
 8427W        W12627   0.300   9.326   1.327  0.2747 -0.1513 -0.1532
 8428W        W12628   0.381   6.220  12.598 -0.2089 -0.1427  0.0685
 8429W        W12629   5.725   4.750  12.903 -0.4053 -0.3399 -0.0493
 8430W        W12630   2.022   5.715   8.958  0.2006 -0.1398  0.1189
 8431W        W12631   1.840   5.305   8.746  0.0636  0.0610  0.0938
 8432W        W12632   8.849   8.297   0.560  0.0214  0.0893 -0.0552
 8433W        W12633   8.436   5.980   1.327  0.0022  0.2260 -0.1295
 8434W        W12634   4.413  10.084   1.240 -0.1626  0.0763 -0.0622
 8435W        W12635   1.608   3.509   9.694 -0.0041 -0.1433 -0.1214
 8436W        W12636   4.379   0.825   1.564 -0.3049  0.4695  0.0436
 8437W        W12637   4.307   4.548   8.892 -0.0920 -0.2726 -0.3350
 8438W        W12638   3.663   6.930   1.133 -0.1948  0.0298 -0.4162
 8439W        W12639   7.452  10.507   9.680  0.2920  0.0279  0.0090
 8440W        W12640   1.180   4.322   3.540  0.2086 -0.2938  0.3342
 8441W        W12641   7.719   5.361   0.010 -0.2871 -0.1164 -0.1001
 8442W        W12642   8.806   0.325   2.333  0.2195 -0.1260 -0.2941
 8443W        W12643   8.563   1.530   9.273  0.2404 -0.0098 -0.0096
 8444W        W12644   6.802   1.986  12.099  0.0095 -0.1195 -0.0263
 8445W        W12645   0.823   3.158  11.140  0.1627 -0.2879  0.1704
 8446W        W12646   8.401   9.510   3.625  0.1207 -0.1938 -0.0986
 8447W        W12647   9.658   5.898   0.854 -0.0747 -0.2360  0.2420
 8448W        W12648   3.516   3.464  10.289  0.1784 -0.2108 -0.2890
 8449W        W12649   0.997   1.534   9.996  0.0693  0.2163  0.1953
 8450W        W12650   7.508   4.235  11.862 -0.1750  0.4090 -0.2116
 8451W        W12651   2.312   0.787  12.722  0.1984 -0.1151  0.1547
 8452W        W12652   7.630   8.756  10.000 -0.0501 -0.1756  0.0086
 8453W        W12653   7.462   2.582   2.477  0.0432 -0.0610 -0.1914
 8454W        W12654   7.984   8.220  10.687 -0.0867 -0.0229 -0.0351
 8455W        W12655   9.133   9.506  10.235 -0.1209 -0.0739  0.1523
 8456W        W12656   3.778   7.257  11.130 -0.4066  0.0496  0.1652
 8457W        W12657   8.754   5.984   2.749 -0.3256  0.0051  0.0066
 8458W        W12658   9.295  10.411  10.378 -0.2569  0.1792  0.0904
 8459W        W12659   4.419   8.729  10.341  0.1803 -0.2219  0.5439
 8460W        W12660   5.467   5.093   3.304 -0.0348  0.2210  0.1827
 8461W        W12661   2.100   1.346  12.963  0.0162  0.0244  0.0224
 8462W        W12662   8.490   3.707  10.248  0.3224 -0.3044  0.2432
 8463W        W12663   2.650   9.968  10.845  0.0363  0.0708  0.1652
 8464W        W12664   5.743   9.478  11.174 -0.1164 -0.3075  0.0985
 8465W        W12665   8.627  10.116   0.695  0.2839  0.1655  0.1176
 8466W        W12666   1.506   4.179   9.124  0.2291  0.1395  0.1267
 8467W        W12667   3.766   0.373  12.954 -0.0785 -0.3108  0.0850
 8468W        W12668   0.102  10.355  10.021  0.0313 -0.1650 -0.0411
 8469W        W12669   0.422   2.411   2.968  0.1366 -0.1982 -0.0572
 8470W        W12670   4.912   0.208  10.279  0.0442 -0.2730  0.0979
 8471W        W12671   3.195   8.504   4.589 -0.3682 -0.1377  0.2252
 8472W        W12672   3.980   8.140  13.051  0.0548  0.0454  0.0444
 8473W        W12673   4.319   0.442  13.024  0.0452 -0.0609  0.0680
 8474W        W12674   0.175   3.023  11.624 -0.1950  0.1524  0.3284
 8475W        W12675   9.605   5.828   1.895  0.1393 -0.0278 -0.4349
 8476W        W12676   0.334   8.169   0.029  0.3264  0.0225  0.1315
 8477W        W12677   4.538   2.444   3.845 -0.1740 -0.1091  0.0665
 8478W        W12678   7.877   3.130   4.499  0.3031 -0.3139  0.3611
 8479W        W12679   1.172   0.218   2.966  0.1813 -0.0222  0.2848
 8480W        W12680   4.589   7.684  11.305  0.0707 -0.0584 -0.4033
 8481W        W12681  10.109   5.251   8.316  0.1000 -0.2464 -0.2314
 8482W        W12682   7.028   6.027   1.062  0.0556  0.1607 -0.0074
 8483W        W12683   8.693   3.402   9.802 -0.3362  0.1489 -0.2174
 8484W        W12684   8.212   1.949   4.909  0.0854  0.0969  0.1940
 8485W        W12685   7.294   1.915  12.543 -0.1163  0.0984  0.3383
 8486W        W12686   8.831   6.306   3.179  0.2319  0.0717  0.0007
 8487W        W12687   5.469   1.871  12.899 -0.2906 -0.0455  0.0410
 8488W        W12688   8.427   4.440   0.759  0.0060 -0.1675 -0.2192
 8489W        W12689   7.128   3.096   8.937  0.0635 -0.1302  0.0625
 8490W        W12690   4.489   1.607   2.340  0.0060 -0.2238 -0.3071
 8491W        W12691   3.042   5.252  11.032  0.0937 -0.2495 -0.0128
 8492W        W12692   2.208   3.636   0.541 -0.0047 -0.2813  0.1062
 8493W        W12693   4.138   1.118  10.534  0.0666  0.2142  0.0475
 8494W        W12694   1.153   8.491  11.442 -0.2115  0.1556  0.0096
 8495W        W12695  10.467   5.248   1.403  0.2320  0.3558  0.1031
 8496W        W12696   7.768   6.226   1.320  0.0693  0.1066 -0.1689
 8497W        W12697   0.915   2.816   4.674  0.0114 -0.2424  0.3936
 8498W        W12698   7.112   9.841   1.496  0.0138 -0.0597 -0.2283
 8499W        W12699   5.159   2.589   3.157 -0.0085 -0.0623  0.4399
 8500W        W12700   9.011   2.785   9.180 -0.0260 -0.0255  0.1334
 8501W        W12701   3.510   7.253   3.197  0.0968  0.1450 -0.2474
 8502W        W12702   1.247   6.825  10.572  0.0404 -0.2708  0.1883
 8503W        W12703   7.642   3.563   1.697  0.0991  0.1574 -0.1294
 8504W        W12704   8.710   7.612   2.128  0.0143  0.1412 -0.2619
 8505W        W12705   7.990   3.849  10.089 -0.1859  0.5414  0.1890
 8506W        W12706   5.342   6.947   4.414 -0.1042  0.0360  0.1880
 8507W        W12707   5.174   1.369   5.574  0.0629 -0.2474 -0.2015
 8508W        W12708   5.137   0.759   3.206  0.1981  0.2022  0.2340
 8509W        W12709   1.285   9.514  13.116  0.3070  0.2956  0.2089
 8510W        W12710   0.895   5.986  12.609  0.0849 -0.0525  0.0668
 8511W        W12711   5.912   3.319   2.132  0.0722 -0.0021 -0.3285
 8512W        W12712   0.241   1.307  11.907 -0.2121  0.1774  0.1304
 8513W        W12713   2.907   7.558  12.137 -0.1118  0.0732 -0.3296
 8514W        W12714   2.936   7.635  10.560  0.0726 -0.3253  0.0916
 8515W        W12715   2.806   2.071  10.090 -0.1037 -0.0738 -0.2545
 8516W        W12716   7.250   5.115  11.135  0.0564  0.3816  0.0633
 8517W        W12717   5.695   4.793  11.262  0.0678 -0.2892  0.0521
 8518W        W12718   2.720   3.629   8.785  0.0529 -0.3344 -0.1118
 8519W        W12719   3.969   1.443   9.178 -0.0650  0.0122 -0.2713
 8520W        W12720   7.905   2.503  10.468 -0.1330  0.3912 -0.2165
 8521W        W12721   8.959   6.755  11.043 -0.0382 -0.0858  0.3192
 8522W        W12722   2.911   9.024   1.714 -0.0177  0.1352  0.3119
 8523W        W12723   0.903   3.966   9.351 -0.0934  0.0145 -0.1102
 8524W        W12724   5.076   8.610   1.538  0.1396  0.1687 -0.2662
 8525W        W12725   9.876   6.742   2.152 -0.0297  0.3825  0.1329
 8526W        W12726   9.771   1.963  10.413 -0.0102  0.0291 -0.1773
 8527W        W12727   0.553  10.211  12.180  0.1614  0.1381 -0.0952
 8528W        W12728   9.897   3.791   0.257  0.1992  0.3408 -0.0000
 8529W        W12729  10.378   2.959  12.721 -0.1143  0.1781  0.1131
 8530W        W12730   0.866   3.690   2.506  0.0560 -0.0912 -0.1119
 8531W        W12731   6.090   4.391   0.594  0.0589  0.1582  0.2391
 8532W        W12732   2.328   8.478   0.632 -0.2046  0.1164  0.0089
 8533W        W12733   2.146   3.633  11.226  0.0009  0.0394  0.1956
 8534W        W12734   6.765   5.545   0.377 -0.1027 -0.0226 -0.0969
 8535ION    NA+12735   9.090   1.194  10.760 -0.1651  0.0963  0.0344
 8536ION    NA+12736   8.791   1.966   4.958  0.4044 -0.3516 -0.0435
 8537ION    NA+12737   1.519   2.079   9.644 -0.5850  0.2211  0.1108
 8538ION    NA+12738   8.610   1.504   0.178  0.2984  0.2505 -0.0258
 8539ION    NA+12739   2.081   1.987   0.529 -0.1582  0.0455  0.2883
 8540ION    NA+12740   5.174   5.513   3.597 -0.2051  0.1551  0.1939
 8541ION    NA+12741   0.223   1.465  10.212  0.0045  0.3196  0.2056
 8542ION    NA+12742   7.306   8.855  10.451  0.2730  0.1606 -0.0318
 8543ION    NA+12743   8.484   8.448   4.971 -0.3529  0.0993  0.2971
 8544ION    NA+12744   4.570   7.413   2.203 -0.0877  0.0747  0.0483
 8545ION    NA+12745  10.323   9.765  10.850  0.1296 -0.1019  0.1718
 8546ION    NA+12746   4.253  10.151   9.198 -0.1946 -0.2007  0.0531
 8547ION    NA+12747   0.239  10.338   0.442  0.0115 -0.0452  0.1429
 8548ION    NA+12748   5.381   1.267   3.020  0.0003  0.1510  0.3344
 8549ION    NA+12749   1.709   4.623   4.345  0.0585  0.1151  0.1882
 8550ION    NA+12750   0.151   9.851   1.455  0.1691  0.0635  0.3240
 8551ION    NA+12751   3.388   3.497   4.756 -0.0183 -0.1204  0.0370
 8552ION    NA+12752  10.105   2.426   2.096  0.1118  0.0979  0.1181
 8553ION    NA+12753   2.195   6.143   8.382 -0.2839  0.1092  0.1301
 8554ION    NA+12754   3.802   3.779   1.439 -0.0933  0.0576  0.0774
 8555ION    NA+12755   6.888   7.935  10.182 -0.0175  0.0405 -0.3560
 8556ION    NA+12756   0.123   3.171  12.120 -0.1775  0.1490 -0.2082
 8557ION    NA+12757   9.390   0.560   1.521  0.0641  0.1356 -0.1832
 8558ION    NA+12758   9.351   7.515   8.697 -0.0467  0.3147  0.3387
 8559ION    NA+12759   1.112   5.316   0.280 -0.1331  0.1242 -0.0965
 8560ION    NA+12760   9.481   6.551  11.056  0.2467  0.0441 -0.0384
 8561ION    NA+12761   0.159   3.985  11.603 -0.0203  0.2125 -0.1869
 8562ION    NA+12762   0.809   4.154  10.279  0.5445 -0.1752  0.3655
 8563ION    NA+12763   9.279   5.046   2.186 -0.0664  0.0667  0.0888
 8564ION    NA+12764   5.672   9.949   0.874  0.2374 -0.0077  0.1615
 8565ION    NA+12765   9.112   0.923   9.812  0.3165 -0.2822  0.1436
 8566ION    NA+12766   6.430   1.027  11.620  0.0954 -0.0741 -0.1978
 8567ION    NA+12767   8.891   1.554   9.681  0.1016 -0.0356 -0.0489
 8568ION    NA+12768   9.436   4.231   9.609 -0.0998 -0.3250  0.1537
 8569ION    NA+12769   5.100   7.184   8.938  0.0738 -0.0877 -0.1294
 8570ION    NA+12770   8.006   6.996   8.540 -0.1574  0.1612 -0.2014
 8571ION    NA+12771   7.753   0.993   8.705 -0.0245 -0.2477  0.1223
 8572ION    NA+12772   3.031   6.948   0.977 -0.2834 -0.3713  0.2142
 8573ION    NA+12773   0.567   9.315   0.131 -0.0555  0.2195  0.1659
 8574ION    NA+12774   1.134   9.911   0.229 -0.3863 -0.3984  0.4435
 8575ION    NA+12775   0.707   8.353  11.724 -0.1343 -0.1902 -0.1096
 8576ION    NA+12776   7.122   5.611  12.249 -0.1005 -0.0337  0.2684
 8577ION    NA+12777   9.107   1.419   2.562 -0.0642  0.4386  0.2518
 8578ION    NA+12778   4.136   8.628   3.511  0.1916  0.0259  0.0129
 8579ION    NA+12779  10.474   2.253   3.097  0.1374 -0.0405  0.0689
 8580ION    NA+12780   4.265   7.165   0.153  0.1481  0.0078  0.0340
 8581ION    NA+12781   0.338   9.749   2.499 -0.3271  0.0757  0.0983
 8582ION    NA+12782  10.492   2.745   4.980 -0.0158 -0.1478 -0.1777
 8583ION    NA+12783   5.910   5.698   0.497  0.1745  0.0044 -0.0565
 8584ION    NA+12784   6.480   8.795   5.087  0.0864 -0.2134  0.1096
 8585ION    NA+12785   2.741   2.999   9.786 -0.0095  0.2032  0.0522
 8586ION    NA+12786   3.803   1.470   8.639 -0.1429  0.1479 -0.0511
 8587ION    NA+12787   4.480   4.235  11.009  0.0474 -0.0814 -0.2208
 8588ION    NA+12788   6.964   9.402   3.128  0.0907 -0.1517 -0.1118
 8589ION    NA+12789   3.629   5.742   5.221 -0.0386 -0.0680  0.1292
 8590ION    NA+12790   8.879   2.243   8.831 -0.0517 -0.1494 -0.1539
 8591ION    NA+12791   0.880   6.358  12.999 -0.2323 -0.5209  0.2433
 8592ION    NA+12792   0.251   8.195   1.820 -0.2102 -0.0023 -0.2092
 8593ION    NA+12793   7.127   7.278   3.316 -0.0492  0.0702  0.1299
 8594ION    NA+12794   1.887   3.152  10.470 -0.2500  0.1269 -0.2170
 8595ION    NA+12795   2.921   1.698   0.022 -0.4537  0.0844  0.2310
 8596ION    NA+12796   5.209   1.733   4.779 -0.0286 -0.2718 -0.1418
 8597ION    NA+12797   4.460   8.003   2.909  0.0898 -0.2007  0.5121
 8598ION    NA+12798   4.073   5.324  10.697  0.2480  0.0178  0.0235
 8599ION    NA+12799  10.040   6.048   1.140  0.1615  0.2377  0.2984
 8600ION    NA+12800   6.859   1.953  11.511 -0.1018  0.0295 -0.1661
 8601ION    NA+12801   5.739   4.752   0.663 -0.0076 -0.2422  0.0178
 8602ION    NA+12802   9.203   6.111   9.375 -0.0605  0.4448  0.4812
 8603ION    NA+12803   7.913   6.006   2.292 -0.2109 -0.1600  0.1582
 8604ION    NA+12804   1.638   3.415  12.996 -0.3102  0.2663 -0.1859
 8605ION    NA+12805   9.023   7.512   1.304  0.2277  0.1968 -0.2694
 8606ION    NA+12806   6.624   6.830   3.914 -0.0911 -0.2247 -0.0194
 8607ION    NA+12807   3.037   3.799   9.916 -0.2743  0.4023 -0.3212
 8608ION    NA+12808   3.003   2.711   9.500  0.0595 -0.3321  0.1715
 8609ION    NA+12809   9.755   5.226   4.131  0.0258 -0.1109  0.1863
 8610ION    NA+12810   0.078   3.662  10.236  0.2478 -0.3874  0.0204
 8611ION    NA+12811   4.950   2.749   3.971  0.2538 -0.3574  0.1501
 8612ION    NA+12812   6.793   9.320  11.645 -0.1161 -0.3498 -0.1777
 8613ION    NA+12813   2.392   8.546   9.812 -0.2310  0.1187  0.3512
 8614ION    NA+12814   1.378   9.553   3.309 -0.1175  0.0468 -0.0242
 8615ION    NA+12815   0.585   6.574   8.416 -0.0768 -0.0655 -0.1355
 8616ION    NA+12816   0.478   9.262   9.938 -0.0664  0.1430 -0.1380
 8617ION    NA+12817   8.693   2.198  12.122  0.3819  0.1233 -0.0714
 8618ION    NA+12818   8.005  10.106   8.663 -0.2084 -0.0631 -0.1902
 8619ION    NA+12819   3.199   9.243   9.390 -0.2368 -0.3400 -0.1584
 8620ION    NA+12820  10.052   1.160  11.799 -0.1393 -0.0541  0.3235
 8621ION    NA+12821  10.180   4.618   8.663  0.0191  0.1647 -0.0436
 8622ION    NA+12822   0.344   3.637   9.783  0.1813  0.2052 -0.1581
 8623ION    NA+12823   7.075   4.891   9.977  0.2004  0.2358 -0.0439
 8624ION    NA+12824   5.437   4.572   3.256  0.0181  0.0322 -0.4527
 8625ION    CL-12825   3.243   2.145   3.867  0.0686  0.0390 -0.0908
 8626ION    CL-12826   5.384   9.499   1.271 -0.1543  0.0504 -0.0096
 8627ION    CL-12827   2.611   2.605  10.039 -0.0480  0.2404  0.2063
 8628ION    CL-12828  10.117   3.578  11.965  0.2435  0.2759  0.1047
 8629ION    CL-12829   5.835   4.173   9.486  0.4478  0.0470  0.0959
 8630ION    CL-12830   8.521   3.344   4.432  0.0759 -0.1247 -0.3139
 8631ION    CL-12831   8.543   1.215   3.781  0.0938 -0.0901 -0.1658
 8632ION    CL-12832   7.103   1.440   9.310 -0.3894 -0.2611  0.2095
 8633ION    CL-12833  10.408  10.126   1.883  0.2195  0.0233  0.0360
 8634ION    CL-12834   2.144   0.474   1.410  0.2360  0.1309 -0.2028
 8635ION    CL-12835   1.334   8.695  10.422 -0.0934  0.3901  0.1429
 8636ION    CL-12836   9.560   6.043  11.207  0.1781  0.4364  0.2204
 8637ION    CL-12837   9.532   6.140   8.870  0.2743  0.1551 -0.2068
 8638ION    CL-12838   0.078   4.101   9.631  0.1511  0.0071 -0.1294
 8639ION    CL-12839   1.616   9.959   0.337 -0.3651  0.2468  0.0462
 8640ION    CL-12840   4.984   9.362   2.285  0.3318  0.3861 -0.2481
 8641ION    CL-12841   6.728   4.694  11.868 -0.0077 -0.1264 -0.0563
 8642ION    CL-12842   5.607  10.417   9.384 -0.0192  0.3551  0.0420
 8643ION    CL-12843   9.700   3.778   9.652 -0.1321  0.2931  0.0285
 8644ION    CL-12844   0.091   9.168  10.235 -0.0091 -0.1745  0.0729
 8645ION    CL-12845   4.150   4.864  10.896 -0.1765  0.1292 -0.1241
 8646ION    CL-12846   2.368   8.133   2.758 -0.0171  0.1937  0.2018
 8647ION    CL-12847   3.853   6.291   1.347  0.0096 -0.5185  0.2009
 8648ION    CL-12848   9.884   0.450   1.365 -0.2856  0.3376 -0.0752
 8649ION    CL-12849   5.740   4.666   3.615  0.0473  0.2342 -0.2106
 8650ION    CL-12850   4.838  10.439  11.786 -0.1835 -0.1230 -0.0048
 8651ION    CL-12851   0.887   6.426   0.984  0.1269 -0.0760 -0.3119
 8652ION    CL-12852   0.135   1.896   0.478 -0.3573  0.2732 -0.1487
 8653ION    CL-12853   3.796   1.284   1.131  0.0974  0.0330 -0.1121
 8654ION    CL-12854   5.337   7.880   9.655 -0.1869 -0.1063 -0.0238
 8655ION    CL-12855   4.373   7.487   2.694 -0.1416 -0.0343  0.2286
 8656ION    CL-12856   7.323   3.055   0.414  0.0619  0.1642 -0.1325
 8657ION    CL-12857  10.205   5.993   4.047 -0.0290  0.0633  0.1829
 8658ION    CL-12858   6.913   5.991  11.963 -0.0396  0.1673  0.1474
 8659ION    CL-12859   1.646   2.773  10.627 -0.0005  0.0998  0.4679
 8660ION    CL-12860   3.515   8.257   9.489  0.2153 -0.0925  0.4912
 8661ION    CL-12861   2.463   2.246   0.706 -0.0827 -0.1139 -0.0092
 8662ION    CL-12862   5.123  10.339   2.409 -0.3368 -0.2309 -0.3288
 8663ION    CL-12863   8.502   2.587  12.478 -0.1114  0.2404  0.0545
 8664ION    CL-12864   0.736   9.658   0.468  0.1104 -0.4767 -0.2914
 8665ION    CL-12865   2.525   6.328   9.333  0.0758  0.1982  0.2266
 8666ION    CL-12866   2.513   6.883   1.097 -0.0591  0.2425  0.0226
 8667ION    CL-12867  10.045   1.331  12.291  0.0656 -0.2404 -0.0599
 8668ION    CL-12868   8.143   1.368   0.310 -0.0564 -0.0190 -0.1809
 8669ION    CL-12869   6.679   7.212   3.622 -0.2779 -0.0614  0.0746
 8670ION    CL-12870   5.353   0.952   2.651 -0.1028  0.0690 -0.1514
 8671ION    CL-12871   7.801   6.696   3.072  0.0080  0.0916  0.1169
 8672ION    CL-12872   2.205   3.098  13.056  0.1863 -0.0528  0.1329
 8673ION    CL-12873   2.642   3.472   9.947 -0.0123 -0.0951  0.2755
 8674ION    CL-12874   9.147   5.669   3.548  0.0054  0.0946  0.0501
 8675ION    CL-12875   8.663   2.080  11.642 -0.0384 -0.2205 -0.1662
 8676ION    CL-12876   7.593   3.219   1.278  0.0750  0.0370  0.0995
 8677ION    CL-12877   9.095   5.487   2.030  0.2421  0.2196 -0.0194
 8678ION    CL-12878   1.845   9.980  10.759  0.2348  0.1978  0.0516
 8679ION    CL-12879   0.290   2.955   4.094  0.3054  0.1634  0.0190
 8680ION    CL-12880   6.761   6.378   4.044  0.2750  0.1763  0.0030
 8681ION    CL-12881   3.727   5.630   4.699 -0.0728 -0.1918 -0.2890
 8682ION    CL-12882   9.054   5.025  13.055 -0.2389 -0.1763 -0.0542
 8683ION    CL-12883   8.825  10.128  10.682 -0.1181  0.1181 -0.1236
 8684ION    CL-12884   5.253   2.823   4.497 -0.1778 -0.1790 -0.0647
 8685ION    CL-12885   7.069   8.366  10.279 -0.1867 -0.0454 -0.0555
 8686ION    CL-12886   1.842   4.968   3.981  0.2022 -0.1652 -0.2396
 8687ION    CL-12887   5.915   1.016  11.621 -0.0914  0.0340 -0.3193
 8688ION    CL-12888   7.464   8.865  11.299  0.3297 -0.0365  0.0007
 8689ION    CL-12889  10.156   3.746  10.778 -0.4078 -0.0727 -0.0189
 8690ION    CL-12890   6.872   1.190  11.648  0.0884 -0.0048 -0.2225
 8691ION    CL-12891  10.109   5.453   1.075  0.0426 -0.5857  0.0570
 8692ION    CL-12892   8.618   3.339   2.494  0.1379  0.0741  0.0617
 8693ION    CL-12893   8.011   0.425   9.428  0.0668 -0.0575  0.0308
 8694ION    CL-12894   3.350   7.327   0.953 -0.0016  0.1557 -0.2608
 8695ION    CL-12895   6.550   9.159   3.090  0.4132 -0.2101  0.3259
 8696ION    CL-12896   8.043  10.381   3.435 -0.4463 -0.0128 -0.0738
 8697ION    CL-12897   1.592   1.677   0.448 -0.3937  0.4365  0.0398
 8698ION    CL-12898   3.896  10.188  11.463 -0.1206  0.0102  0.0597
 8699ION    CL-12899   7.486   9.251  10.130 -0.1022 -0.0750  0.2602
 8700ION    CL-12900   5.768   9.890   4.074 -0.3039  0.2438 -0.0224
 8701ION    CL-12901   0.560   4.713   8.962  0.0279 -0.0397  0.2319
 8702ION    CL-12902   3.313   3.183   9.505  0.0165  0.0386 -0.1141
 8703ION    CL-12903   0.059   7.265   2.111 -0.0812 -0.2932 -0.0265
 8704ION    CL-12904   0.442   8.767  11.893 -0.1881 -0.0949  0.1695
 8705ION    CL-12905   0.612   3.712  10.297  0.0322  0.0332 -0.2022
 8706ION    CL-12906   5.517   5.238  13.276 -0.2524 -0.0509  0.0994
 8707ION    CL-12907   0.721   8.077   3.209  0.0582 -0.1451  0.1481
 8708ION    CL-12908   4.211   5.664   9.824 -0.3149  0.0615 -0.0233
 8709ION    CL-12909   8.903   1.311  10.169  0.1428 -0.2391 -0.0105
 8710ION    CL-12910   6.318   8.050   0.020 -0.0440 -0.1571  0.1950
 8711ION    CL-12911   4.448   8.180   3.377 -0.3670 -0.1608  0.0116
 8712ION    CL-12912   9.357   4.674   2.586  0.0195  0.4495  0.2182
 8713ION    CL-12913   7.095   4.527   9.493  0.0311 -0.0699  0.2514
 8714ION    CL-12914   9.366   1.341   9.767  0.4721  0.0287  0.0993
  10.51618  10.51618  13.35909
