Protein in INSANE! Membrane UpperLeaflet>POPC=1.0 LowerLeaflet>POPC=1.0
11530
    1AU     AUC    1   5.259   5.282   6.002
    1AU     AUC    2   5.554   5.319   5.839
    1AU     AUC    3   5.532   5.313   6.172
    1AU     AUC    4   4.967   5.271   5.834
    1AU     AUC    5   4.998   5.269   6.189
    1AU     AUC    6   5.062   5.525   6.031
    1AU     AUC    7   5.400   5.560   6.004
    1AU     AUC    8   5.093   4.998   5.988
    1AU     AUC    9   5.461   5.046   6.009
    1AU     AUC   10   5.308   5.112   6.270
    1AU     AUC   11   5.245   5.447   6.286
    1AU     AUC   12   5.281   5.128   5.728
    1AU     AUC   13   5.255   5.457   5.731
    1AU     AUC   14   5.873   5.330   5.690
    1AU     AUC   15   5.908   5.343   6.000
    1AU     AUC   16   5.846   5.330   6.371
    1AU     AUC   17   4.671   5.259   5.668
    1AU     AUC   18   4.644   5.253   6.033
    1AU     AUC   19   4.699   5.230   6.384
    1AU     AUC   20   4.879   5.826   6.031
    1AU     AUC   21   5.223   5.896   5.988
    1AU     AUC   22   5.543   5.881   5.999
    1AU     AUC   23   4.925   4.697   5.957
    1AU     AUC   24   5.275   4.694   5.982
    1AU     AUC   25   5.642   4.743   5.979
    1AU     AUC   26   5.334   4.903   6.555
    1AU     AUC   27   5.276   5.227   6.608
    1AU     AUC   28   5.261   5.610   6.571
    1AU     AUC   29   5.300   4.938   5.427
    1AU     AUC   30   5.274   5.285   5.426
    1AU     AUC   31   5.263   5.641   5.442
    1AU     AUC   32   5.606   5.079   6.481
    1AU     AUC   33   5.568   5.447   6.515
    1AU     AUC   34   5.588   5.095   5.540
    1AU     AUC   35   5.602   5.472   5.529
    1AU     AUC   36   4.985   5.052   6.496
    1AU     AUC   37   4.980   5.416   6.510
    1AU     AUC   38   4.957   5.128   5.515
    1AU     AUC   39   4.934   5.466   5.518
    1AU     AUC   40   5.751   5.619   5.844
    1AU     AUC   41   5.703   5.600   6.204
    1AU     AUC   42   4.763   5.545   5.840
    1AU     AUC   43   4.762   5.553   6.229
    1AU     AUC   44   5.774   5.020   5.844
    1AU     AUC   45   5.784   5.033   6.145
    1AU     AUC   46   4.747   4.971   5.810
    1AU     AUC   47   4.791   4.953   6.150
    1AU     AUC   48   5.058   5.766   6.305
    1AU     AUC   49   5.394   5.775   6.301
    1AU     AUC   50   5.122   4.791   6.252
    1AU     AUC   51   5.496   4.785   6.279
    1AU     AUC   52   5.040   5.721   5.691
    1AU     AUC   53   5.443   5.760   5.681
    1AU     AUC   54   5.045   4.818   5.672
    1AU     AUC   55   5.443   4.812   5.690
    1AU    AUSL   56   5.871   5.237   6.748
    1AU    AUSL   57   5.753   4.752   6.650
    1AU     AUL   58   6.041   4.846   6.828
    1AU       S   59   6.083   4.494   6.508
    1AU     LIG   60   6.028   4.233   6.876
    1AU     LIG   61   6.135   3.822   7.108
    1AU       S   62   6.119   5.299   6.881
    1AU     LIG   63   6.046   5.371   7.324
    1AU     LIG   64   6.113   5.094   7.690
    1AU    AUSL   65   5.470   5.043   6.796
    1AU    AUSL   66   5.133   5.345   6.887
    1AU     AUL   67   5.326   5.227   7.141
    1AU       S   68   5.737   5.012   7.134
    1AU     LIG   69   5.605   5.105   7.556
    1AU     LIG   70   5.693   5.017   8.006
    1AU       S   71   4.614   5.119   7.195
    1AU     LIG   72   4.722   5.400   7.554
    1AU     LIG   73   4.638   5.456   8.021
    1AU    AUSL   74   5.476   5.466   6.677
    1AU    AUSL   75   5.882   5.657   6.630
    1AU     AUL   76   5.699   5.484   6.967
    1AU       S   77   5.301   5.724   7.116
    1AU     LIG   78   5.597   5.614   7.436
    1AU     LIG   79   5.830   5.504   7.815
    1AU       S   80   6.007   5.815   6.822
    1AU     LIG   81   6.426   5.790   6.885
    1AU     LIG   82   6.831   5.962   7.010
    1AU    AUSL   83   5.868   5.320   5.279
    1AU    AUSL   84   5.690   5.825   5.310
    1AU     AUL   85   5.809   5.611   5.025
    1AU       S   86   5.842   5.174   4.836
    1AU     LIG   87   6.057   5.203   4.427
    1AU     LIG   88   6.184   5.089   3.983
    1AU       S   89   6.055   5.929   5.265
    1AU     LIG   90   5.991   6.263   5.017
    1AU     LIG   91   6.113   6.584   4.699
    1AU    AUSL   92   5.525   5.049   5.233
    1AU    AUSL   93   5.814   5.027   5.604
    1AU     AUL   94   5.960   5.016   5.250
    1AU       S   95   6.107   4.386   5.358
    1AU     LIG   96   6.421   4.203   5.049
    1AU     LIG   97   6.572   4.180   4.585
    1AU       S   98   5.567   4.888   4.965
    1AU     LIG   99   5.416   4.750   4.515
    1AU     LIG  100   5.716   4.860   4.154
    1AU    AUSL  101   5.454   5.469   5.311
    1AU    AUSL  102   5.131   5.111   5.094
    1AU     AUL  103   5.406   5.338   4.971
    1AU       S  104   4.971   5.181   4.796
    1AU     LIG  105   5.033   5.085   4.339
    1AU     LIG  106   4.617   4.982   4.143
    1AU       S  107   5.769   4.944   4.787
    1AU     LIG  108   5.534   5.241   4.461
    1AU     LIG  109   5.728   5.384   4.054
    1AU    AUSL  110   4.778   5.194   6.695
    1AU    AUSL  111   5.016   5.703   6.687
    1AU     AUL  112   4.883   5.505   6.982
    1AU       S  113   4.537   5.196   6.906
    1AU     LIG  114   4.336   5.527   7.215
    1AU     LIG  115   4.222   5.414   7.689
    1AU       S  116   4.632   5.890   6.849
    1AU     LIG  117   4.433   6.180   7.108
    1AU     LIG  118   4.195   6.437   7.436
    1AU    AUSL  119   5.072   4.905   6.887
    1AU    AUSL  120   4.590   4.830   6.568
    1AU     AUL  121   4.747   4.776   6.847
    1AU       S  122   4.368   4.534   6.671
    1AU     LIG  123   3.985   4.296   6.858
    1AU     LIG  124   3.679   4.288   7.238
    1AU       S  125   4.865   5.066   7.185
    1AU     LIG  126   5.048   5.002   7.565
    1AU     LIG  127   4.758   4.964   7.914
    1AU    AUSL  128   4.725   5.208   5.229
    1AU    AUSL  129   5.002   4.909   5.451
    1AU     AUL  130   4.883   4.846   5.128
    1AU       S  131   4.567   5.133   4.917
    1AU     LIG  132   4.230   5.129   4.577
    1AU     LIG  133   4.175   5.299   4.147
    1AU       S  134   4.393   4.705   5.124
    1AU     LIG  135   4.470   4.244   5.018
    1AU     LIG  136   4.290   3.816   4.911
    1AU    AUSL  137   5.041   5.512   5.252
    1AU    AUSL  138   4.622   5.551   5.470
    1AU     AUL  139   4.751   5.537   5.065
    1AU       S  140   4.387   5.729   5.296
    1AU     LIG  141   4.107   6.079   5.134
    1AU     LIG  142   4.052   6.248   4.684
    1AU       S  143   4.711   5.038   4.710
    1AU     LIG  144   4.642   5.409   4.453
    1AU     LIG  145   4.649   5.465   3.998
    1AU    AUSL  146   5.932   5.917   6.026
    1AU    AUSL  147   5.917   5.599   5.604
    1AU     AUL  148   6.074   6.001   5.736
    1AU       S  149   6.172   5.648   5.421
    1AU     LIG  150   6.296   5.568   4.973
    1AU     LIG  151   6.363   5.986   4.778
    1AU       S  152   6.467   5.898   6.370
    1AU     LIG  153   6.627   6.265   6.089
    1AU     LIG  154   6.922   6.316   5.739
    1AU    AUSL  155   6.211   5.577   5.908
    1AU    AUSL  156   6.229   5.203   6.190
    1AU     AUL  157   6.527   5.398   6.031
    1AU       S  158   6.383   5.826   6.126
    1AU     LIG  159   6.680   5.837   5.799
    1AU     LIG  160   7.097   5.705   5.634
    1AU       S  161   6.528   4.927   6.059
    1AU     LIG  162   6.707   4.758   6.440
    1AU     LIG  163   7.138   4.539   6.479
    1AU    AUSL  164   5.947   5.518   6.240
    1AU    AUSL  165   5.623   5.821   6.305
    1AU     AUL  166   5.971   5.934   6.366
    1AU       S  167   5.966   6.116   6.843
    1AU     LIG  168   6.355   6.270   6.701
    1AU     LIG  169   6.696   6.457   6.943
    1AU       S  170   6.317   5.614   6.414
    1AU     LIG  171   6.830   5.559   6.417
    1AU     LIG  172   7.330   5.679   6.436
    1AU    AUSL  173   4.580   5.747   6.098
    1AU    AUSL  174   4.645   5.551   6.500
    1AU     AUL  175   4.318   5.842   6.333
    1AU       S  176   4.521   5.643   6.710
    1AU     LIG  177   4.124   5.838   6.828
    1AU     LIG  178   3.953   6.013   7.216
    1AU       S  179   4.511   6.195   6.078
    1AU     LIG  180   4.099   6.122   5.937
    1AU     LIG  181   3.847   6.343   5.631
    1AU    AUSL  182   4.488   5.411   5.843
    1AU    AUSL  183   4.635   5.924   5.718
    1AU     AUL  184   4.351   5.735   5.774
    1AU       S  185   4.188   5.338   5.522
    1AU     LIG  186   3.905   5.771   5.555
    1AU     LIG  187   3.470   6.011   5.488
    1AU       S  188   4.442   6.153   5.544
    1AU     LIG  189   4.391   6.504   5.274
    1AU     LIG  190   4.004   6.612   5.050
    1AU    AUSL  191   4.331   5.392   6.260
    1AU    AUSL  192   4.304   5.035   5.913
    1AU     AUL  193   4.125   5.372   5.988
    1AU       S  194   4.089   4.937   6.172
    1AU     LIG  195   3.763   4.891   5.868
    1AU     LIG  196   3.440   4.682   5.587
    1AU       S  197   4.146   5.419   6.495
    1AU     LIG  198   3.801   5.736   6.411
    1AU     LIG  199   3.354   5.965   6.415
    1AU    AUSL  200   6.033   4.867   5.999
    1AU    AUSL  201   5.852   5.070   6.362
    1AU     AUL  202   6.180   4.946   6.389
    1AU       S  203   6.385   4.771   5.992
    1AU     LIG  204   6.418   4.382   5.848
    1AU     LIG  205   6.775   4.141   5.692
    1AU       S  206   6.286   4.462   6.345
    1AU     LIG  207   6.505   4.406   6.761
    1AU     LIG  208   6.461   4.238   7.187
    1AU    AUSL  209   6.181   5.186   5.728
    1AU    AUSL  210   5.836   4.567   5.769
    1AU     AUL  211   6.107   4.797   5.626
    1AU       S  212   6.497   5.007   5.767
    1AU     LIG  213   6.766   4.670   5.584
    1AU     LIG  214   7.203   4.436   5.659
    1AU       S  215   5.972   4.345   5.654
    1AU     LIG  216   6.060   3.934   5.538
    1AU     LIG  217   6.186   3.748   5.146
    1AU    AUSL  218   4.656   4.750   5.939
    1AU    AUSL  219   4.585   5.035   5.589
    1AU     AUL  220   4.309   4.745   5.774
    1AU       S  221   4.373   4.915   5.339
    1AU     LIG  222   3.962   4.705   5.410
    1AU     LIG  223   3.819   4.371   5.126
    1AU       S  224   3.989   4.739   6.335
    1AU     LIG  225   3.965   4.431   5.991
    1AU     LIG  226   3.718   4.252   5.624
    1AU    AUSL  227   4.602   5.071   6.229
    1AU    AUSL  228   4.754   4.536   6.293
    1AU     AUL  229   4.462   4.654   6.219
    1AU       S  230   4.571   4.308   6.510
    1AU     LIG  231   4.189   4.118   6.409
    1AU     LIG  232   3.970   3.785   6.659
    1AU       S  233   4.156   4.962   6.385
    1AU     LIG  234   3.700   5.160   6.371
    1AU     LIG  235   3.296   4.919   6.375
    1AU    AUSL  236   5.227   5.989   6.440
    1AU    AUSL  237   4.791   5.955   6.404
    1AU     AUL  238   5.065   6.060   6.731
    1AU       S  239   4.641   6.112   6.550
    1AU     LIG  240   4.240   6.281   6.592
    1AU     LIG  241   4.037   6.456   6.942
    1AU       S  242   5.209   6.444   6.449
    1AU     LIG  243   5.392   6.793   6.719
    1AU     LIG  244   5.390   7.258   6.800
    1AU    AUSL  245   5.008   6.181   6.109
    1AU    AUSL  246   5.351   6.212   5.733
    1AU     AUL  247   5.074   6.453   5.886
    1AU       S  248   5.343   6.666   6.236
    1AU     LIG  249   5.155   7.059   6.343
    1AU     LIG  250   4.863   7.125   6.679
    1AU       S  251   5.281   6.416   5.438
    1AU     LIG  252   5.403   6.793   5.679
    1AU     LIG  253   5.704   7.170   5.596
    1AU    AUSL  254   5.482   6.178   6.136
    1AU    AUSL  255   5.513   5.880   6.735
    1AU     AUL  256   5.576   6.149   6.517
    1AU       S  257   5.707   5.976   6.959
    1AU     LIG  258   6.021   5.906   7.304
    1AU     LIG  259   6.397   6.169   7.249
    1AU       S  260   5.482   6.435   6.156
    1AU     LIG  261   5.812   6.681   6.404
    1AU     LIG  262   5.790   7.148   6.480
    1AU    AUSL  263   5.371   4.586   6.539
    1AU    AUSL  264   5.718   4.679   6.226
    1AU     AUL  265   5.628   4.399   6.545
    1AU       S  266   4.966   3.997   6.559
    1AU     LIG  267   4.965   3.633   6.827
    1AU     LIG  268   5.162   3.210   6.985
    1AU       S  269   6.002   4.449   6.238
    1AU     LIG  270   6.223   4.001   6.463
    1AU     LIG  271   6.529   3.885   6.798
    1AU    AUSL  272   5.153   4.492   6.177
    1AU    AUSL  273   5.035   4.834   6.473
    1AU     AUL  274   5.025   4.480   6.574
    1AU       S  275   4.971   4.093   6.285
    1AU     LIG  276   4.999   3.588   6.299
    1AU     LIG  277   4.879   3.223   6.553
    1AU       S  278   4.573   4.313   6.752
    1AU     LIG  279   4.375   3.964   6.935
    1AU     LIG  280   4.121   4.021   7.324
    1AU    AUSL  281   5.540   4.333   6.070
    1AU    AUSL  282   5.022   4.467   5.776
    1AU     AUL  283   5.249   4.203   5.927
    1AU       S  284   4.770   4.234   5.841
    1AU     LIG  285   4.696   3.748   5.937
    1AU     LIG  286   4.808   3.490   5.553
    1AU       S  287   5.244   4.062   6.420
    1AU     LIG  288   5.486   3.734   6.272
    1AU     LIG  289   5.407   3.383   6.555
    1AU    AUSL  290   5.288   5.901   5.433
    1AU    AUSL  291   5.612   5.873   5.753
    1AU     AUL  292   5.655   6.135   5.506
    1AU       S  293   5.281   6.115   5.206
    1AU     LIG  294   5.548   6.508   5.044
    1AU     LIG  295   5.434   6.941   5.188
    1AU       S  296   6.365   5.863   5.366
    1AU     LIG  297   6.334   6.331   5.414
    1AU     LIG  298   6.393   6.693   5.129
    1AU    AUSL  299   5.049   5.897   5.804
    1AU    AUSL  300   4.874   5.889   5.357
    1AU     AUL  301   4.917   6.141   5.566
    1AU       S  302   5.083   6.364   5.172
    1AU     LIG  303   4.905   6.742   5.417
    1AU     LIG  304   5.062   7.184   5.517
    1AU       S  305   4.598   5.989   5.234
    1AU     LIG  306   4.547   6.233   4.867
    1AU     LIG  307   4.395   6.650   4.720
    1AU    AUSL  308   5.246   4.570   5.403
    1AU    AUSL  309   4.699   4.612   5.537
    1AU     AUL  310   4.964   4.455   5.389
    1AU       S  311   4.502   4.612   5.356
    1AU     LIG  312   4.209   4.260   5.451
    1AU     LIG  313   3.931   3.892   5.280
    1AU       S  314   4.673   4.106   5.575
    1AU     LIG  315   4.725   3.827   5.182
    1AU     LIG  316   4.896   3.455   4.959
    1AU    AUSL  317   5.424   4.656   5.809
    1AU    AUSL  318   5.653   4.680   5.395
    1AU     AUL  319   5.512   4.370   5.566
    1AU       S  320   4.933   4.008   5.603
    1AU     LIG  321   5.218   3.674   5.772
    1AU     LIG  322   5.257   3.261   5.511
    1AU       S  323   5.863   4.528   5.276
    1AU     LIG  324   5.932   4.250   4.892
    1AU     LIG  325   6.152   3.892   4.648
    2POPC   NC3  326   3.254   8.616   8.125
    2POPC   PO4  327   3.901   8.417   8.196
    2POPC   GL1  328   3.740   8.764   7.782
    2POPC   GL2  329   3.396   8.800   7.683
    2POPC   C1A  330   3.731   8.741   7.284
    2POPC   D2A  331   3.784   8.498   6.922
    2POPC   C3A  332   3.502   8.450   6.583
    2POPC   C4A  333   3.556   8.599   6.212
    2POPC   C1B  334   3.219   8.666   7.326
    2POPC   C2B  335   3.308   8.756   6.940
    2POPC   C3B  336   3.130   8.781   6.558
    2POPC   C4B  337   3.172   8.926   6.140
    3POPC   NC3  338   1.179   5.029   8.133
    3POPC   PO4  339   0.567   4.662   8.171
    3POPC   GL1  340   0.905   4.781   7.767
    3POPC   GL2  341   1.085   5.100   7.659
    3POPC   C1A  342   1.120   4.698   7.351
    3POPC   D2A  343   0.950   4.822   6.940
    3POPC   C3A  344   1.054   4.612   6.551
    3POPC   C4A  345   1.106   4.791   6.133
    3POPC   C1B  346   1.355   5.167   7.329
    3POPC   C2B  347   1.454   5.044   6.936
    3POPC   C3B  348   1.271   5.055   6.572
    3POPC   C4B  349   1.392   5.195   6.210
    4POPC   NC3  350   9.323   1.909   8.103
    4POPC   PO4  351   8.851   2.271   7.836
    4POPC   GL1  352   9.170   2.021   7.607
    4POPC   GL2  353   9.490   1.830   7.638
    4POPC   C1A  354   9.294   2.091   7.205
    4POPC   D2A  355   9.260   1.879   6.836
    4POPC   C3A  356   9.451   2.067   6.505
    4POPC   C4A  357   9.639   2.260   6.151
    4POPC   C1B  358   9.471   1.620   7.242
    4POPC   C2B  359   9.720   1.682   6.909
    4POPC   C3B  360   9.730   1.621   6.486
    4POPC   C4B  361   9.954   1.401   6.201
    5POPC   NC3  362   0.205   7.824   8.371
    5POPC   PO4  363   0.064   7.367   8.011
    5POPC   GL1  364   0.210   7.613   7.606
    5POPC   GL2  365   0.260   7.967   7.502
    5POPC   C1A  366   0.378   7.598   7.167
    5POPC   D2A  367   0.583   7.784   6.804
    5POPC   C3A  368   0.554   7.676   6.347
    5POPC   C4A  369   0.224   7.731   5.989
    5POPC   C1B  370   0.331   8.325   7.280
    5POPC   C2B  371   0.438   8.278   6.880
    5POPC   C3B  372   0.269   8.071   6.536
    5POPC   C4B  373   0.388   8.152   6.165
    6POPC   NC3  374   2.965   1.541   8.165
    6POPC   PO4  375   3.608   1.716   8.230
    6POPC   GL1  376   3.615   1.473   7.865
    6POPC   GL2  377   3.609   1.102   7.848
    6POPC   C1A  378   3.512   1.515   7.459
    6POPC   D2A  379   3.532   1.690   7.057
    6POPC   C3A  380   3.677   1.530   6.651
    6POPC   C4A  381   3.488   1.477   6.236
    6POPC   C1B  382   3.396   1.020   7.439
    6POPC   C2B  383   3.529   1.179   7.019
    6POPC   C3B  384   3.398   1.077   6.583
    6POPC   C4B  385   3.569   0.999   6.164
    7POPC   NC3  386   8.460   9.265   8.157
    7POPC   PO4  387   8.970   9.657   8.369
    7POPC   GL1  388   8.876   9.609   7.796
    7POPC   GL2  389   8.663   9.356   7.667
    7POPC   C1A  390   8.842   9.698   7.346
    7POPC   D2A  391   8.647   9.676   6.940
    7POPC   C3A  392   8.732   9.388   6.624
    7POPC   C4A  393   8.674   9.561   6.235
    7POPC   C1B  394   8.438   9.206   7.319
    7POPC   C2B  395   8.390   9.058   6.899
    7POPC   C3B  396   8.230   9.183   6.523
    7POPC   C4B  397   8.291   9.296   6.093
    8POPC   NC3  398   6.207   0.417   8.184
    8POPC   PO4  399   6.722  10.501   8.028
    8POPC   GL1  400   6.632   0.218   7.633
    8POPC   GL2  401   6.374   0.456   7.708
    8POPC   C1A  402   6.534   0.460   7.222
    8POPC   D2A  403   6.349   0.725   6.893
    8POPC   C3A  404   6.512   0.708   6.483
    8POPC   C4A  405   6.739   0.544   6.127
    8POPC   C1B  406   6.213   0.085   7.416
    8POPC   C2B  407   6.346  10.466   7.002
    8POPC   C3B  408   6.411   0.221   6.638
    8POPC   C4B  409   6.285   0.290   6.212
    9POPC   NC3  410   8.948   4.657   8.158
    9POPC   PO4  411   8.590   5.206   7.964
    9POPC   GL1  412   8.886   5.062   7.693
    9POPC   GL2  413   8.734   4.743   7.680
    9POPC   C1A  414   8.898   5.176   7.261
    9POPC   D2A  415   8.712   5.043   6.873
    9POPC   C3A  416   8.726   4.859   6.494
    9POPC   C4A  417   8.829   4.967   6.096
    9POPC   C1B  418   8.560   4.790   7.284
    9POPC   C2B  419   8.322   4.721   6.895
    9POPC   C3B  420   8.323   4.552   6.462
    9POPC   C4B  421   8.401   4.666   6.001
   10POPC   NC3  422   4.410   9.378   7.970
   10POPC   PO4  423   3.792   9.408   8.269
   10POPC   GL1  424   3.963   9.509   7.739
   10POPC   GL2  425   4.270   9.527   7.514
   10POPC   C1A  426   3.866   9.596   7.253
   10POPC   D2A  427   4.076   9.468   6.869
   10POPC   C3A  428   3.796   9.488   6.508
   10POPC   C4A  429   3.955   9.483   6.038
   10POPC   C1B  430   4.472   9.225   7.206
   10POPC   C2B  431   4.616   8.994   6.867
   10POPC   C3B  432   4.478   8.850   6.489
   10POPC   C4B  433   4.223   9.237   6.405
   11POPC   NC3  434   9.910   5.546   8.331
   11POPC   PO4  435   9.754   5.264   7.782
   11POPC   GL1  436   9.914   5.410   7.470
   11POPC   GL2  437  10.177   5.574   7.681
   11POPC   C1A  438   9.758   5.207   7.100
   11POPC   D2A  439   9.687   5.499   6.803
   11POPC   C3A  440   9.644   5.418   6.386
   11POPC   C4A  441   9.841   5.645   6.076
   11POPC   C1B  442  10.314   5.743   7.308
   11POPC   C2B  443  10.091   5.891   6.936
   11POPC   C3B  444  10.083   5.745   6.524
   11POPC   C4B  445  10.299   5.864   6.140
   12POPC   NC3  446   6.349   1.569   8.248
   12POPC   PO4  447   6.014   2.112   8.271
   12POPC   GL1  448   6.335   1.878   7.857
   12POPC   GL2  449   6.539   2.116   7.684
   12POPC   C1A  450   6.258   1.646   7.409
   12POPC   D2A  451   6.464   1.644   6.967
   12POPC   C3A  452   6.239   1.575   6.560
   12POPC   C4A  453   6.281   1.675   6.125
   12POPC   C1B  454   6.375   2.105   7.245
   12POPC   C2B  455   6.616   2.139   6.871
   12POPC   C3B  456   6.571   1.947   6.492
   12POPC   C4B  457   6.622   2.033   6.069
   13POPC   NC3  458   1.439   0.910   8.048
   13POPC   PO4  459   2.091   0.868   8.044
   13POPC   GL1  460   1.944   1.077   7.663
   13POPC   GL2  461   2.271   1.224   7.656
   13POPC   C1A  462   1.733   1.068   7.273
   13POPC   D2A  463   1.655   0.851   6.853
   13POPC   C3A  464   1.917   0.864   6.456
   13POPC   C4A  465   1.735   0.819   6.012
   13POPC   C1B  466   2.144   1.413   7.274
   13POPC   C2B  467   1.984   1.262   6.872
   13POPC   C3B  468   1.757   1.334   6.499
   13POPC   C4B  469   1.997   1.234   6.113
   14POPC   NC3  470   7.150   2.065   8.069
   14POPC   PO4  471   6.789   1.492   8.155
   14POPC   GL1  472   6.870   1.709   7.746
   14POPC   GL2  473   7.215   1.730   7.626
   14POPC   C1A  474   6.837   1.860   7.287
   14POPC   D2A  475   6.968   1.777   6.843
   14POPC   C3A  476   7.046   2.116   6.524
   14POPC   C4A  477   7.040   1.834   6.249
   14POPC   C1B  478   7.355   1.727   7.184
   14POPC   C2B  479   7.586   1.542   6.834
   14POPC   C3B  480   7.503   1.751   6.447
   14POPC   C4B  481   7.494   2.109   6.203
   15POPC   NC3  482   6.319   9.185   8.027
   15POPC   PO4  483   6.817   9.563   8.141
   15POPC   GL1  484   6.595   9.568   7.717
   15POPC   GL2  485   6.383   9.348   7.553
   15POPC   C1A  486   6.524   9.768   7.305
   15POPC   D2A  487   6.490   9.574   6.896
   15POPC   C3A  488   6.537   9.804   6.516
   15POPC   C4A  489   6.509   9.757   6.063
   15POPC   C1B  490   6.177   9.216   7.182
   15POPC   C2B  491   6.041   9.337   6.770
   15POPC   C3B  492   6.267   9.323   6.389
   15POPC   C4B  493   6.188   9.359   5.941
   16POPC   NC3  494   9.571   3.192   8.120
   16POPC   PO4  495   9.903   3.821   8.046
   16POPC   GL1  496   9.650   3.563   7.775
   16POPC   GL2  497   9.312   3.593   7.718
   16POPC   C1A  498   9.660   3.355   7.368
   16POPC   D2A  499   9.547   3.539   6.945
   16POPC   C3A  500   9.782   3.537   6.544
   16POPC   C4A  501   9.606   3.543   6.110
   16POPC   C1B  502   9.173   3.365   7.326
   16POPC   C2B  503   9.041   3.469   6.906
   16POPC   C3B  504   9.257   3.466   6.508
   16POPC   C4B  505   9.195   3.207   6.140
   17POPC   NC3  506   0.504   5.746   8.309
   17POPC   PO4  507  10.366   5.534   8.199
   17POPC   GL1  508   0.182   5.497   7.808
   17POPC   GL2  509   0.505   5.725   7.792
   17POPC   C1A  510   0.300   5.457   7.327
   17POPC   D2A  511   0.136   5.674   6.922
   17POPC   C3A  512   0.185   5.840   6.501
   17POPC   C4A  513   0.185   5.523   6.195
   17POPC   C1B  514   0.629   5.883   7.372
   17POPC   C2B  515   0.653   5.679   6.960
   17POPC   C3B  516   0.585   5.537   6.530
   17POPC   C4B  517   0.607   5.786   6.144
   18POPC   NC3  518  10.125   0.537   8.147
   18POPC   PO4  519   9.594   0.170   8.099
   18POPC   GL1  520   9.955   0.172   7.782
   18POPC   GL2  521  10.178   0.456   7.634
   18POPC   C1A  522   9.870   0.169   7.328
   18POPC   D2A  523  10.090   0.362   7.016
   18POPC   C3A  524  10.121   0.530   6.630
   18POPC   C4A  525  10.192   0.404   6.230
   18POPC   C1B  526   0.010   0.464   7.276
   18POPC   C2B  527   0.161   0.604   6.847
   18POPC   C3B  528   0.022   0.771   6.429
   18POPC   C4B  529  10.481   0.732   5.943
   19POPC   NC3  530   1.495  10.423   8.077
   19POPC   PO4  531   2.200  10.275   8.011
   19POPC   GL1  532   1.837  10.255   7.685
   19POPC   GL2  533   1.740   9.912   7.554
   19POPC   C1A  534   1.636  10.332   7.261
   19POPC   D2A  535   1.496  10.219   6.856
   19POPC   C3A  536   1.768  10.455   6.554
   19POPC   C4A  537   1.621  10.467   6.131
   19POPC   C1B  538   2.017   9.987   7.239
   19POPC   C2B  539   1.903   9.957   6.827
   19POPC   C3B  540   1.702  10.006   6.383
   19POPC   C4B  541   2.048   9.882   6.103
   20POPC   NC3  542   0.539   6.721   8.239
   20POPC   PO4  543   0.830   6.051   8.164
   20POPC   GL1  544   0.681   6.262   7.766
   20POPC   GL2  545   0.359   6.452   7.757
   20POPC   C1A  546   0.655   6.418   7.329
   20POPC   D2A  547   0.456   6.530   6.948
   20POPC   C3A  548   0.644   6.519   6.559
   20POPC   C4A  549   0.468   6.269   6.226
   20POPC   C1B  550   0.151   6.636   7.365
   20POPC   C2B  551   0.047   6.837   6.966
   20POPC   C3B  552   0.116   6.687   6.580
   20POPC   C4B  553   0.317   6.768   6.204
   21POPC   NC3  554   2.411   2.045   8.087
   21POPC   PO4  555   2.504   1.420   8.072
   21POPC   GL1  556   2.686   1.684   7.753
   21POPC   GL2  557   2.738   2.060   7.674
   21POPC   C1A  558   2.623   1.629   7.340
   21POPC   D2A  559   2.798   1.794   6.986
   21POPC   C3A  560   2.631   1.715   6.591
   21POPC   C4A  561   2.542   1.514   6.223
   21POPC   C1B  562   2.484   2.107   7.292
   21POPC   C2B  563   2.354   2.072   6.865
   21POPC   C3B  564   2.425   2.165   6.442
   21POPC   C4B  565   2.828   2.102   6.284
   22POPC   NC3  566   9.133   0.072   8.130
   22POPC   PO4  567   9.218   9.969   7.933
   22POPC   GL1  568   9.366  10.349   7.718
   22POPC   GL2  569   9.691  10.276   7.583
   22POPC   C1A  570   9.375   0.034   7.300
   22POPC   D2A  571   9.498  10.373   6.889
   22POPC   C3A  572   9.163  10.381   6.567
   22POPC   C4A  573   9.030   0.067   6.168
   22POPC   C1B  574   9.569   9.997   7.292
   22POPC   C2B  575   9.668   9.859   6.884
   22POPC   C3B  576   9.525   9.998   6.547
   22POPC   C4B  577   9.699  10.353   6.309
   23POPC   NC3  578   9.672   8.533   8.053
   23POPC   PO4  579   9.119   8.301   7.815
   23POPC   GL1  580   9.431   8.565   7.610
   23POPC   GL2  581   9.408   8.900   7.753
   23POPC   C1A  582   9.676   8.536   7.244
   23POPC   D2A  583   9.543   8.498   6.872
   23POPC   C3A  584   9.809   8.464   6.578
   23POPC   C4A  585   9.694   8.360   6.205
   23POPC   C1B  586   9.617   9.023   7.378
   23POPC   C2B  587   9.491   8.997   6.964
   23POPC   C3B  588   9.635   8.948   6.542
   23POPC   C4B  589   9.368   8.791   6.239
   24POPC   NC3  590   5.522   2.089   8.264
   24POPC   PO4  591   6.043   2.287   7.770
   24POPC   GL1  592   5.698   2.385   7.555
   24POPC   GL2  593   5.645   2.738   7.597
   24POPC   C1A  594   5.728   2.484   7.124
   24POPC   D2A  595   5.718   2.321   6.743
   24POPC   C3A  596   5.760   2.539   6.393
   24POPC   C4A  597   5.558   2.735   6.010
   24POPC   C1B  598   5.607   2.979   7.191
   24POPC   C2B  599   5.507   2.854   6.757
   24POPC   C3B  600   5.745   3.046   6.402
   24POPC   C4B  601   6.003   3.088   6.047
   25POPC   NC3  602   7.428   4.191   8.054
   25POPC   PO4  603   6.943   3.832   7.935
   25POPC   GL1  604   7.235   3.884   7.603
   25POPC   GL2  605   7.143   4.223   7.621
   25POPC   C1A  606   7.457   4.152   7.249
   25POPC   D2A  607   7.481   4.363   6.839
   25POPC   C3A  608   7.407   4.085   6.490
   25POPC   C4A  609   7.178   4.085   6.085
   25POPC   C1B  610   6.950   4.053   7.204
   25POPC   C2B  611   6.960   4.147   6.753
   25POPC   C3B  612   6.739   4.208   6.345
   25POPC   C4B  613   6.871   4.507   6.043
   26POPC   NC3  614   2.658   9.996   7.974
   26POPC   PO4  615   3.123   0.061   8.201
   26POPC   GL1  616   3.007  10.386   7.818
   26POPC   GL2  617   2.648  10.460   7.768
   26POPC   C1A  618   2.982  10.310   7.372
   26POPC   D2A  619   3.136  10.207   6.977
   26POPC   C3A  620   2.838  10.206   6.687
   26POPC   C4A  621   2.658  10.389   6.362
   26POPC   C1B  622   2.437  10.282   7.375
   26POPC   C2B  623   2.408  10.120   6.938
   26POPC   C3B  624   2.246  10.130   6.516
   26POPC   C4B  625   2.483   9.851   6.338
   27POPC   NC3  626   1.029   0.253   8.119
   27POPC   PO4  627   0.957   0.947   8.021
   27POPC   GL1  628   1.153   0.611   7.723
   27POPC   GL2  629   1.239   0.285   7.675
   27POPC   C1A  630   0.976   0.465   7.302
   27POPC   D2A  631   1.092   0.485   6.853
   27POPC   C3A  632   0.908   0.278   6.474
   27POPC   C4A  633   0.875   0.520   6.073
   27POPC   C1B  634   1.487   0.342   7.314
   27POPC   C2B  635   1.501   0.208   6.921
   27POPC   C3B  636   1.421   0.328   6.499
   27POPC   C4B  637   1.403   0.426   6.084
   28POPC   NC3  638   4.429  10.265   8.077
   28POPC   PO4  639   3.867   9.963   7.905
   28POPC   GL1  640   4.043  10.021   7.544
   28POPC   GL2  641   4.186  10.331   7.628
   28POPC   C1A  642   3.981  10.173   7.125
   28POPC   D2A  643   3.892   9.940   6.738
   28POPC   C3A  644   4.205   9.817   6.400
   28POPC   C4A  645   4.194   9.924   5.929
   28POPC   C1B  646   4.472  10.172   7.299
   28POPC   C2B  647   4.494  10.201   6.853
   28POPC   C3B  648   4.202  10.337   6.550
   28POPC   C4B  649   4.258  10.387   6.137
   29POPC   NC3  650   8.101   1.769   7.984
   29POPC   PO4  651   8.615   1.872   8.197
   29POPC   GL1  652   8.554   1.867   7.735
   29POPC   GL2  653   8.840   1.670   7.702
   29POPC   C1A  654   8.460   2.034   7.300
   29POPC   D2A  655   8.304   2.197   6.873
   29POPC   C3A  656   8.470   2.037   6.470
   29POPC   C4A  657   8.540   2.009   6.006
   29POPC   C1B  658   8.950   1.706   7.273
   29POPC   C2B  659   8.748   1.873   6.904
   29POPC   C3B  660   8.902   1.772   6.496
   29POPC   C4B  661   9.006   2.127   6.271
   30POPC   NC3  662   3.317   4.118   7.935
   30POPC   PO4  663   3.799   3.708   8.096
   30POPC   GL1  664   3.703   3.844   7.616
   30POPC   GL2  665   3.361   3.921   7.465
   30POPC   C1A  666   3.718   3.787   7.125
   30POPC   D2A  667   3.501   4.074   6.807
   30POPC   C3A  668   3.682   4.157   6.403
   30POPC   C4A  669   3.765   3.946   6.025
   30POPC   C1B  670   3.158   4.327   7.306
   30POPC   C2B  671   3.166   4.547   6.882
   30POPC   C3B  672   3.225   4.390   6.459
   30POPC   C4B  673   3.445   4.506   6.071
   31POPC   NC3  674   3.623   1.227   8.343
   31POPC   PO4  675   4.294   1.401   8.147
   31POPC   GL1  676   4.131   1.310   7.764
   31POPC   GL2  677   4.295   0.969   7.744
   31POPC   C1A  678   3.892   1.126   7.418
   31POPC   D2A  679   3.922   0.829   7.064
   31POPC   C3A  680   3.901   1.009   6.641
   31POPC   C4A  681   3.956   1.287   6.284
   31POPC   C1B  682   4.396   1.152   7.334
   31POPC   C2B  683   4.462   1.001   6.925
   31POPC   C3B  684   4.394   1.114   6.528
   31POPC   C4B  685   4.258   0.878   6.240
   32POPC   NC3  686   1.995   9.169   8.179
   32POPC   PO4  687   2.169   8.516   8.177
   32POPC   GL1  688   1.882   8.634   7.830
   32POPC   GL2  689   1.627   8.904   7.884
   32POPC   C1A  690   1.830   8.523   7.376
   32POPC   D2A  691   2.044   8.348   7.015
   32POPC   C3A  692   1.997   8.580   6.649
   32POPC   C4A  693   2.285   8.833   6.407
   32POPC   C1B  694   1.605   8.986   7.424
   32POPC   C2B  695   1.668   8.878   6.991
   32POPC   C3B  696   1.502   8.782   6.574
   32POPC   C4B  697   1.742   8.680   6.217
   33POPC   NC3  698   0.216   5.007   8.085
   33POPC   PO4  699   0.777   5.387   8.142
   33POPC   GL1  700   0.597   5.206   7.740
   33POPC   GL2  701   0.418   4.894   7.658
   33POPC   C1A  702   0.730   5.123   7.305
   33POPC   D2A  703   0.555   5.172   6.894
   33POPC   C3A  704   0.758   5.046   6.502
   33POPC   C4A  705   0.633   4.993   6.065
   33POPC   C1B  706   0.257   4.912   7.262
   33POPC   C2B  707   0.105   4.953   6.850
   33POPC   C3B  708   0.229   4.970   6.405
   33POPC   C4B  709   0.270   4.622   6.080
   34POPC   NC3  710   9.950   4.923   8.017
   34POPC   PO4  711   0.058   4.580   7.968
   34POPC   GL1  712  10.327   4.752   7.687
   34POPC   GL2  713  10.345   5.094   7.734
   34POPC   C1A  714  10.294   4.673   7.274
   34POPC   D2A  715  10.114   4.876   6.939
   34POPC   C3A  716  10.235   4.765   6.534
   34POPC   C4A  717  10.314   4.853   6.113
   34POPC   C1B  718  10.337   5.196   7.311
   34POPC   C2B  719  10.218   5.383   6.947
   34POPC   C3B  720  10.402   5.344   6.580
   34POPC   C4B  721  10.108   5.255   6.326
   35POPC   NC3  722   7.876   0.974   8.422
   35POPC   PO4  723   8.106   0.444   8.060
   35POPC   GL1  724   8.186   0.451   7.617
   35POPC   GL2  725   7.826   0.531   7.594
   35POPC   C1A  726   8.121   0.469   7.153
   35POPC   D2A  727   8.237   0.732   6.794
   35POPC   C3A  728   8.104   0.675   6.341
   35POPC   C4A  729   8.305   0.533   5.925
   35POPC   C1B  730   7.791   0.141   7.385
   35POPC   C2B  731   7.772  10.464   6.976
   35POPC   C3B  732   7.696   0.012   6.547
   35POPC   C4B  733   7.765   0.288   6.167
   36POPC   NC3  734   8.126   5.785   8.592
   36POPC   PO4  735   8.019   5.380   8.101
   36POPC   GL1  736   8.108   5.467   7.675
   36POPC   GL2  737   8.106   5.823   7.712
   36POPC   C1A  738   7.922   5.511   7.251
   36POPC   D2A  739   7.651   5.306   6.917
   36POPC   C3A  740   7.768   5.342   6.486
   36POPC   C4A  741   8.098   5.558   6.358
   36POPC   C1B  742   8.085   5.999   7.311
   36POPC   C2B  743   7.789   5.939   6.972
   36POPC   C3B  744   7.907   5.990   6.554
   36POPC   C4B  745   7.741   5.950   6.150
   37POPC   NC3  746   8.575   0.471   8.151
   37POPC   PO4  747   8.958   0.961   7.969
   37POPC   GL1  748   8.703   0.687   7.649
   37POPC   GL2  749   8.719   0.323   7.655
   37POPC   C1A  750   8.634   0.513   7.203
   37POPC   D2A  751   8.755   0.281   6.849
   37POPC   C3A  752   8.609   0.482   6.475
   37POPC   C4A  753   8.812   0.546   6.095
   37POPC   C1B  754   8.469   0.062   7.371
   37POPC   C2B  755   8.304   0.003   6.972
   37POPC   C3B  756   8.149   0.240   6.656
   37POPC   C4B  757   8.241   0.180   6.255
   38POPC   NC3  758   3.275   7.100   8.061
   38POPC   PO4  759   2.626   6.961   8.108
   38POPC   GL1  760   2.875   7.038   7.703
   38POPC   GL2  761   2.941   7.409   7.740
   38POPC   C1A  762   2.799   6.902   7.241
   38POPC   D2A  763   2.622   6.836   6.825
   38POPC   C3A  764   2.858   6.877   6.441
   38POPC   C4A  765   2.887   7.193   6.111
   38POPC   C1B  766   2.700   7.388   7.332
   38POPC   C2B  767   2.597   7.453   6.900
   38POPC   C3B  768   2.492   7.249   6.520
   38POPC   C4B  769   2.492   7.519   6.196
   39POPC   NC3  770   4.712   8.597   8.025
   39POPC   PO4  771   5.386   8.636   8.115
   39POPC   GL1  772   5.144   8.821   7.788
   39POPC   GL2  773   5.100   8.524   7.594
   39POPC   C1A  774   5.048   8.984   7.356
   39POPC   D2A  775   5.042   8.739   6.972
   39POPC   C3A  776   5.025   8.932   6.569
   39POPC   C4A  777   5.216   9.095   6.190
   39POPC   C1B  778   4.714   8.587   7.317
   39POPC   C2B  779   4.607   8.481   6.885
   39POPC   C3B  780   4.881   8.433   6.582
   39POPC   C4B  781   4.882   8.414   6.186
   40POPC   NC3  782   5.846   1.904   7.885
   40POPC   PO4  783   5.240   1.725   8.139
   40POPC   GL1  784   5.364   2.030   7.775
   40POPC   GL2  785   5.482   1.782   7.562
   40POPC   C1A  786   5.345   2.146   7.276
   40POPC   D2A  787   5.455   1.883   6.909
   40POPC   C3A  788   5.422   2.017   6.475
   40POPC   C4A  789   5.507   1.736   6.158
   40POPC   C1B  790   5.845   1.972   7.234
   40POPC   C2B  791   6.108   2.016   6.811
   40POPC   C3B  792   5.938   1.973   6.373
   40POPC   C4B  793   5.699   2.181   6.034
   41POPC   NC3  794   0.344   2.117   8.075
   41POPC   PO4  795   0.681   1.577   8.130
   41POPC   GL1  796   0.528   1.756   7.703
   41POPC   GL2  797   0.598   2.110   7.623
   41POPC   C1A  798   0.505   1.821   7.230
   41POPC   D2A  799   0.727   2.004   6.937
   41POPC   C3A  800   0.562   2.066   6.574
   41POPC   C4A  801   0.682   1.845   6.233
   41POPC   C1B  802   0.199   2.258   7.406
   41POPC   C2B  803   0.131   2.435   6.982
   41POPC   C3B  804   0.046   2.326   6.550
   41POPC   C4B  805   0.200   2.063   6.224
   42POPC   NC3  806   6.036   1.018   7.919
   42POPC   PO4  807   6.581   0.713   8.147
   42POPC   GL1  808   6.526   0.962   7.777
   42POPC   GL2  809   6.437   1.334   7.792
   42POPC   C1A  810   6.386   0.955   7.355
   42POPC   D2A  811   6.198   1.213   7.050
   42POPC   C3A  812   6.108   1.097   6.618
   42POPC   C4A  813   6.320   1.122   6.219
   42POPC   C1B  814   6.688   1.369   7.416
   42POPC   C2B  815   6.741   1.186   7.045
   42POPC   C3B  816   6.605   1.207   6.665
   42POPC   C4B  817   6.695   1.471   6.328
   43POPC   NC3  818   1.326   1.934   8.138
   43POPC   PO4  819   1.454   2.602   8.225
   43POPC   GL1  820   1.431   2.366   7.766
   43POPC   GL2  821   1.238   2.034   7.648
   43POPC   C1A  822   1.482   2.224   7.273
   43POPC   D2A  823   1.520   1.980   6.868
   43POPC   C3A  824   1.456   2.224   6.474
   43POPC   C4A  825   1.473   2.167   6.014
   43POPC   C1B  826   1.027   1.794   7.335
   43POPC   C2B  827   1.115   1.655   6.941
   43POPC   C3B  828   1.074   1.878   6.572
   43POPC   C4B  829   1.307   1.741   6.253
   44POPC   NC3  830   2.598   4.046   8.100
   44POPC   PO4  831   3.136   3.689   7.929
   44POPC   GL1  832   2.887   3.917   7.656
   44POPC   GL2  833   2.708   4.210   7.624
   44POPC   C1A  834   2.888   3.893   7.232
   44POPC   D2A  835   2.804   4.201   6.953
   44POPC   C3A  836   2.805   4.102   6.556
   44POPC   C4A  837   2.859   4.170   6.132
   44POPC   C1B  838   2.410   4.085   7.267
   44POPC   C2B  839   2.321   4.308   6.833
   44POPC   C3B  840   2.370   4.289   6.360
   44POPC   C4B  841   2.488   4.469   5.960
   45POPC   NC3  842   8.442   7.982   8.156
   45POPC   PO4  843   9.021   8.231   8.342
   45POPC   GL1  844   8.840   7.905   7.882
   45POPC   GL2  845   8.564   7.978   7.662
   45POPC   C1A  846   8.998   7.764   7.433
   45POPC   D2A  847   9.047   7.915   6.994
   45POPC   C3A  848   8.973   7.802   6.561
   45POPC   C4A  849   9.014   7.551   6.176
   45POPC   C1B  850   8.646   8.147   7.262
   45POPC   C2B  851   8.578   8.039   6.854
   45POPC   C3B  852   8.585   8.188   6.468
   45POPC   C4B  853   8.696   7.959   6.146
   46POPC   NC3  854   9.821  10.246   8.054
   46POPC   PO4  855  10.406   0.140   8.072
   46POPC   GL1  856  10.450  10.416   7.733
   46POPC   GL2  857  10.282  10.095   7.793
   46POPC   C1A  858  10.346  10.490   7.322
   46POPC   D2A  859   0.017   0.098   6.905
   46POPC   C3A  860  10.252   0.036   6.576
   46POPC   C4A  861  10.308  10.388   6.156
   46POPC   C1B  862  10.092  10.029   7.387
   46POPC   C2B  863   9.987  10.251   7.006
   46POPC   C3B  864  10.035  10.082   6.593
   46POPC   C4B  865  10.079   9.948   6.196
   47POPC   NC3  866   0.935   4.388   8.061
   47POPC   PO4  867   1.442   4.351   8.487
   47POPC   GL1  868   1.328   4.138   7.892
   47POPC   GL2  869   1.061   3.896   7.773
   47POPC   C1A  870   1.433   4.264   7.394
   47POPC   D2A  871   1.406   4.516   6.959
   47POPC   C3A  872   1.401   4.236   6.563
   47POPC   C4A  873   1.505   4.233   6.101
   47POPC   C1B  874   0.934   4.143   7.407
   47POPC   C2B  875   0.935   4.306   6.986
   47POPC   C3B  876   0.891   4.135   6.569
   47POPC   C4B  877   1.044   4.016   6.175
   48POPC   NC3  878   2.188   0.376   8.046
   48POPC   PO4  879   1.479   0.395   8.105
   48POPC   GL1  880   1.748   0.295   7.761
   48POPC   GL2  881   1.682   0.642   7.664
   48POPC   C1A  882   2.025   0.152   7.404
   48POPC   D2A  883   2.044  10.468   6.986
   48POPC   C3A  884   2.284   0.117   6.627
   48POPC   C4A  885   2.216   0.051   6.169
   48POPC   C1B  886   2.070   0.664   7.401
   48POPC   C2B  887   2.223   0.475   7.025
   48POPC   C3B  888   1.909   0.425   6.721
   48POPC   C4B  889   1.882   0.397   6.291
   49POPC   NC3  890   6.911   0.416   8.004
   49POPC   PO4  891   7.356   0.810   8.124
   49POPC   GL1  892   7.324   0.729   7.684
   49POPC   GL2  893   7.334   0.364   7.654
   49POPC   C1A  894   7.389   0.681   7.234
   49POPC   D2A  895   7.345   0.341   6.908
   49POPC   C3A  896   7.602   0.512   6.594
   49POPC   C4A  897   7.583   0.781   6.239
   49POPC   C1B  898   7.014   0.338   7.338
   49POPC   C2B  899   6.840   0.164   6.959
   49POPC   C3B  900   6.906   0.354   6.580
   49POPC   C4B  901   7.221   0.382   6.247
   50POPC   NC3  902   6.862   2.950   8.180
   50POPC   PO4  903   7.558   3.113   8.052
   50POPC   GL1  904   7.478   2.848   7.682
   50POPC   GL2  905   7.294   2.520   7.756
   50POPC   C1A  906   7.461   2.659   7.261
   50POPC   D2A  907   7.065   2.657   7.019
   50POPC   C3A  908   7.069   2.743   6.615
   50POPC   C4A  909   6.916   2.984   6.266
   50POPC   C1B  910   7.183   2.237   7.385
   50POPC   C2B  911   7.247   2.198   6.968
   50POPC   C3B  912   7.461   2.424   6.612
   50POPC   C4B  913   7.299   2.586   6.211
   51POPC   NC3  914   6.862   9.935   8.404
   51POPC   PO4  915   7.281   9.834   7.824
   51POPC   GL1  916   7.145  10.048   7.494
   51POPC   GL2  917   7.083  10.393   7.661
   51POPC   C1A  918   7.046   9.798   7.166
   51POPC   D2A  919   7.196   9.690   6.803
   51POPC   C3A  920   7.063   9.949   6.556
   51POPC   C4A  921   6.929  10.057   6.197
   51POPC   C1B  922   7.327  10.454   7.285
   51POPC   C2B  923   7.180  10.297   6.928
   51POPC   C3B  924   7.190  10.437   6.517
   51POPC   C4B  925   7.412  10.216   6.228
   52POPC   NC3  926  10.174   1.377   8.130
   52POPC   PO4  927   9.866   0.892   7.968
   52POPC   GL1  928  10.084   1.045   7.626
   52POPC   GL2  929  10.177   1.427   7.630
   52POPC   C1A  930  10.116   0.827   7.248
   52POPC   D2A  931  10.289   0.953   6.882
   52POPC   C3A  932   9.990   1.024   6.570
   52POPC   C4A  933  10.093   0.913   6.210
   52POPC   C1B  934  10.286   1.352   7.224
   52POPC   C2B  935  10.153   1.448   6.825
   52POPC   C3B  936  10.393   1.307   6.512
   52POPC   C4B  937   0.006   1.233   6.128
   53POPC   NC3  938   8.737   7.029   8.085
   53POPC   PO4  939   9.153   7.497   8.146
   53POPC   GL1  940   8.797   7.416   7.754
   53POPC   GL2  941   8.663   7.083   7.594
   53POPC   C1A  942   8.560   7.522   7.337
   53POPC   D2A  943   8.753   7.507   6.918
   53POPC   C3A  944   8.502   7.621   6.540
   53POPC   C4A  945   8.512   7.442   6.113
   53POPC   C1B  946   8.325   7.054   7.322
   53POPC   C2B  947   8.342   7.212   6.905
   53POPC   C3B  948   8.525   7.109   6.545
   53POPC   C4B  949   8.716   6.990   6.213
   54POPC   NC3  950   8.864   3.898   8.113
   54POPC   PO4  951   8.501   4.505   8.070
   54POPC   GL1  952   8.525   4.261   7.659
   54POPC   GL2  953   8.823   4.174   7.691
   54POPC   C1A  954   8.491   3.906   7.352
   54POPC   D2A  955   8.433   3.752   6.935
   54POPC   C3A  956   8.485   4.072   6.645
   54POPC   C4A  957   8.515   3.828   6.293
   54POPC   C1B  958   8.923   4.408   7.332
   54POPC   C2B  959   8.786   4.501   6.929
   54POPC   C3B  960   8.907   4.397   6.562
   54POPC   C4B  961   8.700   4.292   6.226
   55POPC   NC3  962   9.465   7.156   8.239
   55POPC   PO4  963   9.072   6.688   8.289
   55POPC   GL1  964   9.186   7.067   7.835
   55POPC   GL2  965   9.500   7.248   7.736
   55POPC   C1A  966   9.109   7.185   7.353
   55POPC   D2A  967   8.918   7.010   6.942
   55POPC   C3A  968   9.040   7.219   6.557
   55POPC   C4A  969   9.216   7.085   6.145
   55POPC   C1B  970   9.633   7.041   7.353
   55POPC   C2B  971   9.455   6.968   6.951
   55POPC   C3B  972   9.544   7.108   6.567
   55POPC   C4B  973   9.815   7.014   6.270
   56POPC   NC3  974  10.156   7.605   8.030
   56POPC   PO4  975  10.463   8.180   8.236
   56POPC   GL1  976  10.356   7.998   7.782
   56POPC   GL2  977  10.045   7.870   7.640
   56POPC   C1A  978  10.363   7.778   7.299
   56POPC   D2A  979   0.052   7.924   6.980
   56POPC   C3A  980  10.303   7.779   6.712
   56POPC   C4A  981  10.352   7.789   6.312
   56POPC   C1B  982   9.889   7.985   7.292
   56POPC   C2B  983  10.002   8.142   6.927
   56POPC   C3B  984   9.872   7.968   6.521
   56POPC   C4B  985   9.808   7.870   6.115
   57POPC   NC3  986   1.523   2.978   8.478
   57POPC   PO4  987   0.941   3.097   8.101
   57POPC   GL1  988   0.997   3.356   7.740
   57POPC   GL2  989   1.372   3.390   7.699
   57POPC   C1A  990   1.023   3.263   7.317
   57POPC   D2A  991   1.278   3.218   6.972
   57POPC   C3A  992   1.048   3.276   6.601
   57POPC   C4A  993   1.174   3.366   6.196
   57POPC   C1B  994   1.291   3.709   7.356
   57POPC   C2B  995   1.103   3.812   6.960
   57POPC   C3B  996   1.246   3.743   6.550
   57POPC   C4B  997   1.542   3.734   6.193
   58POPC   NC3  998  10.336   3.665   8.016
   58POPC   PO4  999  10.000   3.163   8.294
   58POPC   GL1 1000   9.984   3.168   7.787
   58POPC   GL2 1001  10.100   3.453   7.585
   58POPC   C1A 1002  10.025   2.984   7.355
   58POPC   D2A 1003   9.900   3.169   6.948
   58POPC   C3A 1004  10.106   3.120   6.573
   58POPC   C4A 1005  10.010   3.234   6.160
   58POPC   C1B 1006  10.032   3.644   7.187
   58POPC   C2B 1007  10.255   3.565   6.826
   58POPC   C3B 1008  10.254   3.731   6.423
   58POPC   C4B 1009  10.089   3.717   6.022
   59POPC   NC3 1010   7.163   7.819   8.358
   59POPC   PO4 1011   7.235   7.945   7.837
   59POPC   GL1 1012   7.068   7.987   7.533
   59POPC   GL2 1013   6.952   8.335   7.493
   59POPC   C1A 1014   7.143   7.748   7.206
   59POPC   D2A 1015   7.340   7.596   6.879
   59POPC   C3A 1016   7.164   7.674   6.472
   59POPC   C4A 1017   7.309   7.678   6.010
   59POPC   C1B 1018   7.304   8.253   7.200
   59POPC   C2B 1019   7.127   8.096   6.848
   59POPC   C3B 1020   7.178   8.178   6.481
   59POPC   C4B 1021   6.993   8.039   6.126
   60POPC   NC3 1022   2.643   6.502   8.116
   60POPC   PO4 1023   3.027   5.942   8.000
   60POPC   GL1 1024   2.797   6.214   7.661
   60POPC   GL2 1025   2.680   6.561   7.620
   60POPC   C1A 1026   2.897   6.365   7.204
   60POPC   D2A 1027   3.171   6.255   6.828
   60POPC   C3A 1028   3.043   6.382   6.399
   60POPC   C4A 1029   3.060   6.128   5.983
   60POPC   C1B 1030   2.350   6.320   7.376
   60POPC   C2B 1031   2.236   6.228   6.940
   60POPC   C3B 1032   2.437   6.404   6.536
   60POPC   C4B 1033   2.595   6.356   6.110
   61POPC   NC3 1034   8.134   4.213   7.970
   61POPC   PO4 1035   7.667   3.796   8.199
   61POPC   GL1 1036   7.690   3.750   7.775
   61POPC   GL2 1037   7.749   4.065   7.649
   61POPC   C1A 1038   7.729   3.691   7.322
   61POPC   D2A 1039   7.700   3.899   6.900
   61POPC   C3A 1040   8.009   3.889   6.585
   61POPC   C4A 1041   8.118   4.126   6.247
   61POPC   C1B 1042   7.999   4.157   7.259
   61POPC   C2B 1043   8.011   4.328   6.818
   61POPC   C3B 1044   7.792   4.454   6.429
   61POPC   C4B 1045   7.495   4.494   6.091
   62POPC   NC3 1046   0.133   0.513   7.920
   62POPC   PO4 1047   0.610   0.073   8.052
   62POPC   GL1 1048   0.593   0.241   7.661
   62POPC   GL2 1049   0.646   0.579   7.776
   62POPC   C1A 1050   0.415   0.104   7.251
   62POPC   D2A 1051   0.504   0.215   6.797
   62POPC   C3A 1052   0.284   0.009   6.412
   62POPC   C4A 1053   0.580   0.090   6.043
   62POPC   C1B 1054   0.493   0.640   7.353
   62POPC   C2B 1055   0.670   0.715   6.983
   62POPC   C3B 1056   0.664   0.707   6.578
   62POPC   C4B 1057   0.427   0.472   6.340
   63POPC   NC3 1058   0.181   4.438   8.392
   63POPC   PO4 1059   0.294   3.811   8.065
   63POPC   GL1 1060   0.550   4.050   7.754
   63POPC   GL2 1061   0.516   4.391   7.743
   63POPC   C1A 1062   0.420   4.096   7.303
   63POPC   D2A 1063   0.551   3.974   6.911
   63POPC   C3A 1064   0.391   4.070   6.501
   63POPC   C4A 1065   0.529   3.997   6.109
   63POPC   C1B 1066   0.632   4.562   7.343
   63POPC   C2B 1067   0.449   4.515   6.944
   63POPC   C3B 1068   0.540   4.570   6.527
   63POPC   C4B 1069   0.745   4.443   6.160
   64POPC   NC3 1070   4.033   0.657   8.122
   64POPC   PO4 1071   4.017  10.478   8.152
   64POPC   GL1 1072   3.938   0.255   7.792
   64POPC   GL2 1073   4.268   0.415   7.716
   64POPC   C1A 1074   3.918   0.181   7.345
   64POPC   D2A 1075   3.732   0.336   6.971
   64POPC   C3A 1076   3.838   0.240   6.537
   64POPC   C4A 1077   3.831   0.608   6.306
   64POPC   C1B 1078   4.408   0.184   7.342
   64POPC   C2B 1079   4.239   0.191   6.936
   64POPC   C3B 1080   4.193   0.565   6.685
   64POPC   C4B 1081   4.316   0.375   6.306
   65POPC   NC3 1082   5.060   9.508   8.246
   65POPC   PO4 1083   4.713   9.050   8.112
   65POPC   GL1 1084   5.037   9.324   7.774
   65POPC   GL2 1085   5.115   9.704   7.753
   65POPC   C1A 1086   5.227   9.465   7.332
   65POPC   D2A 1087   4.958   9.375   6.978
   65POPC   C3A 1088   5.177   9.419   6.601
   65POPC   C4A 1089   5.077   9.602   6.244
   65POPC   C1B 1090   4.756   9.599   7.437
   65POPC   C2B 1091   4.547   9.712   7.038
   65POPC   C3B 1092   4.671   9.639   6.603
   65POPC   C4B 1093   4.722   9.274   6.343
   66POPC   NC3 1094   2.783   5.029   8.088
   66POPC   PO4 1095   3.007   4.446   8.022
   66POPC   GL1 1096   2.823   4.711   7.688
   66POPC   GL2 1097   2.464   4.760   7.760
   66POPC   C1A 1098   2.707   5.030   7.365
   66POPC   D2A 1099   2.777   5.363   7.083
   66POPC   C3A 1100   2.884   5.127   6.716
   66POPC   C4A 1101   2.848   5.172   6.295
   66POPC   C1B 1102   2.486   4.572   7.331
   66POPC   C2B 1103   2.649   4.703   6.946
   66POPC   C3B 1104   2.596   4.737   6.510
   66POPC   C4B 1105   2.887   4.669   6.198
   67POPC   NC3 1106   8.834   8.567   8.074
   67POPC   PO4 1107   8.948   9.183   8.037
   67POPC   GL1 1108   8.895   8.886   7.661
   67POPC   GL2 1109   8.728   8.538   7.591
   67POPC   C1A 1110   9.119   8.777   7.284
   67POPC   D2A 1111   9.059   8.421   7.034
   67POPC   C3A 1112   9.077   8.551   6.612
   67POPC   C4A 1113   8.984   8.399   6.212
   67POPC   C1B 1114   8.602   8.712   7.229
   67POPC   C2B 1115   8.593   8.570   6.826
   67POPC   C3B 1116   8.618   8.700   6.400
   67POPC   C4B 1117   8.509   8.441   6.005
   68POPC   NC3 1118   5.291   0.397   7.784
   68POPC   PO4 1119   4.915   0.003   8.115
   68POPC   GL1 1120   4.755   0.216   7.749
   68POPC   GL2 1121   4.784   0.578   7.742
   68POPC   C1A 1122   4.890   0.250   7.312
   68POPC   D2A 1123   5.137   0.450   7.048
   68POPC   C3A 1124   5.105   0.411   6.635
   68POPC   C4A 1125   5.047   0.373   6.226
   68POPC   C1B 1126   4.594   0.672   7.344
   68POPC   C2B 1127   4.648   0.506   6.924
   68POPC   C3B 1128   4.670   0.671   6.525
   68POPC   C4B 1129   4.700   0.701   6.104
   69POPC   NC3 1130   9.356   5.432   7.958
   69POPC   PO4 1131   9.761   5.970   8.189
   69POPC   GL1 1132   9.729   5.803   7.795
   69POPC   GL2 1133   9.403   5.817   7.615
   69POPC   C1A 1134   9.845   5.936   7.393
   69POPC   D2A 1135   9.547   5.953   7.087
   69POPC   C3A 1136   9.621   5.984   6.664
   69POPC   C4A 1137   9.452   5.920   6.280
   69POPC   C1B 1138   9.371   5.494   7.282
   69POPC   C2B 1139   9.204   5.345   6.897
   69POPC   C3B 1140   9.170   5.498   6.507
   69POPC   C4B 1141   9.197   5.329   6.139
   70POPC   NC3 1142   4.351   2.771   7.879
   70POPC   PO4 1143   3.900   2.314   8.040
   70POPC   GL1 1144   3.990   2.512   7.622
   70POPC   GL2 1145   3.890   2.839   7.581
   70POPC   C1A 1146   4.296   2.512   7.242
   70POPC   D2A 1147   4.454   2.757   6.855
   70POPC   C3A 1148   4.248   2.775   6.463
   70POPC   C4A 1149   4.110   2.546   6.107
   70POPC   C1B 1150   3.815   2.695   7.176
   70POPC   C2B 1151   3.826   2.695   6.735
   70POPC   C3B 1152   3.738   2.852   6.351
   70POPC   C4B 1153   3.711   2.761   5.897
   71POPC   NC3 1154   6.980   6.904   8.441
   71POPC   PO4 1155   7.528   6.794   8.074
   71POPC   GL1 1156   7.547   6.660   7.671
   71POPC   GL2 1157   7.330   6.401   7.629
   71POPC   C1A 1158   7.347   6.794   7.263
   71POPC   D2A 1159   7.103   6.783   6.917
   71POPC   C3A 1160   7.264   6.781   6.514
   71POPC   C4A 1161   7.124   6.496   6.205
   71POPC   C1B 1162   7.180   6.324   7.180
   71POPC   C2B 1163   7.115   6.295   6.726
   71POPC   C3B 1164   6.978   6.052   6.390
   71POPC   C4B 1165   7.240   6.018   6.021
   72POPC   NC3 1166   1.120   5.686   8.091
   72POPC   PO4 1167   1.535   6.188   8.050
   72POPC   GL1 1168   1.578   5.849   7.729
   72POPC   GL2 1169   1.387   5.517   7.703
   72POPC   C1A 1170   1.535   5.748   7.291
   72POPC   D2A 1171   1.321   5.808   6.926
   72POPC   C3A 1172   1.507   5.946   6.545
   72POPC   C4A 1173   1.341   5.771   6.186
   72POPC   C1B 1174   1.045   5.564   7.376
   72POPC   C2B 1175   1.046   5.361   6.958
   72POPC   C3B 1176   1.093   5.527   6.555
   72POPC   C4B 1177   0.936   5.401   6.162
   73POPC   NC3 1178   3.605  10.253   8.150
   73POPC   PO4 1179   3.097   9.848   7.894
   73POPC   GL1 1180   3.410  10.056   7.642
   73POPC   GL2 1181   3.641  10.350   7.645
   73POPC   C1A 1182   3.502   9.939   7.231
   73POPC   D2A 1183   3.451   9.682   6.868
   73POPC   C3A 1184   3.305   9.964   6.551
   73POPC   C4A 1185   2.965   9.987   6.251
   73POPC   C1B 1186   3.492  10.444   7.252
   73POPC   C2B 1187   3.603  10.365   6.826
   73POPC   C3B 1188   3.691  10.276   6.401
   73POPC   C4B 1189   3.741   9.899   6.214
   74POPC   NC3 1190   0.256   8.401   7.951
   74POPC   PO4 1191   0.812   8.739   8.075
   74POPC   GL1 1192   0.702   8.530   7.728
   74POPC   GL2 1193   0.492   8.783   7.600
   74POPC   C1A 1194   0.808   8.484   7.316
   74POPC   D2A 1195   0.646   8.738   6.989
   74POPC   C3A 1196   0.768   8.581   6.614
   74POPC   C4A 1197   0.631   8.571   6.227
   74POPC   C1B 1198   0.186   8.839   7.278
   74POPC   C2B 1199   0.167   8.850   6.855
   74POPC   C3B 1200   0.228   8.595   6.534
   74POPC   C4B 1201   0.073   8.546   6.154
   75POPC   NC3 1202   1.111   6.412   8.030
   75POPC   PO4 1203   0.961   6.986   8.234
   75POPC   GL1 1204   1.188   6.878   7.768
   75POPC   GL2 1205   1.066   6.584   7.569
   75POPC   C1A 1206   1.453   6.738   7.321
   75POPC   D2A 1207   1.216   6.558   6.940
   75POPC   C3A 1208   1.410   6.545   6.495
   75POPC   C4A 1209   1.309   6.509   6.027
   75POPC   C1B 1210   1.129   6.174   7.370
   75POPC   C2B 1211   0.919   6.119   6.982
   75POPC   C3B 1212   1.043   6.163   6.564
   75POPC   C4B 1213   0.988   6.138   6.137
   76POPC   NC3 1214   0.055   4.148   7.834
   76POPC   PO4 1215  10.093   4.512   8.200
   76POPC   GL1 1216  10.065   4.306   7.773
   76POPC   GL2 1217  10.136   3.954   7.627
   76POPC   C1A 1218   9.936   4.281   7.320
   76POPC   D2A 1219  10.124   4.344   6.919
   76POPC   C3A 1220   9.894   4.373   6.568
   76POPC   C4A 1221  10.051   4.422   6.171
   76POPC   C1B 1222  10.380   4.012   7.244
   76POPC   C2B 1223   0.023   4.021   6.847
   76POPC   C3B 1224  10.415   4.235   6.467
   76POPC   C4B 1225  10.479   4.050   6.054
   77POPC   NC3 1226   1.898   5.883   8.148
   77POPC   PO4 1227   1.526   5.346   8.164
   77POPC   GL1 1228   1.878   5.439   7.829
   77POPC   GL2 1229   2.115   5.704   7.730
   77POPC   C1A 1230   1.832   5.348   7.403
   77POPC   D2A 1231   1.903   5.327   6.961
   77POPC   C3A 1232   1.628   5.444   6.625
   77POPC   C4A 1233   1.834   5.423   6.214
   77POPC   C1B 1234   2.041   5.894   7.331
   77POPC   C2B 1235   1.850   5.876   6.919
   77POPC   C3B 1236   2.016   5.784   6.522
   77POPC   C4B 1237   2.252   6.002   6.249
   78POPC   NC3 1238   8.412   3.282   7.929
   78POPC   PO4 1239   9.107   3.215   8.044
   78POPC   GL1 1240   8.850   3.279   7.687
   78POPC   GL2 1241   8.804   3.637   7.684
   78POPC   C1A 1242   8.672   3.406   7.274
   78POPC   D2A 1243   8.543   3.232   6.919
   78POPC   C3A 1244   8.711   3.382   6.524
   78POPC   C4A 1245   8.482   3.306   6.152
   78POPC   C1B 1246   9.027   3.856   7.345
   78POPC   C2B 1247   8.903   3.976   6.935
   78POPC   C3B 1248   8.975   3.895   6.496
   78POPC   C4B 1249   8.938   3.626   6.131
   79POPC   NC3 1250   9.798   3.973   8.464
   79POPC   PO4 1251   9.211   4.240   8.187
   79POPC   GL1 1252   9.317   4.130   7.754
   79POPC   GL2 1253   9.620   4.070   7.715
   79POPC   C1A 1254   9.427   4.355   7.345
   79POPC   D2A 1255   9.272   4.318   6.932
   79POPC   C3A 1256   9.406   4.489   6.539
   79POPC   C4A 1257   9.233   4.252   6.183
   79POPC   C1B 1258   9.584   3.870   7.343
   79POPC   C2B 1259   9.695   4.026   6.942
   79POPC   C3B 1260   9.492   3.973   6.564
   79POPC   C4B 1261   9.728   4.030   6.211
   80POPC   NC3 1262   6.271   6.673   7.776
   80POPC   PO4 1263   6.623   7.109   8.178
   80POPC   GL1 1264   6.677   7.111   7.701
   80POPC   GL2 1265   6.369   7.269   7.631
   80POPC   C1A 1266   6.710   6.872   7.272
   80POPC   D2A 1267   6.634   6.942   6.801
   80POPC   C3A 1268   6.642   6.629   6.453
   80POPC   C4A 1269   6.329   6.697   6.103
   80POPC   C1B 1270   6.519   7.357   7.209
   80POPC   C2B 1271   6.289   7.307   6.830
   80POPC   C3B 1272   6.299   7.144   6.397
   80POPC   C4B 1273   6.016   7.161   6.013
   81POPC   NC3 1274   0.634   1.154   8.298
   81POPC   PO4 1275  10.479   0.867   8.166
   81POPC   GL1 1276   0.075   1.044   7.765
   81POPC   GL2 1277   0.163   1.392   7.837
   81POPC   C1A 1278   0.095   0.955   7.315
   81POPC   D2A 1279   0.347   1.087   6.977
   81POPC   C3A 1280   0.379   1.120   6.540
   81POPC   C4A 1281   0.416   0.919   6.144
   81POPC   C1B 1282   0.268   1.416   7.386
   81POPC   C2B 1283   0.167   1.546   6.911
   81POPC   C3B 1284   0.299   1.599   6.435
   81POPC   C4B 1285   0.532   1.386   6.079
   82POPC   NC3 1286   9.286   6.239   8.146
   82POPC   PO4 1287   8.891   6.685   7.810
   82POPC   GL1 1288   9.040   6.284   7.690
   82POPC   GL2 1289   9.418   6.325   7.658
   82POPC   C1A 1290   9.102   6.154   7.270
   82POPC   D2A 1291   8.865   6.287   6.880
   82POPC   C3A 1292   9.132   6.292   6.500
   82POPC   C4A 1293   9.196   6.720   6.474
   82POPC   C1B 1294   9.329   6.604   7.303
   82POPC   C2B 1295   9.420   6.448   6.891
   82POPC   C3B 1296   9.639   6.463   6.483
   82POPC   C4B 1297   9.950   6.190   6.309
   83POPC   NC3 1298   9.409   0.942   7.863
   83POPC   PO4 1299   9.026   0.490   8.311
   83POPC   GL1 1300   9.167   0.491   7.826
   83POPC   GL2 1301   9.490   0.387   7.661
   83POPC   C1A 1302   9.132   0.536   7.332
   83POPC   D2A 1303   9.338   0.368   6.923
   83POPC   C3A 1304   9.158   0.435   6.525
   83POPC   C4A 1305   9.036   0.826   6.443
   83POPC   C1B 1306   9.644   0.631   7.306
   83POPC   C2B 1307   9.723   0.729   6.881
   83POPC   C3B 1308   9.654   0.649   6.416
   83POPC   C4B 1309   9.504   0.306   6.143
   84POPC   NC3 1310   7.206   7.022   7.830
   84POPC   PO4 1311   7.518   7.472   8.243
   84POPC   GL1 1312   7.394   7.481   7.744
   84POPC   GL2 1313   7.066   7.453   7.601
   84POPC   C1A 1314   7.489   7.348   7.318
   84POPC   D2A 1315   7.539   7.114   6.920
   84POPC   C3A 1316   7.580   7.317   6.538
   84POPC   C4A 1317   7.303   7.226   6.259
   84POPC   C1B 1318   7.023   7.254   7.156
   84POPC   C2B 1319   7.028   7.240   6.698
   84POPC   C3B 1320   6.832   7.068   6.320
   84POPC   C4B 1321   6.812   6.778   5.938
   85POPC   NC3 1322   7.612   1.627   7.940
   85POPC   PO4 1323   7.973   2.204   8.091
   85POPC   GL1 1324   8.032   2.002   7.570
   85POPC   GL2 1325   7.756   1.766   7.498
   85POPC   C1A 1326   8.051   1.785   7.120
   85POPC   D2A 1327   8.213   1.692   6.750
   85POPC   C3A 1328   7.999   1.629   6.371
   85POPC   C4A 1329   8.147   1.648   5.911
   85POPC   C1B 1330   7.673   2.121   7.227
   85POPC   C2B 1331   7.709   2.041   6.834
   85POPC   C3B 1332   7.920   2.117   6.529
   85POPC   C4B 1333   8.061   2.079   6.168
   86POPC   NC3 1334   7.069   9.154   8.193
   86POPC   PO4 1335   7.288   9.771   8.395
   86POPC   GL1 1336   7.402   9.363   7.916
   86POPC   GL2 1337   7.082   9.357   7.719
   86POPC   C1A 1338   7.477   9.140   7.455
   86POPC   D2A 1339   7.344   8.957   7.015
   86POPC   C3A 1340   7.338   9.174   6.618
   86POPC   C4A 1341   7.465   9.057   6.190
   86POPC   C1B 1342   6.854   9.327   7.329
   86POPC   C2B 1343   6.898   9.270   6.886
   86POPC   C3B 1344   6.930   9.450   6.455
   86POPC   C4B 1345   7.345   9.605   6.302
   87POPC   NC3 1346   6.968   1.063   8.246
   87POPC   PO4 1347   7.599   1.288   8.234
   87POPC   GL1 1348   7.330   1.237   7.813
   87POPC   GL2 1349   6.987   1.171   7.766
   87POPC   C1A 1350   7.227   1.269   7.354
   87POPC   D2A 1351   7.235   1.129   6.945
   87POPC   C3A 1352   7.141   1.369   6.579
   87POPC   C4A 1353   7.188   1.368   6.130
   87POPC   C1B 1354   6.899   0.852   7.417
   87POPC   C2B 1355   6.934   0.700   6.970
   87POPC   C3B 1356   7.144   0.802   6.569
   87POPC   C4B 1357   6.884   1.004   6.290
   88POPC   NC3 1358   2.536   0.952   8.130
   88POPC   PO4 1359   3.194   1.059   8.192
   88POPC   GL1 1360   3.117   1.282   7.763
   88POPC   GL2 1361   2.792   1.168   7.708
   88POPC   C1A 1362   3.059   1.380   7.294
   88POPC   D2A 1363   3.023   1.117   6.949
   88POPC   C3A 1364   2.877   1.254   6.563
   88POPC   C4A 1365   3.042   1.125   6.211
   88POPC   C1B 1366   2.604   1.120   7.297
   88POPC   C2B 1367   2.513   1.319   6.916
   88POPC   C3B 1368   2.350   1.161   6.530
   88POPC   C4B 1369   2.448   1.027   6.125
   89POPC   NC3 1370   0.515   9.110   8.005
   89POPC   PO4 1371   0.407   9.780   7.971
   89POPC   GL1 1372   0.588   9.459   7.663
   89POPC   GL2 1373   0.278   9.297   7.578
   89POPC   C1A 1374   0.627   9.177   7.250
   89POPC   D2A 1375   0.439   9.270   6.831
   89POPC   C3A 1376   0.520   9.025   6.469
   89POPC   C4A 1377   0.537   9.015   5.996
   89POPC   C1B 1378   0.402   9.648   7.264
   89POPC   C2B 1379   0.285   9.747   6.890
   89POPC   C3B 1380   0.481   9.787   6.533
   89POPC   C4B 1381   0.378   9.477   6.227
   90POPC   NC3 1382   5.620   9.015   8.045
   90POPC   PO4 1383   5.487   9.683   8.130
   90POPC   GL1 1384   5.568   9.441   7.738
   90POPC   GL2 1385   5.910   9.354   7.752
   90POPC   C1A 1386   5.642   9.160   7.356
   90POPC   D2A 1387   5.395   9.104   6.959
   90POPC   C3A 1388   5.594   9.099   6.556
   90POPC   C4A 1389   5.747   9.340   6.218
   90POPC   C1B 1390   5.909   9.613   7.379
   90POPC   C2B 1391   5.640   9.563   7.024
   90POPC   C3B 1392   5.657   9.636   6.629
   90POPC   C4B 1393   6.026   9.762   6.358
   91POPC   NC3 1394   3.798   2.770   8.116
   91POPC   PO4 1395   3.151   2.963   8.177
   91POPC   GL1 1396   3.414   2.933   7.787
   91POPC   GL2 1397   3.487   2.550   7.768
   91POPC   C1A 1398   3.221   3.008   7.367
   91POPC   D2A 1399   3.034   2.814   7.007
   91POPC   C3A 1400   3.199   2.893   6.562
   91POPC   C4A 1401   3.334   3.100   6.198
   91POPC   C1B 1402   3.331   2.500   7.357
   91POPC   C2B 1403   3.410   2.494   6.930
   91POPC   C3B 1404   3.457   2.445   6.506
   91POPC   C4B 1405   3.300   2.573   6.132
   92POPC   NC3 1406   1.836   8.174   8.161
   92POPC   PO4 1407   1.801   7.506   8.256
   92POPC   GL1 1408   1.664   7.781   7.846
   92POPC   GL2 1409   1.808   8.094   7.666
   92POPC   C1A 1410   1.685   7.663   7.371
   92POPC   D2A 1411   1.705   7.919   6.981
   92POPC   C3A 1412   1.690   7.767   6.541
   92POPC   C4A 1413   1.683   8.179   6.299
   92POPC   C1B 1414   2.087   7.952   7.339
   92POPC   C2B 1415   2.174   7.760   6.931
   92POPC   C3B 1416   2.109   8.043   6.603
   92POPC   C4B 1417   2.102   7.848   6.230
   93POPC   NC3 1418   7.730   7.792   7.934
   93POPC   PO4 1419   8.098   8.282   8.162
   93POPC   GL1 1420   8.066   8.110   7.730
   93POPC   GL2 1421   7.720   8.150   7.572
   93POPC   C1A 1422   8.163   7.901   7.318
   93POPC   D2A 1423   8.093   8.136   6.948
   93POPC   C3A 1424   8.118   8.003   6.539
   93POPC   C4A 1425   8.082   8.209   6.168
   93POPC   C1B 1426   7.652   7.851   7.248
   93POPC   C2B 1427   7.623   8.003   6.847
   93POPC   C3B 1428   7.627   7.852   6.470
   93POPC   C4B 1429   7.559   8.116   6.173
   94POPC   NC3 1430   0.599   7.547   7.894
   94POPC   PO4 1431   0.492   6.937   7.847
   94POPC   GL1 1432   0.723   6.947   7.538
   94POPC   GL2 1433   0.617   7.262   7.461
   94POPC   C1A 1434   0.778   6.892   7.129
   94POPC   D2A 1435   0.495   7.143   6.955
   94POPC   C3A 1436   0.494   7.036   6.590
   94POPC   C4A 1437   0.712   7.150   6.243
   94POPC   C1B 1438   0.165   7.166   7.347
   94POPC   C2B 1439  10.434   7.354   7.025
   94POPC   C3B 1440   0.192   7.470   6.663
   94POPC   C4B 1441   0.219   7.303   6.250
   95POPC   NC3 1442   2.231   7.413   8.099
   95POPC   PO4 1443   1.637   6.989   7.965
   95POPC   GL1 1444   1.750   7.099   7.579
   95POPC   GL2 1445   1.908   7.368   7.711
   95POPC   C1A 1446   1.690   7.188   7.155
   95POPC   D2A 1447   1.648   6.889   6.842
   95POPC   C3A 1448   1.609   7.045   6.465
   95POPC   C4A 1449   1.683   6.828   6.125
   95POPC   C1B 1450   2.187   7.447   7.388
   95POPC   C2B 1451   2.219   7.171   7.063
   95POPC   C3B 1452   2.001   7.271   6.713
   95POPC   C4B 1453   2.015   7.330   6.280
   96POPC   NC3 1454   4.307   3.500   8.051
   96POPC   PO4 1455   4.693   3.974   7.813
   96POPC   GL1 1456   4.378   3.655   7.576
   96POPC   GL2 1457   4.395   3.269   7.609
   96POPC   C1A 1458   4.188   3.528   7.175
   96POPC   D2A 1459   4.469   3.419   6.823
   96POPC   C3A 1460   4.500   3.716   6.476
   96POPC   C4A 1461   4.159   3.635   6.162
   96POPC   C1B 1462   4.265   3.026   7.266
   96POPC   C2B 1463   4.054   3.101   6.896
   96POPC   C3B 1464   4.056   3.264   6.516
   96POPC   C4B 1465   4.455   3.238   6.310
   97POPC   NC3 1466   5.142   2.869   8.130
   97POPC   PO4 1467   4.590   3.096   8.083
   97POPC   GL1 1468   4.798   2.933   7.679
   97POPC   GL2 1469   5.129   2.785   7.619
   97POPC   C1A 1470   4.790   2.897   7.211
   97POPC   D2A 1471   4.973   2.775   6.784
   97POPC   C3A 1472   4.755   2.736   6.394
   97POPC   C4A 1473   4.533   2.823   6.016
   97POPC   C1B 1474   5.243   2.631   7.200
   97POPC   C2B 1475   5.212   2.342   6.824
   97POPC   C3B 1476   5.260   2.525   6.399
   97POPC   C4B 1477   5.234   2.963   6.325
   98POPC   NC3 1478   1.774   6.584   8.103
   98POPC   PO4 1479   2.283   6.154   8.078
   98POPC   GL1 1480   1.963   6.221   7.741
   98POPC   GL2 1481   1.950   6.582   7.636
   98POPC   C1A 1482   1.680   6.249   7.360
   98POPC   D2A 1483   1.699   6.388   6.931
   98POPC   C3A 1484   1.910   6.311   6.546
   98POPC   C4A 1485   1.711   6.236   6.168
   98POPC   C1B 1486   1.968   6.729   7.232
   98POPC   C2B 1487   2.124   6.720   6.827
   98POPC   C3B 1488   2.110   6.829   6.421
   98POPC   C4B 1489   2.112   6.536   6.086
   99POPC   NC3 1490   1.318   2.904   7.904
   99POPC   PO4 1491   0.941   2.222   7.995
   99POPC   GL1 1492   0.952   2.489   7.644
   99POPC   GL2 1493   0.890   2.844   7.634
   99POPC   C1A 1494   0.959   2.295   7.268
   99POPC   D2A 1495   1.141   2.303   6.880
   99POPC   C3A 1496   0.975   2.385   6.472
   99POPC   C4A 1497   1.110   2.497   6.038
   99POPC   C1B 1498   1.115   2.768   7.229
   99POPC   C2B 1499   1.061   2.792   6.780
   99POPC   C3B 1500   1.234   2.847   6.412
   99POPC   C4B 1501   0.872   2.921   6.207
  100POPC   NC3 1502   8.154   0.014   7.934
  100POPC   PO4 1503   8.235   9.882   8.091
  100POPC   GL1 1504   7.986   9.994   7.718
  100POPC   GL2 1505   7.648  10.165   7.653
  100POPC   C1A 1506   8.055  10.191   7.327
  100POPC   D2A 1507   8.077  10.016   6.922
  100POPC   C3A 1508   8.160  10.225   6.536
  100POPC   C4A 1509   7.924  10.289   6.161
  100POPC   C1B 1510   7.579  10.007   7.211
  100POPC   C2B 1511   7.577  10.032   6.765
  100POPC   C3B 1512   7.769   9.896   6.437
  100POPC   C4B 1513   7.689   9.859   6.007
  101POPC   NC3 1514   1.987   1.356   8.063
  101POPC   PO4 1515   1.908   2.028   8.160
  101POPC   GL1 1516   1.741   1.930   7.744
  101POPC   GL2 1517   1.913   2.231   7.656
  101POPC   C1A 1518   1.691   1.712   7.305
  101POPC   D2A 1519   1.975   1.762   6.915
  101POPC   C3A 1520   2.106   1.696   6.474
  101POPC   C4A 1521   1.797   1.687   6.105
  101POPC   C1B 1522   1.984   2.128   7.275
  101POPC   C2B 1523   1.895   2.331   6.938
  101POPC   C3B 1524   1.943   2.365   6.544
  101POPC   C4B 1525   1.911   2.135   6.261
  102POPC   NC3 1526   0.609   3.443   8.084
  102POPC   PO4 1527   0.028   3.328   7.787
  102POPC   GL1 1528   0.131   3.690   7.578
  102POPC   GL2 1529   0.463   3.578   7.620
  102POPC   C1A 1530   0.227   3.632   7.150
  102POPC   D2A 1531   0.215   3.252   6.928
  102POPC   C3A 1532   0.088   3.320   6.500
  102POPC   C4A 1533   0.220   3.620   6.239
  102POPC   C1B 1534   0.729   3.674   7.322
  102POPC   C2B 1535   0.705   3.496   6.923
  102POPC   C3B 1536   0.703   3.651   6.514
  102POPC   C4B 1537   0.671   3.396   6.189
  103POPC   NC3 1538   0.319  10.225   8.112
  103POPC   PO4 1539   1.068  10.215   8.142
  103POPC   GL1 1540   0.834  10.280   7.696
  103POPC   GL2 1541   0.494  10.222   7.650
  103POPC   C1A 1542   0.756  10.072   7.252
  103POPC   D2A 1543   0.499  10.209   6.901
  103POPC   C3A 1544   0.708  10.279   6.511
  103POPC   C4A 1545   0.619  10.105   6.147
  103POPC   C1B 1546   0.164  10.084   7.397
  103POPC   C2B 1547  10.471  10.107   7.021
  103POPC   C3B 1548   0.052  10.125   6.622
  103POPC   C4B 1549   0.118   9.978   6.231
  104POPC   NC3 1550   7.753   0.948   7.914
  104POPC   PO4 1551   8.281   1.157   8.275
  104POPC   GL1 1552   8.259   0.938   7.780
  104POPC   GL2 1553   7.978   0.991   7.479
  104POPC   C1A 1554   8.401   0.950   7.278
  104POPC   D2A 1555   8.164   1.217   6.979
  104POPC   C3A 1556   8.118   1.174   6.547
  104POPC   C4A 1557   8.060   1.165   6.115
  104POPC   C1B 1558   7.697   1.132   7.176
  104POPC   C2B 1559   7.681   1.006   6.742
  104POPC   C3B 1560   7.622   1.257   6.385
  104POPC   C4B 1561   7.667   1.504   6.017
  105POPC   NC3 1562   6.847   9.961   7.879
  105POPC   PO4 1563   6.207   9.661   8.038
  105POPC   GL1 1564   6.205   9.940   7.698
  105POPC   GL2 1565   6.445  10.216   7.682
  105POPC   C1A 1566   6.097  10.083   7.288
  105POPC   D2A 1567   6.070   9.886   6.887
  105POPC   C3A 1568   6.130  10.221   6.599
  105POPC   C4A 1569   6.349  10.203   6.248
  105POPC   C1B 1570   6.707  10.284   7.320
  105POPC   C2B 1571   6.697  10.088   6.931
  105POPC   C3B 1572   6.699  10.308   6.595
  105POPC   C4B 1573   6.726   0.039   6.232
  106POPC   NC3 1574   4.852   1.913   7.993
  106POPC   PO4 1575   5.179   2.414   8.102
  106POPC   GL1 1576   4.944   2.308   7.669
  106POPC   GL2 1577   4.949   1.958   7.503
  106POPC   C1A 1578   4.812   2.373   7.236
  106POPC   D2A 1579   4.663   2.280   6.841
  106POPC   C3A 1580   4.862   2.237   6.450
  106POPC   C4A 1581   4.692   2.325   6.019
  106POPC   C1B 1582   4.790   1.858   7.118
  106POPC   C2B 1583   4.966   1.833   6.744
  106POPC   C3B 1584   5.027   1.729   6.357
  106POPC   C4B 1585   5.080   2.004   6.064
  107POPC   NC3 1586  10.230   8.500   8.022
  107POPC   PO4 1587   9.818   8.977   8.059
  107POPC   GL1 1588   9.942   8.753   7.671
  107POPC   GL2 1589   9.975   8.394   7.608
  107POPC   C1A 1590  10.159   8.741   7.288
  107POPC   D2A 1591   9.983   8.835   6.923
  107POPC   C3A 1592  10.233   8.749   6.612
  107POPC   C4A 1593  10.071   8.743   6.236
  107POPC   C1B 1594  10.325   8.276   7.356
  107POPC   C2B 1595  10.434   8.412   6.945
  107POPC   C3B 1596  10.309   8.265   6.535
  107POPC   C4B 1597  10.174   8.228   6.140
  108POPC   NC3 1598   1.971   9.855   7.996
  108POPC   PO4 1599   1.563   9.351   8.236
  108POPC   GL1 1600   1.784   9.409   7.779
  108POPC   GL2 1601   2.027   9.137   7.685
  108POPC   C1A 1602   1.988   9.480   7.329
  108POPC   D2A 1603   1.775   9.455   6.929
  108POPC   C3A 1604   1.895   9.572   6.506
  108POPC   C4A 1605   1.652   9.562   6.150
  108POPC   C1B 1606   2.133   8.966   7.297
  108POPC   C2B 1607   2.144   9.092   6.885
  108POPC   C3B 1608   1.880   9.089   6.559
  108POPC   C4B 1609   1.926   9.138   6.150
  109POPC   NC3 1610   0.860   9.828   7.915
  109POPC   PO4 1611   1.527   9.971   8.021
  109POPC   GL1 1612   1.273  10.011   7.700
  109POPC   GL2 1613   1.327  10.299   7.634
  109POPC   C1A 1614   1.263   9.961   7.267
  109POPC   D2A 1615   1.317   9.744   6.922
  109POPC   C3A 1616   1.049   9.912   6.643
  109POPC   C4A 1617   1.183   9.773   6.276
  109POPC   C1B 1618   1.115  10.465   7.289
  109POPC   C2B 1619   1.032  10.423   6.866
  109POPC   C3B 1620   1.221  10.350   6.439
  109POPC   C4B 1621   1.079   0.032   6.051
  110POPC   NC3 1622   7.650   9.730   8.109
  110POPC   PO4 1623   7.977   9.201   8.163
  110POPC   GL1 1624   7.910   9.351   7.781
  110POPC   GL2 1625   8.197   9.518   7.747
  110POPC   C1A 1626   7.784   9.565   7.416
  110POPC   D2A 1627   7.567   9.491   7.051
  110POPC   C3A 1628   7.767   9.443   6.653
  110POPC   C4A 1629   7.830   9.415   6.235
  110POPC   C1B 1630   8.268   9.687   7.350
  110POPC   C2B 1631   8.156   9.514   6.968
  110POPC   C3B 1632   8.260   9.685   6.561
  110POPC   C4B 1633   8.191   9.810   6.155
  111POPC   NC3 1634   9.274   7.941   8.088
  111POPC   PO4 1635   9.927   8.138   8.039
  111POPC   GL1 1636   9.591   8.094   7.725
  111POPC   GL2 1637   9.549   7.754   7.704
  111POPC   C1A 1638   9.406   8.104   7.297
  111POPC   D2A 1639   9.533   7.967   6.910
  111POPC   C3A 1640   9.369   8.138   6.555
  111POPC   C4A 1641   9.277   7.985   6.175
  111POPC   C1B 1642   9.468   7.577   7.306
  111POPC   C2B 1643   9.314   7.473   6.917
  111POPC   C3B 1644   9.445   7.620   6.529
  111POPC   C4B 1645   9.554   7.452   6.168
  112POPC   NC3 1646   8.627   1.406   8.073
  112POPC   PO4 1647   7.965   1.375   7.781
  112POPC   GL1 1648   8.353   1.418   7.600
  112POPC   GL2 1649   8.669   1.209   7.611
  112POPC   C1A 1650   8.487   1.528   7.209
  112POPC   D2A 1651   8.626   1.398   6.802
  112POPC   C3A 1652   8.490   1.498   6.363
  112POPC   C4A 1653   8.561   1.393   5.944
  112POPC   C1B 1654   8.860   1.159   7.214
  112POPC   C2B 1655   8.729   0.893   6.874
  112POPC   C3B 1656   8.578   0.998   6.507
  112POPC   C4B 1657   8.507   0.938   6.139
  113POPC   NC3 1658   5.220   0.331   8.278
  113POPC   PO4 1659   5.778   0.709   8.143
  113POPC   GL1 1660   5.706   0.669   7.693
  113POPC   GL2 1661   5.832   0.337   7.688
  113POPC   C1A 1662   5.589   0.499   7.234
  113POPC   D2A 1663   5.550   0.639   6.783
  113POPC   C3A 1664   5.522   0.538   6.322
  113POPC   C4A 1665   5.442   0.768   5.923
  113POPC   C1B 1666   6.058   0.561   7.340
  113POPC   C2B 1667   6.008   0.343   6.969
  113POPC   C3B 1668   5.919   0.342   6.570
  113POPC   C4B 1669   6.010   0.708   6.318
  114POPC   NC3 1670   2.082   3.498   8.155
  114POPC   PO4 1671   2.413   2.888   8.234
  114POPC   GL1 1672   2.268   3.155   7.816
  114POPC   GL2 1673   1.984   3.427   7.682
  114POPC   C1A 1674   2.185   3.111   7.357
  114POPC   D2A 1675   1.978   2.947   6.995
  114POPC   C3A 1676   2.173   3.062   6.628
  114POPC   C4A 1677   2.162   3.439   6.388
  114POPC   C1B 1678   1.723   3.380   7.309
  114POPC   C2B 1679   1.606   3.608   6.930
  114POPC   C3B 1680   1.599   3.365   6.561
  114POPC   C4B 1681   1.652   3.167   6.192
  115POPC   NC3 1682   7.747   2.650   8.072
  115POPC   PO4 1683   7.549   2.066   7.849
  115POPC   GL1 1684   7.791   2.427   7.622
  115POPC   GL2 1685   7.987   2.745   7.650
  115POPC   C1A 1686   8.068   2.432   7.267
  115POPC   D2A 1687   7.855   2.538   6.933
  115POPC   C3A 1688   8.060   2.602   6.584
  115POPC   C4A 1689   7.813   2.545   6.228
  115POPC   C1B 1690   8.202   2.930   7.337
  115POPC   C2B 1691   8.083   2.999   6.936
  115POPC   C3B 1692   7.812   3.064   6.606
  115POPC   C4B 1693   8.052   3.014   6.236
  116POPC   NC3 1694   2.962   9.488   8.183
  116POPC   PO4 1695   2.290   9.495   8.016
  116POPC   GL1 1696   2.492   9.349   7.646
  116POPC   GL2 1697   2.772   9.534   7.664
  116POPC   C1A 1698   2.486   9.426   7.201
  116POPC   D2A 1699   2.306   9.613   6.831
  116POPC   C3A 1700   2.339   9.354   6.462
  116POPC   C4A 1701   2.402   9.242   6.047
  116POPC   C1B 1702   2.761   9.844   7.319
  116POPC   C2B 1703   2.923   9.753   6.937
  116POPC   C3B 1704   2.795   9.556   6.619
  116POPC   C4B 1705   2.813   9.503   6.206
  117POPC   NC3 1706   9.251   2.769   7.977
  117POPC   PO4 1707   9.518   2.287   8.307
  117POPC   GL1 1708   9.527   2.328   7.802
  117POPC   GL2 1709   9.240   2.511   7.552
  117POPC   C1A 1710   9.675   2.406   7.355
  117POPC   D2A 1711   9.407   2.529   6.982
  117POPC   C3A 1712   9.543   2.569   6.564
  117POPC   C4A 1713   9.258   2.614   6.203
  117POPC   C1B 1714   9.469   2.878   7.355
  117POPC   C2B 1715   9.378   3.053   6.969
  117POPC   C3B 1716   9.197   2.962   6.594
  117POPC   C4B 1717   9.596   3.063   6.404
  118POPC   NC3 1718   5.614   8.237   8.016
  118POPC   PO4 1719   6.052   8.789   8.087
  118POPC   GL1 1720   5.950   8.547   7.747
  118POPC   GL2 1721   5.630   8.666   7.669
  118POPC   C1A 1722   6.010   8.738   7.336
  118POPC   D2A 1723   5.854   8.879   6.949
  118POPC   C3A 1724   5.913   8.683   6.544
  118POPC   C4A 1725   6.001   8.892   6.164
  118POPC   C1B 1726   5.478   8.687   7.259
  118POPC   C2B 1727   5.471   8.549   6.814
  118POPC   C3B 1728   5.390   8.635   6.389
  118POPC   C4B 1729   5.645   8.492   6.081
  119POPC   NC3 1730   1.198   9.010   8.149
  119POPC   PO4 1731   1.471   8.439   8.111
  119POPC   GL1 1732   1.412   8.462   7.701
  119POPC   GL2 1733   1.182   8.699   7.714
  119POPC   C1A 1734   1.335   8.406   7.275
  119POPC   D2A 1735   1.539   8.383   6.892
  119POPC   C3A 1736   1.270   8.328   6.574
  119POPC   C4A 1737   1.224   8.507   6.236
  119POPC   C1B 1738   1.085   8.897   7.344
  119POPC   C2B 1739   1.152   8.746   6.949
  119POPC   C3B 1740   1.045   8.991   6.639
  119POPC   C4B 1741   0.967   8.931   6.243
  120POPC   NC3 1742   2.762  10.350   8.369
  120POPC   PO4 1743   2.617   0.487   8.211
  120POPC   GL1 1744   2.822   0.449   7.803
  120POPC   GL2 1745   3.078   0.724   7.745
  120POPC   C1A 1746   2.619   0.307   7.394
  120POPC   D2A 1747   2.651   0.072   7.013
  120POPC   C3A 1748   2.769   0.297   6.669
  120POPC   C4A 1749   2.899   0.310   6.264
  120POPC   C1B 1750   2.928   0.727   7.305
  120POPC   C2B 1751   2.664   0.766   6.917
  120POPC   C3B 1752   2.733   0.772   6.481
  120POPC   C4B 1753   2.427   0.507   6.316
  121POPC   NC3 1754   4.029   7.974   8.236
  121POPC   PO4 1755   4.347   7.368   8.073
  121POPC   GL1 1756   4.183   7.383   7.644
  121POPC   GL2 1757   4.053   7.060   7.607
  121POPC   C1A 1758   4.234   7.277   7.176
  121POPC   D2A 1759   4.465   7.422   6.811
  121POPC   C3A 1760   4.397   7.208   6.426
  121POPC   C4A 1761   4.620   6.907   6.140
  121POPC   C1B 1762   3.936   6.847   7.238
  121POPC   C2B 1763   4.091   6.936   6.795
  121POPC   C3B 1764   4.034   6.851   6.339
  121POPC   C4B 1765   4.171   7.095   5.956
  122POPC   NC3 1766   7.912   3.335   8.241
  122POPC   PO4 1767   8.421   3.737   7.999
  122POPC   GL1 1768   8.157   3.615   7.650
  122POPC   GL2 1769   7.931   3.283   7.706
  122POPC   C1A 1770   8.172   3.435   7.263
  122POPC   D2A 1771   7.992   3.485   6.904
  122POPC   C3A 1772   8.194   3.411   6.556
  122POPC   C4A 1773   8.088   3.607   6.172
  122POPC   C1B 1774   7.717   3.159   7.307
  122POPC   C2B 1775   7.506   3.403   6.965
  122POPC   C3B 1776   7.622   3.563   6.531
  122POPC   C4B 1777   7.680   3.336   6.151
  123POPC   NC3 1778   2.504   8.353   8.453
  123POPC   PO4 1779   2.289   7.896   7.997
  123POPC   GL1 1780   2.523   7.780   7.652
  123POPC   GL2 1781   2.836   7.924   7.723
  123POPC   C1A 1782   2.564   7.877   7.226
  123POPC   D2A 1783   2.552   8.127   6.899
  123POPC   C3A 1784   2.586   7.886   6.568
  123POPC   C4A 1785   2.598   8.030   6.182
  123POPC   C1B 1786   3.018   7.778   7.363
  123POPC   C2B 1787   2.999   7.778   6.921
  123POPC   C3B 1788   2.944   7.539   6.523
  123POPC   C4B 1789   2.989   7.688   6.117
  124POPC   NC3 1790   2.355   8.314   7.807
  124POPC   PO4 1791   2.911   8.283   8.245
  124POPC   GL1 1792   2.961   8.410   7.766
  124POPC   GL2 1793   2.887   8.779   7.709
  124POPC   C1A 1794   2.859   8.305   7.313
  124POPC   D2A 1795   2.690   8.614   6.973
  124POPC   C3A 1796   2.676   8.486   6.504
  124POPC   C4A 1797   3.001   8.449   6.175
  124POPC   C1B 1798   2.826   9.032   7.300
  124POPC   C2B 1799   2.652   9.106   6.847
  124POPC   C3B 1800   2.747   9.061   6.427
  124POPC   C4B 1801   2.677   8.833   6.075
  125POPC   NC3 1802   7.811   6.418   8.112
  125POPC   PO4 1803   8.305   6.857   8.186
  125POPC   GL1 1804   8.067   6.718   7.750
  125POPC   GL2 1805   7.985   6.344   7.663
  125POPC   C1A 1806   8.178   6.563   7.277
  125POPC   D2A 1807   8.079   6.342   6.910
  125POPC   C3A 1808   8.025   6.518   6.502
  125POPC   C4A 1809   8.262   6.730   6.189
  125POPC   C1B 1810   7.706   6.383   7.280
  125POPC   C2B 1811   7.579   6.525   6.869
  125POPC   C3B 1812   7.543   6.336   6.461
  125POPC   C4B 1813   7.621   6.443   6.046
  126POPC   NC3 1814   2.583   5.822   7.938
  126POPC   PO4 1815   2.356   5.204   8.069
  126POPC   GL1 1816   2.409   5.290   7.672
  126POPC   GL2 1817   2.714   5.493   7.586
  126POPC   C1A 1818   2.311   5.467   7.286
  126POPC   D2A 1819   2.319   5.683   6.929
  126POPC   C3A 1820   2.577   5.540   6.638
  126POPC   C4A 1821   2.490   5.529   6.251
  126POPC   C1B 1822   2.643   5.872   7.280
  126POPC   C2B 1823   2.696   6.037   6.841
  126POPC   C3B 1824   2.755   5.964   6.406
  126POPC   C4B 1825   2.992   5.653   6.200
  127POPC   NC3 1826   9.286   9.502   8.075
  127POPC   PO4 1827   9.909   9.772   8.045
  127POPC   GL1 1828   9.745   9.596   7.655
  127POPC   GL2 1829   9.365   9.607   7.587
  127POPC   C1A 1830   9.701   9.499   7.216
  127POPC   D2A 1831   9.835   9.336   6.818
  127POPC   C3A 1832   9.843   9.588   6.465
  127POPC   C4A 1833   9.619   9.763   6.124
  127POPC   C1B 1834   9.212   9.351   7.247
  127POPC   C2B 1835   9.327   9.472   6.821
  127POPC   C3B 1836   9.351   9.422   6.393
  127POPC   C4B 1837   9.069   9.248   6.120
  128POPC   NC3 1838   4.698   1.286   7.944
  128POPC   PO4 1839   5.170   0.773   8.059
  128POPC   GL1 1840   5.191   0.885   7.625
  128POPC   GL2 1841   4.893   1.070   7.520
  128POPC   C1A 1842   5.288   0.929   7.183
  128POPC   D2A 1843   5.016   0.899   6.827
  128POPC   C3A 1844   5.118   0.858   6.366
  128POPC   C4A 1845   5.023   1.037   5.920
  128POPC   C1B 1846   5.136   1.417   7.285
  128POPC   C2B 1847   5.237   1.394   6.826
  128POPC   C3B 1848   4.870   1.292   6.546
  128POPC   C4B 1849   4.672   1.357   6.146
  129POPC   NC3 1850   8.713   9.928   8.118
  129POPC   PO4 1851   8.606   0.028   8.038
  129POPC   GL1 1852   8.792  10.261   7.714
  129POPC   GL2 1853   8.527  10.005   7.648
  129POPC   C1A 1854   9.016  10.181   7.317
  129POPC   D2A 1855   9.174   9.944   6.965
  129POPC   C3A 1856   9.027   9.832   6.558
  129POPC   C4A 1857   8.805  10.041   6.264
  129POPC   C1B 1858   8.534  10.092   7.199
  129POPC   C2B 1859   8.732  10.214   6.821
  129POPC   C3B 1860   8.623  10.452   6.462
  129POPC   C4B 1861   8.414  10.251   6.050
  130POPC   NC3 1862   3.454   3.399   8.089
  130POPC   PO4 1863   4.049   3.114   7.965
  130POPC   GL1 1864   3.799   3.344   7.679
  130POPC   GL2 1865   3.413   3.418   7.588
  130POPC   C1A 1866   3.741   3.227   7.265
  130POPC   D2A 1867   3.508   3.046   6.937
  130POPC   C3A 1868   3.444   3.358   6.637
  130POPC   C4A 1869   3.665   3.548   6.322
  130POPC   C1B 1870   3.304   3.501   7.139
  130POPC   C2B 1871   3.114   3.755   6.785
  130POPC   C3B 1872   3.238   3.864   6.354
  130POPC   C4B 1873   3.283   3.583   5.992
  131POPC   NC3 1874   5.229  10.128   8.045
  131POPC   PO4 1875   4.706   9.759   8.065
  131POPC   GL1 1876   4.786  10.092   7.700
  131POPC   GL2 1877   5.079  10.337   7.623
  131POPC   C1A 1878   4.954  10.009   7.238
  131POPC   D2A 1879   5.192   9.840   6.884
  131POPC   C3A 1880   5.087  10.052   6.497
  131POPC   C4A 1881   4.639  10.091   6.343
  131POPC   C1B 1882   5.246  10.414   7.218
  131POPC   C2B 1883   4.966  10.465   6.864
  131POPC   C3B 1884   4.734   0.066   6.484
  131POPC   C4B 1885   4.982  10.386   6.116
  132POPC   NC3 1886   6.432   7.621   8.039
  132POPC   PO4 1887   6.738   8.094   8.304
  132POPC   GL1 1888   6.622   8.032   7.776
  132POPC   GL2 1889   6.635   7.708   7.601
  132POPC   C1A 1890   6.676   8.012   7.225
  132POPC   D2A 1891   6.765   7.691   6.879
  132POPC   C3A 1892   6.714   7.956   6.547
  132POPC   C4A 1893   6.490   8.027   6.181
  132POPC   C1B 1894   6.248   7.768   7.355
  132POPC   C2B 1895   6.273   7.862   6.905
  132POPC   C3B 1896   6.295   7.668   6.486
  132POPC   C4B 1897   5.996   7.640   6.184
  133POPC   NC3 1898   5.470   1.091   8.238
  133POPC   PO4 1899   5.951   1.464   8.027
  133POPC   GL1 1900   5.849   1.413   7.630
  133POPC   GL2 1901   5.595   1.186   7.687
  133POPC   C1A 1902   5.660   1.475   7.230
  133POPC   D2A 1903   5.883   1.581   6.918
  133POPC   C3A 1904   5.699   1.536   6.575
  133POPC   C4A 1905   5.876   1.385   6.213
  133POPC   C1B 1906   5.788   0.994   7.302
  133POPC   C2B 1907   5.686   1.103   6.886
  133POPC   C3B 1908   5.601   1.034   6.456
  133POPC   C4B 1909   5.309   1.306   6.295
  134POPC   NC3 1910   4.666   7.689   7.953
  134POPC   PO4 1911   5.324   7.872   7.949
  134POPC   GL1 1912   5.113   7.978   7.608
  134POPC   GL2 1913   4.787   8.118   7.647
  134POPC   C1A 1914   5.184   7.743   7.242
  134POPC   D2A 1915   4.934   7.577   6.938
  134POPC   C3A 1916   5.085   7.567   6.537
  134POPC   C4A 1917   5.175   7.725   6.129
  134POPC   C1B 1918   4.777   8.075   7.204
  134POPC   C2B 1919   4.629   7.966   6.812
  134POPC   C3B 1920   4.792   7.947   6.418
  134POPC   C4B 1921   4.677   7.967   6.026
  135POPC   NC3 1922   1.044   8.262   8.050
  135POPC   PO4 1923   0.409   7.959   7.984
  135POPC   GL1 1924   0.720   8.030   7.649
  135POPC   GL2 1925   1.062   8.107   7.584
  135POPC   C1A 1926   0.722   7.984   7.239
  135POPC   D2A 1927   0.946   8.184   6.925
  135POPC   C3A 1928   0.810   8.104   6.482
  135POPC   C4A 1929   0.882   8.161   6.057
  135POPC   C1B 1930   1.247   7.879   7.258
  135POPC   C2B 1931   1.355   7.566   6.956
  135POPC   C3B 1932   1.199   7.825   6.660
  135POPC   C4B 1933   1.265   7.883   6.231
  136POPC   NC3 1934   8.661   6.511   8.160
  136POPC   PO4 1935   8.146   6.068   8.197
  136POPC   GL1 1936   8.491   6.135   7.831
  136POPC   GL2 1937   8.487   6.462   7.662
  136POPC   C1A 1938   8.600   6.103   7.356
  136POPC   D2A 1939   8.469   5.955   6.966
  136POPC   C3A 1940   8.416   6.159   6.578
  136POPC   C4A 1941   8.245   6.149   6.176
  136POPC   C1B 1942   8.664   6.636   7.229
  136POPC   C2B 1943   8.477   6.675   6.825
  136POPC   C3B 1944   8.688   6.562   6.456
  136POPC   C4B 1945   8.746   6.245   6.151
  137POPC   NC3 1946   5.612   7.528   7.952
  137POPC   PO4 1947   6.119   7.960   8.031
  137POPC   GL1 1948   5.835   7.941   7.649
  137POPC   GL2 1949   5.582   8.185   7.517
  137POPC   C1A 1950   5.730   7.805   7.206
  137POPC   D2A 1951   5.842   7.577   6.808
  137POPC   C3A 1952   5.574   7.618   6.454
  137POPC   C4A 1953   5.550   7.388   6.049
  137POPC   C1B 1954   5.265   8.240   7.191
  137POPC   C2B 1955   5.145   8.053   6.806
  137POPC   C3B 1956   5.299   8.130   6.394
  137POPC   C4B 1957   5.621   7.974   6.083
  138POPC   NC3 1958   8.411   5.620   8.078
  138POPC   PO4 1959   9.090   5.823   8.077
  138POPC   GL1 1960   8.892   5.785   7.659
  138POPC   GL2 1961   8.590   5.643   7.612
  138POPC   C1A 1962   8.907   5.696   7.202
  138POPC   D2A 1963   9.107   5.854   6.849
  138POPC   C3A 1964   8.839   5.882   6.506
  138POPC   C4A 1965   8.988   5.794   6.098
  138POPC   C1B 1966   8.451   5.481   7.237
  138POPC   C2B 1967   8.620   5.513   6.796
  138POPC   C3B 1968   8.695   5.388   6.386
  138POPC   C4B 1969   8.515   5.687   6.145
  139POPC   NC3 1970   3.917   8.316   7.739
  139POPC   PO4 1971   4.437   8.093   8.016
  139POPC   GL1 1972   4.277   7.920   7.626
  139POPC   GL2 1973   3.911   7.819   7.570
  139POPC   C1A 1974   4.300   7.773   7.190
  139POPC   D2A 1975   4.035   7.678   6.827
  139POPC   C3A 1976   4.300   7.761   6.463
  139POPC   C4A 1977   4.353   7.574   6.072
  139POPC   C1B 1978   3.848   8.041   7.162
  139POPC   C2B 1979   3.670   8.018   6.747
  139POPC   C3B 1980   3.859   8.136   6.361
  139POPC   C4B 1981   3.881   7.745   6.196
  140POPC   NC3 1982   3.152   7.886   8.122
  140POPC   PO4 1983   3.480   8.326   7.845
  140POPC   GL1 1984   3.355   8.130   7.533
  140POPC   GL2 1985   3.397   7.810   7.678
  140POPC   C1A 1986   3.343   8.207   7.102
  140POPC   D2A 1987   3.051   8.301   6.811
  140POPC   C3A 1988   3.077   8.048   6.480
  140POPC   C4A 1989   3.371   8.079   6.170
  140POPC   C1B 1990   3.483   7.722   7.235
  140POPC   C2B 1991   3.463   7.557   6.833
  140POPC   C3B 1992   3.433   7.632   6.394
  140POPC   C4B 1993   3.462   7.607   5.921
  141POPC   NC3 1994   3.522   9.699   8.030
  141POPC   PO4 1995   3.206   9.088   8.151
  141POPC   GL1 1996   3.242   9.326   7.772
  141POPC   GL2 1997   3.571   9.240   7.834
  141POPC   C1A 1998   3.170   9.490   7.321
  141POPC   D2A 1999   3.126   9.246   6.933
  141POPC   C3A 2000   3.239   9.325   6.520
  141POPC   C4A 2001   3.316   9.607   6.193
  141POPC   C1B 2002   3.578   9.201   7.401
  141POPC   C2B 2003   3.638   9.184   6.959
  141POPC   C3B 2004   3.616   8.976   6.571
  141POPC   C4B 2005   3.597   9.164   6.191
  142POPC   NC3 2006   3.462   6.118   8.052
  142POPC   PO4 2007   3.591   6.760   8.088
  142POPC   GL1 2008   3.231   6.641   7.768
  142POPC   GL2 2009   3.294   6.331   7.579
  142POPC   C1A 2010   3.273   6.754   7.288
  142POPC   D2A 2011   3.168   6.756   6.836
  142POPC   C3A 2012   3.480   6.657   6.485
  142POPC   C4A 2013   3.428   6.460   6.049
  142POPC   C1B 2014   3.567   6.359   7.174
  142POPC   C2B 2015   3.687   6.166   6.757
  142POPC   C3B 2016   3.791   6.242   6.327
  142POPC   C4B 2017   3.611   5.977   5.972
  143POPC   NC3 2018   1.969   2.507   8.084
  143POPC   PO4 2019   1.694   3.133   8.081
  143POPC   GL1 2020   1.774   2.955   7.670
  143POPC   GL2 2021   2.045   2.734   7.636
  143POPC   C1A 2022   1.671   2.688   7.317
  143POPC   D2A 2023   1.521   2.660   6.905
  143POPC   C3A 2024   1.726   2.816   6.557
  143POPC   C4A 2025   1.632   2.625   6.173
  143POPC   C1B 2026   2.239   2.577   7.239
  143POPC   C2B 2027   2.333   2.563   6.784
  143POPC   C3B 2028   2.315   2.660   6.338
  143POPC   C4B 2029   2.122   2.995   6.117
  144POPC   NC3 2030   2.740   3.183   8.094
  144POPC   PO4 2031   2.432   3.704   8.368
  144POPC   GL1 2032   2.534   3.592   7.858
  144POPC   GL2 2033   2.807   3.412   7.649
  144POPC   C1A 2034   2.386   3.587   7.398
  144POPC   D2A 2035   2.365   3.393   6.967
  144POPC   C3A 2036   2.588   3.615   6.660
  144POPC   C4A 2037   2.521   3.798   6.265
  144POPC   C1B 2038   2.820   3.394   7.195
  144POPC   C2B 2039   2.958   3.280   6.807
  144POPC   C3B 2040   2.976   3.418   6.369
  144POPC   C4B 2041   2.918   3.225   5.925
  145POPC   NC3 2042   0.799   2.641   8.120
  145POPC   PO4 2043   0.167   2.548   8.152
  145POPC   GL1 2044   0.346   2.881   7.845
  145POPC   GL2 2045   0.445   2.594   7.710
  145POPC   C1A 2046   0.503   3.098   7.425
  145POPC   D2A 2047   0.686   3.006   7.023
  145POPC   C3A 2048   0.558   3.083   6.592
  145POPC   C4A 2049   0.352   2.992   6.187
  145POPC   C1B 2050   0.559   2.598   7.297
  145POPC   C2B 2051   0.641   2.510   6.875
  145POPC   C3B 2052   0.496   2.580   6.468
  145POPC   C4B 2053   0.630   2.396   6.112
  146POPC   NC3 2054   7.857   8.754   8.175
  146POPC   PO4 2055   8.451   8.809   8.142
  146POPC   GL1 2056   8.256   8.599   7.785
  146POPC   GL2 2057   7.903   8.614   7.709
  146POPC   C1A 2058   8.204   8.427   7.358
  146POPC   D2A 2059   8.099   8.643   6.987
  146POPC   C3A 2060   8.145   8.529   6.564
  146POPC   C4A 2061   8.177   8.796   6.198
  146POPC   C1B 2062   7.997   8.961   7.426
  146POPC   C2B 2063   7.858   9.078   7.003
  146POPC   C3B 2064   7.794   8.918   6.563
  146POPC   C4B 2065   7.721   8.602   6.210
  147POPC   NC3 2066   1.223   9.792   8.313
  147POPC   PO4 2067   0.898   9.361   8.047
  147POPC   GL1 2068   1.275   9.517   7.827
  147POPC   GL2 2069   1.250   9.222   7.685
  147POPC   C1A 2070   1.488   9.509   7.370
  147POPC   D2A 2071   1.304   9.247   7.021
  147POPC   C3A 2072   1.403   9.353   6.574
  147POPC   C4A 2073   1.415   9.120   6.191
  147POPC   C1B 2074   0.996   9.504   7.368
  147POPC   C2B 2075   0.818   9.593   6.969
  147POPC   C3B 2076   0.852   9.441   6.547
  147POPC   C4B 2077   0.868   9.405   6.120
  148POPC   NC3 2078   9.663   4.399   8.108
  148POPC   PO4 2079   9.518   5.004   8.203
  148POPC   GL1 2080   9.528   4.786   7.780
  148POPC   GL2 2081   9.228   4.630   7.728
  148POPC   C1A 2082   9.787   4.755   7.387
  148POPC   D2A 2083   9.674   4.628   6.978
  148POPC   C3A 2084   9.699   4.937   6.652
  148POPC   C4A 2085   9.791   4.856   6.248
  148POPC   C1B 2086   9.287   4.858   7.329
  148POPC   C2B 2087   9.187   4.828   6.904
  148POPC   C3B 2088   9.214   4.980   6.505
  148POPC   C4B 2089   9.303   4.784   6.130
  149POPC   NC3 2090   0.922   1.364   7.809
  149POPC   PO4 2091   1.507   1.389   7.999
  149POPC   GL1 2092   1.300   1.091   7.596
  149POPC   GL2 2093   0.889   0.977   7.493
  149POPC   C1A 2094   1.252   0.886   7.173
  149POPC   D2A 2095   1.067   1.004   6.765
  149POPC   C3A 2096   1.383   0.960   6.412
  149POPC   C4A 2097   1.476   1.275   6.076
  149POPC   C1B 2098   0.758   1.320   7.185
  149POPC   C2B 2099   0.657   1.508   6.795
  149POPC   C3B 2100   0.881   1.417   6.452
  149POPC   C4B 2101   0.897   1.035   6.262
  150POPC   NC3 2102   7.894   7.149   8.229
  150POPC   PO4 2103   8.186   7.657   7.948
  150POPC   GL1 2104   7.937   7.439   7.618
  150POPC   GL2 2105   7.758   7.135   7.726
  150POPC   C1A 2106   7.962   7.397   7.178
  150POPC   D2A 2107   7.947   7.610   6.817
  150POPC   C3A 2108   8.027   7.527   6.384
  150POPC   C4A 2109   7.823   7.681   6.021
  150POPC   C1B 2110   7.823   6.924   7.333
  150POPC   C2B 2111   7.983   6.859   6.922
  150POPC   C3B 2112   8.011   7.034   6.530
  150POPC   C4B 2113   7.720   6.916   6.222
  151POPC   NC3 2114   5.878   9.972   8.123
  151POPC   PO4 2115   5.487   0.022   8.010
  151POPC   GL1 2116   5.617  10.327   7.638
  151POPC   GL2 2117   5.637   9.957   7.686
  151POPC   C1A 2118   5.748  10.477   7.224
  151POPC   D2A 2119   5.503   0.141   6.848
  151POPC   C3A 2120   5.415   0.049   6.419
  151POPC   C4A 2121   5.799   0.055   6.172
  151POPC   C1B 2122   5.489   9.965   7.290
  151POPC   C2B 2123   5.614  10.127   6.883
  151POPC   C3B 2124   5.646  10.113   6.457
  151POPC   C4B 2125   5.517   9.811   6.185
  152POPC   NC3 2126   6.275   2.550   8.067
  152POPC   PO4 2127   6.941   2.473   8.173
  152POPC   GL1 2128   6.762   2.601   7.742
  152POPC   GL2 2129   6.387   2.614   7.589
  152POPC   C1A 2130   6.737   2.440   7.313
  152POPC   D2A 2131   6.424   2.579   7.028
  152POPC   C3A 2132   6.599   2.616   6.650
  152POPC   C4A 2133   6.784   2.485   6.264
  152POPC   C1B 2134   6.090   2.820   7.321
  152POPC   C2B 2135   6.014   2.861   6.856
  152POPC   C3B 2136   6.192   2.796   6.434
  152POPC   C4B 2137   6.290   2.345   6.333
  153POPC   NC3 2138  10.208   5.953   8.038
  153POPC   PO4 2139   0.102   6.506   8.210
  153POPC   GL1 2140  10.321   6.443   7.799
  153POPC   GL2 2141   9.944   6.307   7.755
  153POPC   C1A 2142  10.295   6.258   7.367
  153POPC   D2A 2143   0.048   6.184   7.003
  153POPC   C3A 2144  10.358   6.211   6.608
  153POPC   C4A 2145  10.462   6.381   6.213
  153POPC   C1B 2146   9.841   6.485   7.315
  153POPC   C2B 2147  10.106   6.542   6.933
  153POPC   C3B 2148  10.109   6.653   6.492
  153POPC   C4B 2149   9.990   6.623   6.026
  154POPC   NC3 2150   8.203   4.960   8.022
  154POPC   PO4 2151   7.754   4.479   7.940
  154POPC   GL1 2152   7.892   4.567   7.565
  154POPC   GL2 2153   8.206   4.656   7.610
  154POPC   C1A 2154   7.791   4.647   7.148
  154POPC   D2A 2155   7.850   4.851   6.758
  154POPC   C3A 2156   7.521   4.892   6.445
  154POPC   C4A 2157   7.462   5.023   6.009
  154POPC   C1B 2158   8.112   5.029   7.320
  154POPC   C2B 2159   8.178   5.226   6.904
  154POPC   C3B 2160   8.283   5.108   6.533
  154POPC   C4B 2161   8.018   4.916   6.286
  155POPC   NC3 2162   6.324   8.345   8.217
  155POPC   PO4 2163   6.756   8.827   8.020
  155POPC   GL1 2164   6.524   8.843   7.641
  155POPC   GL2 2165   6.469   8.509   7.701
  155POPC   C1A 2166   6.509   8.780   7.169
  155POPC   D2A 2167   6.333   8.914   6.750
  155POPC   C3A 2168   6.480   8.866   6.305
  155POPC   C4A 2169   6.408   8.930   5.834
  155POPC   C1B 2170   6.254   8.289   7.383
  155POPC   C2B 2171   6.164   8.414   6.943
  155POPC   C3B 2172   6.382   8.411   6.539
  155POPC   C4B 2173   6.778   8.452   6.319
  156POPC   NC3 2174   9.217   0.899   8.359
  156POPC   PO4 2175   9.313   1.409   8.041
  156POPC   GL1 2176   9.259   1.356   7.613
  156POPC   GL2 2177   9.649   1.328   7.620
  156POPC   C1A 2178   9.348   1.059   7.257
  156POPC   D2A 2179   9.228   0.875   6.912
  156POPC   C3A 2180   9.091   1.258   6.689
  156POPC   C4A 2181   8.957   1.295   6.261
  156POPC   C1B 2182   9.806   1.231   7.191
  156POPC   C2B 2183   9.588   1.216   6.799
  156POPC   C3B 2184   9.491   1.143   6.356
  156POPC   C4B 2185   9.692   1.054   5.957
  157POPC   NC3 2186   1.718   4.273   8.139
  157POPC   PO4 2187   2.162   3.916   7.946
  157POPC   GL1 2188   1.848   4.074   7.672
  157POPC   GL2 2189   1.813   4.460   7.679
  157POPC   C1A 2190   1.870   3.886   7.279
  157POPC   D2A 2191   2.127   3.826   6.922
  157POPC   C3A 2192   1.892   3.841   6.566
  157POPC   C4A 2193   2.026   3.919   6.190
  157POPC   C1B 2194   1.990   4.387   7.268
  157POPC   C2B 2195   1.821   4.242   6.881
  157POPC   C3B 2196   1.877   4.365   6.444
  157POPC   C4B 2197   1.977   4.372   5.965
  158POPC   NC3 2198   4.029   1.800   8.043
  158POPC   PO4 2199   4.592   1.669   7.718
  158POPC   GL1 2200   4.429   2.009   7.485
  158POPC   GL2 2201   4.091   2.024   7.585
  158POPC   C1A 2202   4.232   2.021   7.074
  158POPC   D2A 2203   4.156   2.331   6.772
  158POPC   C3A 2204   4.363   2.250   6.424
  158POPC   C4A 2205   4.541   1.850   6.317
  158POPC   C1B 2206   3.992   1.641   7.364
  158POPC   C2B 2207   4.052   1.382   6.991
  158POPC   C3B 2208   4.205   1.584   6.624
  158POPC   C4B 2209   4.004   1.880   6.373
  159POPC   NC3 2210   2.813   2.645   8.238
  159POPC   PO4 2211   2.368   2.430   7.857
  159POPC   GL1 2212   2.613   2.769   7.772
  159POPC   GL2 2213   2.967   2.688   7.745
  159POPC   C1A 2214   2.688   2.977   7.425
  159POPC   D2A 2215   2.541   2.934   7.039
  159POPC   C3A 2216   2.679   2.901   6.648
  159POPC   C4A 2217   2.581   3.118   6.310
  159POPC   C1B 2218   2.812   2.491   7.364
  159POPC   C2B 2219   2.795   2.343   6.963
  159POPC   C3B 2220   2.957   2.453   6.610
  159POPC   C4B 2221   2.819   2.645   6.239
  160POPC   NC3 2222   7.309   3.549   8.052
  160POPC   PO4 2223   6.771   3.372   8.332
  160POPC   GL1 2224   6.946   3.341   7.782
  160POPC   GL2 2225   7.334   3.353   7.606
  160POPC   C1A 2226   6.957   3.530   7.283
  160POPC   D2A 2227   7.077   3.654   6.803
  160POPC   C3A 2228   6.788   3.698   6.408
  160POPC   C4A 2229   6.885   3.704   5.937
  160POPC   C1B 2230   7.130   3.057   7.355
  160POPC   C2B 2231   7.076   3.148   6.920
  160POPC   C3B 2232   7.301   3.179   6.543
  160POPC   C4B 2233   7.188   3.445   6.251
  161POPC   NC3 2234   6.545   3.619   8.030
  161POPC   PO4 2235   6.446   2.966   7.979
  161POPC   GL1 2236   6.558   3.087   7.579
  161POPC   GL2 2237   6.501   3.437   7.515
  161POPC   C1A 2238   6.643   3.033   7.161
  161POPC   D2A 2239   6.622   3.376   6.865
  161POPC   C3A 2240   6.514   3.223   6.470
  161POPC   C4A 2241   6.491   3.400   6.083
  161POPC   C1B 2242   6.203   3.301   7.166
  161POPC   C2B 2243   6.080   3.351   6.714
  161POPC   C3B 2244   6.004   3.557   6.309
  161POPC   C4B 2245   5.906   3.969   6.049
  162POPC   NC3 2246   3.485   2.160   8.159
  162POPC   PO4 2247   2.890   2.011   8.175
  162POPC   GL1 2248   3.207   1.856   7.797
  162POPC   GL2 2249   3.575   1.990   7.687
  162POPC   C1A 2250   3.181   1.978   7.327
  162POPC   D2A 2251   3.216   2.043   6.858
  162POPC   C3A 2252   3.173   1.662   6.640
  162POPC   C4A 2253   3.025   1.635   6.224
  162POPC   C1B 2254   3.711   2.150   7.250
  162POPC   C2B 2255   3.722   2.067   6.785
  162POPC   C3B 2256   3.505   1.965   6.389
  162POPC   C4B 2257   3.689   2.242   6.087
  163POPC   NC3 2258   3.972   7.037   8.105
  163POPC   PO4 2259   3.452   7.525   8.118
  163POPC   GL1 2260   3.639   7.359   7.720
  163POPC   GL2 2261   3.536   7.029   7.628
  163POPC   C1A 2262   3.736   7.305   7.264
  163POPC   D2A 2263   3.594   7.064   6.911
  163POPC   C3A 2264   3.799   7.279   6.559
  163POPC   C4A 2265   3.745   7.260   6.151
  163POPC   C1B 2266   3.227   7.265   7.349
  163POPC   C2B 2267   3.069   7.242   6.925
  163POPC   C3B 2268   3.283   7.155   6.502
  163POPC   C4B 2269   3.335   6.984   6.079
  164POPC   NC3 2270   1.907   5.075   8.169
  164POPC   PO4 2271   1.408   4.621   8.021
  164POPC   GL1 2272   1.603   4.949   7.737
  164POPC   GL2 2273   1.989   4.952   7.692
  164POPC   C1A 2274   1.709   4.806   7.296
  164POPC   D2A 2275   1.958   4.763   6.894
  164POPC   C3A 2276   1.769   4.939   6.535
  164POPC   C4A 2277   1.618   4.727   6.177
  164POPC   C1B 2278   2.196   4.980   7.293
  164POPC   C2B 2279   2.367   5.128   6.890
  164POPC   C3B 2280   2.248   5.132   6.462
  164POPC   C4B 2281   2.144   4.754   6.244
  165POPC   NC3 2282   6.939   8.402   7.992
  165POPC   PO4 2283   7.405   8.834   8.214
  165POPC   GL1 2284   7.230   8.839   7.797
  165POPC   GL2 2285   7.386   8.554   7.648
  165POPC   C1A 2286   7.014   8.829   7.388
  165POPC   D2A 2287   6.964   8.574   7.004
  165POPC   C3A 2288   6.842   8.813   6.676
  165POPC   C4A 2289   6.979   8.949   6.291
  165POPC   C1B 2290   7.655   8.611   7.267
  165POPC   C2B 2291   7.610   8.519   6.834
  165POPC   C3B 2292   7.323   8.658   6.535
  165POPC   C4B 2293   7.232   8.532   6.105
  166POPC   NC3 2294   3.100   0.553   8.243
  166POPC   PO4 2295   3.715   0.782   8.411
  166POPC   GL1 2296   3.545   0.602   7.950
  166POPC   GL2 2297   3.391   0.280   7.834
  166POPC   C1A 2298   3.594   0.559   7.453
  166POPC   D2A 2299   3.371   0.694   7.041
  166POPC   C3A 2300   3.405   0.530   6.614
  166POPC   C4A 2301   3.239   0.649   6.231
  166POPC   C1B 2302   3.154   0.286   7.433
  166POPC   C2B 2303   3.171   0.217   6.967
  166POPC   C3B 2304   3.224   0.025   6.529
  166POPC   C4B 2305   3.445   0.147   6.136
  167POPC   NC3 2306   3.801   8.947   8.245
  167POPC   PO4 2307   4.187   9.027   7.758
  167POPC   GL1 2308   4.205   8.697   7.520
  167POPC   GL2 2309   4.389   8.450   7.658
  167POPC   C1A 2310   4.232   8.744   7.110
  167POPC   D2A 2311   4.068   8.932   6.802
  167POPC   C3A 2312   4.007   8.649   6.464
  167POPC   C4A 2313   4.008   8.901   6.102
  167POPC   C1B 2314   4.306   8.267   7.235
  167POPC   C2B 2315   4.176   8.193   6.800
  167POPC   C3B 2316   4.389   8.267   6.436
  167POPC   C4B 2317   4.384   8.504   6.108
  168POPC   NC3 2318   9.943   2.421   8.192
  168POPC   PO4 2319  10.217   1.829   8.090
  168POPC   GL1 2320  10.483   1.876   7.738
  168POPC   GL2 2321  10.223   2.105   7.627
  168POPC   C1A 2322  10.463   1.825   7.292
  168POPC   D2A 2323  10.285   2.047   6.957
  168POPC   C3A 2324  10.397   1.849   6.613
  168POPC   C4A 2325  10.322   1.735   6.239
  168POPC   C1B 2326   9.913   1.958   7.310
  168POPC   C2B 2327   9.779   2.169   6.901
  168POPC   C3B 2328   9.971   2.092   6.496
  168POPC   C4B 2329  10.207   2.286   6.157
  169POPC   NC3 2330   1.351   7.299   8.158
  169POPC   PO4 2331   0.964   7.803   8.011
  169POPC   GL1 2332   1.019   7.582   7.600
  169POPC   GL2 2333   1.343   7.416   7.658
  169POPC   C1A 2334   0.888   7.513   7.131
  169POPC   D2A 2335   0.869   7.390   6.694
  169POPC   C3A 2336   1.221   7.377   6.452
  169POPC   C4A 2337   1.132   7.412   6.034
  169POPC   C1B 2338   1.183   7.165   7.348
  169POPC   C2B 2339   1.198   7.083   6.931
  169POPC   C3B 2340   1.016   6.895   6.588
  169POPC   C4B 2341   1.185   6.947   6.193
  170POPC   NC3 2342  10.366   2.994   8.059
  170POPC   PO4 2343   9.711   2.765   7.964
  170POPC   GL1 2344  10.039   2.588   7.693
  170POPC   GL2 2345  10.401   2.588   7.724
  170POPC   C1A 2346  10.169   2.472   7.261
  170POPC   D2A 2347   9.912   2.656   6.944
  170POPC   C3A 2348  10.069   2.603   6.548
  170POPC   C4A 2349   9.870   2.709   6.162
  170POPC   C1B 2350   0.060   2.798   7.368
  170POPC   C2B 2351  10.372   2.881   6.971
  170POPC   C3B 2352   0.048   2.827   6.583
  170POPC   C4B 2353  10.356   2.877   6.191
  171POPC   NC3 2354  10.106   9.355   8.043
  171POPC   PO4 2355   0.048   8.848   7.922
  171POPC   GL1 2356  10.295   9.137   7.631
  171POPC   GL2 2357  10.325   9.549   7.645
  171POPC   C1A 2358  10.118   9.232   7.246
  171POPC   D2A 2359  10.342   9.245   6.864
  171POPC   C3A 2360  10.173   9.201   6.444
  171POPC   C4A 2361   0.051   9.049   6.236
  171POPC   C1B 2362  10.401   9.645   7.251
  171POPC   C2B 2363  10.160   9.719   6.926
  171POPC   C3B 2364  10.363   9.664   6.551
  171POPC   C4B 2365  10.371   9.542   6.137
  172POPC   NC3 2366   0.038   6.905   7.981
  172POPC   PO4 2367   9.902   7.213   8.099
  172POPC   GL1 2368  10.114   7.091   7.728
  172POPC   GL2 2369  10.270   7.363   7.593
  172POPC   C1A 2370  10.164   6.943   7.298
  172POPC   D2A 2371   9.993   7.066   6.892
  172POPC   C3A 2372  10.313   7.124   6.582
  172POPC   C4A 2373  10.340   6.987   6.195
  172POPC   C1B 2374   9.962   7.446   7.321
  172POPC   C2B 2375   9.859   7.583   6.924
  172POPC   C3B 2376   9.936   7.460   6.521
  172POPC   C4B 2377  10.081   7.418   6.128
  173POPC   NC3 2378   8.427   2.288   8.037
  173POPC   PO4 2379   8.148   2.936   8.093
  173POPC   GL1 2380   8.505   2.803   7.756
  173POPC   GL2 2381   8.480   2.484   7.548
  173POPC   C1A 2382   8.708   2.875   7.319
  173POPC   D2A 2383   8.491   2.684   6.931
  173POPC   C3A 2384   8.462   2.921   6.524
  173POPC   C4A 2385   8.793   2.916   6.198
  173POPC   C1B 2386   8.836   2.366   7.204
  173POPC   C2B 2387   8.973   2.324   6.773
  173POPC   C3B 2388   8.715   2.488   6.462
  173POPC   C4B 2389   8.359   2.483   6.189
  174POPC   NC3 2390   6.402   0.675   4.049
  174POPC   PO4 2391   6.818   0.180   3.964
  174POPC   GL1 2392   6.612   0.320   4.327
  174POPC   GL2 2393   6.274   0.217   4.276
  174POPC   C1A 2394   6.707   0.593   4.679
  174POPC   D2A 2395   6.637   0.348   5.033
  174POPC   C3A 2396   6.563   0.501   5.410
  174POPC   C4A 2397   6.611   0.223   5.761
  174POPC   C1B 2398   6.227   0.426   4.677
  174POPC   C2B 2399   6.098   0.308   5.097
  174POPC   C3B 2400   6.119   0.319   5.527
  174POPC   C4B 2401   6.316   0.650   5.853
  175POPC   NC3 2402   5.629   2.166   3.923
  175POPC   PO4 2403   6.108   1.568   3.853
  175POPC   GL1 2404   6.104   1.712   4.292
  175POPC   GL2 2405   5.743   1.818   4.300
  175POPC   C1A 2406   5.957   1.720   4.752
  175POPC   D2A 2407   5.651   1.794   5.082
  175POPC   C3A 2408   5.821   1.958   5.465
  175POPC   C4A 2409   5.875   1.696   5.811
  175POPC   C1B 2410   5.625   2.098   4.655
  175POPC   C2B 2411   5.301   2.148   4.974
  175POPC   C3B 2412   5.342   2.242   5.381
  175POPC   C4B 2413   5.302   2.345   5.792
  176POPC   NC3 2414   0.053   9.562   4.051
  176POPC   PO4 2415   0.588   9.842   3.710
  176POPC   GL1 2416   0.636   9.610   4.117
  176POPC   GL2 2417   0.466   9.283   4.150
  176POPC   C1A 2418   0.748   9.588   4.556
  176POPC   D2A 2419   0.894   9.586   4.984
  176POPC   C3A 2420   0.640   9.378   5.238
  176POPC   C4A 2421   0.635   9.382   5.663
  176POPC   C1B 2422   0.261   9.194   4.564
  176POPC   C2B 2423   0.177   9.351   4.969
  176POPC   C3B 2424   0.184   9.225   5.381
  176POPC   C4B 2425   0.144   9.350   5.782
  177POPC   NC3 2426   3.535   0.985   3.755
  177POPC   PO4 2427   3.422   0.343   3.963
  177POPC   GL1 2428   3.447   0.412   4.353
  177POPC   GL2 2429   3.642   0.146   4.398
  177POPC   C1A 2430   3.477   0.503   4.777
  177POPC   D2A 2431   3.701   0.574   5.122
  177POPC   C3A 2432   3.617   0.804   5.470
  177POPC   C4A 2433   3.568   0.570   5.852
  177POPC   C1B 2434   3.287   0.038   4.663
  177POPC   C2B 2435   3.157   0.209   5.054
  177POPC   C3B 2436   3.265   0.433   5.404
  177POPC   C4B 2437   3.112   0.373   5.799
  178POPC   NC3 2438   2.956   4.358   4.001
  178POPC   PO4 2439   2.377   4.494   3.752
  178POPC   GL1 2440   2.437   4.390   4.196
  178POPC   GL2 2441   2.589   4.069   4.215
  178POPC   C1A 2442   2.603   4.356   4.632
  178POPC   D2A 2443   2.491   4.188   5.043
  178POPC   C3A 2444   2.609   4.390   5.450
  178POPC   C4A 2445   2.968   4.494   5.725
  178POPC   C1B 2446   2.956   3.995   4.567
  178POPC   C2B 2447   2.973   3.951   5.024
  178POPC   C3B 2448   3.171   4.091   5.428
  178POPC   C4B 2449   3.276   4.075   5.864
  179POPC   NC3 2450   9.490   8.008   3.640
  179POPC   PO4 2451   8.856   8.029   3.859
  179POPC   GL1 2452   9.123   8.075   4.270
  179POPC   GL2 2453   9.480   7.998   4.375
  179POPC   C1A 2454   9.148   7.937   4.721
  179POPC   D2A 2455   9.471   7.964   5.051
  179POPC   C3A 2456   9.250   7.878   5.404
  179POPC   C4A 2457   9.481   7.928   5.734
  179POPC   C1B 2458   9.616   7.658   4.641
  179POPC   C2B 2459   9.857   7.587   5.000
  179POPC   C3B 2460   9.828   7.722   5.395
  179POPC   C4B 2461   9.800   7.510   5.726
  180POPC   NC3 2462   9.404   6.484   3.867
  180POPC   PO4 2463   9.910   6.949   3.963
  180POPC   GL1 2464   9.773   6.690   4.335
  180POPC   GL2 2465   9.397   6.605   4.372
  180POPC   C1A 2466   9.702   6.615   4.769
  180POPC   D2A 2467   9.674   6.355   5.157
  180POPC   C3A 2468   9.688   6.595   5.572
  180POPC   C4A 2469   9.476   6.625   6.016
  180POPC   C1B 2470   9.311   6.308   4.773
  180POPC   C2B 2471   9.167   6.234   5.174
  180POPC   C3B 2472   9.208   6.400   5.553
  180POPC   C4B 2473   9.207   6.204   5.930
  181POPC   NC3 2474   3.225   7.231   4.055
  181POPC   PO4 2475   3.847   7.401   3.963
  181POPC   GL1 2476   3.626   7.396   4.411
  181POPC   GL2 2477   3.235   7.444   4.512
  181POPC   C1A 2478   3.583   7.419   4.891
  181POPC   D2A 2479   3.390   7.279   5.288
  181POPC   C3A 2480   3.613   7.152   5.658
  181POPC   C4A 2481   3.768   6.791   5.906
  181POPC   C1B 2482   3.119   7.034   4.756
  181POPC   C2B 2483   3.150   6.826   5.181
  181POPC   C3B 2484   3.056   7.013   5.590
  181POPC   C4B 2485   3.062   7.452   5.670
  182POPC   NC3 2486   9.689   9.920   3.985
  182POPC   PO4 2487   9.117   9.863   4.266
  182POPC   GL1 2488   9.203  10.167   4.525
  182POPC   GL2 2489   9.448  10.280   4.253
  182POPC   C1A 2490   9.205   9.966   4.943
  182POPC   D2A 2491   9.488   9.884   5.268
  182POPC   C3A 2492   9.427   9.969   5.701
  182POPC   C4A 2493   9.280  10.125   6.127
  182POPC   C1B 2494   9.673  10.396   4.591
  182POPC   C2B 2495   9.551  10.350   4.994
  182POPC   C3B 2496   9.638  10.367   5.411
  182POPC   C4B 2497   9.423  10.461   5.786
  183POPC   NC3 2498   9.561   2.655   3.830
  183POPC   PO4 2499   9.762   2.254   4.366
  183POPC   GL1 2500   9.404   2.556   4.325
  183POPC   GL2 2501   9.200   2.832   4.133
  183POPC   C1A 2502   9.502   2.800   4.681
  183POPC   D2A 2503   9.559   2.553   5.041
  183POPC   C3A 2504   9.408   2.718   5.390
  183POPC   C4A 2505   9.553   2.587   5.773
  183POPC   C1B 2506   9.022   2.848   4.541
  183POPC   C2B 2507   9.112   3.010   4.948
  183POPC   C3B 2508   9.030   3.075   5.371
  183POPC   C4B 2509   9.110   2.862   5.774
  184POPC   NC3 2510   8.823   7.611   4.064
  184POPC   PO4 2511   8.338   8.084   4.199
  184POPC   GL1 2512   8.651   8.207   4.441
  184POPC   GL2 2513   8.708   7.852   4.480
  184POPC   C1A 2514   8.717   8.164   4.867
  184POPC   D2A 2515   8.525   7.938   5.203
  184POPC   C3A 2516   8.577   8.138   5.584
  184POPC   C4A 2517   8.981   8.134   5.768
  184POPC   C1B 2518   8.735   7.615   4.827
  184POPC   C2B 2519   8.530   7.418   5.127
  184POPC   C3B 2520   8.469   7.443   5.565
  184POPC   C4B 2521   8.785   7.681   5.733
  185POPC   NC3 2522   4.673   0.573   3.812
  185POPC   PO4 2523   5.311   0.184   3.918
  185POPC   GL1 2524   5.108   0.369   4.292
  185POPC   GL2 2525   4.771   0.383   4.265
  185POPC   C1A 2526   5.264   0.645   4.662
  185POPC   D2A 2527   5.143   0.810   5.050
  185POPC   C3A 2528   5.058   0.476   5.313
  185POPC   C4A 2529   4.997   0.511   5.740
  185POPC   C1B 2530   4.790   0.426   4.702
  185POPC   C2B 2531   4.607   0.323   5.079
  185POPC   C3B 2532   4.669   0.159   5.502
  185POPC   C4B 2533   4.634   0.188   5.952
  186POPC   NC3 2534   5.723  10.456   3.903
  186POPC   PO4 2535   5.381  10.049   3.592
  186POPC   GL1 2536   5.419  10.224   4.189
  186POPC   GL2 2537   5.758  10.187   4.352
  186POPC   C1A 2538   5.347  10.144   4.662
  186POPC   D2A 2539   5.398  10.137   5.128
  186POPC   C3A 2540   5.289  10.331   5.536
  186POPC   C4A 2541   5.428  10.245   5.977
  186POPC   C1B 2542   5.804  10.314   4.808
  186POPC   C2B 2543   5.832  10.402   5.249
  186POPC   C3B 2544   5.781  10.383   5.657
  186POPC   C4B 2545   5.908  10.106   6.013
  187POPC   NC3 2546  10.423   7.990   3.999
  187POPC   PO4 2547   9.854   8.080   3.910
  187POPC   GL1 2548   9.990   8.030   4.295
  187POPC   GL2 2549  10.012   7.684   4.296
  187POPC   C1A 2550   9.842   8.124   4.684
  187POPC   D2A 2551  10.039   8.057   5.005
  187POPC   C3A 2552   9.869   8.207   5.310
  187POPC   C4A 2553   9.876   8.232   5.734
  187POPC   C1B 2554  10.314   7.751   4.629
  187POPC   C2B 2555   0.000   7.827   5.026
  187POPC   C3B 2556  10.317   7.928   5.413
  187POPC   C4B 2557  10.206   7.811   5.810
  188POPC   NC3 2558   2.849   1.597   3.994
  188POPC   PO4 2559   2.694   0.914   3.876
  188POPC   GL1 2560   2.603   1.193   4.160
  188POPC   GL2 2561   2.971   1.170   4.276
  188POPC   C1A 2562   2.576   1.225   4.577
  188POPC   D2A 2563   2.747   0.995   4.904
  188POPC   C3A 2564   2.412   0.860   5.198
  188POPC   C4A 2565   2.369   0.982   5.615
  188POPC   C1B 2566   3.060   1.433   4.642
  188POPC   C2B 2567   2.929   1.458   5.068
  188POPC   C3B 2568   2.735   1.219   5.369
  188POPC   C4B 2569   2.792   1.261   5.802
  189POPC   NC3 2570   5.649   8.837   3.876
  189POPC   PO4 2571   6.161   8.303   3.874
  189POPC   GL1 2572   5.892   8.362   4.252
  189POPC   GL2 2573   5.771   8.679   4.333
  189POPC   C1A 2574   5.846   8.380   4.722
  189POPC   D2A 2575   6.047   8.515   5.106
  189POPC   C3A 2576   5.956   8.188   5.383
  189POPC   C4A 2577   5.612   8.220   5.636
  189POPC   C1B 2578   5.651   8.987   4.646
  189POPC   C2B 2579   5.766   9.006   5.064
  189POPC   C3B 2580   5.609   8.852   5.447
  189POPC   C4B 2581   5.608   8.988   5.863
  190POPC   NC3 2582   7.378   1.236   3.903
  190POPC   PO4 2583   6.802   0.852   3.918
  190POPC   GL1 2584   7.062   0.978   4.240
  190POPC   GL2 2585   7.079   1.304   4.299
  190POPC   C1A 2586   7.044   0.981   4.701
  190POPC   D2A 2587   7.068   1.136   5.129
  190POPC   C3A 2588   6.890   0.875   5.447
  190POPC   C4A 2589   7.082   0.813   5.875
  190POPC   C1B 2590   7.266   1.441   4.693
  190POPC   C2B 2591   7.087   1.651   4.992
  190POPC   C3B 2592   7.045   1.637   5.390
  190POPC   C4B 2593   7.077   1.283   5.653
  191POPC   NC3 2594   5.862   7.937   3.950
  191POPC   PO4 2595   5.222   8.075   3.957
  191POPC   GL1 2596   5.469   8.092   4.334
  191POPC   GL2 2597   5.797   7.895   4.451
  191POPC   C1A 2598   5.397   8.053   4.751
  191POPC   D2A 2599   5.155   8.230   5.047
  191POPC   C3A 2600   5.137   7.983   5.404
  191POPC   C4A 2601   5.407   7.723   5.668
  191POPC   C1B 2602   5.851   7.887   4.909
  191POPC   C2B 2603   5.791   7.630   5.279
  191POPC   C3B 2604   5.916   7.697   5.681
  191POPC   C4B 2605   6.080   8.080   5.866
  192POPC   NC3 2606   8.097   4.189   3.605
  192POPC   PO4 2607   7.907   4.770   4.015
  192POPC   GL1 2608   7.926   4.480   4.458
  192POPC   GL2 2609   8.080   4.063   4.498
  192POPC   C1A 2610   7.931   4.352   4.880
  192POPC   D2A 2611   8.159   4.037   5.049
  192POPC   C3A 2612   8.077   4.163   5.431
  192POPC   C4A 2613   7.890   4.282   5.826
  192POPC   C1B 2614   7.747   3.882   4.800
  192POPC   C2B 2615   7.680   3.918   5.239
  192POPC   C3B 2616   7.507   3.987   5.666
  192POPC   C4B 2617   7.654   3.875   6.102
  193POPC   NC3 2618   0.376   0.499   3.685
  193POPC   PO4 2619  10.096   0.404   3.829
  193POPC   GL1 2620   9.968   0.238   4.237
  193POPC   GL2 2621  10.132   0.515   4.358
  193POPC   C1A 2622  10.184  10.494   4.589
  193POPC   D2A 2623  10.249   0.016   5.015
  193POPC   C3A 2624  10.217   0.295   5.344
  193POPC   C4A 2625  10.190   0.203   5.759
  193POPC   C1B 2626   9.875   0.357   4.714
  193POPC   C2B 2627   9.748   0.298   5.130
  193POPC   C3B 2628   9.735   0.327   5.586
  193POPC   C4B 2629   9.860   0.587   5.906
  194POPC   NC3 2630   7.231   8.575   4.033
  194POPC   PO4 2631   6.840   8.976   3.680
  194POPC   GL1 2632   6.866   8.875   4.245
  194POPC   GL2 2633   7.155   8.688   4.496
  194POPC   C1A 2634   6.794   8.851   4.742
  194POPC   D2A 2635   7.152   8.759   5.040
  194POPC   C3A 2636   7.081   8.560   5.469
  194POPC   C4A 2637   6.838   8.686   5.837
  194POPC   C1B 2638   7.513   8.526   4.669
  194POPC   C2B 2639   7.764   8.521   5.041
  194POPC   C3B 2640   7.609   8.473   5.454
  194POPC   C4B 2641   7.472   8.790   5.738
  195POPC   NC3 2642   3.827   9.561   3.889
  195POPC   PO4 2643   4.481   9.707   3.862
  195POPC   GL1 2644   4.410   9.363   4.222
  195POPC   GL2 2645   4.160   9.120   4.226
  195POPC   C1A 2646   4.449   9.108   4.648
  195POPC   D2A 2647   4.227   9.189   5.068
  195POPC   C3A 2648   4.489   9.182   5.457
  195POPC   C4A 2649   4.399   9.256   5.911
  195POPC   C1B 2650   4.043   9.419   4.618
  195POPC   C2B 2651   4.056   9.666   5.061
  195POPC   C3B 2652   4.139   9.553   5.500
  195POPC   C4B 2653   3.966   9.163   5.634
  196POPC   NC3 2654   8.766   0.320   3.868
  196POPC   PO4 2655   9.219   0.869   3.958
  196POPC   GL1 2656   9.093   0.744   4.308
  196POPC   GL2 2657   8.867   0.482   4.337
  196POPC   C1A 2658   9.075   0.794   4.700
  196POPC   D2A 2659   8.857   0.899   5.051
  196POPC   C3A 2660   8.991   0.695   5.393
  196POPC   C4A 2661   8.674   0.581   5.602
  196POPC   C1B 2662   8.622   0.525   4.715
  196POPC   C2B 2663   8.706   0.369   5.108
  196POPC   C3B 2664   8.802   0.122   5.446
  196POPC   C4B 2665   8.629   0.142   5.853
  197POPC   NC3 2666  10.244   2.854   3.933
  197POPC   PO4 2667   9.859   2.302   3.771
  197POPC   GL1 2668  10.185   2.429   4.183
  197POPC   GL2 2669  10.472   2.670   4.333
  197POPC   C1A 2670  10.281   2.405   4.700
  197POPC   D2A 2671  10.045   2.679   4.985
  197POPC   C3A 2672   9.927   2.674   5.418
  197POPC   C4A 2673  10.087   2.901   5.751
  197POPC   C1B 2674  10.270   2.949   4.600
  197POPC   C2B 2675  10.399   3.048   5.012
  197POPC   C3B 2676  10.455   2.793   5.353
  197POPC   C4B 2677   0.095   2.912   5.738
  198POPC   NC3 2678   8.348   3.513   3.794
  198POPC   PO4 2679   8.949   3.241   3.906
  198POPC   GL1 2680   8.678   3.334   4.242
  198POPC   GL2 2681   8.757   3.674   4.212
  198POPC   C1A 2682   8.735   3.276   4.700
  198POPC   D2A 2683   8.466   3.182   5.053
  198POPC   C3A 2684   8.545   3.342   5.438
  198POPC   C4A 2685   8.810   3.267   5.787
  198POPC   C1B 2686   8.528   3.751   4.611
  198POPC   C2B 2687   8.562   3.717   5.045
  198POPC   C3B 2688   8.506   3.883   5.432
  198POPC   C4B 2689   8.492   3.679   5.814
  199POPC   NC3 2690   7.953   7.121   3.800
  199POPC   PO4 2691   8.589   7.202   3.928
  199POPC   GL1 2692   8.259   7.307   4.276
  199POPC   GL2 2693   7.918   7.225   4.315
  199POPC   C1A 2694   8.227   7.230   4.748
  199POPC   D2A 2695   7.968   7.058   5.119
  199POPC   C3A 2696   7.980   7.272   5.528
  199POPC   C4A 2697   8.069   7.227   5.986
  199POPC   C1B 2698   7.692   7.242   4.722
  199POPC   C2B 2699   7.576   7.440   5.128
  199POPC   C3B 2700   7.337   7.433   5.508
  199POPC   C4B 2701   7.578   7.278   5.852
  200POPC   NC3 2702   0.412   7.820   3.793
  200POPC   PO4 2703   0.077   8.429   3.977
  200POPC   GL1 2704   0.349   8.113   4.227
  200POPC   GL2 2705   0.264   7.765   4.282
  200POPC   C1A 2706   0.351   8.111   4.683
  200POPC   D2A 2707   0.496   8.007   5.104
  200POPC   C3A 2708   0.257   8.200   5.400
  200POPC   C4A 2709   0.053   8.184   5.793
  200POPC   C1B 2710   0.329   7.601   4.652
  200POPC   C2B 2711   0.382   7.497   5.069
  200POPC   C3B 2712   0.282   7.685   5.479
  200POPC   C4B 2713   0.567   7.978   5.713
  201POPC   NC3 2714   7.290   7.151   3.832
  201POPC   PO4 2715   7.711   6.724   3.962
  201POPC   GL1 2716   7.479   6.985   4.286
  201POPC   GL2 2717   7.405   7.354   4.286
  201POPC   C1A 2718   7.282   6.892   4.673
  201POPC   D2A 2719   7.504   6.821   5.052
  201POPC   C3A 2720   7.544   6.957   5.466
  201POPC   C4A 2721   7.333   6.839   5.879
  201POPC   C1B 2722   7.192   7.380   4.658
  201POPC   C2B 2723   7.137   7.202   5.073
  201POPC   C3B 2724   7.022   7.029   5.482
  201POPC   C4B 2725   7.011   7.246   5.859
  202POPC   NC3 2726   8.865  10.209   4.078
  202POPC   PO4 2727   8.435   9.685   3.914
  202POPC   GL1 2728   8.548   9.924   4.354
  202POPC   GL2 2729   8.495  10.301   4.422
  202POPC   C1A 2730   8.711  10.055   4.793
  202POPC   D2A 2731   8.520  10.389   5.069
  202POPC   C3A 2732   8.472  10.233   5.506
  202POPC   C4A 2733   8.518   9.831   5.760
  202POPC   C1B 2734   8.811   0.054   4.645
  202POPC   C2B 2735   9.043  10.451   4.998
  202POPC   C3B 2736   9.140  10.261   5.382
  202POPC   C4B 2737   8.918  10.225   5.784
  203POPC   NC3 2738   9.553   5.680   3.685
  203POPC   PO4 2739   9.636   6.209   4.178
  203POPC   GL1 2740   9.647   5.877   4.418
  203POPC   GL2 2741   9.566   5.568   4.258
  203POPC   C1A 2742   9.691   5.933   4.821
  203POPC   D2A 2743   9.537   5.825   5.174
  203POPC   C3A 2744   9.558   6.032   5.520
  203POPC   C4A 2745   9.711   6.179   5.882
  203POPC   C1B 2746   9.286   5.543   4.656
  203POPC   C2B 2747   9.416   5.351   5.050
  203POPC   C3B 2748   9.325   5.458   5.466
  203POPC   C4B 2749   9.401   5.676   5.830
  204POPC   NC3 2750   6.431   1.942   3.927
  204POPC   PO4 2751   6.059   2.452   3.873
  204POPC   GL1 2752   6.104   2.221   4.269
  204POPC   GL2 2753   6.446   2.107   4.386
  204POPC   C1A 2754   6.129   2.264   4.732
  204POPC   D2A 2755   6.165   2.045   5.101
  204POPC   C3A 2756   6.228   2.263   5.463
  204POPC   C4A 2757   6.165   2.106   5.871
  204POPC   C1B 2758   6.434   1.840   4.717
  204POPC   C2B 2759   6.607   1.797   5.140
  204POPC   C3B 2760   6.463   1.799   5.571
  204POPC   C4B 2761   6.755   1.609   5.850
  205POPC   NC3 2762   1.756   3.442   3.847
  205POPC   PO4 2763   1.624   2.868   3.916
  205POPC   GL1 2764   1.813   3.160   4.276
  205POPC   GL2 2765   1.725   3.568   4.332
  205POPC   C1A 2766   1.677   3.228   4.710
  205POPC   D2A 2767   1.819   3.062   5.088
  205POPC   C3A 2768   1.825   3.290   5.431
  205POPC   C4A 2769   2.194   3.125   5.615
  205POPC   C1B 2770   2.026   3.609   4.687
  205POPC   C2B 2771   1.951   3.730   5.135
  205POPC   C3B 2772   2.168   3.641   5.533
  205POPC   C4B 2773   1.955   3.479   5.919
  206POPC   NC3 2774   6.311   3.554   3.926
  206POPC   PO4 2775   6.778   3.851   3.935
  206POPC   GL1 2776   6.676   3.672   4.337
  206POPC   GL2 2777   6.392   3.474   4.411
  206POPC   C1A 2778   6.615   3.701   4.803
  206POPC   D2A 2779   6.586   3.441   5.165
  206POPC   C3A 2780   6.527   3.711   5.564
  206POPC   C4A 2781   6.416   3.897   5.997
  206POPC   C1B 2782   6.206   3.353   4.791
  206POPC   C2B 2783   6.159   3.165   5.207
  206POPC   C3B 2784   6.352   3.247   5.602
  206POPC   C4B 2785   6.084   3.524   5.813
  207POPC   NC3 2786   9.790   7.404   3.919
  207POPC   PO4 2787   0.027   7.554   3.862
  207POPC   GL1 2788  10.442   7.376   4.276
  207POPC   GL2 2789  10.256   7.095   4.295
  207POPC   C1A 2790  10.476   7.257   4.727
  207POPC   D2A 2791  10.250   7.167   5.085
  207POPC   C3A 2792  10.256   7.425   5.427
  207POPC   C4A 2793  10.463   7.362   5.804
  207POPC   C1B 2794   9.953   7.251   4.600
  207POPC   C2B 2795   9.726   7.100   4.966
  207POPC   C3B 2796   9.838   7.091   5.393
  207POPC   C4B 2797  10.075   7.057   5.762
  208POPC   NC3 2798   0.135   9.962   3.662
  208POPC   PO4 2799   0.487   0.068   3.908
  208POPC   GL1 2800   0.289  10.369   4.259
  208POPC   GL2 2801   0.327  10.026   4.154
  208POPC   C1A 2802   0.223  10.475   4.717
  208POPC   D2A 2803   0.507  10.485   5.090
  208POPC   C3A 2804   0.469  10.256   5.487
  208POPC   C4A 2805   0.221  10.289   5.852
  208POPC   C1B 2806   0.473  10.033   4.605
  208POPC   C2B 2807   0.429   9.809   4.998
  208POPC   C3B 2808   0.234   9.741   5.407
  208POPC   C4B 2809   0.368   9.800   5.821
  209POPC   NC3 2810   3.893   0.420   4.001
  209POPC   PO4 2811   4.279   0.788   3.679
  209POPC   GL1 2812   4.318   0.650   4.170
  209POPC   GL2 2813   4.260   0.307   4.340
  209POPC   C1A 2814   4.350   0.714   4.626
  209POPC   D2A 2815   4.172   0.711   5.051
  209POPC   C3A 2816   4.368   0.604   5.420
  209POPC   C4A 2817   4.324   0.543   5.815
  209POPC   C1B 2818   4.001   0.329   4.724
  209POPC   C2B 2819   4.101   0.206   5.152
  209POPC   C3B 2820   3.917   0.358   5.539
  209POPC   C4B 2821   3.944   0.258   5.977
  210POPC   NC3 2822   1.925   8.198   3.809
  210POPC   PO4 2823   2.131   7.494   3.757
  210POPC   GL1 2824   2.120   7.615   4.201
  210POPC   GL2 2825   2.022   7.987   4.287
  210POPC   C1A 2826   2.307   7.637   4.616
  210POPC   D2A 2827   2.446   7.761   5.037
  210POPC   C3A 2828   2.239   7.625   5.418
  210POPC   C4A 2829   2.098   7.535   5.821
  210POPC   C1B 2830   1.951   7.964   4.749
  210POPC   C2B 2831   2.018   8.014   5.180
  210POPC   C3B 2832   1.790   7.889   5.509
  210POPC   C4B 2833   1.683   7.834   5.926
  211POPC   NC3 2834   1.756   9.748   4.011
  211POPC   PO4 2835   2.050  10.351   3.808
  211POPC   GL1 2836   1.944  10.205   4.211
  211POPC   GL2 2837   1.565  10.212   4.226
  211POPC   C1A 2838   2.057  10.150   4.664
  211POPC   D2A 2839   2.184  10.351   5.071
  211POPC   C3A 2840   2.081  10.115   5.449
  211POPC   C4A 2841   1.973  10.278   5.819
  211POPC   C1B 2842   1.488  10.201   4.674
  211POPC   C2B 2843   1.715  10.138   5.058
  211POPC   C3B 2844   1.570  10.189   5.467
  211POPC   C4B 2845   1.696   9.862   5.738
  212POPC   NC3 2846   2.315   5.656   3.816
  212POPC   PO4 2847   1.685   5.374   3.710
  212POPC   GL1 2848   1.844   5.451   4.163
  212POPC   GL2 2849   1.524   5.509   4.329
  212POPC   C1A 2850   1.954   5.549   4.652
  212POPC   D2A 2851   2.191   5.844   4.981
  212POPC   C3A 2852   2.321   5.776   5.440
  212POPC   C4A 2853   2.209   5.616   5.866
  212POPC   C1B 2854   1.517   5.801   4.681
  212POPC   C2B 2855   1.714   5.775   5.089
  212POPC   C3B 2856   1.840   5.603   5.525
  212POPC   C4B 2857   1.762   5.817   5.911
  213POPC   NC3 2858   3.109   9.508   3.923
  213POPC   PO4 2859   3.751   9.107   3.809
  213POPC   GL1 2860   3.684   9.259   4.280
  213POPC   GL2 2861   3.604   9.618   4.345
  213POPC   C1A 2862   3.608   9.177   4.719
  213POPC   D2A 2863   3.718   9.103   5.135
  213POPC   C3A 2864   3.645   9.466   5.353
  213POPC   C4A 2865   3.509   9.431   5.774
  213POPC   C1B 2866   3.299   9.579   4.655
  213POPC   C2B 2867   3.206   9.335   5.034
  213POPC   C3B 2868   3.142   9.495   5.438
  213POPC   C4B 2869   2.986   9.755   5.793
  214POPC   NC3 2870   1.765   7.211   3.820
  214POPC   PO4 2871   2.223   6.790   3.906
  214POPC   GL1 2872   2.105   7.070   4.213
  214POPC   GL2 2873   1.784   7.064   4.330
  214POPC   C1A 2874   2.169   7.150   4.652
  214POPC   D2A 2875   2.319   7.271   5.034
  214POPC   C3A 2876   2.169   7.111   5.425
  214POPC   C4A 2877   2.055   7.019   5.854
  214POPC   C1B 2878   1.777   7.472   4.600
  214POPC   C2B 2879   1.856   7.539   5.065
  214POPC   C3B 2880   1.729   7.375   5.500
  214POPC   C4B 2881   1.621   7.320   5.957
  215POPC   NC3 2882   1.774   6.489   3.987
  215POPC   PO4 2883   2.340   6.095   3.937
  215POPC   GL1 2884   2.056   6.139   4.240
  215POPC   GL2 2885   2.180   6.471   4.308
  215POPC   C1A 2886   1.917   6.124   4.660
  215POPC   D2A 2887   1.834   6.318   5.065
  215POPC   C3A 2888   1.876   6.101   5.447
  215POPC   C4A 2889   2.123   6.134   5.785
  215POPC   C1B 2890   2.021   6.651   4.669
  215POPC   C2B 2891   2.178   6.728   5.085
  215POPC   C3B 2892   2.110   6.604   5.536
  215POPC   C4B 2893   1.731   6.510   5.734
  216POPC   NC3 2894   4.646   2.098   4.097
  216POPC   PO4 2895   5.275   1.848   4.019
  216POPC   GL1 2896   5.212   1.984   4.398
  216POPC   GL2 2897   4.896   2.083   4.528
  216POPC   C1A 2898   5.182   1.710   4.753
  216POPC   D2A 2899   4.969   1.781   5.117
  216POPC   C3A 2900   5.251   1.644   5.393
  216POPC   C4A 2901   5.403   1.857   5.698
  216POPC   C1B 2902   4.807   2.381   4.843
  216POPC   C2B 2903   4.849   2.400   5.296
  216POPC   C3B 2904   4.919   2.045   5.579
  216POPC   C4B 2905   4.654   1.801   5.826
  217POPC   NC3 2906   7.921   9.976   3.847
  217POPC   PO4 2907   7.576   0.207   3.897
  217POPC   GL1 2908   7.787   0.178   4.297
  217POPC   GL2 2909   8.026  10.421   4.224
  217POPC   C1A 2910   7.738   0.079   4.730
  217POPC   D2A 2911   7.991  10.443   5.084
  217POPC   C3A 2912   7.740  10.359   5.423
  217POPC   C4A 2913   7.591  10.461   5.814
  217POPC   C1B 2914   8.042  10.169   4.615
  217POPC   C2B 2915   8.230   9.973   4.964
  217POPC   C3B 2916   8.142   9.845   5.361
  217POPC   C4B 2917   8.043  10.067   5.723
  218POPC   NC3 2918   4.981   7.680   3.984
  218POPC   PO4 2919   4.593   7.990   4.273
  218POPC   GL1 2920   4.968   7.922   4.466
  218POPC   GL2 2921   4.971   8.257   4.536
  218POPC   C1A 2922   4.973   7.763   4.918
  218POPC   D2A 2923   4.733   7.574   5.283
  218POPC   C3A 2924   4.885   7.640   5.715
  218POPC   C4A 2925   4.810   7.396   6.147
  218POPC   C1B 2926   4.666   8.176   4.881
  218POPC   C2B 2927   4.625   8.093   5.317
  218POPC   C3B 2928   4.802   8.292   5.666
  218POPC   C4B 2929   5.179   8.162   5.883
  219POPC   NC3 2930   2.697   8.666   3.969
  219POPC   PO4 2931   3.228   9.130   4.154
  219POPC   GL1 2932   3.030   8.739   4.339
  219POPC   GL2 2933   2.675   8.812   4.438
  219POPC   C1A 2934   2.917   8.448   4.709
  219POPC   D2A 2935   2.837   8.580   5.085
  219POPC   C3A 2936   2.964   8.395   5.422
  219POPC   C4A 2937   2.984   8.720   5.701
  219POPC   C1B 2938   2.433   8.684   4.785
  219POPC   C2B 2939   2.360   8.821   5.176
  219POPC   C3B 2940   2.501   8.634   5.517
  219POPC   C4B 2941   2.565   8.402   5.858
  220POPC   NC3 2942   6.331   7.159   4.118
  220POPC   PO4 2943   6.917   7.431   3.939
  220POPC   GL1 2944   6.763   7.397   4.369
  220POPC   GL2 2945   6.687   7.063   4.508
  220POPC   C1A 2946   6.722   7.455   4.832
  220POPC   D2A 2947   6.639   7.160   5.157
  220POPC   C3A 2948   6.574   7.313   5.541
  220POPC   C4A 2949   6.509   7.172   5.937
  220POPC   C1B 2950   6.295   7.114   4.791
  220POPC   C2B 2951   6.110   7.107   5.231
  220POPC   C3B 2952   6.179   6.877   5.614
  220POPC   C4B 2953   5.856   6.673   5.889
  221POPC   NC3 2954   1.004   4.690   3.848
  221POPC   PO4 2955   1.164   5.289   4.041
  221POPC   GL1 2956   1.191   5.079   4.367
  221POPC   GL2 2957   1.251   4.747   4.302
  221POPC   C1A 2958   1.342   5.036   4.742
  221POPC   D2A 2959   1.542   5.324   4.944
  221POPC   C3A 2960   1.501   5.229   5.363
  221POPC   C4A 2961   1.521   4.955   5.741
  221POPC   C1B 2962   0.927   4.718   4.616
  221POPC   C2B 2963   0.941   4.927   5.024
  221POPC   C3B 2964   1.125   4.832   5.422
  221POPC   C4B 2965   1.030   5.128   5.748
  222POPC   NC3 2966   3.012   0.626   4.035
  222POPC   PO4 2967   2.437   0.232   4.098
  222POPC   GL1 2968   2.581   0.346   4.440
  222POPC   GL2 2969   2.943   0.263   4.360
  222POPC   C1A 2970   2.380   0.258   4.827
  222POPC   D2A 2971   2.353   0.310   5.249
  222POPC   C3A 2972   2.360   0.047   5.572
  222POPC   C4A 2973   2.598   0.233   5.874
  222POPC   C1B 2974   2.955   0.537   4.719
  222POPC   C2B 2975   2.793   0.534   5.130
  222POPC   C3B 2976   2.838   0.737   5.516
  222POPC   C4B 2977   2.790   0.722   5.960
  223POPC   NC3 2978   8.458   5.724   3.968
  223POPC   PO4 2979   9.186   5.647   3.973
  223POPC   GL1 2980   8.861   5.607   4.281
  223POPC   GL2 2981   8.717   5.926   4.371
  223POPC   C1A 2982   8.718   5.493   4.687
  223POPC   D2A 2983   8.900   5.280   5.027
  223POPC   C3A 2984   8.826   5.320   5.436
  223POPC   C4A 2985   8.804   5.410   5.830
  223POPC   C1B 2986   8.872   5.983   4.794
  223POPC   C2B 2987   9.041   5.746   5.131
  223POPC   C3B 2988   8.979   5.852   5.559
  223POPC   C4B 2989   8.581   5.962   5.745
  224POPC   NC3 2990   3.385  10.365   3.947
  224POPC   PO4 2991   2.812   9.914   3.862
  224POPC   GL1 2992   3.168   9.920   4.251
  224POPC   GL2 2993   3.495  10.132   4.413
  224POPC   C1A 2994   3.092  10.040   4.709
  224POPC   D2A 2995   3.239  10.221   5.094
  224POPC   C3A 2996   3.289  10.013   5.482
  224POPC   C4A 2997   3.360  10.070   5.936
  224POPC   C1B 2998   3.727  10.354   4.804
  224POPC   C2B 2999   3.615   0.069   5.191
  224POPC   C3B 3000   3.513   0.004   5.624
  224POPC   C4B 3001   3.804  10.297   5.902
  225POPC   NC3 3002   6.694  10.227   3.919
  225POPC   PO4 3003   6.043  10.040   3.940
  225POPC   GL1 3004   6.284  10.204   4.294
  225POPC   GL2 3005   6.638  10.319   4.399
  225POPC   C1A 3006   6.295  10.171   4.743
  225POPC   D2A 3007   6.166  10.024   5.154
  225POPC   C3A 3008   6.329  10.361   5.429
  225POPC   C4A 3009   6.217  10.457   5.852
  225POPC   C1B 3010   6.817  10.141   4.762
  225POPC   C2B 3011   6.690  10.098   5.156
  225POPC   C3B 3012   6.731   9.904   5.536
  225POPC   C4B 3013   6.651  10.207   5.827
  226POPC   NC3 3014   6.553   8.659   3.905
  226POPC   PO4 3015   6.901   8.129   4.024
  226POPC   GL1 3016   6.696   8.399   4.382
  226POPC   GL2 3017   6.353   8.556   4.355
  226POPC   C1A 3018   6.525   8.462   4.831
  226POPC   D2A 3019   6.654   8.676   5.214
  226POPC   C3A 3020   6.409   8.511   5.527
  226POPC   C4A 3021   6.374   8.468   5.996
  226POPC   C1B 3022   6.163   8.819   4.675
  226POPC   C2B 3023   6.277   8.978   5.075
  226POPC   C3B 3024   6.084   9.014   5.473
  226POPC   C4B 3025   5.965   8.625   5.720
  227POPC   NC3 3026   7.140   1.873   3.873
  227POPC   PO4 3027   6.707   2.369   3.984
  227POPC   GL1 3028   6.945   2.157   4.315
  227POPC   GL2 3029   7.024   1.814   4.369
  227POPC   C1A 3030   6.874   2.054   4.765
  227POPC   D2A 3031   7.071   2.144   5.120
  227POPC   C3A 3032   6.866   2.105   5.531
  227POPC   C4A 3033   7.062   2.225   5.917
  227POPC   C1B 3034   7.359   1.982   4.672
  227POPC   C2B 3035   7.542   1.899   5.074
  227POPC   C3B 3036   7.404   2.024   5.471
  227POPC   C4B 3037   7.270   1.777   5.821
  228POPC   NC3 3038   9.462   1.252   3.930
  228POPC   PO4 3039  10.055   1.435   3.872
  228POPC   GL1 3040   9.799   1.459   4.246
  228POPC   GL2 3041   9.737   1.093   4.329
  228POPC   C1A 3042   9.820   1.446   4.716
  228POPC   D2A 3043   9.816   1.127   5.042
  228POPC   C3A 3044   9.715   1.177   5.457
  228POPC   C4A 3045   9.740   1.505   5.725
  228POPC   C1B 3046   9.387   1.187   4.568
  228POPC   C2B 3047   9.304   1.143   4.992
  228POPC   C3B 3048   9.227   1.135   5.418
  228POPC   C4B 3049   9.281   1.308   5.860
  229POPC   NC3 3050   9.277   5.153   4.017
  229POPC   PO4 3051   9.838   5.304   3.865
  229POPC   GL1 3052   9.780   5.057   4.299
  229POPC   GL2 3053   9.508   4.807   4.313
  229POPC   C1A 3054   9.686   4.953   4.762
  229POPC   D2A 3055   9.657   4.745   5.167
  229POPC   C3A 3056   9.690   5.074   5.457
  229POPC   C4A 3057   9.636   5.206   5.900
  229POPC   C1B 3058   9.188   5.006   4.618
  229POPC   C2B 3059   9.211   4.906   4.972
  229POPC   C3B 3060   9.202   4.959   5.346
  229POPC   C4B 3061   9.192   5.051   5.729
  230POPC   NC3 3062   7.122   0.524   3.818
  230POPC   PO4 3063   7.695   0.833   3.968
  230POPC   GL1 3064   7.446   0.579   4.269
  230POPC   GL2 3065   7.078   0.492   4.331
  230POPC   C1A 3066   7.362   0.568   4.721
  230POPC   D2A 3067   7.125   0.597   5.087
  230POPC   C3A 3068   7.393   0.744   5.436
  230POPC   C4A 3069   7.472   0.503   5.825
  230POPC   C1B 3070   7.022   0.183   4.720
  230POPC   C2B 3071   7.327   0.113   5.046
  230POPC   C3B 3072   7.373   0.219   5.421
  230POPC   C4B 3073   7.036   0.401   5.590
  231POPC   NC3 3074   1.959   4.414   3.966
  231POPC   PO4 3075   2.074   3.742   3.977
  231POPC   GL1 3076   2.066   4.013   4.329
  231POPC   GL2 3077   1.726   4.128   4.338
  231POPC   C1A 3078   2.090   4.330   4.679
  231POPC   D2A 3079   2.094   4.506   5.117
  231POPC   C3A 3080   2.145   4.161   5.434
  231POPC   C4A 3081   2.360   4.008   5.818
  231POPC   C1B 3082   1.693   3.994   4.751
  231POPC   C2B 3083   1.655   4.284   5.080
  231POPC   C3B 3084   1.678   4.344   5.535
  231POPC   C4B 3085   1.794   3.940   5.748
  232POPC   NC3 3086   2.480   7.188   3.869
  232POPC   PO4 3087   3.016   7.614   3.884
  232POPC   GL1 3088   2.755   7.438   4.263
  232POPC   GL2 3089   2.602   7.083   4.344
  232POPC   C1A 3090   2.727   7.366   4.728
  232POPC   D2A 3091   2.923   7.379   5.106
  232POPC   C3A 3092   2.651   7.325   5.415
  232POPC   C4A 3093   2.513   7.244   5.776
  232POPC   C1B 3094   2.554   6.839   4.725
  232POPC   C2B 3095   2.652   6.896   5.157
  232POPC   C3B 3096   2.595   6.769   5.605
  232POPC   C4B 3097   2.497   6.855   6.080
  233POPC   NC3 3098   3.976   1.353   3.985
  233POPC   PO4 3099   3.282   1.332   3.916
  233POPC   GL1 3100   3.531   1.218   4.227
  233POPC   GL2 3101   3.444   0.905   4.263
  233POPC   C1A 3102   3.621   1.327   4.622
  233POPC   D2A 3103   3.422   1.370   5.007
  233POPC   C3A 3104   3.641   1.464   5.382
  233POPC   C4A 3105   3.677   1.289   5.767
  233POPC   C1B 3106   3.260   0.956   4.657
  233POPC   C2B 3107   3.224   0.869   5.086
  233POPC   C3B 3108   3.228   1.135   5.432
  233POPC   C4B 3109   3.230   0.944   5.791
  234POPC   NC3 3110   2.025   8.805   3.716
  234POPC   PO4 3111   2.191   8.945   4.281
  234POPC   GL1 3112   1.924   8.774   4.573
  234POPC   GL2 3113   1.750   8.420   4.572
  234POPC   C1A 3114   1.929   8.973   4.937
  234POPC   D2A 3115   1.791   9.001   5.302
  234POPC   C3A 3116   2.108   9.027   5.582
  234POPC   C4A 3117   2.195   8.774   5.905
  234POPC   C1B 3118   1.992   8.456   4.947
  234POPC   C2B 3119   1.997   8.505   5.392
  234POPC   C3B 3120   1.855   8.391   5.810
  234POPC   C4B 3121   2.159   8.359   6.194
  235POPC   NC3 3122   6.844   2.788   4.147
  235POPC   PO4 3123   7.416   3.083   3.887
  235POPC   GL1 3124   7.371   2.868   4.267
  235POPC   GL2 3125   7.341   2.494   4.231
  235POPC   C1A 3126   7.274   2.971   4.689
  235POPC   D2A 3127   7.478   2.936   5.078
  235POPC   C3A 3128   7.300   3.015   5.497
  235POPC   C4A 3129   7.350   3.020   5.954
  235POPC   C1B 3130   7.153   2.470   4.660
  235POPC   C2B 3131   7.031   2.654   5.044
  235POPC   C3B 3132   7.134   2.530   5.460
  235POPC   C4B 3133   6.971   2.712   5.827
  236POPC   NC3 3134   7.138   3.595   3.826
  236POPC   PO4 3135   7.768   3.784   3.909
  236POPC   GL1 3136   7.415   3.532   4.225
  236POPC   GL2 3137   7.075   3.300   4.231
  236POPC   C1A 3138   7.372   3.478   4.657
  236POPC   D2A 3139   7.628   3.420   5.015
  236POPC   C3A 3140   7.485   3.487   5.404
  236POPC   C4A 3141   7.367   3.518   5.799
  236POPC   C1B 3142   6.861   3.271   4.643
  236POPC   C2B 3143   7.076   3.282   5.061
  236POPC   C3B 3144   6.980   3.436   5.475
  236POPC   C4B 3145   6.883   3.212   5.817
  237POPC   NC3 3146   2.466   3.577   3.762
  237POPC   PO4 3147   3.057   3.884   3.935
  237POPC   GL1 3148   2.769   3.610   4.275
  237POPC   GL2 3149   2.405   3.463   4.279
  237POPC   C1A 3150   2.503   3.809   4.654
  237POPC   D2A 3151   2.451   3.686   5.090
  237POPC   C3A 3152   2.677   3.863   5.439
  237POPC   C4A 3153   2.827   3.755   5.855
  237POPC   C1B 3154   2.552   3.309   4.711
  237POPC   C2B 3155   2.421   3.186   5.143
  237POPC   C3B 3156   2.626   3.355   5.523
  237POPC   C4B 3157   2.450   3.425   5.934
  238POPC   NC3 3158   9.636   0.418   3.838
  238POPC   PO4 3159   9.143   0.029   3.901
  238POPC   GL1 3160   9.354   0.286   4.247
  238POPC   GL2 3161   9.588   0.593   4.314
  238POPC   C1A 3162   9.353   0.286   4.675
  238POPC   D2A 3163   9.196   0.430   5.009
  238POPC   C3A 3164   9.286   0.261   5.368
  238POPC   C4A 3165   9.130   0.359   5.761
  238POPC   C1B 3166   9.590   0.761   4.756
  238POPC   C2B 3167   9.523   0.743   5.212
  238POPC   C3B 3168   9.452   0.741   5.631
  238POPC   C4B 3169   9.294   0.761   6.032
  239POPC   NC3 3170   8.509   8.484   4.019
  239POPC   PO4 3171   9.148   8.605   4.197
  239POPC   GL1 3172   8.980   8.600   4.540
  239POPC   GL2 3173   8.709   8.757   4.457
  239POPC   C1A 3174   8.968   8.664   4.957
  239POPC   D2A 3175   9.007   8.341   5.248
  239POPC   C3A 3176   8.960   8.595   5.587
  239POPC   C4A 3177   8.829   8.832   5.944
  239POPC   C1B 3178   8.464   8.607   4.766
  239POPC   C2B 3179   8.518   8.500   5.180
  239POPC   C3B 3180   8.461   8.643   5.536
  239POPC   C4B 3181   8.371   8.953   5.753
  240POPC   NC3 3182   1.991   0.253   3.997
  240POPC   PO4 3183   1.807   0.823   3.873
  240POPC   GL1 3184   2.183   0.679   4.231
  240POPC   GL2 3185   2.044   0.433   4.461
  240POPC   C1A 3186   2.325   0.757   4.696
  240POPC   D2A 3187   1.986   0.555   5.000
  240POPC   C3A 3188   2.026   0.609   5.463
  240POPC   C4A 3189   2.195   0.625   5.901
  240POPC   C1B 3190   1.851   0.117   4.700
  240POPC   C2B 3191   1.638   0.132   5.076
  240POPC   C3B 3192   1.866   0.113   5.420
  240POPC   C4B 3193   1.874   0.263   5.814
  241POPC   NC3 3194   4.283   3.640   3.906
  241POPC   PO4 3195   4.690   3.253   3.918
  241POPC   GL1 3196   4.458   3.308   4.306
  241POPC   GL2 3197   4.142   3.166   4.348
  241POPC   C1A 3198   4.400   3.314   4.778
  241POPC   D2A 3199   4.452   3.353   5.229
  241POPC   C3A 3200   4.345   3.735   5.519
  241POPC   C4A 3201   4.282   4.042   5.897
  241POPC   C1B 3202   3.963   3.042   4.701
  241POPC   C2B 3203   3.937   3.171   5.122
  241POPC   C3B 3204   4.059   3.297   5.545
  241POPC   C4B 3205   4.419   3.327   5.812
  242POPC   NC3 3206   0.371   8.795   3.971
  242POPC   PO4 3207   0.714   8.184   3.835
  242POPC   GL1 3208   0.785   8.390   4.299
  242POPC   GL2 3209   0.480   8.561   4.402
  242POPC   C1A 3210   0.856   8.767   4.640
  242POPC   D2A 3211   0.572   8.934   5.001
  242POPC   C3A 3212   0.658   8.861   5.479
  242POPC   C4A 3213   0.471   8.492   5.759
  242POPC   C1B 3214   0.138   8.695   4.641
  242POPC   C2B 3215   0.053   8.852   5.021
  242POPC   C3B 3216   0.193   8.714   5.371
  242POPC   C4B 3217   0.134   8.857   5.759
  243POPC   NC3 3218   1.253   2.612   4.012
  243POPC   PO4 3219   1.282   3.384   3.813
  243POPC   GL1 3220   1.307   3.241   4.210
  243POPC   GL2 3221   1.087   3.512   4.293
  243POPC   C1A 3222   1.180   3.082   4.621
  243POPC   D2A 3223   0.861   3.211   4.918
  243POPC   C3A 3224   0.905   3.136   5.347
  243POPC   C4A 3225   0.928   3.219   5.773
  243POPC   C1B 3226   1.312   3.602   4.661
  243POPC   C2B 3227   1.345   3.425   5.070
  243POPC   C3B 3228   1.211   3.506   5.473
  243POPC   C4B 3229   1.468   3.433   5.792
  244POPC   NC3 3230   6.038   2.842   4.115
  244POPC   PO4 3231   5.479   2.820   3.906
  244POPC   GL1 3232   5.523   2.834   4.335
  244POPC   GL2 3233   5.677   2.506   4.316
  244POPC   C1A 3234   5.472   3.004   4.786
  244POPC   D2A 3235   5.706   2.863   5.205
  244POPC   C3A 3236   5.715   3.043   5.626
  244POPC   C4A 3237   5.484   3.265   5.991
  244POPC   C1B 3238   5.749   2.587   4.758
  244POPC   C2B 3239   5.766   2.360   5.139
  244POPC   C3B 3240   5.769   2.478   5.595
  244POPC   C4B 3241   6.036   2.580   5.975
  245POPC   NC3 3242   0.240   4.526   3.947
  245POPC   PO4 3243   0.732   5.024   3.715
  245POPC   GL1 3244   0.720   5.020   4.194
  245POPC   GL2 3245   0.470   4.827   4.424
  245POPC   C1A 3246   0.698   5.202   4.640
  245POPC   D2A 3247   0.458   5.059   5.005
  245POPC   C3A 3248   0.628   4.975   5.428
  245POPC   C4A 3249   0.671   4.643   5.697
  245POPC   C1B 3250   0.094   4.839   4.725
  245POPC   C2B 3251   0.047   4.771   5.170
  245POPC   C3B 3252   0.159   4.820   5.593
  245POPC   C4B 3253   0.163   5.127   5.895
  246POPC   NC3 3254   4.359  10.134   3.953
  246POPC   PO4 3255   3.667  10.000   3.930
  246POPC   GL1 3256   3.964   9.985   4.230
  246POPC   GL2 3257   4.024  10.341   4.281
  246POPC   C1A 3258   3.939   9.920   4.637
  246POPC   D2A 3259   3.601   9.877   4.938
  246POPC   C3A 3260   3.764  10.070   5.303
  246POPC   C4A 3261   3.762   9.852   5.684
  246POPC   C1B 3262   4.229  10.355   4.678
  246POPC   C2B 3263   4.405  10.059   4.986
  246POPC   C3B 3264   4.293  10.045   5.418
  246POPC   C4B 3265   4.212  10.447   5.630
  247POPC   NC3 3266   6.232   9.601   3.996
  247POPC   PO4 3267   6.820   9.823   4.080
  247POPC   GL1 3268   6.531   9.786   4.434
  247POPC   GL2 3269   6.305   9.489   4.473
  247POPC   C1A 3270   6.472   9.721   4.886
  247POPC   D2A 3271   6.150   9.464   5.045
  247POPC   C3A 3272   6.159   9.543   5.455
  247POPC   C4A 3273   6.236   9.931   5.675
  247POPC   C1B 3274   6.543   9.261   4.727
  247POPC   C2B 3275   6.737   9.211   5.140
  247POPC   C3B 3276   6.669   9.340   5.593
  247POPC   C4B 3277   6.669   9.282   6.064
  248POPC   NC3 3278   0.822   7.041   4.105
  248POPC   PO4 3279   1.464   6.872   3.963
  248POPC   GL1 3280   1.271   7.059   4.341
  248POPC   GL2 3281   1.101   7.402   4.350
  248POPC   C1A 3282   1.181   7.025   4.768
  248POPC   D2A 3283   1.291   6.943   5.177
  248POPC   C3A 3284   0.920   6.934   5.384
  248POPC   C4A 3285   0.876   7.021   5.788
  248POPC   C1B 3286   1.258   7.537   4.763
  248POPC   C2B 3287   1.353   7.622   5.201
  248POPC   C3B 3288   1.213   7.348   5.534
  248POPC   C4B 3289   1.377   6.933   5.704
  249POPC   NC3 3290   4.173   7.106   3.848
  249POPC   PO4 3291   4.618   7.494   3.783
  249POPC   GL1 3292   4.461   7.445   4.231
  249POPC   GL2 3293   4.153   7.264   4.339
  249POPC   C1A 3294   4.480   7.344   4.707
  249POPC   D2A 3295   4.364   7.046   5.052
  249POPC   C3A 3296   4.296   7.268   5.414
  249POPC   C4A 3297   4.582   7.243   5.721
  249POPC   C1B 3298   3.965   7.094   4.726
  249POPC   C2B 3299   3.865   7.086   5.189
  249POPC   C3B 3300   4.074   6.828   5.514
  249POPC   C4B 3301   4.262   6.600   5.872
  250POPC   NC3 3302   4.804   8.304   4.005
  250POPC   PO4 3303   4.727   8.944   3.968
  250POPC   GL1 3304   4.907   8.722   4.311
  250POPC   GL2 3305   5.237   8.552   4.193
  250POPC   C1A 3306   4.893   8.774   4.763
  250POPC   D2A 3307   4.821   8.577   5.174
  250POPC   C3A 3308   4.797   8.795   5.592
  250POPC   C4A 3309   4.740   8.873   6.036
  250POPC   C1B 3310   5.360   8.557   4.632
  250POPC   C2B 3311   5.321   8.717   5.053
  250POPC   C3B 3312   5.227   8.528   5.474
  250POPC   C4B 3313   5.203   8.677   5.890
  251POPC   NC3 3314   7.759   5.105   4.325
  251POPC   PO4 3315   8.263   5.271   3.997
  251POPC   GL1 3316   8.271   5.176   4.384
  251POPC   GL2 3317   8.273   4.845   4.392
  251POPC   C1A 3318   8.191   5.314   4.785
  251POPC   D2A 3319   7.899   5.095   5.111
  251POPC   C3A 3320   7.859   5.215   5.538
  251POPC   C4A 3321   7.902   5.293   5.965
  251POPC   C1B 3322   8.131   4.812   4.772
  251POPC   C2B 3323   8.240   4.679   5.135
  251POPC   C3B 3324   7.976   4.662   5.451
  251POPC   C4B 3325   7.887   4.786   5.837
  252POPC   NC3 3326   7.571   9.042   3.763
  252POPC   PO4 3327   8.125   8.617   3.767
  252POPC   GL1 3328   7.899   8.786   4.138
  252POPC   GL2 3329   8.219   8.812   4.301
  252POPC   C1A 3330   7.842   8.910   4.616
  252POPC   D2A 3331   8.057   9.014   5.002
  252POPC   C3A 3332   7.959   8.887   5.419
  252POPC   C4A 3333   7.882   9.052   5.867
  252POPC   C1B 3334   8.021   8.453   4.580
  252POPC   C2B 3335   8.156   8.191   4.942
  252POPC   C3B 3336   8.099   8.301   5.387
  252POPC   C4B 3337   8.024   8.552   5.784
  253POPC   NC3 3338   8.851   1.183   4.043
  253POPC   PO4 3339   8.397   0.695   3.875
  253POPC   GL1 3340   8.403   1.049   4.240
  253POPC   GL2 3341   8.643   0.958   4.468
  253POPC   C1A 3342   8.407   1.387   4.623
  253POPC   D2A 3343   8.434   1.658   5.016
  253POPC   C3A 3344   8.387   1.443   5.439
  253POPC   C4A 3345   8.389   1.004   5.641
  253POPC   C1B 3346   8.896   1.287   4.699
  253POPC   C2B 3347   8.901   1.446   5.119
  253POPC   C3B 3348   8.874   1.433   5.561
  253POPC   C4B 3349   8.889   1.006   5.810
  254POPC   NC3 3350   1.333   5.663   3.831
  254POPC   PO4 3351   0.718   5.973   3.784
  254POPC   GL1 3352   0.982   6.025   4.138
  254POPC   GL2 3353   0.968   5.693   4.247
  254POPC   C1A 3354   1.068   6.035   4.607
  254POPC   D2A 3355   0.821   6.018   4.996
  254POPC   C3A 3356   0.979   6.010   5.401
  254POPC   C4A 3357   0.987   5.732   5.781
  254POPC   C1B 3358   1.100   5.512   4.658
  254POPC   C2B 3359   1.157   5.636   5.072
  254POPC   C3B 3360   1.368   5.714   5.442
  254POPC   C4B 3361   1.426   5.463   5.800
  255POPC   NC3 3362   7.232   9.575   3.977
  255POPC   PO4 3363   7.367   8.989   4.161
  255POPC   GL1 3364   7.197   9.279   4.395
  255POPC   GL2 3365   6.863   9.380   4.330
  255POPC   C1A 3366   7.138   9.209   4.781
  255POPC   D2A 3367   7.316   9.293   5.108
  255POPC   C3A 3368   7.145   9.082   5.441
  255POPC   C4A 3369   7.092   9.131   5.840
  255POPC   C1B 3370   6.935   9.647   4.688
  255POPC   C2B 3371   6.963   9.672   5.110
  255POPC   C3B 3372   7.148   9.598   5.497
  255POPC   C4B 3373   7.000   9.634   5.921
  256POPC   NC3 3374   0.416   3.736   4.140
  256POPC   PO4 3375   0.645   3.206   3.883
  256POPC   GL1 3376   0.379   3.181   4.238
  256POPC   GL2 3377   0.622   3.358   4.435
  256POPC   C1A 3378   0.169   3.274   4.621
  256POPC   D2A 3379   0.351   3.499   4.984
  256POPC   C3A 3380   0.206   3.342   5.391
  256POPC   C4A 3381   0.431   3.276   5.766
  256POPC   C1B 3382   0.785   3.675   4.700
  256POPC   C2B 3383   0.883   3.671   5.112
  256POPC   C3B 3384   0.681   3.597   5.451
  256POPC   C4B 3385   0.830   3.711   5.828
  257POPC   NC3 3386   7.227   0.060   4.144
  257POPC   PO4 3387   7.478   9.967   3.984
  257POPC   GL1 3388   7.319   9.822   4.397
  257POPC   GL2 3389   7.116  10.108   4.362
  257POPC   C1A 3390   7.408   9.753   4.847
  257POPC   D2A 3391   7.717   9.976   5.074
  257POPC   C3A 3392   7.618   9.850   5.494
  257POPC   C4A 3393   7.274  10.033   5.756
  257POPC   C1B 3394   7.333  10.227   4.734
  257POPC   C2B 3395   7.228  10.123   5.188
  257POPC   C3B 3396   6.995  10.374   5.484
  257POPC   C4B 3397   7.097   0.002   5.909
  258POPC   NC3 3398   0.161   3.724   3.666
  258POPC   PO4 3399   0.666   4.083   3.944
  258POPC   GL1 3400   0.472   4.220   4.336
  258POPC   GL2 3401   0.191   4.410   4.444
  258POPC   C1A 3402   0.362   4.007   4.713
  258POPC   D2A 3403   0.521   4.013   5.086
  258POPC   C3A 3404   0.254   3.870   5.350
  258POPC   C4A 3405   0.274   3.746   5.753
  258POPC   C1B 3406   0.481   4.511   4.822
  258POPC   C2B 3407   0.746   4.469   5.193
  258POPC   C3B 3408   0.720   4.151   5.541
  258POPC   C4B 3409   0.324   4.251   5.716
  259POPC   NC3 3410   9.084   7.297   3.670
  259POPC   PO4 3411   9.438   7.698   3.998
  259POPC   GL1 3412   9.258   7.353   4.184
  259POPC   GL2 3413   9.495   7.123   4.319
  259POPC   C1A 3414   9.171   7.408   4.614
  259POPC   D2A 3415   9.211   7.530   5.016
  259POPC   C3A 3416   9.437   7.387   5.338
  259POPC   C4A 3417   9.285   7.469   5.748
  259POPC   C1B 3418   9.304   6.941   4.729
  259POPC   C2B 3419   9.344   6.743   5.148
  259POPC   C3B 3420   9.297   6.932   5.558
  259POPC   C4B 3421   9.586   7.068   5.823
  260POPC   NC3 3422   2.817   2.473   3.855
  260POPC   PO4 3423   2.399   3.102   3.821
  260POPC   GL1 3424   2.426   2.912   4.255
  260POPC   GL2 3425   2.584   2.567   4.302
  260POPC   C1A 3426   2.478   2.807   4.716
  260POPC   D2A 3427   2.801   2.873   5.021
  260POPC   C3A 3428   2.644   2.829   5.451
  260POPC   C4A 3429   2.538   2.849   5.871
  260POPC   C1B 3430   2.937   2.551   4.599
  260POPC   C2B 3431   3.235   2.522   4.927
  260POPC   C3B 3432   3.108   2.590   5.336
  260POPC   C4B 3433   2.944   2.540   5.761
  261POPC   NC3 3434   8.925   4.307   3.916
  261POPC   PO4 3435   9.585   3.907   3.914
  261POPC   GL1 3436   9.266   3.964   4.231
  261POPC   GL2 3437   9.269   4.325   4.301
  261POPC   C1A 3438   9.402   3.981   4.664
  261POPC   D2A 3439   9.476   3.753   5.035
  261POPC   C3A 3440   9.365   3.973   5.382
  261POPC   C4A 3441   9.449   3.997   5.792
  261POPC   C1B 3442   9.356   4.501   4.701
  261POPC   C2B 3443   9.207   4.452   5.153
  261POPC   C3B 3444   9.345   4.514   5.571
  261POPC   C4B 3445   9.618   4.455   5.920
  262POPC   NC3 3446   5.064   2.991   3.934
  262POPC   PO4 3447   4.530   2.504   3.898
  262POPC   GL1 3448   4.791   2.575   4.289
  262POPC   GL2 3449   5.135   2.475   4.186
  262POPC   C1A 3450   4.907   2.861   4.668
  262POPC   D2A 3451   4.860   2.975   5.133
  262POPC   C3A 3452   4.745   2.979   5.575
  262POPC   C4A 3453   4.892   3.208   5.984
  262POPC   C1B 3454   5.258   2.491   4.612
  262POPC   C2B 3455   5.251   2.641   5.057
  262POPC   C3B 3456   5.249   2.754   5.507
  262POPC   C4B 3457   5.028   2.725   5.933
  263POPC   NC3 3458   0.263   6.140   3.893
  263POPC   PO4 3459   0.612   6.744   3.844
  263POPC   GL1 3460   0.597   6.409   4.174
  263POPC   GL2 3461   0.246   6.367   4.328
  263POPC   C1A 3462   0.604   6.227   4.599
  263POPC   D2A 3463   0.515   6.467   4.971
  263POPC   C3A 3464   0.549   6.272   5.356
  263POPC   C4A 3465   0.662   6.115   5.763
  263POPC   C1B 3466   0.085   6.289   4.733
  263POPC   C2B 3467  10.484   6.500   5.068
  263POPC   C3B 3468   0.213   6.646   5.382
  263POPC   C4B 3469   0.436   6.558   5.760
  264POPC   NC3 3470   0.614   1.464   3.801
  264POPC   PO4 3471   0.822   0.784   3.710
  264POPC   GL1 3472   0.664   1.046   4.107
  264POPC   GL2 3473   0.337   1.242   4.172
  264POPC   C1A 3474   0.630   1.163   4.583
  264POPC   D2A 3475   0.519   1.007   4.991
  264POPC   C3A 3476   0.628   1.099   5.391
  264POPC   C4A 3477   0.764   1.000   5.770
  264POPC   C1B 3478   0.130   1.107   4.590
  264POPC   C2B 3479   0.055   0.848   4.951
  264POPC   C3B 3480   0.036   0.821   5.399
  264POPC   C4B 3481   0.224   1.114   5.696
  265POPC   NC3 3482   6.568   7.842   3.881
  265POPC   PO4 3483   6.044   7.512   4.038
  265POPC   GL1 3484   6.310   7.664   4.324
  265POPC   GL2 3485   6.603   7.887   4.385
  265POPC   C1A 3486   6.259   7.631   4.742
  265POPC   D2A 3487   6.309   7.564   5.165
  265POPC   C3A 3488   6.400   7.832   5.495
  265POPC   C4A 3489   6.384   7.653   5.874
  265POPC   C1B 3490   6.257   8.106   4.581
  265POPC   C2B 3491   6.312   8.067   5.035
  265POPC   C3B 3492   6.708   8.163   5.257
  265POPC   C4B 3493   6.763   8.200   5.709
  266POPC   NC3 3494   8.085   1.052   3.844
  266POPC   PO4 3495   7.692   1.493   3.667
  266POPC   GL1 3496   7.801   1.298   4.177
  266POPC   GL2 3497   7.540   1.097   4.382
  266POPC   C1A 3498   8.005   1.085   4.547
  266POPC   D2A 3499   8.143   0.916   4.939
  266POPC   C3A 3500   7.860   0.952   5.305
  266POPC   C4A 3501   7.950   1.244   5.635
  266POPC   C1B 3502   7.571   1.041   4.844
  266POPC   C2B 3503   7.511   1.383   5.138
  266POPC   C3B 3504   7.515   1.448   5.529
  266POPC   C4B 3505   7.505   1.078   5.825
  267POPC   NC3 3506   0.610   5.452   3.875
  267POPC   PO4 3507   0.220   4.974   4.034
  267POPC   GL1 3508   0.319   5.339   4.281
  267POPC   GL2 3509   0.373   5.734   4.228
  267POPC   C1A 3510   0.180   5.434   4.674
  267POPC   D2A 3511   0.016   5.295   5.043
  267POPC   C3A 3512   0.251   5.306   5.419
  267POPC   C4A 3513   0.558   5.428   5.761
  267POPC   C1B 3514   0.610   5.711   4.619
  267POPC   C2B 3515   0.510   5.598   5.065
  267POPC   C3B 3516   0.352   5.817   5.459
  267POPC   C4B 3517   0.186   6.043   5.858
  268POPC   NC3 3518   9.197   6.055   4.200
  268POPC   PO4 3519   8.608   6.203   3.883
  268POPC   GL1 3520   8.666   6.411   4.242
  268POPC   GL2 3521   8.954   6.494   4.153
  268POPC   C1A 3522   8.517   6.338   4.648
  268POPC   D2A 3523   8.375   6.277   5.039
  268POPC   C3A 3524   8.600   6.307   5.385
  268POPC   C4A 3525   8.463   6.464   5.787
  268POPC   C1B 3526   8.942   6.611   4.614
  268POPC   C2B 3527   8.837   6.608   5.047
  268POPC   C3B 3528   8.838   6.742   5.498
  268POPC   C4B 3529   8.967   6.666   5.929
  269POPC   NC3 3530   5.602   9.835   3.921
  269POPC   PO4 3531   5.914   9.230   3.959
  269POPC   GL1 3532   5.827   9.579   4.301
  269POPC   GL2 3533   5.506   9.737   4.405
  269POPC   C1A 3534   5.941   9.798   4.687
  269POPC   D2A 3535   5.699   9.735   5.059
  269POPC   C3A 3536   5.752   9.905   5.463
  269POPC   C4A 3537   5.828   9.667   5.823
  269POPC   C1B 3538   5.380   9.468   4.711
  269POPC   C2B 3539   5.380   9.330   5.120
  269POPC   C3B 3540   5.623   9.368   5.473
  269POPC   C4B 3541   5.387   9.452   5.861
  270POPC   NC3 3542   4.353   2.941   3.933
  270POPC   PO4 3543   3.934   2.427   4.018
  270POPC   GL1 3544   4.232   2.385   4.285
  270POPC   GL2 3545   4.284   2.685   4.369
  270POPC   C1A 3546   4.268   2.268   4.678
  270POPC   D2A 3547   4.363   2.328   5.083
  270POPC   C3A 3548   4.023   2.248   5.283
  270POPC   C4A 3549   3.927   2.351   5.661
  270POPC   C1B 3550   4.412   2.766   4.785
  270POPC   C2B 3551   4.348   2.839   5.224
  270POPC   C3B 3552   4.178   2.806   5.644
  270POPC   C4B 3553   4.080   3.055   6.040
  271POPC   NC3 3554   3.462   2.176   4.024
  271POPC   PO4 3555   3.927   1.727   3.719
  271POPC   GL1 3556   3.656   1.715   4.202
  271POPC   GL2 3557   3.284   1.700   4.283
  271POPC   C1A 3558   3.515   1.807   4.704
  271POPC   D2A 3559   3.651   1.947   5.126
  271POPC   C3A 3560   3.482   1.911   5.534
  271POPC   C4A 3561   3.226   1.574   5.746
  271POPC   C1B 3562   3.060   2.002   4.649
  271POPC   C2B 3563   3.116   2.006   5.099
  271POPC   C3B 3564   3.029   2.106   5.526
  271POPC   C4B 3565   3.213   2.060   5.960
  272POPC   NC3 3566   7.812   3.327   4.008
  272POPC   PO4 3567   8.255   3.937   3.956
  272POPC   GL1 3568   8.194   3.591   4.258
  272POPC   GL2 3569   7.875   3.582   4.430
  272POPC   C1A 3570   8.258   3.290   4.579
  272POPC   D2A 3571   8.105   3.526   4.902
  272POPC   C3A 3572   8.096   3.589   5.331
  272POPC   C4A 3573   7.978   3.775   5.716
  272POPC   C1B 3574   7.774   3.138   4.611
  272POPC   C2B 3575   7.975   3.002   4.977
  272POPC   C3B 3576   7.858   3.143   5.395
  272POPC   C4B 3577   8.107   3.287   5.769
  273POPC   NC3 3578   2.241   0.984   3.831
  273POPC   PO4 3579   2.363   1.651   3.881
  273POPC   GL1 3580   2.136   1.422   4.198
  273POPC   GL2 3581   1.979   1.132   4.255
  273POPC   C1A 3582   2.111   1.407   4.672
  273POPC   D2A 3583   2.386   1.373   5.022
  273POPC   C3A 3584   2.210   1.439   5.382
  273POPC   C4A 3585   2.313   1.452   5.786
  273POPC   C1B 3586   1.856   0.948   4.667
  273POPC   C2B 3587   1.949   1.056   5.101
  273POPC   C3B 3588   1.866   1.067   5.536
  273POPC   C4B 3589   1.785   1.417   5.684
  274POPC   NC3 3590   7.223   7.775   3.999
  274POPC   PO4 3591   7.591   8.311   3.998
  274POPC   GL1 3592   7.306   8.168   4.343
  274POPC   GL2 3593   7.345   7.835   4.491
  274POPC   C1A 3594   7.068   8.233   4.717
  274POPC   D2A 3595   7.296   8.277   5.078
  274POPC   C3A 3596   7.192   8.043   5.402
  274POPC   C4A 3597   7.294   8.170   5.755
  274POPC   C1B 3598   7.223   7.782   4.956
  274POPC   C2B 3599   6.904   7.637   5.282
  274POPC   C3B 3600   6.875   7.710   5.730
  274POPC   C4B 3601   6.767   7.567   6.186
  275POPC   NC3 3602   4.197   2.110   3.804
  275POPC   PO4 3603   4.551   1.644   4.093
  275POPC   GL1 3604   4.429   1.797   4.446
  275POPC   GL2 3605   4.124   1.893   4.284
  275POPC   C1A 3606   4.519   1.870   4.875
  275POPC   D2A 3607   4.507   1.866   5.319
  275POPC   C3A 3608   4.424   2.206   5.591
  275POPC   C4A 3609   4.225   2.077   5.962
  275POPC   C1B 3610   4.012   1.818   4.728
  275POPC   C2B 3611   4.072   1.651   5.139
  275POPC   C3B 3612   3.996   1.827   5.559
  275POPC   C4B 3613   3.762   1.768   5.933
  276POPC   NC3 3614   2.455   9.303   4.207
  276POPC   PO4 3615   1.940   9.388   3.754
  276POPC   GL1 3616   1.914   9.350   4.253
  276POPC   GL2 3617   1.669   9.098   4.280
  276POPC   C1A 3618   2.110   9.414   4.725
  276POPC   D2A 3619   2.363   9.334   5.091
  276POPC   C3A 3620   2.139   9.540   5.412
  276POPC   C4A 3621   2.020   9.482   5.801
  276POPC   C1B 3622   1.621   9.275   4.664
  276POPC   C2B 3623   1.718   9.515   5.030
  276POPC   C3B 3624   1.622   9.472   5.429
  276POPC   C4B 3625   1.621   9.182   5.739
  277POPC   NC3 3626   4.989   1.476   4.160
  277POPC   PO4 3627   4.940   0.950   3.734
  277POPC   GL1 3628   4.745   0.919   4.186
  277POPC   GL2 3629   4.543   1.190   4.328
  277POPC   C1A 3630   4.820   0.925   4.657
  277POPC   D2A 3631   4.644   0.846   5.042
  277POPC   C3A 3632   4.783   0.900   5.460
  277POPC   C4A 3633   4.494   1.034   5.788
  277POPC   C1B 3634   4.731   1.414   4.743
  277POPC   C2B 3635   4.941   1.278   5.127
  277POPC   C3B 3636   4.843   1.392   5.557
  277POPC   C4B 3637   5.076   1.534   5.891
  278POPC   NC3 3638   0.811   0.533   4.107
  278POPC   PO4 3639   0.199   0.780   3.998
  278POPC   GL1 3640   0.369   0.677   4.387
  278POPC   GL2 3641   0.177   0.372   4.350
  278POPC   C1A 3642   0.543   0.400   4.726
  278POPC   D2A 3643   0.779   0.411   5.110
  278POPC   C3A 3644   0.531   0.612   5.385
  278POPC   C4A 3645   0.455   0.575   5.792
  278POPC   C1B 3646  10.455   0.412   4.732
  278POPC   C2B 3647   0.166   0.366   5.116
  278POPC   C3B 3648   0.203   0.203   5.539
  278POPC   C4B 3649   0.118   0.259   5.999
  279POPC   NC3 3650   0.480   2.177   3.919
  279POPC   PO4 3651   0.755   1.669   4.171
  279POPC   GL1 3652   0.415   1.742   4.387
  279POPC   GL2 3653   0.561   2.092   4.426
  279POPC   C1A 3654   0.335   1.526   4.800
  279POPC   D2A 3655   0.248   1.377   5.220
  279POPC   C3A 3656   0.478   1.546   5.578
  279POPC   C4A 3657   0.183   1.673   5.893
  279POPC   C1B 3658   0.670   1.918   4.799
  279POPC   C2B 3659   0.461   1.879   5.147
  279POPC   C3B 3660   0.274   1.993   5.467
  279POPC   C4B 3661   0.490   2.040   5.809
  280POPC   NC3 3662   9.897   4.339   3.907
  280POPC   PO4 3663   0.039   3.991   4.014
  280POPC   GL1 3664  10.272   4.180   4.250
  280POPC   GL2 3665  10.019   3.960   4.269
  280POPC   C1A 3666  10.318   4.194   4.693
  280POPC   D2A 3667   0.073   4.267   5.048
  280POPC   C3A 3668  10.369   4.208   5.430
  280POPC   C4A 3669  10.371   4.464   5.794
  280POPC   C1B 3670   9.824   4.238   4.595
  280POPC   C2B 3671   9.642   4.249   5.022
  280POPC   C3B 3672   9.776   4.279   5.435
  280POPC   C4B 3673   9.992   4.126   5.765
  281POPC   NC3 3674   2.573   6.484   3.910
  281POPC   PO4 3675   2.913   6.914   3.985
  281POPC   GL1 3676   2.816   6.606   4.349
  281POPC   GL2 3677   2.644   6.252   4.365
  281POPC   C1A 3678   2.929   6.504   4.785
  281POPC   D2A 3679   2.809   6.417   5.201
  281POPC   C3A 3680   3.051   6.469   5.580
  281POPC   C4A 3681   2.963   6.667   5.970
  281POPC   C1B 3682   2.411   6.308   4.783
  281POPC   C2B 3683   2.327   6.263   5.236
  281POPC   C3B 3684   2.571   6.242   5.612
  281POPC   C4B 3685   2.627   5.889   5.892
  282POPC   NC3 3686   2.479  10.282   3.978
  282POPC   PO4 3687   2.265   9.732   4.179
  282POPC   GL1 3688   2.640   9.927   4.367
  282POPC   GL2 3689   2.807  10.271   4.355
  282POPC   C1A 3690   2.561  10.065   4.781
  282POPC   D2A 3691   2.399   9.887   5.130
  282POPC   C3A 3692   2.598  10.080   5.511
  282POPC   C4A 3693   2.496  10.192   5.931
  282POPC   C1B 3694   2.799  10.495   4.753
  282POPC   C2B 3695   2.713  10.441   5.162
  282POPC   C3B 3696   2.977  10.454   5.518
  282POPC   C4B 3697   2.990  10.405   5.965
  283POPC   NC3 3698   5.362   0.679   3.995
  283POPC   PO4 3699   6.012   0.897   3.929
  283POPC   GL1 3700   5.861   0.539   4.289
  283POPC   GL2 3701   5.613   0.225   4.326
  283POPC   C1A 3702   5.730   0.446   4.757
  283POPC   D2A 3703   5.618   0.688   5.127
  283POPC   C3A 3704   5.825   0.719   5.499
  283POPC   C4A 3705   5.847   0.474   5.906
  283POPC   C1B 3706   5.311   0.139   4.687
  283POPC   C2B 3707   5.431   0.176   5.100
  283POPC   C3B 3708   5.534   0.305   5.498
  283POPC   C4B 3709   5.398   0.234   5.903
  284POPC   NC3 3710   4.519   1.164   3.764
  284POPC   PO4 3711   3.893   0.894   4.019
  284POPC   GL1 3712   4.009   1.025   4.384
  284POPC   GL2 3713   4.091   1.389   4.462
  284POPC   C1A 3714   3.831   0.883   4.729
  284POPC   D2A 3715   3.858   1.122   5.092
  284POPC   C3A 3716   4.079   1.032   5.459
  284POPC   C4A 3717   3.962   0.882   5.849
  284POPC   C1B 3718   4.281   1.189   4.807
  284POPC   C2B 3719   4.445   1.299   5.201
  284POPC   C3B 3720   4.334   1.463   5.584
  284POPC   C4B 3721   4.233   1.570   5.993
  285POPC   NC3 3722   3.240   5.236   4.055
  285POPC   PO4 3723   2.674   5.371   3.824
  285POPC   GL1 3724   2.390   5.334   4.207
  285POPC   GL2 3725   2.312   5.687   4.319
  285POPC   C1A 3726   2.389   5.290   4.671
  285POPC   D2A 3727   2.505   5.454   5.058
  285POPC   C3A 3728   2.748   5.443   5.407
  285POPC   C4A 3729   2.731   5.390   5.824
  285POPC   C1B 3730   2.587   5.800   4.663
  285POPC   C2B 3731   2.693   5.930   5.103
  285POPC   C3B 3732   2.946   5.928   5.485
  285POPC   C4B 3733   3.188   5.631   5.733
  286POPC   NC3 3734   4.811   9.382   3.894
  286POPC   PO4 3735   5.138   9.851   4.064
  286POPC   GL1 3736   4.832   9.643   4.336
  286POPC   GL2 3737   4.893   9.265   4.382
  286POPC   C1A 3738   4.505   9.636   4.677
  286POPC   D2A 3739   4.558   9.575   5.138
  286POPC   C3A 3740   4.654   9.688   5.579
  286POPC   C4A 3741   4.620   9.690   6.046
  286POPC   C1B 3742   4.894   9.319   4.818
  286POPC   C2B 3743   4.943   9.080   5.182
  286POPC   C3B 3744   5.175   9.108   5.553
  286POPC   C4B 3745   4.904   9.314   5.839
  287POPC   NC3 3746   7.885   5.192   3.756
  287POPC   PO4 3747   7.875   5.805   3.897
  287POPC   GL1 3748   7.965   5.597   4.291
  287POPC   GL2 3749   8.266   5.689   4.433
  287POPC   C1A 3750   7.844   5.658   4.741
  287POPC   D2A 3751   8.017   5.581   5.199
  287POPC   C3A 3752   7.715   5.710   5.559
  287POPC   C4A 3753   7.480   5.557   5.950
  287POPC   C1B 3754   8.356   5.817   4.840
  287POPC   C2B 3755   8.534   5.705   5.231
  287POPC   C3B 3756   8.350   5.526   5.598
  287POPC   C4B 3757   8.105   5.747   5.872
  288POPC   NC3 3758   9.783   9.256   3.710
  288POPC   PO4 3759  10.485   9.122   3.896
  288POPC   GL1 3760  10.256   9.196   4.263
  288POPC   GL2 3761  10.053   9.534   4.240
  288POPC   C1A 3762  10.225   9.032   4.667
  288POPC   D2A 3763  10.180   9.200   5.071
  288POPC   C3A 3764  10.245   8.991   5.452
  288POPC   C4A 3765  10.189   9.105   5.884
  288POPC   C1B 3766  10.276   9.558   4.659
  288POPC   C2B 3767  10.317   9.701   5.095
  288POPC   C3B 3768  10.245   9.515   5.495
  288POPC   C4B 3769   9.972   9.570   5.838
  289POPC   NC3 3770   9.258   9.024   4.078
  289POPC   PO4 3771   9.422   9.593   3.785
  289POPC   GL1 3772   9.540   9.470   4.254
  289POPC   GL2 3773   9.564   9.760   4.475
  289POPC   C1A 3774   9.793   9.364   4.709
  289POPC   D2A 3775   9.810   9.507   5.195
  289POPC   C3A 3776   9.777   9.187   5.572
  289POPC   C4A 3777   9.727   9.193   6.091
  289POPC   C1B 3778   9.285   9.416   4.700
  289POPC   C2B 3779   9.099   9.197   5.054
  289POPC   C3B 3780   9.188   9.356   5.458
  289POPC   C4B 3781   9.422   9.460   5.787
  290POPC   NC3 3782   8.896   9.666   3.923
  290POPC   PO4 3783   8.688   9.004   4.021
  290POPC   GL1 3784   8.833   9.296   4.338
  290POPC   GL2 3785   8.510   9.420   4.346
  290POPC   C1A 3786   8.775   9.519   4.771
  290POPC   D2A 3787   8.741   9.530   5.244
  290POPC   C3A 3788   8.962   9.802   5.494
  290POPC   C4A 3789   9.032   9.734   5.930
  290POPC   C1B 3790   8.421   9.127   4.657
  290POPC   C2B 3791   8.578   9.013   5.073
  290POPC   C3B 3792   8.781   9.049   5.450
  290POPC   C4B 3793   8.717   9.354   5.757
  291POPC   NC3 3794   2.479   4.938   3.848
  291POPC   PO4 3795   3.140   4.791   4.026
  291POPC   GL1 3796   2.817   5.033   4.227
  291POPC   GL2 3797   2.566   4.861   4.375
  291POPC   C1A 3798   2.879   5.223   4.635
  291POPC   D2A 3799   2.832   5.052   5.056
  291POPC   C3A 3800   3.111   5.069   5.426
  291POPC   C4A 3801   3.096   4.997   5.872
  291POPC   C1B 3802   2.370   4.782   4.765
  291POPC   C2B 3803   2.368   4.926   5.178
  291POPC   C3B 3804   2.636   4.921   5.560
  291POPC   C4B 3805   2.513   4.971   5.985
  292POPC   NC3 3806  10.203   8.750   3.904
  292POPC   PO4 3807   9.639   8.629   3.693
  292POPC   GL1 3808   9.904   8.529   4.212
  292POPC   GL2 3809  10.237   8.567   4.353
  292POPC   C1A 3810   9.907   8.628   4.715
  292POPC   D2A 3811  10.066   8.689   5.074
  292POPC   C3A 3812   9.838   8.692   5.450
  292POPC   C4A 3813   9.741   8.746   5.856
  292POPC   C1B 3814  10.339   8.270   4.630
  292POPC   C2B 3815  10.460   8.345   5.029
  292POPC   C3B 3816  10.294   8.431   5.433
  292POPC   C4B 3817  10.218   8.595   5.788
  293POPC   NC3 3818   8.289   9.221   3.928
  293POPC   PO4 3819   7.697   9.489   3.733
  293POPC   GL1 3820   7.675   9.411   4.197
  293POPC   GL2 3821   7.986   9.291   4.315
  293POPC   C1A 3822   7.637   9.356   4.676
  293POPC   D2A 3823   7.811   9.476   5.099
  293POPC   C3A 3824   7.653   9.298   5.475
  293POPC   C4A 3825   7.492   9.432   5.840
  293POPC   C1B 3826   8.113   9.573   4.642
  293POPC   C2B 3827   8.308   9.469   5.017
  293POPC   C3B 3828   8.258   9.339   5.437
  293POPC   C4B 3829   8.006   9.544   5.754
  294POPC   NC3 3830   0.992   8.554   3.870
  294POPC   PO4 3831   1.478   8.198   3.977
  294POPC   GL1 3832   1.302   8.427   4.292
  294POPC   GL2 3833   1.265   8.784   4.224
  294POPC   C1A 3834   1.159   8.370   4.711
  294POPC   D2A 3835   1.024   8.554   5.100
  294POPC   C3A 3836   0.884   8.337   5.471
  294POPC   C4A 3837   0.951   8.597   5.824
  294POPC   C1B 3838   1.404   8.814   4.636
  294POPC   C2B 3839   1.528   8.649   5.005
  294POPC   C3B 3840   1.477   8.583   5.429
  294POPC   C4B 3841   1.434   8.735   5.829
  295POPC   NC3 3842   1.478   1.035   4.145
  295POPC   PO4 3843   1.081   1.489   3.724
  295POPC   GL1 3844   1.130   1.376   4.236
  295POPC   GL2 3845   1.078   1.063   4.426
  295POPC   C1A 3846   1.043   1.476   4.725
  295POPC   D2A 3847   0.790   1.491   5.102
  295POPC   C3A 3848   1.007   1.410   5.500
  295POPC   C4A 3849   1.010   1.450   5.941
  295POPC   C1B 3850   1.365   1.077   4.810
  295POPC   C2B 3851   1.467   1.266   5.221
  295POPC   C3B 3852   1.367   1.081   5.612
  295POPC   C4B 3853   1.225   0.860   5.926
  296POPC   NC3 3854   7.999   1.697   3.937
  296POPC   PO4 3855   7.427   1.636   4.125
  296POPC   GL1 3856   7.721   1.777   4.363
  296POPC   GL2 3857   7.743   2.116   4.233
  296POPC   C1A 3858   7.954   1.619   4.703
  296POPC   D2A 3859   8.004   1.409   5.097
  296POPC   C3A 3860   7.929   1.704   5.444
  296POPC   C4A 3861   7.754   1.942   5.805
  296POPC   C1B 3862   7.845   2.141   4.688
  296POPC   C2B 3863   8.036   1.998   5.054
  296POPC   C3B 3864   7.927   2.203   5.422
  296POPC   C4B 3865   8.012   2.395   5.796
  297POPC   NC3 3866   2.536   2.000   3.649
  297POPC   PO4 3867   3.023   2.029   4.022
  297POPC   GL1 3868   2.667   2.031   4.276
  297POPC   GL2 3869   2.513   1.714   4.361
  297POPC   C1A 3870   2.560   2.213   4.682
  297POPC   D2A 3871   2.736   2.369   5.060
  297POPC   C3A 3872   2.575   2.318   5.471
  297POPC   C4A 3873   2.522   2.323   5.932
  297POPC   C1B 3874   2.638   1.719   4.741
  297POPC   C2B 3875   2.601   1.870   5.140
  297POPC   C3B 3876   2.745   1.695   5.494
  297POPC   C4B 3877   2.742   1.836   5.865
  298POPC   NC3 3878  10.409   0.114   4.003
  298POPC   PO4 3879  10.249   9.920   3.921
  298POPC   GL1 3880  10.319  10.117   4.273
  298POPC   GL2 3881   9.990  10.076   4.360
  298POPC   C1A 3882  10.429  10.054   4.720
  298POPC   D2A 3883   0.098  10.173   5.128
  298POPC   C3A 3884  10.355  10.268   5.485
  298POPC   C4A 3885  10.366   9.929   5.784
  298POPC   C1B 3886   9.924   9.944   4.768
  298POPC   C2B 3887   9.989  10.088   5.142
  298POPC   C3B 3888   9.927   9.965   5.532
  298POPC   C4B 3889   9.904  10.273   5.846
  299POPC   NC3 3890   1.018   9.535   3.790
  299POPC   PO4 3891   0.820   8.951   3.992
  299POPC   GL1 3892   0.966   9.206   4.298
  299POPC   GL2 3893   1.239   9.422   4.275
  299POPC   C1A 3894   1.101   9.214   4.719
  299POPC   D2A 3895   1.344   9.147   5.075
  299POPC   C3A 3896   1.123   9.302   5.405
  299POPC   C4A 3897   1.050   9.086   5.770
  299POPC   C1B 3898   1.331   9.683   4.650
  299POPC   C2B 3899   1.315   9.839   5.079
  299POPC   C3B 3900   1.243   9.801   5.488
  299POPC   C4B 3901   1.279   9.537   5.833
  300POPC   NC3 3902   7.993   0.447   3.912
  300POPC   PO4 3903   8.490  10.454   3.938
  300POPC   GL1 3904   8.394   0.281   4.258
  300POPC   GL2 3905   8.213   0.588   4.358
  300POPC   C1A 3906   8.244   0.178   4.675
  300POPC   D2A 3907   8.201   0.418   5.048
  300POPC   C3A 3908   8.306   0.229   5.431
  300POPC   C4A 3909   8.097   0.075   5.775
  300POPC   C1B 3910   7.866   0.578   4.650
  300POPC   C2B 3911   7.699   0.475   5.082
  300POPC   C3B 3912   7.848   0.444   5.494
  300POPC   C4B 3913   7.898   0.770   5.816
  301POPC   NC3 3914   4.071   8.766   3.821
  301POPC   PO4 3915   4.415   8.249   3.744
  301POPC   GL1 3916   4.353   8.475   4.164
  301POPC   GL2 3917   4.047   8.623   4.294
  301POPC   C1A 3918   4.456   8.562   4.604
  301POPC   D2A 3919   4.358   8.718   5.010
  301POPC   C3A 3920   4.391   8.547   5.422
  301POPC   C4A 3921   4.310   8.794   5.725
  301POPC   C1B 3922   3.971   8.816   4.672
  301POPC   C2B 3923   3.782   8.604   5.015
  301POPC   C3B 3924   3.900   8.686   5.433
  301POPC   C4B 3925   3.908   8.483   5.852
  302POPC   NC3 3926   9.948   3.569   3.956
  302POPC   PO4 3927   0.057   3.292   3.820
  302POPC   GL1 3928  10.413   3.531   4.217
  302POPC   GL2 3929  10.098   3.402   4.407
  302POPC   C1A 3930  10.427   3.709   4.665
  302POPC   D2A 3931  10.324   3.543   5.086
  302POPC   C3A 3932  10.319   3.680   5.534
  302POPC   C4A 3933  10.432   3.369   5.890
  302POPC   C1B 3934   9.908   3.720   4.709
  302POPC   C2B 3935   9.998   3.921   5.110
  302POPC   C3B 3936   9.808   3.744   5.479
  302POPC   C4B 3937   9.937   3.380   5.676
  303POPC   NC3 3938   0.900   6.399   3.738
  303POPC   PO4 3939   1.468   6.135   3.888
  303POPC   GL1 3940   1.433   6.248   4.290
  303POPC   GL2 3941   1.173   6.512   4.249
  303POPC   C1A 3942   1.460   6.367   4.703
  303POPC   D2A 3943   1.341   6.123   5.042
  303POPC   C3A 3944   1.402   6.301   5.413
  303POPC   C4A 3945   1.363   6.090   5.780
  303POPC   C1B 3946   0.979   6.555   4.682
  303POPC   C2B 3947   0.996   6.488   5.152
  303POPC   C3B 3948   0.969   6.498   5.641
  303POPC   C4B 3949   0.813   6.622   6.087
  304POPC   NC3 3950   9.994   5.907   4.049
  304POPC   PO4 3951   0.073   5.654   3.811
  304POPC   GL1 3952  10.359   5.542   4.274
  304POPC   GL2 3953  10.057   5.478   4.296
  304POPC   C1A 3954  10.235   5.716   4.716
  304POPC   D2A 3955   0.030   5.840   5.015
  304POPC   C3A 3956  10.365   5.643   5.358
  304POPC   C4A 3957  10.487   5.596   5.745
  304POPC   C1B 3958   9.791   5.453   4.683
  304POPC   C2B 3959   9.923   5.474   5.098
  304POPC   C3B 3960   9.835   5.555   5.506
  304POPC   C4B 3961  10.032   5.844   5.672
  305POPC   NC3 3962   8.398   4.785   3.924
  305POPC   PO4 3963   9.094   4.716   4.023
  305POPC   GL1 3964   8.802   4.668   4.335
  305POPC   GL2 3965   8.757   5.037   4.317
  305POPC   C1A 3966   8.868   4.590   4.780
  305POPC   D2A 3967   8.744   4.784   5.179
  305POPC   C3A 3968   8.779   4.818   5.599
  305POPC   C4A 3969   8.934   4.531   5.860
  305POPC   C1B 3970   8.591   5.004   4.752
  305POPC   C2B 3971   8.410   5.162   5.195
  305POPC   C3B 3972   8.320   5.016   5.612
  305POPC   C4B 3973   8.382   5.191   6.028
  306POPC   NC3 3974   0.982   2.949   3.720
  306POPC   PO4 3975   0.907   2.313   4.105
  306POPC   GL1 3976   0.974   2.433   4.441
  306POPC   GL2 3977   1.296   2.384   4.483
  306POPC   C1A 3978   0.800   2.421   4.784
  306POPC   D2A 3979   0.847   2.719   5.071
  306POPC   C3A 3980   1.069   2.624   5.435
  306POPC   C4A 3981   0.820   2.374   5.630
  306POPC   C1B 3982   1.290   2.503   4.933
  306POPC   C2B 3983   1.335   2.902   5.086
  306POPC   C3B 3984   1.388   3.031   5.478
  306POPC   C4B 3985   1.303   2.933   5.904
  307POPC   NC3 3986   8.005   8.151   3.894
  307POPC   PO4 3987   7.626   7.478   3.847
  307POPC   GL1 3988   7.837   7.713   4.230
  307POPC   GL2 3989   7.819   8.039   4.358
  307POPC   C1A 3990   8.060   7.713   4.670
  307POPC   D2A 3991   8.057   7.584   5.107
  307POPC   C3A 3992   8.126   7.802   5.482
  307POPC   C4A 3993   8.283   7.833   5.888
  307POPC   C1B 3994   7.683   8.063   4.772
  307POPC   C2B 3995   7.702   7.966   5.174
  307POPC   C3B 3996   7.630   7.825   5.552
  307POPC   C4B 3997   7.814   8.106   5.756
  308POPC   NC3 3998   4.327   7.841   3.918
  308POPC   PO4 3999   3.821   8.374   3.878
  308POPC   GL1 4000   3.952   8.125   4.246
  308POPC   GL2 4001   4.036   7.765   4.311
  308POPC   C1A 4002   4.020   8.276   4.670
  308POPC   D2A 4003   4.198   8.248   5.062
  308POPC   C3A 4004   4.073   8.165   5.485
  308POPC   C4A 4005   4.191   8.065   5.949
  308POPC   C1B 4006   4.220   7.798   4.752
  308POPC   C2B 4007   4.242   7.752   5.182
  308POPC   C3B 4008   4.340   7.736   5.595
  308POPC   C4B 4009   3.970   7.518   5.755
  309POPC   NC3 4010   0.812  10.203   3.880
  309POPC   PO4 4011   1.289   9.834   3.992
  309POPC   GL1 4012   1.020   9.967   4.300
  309POPC   GL2 4013   1.039  10.352   4.349
  309POPC   C1A 4014   0.973  10.025   4.734
  309POPC   D2A 4015   0.848  10.111   5.129
  309POPC   C3A 4016   0.745   9.832   5.431
  309POPC   C4A 4017   0.875   9.824   5.839
  309POPC   C1B 4018   0.931   0.026   4.787
  309POPC   C2B 4019   1.123   0.036   5.216
  309POPC   C3B 4020   1.044  10.263   5.591
  309POPC   C4B 4021   1.309  10.106   5.928
  310POPC   NC3 4022   3.401   8.801   3.897
  310POPC   PO4 4023   3.162   8.288   3.618
  310POPC   GL1 4024   3.405   8.390   4.171
  310POPC   GL2 4025   3.549   8.740   4.366
  310POPC   C1A 4026   3.500   8.318   4.626
  310POPC   D2A 4027   3.308   8.310   5.035
  310POPC   C3A 4028   3.529   8.354   5.403
  310POPC   C4A 4029   3.370   8.413   5.790
  310POPC   C1B 4030   3.299   8.784   4.765
  310POPC   C2B 4031   3.274   8.809   5.186
  310POPC   C3B 4032   3.337   9.032   5.506
  310POPC   C4B 4033   3.578   8.877   5.790
  311POPC   NC3 4034   8.666   2.879   3.969
  311POPC   PO4 4035   9.151   2.392   3.842
  311POPC   GL1 4036   8.894   2.424   4.245
  311POPC   GL2 4037   8.523   2.513   4.293
  311POPC   C1A 4038   8.798   2.381   4.700
  311POPC   D2A 4039   9.052   2.495   5.061
  311POPC   C3A 4040   8.942   2.461   5.488
  311POPC   C4A 4041   8.819   2.474   5.942
  311POPC   C1B 4042   8.540   2.819   4.671
  311POPC   C2B 4043   8.568   2.682   5.118
  311POPC   C3B 4044   8.617   2.841   5.540
  311POPC   C4B 4045   8.382   2.871   5.880
  312POPC   NC3 4046   8.868   1.974   3.595
  312POPC   PO4 4047   8.415   1.491   3.943
  312POPC   GL1 4048   8.343   1.786   4.308
  312POPC   GL2 4049   8.663   1.961   4.291
  312POPC   C1A 4050   8.360   2.076   4.674
  312POPC   D2A 4051   8.544   2.156   5.081
  312POPC   C3A 4052   8.380   1.972   5.449
  312POPC   C4A 4053   8.461   2.352   5.620
  312POPC   C1B 4054   8.822   1.825   4.720
  312POPC   C2B 4055   9.004   1.941   5.149
  312POPC   C3B 4056   8.864   1.960   5.587
  312POPC   C4B 4057   8.953   1.721   5.974
  313POPC   NC3 4058   7.893   4.206   4.064
  313POPC   PO4 4059   8.502   4.376   3.717
  313POPC   GL1 4060   8.383   4.370   4.190
  313POPC   GL2 4061   8.601   4.152   4.284
  313POPC   C1A 4062   8.411   4.407   4.671
  313POPC   D2A 4063   8.588   4.293   5.083
  313POPC   C3A 4064   8.480   4.437   5.508
  313POPC   C4A 4065   8.400   4.175   5.841
  313POPC   C1B 4066   8.903   4.110   4.605
  313POPC   C2B 4067   9.001   4.007   5.024
  313POPC   C3B 4068   8.918   4.182   5.458
  313POPC   C4B 4069   8.906   4.020   5.840
  314POPC   NC3 4070   3.474   8.028   3.832
  314POPC   PO4 4071   2.922   8.285   4.110
  314POPC   GL1 4072   3.143   7.935   4.291
  314POPC   GL2 4073   3.496   7.877   4.303
  314POPC   C1A 4074   3.245   7.889   4.749
  314POPC   D2A 4075   3.289   7.756   5.162
  314POPC   C3A 4076   3.263   7.955   5.562
  314POPC   C4A 4077   2.965   8.093   5.824
  314POPC   C1B 4078   3.727   7.859   4.673
  314POPC   C2B 4079   3.743   8.013   5.056
  314POPC   C3B 4080   3.727   7.804   5.424
  314POPC   C4B 4081   3.710   8.023   5.807
  315POPC   NC3 4082   2.790   8.021   3.761
  315POPC   PO4 4083   2.277   8.466   3.943
  315POPC   GL1 4084   2.453   8.297   4.306
  315POPC   GL2 4085   2.549   7.936   4.229
  315POPC   C1A 4086   2.403   8.179   4.724
  315POPC   D2A 4087   2.433   8.307   5.127
  315POPC   C3A 4088   2.441   8.114   5.456
  315POPC   C4A 4089   2.202   8.034   5.781
  315POPC   C1B 4090   2.768   7.863   4.620
  315POPC   C2B 4091   2.861   8.044   5.035
  315POPC   C3B 4092   2.823   7.808   5.388
  315POPC   C4B 4093   2.614   7.732   5.759
  316POPC   NC3 4094   0.313   2.894   3.818
  316POPC   PO4 4095   0.794   2.526   3.657
  316POPC   GL1 4096   0.713   2.761   4.110
  316POPC   GL2 4097   0.466   2.569   4.256
  316POPC   C1A 4098   0.696   2.874   4.572
  316POPC   D2A 4099   0.402   2.949   4.936
  316POPC   C3A 4100   0.469   2.896   5.376
  316POPC   C4A 4101   0.630   2.808   5.786
  316POPC   C1B 4102   0.309   2.491   4.687
  316POPC   C2B 4103   0.422   2.412   5.150
  316POPC   C3B 4104   0.304   2.470   5.602
  316POPC   C4B 4105   0.158   2.518   6.038
  317POPC   NC3 4106   2.071   2.698   3.903
  317POPC   PO4 4107   1.559   2.236   3.992
  317POPC   GL1 4108   1.739   2.532   4.290
  317POPC   GL2 4109   2.064   2.577   4.389
  317POPC   C1A 4110   1.685   2.710   4.715
  317POPC   D2A 4111   1.773   2.555   5.163
  317POPC   C3A 4112   1.598   2.551   5.580
  317POPC   C4A 4113   1.779   2.900   5.772
  317POPC   C1B 4114   2.118   2.440   4.792
  317POPC   C2B 4115   2.284   2.637   5.151
  317POPC   C3B 4116   2.162   2.612   5.558
  317POPC   C4B 4117   2.047   2.483   5.936
  318POPC   NC3 4118  10.222   1.907   3.891
  318POPC   PO4 4119   0.112   2.491   3.895
  318POPC   GL1 4120   0.077   2.128   4.263
  318POPC   GL2 4121  10.229   1.980   4.406
  318POPC   C1A 4122   0.126   2.005   4.738
  318POPC   D2A 4123  10.451   1.775   5.124
  318POPC   C3A 4124  10.276   1.954   5.528
  318POPC   C4A 4125  10.292   2.402   5.669
  318POPC   C1B 4126  10.046   1.938   4.849
  318POPC   C2B 4127   9.955   2.206   5.213
  318POPC   C3B 4128   9.821   2.168   5.652
  318POPC   C4B 4129   9.933   1.892   5.981
  319POPC   NC3 4130   7.805   6.272   3.871
  319POPC   PO4 4131   8.161   6.762   3.592
  319POPC   GL1 4132   8.149   6.802   4.150
  319POPC   GL2 4133   8.157   6.456   4.242
  319POPC   C1A 4134   7.974   6.799   4.597
  319POPC   D2A 4135   7.919   6.542   4.969
  319POPC   C3A 4136   8.111   6.594   5.385
  319POPC   C4A 4137   7.941   6.776   5.773
  319POPC   C1B 4138   8.035   6.161   4.596
  319POPC   C2B 4139   7.929   6.049   5.042
  319POPC   C3B 4140   8.149   6.026   5.431
  319POPC   C4B 4141   7.988   6.245   5.762
  320POPC   NC3 4142   5.046  10.244   3.836
  320POPC   PO4 4143   4.474   0.086   3.923
  320POPC   GL1 4144   4.603  10.397   4.325
  320POPC   GL2 4145   4.928  10.237   4.346
  320POPC   C1A 4146   4.728  10.431   4.764
  320POPC   D2A 4147   4.977  10.441   5.115
  320POPC   C3A 4148   4.826  10.143   5.411
  320POPC   C4A 4149   4.620  10.177   5.816
  320POPC   C1B 4150   4.891   9.954   4.737
  320POPC   C2B 4151   5.054   9.739   5.090
  320POPC   C3B 4152   5.238   9.768   5.483
  320POPC   C4B 4153   5.061   9.919   5.859
  321POPC   NC3 4154   7.702   2.751   3.734
  321POPC   PO4 4155   8.234   3.065   3.899
  321POPC   GL1 4156   8.124   2.879   4.295
  321POPC   GL2 4157   7.846   2.654   4.232
  321POPC   C1A 4158   8.136   2.557   4.638
  321POPC   D2A 4159   8.056   2.500   5.049
  321POPC   C3A 4160   8.128   2.729   5.435
  321POPC   C4A 4161   7.826   2.860   5.811
  321POPC   C1B 4162   7.642   2.623   4.649
  321POPC   C2B 4163   7.530   2.419   5.032
  321POPC   C3B 4164   7.628   2.596   5.419
  321POPC   C4B 4165   7.515   2.425   5.794
  322POPC   NC3 4166   3.757   2.857   3.974
  322POPC   PO4 4167   3.240   2.596   4.025
  322POPC   GL1 4168   3.435   2.459   4.431
  322POPC   GL2 4169   3.754   2.669   4.439
  322POPC   C1A 4170   3.722   2.296   4.756
  322POPC   D2A 4171   3.913   2.636   4.992
  322POPC   C3A 4172   3.661   2.717   5.376
  322POPC   C4A 4173   3.434   2.410   5.660
  322POPC   C1B 4174   3.418   2.927   4.624
  322POPC   C2B 4175   3.270   3.081   5.015
  322POPC   C3B 4176   3.073   3.086   5.415
  322POPC   C4B 4177   3.273   2.915   5.733
  323POPC   NC3 4178   1.132   3.832   3.878
  323POPC   PO4 4179   1.419   4.476   3.891
  323POPC   GL1 4180   1.224   4.237   4.192
  323POPC   GL2 4181   0.960   4.024   4.344
  323POPC   C1A 4182   1.329   4.328   4.603
  323POPC   D2A 4183   1.220   4.520   4.981
  323POPC   C3A 4184   1.195   4.315   5.379
  323POPC   C4A 4185   1.120   4.407   5.801
  323POPC   C1B 4186   0.882   4.172   4.759
  323POPC   C2B 4187   1.234   3.997   4.985
  323POPC   C3B 4188   1.489   3.886   5.332
  323POPC   C4B 4189   1.293   3.927   5.742
  324POPC   NC3 4190   9.492   8.353   4.025
  324POPC   PO4 4191   9.798   9.044   4.103
  324POPC   GL1 4192   9.560   8.835   4.417
  324POPC   GL2 4193   9.503   8.483   4.499
  324POPC   C1A 4194   9.425   8.910   4.775
  324POPC   D2A 4195   9.643   9.020   5.098
  324POPC   C3A 4196   9.361   8.883   5.390
  324POPC   C4A 4197   9.290   8.961   5.773
  324POPC   C1B 4198   9.364   8.384   4.798
  324POPC   C2B 4199   9.517   8.500   5.103
  324POPC   C3B 4200   9.437   8.379   5.498
  324POPC   C4B 4201   9.346   8.442   5.874
  325POPC   NC3 4202   5.707   1.296   3.868
  325POPC   PO4 4203   5.216   1.074   4.184
  325POPC   GL1 4204   5.640   0.993   4.318
  325POPC   GL2 4205   5.934   1.235   4.324
  325POPC   C1A 4206   5.825   0.950   4.734
  325POPC   D2A 4207   5.996   1.261   5.030
  325POPC   C3A 4208   5.834   1.234   5.461
  325POPC   C4A 4209   5.921   0.997   5.897
  325POPC   C1B 4210   5.595   1.401   4.626
  325POPC   C2B 4211   5.452   1.258   5.046
  325POPC   C3B 4212   5.317   1.115   5.472
  325POPC   C4B 4213   5.513   1.300   5.843
  326POPC   NC3 4214  10.382   1.107   3.885
  326POPC   PO4 4215   0.191   1.753   3.855
  326POPC   GL1 4216  10.437   1.554   4.218
  326POPC   GL2 4217  10.233   1.233   4.329
  326POPC   C1A 4218  10.349   1.563   4.665
  326POPC   D2A 4219  10.298   1.281   4.987
  326POPC   C3A 4220  10.143   1.437   5.366
  326POPC   C4A 4221  10.235   1.512   5.787
  326POPC   C1B 4222  10.111   0.932   4.650
  326POPC   C2B 4223  10.082   0.689   5.025
  326POPC   C3B 4224   9.992   0.747   5.432
  326POPC   C4B 4225  10.146   1.030   5.716
  327POPC   NC3 4226   1.122   1.919   3.997
  327POPC   PO4 4227   1.629   1.472   4.127
  327POPC   GL1 4228   1.421   1.768   4.414
  327POPC   GL2 4229   1.076   1.910   4.476
  327POPC   C1A 4230   1.516   1.654   4.839
  327POPC   D2A 4231   1.258   1.740   5.205
  327POPC   C3A 4232   1.341   2.081   5.501
  327POPC   C4A 4233   1.406   1.726   5.754
  327POPC   C1B 4234   1.162   2.039   4.821
  327POPC   C2B 4235   0.937   2.152   5.179
  327POPC   C3B 4236   0.856   1.889   5.501
  327POPC   C4B 4237   1.009   1.996   5.908
  328POPC   NC3 4238   9.319   3.523   3.918
  328POPC   PO4 4239   9.855   3.118   3.945
  328POPC   GL1 4240   9.560   3.226   4.293
  328POPC   GL2 4241   9.193   3.301   4.355
  328POPC   C1A 4242   9.541   3.330   4.737
  328POPC   D2A 4243   9.801   3.360   5.114
  328POPC   C3A 4244   9.525   3.216   5.441
  328POPC   C4A 4245   9.592   3.070   5.875
  328POPC   C1B 4246   9.088   3.607   4.647
  328POPC   C2B 4247   9.016   3.502   5.073
  328POPC   C3B 4248   8.963   3.650   5.463
  328POPC   C4B 4249   9.261   3.529   5.743
  329POPC   NC3 4250   9.502   2.128   4.024
  329POPC   PO4 4251   9.131   1.550   4.040
  329POPC   GL1 4252   9.170   1.900   4.333
  329POPC   GL2 4253   9.500   1.814   4.447
  329POPC   C1A 4254   9.237   2.145   4.719
  329POPC   D2A 4255   9.508   2.041   5.041
  329POPC   C3A 4256   9.375   2.211   5.412
  329POPC   C4A 4257   9.241   2.197   5.838
  329POPC   C1B 4258   9.303   1.630   4.806
  329POPC   C2B 4259   9.440   1.569   5.232
  329POPC   C3B 4260   9.321   1.744   5.609
  329POPC   C4B 4261   9.445   1.769   6.073
  330POPC   NC3 4262   0.255   7.141   3.885
  330POPC   PO4 4263   0.033   6.555   3.901
  330POPC   GL1 4264   0.207   6.851   4.278
  330POPC   GL2 4265   0.395   7.161   4.385
  330POPC   C1A 4266   0.222   6.805   4.716
  330POPC   D2A 4267   0.461   6.988   5.065
  330POPC   C3A 4268   0.211   7.150   5.406
  330POPC   C4A 4269   0.372   7.074   5.811
  330POPC   C1B 4270   0.723   7.270   4.702
  330POPC   C2B 4271   0.894   7.367   5.093
  330POPC   C3B 4272   0.681   7.370   5.474
  330POPC   C4B 4273   0.657   7.501   5.875
  331POPC   NC3 4274   1.505   5.008   3.923
  331POPC   PO4 4275   2.131   4.816   4.121
  331POPC   GL1 4276   2.024   5.036   4.434
  331POPC   GL2 4277   1.702   5.009   4.390
  331POPC   C1A 4278   1.965   5.062   4.866
  331POPC   D2A 4279   2.027   5.358   5.141
  331POPC   C3A 4280   2.250   5.263   5.523
  331POPC   C4A 4281   2.025   5.098   5.881
  331POPC   C1B 4282   1.693   4.668   4.694
  331POPC   C2B 4283   1.616   4.789   5.127
  331POPC   C3B 4284   1.901   4.906   5.402
  331POPC   C4B 4285   2.192   4.677   5.615
  332POPC   NC3 4286   1.094   7.944   3.923
  332POPC   PO4 4287   0.607   7.446   4.006
  332POPC   GL1 4288   0.763   7.794   4.295
  332POPC   GL2 4289   1.098   7.947   4.409
  332POPC   C1A 4290   0.790   7.782   4.747
  332POPC   D2A 4291   1.026   7.988   5.021
  332POPC   C3A 4292   0.903   7.814   5.372
  332POPC   C4A 4293   1.070   7.808   5.750
  332POPC   C1B 4294   1.466   7.978   4.639
  332POPC   C2B 4295   1.541   8.133   5.045
  332POPC   C3B 4296   1.338   8.098   5.425
  332POPC   C4B 4297   1.358   8.228   5.841
  333POPC   NC3 4298  10.068   6.489   3.971
  333POPC   PO4 4299  10.425   6.013   4.188
  333POPC   GL1 4300  10.144   6.255   4.412
  333POPC   GL2 4301  10.290   6.579   4.404
  333POPC   C1A 4302  10.073   6.273   4.824
  333POPC   D2A 4303  10.061   6.007   5.170
  333POPC   C3A 4304  10.396   6.147   5.433
  333POPC   C4A 4305  10.235   6.264   5.801
  333POPC   C1B 4306  10.180   6.798   4.730
  333POPC   C2B 4307  10.029   6.709   5.129
  333POPC   C3B 4308  10.194   6.651   5.485
  333POPC   C4B 4309  10.468   6.723   5.810
  334POPC   NC3 4310   3.455   3.708   3.837
  334POPC   PO4 4311   3.936   3.307   3.925
  334POPC   GL1 4312   3.633   3.266   4.278
  334POPC   GL2 4313   3.293   3.449   4.276
  334POPC   C1A 4314   3.596   3.403   4.713
  334POPC   D2A 4315   3.467   3.549   5.112
  334POPC   C3A 4316   3.550   3.247   5.447
  334POPC   C4A 4317   3.671   3.285   5.873
  334POPC   C1B 4318   3.066   3.479   4.690
  334POPC   C2B 4319   2.911   3.453   5.108
  334POPC   C3B 4320   3.132   3.580   5.496
  334POPC   C4B 4321   3.565   3.737   5.598
  335POPC   NC3 4322  10.363   5.224   3.885
  335POPC   PO4 4323  10.289   4.545   3.812
  335POPC   GL1 4324  10.307   4.699   4.236
  335POPC   GL2 4325  10.327   5.028   4.337
  335POPC   C1A 4326  10.104   4.669   4.643
  335POPC   D2A 4327  10.094   4.466   5.048
  335POPC   C3A 4328  10.108   4.660   5.420
  335POPC   C4A 4329   9.954   4.791   5.774
  335POPC   C1B 4330  10.194   5.173   4.681
  335POPC   C2B 4331  10.099   5.005   5.059
  335POPC   C3B 4332  10.242   5.147   5.456
  335POPC   C4B 4333  10.128   5.273   5.834
  336POPC   NC3 4334   6.382   1.196   3.829
  336POPC   PO4 4335   6.744   1.762   3.636
  336POPC   GL1 4336   6.652   1.538   4.136
  336POPC   GL2 4337   6.571   1.161   4.286
  336POPC   C1A 4338   6.750   1.465   4.636
  336POPC   D2A 4339   6.576   1.225   4.989
  336POPC   C3A 4340   6.638   1.329   5.415
  336POPC   C4A 4341   6.650   1.087   5.842
  336POPC   C1B 4342   6.325   0.960   4.626
  336POPC   C2B 4343   6.254   0.798   5.055
  336POPC   C3B 4344   6.282   0.972   5.467
  336POPC   C4B 4345   6.243   1.356   5.740
  337POPC   NC3 4346   2.348   9.655   3.737
  337POPC   PO4 4347   2.756   9.163   3.880
  337POPC   GL1 4348   2.890   9.449   4.354
  337POPC   GL2 4349   2.987   9.197   4.576
  337POPC   C1A 4350   2.784   9.609   4.775
  337POPC   D2A 4351   2.899   9.820   5.145
  337POPC   C3A 4352   2.652   9.580   5.452
  337POPC   C4A 4353   2.476   9.693   5.842
  337POPC   C1B 4354   2.775   9.054   4.883
  337POPC   C2B 4355   2.815   9.054   5.288
  337POPC   C3B 4356   2.621   9.107   5.620
  337POPC   C4B 4357   2.950   9.234   5.825
  338POPC   NC3 4358   6.454   2.565   3.649
  338POPC   PO4 4359   6.427   3.111   4.034
  338POPC   GL1 4360   6.463   2.961   4.440
  338POPC   GL2 4361   6.412   2.618   4.358
  338POPC   C1A 4362   6.494   2.921   4.887
  338POPC   D2A 4363   6.194   2.654   5.120
  338POPC   C3A 4364   6.188   2.783   5.560
  338POPC   C4A 4365   6.470   2.901   5.977
  338POPC   C1B 4366   6.620   2.472   4.694
  338POPC   C2B 4367   6.600   2.338   5.093
  338POPC   C3B 4368   6.637   2.592   5.426
  338POPC   C4B 4369   6.541   2.444   5.814
  339POPC   NC3 4370   1.223   1.046   3.681
  339POPC   PO4 4371   1.252   0.635   4.215
  339POPC   GL1 4372   1.067   0.459   4.538
  339POPC   GL2 4373   1.352   0.220   4.601
  339POPC   C1A 4374   0.917   0.776   4.803
  339POPC   D2A 4375   1.055   0.928   5.205
  339POPC   C3A 4376   1.035   0.605   5.522
  339POPC   C4A 4377   0.805   0.217   5.605
  339POPC   C1B 4378   1.319   0.513   4.966
  339POPC   C2B 4379   1.549   0.752   5.238
  339POPC   C3B 4380   1.537   0.575   5.607
  339POPC   C4B 4381   1.393   0.139   5.660
  340POPC   NC3 4382   1.878   1.832   3.978
  340POPC   PO4 4383   2.355   2.302   3.951
  340POPC   GL1 4384   2.157   2.082   4.369
  340POPC   GL2 4385   1.923   1.815   4.455
  340POPC   C1A 4386   2.167   1.932   4.855
  340POPC   D2A 4387   2.134   2.152   5.242
  340POPC   C3A 4388   2.300   1.916   5.576
  340POPC   C4A 4389   2.268   1.895   6.023
  340POPC   C1B 4390   1.704   2.144   4.657
  340POPC   C2B 4391   1.618   2.095   5.061
  340POPC   C3B 4392   1.766   1.812   5.359
  340POPC   C4B 4393   1.851   2.040   5.728
  341POPC   NC3 4394   8.524   6.717   3.869
  341POPC   PO4 4395   9.123   6.871   3.856
  341POPC   GL1 4396   8.893   6.980   4.273
  341POPC   GL2 4397   8.738   7.275   4.420
  341POPC   C1A 4398   8.492   6.838   4.509
  341POPC   D2A 4399   8.369   6.771   4.935
  341POPC   C3A 4400   8.443   6.976   5.316
  341POPC   C4A 4401   8.430   6.965   5.760
  341POPC   C1B 4402   8.793   7.089   4.804
  341POPC   C2B 4403   8.985   7.091   5.129
  341POPC   C3B 4404   8.938   7.304   5.419
  341POPC   C4B 4405   8.876   7.184   5.793
  342W        W 4406   1.297   4.690  10.449
  343W        W 4407   6.562   2.887   1.426
  344W        W 4408   6.574   8.535   9.148
  345W        W 4409   2.638   8.750  11.375
  346W        W 4410   6.223   6.129   1.308
  347W        W 4411   8.634   1.951   1.220
  348W        W 4412   3.757   7.516  11.554
  349W        W 4413   3.845   1.825   1.726
  350W        W 4414   6.948   3.259   0.070
  351W        W 4415   3.763   7.475   2.327
  352W        W 4416   7.670   7.470   3.064
  353W        W 4417   7.253   2.907  10.946
  354W        W 4418   6.629   6.074   2.518
  355W        W 4419  10.428   4.073   2.357
  356W        W 4420   0.729   2.882  11.583
  357W        W 4421   2.106   0.951  11.407
  358W        W 4422   0.689   2.570   8.767
  359W        W 4423   3.840   2.362  10.514
  360W        W 4424   7.599   0.742  11.925
  361W        W 4425   7.983   6.280  10.357
  362W        W 4426   9.613   5.033   1.972
  363W        W 4427   2.665   7.891   2.249
  364W        W 4428   3.762   6.442  10.500
  365W        W 4429   3.658   8.966   2.270
  366W        W 4430   5.594   9.692   1.308
  367W        W 4431   2.557   8.900   9.201
  368W        W 4432   4.954   4.817   1.661
  369W        W 4433   6.097   8.002   0.891
  370W        W 4434   9.179   3.299   9.367
  371W        W 4435  10.270   4.678   1.623
  372W        W 4436   8.591   9.389   3.176
  373W        W 4437   9.809   1.691  10.520
  374W        W 4438   4.629   4.390  10.875
  375W        W 4439   2.843   9.543   0.900
  376W        W 4440   3.922   8.612  11.472
  377W        W 4441  10.426   0.170   9.879
  378W        W 4442   8.531   8.330  10.384
  379W        W 4443   2.229   4.359   3.284
  380W        W 4444   3.346   9.671   0.982
  381W        W 4445   1.135   4.466   1.803
  382W        W 4446   6.142   8.560  10.924
  383W        W 4447   1.665   6.053   3.408
  384W        W 4448   1.535   9.242   0.399
  385W        W 4449   0.394   1.165   3.113
  386W        W 4450   2.180   7.822  10.983
  387W        W 4451   6.788   9.043  10.326
  388W        W 4452   3.063   7.699  11.928
  389W        W 4453   6.095   7.786  10.624
  390W        W 4454   2.587   5.233   2.848
  391W        W 4455   6.632   8.449  11.106
  392W        W 4456   9.070   9.514   3.040
  393W        W 4457   4.641  10.254   0.039
  394W        W 4458   7.298   6.251   3.898
  395W        W 4459   3.566   4.133   2.682
  396W        W 4460   1.508   9.628   3.576
  397W        W 4461  10.206   9.586   0.146
  398W        W 4462   3.725   7.698   9.911
  399W        W 4463   7.508  10.485   1.383
  400W        W 4464   5.123   4.591   8.233
  401W        W 4465   0.315   9.551  10.114
  402W        W 4466   9.678   9.405   2.385
  403W        W 4467   6.039   3.969   1.265
  404W        W 4468   7.201   1.307  10.341
  405W        W 4469   8.389   7.650   0.767
  406W        W 4470   3.791   0.260  10.067
  407W        W 4471   9.314   4.419   3.082
  408W        W 4472   2.352   3.249   9.336
  409W        W 4473   7.901   4.491  10.886
  410W        W 4474   7.959   7.604   3.473
  411W        W 4475   5.632   6.986   0.425
  412W        W 4476   9.079   9.156   2.156
  413W        W 4477   5.603   7.317   1.869
  414W        W 4478   8.437   6.235   8.610
  415W        W 4479   1.089   9.219   9.644
  416W        W 4480   8.052  10.177  10.213
  417W        W 4481   1.892  10.452   3.313
  418W        W 4482   7.888   0.958   2.275
  419W        W 4483   6.859   4.670   0.045
  420W        W 4484   8.849   3.498   2.406
  421W        W 4485   1.684   2.038   2.293
  422W        W 4486   9.677   8.350   0.793
  423W        W 4487   5.458   7.504  10.001
  424W        W 4488   1.337   7.449  10.926
  425W        W 4489   6.056   4.759  11.448
  426W        W 4490   0.925   9.551   0.420
  427W        W 4491   1.363   9.903   2.421
  428W        W 4492   4.130   4.503   0.206
  429W        W 4493   4.082   9.464   9.867
  430W        W 4494   4.815   3.210  10.297
  431W        W 4495   5.170   7.951   8.959
  432W        W 4496   6.061   9.984   2.729
  433W        W 4497   8.867   4.810  11.819
  434W        W 4498   0.850   7.561   3.101
  435W        W 4499   0.850   4.945   2.658
  436W        W 4500   4.365  10.403  10.008
  437W        W 4501   3.847   0.443  11.453
  438W        W 4502   0.013   6.988  11.320
  439W        W 4503   8.425   3.153   8.852
  440W        W 4504   3.596   6.406   3.666
  441W        W 4505   4.261   8.473   0.747
  442W        W 4506   4.264   8.833  11.108
  443W        W 4507   1.930   5.623   3.338
  444W        W 4508   7.598   8.586   1.267
  445W        W 4509   5.183   7.221   3.915
  446W        W 4510   6.449   9.794  11.490
  447W        W 4511   7.207   0.897   9.198
  448W        W 4512   4.780  10.453  10.598
  449W        W 4513   9.026   5.619   3.479
  450W        W 4514   1.669   6.635   9.326
  451W        W 4515   8.435   4.023   2.202
  452W        W 4516   8.987   6.575   1.459
  453W        W 4517   7.449   7.696   2.671
  454W        W 4518   7.054   5.936   3.104
  455W        W 4519   1.848   6.607  10.856
  456W        W 4520   8.712   3.406   0.065
  457W        W 4521   7.170   0.802   1.004
  458W        W 4522   1.911   5.270   9.118
  459W        W 4523   9.053   5.473  10.124
  460W        W 4524  10.248   5.011   0.727
  461W        W 4525   2.848   4.703   3.580
  462W        W 4526   0.971   7.007   1.325
  463W        W 4527   0.891   4.433  10.287
  464W        W 4528   6.988   4.903   1.000
  465W        W 4529   6.409   2.047   9.514
  466W        W 4530   7.504   0.505  11.292
  467W        W 4531   5.634   8.488  10.859
  468W        W 4532   3.727   7.073   9.115
  469W        W 4533  10.127   7.586  10.398
  470W        W 4534   9.342   1.839  10.365
  471W        W 4535   1.604   1.938   1.773
  472W        W 4536   7.064   3.122   3.062
  473W        W 4537   3.990   0.365   8.694
  474W        W 4538   4.743   4.905   8.419
  475W        W 4539   5.039   2.585   0.349
  476W        W 4540   6.692   6.684  11.902
  477W        W 4541   7.735   0.479   2.307
  478W        W 4542   4.531   9.627   8.522
  479W        W 4543   8.405   0.832   2.298
  480W        W 4544   5.264   9.149  11.971
  481W        W 4545   4.716   6.613  10.717
  482W        W 4546   6.727   3.096   0.982
  483W        W 4547   0.853   2.120   0.694
  484W        W 4548   8.390   7.389   3.285
  485W        W 4549   1.324  10.380   3.323
  486W        W 4550   6.394   6.981   3.309
  487W        W 4551   3.766   8.493   0.892
  488W        W 4552   5.684   8.433   2.692
  489W        W 4553   2.690   6.054   8.375
  490W        W 4554   3.699   8.694   3.497
  491W        W 4555   2.159   8.543   1.634
  492W        W 4556   7.270   6.497  10.718
  493W        W 4557   1.179   5.643   9.027
  494W        W 4558   7.726   6.821   9.320
  495W        W 4559   4.553   7.119  10.726
  496W        W 4560   5.457   3.688   8.195
  497W        W 4561   3.160   4.108   9.763
  498W        W 4562   8.959   1.333   9.749
  499W        W 4563   0.074   3.182   2.676
  500W        W 4564   6.013   4.774   2.482
  501W        W 4565   7.750   8.968  11.492
  502W        W 4566   4.121   2.587   9.450
  503W        W 4567  10.020   0.188  10.209
  504W        W 4568   7.566   0.104   3.384
  505W        W 4569   0.735   2.514  10.743
  506W        W 4570   3.214   6.745   2.484
  507W        W 4571   1.156   2.374   9.704
  508W        W 4572   4.098   6.245   1.974
  509W        W 4573   3.835   5.012  10.629
  510W        W 4574   9.241   2.771  11.363
  511W        W 4575   5.405   4.874   3.650
  512W        W 4576   8.568   9.875   1.663
  513W        W 4577   2.436   9.187   1.227
  514W        W 4578   4.502   4.554   9.990
  515W        W 4579   6.759   7.537   1.319
  516W        W 4580   4.656   9.298  11.557
  517W        W 4581   5.171   3.620   3.258
  518W        W 4582   8.917   6.007   0.843
  519W        W 4583   2.779   3.685   3.210
  520W        W 4584   6.941   4.352   3.927
  521W        W 4585   4.822   9.842  10.307
  522W        W 4586  10.359   6.089   8.868
  523W        W 4587   5.276   4.070   0.194
  524W        W 4588   9.486   4.255   0.735
  525W        W 4589   5.305   4.130  10.328
  526W        W 4590  10.246   4.277  10.109
  527W        W 4591   4.294  10.107   2.716
  528W        W 4592   2.656   1.329   3.118
  529W        W 4593   6.185   3.465   3.102
  530W        W 4594   6.936   0.367   2.008
  531W        W 4595   2.777   1.412   1.018
  532W        W 4596   5.953   3.128   8.851
  533W        W 4597   3.147   2.240   9.532
  534W        W 4598   9.135   4.182   9.581
  535W        W 4599   8.461   2.449   0.393
  536W        W 4600   5.687   5.466   9.460
  537W        W 4601   2.697   1.501   9.103
  538W        W 4602   8.908   4.289  10.527
  539W        W 4603   2.216   9.956   9.013
  540W        W 4604   5.766   7.160  11.900
  541W        W 4605   8.469   3.879   2.731
  542W        W 4606  10.176   9.573   2.329
  543W        W 4607   9.327   5.091  11.018
  544W        W 4608   7.925   6.431   2.263
  545W        W 4609   6.947   4.749   9.807
  546W        W 4610   1.265   5.133   2.369
  547W        W 4611   9.647   0.438  10.462
  548W        W 4612   9.806   0.376   1.235
  549W        W 4613   4.794   1.771   1.947
  550W        W 4614   5.322   7.372   0.296
  551W        W 4615   0.530   4.010  11.392
  552W        W 4616   8.049   5.600   3.440
  553W        W 4617   4.243   8.268  11.170
  554W        W 4618   4.741   9.854   2.693
  555W        W 4619   1.338   9.774   1.404
  556W        W 4620  10.348   1.178   1.374
  557W        W 4621   7.943   5.462   9.372
  558W        W 4622   3.868   0.679   9.770
  559W        W 4623   0.486   0.855   2.729
  560W        W 4624   3.765   9.523   0.647
  561W        W 4625   1.588   1.970  10.985
  562W        W 4626   5.473   2.619   9.239
  563W        W 4627   3.491   3.374   0.367
  564W        W 4628   4.094   8.243  10.290
  565W        W 4629   9.161   1.388   8.811
  566W        W 4630   8.043   6.247  11.716
  567W        W 4631   8.100   4.623  10.446
  568W        W 4632   3.266   0.895   8.699
  569W        W 4633   2.321   8.182   1.333
  570W        W 4634   0.667   6.062   3.277
  571W        W 4635   3.521   6.720   3.227
  572W        W 4636   8.243   3.409   0.258
  573W        W 4637   3.033   0.104   0.947
  574W        W 4638   2.647  10.248   8.853
  575W        W 4639   3.754   1.418   1.398
  576W        W 4640   2.071   5.088   9.745
  577W        W 4641   4.236   0.224  11.759
  578W        W 4642   9.912   4.877  10.054
  579W        W 4643   5.445   1.298  10.017
  580W        W 4644   9.976   8.547   9.492
  581W        W 4645   0.735   4.034   9.969
  582W        W 4646   9.332   0.471   9.559
  583W        W 4647   3.937   5.920   3.212
  584W        W 4648  10.241   7.400   8.484
  585W        W 4649   5.184   8.228   1.430
  586W        W 4650   7.065   1.545  10.821
  587W        W 4651  10.227   1.651   2.891
  588W        W 4652   2.279   2.687   0.660
  589W        W 4653  10.344   9.400   9.000
  590W        W 4654   1.739   3.326  11.491
  591W        W 4655   7.866   9.360   2.102
  592W        W 4656   9.947   3.757   1.146
  593W        W 4657   1.250   0.042  10.317
  594W        W 4658   1.476   8.982   9.385
  595W        W 4659   7.937   8.498  10.709
  596W        W 4660  10.092   4.323   3.352
  597W        W 4661   5.559   5.001  11.353
  598W        W 4662   1.722   2.701   2.914
  599W        W 4663   0.089   4.266   3.530
  600W        W 4664   8.375   0.491  11.252
  601W        W 4665  10.342  10.388   1.245
  602W        W 4666   1.009   4.777   3.139
  603W        W 4667   4.513   6.213   8.537
  604W        W 4668  10.170   3.434   3.487
  605W        W 4669  10.389   5.158  10.087
  606W        W 4670   8.934   5.258   2.293
  607W        W 4671   9.435   6.153   3.269
  608W        W 4672  10.300   0.622  10.084
  609W        W 4673   4.276   3.778   2.714
  610W        W 4674  10.360  10.082  10.758
  611W        W 4675   7.111   3.279  10.594
  612W        W 4676   4.957   2.134   9.690
  613W        W 4677   6.319   3.538   8.511
  614W        W 4678  10.385   3.772   1.450
  615W        W 4679   9.549   5.850   2.393
  616W        W 4680   5.076   2.606   9.565
  617W        W 4681   1.768  10.279  11.657
  618W        W 4682   3.630   1.296  10.405
  619W        W 4683   8.343  10.056  10.909
  620W        W 4684   2.890   1.269   0.230
  621W        W 4685   2.407   8.400   9.162
  622W        W 4686  10.245  10.200   1.734
  623W        W 4687   9.725   2.671   0.460
  624W        W 4688   0.382   1.170   1.743
  625W        W 4689   2.113   5.544   9.527
  626W        W 4690   8.041   6.971   1.410
  627W        W 4691   0.322   9.534   9.595
  628W        W 4692   5.318   5.031   1.382
  629W        W 4693   5.342   0.208   1.175
  630W        W 4694   9.490   7.968   9.931
  631W        W 4695   9.750   7.828  11.862
  632W        W 4696   3.755   2.282   3.581
  633W        W 4697   9.898   3.821   9.349
  634W        W 4698   6.550   7.439  10.119
  635W        W 4699   7.670   3.164   9.273
  636W        W 4700   3.215   0.600   3.560
  637W        W 4701   0.948   3.972   8.979
  638W        W 4702   8.455   0.351  11.724
  639W        W 4703   0.826   0.479   8.977
  640W        W 4704   7.089   4.116   2.578
  641W        W 4705   9.550  10.399   8.525
  642W        W 4706   5.151   7.235   1.655
  643W        W 4707   6.037   2.062   2.151
  644W        W 4708   9.577   7.039  11.512
  645W        W 4709   5.185   7.623   2.587
  646W        W 4710   7.524   7.637   8.868
  647W        W 4711   3.584   5.159   1.221
  648W        W 4712   7.873   3.981  11.002
  649W        W 4713   6.161   5.985   2.746
  650W        W 4714   6.169   1.862   9.091
  651W        W 4715   7.912   4.342   0.464
  652W        W 4716   5.790   8.379  10.030
  653W        W 4717   7.140   5.950  11.813
  654W        W 4718   0.927   1.424   9.803
  655W        W 4719   9.959   6.235   0.905
  656W        W 4720   8.170   5.634   0.578
  657W        W 4721   2.835   5.043   9.559
  658W        W 4722   0.396   1.247  11.850
  659W        W 4723   8.046   5.472   1.315
  660W        W 4724   4.550   9.860   2.205
  661W        W 4725   2.597   1.985  11.799
  662W        W 4726   1.841   4.659   8.467
  663W        W 4727   6.027   3.238   0.740
  664W        W 4728   0.127   9.322   2.495
  665W        W 4729   6.538   1.388   1.331
  666W        W 4730   7.186   0.391   9.421
  667W        W 4731   2.117   6.592   9.008
  668W        W 4732   7.004   3.193   0.566
  669W        W 4733   2.445   9.657   0.208
  670W        W 4734   4.015   3.264  10.030
  671W        W 4735   5.068   3.520   2.782
  672W        W 4736   8.809   8.407  11.865
  673W        W 4737   4.579   0.598  10.501
  674W        W 4738   4.245   0.929   9.981
  675W        W 4739   5.158   0.869   8.916
  676W        W 4740   9.967   0.311   0.216
  677W        W 4741   6.048   9.645   0.022
  678W        W 4742   6.526   4.746  11.665
  679W        W 4743   2.289   1.278   8.494
  680W        W 4744   1.765   4.671  10.612
  681W        W 4745   4.209   7.996   1.640
  682W        W 4746   4.624   0.525   1.008
  683W        W 4747   7.470   0.151  10.868
  684W        W 4748   0.106   4.940  11.271
  685W        W 4749   4.041   2.879  10.386
  686W        W 4750   7.955   6.803   0.921
  687W        W 4751   7.872   9.025   1.348
  688W        W 4752   5.671   4.518  10.298
  689W        W 4753   2.103   8.578  11.432
  690W        W 4754   5.656   7.567   2.326
  691W        W 4755   7.725   1.865  11.386
  692W        W 4756   0.512   6.983  11.133
  693W        W 4757   2.817   4.511   1.508
  694W        W 4758   9.847   1.204  10.673
  695W        W 4759   6.007   0.644   1.468
  696W        W 4760   0.713   0.676  10.357
  697W        W 4761   9.561   2.605   9.978
  698W        W 4762   3.573   9.183   1.797
  699W        W 4763   1.496   5.595   2.388
  700W        W 4764   5.000   6.600   9.007
  701W        W 4765   6.402   0.716   9.519
  702W        W 4766   2.367   3.060  10.970
  703W        W 4767   4.617   6.066   2.842
  704W        W 4768   5.195   2.227   0.021
  705W        W 4769   3.781   9.856   2.736
  706W        W 4770   3.045   7.984  10.052
  707W        W 4771   3.818   8.221   1.870
  708W        W 4772   2.481   0.953   2.186
  709W        W 4773   3.004   1.116  11.362
  710W        W 4774   0.363   2.400   9.162
  711W        W 4775   8.509   7.195   1.590
  712W        W 4776   2.279   1.225   1.738
  713W        W 4777   4.153   1.775   0.207
  714W        W 4778   5.651   7.944   2.886
  715W        W 4779   2.776   7.019  11.337
  716W        W 4780   7.174   1.709   2.334
  717W        W 4781   7.316   8.564  11.510
  718W        W 4782   1.247   3.341   8.766
  719W        W 4783   0.929   3.698  11.248
  720W        W 4784   1.879   4.142   1.267
  721W        W 4785   7.959   8.336   9.719
  722W        W 4786   2.056   7.608  10.071
  723W        W 4787   6.190   3.040   2.239
  724W        W 4788   1.203  10.006  11.687
  725W        W 4789   6.448   6.994  10.514
  726W        W 4790   5.745   6.606   8.451
  727W        W 4791   0.886   2.624   0.600
  728W        W 4792   9.959   6.120  11.977
  729W        W 4793   9.405   8.710  11.313
  730W        W 4794   9.225   5.226  10.533
  731W        W 4795   8.892   2.813   3.119
  732W        W 4796   0.468   9.519   3.344
  733W        W 4797   1.403   6.704   1.393
  734W        W 4798   6.533   8.018  11.380
  735W        W 4799   6.172   8.412   8.793
  736W        W 4800   0.997  10.187   2.237
  737W        W 4801   2.806   2.174   1.267
  738W        W 4802   5.141   3.603   0.039
  739W        W 4803   7.587   4.537   3.698
  740W        W 4804   5.998   0.567  10.629
  741W        W 4805   0.773   0.131   2.294
  742W        W 4806  10.188  10.233   9.994
  743W        W 4807   3.517   8.845  11.689
  744W        W 4808   2.804   5.068   1.858
  745W        W 4809   1.490   0.988   2.562
  746W        W 4810   6.604   6.520   2.176
  747W        W 4811   2.576   6.979   9.711
  748W        W 4812   4.751   7.528   2.303
  749W        W 4813   0.006   3.452  11.951
  750W        W 4814   3.237   8.961   1.470
  751W        W 4815   4.636  10.232   3.507
  752W        W 4816   9.111   8.791   1.814
  753W        W 4817   6.111  10.479   2.686
  754W        W 4818   6.452   3.383   2.658
  755W        W 4819   4.514   3.092   8.928
  756W        W 4820   4.656   0.783   3.351
  757W        W 4821   2.176   8.035   2.427
  758W        W 4822   8.659   1.798   1.998
  759W        W 4823   9.470   7.003   8.841
  760W        W 4824   7.419   2.270   8.739
  761W        W 4825   2.753   1.652   0.562
  762W        W 4826   7.697   8.612   8.872
  763W        W 4827   3.259   4.523   1.767
  764W        W 4828   9.852   8.770   1.018
  765W        W 4829   0.237   9.857  10.540
  766W        W 4830   9.397   5.116  10.039
  767W        W 4831   7.909   4.567   1.529
  768W        W 4832   3.366   9.468   1.438
  769W        W 4833   0.684   5.632   9.590
  770W        W 4834   4.027   6.615   9.202
  771W        W 4835   5.846   1.654   1.920
  772W        W 4836   7.334  10.042   9.206
  773W        W 4837   6.733   4.672   9.088
  774W        W 4838   2.317   8.215  10.682
  775W        W 4839   4.525   8.334   8.461
  776W        W 4840   5.574   8.828   9.693
  777W        W 4841   8.364   9.441  11.801
  778W        W 4842   7.318   7.847  11.037
  779W        W 4843   6.835   9.804   1.672
  780W        W 4844   7.671   2.631  10.970
  781W        W 4845   7.079   6.893   0.825
  782W        W 4846   0.467  10.298  10.479
  783W        W 4847   1.273   7.933   9.131
  784W        W 4848   1.851   8.393   0.263
  785W        W 4849   1.694   3.826   0.424
  786W        W 4850   8.441   9.010   9.284
  787W        W 4851   2.365   5.726  11.890
  788W        W 4852   6.388   4.003   9.726
  789W        W 4853   9.795   2.817   1.460
  790W        W 4854   3.179   7.487   0.389
  791W        W 4855   1.820   5.716   0.521
  792W        W 4856   6.236   5.548   3.023
  793W        W 4857   9.971   9.977   0.366
  794W        W 4858   4.579  10.404   9.173
  795W        W 4859  10.480   7.933   1.831
  796W        W 4860   3.720   7.057  11.850
  797W        W 4861   8.387   1.274   9.057
  798W        W 4862   9.135   8.039   0.619
  799W        W 4863   1.257   5.527   0.602
  800W        W 4864   2.271  10.037   2.530
  801W        W 4865   3.753   8.433  11.939
  802W        W 4866   0.786   0.179  10.479
  803W        W 4867   9.564   8.944   0.185
  804W        W 4868   4.903   1.635   3.685
  805W        W 4869   3.410  10.373  10.382
  806W        W 4870   3.103   8.530  10.340
  807W        W 4871   4.907   4.173  11.271
  808W        W 4872   6.198   1.405   0.244
  809W        W 4873   9.091   5.532  10.941
  810W        W 4874   0.367   6.042   8.884
  811W        W 4875   7.023   2.726   1.720
  812W        W 4876   2.655   3.212   1.975
  813W        W 4877   1.872   7.937   1.453
  814W        W 4878   1.918  10.406   2.669
  815W        W 4879   8.593   4.682  10.570
  816W        W 4880   9.872   8.323   3.331
  817W        W 4881   3.898   3.403   0.697
  818W        W 4882   5.007   4.522   3.618
  819W        W 4883   3.578   7.872   9.421
  820W        W 4884   5.080   8.453   8.881
  821W        W 4885   4.601   6.838   3.509
  822W        W 4886   6.939   8.036   2.536
  823W        W 4887   0.031   3.698   8.831
  824W        W 4888   8.505   9.974   2.163
  825W        W 4889   0.358   9.899   1.709
  826W        W 4890   6.927  10.485   9.685
  827W        W 4891   6.560   6.590   9.737
  828W        W 4892  10.256   6.130   3.665
  829W        W 4893   7.664   8.881   1.973
  830W        W 4894   9.115   7.566  11.954
  831W        W 4895  10.014   3.283  10.976
  832W        W 4896   6.118   0.053   0.716
  833W        W 4897   1.252   3.624  10.100
  834W        W 4898   9.916   1.996   8.511
  835W        W 4899   0.286   2.687   1.500
  836W        W 4900   9.363   8.360   1.999
  837W        W 4901   2.809   7.425   3.438
  838W        W 4902   0.093   6.580   0.708
  839W        W 4903   8.132   9.337   8.625
  840W        W 4904   2.910   1.628  10.511
  841W        W 4905   2.369   6.999   8.783
  842W        W 4906   3.271   8.448  10.931
  843W        W 4907   4.017   6.192   8.356
  844W        W 4908   5.532   3.860   3.545
  845W        W 4909   1.690   8.053   9.407
  846W        W 4910   7.546   8.381   1.842
  847W        W 4911  10.434   4.204   1.175
  848W        W 4912   7.770   6.428  10.785
  849W        W 4913   7.140   7.451   3.193
  850W        W 4914   9.682   6.473  10.736
  851W        W 4915   3.160   2.650   0.984
  852W        W 4916   2.988   1.772   0.060
  853W        W 4917   3.283   4.893  11.548
  854W        W 4918   5.174   5.751  11.857
  855W        W 4919   1.346   3.315   1.189
  856W        W 4920   9.028   3.565  10.830
  857W        W 4921   8.184   8.799   0.406
  858W        W 4922   2.743   6.969   1.450
  859W        W 4923   9.824   7.339   1.770
  860W        W 4924   5.162  10.476  11.354
  861W        W 4925   5.751   8.046   3.430
  862W        W 4926   3.344   9.388   3.470
  863W        W 4927  10.426   0.867   1.801
  864W        W 4928   7.350   6.694   3.620
  865W        W 4929   7.493   4.900  11.803
  866W        W 4930   6.463   8.848   2.533
  867W        W 4931   6.971   7.487   1.797
  868W        W 4932   1.915   4.774   2.558
  869W        W 4933   7.612   9.124   9.977
  870W        W 4934   0.263   4.266   0.469
  871W        W 4935   7.091   2.693   8.809
  872W        W 4936   8.146   3.231   1.509
  873W        W 4937   1.283   6.222   1.519
  874W        W 4938   4.245   4.684  11.728
  875W        W 4939  10.438   7.526  10.008
  876W        W 4940   9.591   0.679   9.950
  877W        W 4941   9.931   0.717  10.798
  878W        W 4942   4.129   4.546   3.704
  879W        W 4943   3.572   9.046   9.088
  880W        W 4944   3.310   9.275   2.457
  881W        W 4945   5.006   7.685   0.063
  882W        W 4946   8.616   5.057  11.375
  883W        W 4947   0.406   0.530   9.269
  884W        W 4948   0.952   8.575  10.227
  885W        W 4949   4.208   2.336   2.970
  886W        W 4950   0.467   8.327   1.231
  887W        W 4951   1.842   8.869   1.886
  888W        W 4952   5.571   3.191   8.066
  889W        W 4953   3.814   0.382   0.447
  890W        W 4954   1.187   5.163   9.705
  891W        W 4955   9.010   9.358   3.524
  892W        W 4956   1.633   0.938   1.091
  893W        W 4957   7.616   1.054   1.143
  894W        W 4958   9.990  10.033   1.246
  895W        W 4959   1.243   5.016   0.384
  896W        W 4960   1.737   0.717   9.476
  897W        W 4961   1.815   6.673   2.271
  898W        W 4962   7.825   8.948  10.417
  899W        W 4963  10.393   3.197   8.697
  900W        W 4964  10.312   7.942   8.707
  901W        W 4965   9.126   9.585  10.958
  902W        W 4966  10.116   9.935   8.968
  903W        W 4967   2.390   7.261   0.948
  904W        W 4968  10.058   9.082   0.346
  905W        W 4969   0.287   0.694  10.677
  906W        W 4970   4.786   0.826   2.175
  907W        W 4971   4.525   8.699   3.567
  908W        W 4972  10.382   8.575   0.231
  909W        W 4973   3.271   2.096  10.806
  910W        W 4974   6.510   0.734  11.287
  911W        W 4975   0.044   3.265   2.167
  912W        W 4976   5.113   7.188   2.182
  913W        W 4977   1.137   3.793   2.390
  914W        W 4978   7.628   9.278  11.907
  915W        W 4979   9.839   1.243   0.504
  916W        W 4980   5.630   7.677  10.455
  917W        W 4981   2.814   7.434   0.728
  918W        W 4982   8.497   3.618   3.274
  919W        W 4983   0.649   5.604  11.862
  920W        W 4984   2.182   9.561   1.476
  921W        W 4985   5.471   7.673   3.738
  922W        W 4986   0.469   8.463   0.388
  923W        W 4987   5.936   7.544  11.572
  924W        W 4988   6.621   7.191   0.809
  925W        W 4989   8.758   7.329   0.913
  926W        W 4990   4.971   0.775   2.675
  927W        W 4991   4.416   6.926  11.200
  928W        W 4992   7.458   5.028   3.558
  929W        W 4993   3.068   3.014   1.753
  930W        W 4994   8.631   3.283   1.755
  931W        W 4995   1.284   2.815   3.283
  932W        W 4996   7.532   8.553  10.269
  933W        W 4997   4.855   3.099   2.255
  934W        W 4998   5.820   2.236   9.215
  935W        W 4999   6.503   9.349  10.724
  936W        W 5000   7.103   7.394   0.929
  937W        W 5001   4.988   5.498   2.139
  938W        W 5002   4.781   7.584   9.028
  939W        W 5003   0.530   9.908   0.269
  940W        W 5004   3.090   2.829  10.308
  941W        W 5005   0.296   5.542   1.873
  942W        W 5006  10.366   9.945   2.759
  943W        W 5007   9.933   9.569   9.290
  944W        W 5008   7.121   9.879   2.140
  945W        W 5009   5.651   5.977   2.916
  946W        W 5010  10.072   2.525   2.879
  947W        W 5011   8.387   2.943   0.303
  948W        W 5012   3.812   7.055  11.333
  949W        W 5013   6.107   6.552  10.045
  950W        W 5014   8.011   5.581   2.387
  951W        W 5015   5.207   7.664   2.062
  952W        W 5016   6.012   9.573   0.520
  953W        W 5017   9.953  10.365   3.904
  954W        W 5018   6.067   0.018  11.269
  955W        W 5019   6.534   4.015   0.024
  956W        W 5020   7.730   2.471   0.649
  957W        W 5021   1.914   4.834   3.635
  958W        W 5022   6.559   9.120   9.864
  959W        W 5023   1.416   0.571   2.900
  960W        W 5024   9.520   6.969  10.752
  961W        W 5025   9.108   3.066   2.364
  962W        W 5026   9.886   0.914   3.869
  963W        W 5027   0.593   4.717   8.675
  964W        W 5028   3.314   6.158  10.499
  965W        W 5029   6.062   7.085   3.687
  966W        W 5030   2.795   3.695   2.137
  967W        W 5031   3.575   6.483   2.205
  968W        W 5032   5.242   2.102   1.230
  969W        W 5033   3.390   5.000   0.787
  970W        W 5034   2.683   0.177   9.267
  971W        W 5035   4.597   4.592   1.944
  972W        W 5036  10.076   7.267   2.348
  973W        W 5037   7.126   8.332   8.525
  974W        W 5038   5.226   2.215   2.107
  975W        W 5039   1.202   5.236   2.951
  976W        W 5040   8.143   1.736   9.017
  977W        W 5041   6.659   5.404   9.515
  978W        W 5042   6.503   4.136   0.940
  979W        W 5043   4.984   1.414  10.200
  980W        W 5044   2.188   6.028   8.588
  981W        W 5045   0.933   6.837   2.810
  982W        W 5046   7.169   3.119   2.046
  983W        W 5047   7.471   6.593   0.993
  984W        W 5048   2.928   9.550  11.777
  985W        W 5049   0.723   2.346   2.157
  986W        W 5050   4.542   8.220   9.961
  987W        W 5051   2.415   9.391   3.221
  988W        W 5052   4.549   1.238   9.424
  989W        W 5053   3.863   3.633   3.518
  990W        W 5054   6.274   1.543   9.458
  991W        W 5055   4.735   6.532   4.178
  992W        W 5056   6.221   1.407   3.245
  993W        W 5057   9.510   4.132  11.350
  994W        W 5058   2.292   7.962   3.566
  995W        W 5059   1.633   5.524   1.884
  996W        W 5060   8.709   1.555   1.531
  997W        W 5061   1.290   9.490   9.252
  998W        W 5062   0.823   6.853   8.707
  999W        W 5063   2.946   1.456   2.733
 1000W        W 5064   5.610   9.513   9.949
 1001W        W 5065   0.552   1.798   1.364
 1002W        W 5066   5.535   6.946   0.939
 1003W        W 5067   5.512   4.862  10.849
 1004W        W 5068   1.751   9.972  10.833
 1005W        W 5069   3.789   4.941  11.617
 1006W        W 5070   0.024   6.217  10.897
 1007W        W 5071   8.369   2.786  11.424
 1008W        W 5072   6.796   8.510  11.571
 1009W        W 5073   1.325   0.538   1.149
 1010W        W 5074   0.936   7.321   2.649
 1011W        W 5075   1.216   0.611   1.662
 1012W        W 5076   5.191   5.604   9.444
 1013W        W 5077   7.665   4.754   8.747
 1014W        W 5078   3.736   4.573   2.445
 1015W        W 5079   9.567   9.758   9.638
 1016W        W 5080   5.848   3.254   3.909
 1017W        W 5081   9.079   3.111  11.022
 1018W        W 5082   8.169   1.744   1.285
 1019W        W 5083   0.708   9.903  11.781
 1020W        W 5084   8.699   8.945   0.497
 1021W        W 5085   6.954   7.934   9.328
 1022W        W 5086   9.077   2.614  10.891
 1023W        W 5087   7.508   0.963   8.782
 1024W        W 5088   4.084   4.700  10.272
 1025W        W 5089   4.508   8.945   1.653
 1026W        W 5090   3.550   0.010   0.193
 1027W        W 5091   6.754   6.146   1.295
 1028W        W 5092   7.672   1.760   2.316
 1029W        W 5093   7.929   1.952   9.998
 1030W        W 5094   6.019   4.522   3.861
 1031W        W 5095   2.817   6.029   0.559
 1032W        W 5096   4.916  10.497   0.408
 1033W        W 5097   1.879   6.133   8.996
 1034W        W 5098   8.934   9.407   0.783
 1035W        W 5099   6.499   8.909  11.538
 1036W        W 5100   8.659   0.210  10.386
 1037W        W 5101  10.037   2.621  10.106
 1038W        W 5102   1.320   2.378   2.983
 1039W        W 5103   1.985   7.598   2.641
 1040W        W 5104   4.230   9.954   0.162
 1041W        W 5105   0.257   8.613   9.951
 1042W        W 5106   9.426   6.573  11.675
 1043W        W 5107   2.063   7.594   8.713
 1044W        W 5108   7.492   3.147  11.821
 1045W        W 5109   4.069   6.614   0.441
 1046W        W 5110   4.101   6.612   0.953
 1047W        W 5111   8.426  10.033   0.740
 1048W        W 5112   5.052   6.716   3.830
 1049W        W 5113   6.506   3.507   0.066
 1050W        W 5114   0.267   3.720   2.220
 1051W        W 5115   0.687   6.445   9.004
 1052W        W 5116   9.071   5.013   0.370
 1053W        W 5117   9.601   3.128   2.262
 1054W        W 5118   3.439   4.662   9.112
 1055W        W 5119   9.724   7.278  10.386
 1056W        W 5120   6.655   3.920   8.447
 1057W        W 5121   1.246   4.142   9.949
 1058W        W 5122   4.241   4.685  10.762
 1059W        W 5123   8.147   9.557  10.947
 1060W        W 5124   4.534   6.909   9.367
 1061W        W 5125   9.767   9.857   2.157
 1062W        W 5126   7.411   4.672   0.282
 1063W        W 5127   8.566   3.776   0.920
 1064W        W 5128   0.074   1.948  10.696
 1065W        W 5129   4.374   5.245   1.007
 1066W        W 5130   9.294   8.850   9.873
 1067W        W 5131   5.858   0.432   9.123
 1068W        W 5132   9.941   2.211   9.304
 1069W        W 5133   4.093   7.890   9.281
 1070W        W 5134   6.562   2.801   1.933
 1071W        W 5135   3.564   1.425   3.502
 1072W        W 5136   1.765   1.678   9.083
 1073W        W 5137   5.988  10.409   1.172
 1074W        W 5138  10.000   6.135   9.624
 1075W        W 5139   2.768   4.726   3.056
 1076W        W 5140   9.014   0.958   1.696
 1077W        W 5141   2.735   5.507   0.262
 1078W        W 5142   5.901   4.851   1.983
 1079W        W 5143   2.660  10.217   0.208
 1080W        W 5144   5.597   9.757   3.216
 1081W        W 5145   0.013   2.319   0.435
 1082W        W 5146   5.698   1.906   2.535
 1083W        W 5147   5.995  10.088   0.457
 1084W        W 5148   2.642   2.692  11.272
 1085W        W 5149   4.835   8.598   1.472
 1086W        W 5150   8.093   8.098   3.405
 1087W        W 5151   0.793  10.315   3.320
 1088W        W 5152   5.600   5.950   9.462
 1089W        W 5153   2.866   7.888   0.979
 1090W        W 5154   0.313   2.567   3.291
 1091W        W 5155   6.580   1.189  11.517
 1092W        W 5156   5.975   0.846   0.945
 1093W        W 5157   7.906   7.798   0.686
 1094W        W 5158   1.825   5.508   1.392
 1095W        W 5159   2.701   3.393  11.749
 1096W        W 5160   1.385   6.478   3.522
 1097W        W 5161   3.324   8.392   2.107
 1098W        W 5162   6.616   6.692   0.873
 1099W        W 5163   3.304   8.672   1.049
 1100W        W 5164   7.414   0.266   2.891
 1101W        W 5165   0.507   3.378  11.827
 1102W        W 5166   3.793   8.808   2.759
 1103W        W 5167   2.758   4.315   1.034
 1104W        W 5168   6.013   3.676   0.471
 1105W        W 5169   2.324   8.118   0.387
 1106W        W 5170   9.954   6.332  10.317
 1107W        W 5171   9.814   8.965   9.956
 1108W        W 5172   1.618   3.895   2.292
 1109W        W 5173   2.801   9.521   3.527
 1110W        W 5174   9.920   5.456   1.921
 1111W        W 5175   2.163   7.339   9.155
 1112W        W 5176  10.486   1.132   9.876
 1113W        W 5177   3.123  10.279   1.941
 1114W        W 5178   7.008  10.351   1.245
 1115W        W 5179   0.420   9.337   1.002
 1116W        W 5180   4.530   0.468   2.984
 1117W        W 5181   3.404   3.552   0.850
 1118W        W 5182   7.167  10.345  10.519
 1119W        W 5183   5.076  10.483  11.906
 1120W        W 5184   4.793   9.984   9.350
 1121W        W 5185   7.231   8.846   0.806
 1122W        W 5186   5.401   5.779   9.893
 1123W        W 5187   9.329   9.070   3.028
 1124W        W 5188   3.522   3.100  10.085
 1125W        W 5189   1.291   8.172  10.161
 1126W        W 5190   4.103   4.177  10.873
 1127W        W 5191   9.467   3.253   2.732
 1128W        W 5192   5.727  10.031   9.835
 1129W        W 5193   4.605   9.446   1.505
 1130W        W 5194   9.239   8.610   8.872
 1131W        W 5195   3.422   1.808  11.759
 1132W        W 5196   3.512   6.217   3.193
 1133W        W 5197   0.032   4.063  11.323
 1134W        W 5198   6.495   6.133  11.003
 1135W        W 5199   5.592   8.765   1.505
 1136W        W 5200   1.305   6.944  10.524
 1137W        W 5201   4.746   1.690   9.567
 1138W        W 5202   4.548   9.583   9.535
 1139W        W 5203   6.025   1.048   9.460
 1140W        W 5204   9.629   6.690   2.656
 1141W        W 5205   6.678   7.935  10.385
 1142W        W 5206   9.913   2.616   9.602
 1143W        W 5207  10.386   4.715   1.139
 1144W        W 5208   4.310   2.237   2.483
 1145W        W 5209   3.842   9.832  10.888
 1146W        W 5210   7.787   7.029   2.809
 1147W        W 5211   9.018   7.947  10.119
 1148W        W 5212   3.240   7.276  11.689
 1149W        W 5213   7.517   7.384  10.948
 1150W        W 5214  10.440   3.268   9.215
 1151W        W 5215   4.032   6.541   2.447
 1152W        W 5216   3.274   6.226   1.376
 1153W        W 5217   5.540   5.343  11.749
 1154W        W 5218   3.698   4.595   9.890
 1155W        W 5219  10.265   9.366   1.566
 1156W        W 5220   1.283   7.617   1.203
 1157W        W 5221   0.670   1.967  10.866
 1158W        W 5222   9.150   0.400   3.552
 1159W        W 5223  10.352   6.159   9.973
 1160W        W 5224   0.803  10.276   9.577
 1161W        W 5225   9.879   8.590   0.405
 1162W        W 5226   6.072   9.443   1.450
 1163W        W 5227   0.861   1.646   0.986
 1164W        W 5228   0.358   3.690  11.030
 1165W        W 5229   8.125   8.696  11.212
 1166W        W 5230   0.367   7.857   1.441
 1167W        W 5231   4.748   8.605   0.967
 1168W        W 5232   4.697   5.150   0.271
 1169W        W 5233   5.650   2.133   1.842
 1170W        W 5234   5.445   6.491   0.420
 1171W        W 5235   9.295   9.636   0.525
 1172W        W 5236   2.740   8.053   9.012
 1173W        W 5237   3.565   9.391  10.812
 1174W        W 5238   7.595   2.692   9.037
 1175W        W 5239   0.393   6.671  10.406
 1176W        W 5240   9.395   3.918  10.885
 1177W        W 5241   9.735   0.909   2.242
 1178W        W 5242   9.074   4.479   1.255
 1179W        W 5243   8.433  10.014   9.937
 1180W        W 5244   3.754   4.562  10.873
 1181W        W 5245   7.235   0.312   2.412
 1182W        W 5246   2.110   0.281   0.129
 1183W        W 5247   7.596   5.172   0.249
 1184W        W 5248   8.074   0.843   0.939
 1185W        W 5249   6.399  10.284  11.580
 1186W        W 5250   4.978   5.711   8.976
 1187W        W 5251   8.160   0.727  10.854
 1188W        W 5252   0.676   2.390   1.644
 1189W        W 5253   6.531   5.085   9.952
 1190W        W 5254   5.626   3.126  11.413
 1191W        W 5255   9.781   2.580  10.551
 1192W        W 5256   8.382   2.640   3.040
 1193W        W 5257   3.146   8.828  11.270
 1194W        W 5258   4.120   7.981   9.800
 1195W        W 5259   6.027   2.786  11.460
 1196W        W 5260   9.835   5.292   2.387
 1197W        W 5261   2.623   2.390   9.748
 1198W        W 5262   3.642   0.356   2.497
 1199W        W 5263   4.610   3.253   3.133
 1200W        W 5264   0.225   7.915   2.333
 1201W        W 5265   4.237   5.458   3.238
 1202W        W 5266   3.353   5.473   2.731
 1203W        W 5267   3.844   7.457   9.454
 1204W        W 5268   3.898   5.809   7.993
 1205W        W 5269   0.786   3.558   9.757
 1206W        W 5270   9.799   6.293   2.337
 1207W        W 5271   1.673   0.309  11.374
 1208W        W 5272   9.566   3.665  11.941
 1209W        W 5273   2.643   8.840   3.193
 1210W        W 5274   5.156   8.566   2.397
 1211W        W 5275   8.827   4.570   8.659
 1212W        W 5276   2.177   4.190   9.560
 1213W        W 5277   9.836   3.064  10.354
 1214W        W 5278   9.725   2.648   9.129
 1215W        W 5279   8.475   8.579   0.776
 1216W        W 5280   2.132   3.918   3.516
 1217W        W 5281   2.395   7.498   9.599
 1218W        W 5282   3.625   9.007  11.206
 1219W        W 5283   4.353   4.013   2.266
 1220W        W 5284   5.222   7.168  11.827
 1221W        W 5285   0.765   3.266   1.070
 1222W        W 5286   1.431   2.591  11.100
 1223W        W 5287   2.261   7.003  11.485
 1224W        W 5288   5.688   6.420   9.350
 1225W        W 5289   4.317   3.137  10.958
 1226W        W 5290   7.643   5.841  11.805
 1227W        W 5291   1.647   5.360   9.601
 1228W        W 5292   4.225   3.141   9.446
 1229W        W 5293   0.403   2.261   2.871
 1230W        W 5294   0.383   6.386   1.634
 1231W        W 5295   1.405  10.239   8.992
 1232W        W 5296   7.100   4.712  11.008
 1233W        W 5297   9.713   3.653  11.444
 1234W        W 5298   4.443   5.735   8.776
 1235W        W 5299   8.891   8.944   9.081
 1236W        W 5300   4.989   1.331   8.690
 1237W        W 5301   5.507  10.359  11.693
 1238W        W 5302   8.048   2.793   1.212
 1239W        W 5303   9.392  10.493   0.016
 1240W        W 5304   4.168   8.911   9.029
 1241W        W 5305   2.121   1.821   2.527
 1242W        W 5306   9.999   0.491   2.035
 1243W        W 5307   3.486   8.126   9.845
 1244W        W 5308   6.499   6.792   1.748
 1245W        W 5309   6.178   3.248  10.208
 1246W        W 5310   3.293   8.570   0.131
 1247W        W 5311   0.668   9.934   8.386
 1248W        W 5312   8.952   2.722   8.600
 1249W        W 5313   5.495   6.594   4.077
 1250W        W 5314   9.554   1.648   9.021
 1251W        W 5315   9.631   4.254   9.498
 1252W        W 5316   4.563   4.223   2.747
 1253W        W 5317   5.611   5.167   0.222
 1254W        W 5318   1.599   9.109  11.281
 1255W        W 5319   9.278   7.683  11.455
 1256W        W 5320   9.923   0.791   0.724
 1257W        W 5321   3.737   5.998   1.694
 1258W        W 5322   0.352   2.069   3.430
 1259W        W 5323   5.606  10.279  11.188
 1260W        W 5324   6.031  10.461   8.938
 1261W        W 5325   7.821   2.278   9.560
 1262W        W 5326   4.628   1.221   2.476
 1263W        W 5327   6.456   4.409   9.431
 1264W        W 5328   9.611   4.747  10.793
 1265W        W 5329   3.365   5.214  10.752
 1266W        W 5330   4.534   6.445   3.186
 1267W        W 5331   2.184  10.412   0.461
 1268W        W 5332   9.812   5.659   9.436
 1269W        W 5333   4.281   2.162   1.983
 1270W        W 5334  10.352   6.840   3.215
 1271W        W 5335   7.047   1.268  11.253
 1272W        W 5336   7.415   8.280  10.743
 1273W        W 5337   9.706  10.086   9.260
 1274W        W 5338   6.565   2.787   8.949
 1275W        W 5339   0.003  10.393   2.565
 1276W        W 5340   4.506   2.309   9.843
 1277W        W 5341   6.601   2.194   3.319
 1278W        W 5342   9.920   1.298   2.545
 1279W        W 5343   2.402   5.952   9.499
 1280W        W 5344   5.775   3.786   3.108
 1281W        W 5345   8.115   1.794   3.448
 1282W        W 5346   2.693   1.483   2.294
 1283W        W 5347   1.858   2.583  10.048
 1284W        W 5348   8.932   3.724   2.917
 1285W        W 5349   1.211   5.596  11.876
 1286W        W 5350   0.920   1.292  11.225
 1287W        W 5351   0.341   4.484   0.957
 1288W        W 5352   1.226   3.125  10.324
 1289W        W 5353  10.463   4.584   3.105
 1290W        W 5354   7.030   3.564   3.310
 1291W        W 5355   3.700   0.953   9.386
 1292W        W 5356   4.854   1.856  10.576
 1293W        W 5357   5.594  10.390   0.794
 1294W        W 5358   3.632   6.192  10.932
 1295W        W 5359  10.318   8.231   2.221
 1296W        W 5360   4.073   4.708  11.248
 1297W        W 5361  10.306   3.501   2.968
 1298W        W 5362   1.564  10.148  10.380
 1299W        W 5363   8.032  10.376   1.305
 1300W        W 5364   4.721   2.056   2.748
 1301W        W 5365   7.443   4.531   1.828
 1302W        W 5366   3.138   3.797  10.601
 1303W        W 5367   5.174   5.152   0.486
 1304W        W 5368   4.743   4.518  11.620
 1305W        W 5369   8.282   1.335   2.256
 1306W        W 5370   4.681   8.496   0.455
 1307W        W 5371   5.179   1.584   1.281
 1308W        W 5372   0.107   4.802   3.537
 1309W        W 5373   1.354   9.390  10.088
 1310W        W 5374   5.492   3.816  10.725
 1311W        W 5375   3.813  10.302   9.834
 1312W        W 5376   9.218   4.477   0.112
 1313W        W 5377   5.035   4.073   1.151
 1314W        W 5378   4.918   5.589   1.212
 1315W        W 5379   7.540   1.766  10.844
 1316W        W 5380   2.306   9.434   9.140
 1317W        W 5381   2.663   7.944   3.230
 1318W        W 5382   7.533   7.137   8.966
 1319W        W 5383   3.792   6.261   0.723
 1320W        W 5384   0.569   0.339   0.264
 1321W        W 5385   3.135   3.306   2.199
 1322W        W 5386   4.908   2.073   0.408
 1323W        W 5387   6.899   2.217   8.901
 1324W        W 5388   6.483  10.195   2.425
 1325W        W 5389  10.338   6.585   9.571
 1326W        W 5390   4.621   5.032  10.081
 1327W        W 5391   9.497   0.553   0.886
 1328W        W 5392   7.499   3.299   3.233
 1329W        W 5393   3.349   5.877   4.049
 1330W        W 5394   0.034   1.832   0.597
 1331W        W 5395   8.098   1.710  11.037
 1332W        W 5396   7.882   3.461  11.135
 1333W        W 5397   4.788   2.010  11.077
 1334W        W 5398   4.484   5.709   0.212
 1335W        W 5399   8.808   6.082   2.752
 1336W        W 5400   4.022   3.628   0.266
 1337W        W 5401   4.172   2.723   0.702
 1338W        W 5402   7.433   9.879  10.589
 1339W        W 5403   9.787   6.621   3.590
 1340W        W 5404   8.558   1.907   9.253
 1341W        W 5405   3.155   7.837   3.382
 1342W        W 5406   7.492   6.107  10.458
 1343W        W 5407   0.247   2.215   1.843
 1344W        W 5408   3.106   8.484   9.810
 1345W        W 5409   9.818   9.838  10.104
 1346W        W 5410   5.907   1.071   3.442
 1347W        W 5411   3.853   2.685   1.208
 1348W        W 5412   7.288   9.007  10.339
 1349W        W 5413   9.786  10.347   1.920
 1350W        W 5414   9.867   0.354   9.226
 1351W        W 5415   5.970   2.193   9.686
 1352W        W 5416   5.648   0.877   8.678
 1353W        W 5417   0.428   6.785   9.921
 1354W        W 5418   2.556   5.606   0.734
 1355W        W 5419   1.226   3.233   9.782
 1356W        W 5420   0.776   5.699  10.915
 1357W        W 5421   0.350   3.411   0.779
 1358W        W 5422   7.971   4.810   2.925
 1359W        W 5423   7.042   6.977   8.967
 1360W        W 5424   5.578   9.327   0.407
 1361W        W 5425   2.705   3.883   0.731
 1362W        W 5426   8.315   8.528  11.701
 1363W        W 5427   2.458   6.881   0.085
 1364W        W 5428   7.731   8.635   0.772
 1365W        W 5429   1.773   9.902   2.716
 1366W        W 5430   5.072   4.180  10.770
 1367W        W 5431   0.450   5.598   3.240
 1368W        W 5432   7.279   0.291   1.052
 1369W        W 5433   7.543   2.177   2.731
 1370W        W 5434   5.684   2.475  10.012
 1371W        W 5435   0.330   4.177  10.917
 1372W        W 5436   6.959   3.735   1.714
 1373W        W 5437   3.840   9.632   0.170
 1374W        W 5438   3.249   9.311   9.487
 1375W        W 5439   8.159  10.471  11.878
 1376W        W 5440   3.873   5.764   0.669
 1377W        W 5441   8.374   0.210   1.522
 1378W        W 5442   8.860   2.314   9.360
 1379W        W 5443   1.901   2.809  10.897
 1380W        W 5444   7.097   6.578   9.861
 1381W        W 5445   2.461   3.769   1.157
 1382W        W 5446   6.083   7.028   1.502
 1383W        W 5447   1.808   7.439   1.290
 1384W        W 5448   5.956   6.156  10.356
 1385W        W 5449   9.321   1.447   9.406
 1386W        W 5450   9.477   4.211   1.744
 1387W        W 5451   8.922   8.586  11.081
 1388W        W 5452   8.937   4.274   3.409
 1389W        W 5453   3.694   7.182   3.361
 1390W        W 5454   3.138   4.029   1.845
 1391W        W 5455   2.810   7.898  11.512
 1392W        W 5456   3.393   8.023   0.200
 1393W        W 5457   3.812   5.085   8.583
 1394W        W 5458   0.470   7.352   0.560
 1395W        W 5459   2.853   7.614  10.397
 1396W        W 5460   5.954   3.563  10.814
 1397W        W 5461   2.162   6.901   9.410
 1398W        W 5462   5.054   5.496   2.647
 1399W        W 5463   9.350   1.018   0.428
 1400W        W 5464   4.971   8.099  10.819
 1401W        W 5465   0.384   8.117   3.347
 1402W        W 5466   4.639   0.828   0.151
 1403W        W 5467   6.624   4.214   2.809
 1404W        W 5468   0.018   7.068   9.772
 1405W        W 5469   1.289   3.547  10.607
 1406W        W 5470   2.624   5.531   1.729
 1407W        W 5471   0.684   9.848  10.313
 1408W        W 5472   3.102   9.705   2.277
 1409W        W 5473   1.724   8.007   8.858
 1410W        W 5474   8.551   9.468  11.319
 1411W        W 5475   5.921   3.081  10.620
 1412W        W 5476   7.012  10.446   9.182
 1413W        W 5477   0.676   2.257  10.014
 1414W        W 5478   6.021   7.324   3.076
 1415W        W 5479   5.469   6.084  10.285
 1416W        W 5480   5.501   9.421  11.442
 1417W        W 5481   4.196   4.443   3.211
 1418W        W 5482   7.216   5.164   2.412
 1419W        W 5483   3.438   7.027   2.835
 1420W        W 5484   1.863   5.847   3.833
 1421W        W 5485   8.800   6.874  10.246
 1422W        W 5486   1.270   7.626  10.035
 1423W        W 5487   3.969   8.756  10.289
 1424W        W 5488   5.075  10.066   1.371
 1425W        W 5489   6.921   5.609   8.720
 1426W        W 5490   2.899  10.371   9.660
 1427W        W 5491   6.773   2.938  10.795
 1428W        W 5492   3.041  10.273   9.181
 1429W        W 5493   8.108   2.910   9.950
 1430W        W 5494   0.933   5.643   3.466
 1431W        W 5495   3.417   9.775   9.331
 1432W        W 5496   1.608   1.740   8.566
 1433W        W 5497   9.884   4.685   9.569
 1434W        W 5498   1.181   3.448   0.738
 1435W        W 5499   9.781   5.323   3.363
 1436W        W 5500   7.863   2.441  11.411
 1437W        W 5501   7.100   5.795   9.577
 1438W        W 5502   4.193   5.269   1.972
 1439W        W 5503   5.977   4.775  10.668
 1440W        W 5504   8.490   2.872   0.931
 1441W        W 5505   0.911   6.566   3.256
 1442W        W 5506   9.515   1.345  10.277
 1443W        W 5507   3.389   4.348   0.307
 1444W        W 5508   9.368   4.985   2.425
 1445W        W 5509   9.328   3.274  11.455
 1446W        W 5510   9.500   4.695  10.290
 1447W        W 5511   2.830   8.379   2.254
 1448W        W 5512   0.427   5.884   1.520
 1449W        W 5513   8.533   8.333   3.529
 1450W        W 5514   5.325   1.859   3.514
 1451W        W 5515   7.642   5.830   9.590
 1452W        W 5516   3.537   8.005  10.950
 1453W        W 5517   3.172   6.250   2.394
 1454W        W 5518   1.392   0.941  10.385
 1455W        W 5519   5.170   5.190  11.058
 1456W        W 5520   5.720   4.393  11.962
 1457W        W 5521   6.957   6.463   8.945
 1458W        W 5522   7.025   2.835  10.283
 1459W        W 5523   7.953   8.600   1.638
 1460W        W 5524   9.779   9.791  11.916
 1461W        W 5525   1.730   1.143  11.686
 1462W        W 5526  10.365   4.498   0.696
 1463W        W 5527   5.650   4.227   0.477
 1464W        W 5528   9.760   3.071   3.464
 1465W        W 5529   6.027   1.285   1.195
 1466W        W 5530   0.254   0.947   2.264
 1467W        W 5531   3.622   0.746  10.222
 1468W        W 5532   4.429  10.485   1.532
 1469W        W 5533   8.843   3.262   3.393
 1470W        W 5534   4.246   0.829   9.460
 1471W        W 5535   6.470   2.475   0.404
 1472W        W 5536   6.570   0.308  10.932
 1473W        W 5537   2.733  10.326  11.152
 1474W        W 5538   5.301   9.754   1.720
 1475W        W 5539   3.274   1.375   1.181
 1476W        W 5540   2.284   0.040  11.035
 1477W        W 5541   1.365   5.726   1.478
 1478W        W 5542   7.947   0.296  11.544
 1479W        W 5543   9.082   3.737   0.166
 1480W        W 5544   1.731   1.192   9.260
 1481W        W 5545   7.137   1.279   1.217
 1482W        W 5546   9.789   3.301   1.281
 1483W        W 5547   3.637   5.064   3.133
 1484W        W 5548   8.514   5.212   1.257
 1485W        W 5549   8.361   3.653   9.414
 1486W        W 5550   2.709   8.140  10.384
 1487W        W 5551   3.617   7.481   0.720
 1488W        W 5552   5.997   5.112   9.298
 1489W        W 5553   8.371   9.253   0.270
 1490W        W 5554   7.063   9.408   1.454
 1491W        W 5555   6.192   7.513   9.308
 1492W        W 5556   8.111   4.016   0.823
 1493W        W 5557   8.203   9.941   9.481
 1494W        W 5558   0.825   0.594   1.012
 1495W        W 5559   7.321   5.084   0.662
 1496W        W 5560  10.466   1.352  11.371
 1497W        W 5561   3.828   9.298  10.354
 1498W        W 5562   2.761   7.399   2.312
 1499W        W 5563   8.975   3.165   0.933
 1500W        W 5564   4.025   7.456  11.989
 1501W        W 5565   6.760   7.748  11.024
 1502W        W 5566   9.512   4.077   3.420
 1503W        W 5567   1.654   5.149   3.247
 1504W        W 5568   4.672   9.977   9.846
 1505W        W 5569   0.939   8.192   0.401
 1506W        W 5570   9.930   3.636   1.676
 1507W        W 5571   8.821   6.120  11.365
 1508W        W 5572   5.183   7.984   3.249
 1509W        W 5573   1.273   2.108  11.393
 1510W        W 5574   6.484   6.523   2.688
 1511W        W 5575   0.655   5.662   9.076
 1512W        W 5576   1.799   4.389   9.263
 1513W        W 5577   8.537   4.712   0.991
 1514W        W 5578   0.892   8.977  10.853
 1515W        W 5579   6.240   7.941   8.551
 1516W        W 5580   6.004   9.008   1.709
 1517W        W 5581   8.155   5.007   9.543
 1518W        W 5582   2.743   4.238   8.855
 1519W        W 5583   9.495   9.391  10.615
 1520W        W 5584   3.729   7.671   3.211
 1521W        W 5585   0.851   6.014  11.344
 1522W        W 5586   9.940   2.413   1.159
 1523W        W 5587   8.587   1.462   1.066
 1524W        W 5588   3.261   2.909   0.501
 1525W        W 5589   4.111   4.944   3.287
 1526W        W 5590   0.295   7.812   8.870
 1527W        W 5591   3.776   0.901   2.237
 1528W        W 5592  10.263   0.829  11.433
 1529W        W 5593  10.236   0.966   2.265
 1530W        W 5594   3.369   4.263   2.230
 1531W        W 5595   0.797   7.391   9.429
 1532W        W 5596   5.732   6.338  11.636
 1533W        W 5597   1.944   1.543   0.218
 1534W        W 5598   2.842   0.910   2.911
 1535W        W 5599   1.945   2.208   1.428
 1536W        W 5600   2.586   8.043   9.503
 1537W        W 5601   4.198   2.760   9.921
 1538W        W 5602   6.974   7.912   1.038
 1539W        W 5603   6.744  10.030   8.930
 1540W        W 5604   3.191   6.661   1.053
 1541W        W 5605   4.268   7.518   2.057
 1542W        W 5606   5.994   5.725   2.184
 1543W        W 5607   8.826   7.419  11.497
 1544W        W 5608   3.335   0.418   0.667
 1545W        W 5609  10.219   0.465  11.803
 1546W        W 5610   2.446  10.415  10.025
 1547W        W 5611   7.715   6.513   3.302
 1548W        W 5612   9.033   9.862   1.456
 1549W        W 5613   5.143   9.574  10.745
 1550W        W 5614   7.885   5.716  11.214
 1551W        W 5615  10.353   1.657   1.577
 1552W        W 5616   1.751   3.564   0.847
 1553W        W 5617   4.966   5.026   3.405
 1554W        W 5618   3.748   3.656   2.638
 1555W        W 5619   4.183   4.211   0.913
 1556W        W 5620   3.671   0.315  10.553
 1557W        W 5621   6.685   0.618   3.222
 1558W        W 5622   0.760   4.770   0.315
 1559W        W 5623   6.835   2.686   3.275
 1560W        W 5624   0.941   1.757   9.398
 1561W        W 5625   7.714   9.032   8.579
 1562W        W 5626   8.170   3.197   9.287
 1563W        W 5627   5.465   8.008  10.837
 1564W        W 5628   3.582   3.655  10.892
 1565W        W 5629   5.045   7.859   9.922
 1566W        W 5630   3.267   6.195   0.821
 1567W        W 5631   1.134   9.455   2.271
 1568W        W 5632   2.596   8.066   2.731
 1569W        W 5633   5.096  10.421   9.302
 1570W        W 5634   8.335   4.389   2.838
 1571W        W 5635   9.971   4.147   1.481
 1572W        W 5636   2.147   2.721   2.582
 1573W        W 5637   9.246   0.302  11.492
 1574W        W 5638   9.862   7.965  10.618
 1575W        W 5639   5.174   7.517   8.282
 1576W        W 5640   1.618   9.873   9.946
 1577W        W 5641   1.231   5.670   9.552
 1578W        W 5642   6.541   5.994  11.505
 1579W        W 5643   4.506   4.489   0.577
 1580W        W 5644   1.210   4.743   9.365
 1581W        W 5645   8.638   6.266   1.248
 1582W        W 5646   3.573   9.992   1.404
 1583W        W 5647  10.485   2.816  11.142
 1584W        W 5648   6.143   4.681   2.950
 1585W        W 5649  10.404   9.477   1.081
 1586W        W 5650   9.841   9.284  11.929
 1587W        W 5651   5.012   3.722   8.492
 1588W        W 5652   2.696   0.657   9.463
 1589W        W 5653   7.947   5.417  10.758
 1590W        W 5654   5.137   2.351   0.788
 1591W        W 5655   8.274   7.827   2.327
 1592W        W 5656   1.891   2.358  11.170
 1593W        W 5657   3.226   3.791   2.445
 1594W        W 5658   7.054   8.513   2.745
 1595W        W 5659   7.500   3.325   2.717
 1596W        W 5660   1.411   4.756   3.470
 1597W        W 5661   3.231   1.947   2.959
 1598W        W 5662   8.302  10.324   1.846
 1599W        W 5663   2.409   2.449   1.381
 1600W        W 5664   3.468   6.907   1.959
 1601W        W 5665   7.662   0.013   2.514
 1602W        W 5666   1.347   6.970   8.999
 1603W        W 5667   7.200  10.331   2.667
 1604W        W 5668   6.526   2.220   2.319
 1605W        W 5669   1.812   9.154   2.329
 1606W        W 5670   3.689   7.229  10.081
 1607W        W 5671   2.811   2.594   1.893
 1608W        W 5672   4.902   0.249   2.598
 1609W        W 5673   7.684   1.897   3.187
 1610W        W 5674   2.948   3.612   1.095
 1611W        W 5675   3.569   2.625   0.196
 1612W        W 5676   6.730   0.149   1.561
 1613W        W 5677   8.421   4.601   1.994
 1614W        W 5678   7.958   6.042   3.148
 1615W        W 5679   1.033   9.979   9.240
 1616W        W 5680   8.519   9.256  10.406
 1617W        W 5681   8.078   0.513   9.698
 1618W        W 5682   0.217  10.392   1.583
 1619W        W 5683   8.547   0.685   9.106
 1620W        W 5684   4.748   6.427   9.439
 1621W        W 5685   3.201   9.111  11.980
 1622W        W 5686  10.054   9.947   9.593
 1623W        W 5687  10.087   4.736  10.950
 1624W        W 5688   2.163   1.674  11.721
 1625W        W 5689   1.071   0.783  11.168
 1626W        W 5690   8.878   7.998   0.152
 1627W        W 5691   3.898   5.147   0.807
 1628W        W 5692   5.559   5.874   1.012
 1629W        W 5693  10.296   8.864   9.758
 1630W        W 5694   0.212   7.914   9.367
 1631W        W 5695   6.210   6.498   3.142
 1632W        W 5696   3.177   6.054   3.583
 1633W        W 5697   9.482   2.944   9.580
 1634W        W 5698   6.449   1.862   0.473
 1635W        W 5699   0.857   1.265   2.897
 1636W        W 5700   1.676   1.530   2.362
 1637W        W 5701   5.281   7.543   9.300
 1638W        W 5702   8.828   9.985  10.763
 1639W        W 5703   8.236   7.862   0.297
 1640W        W 5704   1.401   1.980   9.522
 1641W        W 5705   4.162   9.944   9.994
 1642W        W 5706   4.938   6.488   1.454
 1643W        W 5707   2.017   8.007   0.948
 1644W        W 5708   1.287   0.770   9.047
 1645W        W 5709   6.966   0.411   9.998
 1646W        W 5710   7.189   1.839   3.350
 1647W        W 5711   3.645   1.748   0.211
 1648W        W 5712   3.180   3.564   2.906
 1649W        W 5713   2.120   3.851   0.159
 1650W        W 5714   9.442   3.251  10.012
 1651W        W 5715   8.282   6.286  10.801
 1652W        W 5716   6.642   4.998   0.434
 1653W        W 5717   1.082   5.157  11.415
 1654W        W 5718   0.460   1.312  10.000
 1655W        W 5719   9.824   7.691   2.662
 1656W        W 5720  10.457   6.933   2.298
 1657W        W 5721   4.237   5.138  11.012
 1658W        W 5722   3.096   8.205  11.823
 1659W        W 5723   1.030   9.995   0.175
 1660W        W 5724   9.615   6.221   9.955
 1661W        W 5725   8.705   6.034   2.245
 1662W        W 5726   7.518   2.402   3.217
 1663W        W 5727   4.109   0.317   2.275
 1664W        W 5728   1.936   1.712  10.638
 1665W        W 5729   1.741   4.059  11.820
 1666W        W 5730   0.496   2.698  10.195
 1667W        W 5731   6.915   2.575   9.282
 1668W        W 5732   6.966   5.865   0.866
 1669W        W 5733   6.216   0.918  11.929
 1670W        W 5734   2.912   5.596   2.956
 1671W        W 5735  10.332   3.716   1.967
 1672W        W 5736   9.193   3.753  11.347
 1673W        W 5737   6.243   4.041   3.125
 1674W        W 5738   6.280  10.094   0.871
 1675W        W 5739   0.686   0.871   1.414
 1676W        W 5740   8.760   4.628   0.300
 1677W        W 5741   4.580   4.773  11.221
 1678W        W 5742   1.417   1.877  10.495
 1679W        W 5743   5.806   9.850   1.753
 1680W        W 5744   5.145   8.550  11.584
 1681W        W 5745   4.065   7.515   0.974
 1682W        W 5746   4.684   5.577   2.975
 1683W        W 5747   4.569   0.336   2.041
 1684W        W 5748   9.531   1.121   9.038
 1685W        W 5749  10.222   1.870  11.061
 1686W        W 5750   6.670   7.625   8.533
 1687W        W 5751   7.922   6.040   2.636
 1688W        W 5752   5.014   3.342   8.947
 1689W        W 5753   3.676   6.342  11.773
 1690W        W 5754   7.886   5.936  10.733
 1691W        W 5755   3.792   5.953   2.706
 1692W        W 5756   4.223   5.178  11.548
 1693W        W 5757   6.613   5.726   3.346
 1694W        W 5758   2.983   4.699   8.912
 1695W        W 5759   2.715   3.763   2.669
 1696W        W 5760   0.757   2.815   3.258
 1697W        W 5761   6.010   9.152   0.198
 1698W        W 5762   5.533   8.936   1.984
 1699W        W 5763   7.016   6.080  11.324
 1700W        W 5764   1.354   9.127  11.750
 1701W        W 5765   3.431   8.002   2.933
 1702W        W 5766   2.635   4.087   9.348
 1703W        W 5767   5.031   3.643   3.760
 1704W        W 5768   7.087   2.831  11.854
 1705W        W 5769   8.163   4.145   1.329
 1706W        W 5770   5.168   3.288  11.242
 1707W        W 5771   5.655   1.870   1.396
 1708W        W 5772   4.040   3.241   1.886
 1709W        W 5773   7.378   0.797   2.123
 1710W        W 5774   7.030   1.431  11.723
 1711W        W 5775   7.988   4.009   2.863
 1712W        W 5776   5.245   1.688   0.510
 1713W        W 5777   9.488   0.820   3.560
 1714W        W 5778   8.372   8.850   1.391
 1715W        W 5779  10.118   7.118  10.086
 1716W        W 5780   0.404   2.260  10.462
 1717W        W 5781   4.054   1.975   3.308
 1718W        W 5782   3.048   1.681   1.986
 1719W        W 5783   8.408   5.977  10.410
 1720W        W 5784   2.219   0.916   9.447
 1721W        W 5785   0.423   3.884  11.887
 1722W        W 5786  10.022   1.770   2.359
 1723W        W 5787   4.219   9.614  10.386
 1724W        W 5788   5.236   6.639   9.474
 1725W        W 5789   9.068   1.302   3.587
 1726W        W 5790   5.409   5.573   1.393
 1727W        W 5791   7.431   6.240   9.342
 1728W        W 5792   5.202   4.800   0.860
 1729W        W 5793   1.709   9.429  11.943
 1730W        W 5794   2.832   8.833   0.208
 1731W        W 5795   0.308   5.045   3.137
 1732W        W 5796   8.907   4.599   1.706
 1733W        W 5797   4.764  10.332   2.957
 1734W        W 5798   5.701   4.520  11.188
 1735W        W 5799   7.676  10.401  10.463
 1736W        W 5800   8.153   6.765  11.551
 1737W        W 5801   0.465   7.235   0.046
 1738W        W 5802   7.424   4.820   9.491
 1739W        W 5803   5.948   7.874  10.100
 1740W        W 5804   0.116   7.500  10.499
 1741W        W 5805   7.933   9.264   9.591
 1742W        W 5806   6.267   7.017  10.032
 1743W        W 5807   8.596   5.135   0.369
 1744W        W 5808   9.409   4.694   0.523
 1745W        W 5809   5.529   4.785   2.334
 1746W        W 5810   5.583   3.629  11.255
 1747W        W 5811   7.996   8.813   9.877
 1748W        W 5812   9.465   0.346   0.421
 1749W        W 5813   8.989   7.223   9.398
 1750W        W 5814   8.868   8.075   9.641
 1751W        W 5815   7.647   5.608  10.399
 1752W        W 5816   5.075   1.284   2.852
 1753W        W 5817   2.199   0.770   0.302
 1754W        W 5818   3.610   3.529   9.839
 1755W        W 5819  10.339   6.054   1.990
 1756W        W 5820   4.252   3.696   0.967
 1757W        W 5821   9.341   7.469   9.094
 1758W        W 5822   2.160   3.786   1.564
 1759W        W 5823   9.046   6.227  11.827
 1760W        W 5824   4.714   1.319   3.311
 1761W        W 5825  10.438   1.869   2.079
 1762W        W 5826   9.726   5.125  10.473
 1763W        W 5827   1.493   1.709   9.998
 1764W        W 5828   1.272   3.397   3.309
 1765W        W 5829   4.695   9.828   0.308
 1766W        W 5830  10.009   8.515   1.423
 1767W        W 5831   2.181   5.039  10.718
 1768W        W 5832   9.605   2.156   8.921
 1769W        W 5833   4.768   7.631  10.745
 1770W        W 5834   8.209   5.375  11.416
 1771W        W 5835   6.922   0.355   2.855
 1772W        W 5836   7.072   9.836   1.188
 1773W        W 5837   2.950   8.361  11.348
 1774W        W 5838   3.247   1.037   3.318
 1775W        W 5839   6.559   5.704   9.090
 1776W        W 5840   7.872   4.528   9.575
 1777W        W 5841   4.276   4.057   0.413
 1778W        W 5842   9.608   0.328   1.720
 1779W        W 5843   9.601   7.926   3.149
 1780W        W 5844   2.223   6.421   2.065
 1781W        W 5845   9.991   6.853  10.518
 1782W        W 5846   2.637   0.782   1.701
 1783W        W 5847   8.325   2.357   9.260
 1784W        W 5848  10.123   7.462  11.792
 1785W        W 5849   7.536   4.391   9.213
 1786W        W 5850   0.360   3.606   3.216
 1787W        W 5851   7.991   7.345   8.746
 1788W        W 5852   1.050   8.351   0.929
 1789W        W 5853   0.865   1.610   2.458
 1790W        W 5854   0.341   1.402   0.735
 1791W        W 5855   9.426   0.794   1.420
 1792W        W 5856   0.484   4.798  11.878
 1793W        W 5857   6.137   2.736   9.969
 1794W        W 5858   6.683   0.887   9.111
 1795W        W 5859   7.216   8.318   9.520
 1796W        W 5860   4.574   9.490  10.038
 1797W        W 5861   7.051   3.677   8.739
 1798W        W 5862   0.844   7.064   0.348
 1799W        W 5863   6.422   8.728   3.433
 1800W        W 5864   8.049  10.404   3.271
 1801W        W 5865   8.319   3.735  11.030
 1802W        W 5866  10.153   6.577   2.763
 1803W        W 5867   7.390   5.714  11.378
 1804W        W 5868   6.011   5.633  10.847
 1805W        W 5869   1.653   7.345   9.878
 1806W        W 5870   3.838   2.729   1.759
 1807W        W 5871   2.133   0.089   1.397
 1808W        W 5872   8.396   7.459   2.008
 1809W        W 5873   4.225   4.976   2.368
 1810W        W 5874   8.830   2.115  10.383
 1811W        W 5875   4.696   5.504   0.710
 1812W        W 5876   4.656   7.881   0.436
 1813W        W 5877   7.444   2.728  11.475
 1814W        W 5878   9.132   7.077  11.742
 1815W        W 5879   0.011   7.063   2.788
 1816W        W 5880   6.476   4.911   9.490
 1817W        W 5881   6.037   5.242  10.457
 1818W        W 5882   1.613   9.634  10.463
 1819W        W 5883   0.223   9.007  10.352
 1820W        W 5884   9.961   9.458   9.789
 1821W        W 5885   2.844   4.714  11.167
 1822W        W 5886   5.410   4.093  11.166
 1823W        W 5887  10.438   0.253   3.455
 1824W        W 5888   3.721   2.860   2.800
 1825W        W 5889   2.375   3.640  11.150
 1826W        W 5890   4.186   7.060   1.225
 1827W        W 5891   7.046   5.455   1.811
 1828W        W 5892   5.926   9.448   9.153
 1829W        W 5893   1.173   6.520   9.175
 1830W        W 5894   4.659   4.053   0.786
 1831W        W 5895  10.228   8.815  11.257
 1832W        W 5896   1.216   1.840   2.152
 1833W        W 5897  10.010   0.952   9.838
 1834W        W 5898   7.092   0.841   2.968
 1835W        W 5899   0.194   0.791   1.380
 1836W        W 5900   2.902   5.793   9.863
 1837W        W 5901   8.101   7.719   1.709
 1838W        W 5902   2.192   9.818   2.989
 1839W        W 5903   0.271   2.596  11.542
 1840W        W 5904   2.973   5.220  11.325
 1841W        W 5905   0.268   5.232  11.691
 1842W        W 5906   2.794   3.198   1.359
 1843W        W 5907   6.697   6.571   3.216
 1844W        W 5908   7.866   5.789   0.943
 1845W        W 5909   7.553   4.669  11.280
 1846W        W 5910   0.256   0.932  11.461
 1847W        W 5911   1.505   1.789   3.617
 1848W        W 5912   8.560   6.369   9.430
 1849W        W 5913   5.145   4.267   0.672
 1850W        W 5914   5.708  10.260   2.962
 1851W        W 5915   5.683   2.883   1.431
 1852W        W 5916   0.208  10.063  11.874
 1853W        W 5917   2.700   2.366   0.820
 1854W        W 5918   4.495   0.267  10.914
 1855W        W 5919   3.390   9.466   2.941
 1856W        W 5920   9.971   9.373  10.294
 1857W        W 5921   9.026   9.416   9.967
 1858W        W 5922   3.626   4.528  11.400
 1859W        W 5923   1.785   1.270   1.918
 1860W        W 5924   6.734   5.003   8.283
 1861W        W 5925   8.527   9.526   9.968
 1862W        W 5926   9.417   1.473   0.205
 1863W        W 5927   6.091   5.437   0.808
 1864W        W 5928   9.199   0.451   2.669
 1865W        W 5929   2.918   5.488  10.826
 1866W        W 5930   4.131   3.607  10.861
 1867W        W 5931   1.441  10.406   2.356
 1868W        W 5932   4.993   2.715  10.557
 1869W        W 5933   4.058   1.270   9.637
 1870W        W 5934   1.781   4.781  11.105
 1871W        W 5935   9.370  10.169   2.244
 1872W        W 5936   3.226   7.524   1.026
 1873W        W 5937   5.626   0.757  10.237
 1874W        W 5938   3.289   2.724   9.804
 1875W        W 5939   3.235   9.087   8.663
 1876W        W 5940   9.931   0.203  10.824
 1877W        W 5941   5.601   5.507   0.648
 1878W        W 5942   2.254   6.910  10.470
 1879W        W 5943   5.791   3.999  10.340
 1880W        W 5944   8.595  10.275  11.684
 1881W        W 5945   3.754   5.058  10.110
 1882W        W 5946   1.931   3.365   0.365
 1883W        W 5947   6.482   3.853   0.502
 1884W        W 5948   8.912   0.190  11.901
 1885W        W 5949   6.456   6.313   9.189
 1886W        W 5950   8.296   4.704   0.503
 1887W        W 5951   6.133   2.310   3.122
 1888W        W 5952   4.527   6.644  11.664
 1889W        W 5953   9.167   1.924  11.991
 1890W        W 5954   1.474   0.753  10.837
 1891W        W 5955   1.648   8.846   8.395
 1892W        W 5956   3.790   5.187   1.676
 1893W        W 5957   2.498   6.240   2.839
 1894W        W 5958  10.258   0.272   8.887
 1895W        W 5959  10.011   2.766  10.974
 1896W        W 5960   6.199   7.469   8.791
 1897W        W 5961   5.498   4.289   9.883
 1898W        W 5962   8.812   8.963  10.088
 1899W        W 5963   8.362   2.672  10.531
 1900W        W 5964   5.433   9.193   1.263
 1901W        W 5965   3.297   2.619  10.865
 1902W        W 5966   9.232   0.949   9.426
 1903W        W 5967   7.474   3.409   8.501
 1904W        W 5968   6.132   6.994   0.987
 1905W        W 5969   5.685   0.232  10.421
 1906W        W 5970   9.725   8.446   9.932
 1907W        W 5971   0.425   7.013   9.468
 1908W        W 5972   2.588   3.365   0.817
 1909W        W 5973   0.732   6.510   9.525
 1910W        W 5974   1.701   8.187   2.303
 1911W        W 5975   7.900   2.890  10.413
 1912W        W 5976   4.693   0.828   9.715
 1913W        W 5977   9.865   1.441   8.661
 1914W        W 5978   5.725   2.956  10.172
 1915W        W 5979   4.280   8.999   9.963
 1916W        W 5980   5.514   8.358   0.220
 1917W        W 5981   1.447   0.450   0.650
 1918W        W 5982   4.166   9.738   1.280
 1919W        W 5983   2.035   5.545  10.507
 1920W        W 5984   7.857   7.488   9.751
 1921W        W 5985   2.313   8.775  11.865
 1922W        W 5986   3.041   1.717   8.715
 1923W        W 5987   5.209   8.925   3.320
 1924W        W 5988   6.059   0.919  10.005
 1925W        W 5989   6.165   7.597   2.174
 1926W        W 5990   2.154   7.760   0.077
 1927W        W 5991   7.547   9.936   2.473
 1928W        W 5992   8.580   2.647   3.516
 1929W        W 5993  10.490   5.152   1.712
 1930W        W 5994   9.829   4.571   1.830
 1931W        W 5995   7.897   7.171  10.645
 1932W        W 5996   8.142   8.157   1.478
 1933W        W 5997   4.683   3.434  11.166
 1934W        W 5998   9.238   0.272   2.191
 1935W        W 5999   7.448   0.825  10.458
 1936W        W 6000   0.061   0.348   1.142
 1937W        W 6001   1.376   3.685  11.591
 1938W        W 6002   9.994   5.456   0.525
 1939W        W 6003  10.060   9.350   3.264
 1940W        W 6004   3.632   4.058  11.231
 1941W        W 6005   4.967   9.074   1.424
 1942W        W 6006   4.636   8.419  11.956
 1943W        W 6007   1.568   5.269  11.302
 1944W        W 6008   1.658   0.791   2.088
 1945W        W 6009   3.817   9.598   1.640
 1946W        W 6010   2.727   1.838   3.165
 1947W        W 6011   1.838   4.049   3.124
 1948W        W 6012   9.860   2.059   2.740
 1949W        W 6013   6.425   8.008   2.360
 1950W        W 6014   2.859   6.443  10.601
 1951W        W 6015   3.071   5.051   2.765
 1952W        W 6016   1.244   9.066  10.474
 1953W        W 6017   2.198   7.059   3.439
 1954W        W 6018   5.131   4.709   9.224
 1955W        W 6019   8.752   6.221   9.901
 1956W        W 6020   2.253   7.355   0.430
 1957W        W 6021   6.861   4.237   9.863
 1958W        W 6022   4.655   6.088  10.961
 1959W        W 6023   7.465   4.517   4.197
 1960W        W 6024   2.757   0.994  11.810
 1961W        W 6025   8.992   8.029  11.097
 1962W        W 6026   8.873   6.343   9.014
 1963W        W 6027   7.629   4.137  11.438
 1964W        W 6028   9.753   6.228   2.853
 1965W        W 6029   9.308   2.346  10.502
 1966W        W 6030   8.151   4.664   2.454
 1967W        W 6031   0.448   7.012   2.463
 1968W        W 6032  10.454   2.255  11.351
 1969W        W 6033   2.687   6.889   3.525
 1970W        W 6034   8.011   9.075   3.512
 1971W        W 6035   5.494   8.851   0.310
 1972W        W 6036   2.528   9.881  11.768
 1973W        W 6037   4.503   3.181   9.888
 1974W        W 6038   2.218  10.293   0.970
 1975W        W 6039   0.858   9.005  11.785
 1976W        W 6040   3.592  10.490   1.208
 1977W        W 6041   8.306   5.137   0.793
 1978W        W 6042   7.619   0.532   8.484
 1979W        W 6043   0.753   1.120   2.379
 1980W        W 6044   9.530   0.183  10.015
 1981W        W 6045   9.052   2.841   3.622
 1982W        W 6046   6.596   7.117  11.000
 1983W        W 6047   5.596   7.947   9.249
 1984W        W 6048   1.984   6.977   0.227
 1985W        W 6049   6.002   4.091   3.574
 1986W        W 6050   2.778  10.041   0.976
 1987W        W 6051   9.662   3.423   9.566
 1988W        W 6052   0.710   8.538   2.483
 1989W        W 6053   0.656   8.658   0.834
 1990W        W 6054   5.808   9.945   8.901
 1991W        W 6055   7.636   3.187  10.760
 1992W        W 6056   3.572   0.265   9.056
 1993W        W 6057   2.894   2.137  10.470
 1994W        W 6058   3.907   1.324   0.318
 1995W        W 6059   0.357   5.849  10.651
 1996W        W 6060   8.337   4.744  11.024
 1997W        W 6061   3.327   9.459  10.357
 1998W        W 6062   5.124   6.212   3.744
 1999W        W 6063   7.160   4.285  11.337
 2000W        W 6064   5.480   0.929   2.658
 2001W        W 6065   7.916   2.764   3.265
 2002W        W 6066   0.348   2.523   9.669
 2003W        W 6067  10.326   7.406   3.296
 2004W        W 6068   5.765   2.710   0.941
 2005W        W 6069   7.447   2.688  10.520
 2006W        W 6070   2.231   2.897   8.948
 2007W        W 6071   6.874   8.073   1.506
 2008W        W 6072   6.517   0.619   1.679
 2009W        W 6073   9.992   8.320   9.029
 2010W        W 6074   7.354   8.718   9.228
 2011W        W 6075   3.370   3.187   3.833
 2012W        W 6076   8.349   1.286   2.756
 2013W        W 6077   9.263   1.590   3.220
 2014W        W 6078   7.241   7.632   1.388
 2015W        W 6079   0.765   1.898   2.857
 2016W        W 6080   1.296   8.071   2.015
 2017W        W 6081   5.771   3.896   2.273
 2018W        W 6082   5.000   0.415   9.688
 2019W        W 6083  10.335   7.472   9.507
 2020W        W 6084   9.622  10.319   3.093
 2021W        W 6085   5.118   8.064   9.459
 2022W        W 6086   0.474   4.548  10.009
 2023W        W 6087   5.181   9.047  11.481
 2024W        W 6088   9.138   8.332  11.477
 2025W        W 6089   2.829   9.242   2.258
 2026W        W 6090   7.774   9.451   3.205
 2027W        W 6091  10.252   8.411   9.995
 2028W        W 6092   2.726   0.728   0.248
 2029W        W 6093   1.485   7.606   0.736
 2030W        W 6094   8.063   1.421  10.366
 2031W        W 6095   3.816   7.591  11.039
 2032W        W 6096   4.204   4.496   2.250
 2033W        W 6097   7.413   7.958   0.735
 2034W        W 6098   9.049   1.591  11.597
 2035W        W 6099   1.209   8.565   3.250
 2036W        W 6100   0.467   1.397  11.363
 2037W        W 6101   9.860   8.383  10.976
 2038W        W 6102   3.789   0.391   0.949
 2039W        W 6103   8.544   1.374   0.570
 2040W        W 6104   5.724   2.888   2.342
 2041W        W 6105   3.387   5.729   3.210
 2042W        W 6106   8.428   2.806   9.528
 2043W        W 6107   8.890   6.196   1.774
 2044W        W 6108   2.330   0.357   3.243
 2045W        W 6109   8.662   9.034   1.790
 2046W        W 6110   6.708   1.784   9.189
 2047W        W 6111   1.487   9.957   9.448
 2048W        W 6112   1.871   8.076  11.464
 2049W        W 6113   1.695   6.172   8.524
 2050W        W 6114   1.313   1.076   1.816
 2051W        W 6115  10.079   6.972  11.595
 2052W        W 6116   3.585   2.289   9.101
 2053W        W 6117   2.329   5.688   2.736
 2054W        W 6118   7.424   2.614   9.516
 2055W        W 6119   2.393   9.663  11.309
 2056W        W 6120   1.244   9.391  11.027
 2057W        W 6121  10.423   5.705  10.875
 2058W        W 6122   9.976   1.368  11.532
 2059W        W 6123   0.297   1.484   9.497
 2060W        W 6124  10.377   2.415   9.526
 2061W        W 6125   6.183   6.513   0.716
 2062W        W 6126   2.362   9.637  10.124
 2063W        W 6127   1.078   7.402  10.449
 2064W        W 6128   4.593   5.147   8.836
 2065W        W 6129   5.145   9.538   2.652
 2066W        W 6130   2.371   2.117   0.516
 2067W        W 6131   3.880   4.146   3.999
 2068W        W 6132   4.702   2.420   3.138
 2069W        W 6133   2.759   4.619   8.453
 2070W        W 6134   5.558   4.381   3.574
 2071W        W 6135   5.241   0.887  11.431
 2072W        W 6136   4.521   4.658   1.434
 2073W        W 6137   5.630   0.742   3.127
 2074W        W 6138   1.489   8.932   1.532
 2075W        W 6139   1.107   8.985  11.322
 2076W        W 6140   2.346   6.024   2.350
 2077W        W 6141   0.813   2.633   9.259
 2078W        W 6142   3.900   1.905  10.248
 2079W        W 6143   0.836   7.688   1.871
 2080W        W 6144   5.288   4.450  11.507
 2081W        W 6145   5.256  10.495  10.838
 2082W        W 6146   2.858   3.995   1.419
 2083W        W 6147   7.451   6.107  11.014
 2084W        W 6148   5.920   3.177   9.765
 2085W        W 6149   8.471   9.497   9.452
 2086W        W 6150   9.616  10.177  11.605
 2087W        W 6151   8.300   5.099  10.484
 2088W        W 6152   2.638   7.111   9.206
 2089W        W 6153   6.301   9.373   8.819
 2090W        W 6154   0.820   5.254   0.527
 2091W        W 6155  10.100   1.420   9.696
 2092W        W 6156   6.501   1.129   1.878
 2093W        W 6157   0.064   9.513   2.990
 2094W        W 6158   9.483   2.889  11.793
 2095W        W 6159   3.669   9.337  11.787
 2096W        W 6160   9.859   5.195   2.882
 2097W        W 6161   6.571   4.338   0.435
 2098W        W 6162   8.290  10.466  11.276
 2099W        W 6163   9.212   6.133   2.160
 2100W        W 6164   0.450   2.055   0.388
 2101W        W 6165   3.014   8.703  11.735
 2102W        W 6166   5.475   2.145   0.449
 2103W        W 6167   8.983   7.526  11.018
 2104W        W 6168   8.742   3.562  11.256
 2105W        W 6169   5.046   5.208   9.094
 2106W        W 6170   8.978   8.364  10.617
 2107W        W 6171   2.305   4.886   8.451
 2108W        W 6172   3.689   0.867   0.186
 2109W        W 6173   4.262   9.237   3.729
 2110W        W 6174   9.156   2.395   8.942
 2111W        W 6175   2.690   0.572   2.525
 2112W        W 6176   8.490   7.945  10.962
 2113W        W 6177   7.031   3.578   2.254
 2114W        W 6178   3.656  10.372   8.716
 2115W        W 6179   6.261   6.721  11.063
 2116W        W 6180   3.539   1.722   2.164
 2117W        W 6181   9.830   1.529  11.050
 2118W        W 6182   3.760   0.402   1.466
 2119W        W 6183  10.045  10.249   3.412
 2120W        W 6184   8.368   8.110   1.019
 2121W        W 6185   8.848   9.234  11.844
 2122W        W 6186   2.959   7.699   2.896
 2123W        W 6187   9.957   9.281  10.777
 2124W        W 6188   5.676   6.707   9.755
 2125W        W 6189   7.951   6.226  11.208
 2126W        W 6190   7.466   0.321   1.907
 2127W        W 6191   6.825   9.403  11.580
 2128W        W 6192   8.143   1.335   0.867
 2129W        W 6193   1.177   2.627  11.559
 2130W        W 6194   8.920   9.971   2.474
 2131W        W 6195   4.971   5.996  10.071
 2132W        W 6196   1.006   4.707   2.224
 2133W        W 6197   2.795   8.900  10.887
 2134W        W 6198   4.259   0.311   0.712
 2135W        W 6199  10.375   0.395  10.529
 2136W        W 6200   4.049   9.844   2.295
 2137W        W 6201   9.110   3.844  10.423
 2138W        W 6202   5.731   0.204   1.486
 2139W        W 6203   3.235   3.457   8.611
 2140W        W 6204   3.636   9.038   0.803
 2141W        W 6205   0.841   0.784   9.387
 2142W        W 6206   2.392   1.244   0.345
 2143W        W 6207   0.853   6.961   9.748
 2144W        W 6208   1.759   2.198   8.751
 2145W        W 6209   3.421   1.414  11.370
 2146W        W 6210   5.780   7.381   1.234
 2147W        W 6211   0.802   5.845   0.778
 2148W        W 6212   6.072   7.963   9.060
 2149W        W 6213   1.943  10.414  10.150
 2150W        W 6214   6.161   1.689   2.464
 2151W        W 6215   1.810   6.763   3.583
 2152W        W 6216   1.392   5.929  10.969
 2153W        W 6217   1.487   2.647   1.769
 2154W        W 6218   7.882   1.695   0.574
 2155W        W 6219   9.749   1.820   0.371
 2156W        W 6220   2.077   5.424   0.922
 2157W        W 6221   3.974   6.482   3.312
 2158W        W 6222   4.258   9.550   1.870
 2159W        W 6223   2.853   5.546  11.730
 2160W        W 6224   9.298   9.900   3.306
 2161W        W 6225   8.004   2.268   3.016
 2162W        W 6226   2.268   2.168   3.256
 2163W        W 6227   8.003  10.159   2.319
 2164W        W 6228   6.908  10.337  11.461
 2165W        W 6229   2.759   3.638   8.773
 2166W        W 6230   7.825   8.488  11.609
 2167W        W 6231   9.113  10.302  11.573
 2168W        W 6232   6.961   2.708   0.345
 2169W        W 6233   3.109   0.891   1.460
 2170W        W 6234   1.035   4.974   8.900
 2171W        W 6235   0.697  10.341   1.421
 2172W        W 6236   7.093   2.299   0.063
 2173W        W 6237   6.525   4.668   2.598
 2174W        W 6238   8.582   2.775  10.031
 2175W        W 6239   3.651   7.971  10.340
 2176W        W 6240   9.053   6.992   1.176
 2177W        W 6241   7.959   4.382   3.179
 2178W        W 6242   1.409   4.664  11.469
 2179W        W 6243   4.713   8.919  10.725
 2180W        W 6244   6.706   7.208  11.895
 2181W        W 6245   8.007   9.852   8.567
 2182W        W 6246   9.487   4.104   2.254
 2183W        W 6247   9.380   8.019  10.475
 2184W        W 6248   5.021   3.295  10.757
 2185W        W 6249   5.658   5.832  11.675
 2186W        W 6250   3.661   9.533   8.940
 2187W        W 6251   4.076  10.457   9.033
 2188W        W 6252   5.637   8.478   2.187
 2189W        W 6253   3.321   6.643  10.858
 2190W        W 6254   1.656   6.626   0.070
 2191W        W 6255   8.068   1.226  10.866
 2192W        W 6256   3.265   6.652  10.335
 2193W        W 6257   9.493   1.797   2.503
 2194W        W 6258   8.930   0.849   3.385
 2195W        W 6259   7.343   4.374  11.835
 2196W        W 6260   1.183   2.731  10.669
 2197W        W 6261   1.169   4.512   0.522
 2198W        W 6262   3.372   2.043   1.818
 2199W        W 6263   2.181   7.018  10.969
 2200W        W 6264   4.512   3.186   0.814
 2201W        W 6265   5.646   6.029   0.555
 2202W        W 6266   5.354   6.827   1.904
 2203W        W 6267   1.737   3.635   1.341
 2204W        W 6268   7.628   4.046   9.586
 2205W        W 6269   9.359   7.584   1.781
 2206W        W 6270   6.977   1.938  11.711
 2207W        W 6271   1.706   5.217  10.805
 2208W        W 6272   2.841   0.566   0.812
 2209W        W 6273   9.515   7.004   9.358
 2210W        W 6274   2.618   4.114   1.875
 2211W        W 6275   2.438   6.263  11.944
 2212W        W 6276   6.183   4.725   1.580
 2213W        W 6277   0.600   8.149   0.786
 2214W        W 6278   8.980   8.331   9.218
 2215W        W 6279   9.743   1.639   8.180
 2216W        W 6280   6.447   5.212   9.084
 2217W        W 6281   3.691   5.714  11.202
 2218W        W 6282   2.561   5.585  10.437
 2219W        W 6283   5.350   1.743  10.388
 2220W        W 6284   5.275   1.286   0.159
 2221W        W 6285   8.828   7.844   1.006
 2222W        W 6286   8.781   5.087  10.334
 2223W        W 6287   6.698   5.684   2.845
 2224W        W 6288   3.181   5.297   0.425
 2225W        W 6289   8.661   2.254   0.809
 2226W        W 6290   0.670   7.929  10.979
 2227W        W 6291   8.531   8.964   8.629
 2228W        W 6292   3.342   3.029   3.138
 2229W        W 6293   2.317   0.247   2.735
 2230W        W 6294   5.228   2.128   2.631
 2231W        W 6295   6.934   8.026   9.849
 2232W        W 6296   1.872   0.124   2.207
 2233W        W 6297   2.879   9.892  10.876
 2234W        W 6298   4.026   9.109  11.483
 2235W        W 6299   1.953   2.243   3.666
 2236W        W 6300   7.038   4.014   3.546
 2237W        W 6301   0.311   0.510   9.773
 2238W        W 6302   8.957   2.335   2.835
 2239W        W 6303   2.870   2.685   1.399
 2240W        W 6304   7.115   7.941   3.010
 2241W        W 6305   3.208   1.813   9.201
 2242W        W 6306   4.626   1.287   1.992
 2243W        W 6307   9.421   9.263   9.554
 2244W        W 6308   0.402   0.746   8.763
 2245W        W 6309  10.295   8.314  11.241
 2246W        W 6310   5.411   0.418   8.844
 2247W        W 6311   0.817  10.323  11.483
 2248W        W 6312   8.444   9.508   0.719
 2249W        W 6313   7.973   2.315   3.523
 2250W        W 6314   3.493   8.920  10.344
 2251W        W 6315   4.216   6.045   0.957
 2252W        W 6316   5.262  10.489   9.783
 2253W        W 6317   7.344   8.390   3.170
 2254W        W 6318   6.657   0.213   2.457
 2255W        W 6319   1.606   9.585   2.108
 2256W        W 6320   4.364   1.961  10.467
 2257W        W 6321   1.522   4.698   2.265
 2258W        W 6322   3.153   9.471   9.005
 2259W        W 6323   8.953   1.119  11.362
 2260W        W 6324   3.075   2.202  11.744
 2261W        W 6325   3.376   8.352   9.348
 2262W        W 6326   1.370   7.535   9.488
 2263W        W 6327   0.929   7.389  11.916
 2264W        W 6328   5.151   9.056   2.824
 2265W        W 6329   6.967   6.953   1.856
 2266W        W 6330   1.865   2.148  10.355
 2267W        W 6331   8.995   0.524   0.302
 2268W        W 6332   7.569   6.825   9.813
 2269W        W 6333   6.667   1.161   0.008
 2270W        W 6334   1.417   5.136  11.793
 2271W        W 6335   4.576   9.295  11.054
 2272W        W 6336   4.647   9.371   3.423
 2273W        W 6337   3.368   7.882  11.541
 2274W        W 6338   1.052  10.473  11.926
 2275W        W 6339   8.914   1.531   0.266
 2276W        W 6340   3.649   5.562   1.978
 2277W        W 6341   6.196   1.860  10.458
 2278W        W 6342   3.034   6.910   3.133
 2279W        W 6343   1.078   1.897   1.382
 2280W        W 6344   7.337   9.669  11.048
 2281W        W 6345   8.184   9.465   2.863
 2282W        W 6346   3.278   4.265   8.798
 2283W        W 6347   2.280   9.081  11.443
 2284W        W 6348   1.534   6.175   2.912
 2285W        W 6349   8.184   2.564  11.005
 2286W        W 6350   5.663   2.047  11.989
 2287W        W 6351   1.566   1.779   1.263
 2288W        W 6352   0.417   7.117  10.648
 2289W        W 6353   0.445   2.122  11.454
 2290W        W 6354   1.343   3.863   8.617
 2291W        W 6355   1.952   7.009   0.963
 2292W        W 6356   0.962   0.272   0.634
 2293W        W 6357   3.700   2.207   3.038
 2294W        W 6358   8.980   4.162   0.432
 2295W        W 6359   2.379   8.615   0.352
 2296W        W 6360   1.769   4.242  10.976
 2297W        W 6361   1.905   8.433   8.597
 2298W        W 6362   4.249   7.049   0.191
 2299W        W 6363   9.202   7.475   2.325
 2300W        W 6364   0.655   3.899   2.931
 2301W        W 6365   2.137   7.965   9.711
 2302W        W 6366   7.105   6.714   4.081
 2303W        W 6367   9.437   6.168   0.709
 2304W        W 6368   7.683   9.714   0.845
 2305W        W 6369   1.041   9.430   2.784
 2306W        W 6370   6.890   1.292   2.192
 2307W        W 6371   2.303   4.846   3.266
 2308W        W 6372   3.827   8.464   1.402
 2309W        W 6373   8.906   8.385   0.957
 2310W        W 6374   3.964   6.723   1.979
 2311W        W 6375   9.188   3.605   8.906
 2312W        W 6376   5.533   9.882   2.173
 2313W        W 6377   0.466   6.151  11.659
 2314W        W 6378   8.806   6.670   0.561
 2315W        W 6379   6.129   1.853  11.547
 2316W        W 6380  10.432   1.343   1.955
 2317W        W 6381   9.842   1.734  10.003
 2318W        W 6382   9.989   1.173   0.014
 2319W        W 6383   8.992   1.983   1.603
 2320W        W 6384   7.985   2.722   1.719
 2321W        W 6385   1.570   5.369   0.222
 2322W        W 6386   0.869   8.053  10.543
 2323W        W 6387   6.682   7.994   0.253
 2324W        W 6388   5.480   5.210   2.662
 2325W        W 6389  10.483   8.498   2.651
 2326W        W 6390   9.959   2.627   3.377
 2327W        W 6391   3.140   3.533   1.743
 2328W        W 6392   9.848   3.243  11.831
 2329W        W 6393   7.186   3.031   9.337
 2330W        W 6394   1.359   0.513   8.590
 2331W        W 6395   3.465   4.161  10.759
 2332W        W 6396   7.642   5.992   8.349
 2333W        W 6397   4.832   2.788   0.924
 2334W        W 6398   1.736   5.854   9.715
 2335W        W 6399   7.373   6.045   1.786
 2336W        W 6400   4.149   8.841   2.391
 2337W        W 6401   4.544   3.636  10.128
 2338W        W 6402   0.735   1.651   0.490
 2339W        W 6403   1.586   6.464   1.857
 2340W        W 6404   4.333   0.996  11.403
 2341W        W 6405   7.012   7.619  10.147
 2342W        W 6406   1.690   0.059   0.360
 2343W        W 6407   4.392   2.642  11.059
 2344W        W 6408   4.233   3.400  11.419
 2345W        W 6409   3.545   1.722   0.870
 2346W        W 6410   6.454   0.205   1.988
 2347W        W 6411   5.120   4.080   8.124
 2348W        W 6412   3.192   4.628  10.042
 2349W        W 6413   1.450   0.764  11.876
 2350W        W 6414   8.958   8.464  10.101
 2351W        W 6415   8.969   7.935   1.554
 2352W        W 6416   2.916   0.274   0.405
 2353W        W 6417   9.971   8.778  11.936
 2354W        W 6418   2.222   6.039  10.996
 2355W        W 6419   3.626   2.594   0.742
 2356W        W 6420  10.159   8.716  10.742
 2357W        W 6421   1.857   7.419  11.146
 2358W        W 6422   0.270   0.252   8.863
 2359W        W 6423   7.471   7.541  11.435
 2360W        W 6424   8.537   6.552  11.787
 2361W        W 6425   9.639   6.621   0.895
 2362W        W 6426   7.243   3.191   1.016
 2363W        W 6427   7.661   9.104   9.077
 2364W        W 6428   8.913   7.850  10.616
 2365W        W 6429   3.376   6.959   8.548
 2366W        W 6430   6.678   1.693  10.261
 2367W        W 6431   3.288   7.885   0.678
 2368W        W 6432   4.580   9.838   3.171
 2369W        W 6433   9.708  10.238   9.817
 2370W        W 6434   9.869   5.439  11.523
 2371W        W 6435   7.937  10.174   0.848
 2372W        W 6436   6.627   8.746   2.987
 2373W        W 6437   0.414   1.439   2.691
 2374W        W 6438   0.148   6.734  10.883
 2375W        W 6439   7.530   5.530   1.696
 2376W        W 6440   6.689   1.680   9.735
 2377W        W 6441   6.393   5.731   1.611
 2378W        W 6442   3.385   9.765  11.629
 2379W        W 6443   4.767   1.244  11.878
 2380W        W 6444   1.168   6.081   3.262
 2381W        W 6445   6.283   3.658   0.938
 2382W        W 6446   8.142   3.071  10.826
 2383W        W 6447   7.152   5.477   2.811
 2384W        W 6448   5.673  10.275   2.458
 2385W        W 6449   1.377   6.567  10.201
 2386W        W 6450   8.115   7.533  10.323
 2387W        W 6451   8.017   2.263   2.490
 2388W        W 6452   7.059   3.361  11.589
 2389W        W 6453   2.732   8.839  10.061
 2390W        W 6454  10.073   0.159   1.611
 2391W        W 6455   1.844   6.471   3.180
 2392W        W 6456   1.665   9.219  10.767
 2393W        W 6457   2.704   4.459   0.039
 2394W        W 6458   4.486   6.602   2.700
 2395W        W 6459   1.400   7.221   1.515
 2396W        W 6460   2.247   6.017  10.456
 2397W        W 6461   7.425   4.548   1.319
 2398W        W 6462   4.701   9.358   0.066
 2399W        W 6463   8.768   5.221   3.232
 2400W        W 6464   9.793   6.958   0.544
 2401W        W 6465   4.840   5.040   1.210
 2402W        W 6466   3.114   6.401   8.309
 2403W        W 6467   2.587   3.870  11.928
 2404W        W 6468   7.482   7.497   1.848
 2405W        W 6469   6.936   0.864   1.898
 2406W        W 6470   9.474   1.515   0.726
 2407W        W 6471   7.524   5.475   1.186
 2408W        W 6472   5.037   9.658   2.166
 2409W        W 6473   1.995   2.871   9.402
 2410W        W 6474   6.908   5.600  11.520
 2411W        W 6475   9.817   5.610   0.045
 2412W        W 6476   4.250   8.380   9.166
 2413W        W 6477   2.357   2.265   2.774
 2414W        W 6478   6.997   4.195   0.186
 2415W        W 6479   0.369   7.494   3.392
 2416W        W 6480   7.011   9.858  11.769
 2417W        W 6481   5.107   5.399  11.502
 2418W        W 6482   3.809   6.479   9.637
 2419W        W 6483   2.941   9.860   9.476
 2420W        W 6484   7.938   3.332  11.624
 2421W        W 6485   3.536   4.315   9.501
 2422W        W 6486   0.798   1.147   0.967
 2423W        W 6487   7.058   5.817   4.088
 2424W        W 6488   3.770   9.878   8.542
 2425W        W 6489   4.202   7.947   0.677
 2426W        W 6490   9.080   2.373   0.559
 2427W        W 6491   8.463   2.840   1.554
 2428W        W 6492   9.390   4.588   2.093
 2429W        W 6493   8.210   1.031   1.846
 2430W        W 6494   2.956   9.244   3.141
 2431W        W 6495   5.016   0.356   3.080
 2432W        W 6496   8.531   7.966   1.873
 2433W        W 6497   8.129   6.604   9.521
 2434W        W 6498   5.198   4.637  10.521
 2435W        W 6499   6.046  10.143   9.370
 2436W        W 6500   8.328   1.711   0.265
 2437W        W 6501   1.929   7.376   1.799
 2438W        W 6502   3.246   9.402   0.571
 2439W        W 6503   3.984   1.149   3.524
 2440W        W 6504   9.959   1.349   9.190
 2441W        W 6505   5.903   4.099  11.422
 2442W        W 6506   8.012   5.644   1.859
 2443W        W 6507   7.488   8.202   2.721
 2444W        W 6508  10.309   8.002   2.661
 2445W        W 6509  10.146   6.753   0.889
 2446W        W 6510   5.725  10.286  10.673
 2447W        W 6511   5.660   0.731  11.699
 2448W        W 6512   4.223  10.321  10.848
 2449W        W 6513   3.712   6.949   2.414
 2450W        W 6514   7.015   9.915   3.633
 2451W        W 6515   3.271   3.811  11.500
 2452W        W 6516   1.199   5.654  11.370
 2453W        W 6517   2.116   3.172   0.787
 2454W        W 6518  10.484   7.003  10.412
 2455W        W 6519   4.011   2.262   9.877
 2456W        W 6520   5.913   2.660   9.519
 2457W        W 6521   3.574   6.560  11.327
 2458W        W 6522   4.731   3.197   9.386
 2459W        W 6523   3.845   2.393   2.585
 2460W        W 6524   6.420   6.675   3.715
 2461W        W 6525   0.165   6.596   2.633
 2462W        W 6526   8.651   6.492   3.447
 2463W        W 6527   4.561   8.012   9.471
 2464W        W 6528   3.661   1.364  11.841
 2465W        W 6529   5.686   7.960   8.716
 2466W        W 6530   0.843   5.028   1.266
 2467W        W 6531   0.971   3.293  10.923
 2468W        W 6532   6.548   4.368   1.399
 2469W        W 6533   6.990   2.020  10.967
 2470W        W 6534   7.613   6.687  10.353
 2471W        W 6535   4.100   9.617   9.232
 2472W        W 6536   5.027   7.748   1.605
 2473W        W 6537   1.099   8.959   3.553
 2474W        W 6538   4.082   3.111   1.047
 2475W        W 6539   1.304   1.395   3.269
 2476W        W 6540   3.831   9.851   9.601
 2477W        W 6541   3.295   1.359   1.681
 2478W        W 6542   8.462  10.255   0.239
 2479W        W 6543   3.268   8.948   2.863
 2480W        W 6544   8.025   8.176   1.994
 2481W        W 6545   0.742   9.034  10.357
 2482W        W 6546   7.307   2.841   3.427
 2483W        W 6547   9.239  10.343   0.538
 2484W        W 6548   5.964   0.336   1.917
 2485W        W 6549   7.156   4.192   1.580
 2486W        W 6550   6.145   9.092   3.223
 2487W        W 6551   8.666   3.610   8.999
 2488W        W 6552  10.476   5.310   0.383
 2489W        W 6553   8.955   2.494   1.500
 2490W        W 6554   6.489   1.942   8.690
 2491W        W 6555   6.155   7.804   3.173
 2492W        W 6556  10.011   9.228   0.844
 2493W        W 6557  10.455   8.001  10.249
 2494W        W 6558   7.969   7.309   0.800
 2495W        W 6559   3.314   9.966   8.850
 2496W        W 6560   5.965   9.122   9.545
 2497W        W 6561   8.832   0.439   3.065
 2498W        W 6562   4.409   7.063   8.488
 2499W        W 6563   1.177   8.533   2.271
 2500W        W 6564   8.631   7.049  11.787
 2501W        W 6565   5.236   8.687   1.149
 2502W        W 6566   3.549   3.828   3.103
 2503W        W 6567   6.040   1.223   1.698
 2504W        W 6568  10.376   5.644   3.170
 2505W        W 6569   3.281   0.253   2.137
 2506W        W 6570  10.411   5.751   0.690
 2507W        W 6571   9.422   2.705   3.330
 2508W        W 6572  10.072   3.036   0.367
 2509W        W 6573   1.700   7.066   3.209
 2510W        W 6574   3.621   6.730   0.693
 2511W        W 6575   8.159   7.079   9.707
 2512W        W 6576   4.207   7.039   2.332
 2513W        W 6577   5.605   8.943   9.179
 2514W        W 6578   9.303   3.317   1.409
 2515W        W 6579   8.840   7.140   2.195
 2516W        W 6580   3.527   7.507   0.029
 2517W        W 6581   2.785   6.451   1.362
 2518W        W 6582   3.064   3.150   0.904
 2519W        W 6583   8.593   3.310   0.628
 2520W        W 6584   7.472   1.363   9.165
 2521W        W 6585   0.489   9.425  10.572
 2522W        W 6586   7.364   6.737   1.529
 2523W        W 6587   5.324   3.918   4.332
 2524W        W 6588   1.271   9.428   1.760
 2525W        W 6589   8.032   3.795   9.810
 2526W        W 6590   8.163   7.040   9.156
 2527W        W 6591   1.259   0.487   9.481
 2528W        W 6592   5.591   3.179   1.011
 2529W        W 6593   1.685   2.195   0.942
 2530W        W 6594   8.468   0.165   3.462
 2531W        W 6595   2.853   8.352   1.230
 2532W        W 6596   5.277   9.872   8.577
 2533W        W 6597   0.770   6.119  10.377
 2534W        W 6598   6.702   0.130   3.389
 2535W        W 6599   2.310   6.253   1.258
 2536W        W 6600   8.450   2.181   3.306
 2537W        W 6601   2.250   0.444  10.728
 2538W        W 6602   3.123   2.752   2.774
 2539W        W 6603   0.351   0.187   1.996
 2540W        W 6604   7.505   7.678  10.054
 2541W        W 6605   7.044   8.367   9.039
 2542W        W 6606   7.289   9.540   3.395
 2543W        W 6607   2.383   0.800  10.389
 2544W        W 6608   4.697   8.370   1.920
 2545W        W 6609   5.563   8.113  11.775
 2546W        W 6610   0.193   3.614  11.503
 2547W        W 6611   8.888   9.121  11.088
 2548W        W 6612  10.381   6.505  10.520
 2549W        W 6613   0.241   2.826   8.821
 2550W        W 6614   0.036   1.658   9.897
 2551W        W 6615   1.422  10.041  11.227
 2552W        W 6616   4.478   5.167   1.548
 2553W        W 6617   6.124   2.551   2.160
 2554W        W 6618   3.249   0.904  11.932
 2555W        W 6619   2.146   6.623   9.854
 2556W        W 6620   8.076   4.108   1.824
 2557W        W 6621   7.999   8.189   2.539
 2558W        W 6622   7.056   8.577  10.505
 2559W        W 6623   7.607   2.303   1.696
 2560W        W 6624   9.309   4.060   2.735
 2561W        W 6625   9.974   4.226   0.959
 2562W        W 6626   7.463   9.449   0.431
 2563W        W 6627   9.052   0.775   0.780
 2564W        W 6628   3.084   5.617  10.341
 2565W        W 6629   6.438   5.446   8.631
 2566W        W 6630   5.680   3.026  11.948
 2567W        W 6631   4.260   0.789   1.395
 2568W        W 6632   2.763   9.274  11.269
 2569W        W 6633   3.613   2.730  11.261
 2570W        W 6634   7.183   9.362   0.930
 2571W        W 6635   5.692   1.873   9.971
 2572W        W 6636   3.676   2.128   0.549
 2573W        W 6637   0.005   5.198   9.064
 2574W        W 6638   4.659   9.819  11.267
 2575W        W 6639  10.115   4.992   1.986
 2576W        W 6640   7.466   9.306   1.765
 2577W        W 6641   4.267   7.588  10.774
 2578W        W 6642   3.180   4.583  11.917
 2579W        W 6643  10.205   4.965  10.506
 2580W        W 6644   5.600   5.527  11.233
 2581W        W 6645   0.496   4.619   2.921
 2582W        W 6646   8.121   3.885   0.319
 2583W        W 6647   2.415   8.500   2.509
 2584W        W 6648   1.272   4.204   9.344
 2585W        W 6649   7.967   0.793  11.367
 2586W        W 6650   3.367   0.893   1.923
 2587W        W 6651   5.655   5.004   0.703
 2588W        W 6652   1.966   1.630   1.563
 2589W        W 6653   4.074   5.761   9.180
 2590W        W 6654   6.545   8.445   1.257
 2591W        W 6655   3.685   6.657   8.829
 2592W        W 6656   1.800   1.054   0.166
 2593W        W 6657   5.138   7.354   3.047
 2594W        W 6658   6.130   8.642   2.933
 2595W        W 6659   1.382   5.884   0.258
 2596W        W 6660   3.059   6.519  11.359
 2597W        W 6661   0.877   9.302   8.982
 2598W        W 6662   3.119   9.956  10.259
 2599W        W 6663   2.516   7.199   1.913
 2600W        W 6664   0.395   7.746  10.145
 2601W        W 6665   7.269   3.651   0.774
 2602W        W 6666   2.934   1.705   1.451
 2603W        W 6667   1.945   3.079   3.204
 2604W        W 6668   3.730   1.877  10.752
 2605W        W 6669   9.362   2.850  10.386
 2606W        W 6670   0.844   1.379   1.451
 2607W        W 6671   1.310   3.482   2.013
 2608W        W 6672   3.059   8.815   2.416
 2609W        W 6673  10.285   9.851  10.308
 2610W        W 6674   3.776  10.441  11.713
 2611W        W 6675   1.403   5.210   9.183
 2612W        W 6676   1.319   8.299   0.062
 2613W        W 6677   6.079   4.792  10.159
 2614W        W 6678   1.284   2.319   3.541
 2615W        W 6679   3.434   5.020   3.634
 2616W        W 6680   3.982   5.724   0.169
 2617W        W 6681   6.691   3.660  10.513
 2618W        W 6682   8.455   1.867   9.899
 2619W        W 6683   2.719   6.726   2.749
 2620W        W 6684   4.246   9.868   0.716
 2621W        W 6685   8.193   6.502   1.283
 2622W        W 6686   8.959   0.072   9.522
 2623W        W 6687   5.077   9.416  10.247
 2624W        W 6688   6.511  10.303  11.102
 2625W        W 6689   7.221   7.274  11.792
 2626W        W 6690   6.598   1.246  11.017
 2627W        W 6691   2.026   1.847  11.220
 2628W        W 6692   9.568   5.512  10.776
 2629W        W 6693   0.510   4.640   2.354
 2630W        W 6694   9.415   4.731   1.562
 2631W        W 6695   8.492   4.287   8.998
 2632W        W 6696   8.311   8.795  10.446
 2633W        W 6697   6.736   8.449   9.636
 2634W        W 6698   6.471   8.080   9.417
 2635W        W 6699   2.253   3.401  11.971
 2636W        W 6700   6.438   7.914   9.923
 2637W        W 6701   0.711   5.409   2.796
 2638W        W 6702   2.771   0.756   8.598
 2639W        W 6703   8.605   0.489  10.799
 2640W        W 6704   7.501   6.218  11.505
 2641W        W 6705   1.968   0.830  10.928
 2642W        W 6706   6.079   9.958   3.270
 2643W        W 6707   8.903  10.400   2.179
 2644W        W 6708   6.420   5.509  11.656
 2645W        W 6709   7.053   4.429   9.415
 2646W        W 6710   8.609   5.906   0.456
 2647W        W 6711   5.805   9.920   0.887
 2648W        W 6712   1.973   3.891   2.648
 2649W        W 6713   7.387   2.254  11.234
 2650W        W 6714   5.660   7.839   1.892
 2651W        W 6715  10.276   0.698   8.609
 2652W        W 6716   1.408   8.468   8.660
 2653W        W 6717   9.834   3.853   0.650
 2654W        W 6718   0.873   2.214  11.731
 2655W        W 6719   9.726   0.266  11.733
 2656W        W 6720   2.165   0.883   3.328
 2657W        W 6721   4.837   6.871   1.886
 2658W        W 6722   0.266  10.378   0.313
 2659W        W 6723   1.629   0.747   9.972
 2660W        W 6724   9.239   2.723   0.205
 2661W        W 6725   8.860   0.677   2.111
 2662W        W 6726   4.398   6.615   8.179
 2663W        W 6727   4.016   2.892   9.042
 2664W        W 6728   8.567   3.358  10.772
 2665W        W 6729   9.970   3.522  10.532
 2666W        W 6730   8.924   4.555   9.165
 2667W        W 6731   0.498   9.047   1.670
 2668W        W 6732   5.147   0.411   0.200
 2669W        W 6733   8.221   8.069   8.635
 2670W        W 6734   4.413   1.673   3.616
 2671W        W 6735   7.708   0.330   9.405
 2672W        W 6736   8.933   4.739   3.134
 2673W        W 6737   3.816   5.364  11.866
 2674W        W 6738   2.842   2.101   1.761
 2675W        W 6739   7.537  10.481   9.017
 2676W        W 6740   2.539  10.171   9.352
 2677W        W 6741   7.820   5.305   0.784
 2678W        W 6742   6.557   7.724  11.824
 2679W        W 6743   3.085   4.310   9.273
 2680W        W 6744   4.793   7.342   0.377
 2681W        W 6745   7.918   8.032  11.798
 2682W        W 6746   3.800   3.316  10.545
 2683W        W 6747   2.177   5.714   9.050
 2684W        W 6748   0.013   6.103  11.887
 2685W        W 6749  10.186   0.325   2.540
 2686W        W 6750   3.223   9.100   9.954
 2687W        W 6751   9.444   4.733   1.033
 2688W        W 6752   6.002   1.258   2.227
 2689W        W 6753   8.708   6.695   8.652
 2690W        W 6754   2.850   2.874  10.809
 2691W        W 6755   5.087   8.149  11.896
 2692W        W 6756   9.307   2.871   0.675
 2693W        W 6757   1.381   4.173   1.452
 2694W        W 6758   7.422   9.503  10.257
 2695W        W 6759   4.082   0.588  10.363
 2696W        W 6760   4.233   1.903   8.889
 2697W        W 6761   8.971   5.617   2.961
 2698W        W 6762   4.503   2.839  10.582
 2699W        W 6763   2.822   4.577   2.029
 2700W        W 6764   7.654   8.497  11.137
 2701W        W 6765  10.265   2.374   1.984
 2702W        W 6766  10.259  10.407   0.340
 2703W        W 6767  10.162   2.673  11.506
 2704W        W 6768   7.857   2.231   9.051
 2705W        W 6769   8.097   0.909  11.894
 2706W        W 6770   4.106   5.163   2.820
 2707W        W 6771   3.307   4.663   8.467
 2708W        W 6772   8.505  10.226  10.431
 2709W        W 6773   8.145   5.685   9.795
 2710W        W 6774   3.182   3.966   3.433
 2711W        W 6775   9.520   6.228   1.234
 2712W        W 6776   5.002   1.256   9.715
 2713W        W 6777   3.046   8.273   3.130
 2714W        W 6778   0.412  10.005  11.385
 2715W        W 6779   0.700   4.816   9.277
 2716W        W 6780   1.802   4.672   3.077
 2717W        W 6781   8.363  10.110   3.573
 2718W        W 6782   2.444   8.208  11.254
 2719W        W 6783   7.141  10.460   1.752
 2720W        W 6784   2.869   1.855  10.995
 2721W        W 6785   1.169   5.098   0.886
 2722W        W 6786   6.396   5.282  10.811
 2723W        W 6787   5.666   6.525   2.209
 2724W        W 6788   4.540   1.473  10.436
 2725W        W 6789   2.464   1.204   2.655
 2726W        W 6790   4.130   7.417   9.881
 2727W        W 6791   5.448   1.312   8.940
 2728W        W 6792   3.715   6.005   2.216
 2729W        W 6793   6.118   0.806   1.985
 2730W        W 6794   0.274   6.350   9.753
 2731W        W 6795   6.216   8.496  11.434
 2732W        W 6796  10.319   8.972   1.173
 2733W        W 6797   4.248   2.466   3.453
 2734W        W 6798   7.655   1.177  10.087
 2735W        W 6799  10.187   2.627   0.686
 2736W        W 6800   3.660   6.517   1.182
 2737W        W 6801   6.251   6.938   2.832
 2738W        W 6802   9.019   1.298   0.749
 2739W        W 6803   9.107   7.923   2.059
 2740W        W 6804   2.789   9.003   1.681
 2741W        W 6805   2.641   1.482  11.811
 2742W        W 6806   0.311   9.455   1.992
 2743W        W 6807   1.306   6.847   0.435
 2744W        W 6808   4.773   2.141   3.591
 2745W        W 6809  10.228   3.063   1.212
 2746W        W 6810   5.502   3.791   9.969
 2747W        W 6811   7.815   4.207  10.041
 2748W        W 6812   4.872   1.679  11.471
 2749W        W 6813   6.467  10.337   0.405
 2750W        W 6814   2.533   1.881   0.972
 2751W        W 6815   7.031   7.873   8.836
 2752W        W 6816   0.307  10.208  10.943
 2753W        W 6817  10.454   6.112   9.380
 2754W        W 6818   3.788   7.929  11.877
 2755W        W 6819   1.211   0.896   0.820
 2756W        W 6820   5.223   1.364   3.384
 2757W        W 6821   2.288   5.239   1.401
 2758W        W 6822   2.735   4.995   1.350
 2759W        W 6823   0.787   9.574   9.403
 2760W        W 6824   3.391   4.397   4.282
 2761W        W 6825   4.054   9.301  10.965
 2762W        W 6826   3.035   7.124  10.883
 2763W        W 6827   0.849   2.009   3.598
 2764W        W 6828   9.618   5.119   9.584
 2765W        W 6829   8.609   3.792   0.394
 2766W        W 6830   0.408  10.483   9.279
 2767W        W 6831   4.553   5.696  10.044
 2768W        W 6832   3.139  10.460   8.715
 2769W        W 6833   7.094   8.823   3.194
 2770W        W 6834   7.913   2.777   9.498
 2771W        W 6835   9.321   9.066  11.695
 2772W        W 6836   5.605   0.911   9.729
 2773W        W 6837   8.268   4.188  11.770
 2774W        W 6838   8.822   5.532   9.146
 2775W        W 6839   5.060   3.438   4.240
 2776W        W 6840   4.389   4.304  11.331
 2777W        W 6841   9.500   5.936  11.802
 2778W        W 6842   2.756   4.391   9.768
 2779W        W 6843   2.169   6.058   3.206
 2780W        W 6844   5.147   1.077   1.409
 2781W        W 6845   7.768  10.406   9.860
 2782W        W 6846   4.670   2.202   8.849
 2783W        W 6847   0.408   0.012   9.802
 2784W        W 6848   8.496   0.794   2.823
 2785W        W 6849   6.573   7.425  11.411
 2786W        W 6850   4.375   8.772  11.646
 2787W        W 6851   3.784   9.946   0.949
 2788W        W 6852   8.416   2.642   2.018
 2789W        W 6853   9.563   8.661   1.609
 2790W        W 6854   2.084   9.400  10.510
 2791W        W 6855   0.052   4.529   2.596
 2792W        W 6856   8.433   4.667   3.263
 2793W        W 6857   8.487   9.675   8.509
 2794W        W 6858   2.670   7.845  10.835
 2795W        W 6859   4.424   1.994   1.001
 2796W        W 6860   6.041   7.675   2.686
 2797W        W 6861   1.696   6.344   9.874
 2798W        W 6862   7.979   0.341   1.099
 2799W        W 6863   1.827   0.468   1.217
 2800W        W 6864   8.064   1.465   9.859
 2801W        W 6865   7.427   2.644  10.019
 2802W        W 6866   8.898   3.993   2.452
 2803W        W 6867   3.179   0.216   3.232
 2804W        W 6868   9.964   5.657  11.059
 2805W        W 6869   2.875   5.658   3.455
 2806W        W 6870   8.795   4.221   9.992
 2807W        W 6871   9.901   7.076  11.124
 2808W        W 6872   8.388   5.830   2.656
 2809W        W 6873   8.351   3.531   2.331
 2810W        W 6874   4.592   2.756   9.595
 2811W        W 6875   4.509   6.159   9.845
 2812W        W 6876   0.407   9.786   0.759
 2813W        W 6877   0.505   4.629  11.050
 2814W        W 6878   1.744   4.610   1.485
 2815W        W 6879   5.273   8.415   9.877
 2816W        W 6880   5.496   4.636   1.734
 2817W        W 6881   0.919   4.471   8.994
 2818W        W 6882   2.768   8.588   8.835
 2819W        W 6883   0.983   0.987  10.716
 2820W        W 6884   0.339   7.498   9.688
 2821W        W 6885   4.788   4.604   3.003
 2822W        W 6886   5.098   5.907   1.828
 2823W        W 6887   8.428   4.245  10.335
 2824W        W 6888   6.985   9.402   1.958
 2825W        W 6889   2.254   6.481   3.502
 2826W        W 6890   5.250   1.397  11.178
 2827W        W 6891   7.413   4.195   0.494
 2828W        W 6892   0.327   8.887   2.684
 2829W        W 6893   2.452   0.260   1.022
 2830W        W 6894   7.871   1.363   2.579
 2831W        W 6895   8.206   6.004   2.207
 2832W        W 6896  10.218   8.880  10.272
 2833W        W 6897   1.374   8.816  10.906
 2834W        W 6898   4.255   1.250  10.969
 2835W        W 6899   1.879   8.439   1.215
 2836W        W 6900   3.910   8.807   9.475
 2837W        W 6901   5.232   2.357   3.692
 2838W        W 6902   0.830   9.025   1.145
 2839W        W 6903   7.404   1.818   1.857
 2840W        W 6904   7.649   9.527   8.752
 2841W        W 6905   5.967   0.472   8.633
 2842W        W 6906   8.030   3.828  11.469
 2843W        W 6907   1.316   4.461  10.952
 2844W        W 6908   0.418   4.974   0.683
 2845W        W 6909   8.906   5.797   0.064
 2846W        W 6910   6.981   1.330   8.981
 2847W        W 6911   7.797   9.860  11.165
 2848W        W 6912   6.860   8.541   0.405
 2849W        W 6913   5.158   0.837   9.969
 2850W        W 6914   5.599   5.021  10.339
 2851W        W 6915   3.595   8.586   9.977
 2852W        W 6916   8.784  10.373   1.673
 2853W        W 6917   2.570   3.570   0.328
 2854W        W 6918   8.476   1.468   9.549
 2855W        W 6919   5.037   5.697  10.914
 2856W        W 6920   8.589   9.104   1.006
 2857W        W 6921   3.356   2.648  11.696
 2858W        W 6922   0.116   7.415   2.404
 2859W        W 6923   5.685   2.154  10.420
 2860W        W 6924   5.882   6.068   9.028
 2861W        W 6925   9.474   6.641   9.717
 2862W        W 6926   1.157   4.702   9.941
 2863W        W 6927   9.382   2.296   2.517
 2864W        W 6928   4.679   4.630   8.898
 2865W        W 6929   4.209   2.754   2.673
 2866W        W 6930   3.120   5.319   1.396
 2867W        W 6931   0.902   7.014   2.236
 2868W        W 6932   8.414   0.268   0.244
 2869W        W 6933   1.744   1.240  10.740
 2870W        W 6934  10.417   8.104   0.528
 2871W        W 6935   7.201  10.010   9.721
 2872W        W 6936   3.561   2.862  10.527
 2873W        W 6937   4.138   4.779   4.162
 2874W        W 6938   3.934  10.317  10.343
 2875W        W 6939   0.450   9.973   9.325
 2876W        W 6940   6.084  10.422   2.187
 2877W        W 6941   6.549   8.581  10.598
 2878W        W 6942   2.449   0.583   8.982
 2879W        W 6943   5.604   5.992   1.965
 2880W        W 6944   7.592   4.027   1.941
 2881W        W 6945   9.483   8.563  11.815
 2882W        W 6946   1.901   0.328   9.816
 2883W        W 6947   8.859   7.527   1.849
 2884W        W 6948   7.512   4.183   3.340
 2885W        W 6949   3.217   7.871   9.070
 2886W        W 6950   3.704   8.704   0.400
 2887W        W 6951   1.273   2.386   8.684
 2888W        W 6952   1.215   2.422   0.943
 2889W        W 6953   3.760   9.055   9.901
 2890W        W 6954   0.356   3.249   0.301
 2891W        W 6955   4.368   2.629  11.730
 2892W        W 6956   0.256   7.415   9.192
 2893W        W 6957   8.538   7.511  10.617
 2894W        W 6958   5.263   6.176   2.281
 2895W        W 6959  10.393   0.440   0.663
 2896W        W 6960   1.355   1.205   9.962
 2897W        W 6961   7.038   5.691   8.230
 2898W        W 6962   4.209   8.271  11.711
 2899W        W 6963  10.368   5.439   2.167
 2900W        W 6964   4.485   6.557   9.004
 2901W        W 6965   4.225   4.897   9.098
 2902W        W 6966   1.383   8.519   1.261
 2903W        W 6967   3.459   5.367  11.509
 2904W        W 6968   3.242   3.324  10.452
 2905W        W 6969   3.646   4.032   9.918
 2906W        W 6970   1.790   9.872   1.709
 2907W        W 6971   4.024   2.093   9.368
 2908W        W 6972   9.356   7.518  10.107
 2909W        W 6973   7.571   0.584   3.571
 2910W        W 6974   2.043   9.617   2.377
 2911W        W 6975   0.619   5.375   0.977
 2912W        W 6976   0.389   3.321   8.958
 2913W        W 6977   6.599   5.971   8.291
 2914W        W 6978   2.434   1.681  10.792
 2915W        W 6979   9.222   7.531   0.816
 2916W        W 6980   8.961   1.176  11.886
 2917W        W 6981   6.031   4.652   9.545
 2918W        W 6982   3.128   5.684   9.415
 2919W        W 6983   6.737   6.418   0.419
 2920W        W 6984  10.479   0.723   9.080
 2921W        W 6985   5.506   1.798   3.010
 2922W        W 6986   3.788   5.487   9.825
 2923W        W 6987   6.947   9.370   9.505
 2924W        W 6988   5.694   7.471   8.495
 2925W        W 6989   8.455   9.367   1.440
 2926W        W 6990   2.133   8.877  10.552
 2927W        W 6991   1.705   9.391   1.482
 2928W        W 6992   9.894   5.909   3.265
 2929W        W 6993   0.976   9.391   3.301
 2930W        W 6994   6.479   4.212   3.736
 2931W        W 6995   6.515   8.920  10.990
 2932W        W 6996   6.778   3.620   0.853
 2933W        W 6997   1.751   3.568  11.937
 2934W        W 6998   1.508   8.059   1.012
 2935W        W 6999   0.767   5.695   1.954
 2936W        W 7000   1.703   1.763   2.865
 2937W        W 7001   7.222   6.726   9.385
 2938W        W 7002   2.173   5.686  11.383
 2939W        W 7003   4.773   9.948  10.784
 2940W        W 7004   7.810   5.097  10.360
 2941W        W 7005   9.762   5.028   0.433
 2942W        W 7006   3.410   8.827   9.544
 2943W        W 7007  10.410   8.859  11.731
 2944W        W 7008   6.425   5.596   9.924
 2945W        W 7009   1.151   4.044   2.828
 2946W        W 7010   9.479   9.133   1.817
 2947W        W 7011   1.859  10.247   9.239
 2948W        W 7012   8.364   4.657  11.946
 2949W        W 7013   4.057  10.463   0.159
 2950W        W 7014   2.568   1.622   1.817
 2951W        W 7015   0.304   9.095   9.830
 2952W        W 7016   8.492   1.218   0.072
 2953W        W 7017   5.066  10.387   0.905
 2954W        W 7018   7.454   0.325   9.849
 2955W        W 7019   6.042   9.536   2.989
 2956W        W 7020   8.787   4.521  11.007
 2957W        W 7021   8.507   4.706  10.050
 2958W        W 7022   0.974   2.614   0.055
 2959W        W 7023   6.682   2.411   1.317
 2960W        W 7024   3.839   2.212   0.060
 2961W        W 7025   7.057   4.642   2.435
 2962W        W 7026   6.004   6.158  10.868
 2963W        W 7027   2.468   3.036   3.316
 2964W        W 7028   6.650   7.288   9.107
 2965W        W 7029  10.260   8.779   0.699
 2966W        W 7030   4.119   0.012  11.318
 2967W        W 7031   2.643  10.428   0.678
 2968W        W 7032   7.937   6.324   8.606
 2969W        W 7033   2.716   9.035   2.719
 2970W        W 7034   0.712   2.194   9.512
 2971W        W 7035   5.998   3.757   1.818
 2972W        W 7036   2.142   2.872  10.407
 2973W        W 7037   7.636   6.006   7.833
 2974W        W 7038  10.430   3.882   3.256
 2975W        W 7039   1.364   1.198  11.050
 2976W        W 7040   2.620   8.383  11.740
 2977W        W 7041   2.880   4.164   2.348
 2978W        W 7042   1.370   7.190   2.298
 2979W        W 7043   9.408   4.279   9.041
 2980W        W 7044   9.020   7.108   8.581
 2981W        W 7045   9.932   5.733   0.946
 2982W        W 7046   7.540   6.791   2.421
 2983W        W 7047   7.081   5.256   7.946
 2984W        W 7048   4.095   3.646   9.355
 2985W        W 7049   2.177   7.946   2.990
 2986W        W 7050   8.563   0.204   8.877
 2987W        W 7051   0.304   8.420   2.220
 2988W        W 7052   9.600   8.091  11.419
 2989W        W 7053   2.819   9.547  10.334
 2990W        W 7054   3.856   2.671  11.769
 2991W        W 7055   8.871   7.304   2.701
 2992W        W 7056   2.347   2.547   0.187
 2993W        W 7057   8.307   8.771   3.241
 2994W        W 7058   1.785   3.307  10.542
 2995W        W 7059  10.380   0.593  10.989
 2996W        W 7060   1.138   0.688  10.006
 2997W        W 7061   9.430   1.306  11.317
 2998W        W 7062   9.515   6.084   9.475
 2999W        W 7063   6.122   4.241   1.713
 3000W        W 7064   5.430   7.069   8.207
 3001W        W 7065   5.585   9.335   2.830
 3002W        W 7066   0.903   8.161   1.694
 3003W        W 7067   4.633   7.518   0.824
 3004W        W 7068   4.129   3.802  10.381
 3005W        W 7069   0.264   0.725   0.448
 3006W        W 7070   3.671   7.467   1.367
 3007W        W 7071   3.892   5.209   8.089
 3008W        W 7072   1.247   8.541   1.765
 3009W        W 7073   4.767   2.243   1.725
 3010W        W 7074   6.524   2.225  10.976
 3011W        W 7075   8.961   8.206   2.469
 3012W        W 7076   9.113   3.716   3.433
 3013W        W 7077  10.416   3.796   9.322
 3014W        W 7078   6.606   8.182   0.770
 3015W        W 7079   8.872   9.491   0.271
 3016W        W 7080   5.664   8.412   9.007
 3017W        W 7081   2.231   3.753   9.287
 3018W        W 7082   9.129   6.515  10.066
 3019W        W 7083   3.352   3.160   9.582
 3020W        W 7084   5.268   1.801   9.350
 3021W        W 7085   3.977   8.023  10.743
 3022W        W 7086   6.926   4.246  10.867
 3023W        W 7087   0.877   8.025   3.345
 3024W        W 7088   8.322   9.737  10.407
 3025W        W 7089   4.981   7.099  10.430
 3026W        W 7090   0.961   0.927   0.016
 3027W        W 7091   0.885  10.444   9.081
 3028W        W 7092   7.806   4.020   8.985
 3029W        W 7093   3.712   5.474   3.957
 3030W        W 7094   6.528   2.640  11.403
 3031W        W 7095   8.692   7.628   3.592
 3032W        W 7096   6.928   1.780   0.221
 3033W        W 7097   1.243   3.961  10.921
 3034W        W 7098   4.034   3.019   8.515
 3035W        W 7099  10.393   9.737   1.905
 3036W        W 7100   3.058   2.625   0.096
 3037W        W 7101   0.377   1.024   3.604
 3038W        W 7102   0.052   2.642   2.806
 3039W        W 7103   7.591   2.252   2.208
 3040W        W 7104   1.268   8.097   3.024
 3041W        W 7105   9.449   7.336  11.100
 3042W        W 7106   1.752   4.359   3.507
 3043W        W 7107   3.125   1.843   2.465
 3044W        W 7108   4.401   2.004  11.402
 3045W        W 7109   4.511   1.277   8.915
 3046W        W 7110   2.199   0.681   0.901
 3047W        W 7111   9.959   5.853  10.082
 3048W        W 7112   9.372   3.794   9.351
 3049W        W 7113   3.448   4.320   3.144
 3050W        W 7114   6.644   1.124   3.144
 3051W        W 7115   9.332   1.984   9.354
 3052W        W 7116   5.652   0.327   0.478
 3053W        W 7117   8.383   7.353   0.346
 3054W        W 7118   3.667   4.629   3.926
 3055W        W 7119   0.826   6.167   1.777
 3056W        W 7120   0.221   5.574   8.745
 3057W        W 7121   9.025   6.229   0.375
 3058W        W 7122   8.728   3.536  10.234
 3059W        W 7123   8.576   6.936  11.264
 3060W        W 7124   9.871   6.610  11.941
 3061W        W 7125   3.814   4.634   2.930
 3062W        W 7126   4.949   9.021   0.360
 3063W        W 7127   6.712  10.045   9.870
 3064W        W 7128   6.189   5.912   8.643
 3065W        W 7129   8.994   7.468   1.351
 3066W        W 7130   5.567   7.950   0.804
 3067W        W 7131   5.311   3.103  10.402
 3068W        W 7132   5.956   1.390   0.700
 3069W        W 7133   5.785   3.640   0.944
 3070W        W 7134   1.386   6.353   0.438
 3071W        W 7135   3.643   3.109  11.576
 3072W        W 7136   0.565   6.394   2.910
 3073W        W 7137   4.630   6.993   0.933
 3074W        W 7138   0.831   6.900  11.849
 3075W        W 7139   9.437   3.793   0.949
 3076W        W 7140   7.524   1.168   2.930
 3077W        W 7141   7.023   2.147   1.031
 3078W        W 7142   8.907   4.029  10.991
 3079W        W 7143   3.550   7.555   8.764
 3080W        W 7144   3.253   0.741   9.289
 3081W        W 7145   3.683   4.166   1.080
 3082W        W 7146  10.340   7.460   1.718
 3083W        W 7147   6.055   9.937   1.318
 3084W        W 7148  10.444  10.319   9.084
 3085W        W 7149   8.615   8.080   0.587
 3086W        W 7150   7.580   7.570   1.010
 3087W        W 7151   5.264   7.474   8.795
 3088W        W 7152   2.188   1.401   2.226
 3089W        W 7153   6.455   4.060  10.768
 3090W        W 7154   9.928   8.427  10.405
 3091W        W 7155   1.611   4.281   2.734
 3092W        W 7156   2.384   8.141   1.896
 3093W        W 7157   8.367   3.130  11.811
 3094W        W 7158   6.727  10.232  11.950
 3095W        W 7159   9.921   3.524  10.025
 3096W        W 7160   5.252   4.531   1.277
 3097W        W 7161   3.025   1.804   3.569
 3098W        W 7162   0.952   4.213   8.546
 3099W        W 7163   7.175   8.062   3.548
 3100W        W 7164   6.838   8.336   3.200
 3101W        W 7165   5.544   6.378  10.719
 3102W        W 7166   2.111   8.953   3.219
 3103W        W 7167   6.055   8.536   1.386
 3104W        W 7168   1.861   4.537  11.989
 3105W        W 7169   9.955   0.387   9.732
 3106W        W 7170   6.109   8.156   2.800
 3107W        W 7171   3.886   5.944   4.090
 3108W        W 7172   5.055   5.132   9.603
 3109W        W 7173   7.002   9.008  10.784
 3110W        W 7174   8.908   1.711  10.093
 3111W        W 7175   7.321   0.957   1.567
 3112W        W 7176   9.861   4.785   9.051
 3113W        W 7177   2.858   2.734   3.234
 3114W        W 7178   7.894   2.468  10.057
 3115W        W 7179   4.695   1.072  10.711
 3116W        W 7180   7.134   5.710  10.516
 3117W        W 7181   2.727   3.115   2.467
 3118W        W 7182   6.014   5.241   9.910
 3119W        W 7183   1.338   6.689   2.509
 3120W        W 7184   7.801   5.203   3.223
 3121W        W 7185   9.755   1.725   9.481
 3122W        W 7186   6.527   3.147  11.219
 3123W        W 7187   7.020   0.927   3.470
 3124W        W 7188   5.985   0.032   0.239
 3125W        W 7189   7.422   8.528   0.380
 3126W        W 7190   8.459   4.815   8.947
 3127W        W 7191   8.609   5.751   1.274
 3128W        W 7192   8.930   6.456   2.451
 3129W        W 7193   7.478   2.670   2.487
 3130W        W 7194   3.730   5.106  11.135
 3131W        W 7195   3.006   9.389  10.801
 3132W        W 7196   4.040   0.431   9.229
 3133W        W 7197   4.010   1.843   2.295
 3134W        W 7198   8.143   0.536   1.952
 3135W        W 7199   8.143   5.554  10.294
 3136W        W 7200   3.792  10.358   3.222
 3137W        W 7201   5.126   9.029   9.435
 3138W        W 7202   0.175   3.097  11.540
 3139W        W 7203   8.829   5.066  10.891
 3140W        W 7204   0.889   9.982   0.673
 3141W        W 7205   5.449   5.130   3.182
 3142W        W 7206   7.811   0.858   9.203
 3143W        W 7207   9.559   1.199   9.785
 3144W        W 7208   2.278   4.348   9.075
 3145W        W 7209   9.301   8.049  11.859
 3146W        W 7210   5.137   9.959   3.038
 3147W        W 7211   5.583   5.358  10.745
 3148W        W 7212   2.258   6.590   2.539
 3149W        W 7213   5.688   2.145  11.486
 3150W        W 7214   5.924   1.395   9.099
 3151W        W 7215   7.680   5.178   8.440
 3152W        W 7216   9.866   0.237   3.391
 3153W        W 7217   0.492   4.218   8.773
 3154W        W 7218  10.378   2.324  10.369
 3155W        W 7219   4.816   6.927   3.008
 3156W        W 7220   9.436   1.004  10.895
 3157W        W 7221   9.912   9.354   1.937
 3158W        W 7222   3.674   2.641   8.710
 3159W        W 7223   7.905   6.812   8.771
 3160W        W 7224   4.667   5.263  11.295
 3161W        W 7225   1.878   7.556  11.655
 3162W        W 7226   4.595   7.292   3.302
 3163W        W 7227   6.233   6.410  11.882
 3164W        W 7228   8.496   5.551   2.207
 3165W        W 7229   0.798   0.320  11.317
 3166W        W 7230   5.175   2.312  11.507
 3167W        W 7231   5.006   8.452   3.494
 3168W        W 7232   2.649   0.818   9.956
 3169W        W 7233   8.750   7.689   2.360
 3170W        W 7234   1.046   1.924   9.903
 3171W        W 7235   8.411  10.333   9.203
 3172W        W 7236   6.095   3.778   2.696
 3173W        W 7237   9.846   9.996   2.647
 3174W        W 7238   7.435   9.792   2.959
 3175W        W 7239   6.900   5.206  10.735
 3176W        W 7240   9.448   3.689   3.041
 3177W        W 7241   4.160   7.240  10.394
 3178W        W 7242   8.538   7.847  10.246
 3179W        W 7243   9.340   1.097   3.181
 3180W        W 7244   1.377   2.765   9.964
 3181W        W 7245   2.172   3.975  10.813
 3182W        W 7246   2.216   5.439   0.362
 3183W        W 7247   4.771   2.749   1.455
 3184W        W 7248   6.188   5.573   9.478
 3185W        W 7249   6.924   0.234  11.771
 3186W        W 7250   0.578   6.306   8.510
 3187W        W 7251   1.835   3.417   9.332
 3188W        W 7252   5.131   6.115   9.594
 3189W        W 7253   6.410   5.105  11.308
 3190W        W 7254   2.336   5.550  10.899
 3191W        W 7255   8.691   5.531  10.577
 3192W        W 7256   0.809   7.459  11.042
 3193W        W 7257   4.534   1.749   0.550
 3194W        W 7258   1.947   2.735   1.562
 3195W        W 7259   0.772   5.206   3.251
 3196W        W 7260   8.607   7.574  11.945
 3197W        W 7261   9.700   1.313   3.486
 3198W        W 7262   2.422   9.116   0.288
 3199W        W 7263   6.038   6.555   8.973
 3200W        W 7264   4.696   2.439  11.394
 3201W        W 7265   2.311   9.148  10.952
 3202W        W 7266   9.067   0.251  10.960
 3203W        W 7267   1.038   1.248   0.498
 3204W        W 7268   7.212   6.176   8.086
 3205W        W 7269   0.529   0.276   3.246
 3206W        W 7270   9.131   8.403   1.503
 3207W        W 7271   6.995   5.962   3.602
 3208W        W 7272   8.330   7.079  10.228
 3209W        W 7273   1.419   3.530  11.114
 3210W        W 7274   3.726   3.587  11.434
 3211W        W 7275   8.118   1.867   9.517
 3212W        W 7276   1.235   2.363   2.282
 3213W        W 7277   5.244   2.408   1.636
 3214W        W 7278   1.258   1.976   2.654
 3215W        W 7279   8.896   9.885   9.765
 3216W        W 7280   9.860  10.457   2.402
 3217W        W 7281   3.412   9.892   0.516
 3218W        W 7282   4.536   5.555  10.878
 3219W        W 7283   3.820   4.381   0.597
 3220W        W 7284   5.311   2.853   0.712
 3221W        W 7285   7.921   7.918   9.024
 3222W        W 7286   0.187   6.446   0.220
 3223W        W 7287   5.219   6.714  10.948
 3224W        W 7288   3.493   5.516   4.417
 3225W        W 7289   7.834   4.416   1.013
 3226W        W 7290   4.743   5.532   3.470
 3227W        W 7291   9.823   3.628   2.211
 3228W        W 7292   7.999   1.315  11.362
 3229W        W 7293   2.177   5.221   2.513
 3230W        W 7294   5.791   0.351   0.968
 3231W        W 7295   0.226   9.071   3.196
 3232W        W 7296   0.923   8.261   9.348
 3233W        W 7297   3.846   8.295   2.795
 3234W        W 7298   2.742  10.459   2.713
 3235W        W 7299   8.641   5.031   1.783
 3236W        W 7300   3.572   3.063   0.952
 3237W        W 7301  10.022   0.798   2.697
 3238W        W 7302   6.132   4.338  10.490
 3239W        W 7303   8.459   4.124   3.253
 3240W        W 7304   0.017  10.401   8.559
 3241W        W 7305   7.368   3.515   9.494
 3242W        W 7306   9.273   8.080   1.135
 3243W        W 7307   5.557   5.232   8.966
 3244W        W 7308   4.181   8.522  10.711
 3245W        W 7309   1.942   0.241   0.775
 3246W        W 7310   0.997   0.797   2.708
 3247W        W 7311   2.690   0.241   8.687
 3248W        W 7312   8.425   9.072   9.771
 3249W        W 7313   9.935   7.554   0.261
 3250W        W 7314  10.302   9.340  11.726
 3251W        W 7315   0.246   4.719   9.038
 3252W        W 7316   3.770   9.431   1.140
 3253W        W 7317   4.717  10.333  11.106
 3254W        W 7318   2.701   6.007   1.056
 3255W        W 7319   2.426   0.375   0.525
 3256W        W 7320   9.354   0.861  10.387
 3257W        W 7321   5.992   9.535  11.507
 3258W        W 7322   0.737   1.462  10.781
 3259W        W 7323   6.895   7.215  10.438
 3260W        W 7324   6.155   7.497   9.817
 3261W        W 7325  10.066   1.785   0.782
 3262W        W 7326   6.229   3.946   9.256
 3263W        W 7327   8.521   6.679   9.853
 3264W        W 7328   2.215   0.500   2.307
 3265W        W 7329   4.075   8.415   3.266
 3266W        W 7330   4.154   5.619   3.721
 3267W        W 7331   1.335   3.269   9.274
 3268W        W 7332   8.960   3.220   2.833
 3269W        W 7333   9.180   2.275  11.303
 3270W        W 7334   8.983   5.461   1.500
 3271W        W 7335   6.217   4.472  11.030
 3272W        W 7336   0.423   3.227  10.809
 3273W        W 7337   5.635   6.152   3.826
 3274W        W 7338   1.709   8.935   2.808
 3275W        W 7339   8.008   5.582   2.902
 3276W        W 7340   5.661   1.207  11.445
 3277W        W 7341   2.902   5.455   2.467
 3278W        W 7342   0.496  10.229   2.436
 3279W        W 7343   1.914   8.408   9.104
 3280W        W 7344   3.113   6.150  10.980
 3281W        W 7345   3.256   5.328   9.776
 3282W        W 7346   7.826   3.656   1.611
 3283W        W 7347   6.777  10.078   0.803
 3284W        W 7348   1.173   0.505  10.521
 3285W        W 7349   0.242  10.092  10.067
 3286W        W 7350   0.950  10.392   2.732
 3287W        W 7351   3.309   8.945  10.811
 3288W        W 7352   8.109   8.929   8.934
 3289W        W 7353  10.361   8.359  11.752
 3290W        W 7354   2.155   2.763  11.377
 3291W        W 7355   6.378   0.897   1.251
 3292W        W 7356   0.772   9.463   1.407
 3293W        W 7357   6.639   8.211   8.771
 3294W        W 7358   7.519   8.666   9.742
 3295W        W 7359   6.241  10.109   0.013
 3296W        W 7360   9.543   1.944   0.985
 3297W        W 7361   0.855   6.509   1.387
 3298W        W 7362  10.372   2.414  10.863
 3299W        W 7363   6.945  10.365   2.223
 3300W        W 7364   1.870   2.355   1.912
 3301W        W 7365   1.983   4.599   9.905
 3302W        W 7366   5.168   9.450   3.178
 3303W        W 7367   5.436   0.942   3.572
 3304W        W 7368   8.939   3.233   9.836
 3305W        W 7369  10.191   4.905   0.215
 3306W        W 7370   3.874   7.791   2.733
 3307W        W 7371   3.832   8.229   0.444
 3308W        W 7372   8.712   9.938   9.308
 3309W        W 7373   4.611   6.877   1.427
 3310W        W 7374   3.801   5.935  10.507
 3311W        W 7375   9.283   4.430  11.021
 3312W        W 7376   8.359   7.585   9.863
 3313W        W 7377   9.883   4.614   1.282
 3314W        W 7378   9.480   7.634   1.256
 3315W        W 7379   3.178   4.019   0.868
 3316W        W 7380   2.895   4.389   0.546
 3317W        W 7381   0.482   2.809  11.122
 3318W        W 7382   8.812   2.588  11.586
 3319W        W 7383   8.165   6.014   0.189
 3320W        W 7384   3.401   0.282  11.689
 3321W        W 7385   6.461   7.950   1.247
 3322W        W 7386   0.792   3.498   1.528
 3323W        W 7387   9.510   6.662  11.174
 3324W        W 7388   6.488   5.688   0.633
 3325W        W 7389   7.446   9.822   0.052
 3326W        W 7390   4.290   0.849   2.050
 3327W        W 7391   3.680   2.297  11.032
 3328W        W 7392   7.810   4.823   0.646
 3329W        W 7393  10.325   1.334   0.795
 3330W        W 7394   4.624   3.216   1.316
 3331W        W 7395   8.152   0.839   8.827
 3332W        W 7396   2.032   1.774   3.488
 3333W        W 7397   5.942   4.053  10.911
 3334W        W 7398   4.092   8.518   8.677
 3335W        W 7399   8.782   4.294  11.889
 3336W        W 7400   6.018   5.116   8.762
 3337W        W 7401   1.523   9.459   2.602
 3338W        W 7402   2.216   8.920   2.717
 3339W        W 7403   8.042   8.414  10.213
 3340W        W 7404   1.038   0.267   3.117
 3341W        W 7405   7.307   3.999   9.987
 3342W        W 7406   1.702   2.127   3.240
 3343W        W 7407   0.915   5.281   9.297
 3344W        W 7408   8.154   5.065   1.619
 3345W        W 7409   2.558   9.923   3.333
 3346W        W 7410   5.455   4.826  11.830
 3347W        W 7411  10.312   9.847   3.265
 3348W        W 7412  10.465   6.127   1.490
 3349W        W 7413   4.255   7.495   2.553
 3350W        W 7414   6.619   9.761   2.128
 3351W        W 7415  10.415   1.425  11.885
 3352W        W 7416   8.979   7.049   1.685
 3353W        W 7417   0.257   9.455   1.473
 3354W        W 7418   7.868   3.589   2.125
 3355W        W 7419   2.967   5.113  11.998
 3356W        W 7420   5.509   6.553   8.904
 3357W        W 7421   6.028   2.223   8.757
 3358W        W 7422   3.872   7.111   8.611
 3359W        W 7423   3.824   8.903  10.749
 3360W        W 7424   8.119   8.974   0.877
 3361W        W 7425   5.207   2.664  10.099
 3362W        W 7426   0.984   9.484  10.565
 3363W        W 7427   3.145   1.368  11.796
 3364W        W 7428   7.516   5.550   8.105
 3365W        W 7429   6.739  10.468  10.154
 3366W        W 7430   6.732   5.017   2.279
 3367W        W 7431   0.307   0.287   2.478
 3368W        W 7432   6.896   9.422  11.051
 3369W        W 7433   5.992   8.963   2.224
 3370W        W 7434  10.052   4.308   9.204
 3371W        W 7435   9.166   6.463   2.907
 3372W        W 7436   7.120   1.911  10.464
 3373W        W 7437   5.952   5.127  11.027
 3374W        W 7438   2.686   5.523   1.227
 3375W        W 7439   6.940   2.516  11.066
 3376W        W 7440   9.508   1.163   1.812
 3377W        W 7441   1.766   0.340  10.878
 3378W        W 7442   4.947  10.071  11.597
 3379W        W 7443   6.471   3.094   9.813
 3380W        W 7444   1.194   3.958   0.575
 3381W        W 7445   0.445   6.247   1.155
 3382W        W 7446   5.144   5.736   0.746
 3383W        W 7447   2.581   8.630  10.487
 3384W        W 7448   9.554   9.531   2.847
 3385W        W 7449   1.327   7.039  11.952
 3386W        W 7450   2.239   8.085   8.778
 3387W        W 7451   6.437   8.853   1.956
 3388W        W 7452   9.349   8.659   0.566
 3389W        W 7453  10.351   5.041   2.917
 3390W        W 7454   4.682   7.772   3.202
 3391W        W 7455   7.555   8.070  11.433
 3392W        W 7456   4.709   7.055  11.956
 3393W        W 7457   3.349   2.172   0.141
 3394W        W 7458   4.663   9.408   2.451
 3395W        W 7459   4.976   9.065   0.901
 3396W        W 7460   1.107  10.480   1.837
 3397W        W 7461   6.328   9.288  11.803
 3398W        W 7462   4.590   0.815   8.151
 3399W        W 7463   8.106   6.721  11.041
 3400W        W 7464  10.372   2.325   3.481
 3401W        W 7465   8.729   8.073   8.814
 3402W        W 7466   4.672   3.628  10.626
 3403W        W 7467   7.226   4.733   9.014
 3404W        W 7468   4.142   8.146   1.148
 3405W        W 7469   3.531   5.601   1.470
 3406W        W 7470   8.465   2.169   2.785
 3407W        W 7471  10.338   1.816   3.390
 3408W        W 7472   6.517   6.129  10.431
 3409W        W 7473   9.013   2.380   3.339
 3410W        W 7474   4.246   4.913   0.481
 3411W        W 7475   5.061   7.614  11.553
 3412W        W 7476   8.875   0.631  11.236
 3413W        W 7477   5.123   0.500   3.550
 3414W        W 7478   2.045   8.883   9.310
 3415W        W 7479   5.562   1.418   2.539
 3416W        W 7480   5.054   4.306   1.686
 3417W        W 7481   7.141  10.426   3.660
 3418W        W 7482   9.399   4.538  11.647
 3419W        W 7483   4.603   1.501   1.011
 3420W        W 7484   6.594  10.371  10.618
 3421W        W 7485   6.495   3.533   9.479
 3422W        W 7486   6.100   5.105   0.410
 3423W        W 7487   2.872   1.295   3.580
 3424W        W 7488   4.463   8.611  10.293
 3425W        W 7489   3.491   1.903   3.402
 3426W        W 7490   5.745   5.566   3.200
 3427W        W 7491   7.045   7.361  11.151
 3428W        W 7492   7.398   3.390   0.283
 3429W        W 7493   3.680   5.981   1.144
 3430W        W 7494   6.299   6.418   8.546
 3431W        W 7495   5.379   1.726   2.154
 3432W        W 7496   4.751   2.175   2.247
 3433W        W 7497   1.059   7.872   0.773
 3434W        W 7498   7.186   8.387   2.255
 3435W        W 7499   5.894   5.627   1.707
 3436W        W 7500   7.968   0.917   3.361
 3437W        W 7501   5.438   4.322   8.945
 3438W        W 7502   7.727   6.419   1.404
 3439W        W 7503   6.063   6.005   3.266
 3440W        W 7504  10.179   3.181  11.451
 3441W        W 7505   9.895   7.045   1.333
 3442W        W 7506   8.033   6.685  10.029
 3443W        W 7507   9.845   1.869  11.419
 3444W        W 7508   6.418   5.147   0.002
 3445W        W 7509   9.418   5.430  11.770
 3446W        W 7510   4.070   0.436   2.784
 3447W        W 7511  10.303   4.419   0.208
 3448W        W 7512   1.802   2.154   9.266
 3449W        W 7513   0.263   0.420  11.702
 3450W        W 7514   1.308   1.386   0.996
 3451W        W 7515  10.348   5.198  10.915
 3452W        W 7516   4.373   2.596   1.144
 3453W        W 7517   1.741   8.430  10.023
 3454W        W 7518   4.792   4.520   1.008
 3455W        W 7519   1.259   6.767  11.534
 3456W        W 7520   3.265   7.386   3.162
 3457W        W 7521   1.262   1.397  10.555
 3458W        W 7522   1.409  10.381  10.817
 3459W        W 7523   0.421   3.766   0.394
 3460W        W 7524   3.511   8.123   8.426
 3461W        W 7525   2.518   1.230  11.396
 3462W        W 7526   5.113   4.604   2.107
 3463W        W 7527   2.858   9.360   0.256
 3464W        W 7528   3.917   1.876  11.239
 3465W        W 7529   9.354   4.733   8.776
 3466W        W 7530   2.879   8.464   9.337
 3467W        W 7531  10.281   5.196   1.248
 3468W        W 7532   6.078   0.935  11.443
 3469W        W 7533  10.369   7.730  10.864
 3470W        W 7534   3.222   0.350  10.272
 3471W        W 7535   4.721   0.460   0.502
 3472W        W 7536   6.917   5.716  10.056
 3473W        W 7537   7.211   9.029  11.693
 3474W        W 7538   6.519   7.782   1.728
 3475W        W 7539   1.600   9.431   9.640
 3476W        W 7540   4.290   6.115   2.442
 3477W        W 7541   8.561   6.792   2.477
 3478W        W 7542   5.188   0.348   0.705
 3479W        W 7543   8.517   0.406   9.933
 3480W        W 7544   1.426   7.244  11.449
 3481W        W 7545   9.961   7.000   9.066
 3482W        W 7546   7.133   7.375   8.640
 3483W        W 7547   4.117   9.376   8.746
 3484W        W 7548   2.608   6.663   1.832
 3485W        W 7549   6.199   2.319  11.774
 3486W        W 7550   5.001   3.339   1.796
 3487W        W 7551   9.327   6.638   0.496
 3488W        W 7552   8.880   2.834   1.921
 3489W        W 7553  10.268   7.429   8.996
 3490W        W 7554   4.889   6.358   8.196
 3491W        W 7555   9.816   5.718   2.805
 3492W        W 7556   7.949   1.419   3.106
 3493W        W 7557   5.536   6.108   8.643
 3494W        W 7558   0.293   8.119   9.822
 3495W        W 7559   1.011   2.697   1.916
 3496W        W 7560   8.425   8.555   1.807
 3497W        W 7561   6.819   6.428   8.430
 3498W        W 7562   1.059   2.605   1.406
 3499W        W 7563   7.412   0.015  11.396
 3500W        W 7564   9.544   2.018  10.826
 3501W        W 7565   8.371   5.210   9.975
 3502W        W 7566   2.062   7.413  10.630
 3503W        W 7567   0.257   2.737  10.658
 3504W        W 7568   5.741   3.881   0.093
 3505W        W 7569   2.827   7.870   0.450
 3506W        W 7570   7.469   0.495   8.990
 3507W        W 7571   3.173   1.506   3.181
 3508W        W 7572   2.399   0.625  11.836
 3509W        W 7573   4.691   6.380  10.267
 3510W        W 7574   2.104  10.353   1.854
 3511W        W 7575   3.321   5.073   8.783
 3512W        W 7576   9.117   8.663   2.801
 3513W        W 7577   8.434   7.416   9.400
 3514W        W 7578   4.258   0.788   8.941
 3515W        W 7579  10.463   9.792   9.317
 3516W        W 7580   1.336   8.894   9.972
 3517W        W 7581   7.402   3.554   1.903
 3518W        W 7582   1.659   5.719   9.218
 3519W        W 7583   5.632   2.201   0.925
 3520W        W 7584   6.836   9.116   0.604
 3521W        W 7585   6.057   7.481   0.788
 3522W        W 7586   4.189   2.229   0.451
 3523W        W 7587   5.156   5.158  10.561
 3524W        W 7588   9.657  10.401   1.424
 3525W        W 7589   4.053   1.211   9.128
 3526W        W 7590   0.461   1.838   9.130
 3527W        W 7591   3.043   7.417   8.832
 3528W        W 7592   1.458   7.617   1.833
 3529W        W 7593   6.493   4.130   8.006
 3530W        W 7594   7.652   5.918   1.388
 3531W        W 7595   6.894   2.186   0.531
 3532W        W 7596   8.432   4.645   1.482
 3533W        W 7597   9.010   3.649   0.677
 3534W        W 7598   3.289   6.971  11.294
 3535W        W 7599   7.401   7.053  11.328
 3536W        W 7600   5.542   1.251   2.041
 3537W        W 7601  10.415   8.737   2.204
 3538W        W 7602  10.255   1.517  10.704
 3539W        W 7603   0.342   8.860   1.204
 3540W        W 7604   2.910   1.158   1.955
 3541W        W 7605   2.623   3.599   1.644
 3542W        W 7606   3.156   5.775   1.139
 3543W        W 7607   8.438   8.401   0.235
 3544W        W 7608   0.348   0.521  11.182
 3545W        W 7609   9.854   3.751   2.715
 3546W        W 7610   2.359   8.634  10.965
 3547W        W 7611   0.347   6.751  11.709
 3548W        W 7612  10.413   7.058   1.392
 3549W        W 7613   4.116   6.130   3.655
 3550W        W 7614   3.884  10.428   2.706
 3551W        W 7615  10.034  10.456  11.496
 3552W        W 7616   6.032   9.088   2.715
 3553W        W 7617   0.019   9.920   0.388
 3554W        W 7618   8.568   1.895  11.201
 3555W        W 7619   9.112   6.497   0.964
 3556W        W 7620  10.449   5.664  10.119
 3557W        W 7621   4.531   6.434   0.698
 3558W        W 7622   8.140   4.873  11.495
 3559W        W 7623   9.547   5.025  11.477
 3560W        W 7624   9.466   3.573   0.456
 3561W        W 7625   7.534   6.045   3.468
 3562W        W 7626  10.393   1.156   9.362
 3563W        W 7627  10.473   4.777  11.791
 3564W        W 7628   5.325   9.492   3.670
 3565W        W 7629   8.370   9.859   3.127
 3566W        W 7630   5.050   9.522   9.755
 3567W        W 7631   4.692   8.397   2.575
 3568W        W 7632   5.836   4.021   9.601
 3569W        W 7633   6.492   6.195   3.519
 3570W        W 7634   8.640   8.569   2.684
 3571W        W 7635   1.688   6.519  11.563
 3572W        W 7636   5.500   7.830   1.365
 3573W        W 7637   8.865  10.318   3.484
 3574W        W 7638   0.878   3.187   1.951
 3575W        W 7639   2.863  10.310   3.180
 3576W        W 7640  10.338   9.071   2.842
 3577W        W 7641   4.243   3.179   0.376
 3578W        W 7642   5.433   9.899  11.529
 3579W        W 7643   9.774   0.404   8.712
 3580W        W 7644   6.881   0.096   0.262
 3581W        W 7645   3.721   4.645   3.425
 3582W        W 7646   8.583   6.887   9.389
 3583W        W 7647   7.545   6.099   8.851
 3584W        W 7648   8.815   0.058   0.428
 3585W        W 7649   4.433   5.933   3.300
 3586W        W 7650   2.065   5.213  11.197
 3587W        W 7651   7.666   4.115   1.440
 3588W        W 7652   1.592   1.301   1.438
 3589W        W 7653   7.665   8.524   2.354
 3590W        W 7654   6.886   5.105   8.853
 3591W        W 7655   1.798   6.028   1.252
 3592W        W 7656   0.973   2.829  11.107
 3593W        W 7657   5.913   5.145   2.936
 3594W        W 7658   5.500  10.406   8.921
 3595W        W 7659   2.175   3.350  10.206
 3596W        W 7660   9.708   0.323   2.906
 3597W        W 7661   6.140   8.486   2.404
 3598W        W 7662   2.249   1.686   3.021
 3599W        W 7663   6.013   7.958   9.585
 3600W        W 7664   7.641   3.133   2.274
 3601W        W 7665   7.434  10.078   3.414
 3602W        W 7666   4.495   3.612   0.529
 3603W        W 7667   3.848   6.686  10.940
 3604W        W 7668   6.945   1.251   2.698
 3605W        W 7669   1.478   8.314  10.831
 3606W        W 7670   8.267   9.900  11.388
 3607W        W 7671  10.410   0.272  11.375
 3608W        W 7672   9.355   9.151   9.043
 3609W        W 7673   6.451   2.600   9.542
 3610W        W 7674   3.619   1.272   8.866
 3611W        W 7675   5.961   9.020   0.678
 3612W        W 7676   9.333   9.888  11.305
 3613W        W 7677   4.201   6.618   3.746
 3614W        W 7678   4.578   9.112   8.655
 3615W        W 7679   0.093   1.877   2.573
 3616W        W 7680   7.173   9.708   8.877
 3617W        W 7681   6.686   4.478  11.259
 3618W        W 7682   0.919   6.583  10.556
 3619W        W 7683   9.002   4.273  11.425
 3620W        W 7684   6.531   7.679   0.832
 3621W        W 7685   9.749   2.675   2.506
 3622W        W 7686   8.094  10.417   2.762
 3623W        W 7687  10.032   0.077   8.416
 3624W        W 7688   6.410   9.272   2.284
 3625W        W 7689   4.124   4.274   8.549
 3626W        W 7690   1.134   6.445   2.092
 3627W        W 7691   1.986   8.955   1.369
 3628W        W 7692   4.225   7.026   8.981
 3629W        W 7693   2.124   0.771   1.870
 3630W        W 7694   9.967   0.823   9.005
 3631W        W 7695   6.975   4.996   3.423
 3632W        W 7696   5.242   5.295   0.963
 3633W        W 7697   8.797   9.936  11.293
 3634W        W 7698   8.604   5.687  10.040
 3635W        W 7699   4.711   0.827   9.180
 3636W        W 7700   4.293   9.482   0.372
 3637W        W 7701   0.359   9.464   9.098
 3638W        W 7702   5.663   8.293   1.683
 3639W        W 7703   7.070   4.527   2.943
 3640W        W 7704   4.659   8.113   8.952
 3641W        W 7705   2.128   5.561   1.818
 3642W        W 7706  10.283   3.590   2.462
 3643W        W 7707   5.564   2.257  10.976
 3644W        W 7708   7.439   5.624   8.626
 3645W        W 7709   5.142   3.532   2.279
 3646W        W 7710   0.694   9.436  11.986
 3647W        W 7711   0.890   6.005   8.776
 3648W        W 7712   7.323   8.913   2.377
 3649W        W 7713   3.740   7.953   0.897
 3650W        W 7714   1.815   3.427   2.142
 3651W        W 7715   0.817   0.749   0.499
 3652W        W 7716   6.930   3.455   1.296
 3653W        W 7717   3.846   3.199   0.026
 3654W        W 7718   8.085   7.878   9.503
 3655W        W 7719   4.313   0.147  10.451
 3656W        W 7720   0.961   4.690  11.237
 3657W        W 7721   5.338   6.595   8.009
 3658W        W 7722   3.718   4.838   0.422
 3659W        W 7723   2.866   5.949   1.552
 3660W        W 7724   7.182   8.087   0.296
 3661W        W 7725   3.171   1.369   0.691
 3662W        W 7726   5.019   6.669  11.821
 3663W        W 7727   8.024   1.248   1.397
 3664W        W 7728   7.071   3.597   2.770
 3665W        W 7729   1.181   9.841  10.245
 3666W        W 7730   5.086   0.873   0.467
 3667W        W 7731  10.457   6.649  10.055
 3668W        W 7732   6.073   5.995   0.826
 3669W        W 7733   7.129   0.469   1.536
 3670W        W 7734   4.295  10.436   3.135
 3671W        W 7735   4.032   1.774   0.707
 3672W        W 7736   0.473   9.515  11.496
 3673W        W 7737   6.026   3.637   8.905
 3674W        W 7738   0.517   2.798   1.946
 3675W        W 7739   8.902   7.119  10.701
 3676W        W 7740   9.085   2.163   1.094
 3677W        W 7741   6.834   8.043   2.031
 3678W        W 7742   5.733   7.574  10.950
 3679W        W 7743   0.761   0.527  10.851
 3680W        W 7744   5.542   6.917  11.485
 3681W        W 7745   1.914   9.522   3.284
 3682W        W 7746   5.046   8.778   1.898
 3683W        W 7747   2.298   3.307   1.289
 3684W        W 7748   0.700   0.374   2.766
 3685W        W 7749   1.265   6.970   3.501
 3686W        W 7750   5.214   4.112   3.860
 3687W        W 7751   6.280   3.283   1.790
 3688W        W 7752   8.834   7.609   0.477
 3689W        W 7753   5.884   3.037   3.181
 3690W        W 7754   3.085   9.902   1.387
 3691W        W 7755  10.484   8.410   9.535
 3692W        W 7756   7.476   8.146   8.873
 3693W        W 7757   5.949   4.924  11.919
 3694W        W 7758   1.922   3.423   2.819
 3695W        W 7759   0.837   8.385   2.951
 3696W        W 7760   0.075   7.681  11.688
 3697W        W 7761   4.082   3.381   8.907
 3698W        W 7762   8.386   4.573   9.426
 3699W        W 7763   4.542   2.140   9.353
 3700W        W 7764   2.613   4.279  11.018
 3701W        W 7765   2.862   6.678  10.008
 3702W        W 7766   4.978   2.812   9.094
 3703W        W 7767   8.801   4.804   3.614
 3704W        W 7768   3.282  10.161   0.970
 3705W        W 7769   1.877   2.841   0.363
 3706W        W 7770   7.396  10.170  10.999
 3707W        W 7771  10.108   7.819   0.889
 3708W        W 7772   1.482   4.135  11.369
 3709W        W 7773   6.852   5.528   2.390
 3710W        W 7774   9.469   6.331   0.120
 3711W        W 7775   2.322   1.350   3.479
 3712W        W 7776   2.243   2.207  10.023
 3713W        W 7777   8.562   4.554  11.477
 3714W        W 7778   8.494   8.093   9.272
 3715W        W 7779   5.010   6.195   8.678
 3716W        W 7780   5.173  10.042   2.495
 3717W        W 7781   1.047   4.246   3.597
 3718W        W 7782   7.474   1.652   2.783
 3719W        W 7783   7.480   4.758   2.698
 3720W        W 7784   0.685   0.860   9.871
 3721W        W 7785   5.063   2.449  11.026
 3722W        W 7786   7.575   2.180   0.237
 3723W        W 7787   1.393   2.429   0.436
 3724W        W 7788   1.259   8.462   9.733
 3725W        W 7789   8.157   0.970  10.003
 3726W        W 7790   5.961   8.652  10.446
 3727W        W 7791   8.907   8.467   0.420
 3728W        W 7792   3.239   2.279   3.610
 3729W        W 7793   0.940   6.046  11.881
 3730W        W 7794  10.142   7.939  11.561
 3731W        W 7795   5.616   3.901   8.638
 3732W        W 7796   6.944   7.537   2.691
 3733W        W 7797   6.849   5.138  11.740
 3734W        W 7798   9.830   6.456   0.448
 3735W        W 7799   0.989   2.603  10.233
 3736W        W 7800   3.640   0.302   3.007
 3737W        W 7801   8.635   9.740   1.137
 3738W        W 7802   6.139   5.996   3.819
 3739W        W 7803   6.681   7.576   2.203
 3740W        W 7804   5.290   4.063   9.448
 3741W        W 7805   9.493   2.273   0.273
 3742W        W 7806   0.502   7.681   0.966
 3743W        W 7807   6.972   1.756   2.813
 3744W        W 7808   8.203   0.110  10.651
 3745W        W 7809   3.746   1.372  10.927
 3746W        W 7810   7.814   3.596   0.034
 3747W        W 7811   4.141   0.861   3.101
 3748W        W 7812   3.623   5.539   9.347
 3749W        W 7813   2.705   6.620   9.019
 3750W        W 7814   8.919   2.997   1.417
 3751W        W 7815   5.498   2.634  10.533
 3752W        W 7816   5.190   3.058   0.225
 3753W        W 7817   4.257   1.641   9.325
 3754W        W 7818   4.315   5.119  10.501
 3755W        W 7819   1.312   7.664   3.321
 3756W        W 7820  10.228   2.998   3.032
 3757W        W 7821   5.733   7.422   9.037
 3758W        W 7822   4.805   7.931   2.758
 3759W        W 7823   3.728   4.186   9.050
 3760W        W 7824   4.793   2.871  11.909
 3761W        W 7825   4.680   5.091   2.043
 3762W        W 7826   1.376   5.308   8.664
 3763W        W 7827   3.822   3.224  11.074
 3764W        W 7828   5.620   4.126   7.981
 3765W        W 7829   1.462   3.090  10.869
 3766W        W 7830   0.047   4.207   9.040
 3767W        W 7831   2.400   8.895   9.681
 3768W        W 7832   9.868   1.405   1.028
 3769W        W 7833   3.152   1.166  10.595
 3770W        W 7834   6.795   0.427   1.137
 3771W        W 7835   7.882   7.443   0.303
 3772W        W 7836   7.957   1.898  10.537
 3773W        W 7837   1.503   7.730  11.367
 3774W        W 7838  10.474  10.312   3.119
 3775W        W 7839   4.170   1.342   2.741
 3776W        W 7840   0.965   4.942   1.740
 3777W        W 7841   5.558   5.673   0.166
 3778W        W 7842   2.764   7.442   1.263
 3779W        W 7843  10.268   1.825  10.295
 3780W        W 7844   1.537   4.478   9.688
 3781W        W 7845   8.633   8.325   1.404
 3782W        W 7846   7.811   0.451  10.567
 3783W        W 7847   5.160   3.622  10.355
 3784W        W 7848   4.998   5.469   9.971
 3785W        W 7849   1.593   5.637   0.971
 3786W        W 7850   1.904   2.905   2.038
 3787W        W 7851  10.203  10.088   2.267
 3788W        W 7852   1.814   4.100   9.915
 3789W        W 7853   6.164   5.549   3.536
 3790W        W 7854   5.558   6.967   1.456
 3791W        W 7855   7.639   5.000   1.684
 3792W        W 7856   5.687   5.593  10.300
 3793W        W 7857   1.906   4.316   2.324
 3794W        W 7858   7.685   3.767   0.513
 3795W        W 7859   3.014   9.045  10.418
 3796W        W 7860   0.048   4.628  10.817
 3797W        W 7861   3.535   9.973   2.301
 3798W        W 7862   3.292   0.454   1.670
 3799W        W 7863   9.785   7.425   8.780
 3800W        W 7864   2.479   4.789   8.906
 3801W        W 7865   0.219   1.355  10.881
 3802W        W 7866   6.937   5.435   0.528
 3803W        W 7867   0.868   9.928   1.183
 3804W        W 7868   6.408   8.855   0.453
 3805W        W 7869   7.163   7.602   9.664
 3806W        W 7870   7.459   3.222  11.299
 3807W        W 7871   9.961   1.857   1.837
 3808W        W 7872   3.079   7.955  11.090
 3809W        W 7873   0.437   7.388   2.837
 3810W        W 7874   4.495   6.424   1.209
 3811W        W 7875   4.993   3.029   9.822
 3812W        W 7876   0.890   3.931   1.243
 3813W        W 7877   1.996   9.551  10.981
 3814W        W 7878   1.165   2.227   1.796
 3815W        W 7879   7.909   2.406  10.560
 3816W        W 7880   5.714   1.608  11.757
 3817W        W 7881   5.588   1.261   3.050
 3818W        W 7882  10.230   7.723   2.226
 3819W        W 7883   9.383   5.443   2.166
 3820W        W 7884   0.891   4.147   0.200
 3821W        W 7885   0.356   7.232  10.139
 3822W        W 7886   4.724   5.052  10.821
 3823W        W 7887  10.358   3.456   9.707
 3824W        W 7888   9.352   2.667   2.174
 3825W        W 7889   4.965   6.468   2.851
 3826W        W 7890   7.449   6.609   8.942
 3827W        W 7891   8.942   5.590   9.645
 3828W        W 7892   7.338   5.222  10.489
 3829W        W 7893   8.371   4.241  10.862
 3830W        W 7894   8.198   1.809  11.570
 3831W        W 7895  10.479   7.096  11.914
 3832W        W 7896   3.273   7.217   2.312
 3833W        W 7897   6.047   0.413   3.304
 3834W        W 7898   9.399   3.378  10.513
 3835W        W 7899   0.797   0.273   9.472
 3836W        W 7900   8.336   9.857   8.974
 3837W        W 7901   5.887   0.426   2.813
 3838W        W 7902   0.361   0.200  10.777
 3839W        W 7903   9.403   9.207  11.173
 3840W        W 7904   2.021   9.394   1.914
 3841W        W 7905   0.861   6.527  10.050
 3842W        W 7906   7.019   5.621  11.025
 3843W        W 7907   2.100   5.253   3.016
 3844W        W 7908   8.669   7.213   8.996
 3845W        W 7909   4.744  10.294   2.431
 3846W        W 7910   7.590   9.975  10.099
 3847W        W 7911   2.375   8.436   3.013
 3848W        W 7912   8.742   2.004   0.351
 3849W        W 7913   0.173   5.612   0.029
 3850W        W 7914   6.418   8.943   1.417
 3851W        W 7915   9.165   5.770  10.508
 3852W        W 7916   7.801   4.118  11.990
 3853W        W 7917   2.378   6.024   1.782
 3854W        W 7918   4.163   1.850   2.802
 3855W        W 7919   6.006   6.708   4.033
 3856W        W 7920   2.109   7.136   9.869
 3857W        W 7921   3.998   7.935   2.248
 3858W        W 7922   4.694   0.878   8.657
 3859W        W 7923   7.302  10.003   1.625
 3860W        W 7924   7.036   2.223   3.047
 3861W        W 7925   1.926   3.331  11.028
 3862W        W 7926   1.199   9.722   8.820
 3863W        W 7927   7.443   3.731  11.133
 3864W        W 7928   5.950   3.473   1.405
 3865W        W 7929   2.343   3.147   2.838
 3866W        W 7930   7.375  10.497   0.315
 3867W        W 7931   7.849   6.519   2.757
 3868W        W 7932   2.886   6.950  11.848
 3869W        W 7933   4.969   4.677   0.430
 3870W        W 7934   2.381   4.787   2.745
 3871W        W 7935   0.663   0.623   2.298
 3872W        W 7936   9.957   4.526  10.472
 3873W        W 7937   7.158   0.440   3.313
 3874W        W 7938   1.661   1.629  11.797
 3875W        W 7939  10.207   0.629   1.400
 3876W        W 7940   9.385   4.647   9.789
 3877W        W 7941   2.823   7.030   0.412
 3878W        W 7942   8.410   6.500   0.823
 3879W        W 7943   1.359   4.354   3.172
 3880W        W 7944   3.616   6.478   1.697
 3881W        W 7945   1.297   0.246   9.023
 3882W        W 7946  10.249   6.718   0.324
 3883W        W 7947   6.945   3.682   0.353
 3884W        W 7948   4.405   0.091   2.652
 3885W        W 7949   7.484   8.787  10.753
 3886W        W 7950   3.392   1.029  11.028
 3887W        W 7951   4.648   2.348  10.719
 3888W        W 7952   4.935   8.477  10.459
 3889W        W 7953   9.325   8.416   3.347
 3890W        W 7954   4.718   9.385   2.934
 3891W        W 7955   6.126   4.056   8.628
 3892W        W 7956   9.225   7.973   8.935
 3893W        W 7957   8.117   8.382   9.047
 3894W        W 7958   7.139   2.265   1.507
 3895W        W 7959   3.375   0.575   9.795
 3896W        W 7960   2.311   7.812  11.576
 3897W        W 7961   0.443   5.203   0.188
 3898W        W 7962   1.963   4.569   0.890
 3899W        W 7963   2.821   5.957   0.051
 3900W        W 7964   6.206   1.893   3.453
 3901W        W 7965   2.596   2.536  10.270
 3902W        W 7966   6.681   0.308   9.386
 3903W        W 7967   2.914  10.349  10.658
 3904W        W 7968   8.640   4.236   1.228
 3905W        W 7969  10.285   4.562   8.771
 3906W        W 7970   6.724   1.252  10.526
 3907W        W 7971   7.541   5.653   3.101
 3908W        W 7972   5.265   6.162   9.117
 3909W        W 7973   2.360   6.760   1.162
 3910W        W 7974   4.732   3.291   0.208
 3911W        W 7975   6.035   7.546   1.680
 3912W        W 7976   6.999   6.445   1.753
 3913W        W 7977   9.672   3.463   8.567
 3914W        W 7978   4.158   1.247  11.826
 3915W        W 7979   7.968   7.489   2.630
 3916W        W 7980   7.845   9.915   9.098
 3917W        W 7981  10.220   3.661  11.310
 3918W        W 7982   2.637   5.045   2.352
 3919W        W 7983   1.295   1.868   9.017
 3920W        W 7984   5.079   4.632  11.040
 3921W        W 7985   9.390   6.417   1.748
 3922W        W 7986   5.159   8.549  11.061
 3923W        W 7987   3.703  10.443   2.214
 3924W        W 7988   9.423   7.187   1.490
 3925W        W 7989   7.419   2.080   0.705
 3926W        W 7990   5.161   7.680  11.061
 3927W        W 7991  10.365   0.693   9.581
 3928W        W 7992   4.063  10.374   0.886
 3929W        W 7993   7.559   3.571   9.957
 3930W        W 7994   4.708   1.731   9.063
 3931W        W 7995   0.223   8.639  11.403
 3932W        W 7996   0.891   5.696   0.287
 3933W        W 7997   7.051   6.693   2.356
 3934W        W 7998  10.085   3.727  11.801
 3935W        W 7999   5.654   0.777   2.197
 3936W        W 8000   4.275   9.089  10.528
 3937W        W 8001   1.261  10.447   9.446
 3938W        W 8002   6.959   9.952  10.768
 3939W        W 8003   7.935   4.089   2.347
 3940W        W 8004   2.688   0.808   3.377
 3941W        W 8005   1.716   8.330   1.788
 3942W        W 8006   9.004   0.889   2.855
 3943W        W 8007   6.957   9.026   2.732
 3944W        W 8008   2.615   2.728   2.790
 3945W        W 8009   4.614   3.666   1.566
 3946W        W 8010   0.472   0.774  11.993
 3947W        W 8011   0.333   5.356   9.878
 3948W        W 8012   2.304   9.010   1.757
 3949W        W 8013   3.714   8.956   1.333
 3950W        W 8014   8.487   0.289   9.417
 3951W        W 8015   7.009   0.325  11.265
 3952W        W 8016  10.342   4.973   2.423
 3953W        W 8017   4.567   6.885  10.259
 3954W        W 8018   7.215   9.002   0.275
 3955W        W 8019   6.222   4.332  11.755
 3956W        W 8020   4.204   0.975   8.478
 3957W        W 8021   1.928  10.419  10.653
 3958W        W 8022   7.971   0.001   0.367
 3959W        W 8023   4.335   5.781   8.280
 3960W        W 8024   9.909  10.336  11.979
 3961W        W 8025   6.110   2.328  11.265
 3962W        W 8026   8.924   4.764   2.179
 3963W        W 8027   5.224   6.637   8.500
 3964W        W 8028   6.968   2.414  10.570
 3965W        W 8029   1.068   9.104   0.239
 3966W        W 8030   5.470   4.681   0.342
 3967W        W 8031   6.961   7.718   0.572
 3968W        W 8032   9.992   3.186   2.602
 3969W        W 8033   2.403   2.930  11.830
 3970W        W 8034   2.599   6.085   3.507
 3971W        W 8035   9.413   8.997   2.536
 3972W        W 8036   6.850   9.054   1.151
 3973W        W 8037   2.355   7.658   1.731
 3974W        W 8038   9.512   8.316   9.240
 3975W        W 8039   3.697  10.338  10.815
 3976W        W 8040   9.772   4.283  10.914
 3977W        W 8041   6.490   1.460   2.784
 3978W        W 8042   5.664   2.378   2.353
 3979W        W 8043   1.211   9.559  11.986
 3980W        W 8044   6.278   7.455   1.244
 3981W        W 8045   5.594   7.373   2.788
 3982W        W 8046   8.283   0.111   8.443
 3983W        W 8047   1.714   0.497   2.505
 3984W        W 8048   7.395   5.205   8.930
 3985W        W 8049   2.728   3.593   9.278
 3986W        W 8050   2.720   0.292  10.884
 3987W        W 8051   5.074   2.254   9.182
 3988W        W 8052   2.324  10.308   2.997
 3989W        W 8053   4.297   1.669   1.903
 3990W        W 8054   4.320   6.598   9.682
 3991W        W 8055   0.760   8.871   9.857
 3992W        W 8056   6.921   9.875  11.271
 3993W        W 8057   7.238   1.736  11.316
 3994W        W 8058   9.317   5.644   9.280
 3995W        W 8059   6.212   3.127   3.572
 3996W        W 8060   0.760   8.562   1.964
 3997W        W 8061   9.437   1.815   8.573
 3998W        W 8062   4.761   8.860  11.274
 3999W        W 8063   5.275   9.870  10.091
 4000W        W 8064   1.360   8.046   1.503
 4001W        W 8065   1.237   2.934   0.395
 4002W        W 8066   1.759   5.957  10.214
 4003W        W 8067   9.370   0.697   1.948
 4004W        W 8068   2.260   2.247  11.518
 4005W        W 8069   4.542   3.911  11.016
 4006W        W 8070   0.892   7.044  10.786
 4007W        W 8071   1.461   0.393   3.375
 4008W        W 8072   0.558   1.791   9.820
 4009W        W 8073   9.513   7.113   0.987
 4010W        W 8074   0.335   7.343   1.460
 4011W        W 8075   3.210   4.820   1.277
 4012W        W 8076   2.812   5.921   2.078
 4013W        W 8077   4.180   8.010   8.762
 4014W        W 8078   6.041   4.335   8.187
 4015W        W 8079   6.485   3.344   0.563
 4016W        W 8080   3.024   7.919   8.608
 4017W        W 8081   7.116   0.931  11.877
 4018W        W 8082   3.188   0.236   9.408
 4019W        W 8083   2.687   9.948   2.815
 4020W        W 8084   8.547   7.911   3.201
 4021W        W 8085   6.959   9.511   2.957
 4022W        W 8086   6.064   7.116   2.000
 4023W        W 8087   6.625   7.387   3.097
 4024W        W 8088   1.167   0.756   2.221
 4025W        W 8089   4.541   9.776  11.780
 4026W        W 8090   0.028   4.642  10.294
 4027W        W 8091  10.474   7.588   1.222
 4028W        W 8092   2.640   4.331  11.532
 4029W        W 8093   5.203   1.717   9.851
 4030W        W 8094   4.540   0.395   9.440
 4031W        W 8095   5.130   1.179   2.334
 4032W        W 8096   6.120   7.265  10.813
 4033W        W 8097   0.393   0.672   1.846
 4034W        W 8098   5.710   5.171   1.644
 4035W        W 8099   4.901   0.418   8.654
 4036W        W 8100   7.975   9.386   0.580
 4037W        W 8101   4.234   5.638  10.469
 4038W        W 8102   9.737   8.920  10.483
 4039W        W 8103   4.277   6.201  10.528
 4040W        W 8104   8.568   9.065   3.546
 4041W        W 8105   0.746   3.578  10.279
 4042W        W 8106   2.288   7.677   1.227
 4043W        W 8107   1.003   8.761   9.415
 4044W        W 8108   4.602   4.060   8.793
 4045W        W 8109   3.353   3.823   1.338
 4046W        W 8110   7.547   2.769   1.464
 4047W        W 8111   9.570   5.568  10.264
 4048W        W 8112   3.138   6.468   2.913
 4049W        W 8113   9.521   9.377  10.064
 4050W        W 8114   2.554   7.571   8.918
 4051W        W 8115   7.503   3.650  11.630
 4052W        W 8116  10.366   5.706   1.196
 4053W        W 8117   4.558   4.701   3.451
 4054W        W 8118   2.774   1.313  10.929
 4055W        W 8119   7.877   0.265   1.607
 4056W        W 8120   1.545   5.652  10.554
 4057W        W 8121   7.535   7.064   0.167
 4058W        W 8122   0.393   9.048  10.879
 4059W        W 8123   2.860   7.504  11.169
 4060W        W 8124   6.574   9.461   1.318
 4061W        W 8125   5.634  10.419   1.935
 4062W        W 8126   7.441   5.328   9.504
 4063W        W 8127   8.017   2.280   1.388
 4064W        W 8128   6.016   3.671   9.932
 4065W        W 8129   5.823   7.466   0.327
 4066W        W 8130   3.410   7.942   1.886
 4067W        W 8131   5.718   6.916   9.183
 4068W        W 8132   6.056   9.079  10.839
 4069W        W 8133   8.437   6.443   2.109
 4070W        W 8134   0.356   8.542   1.677
 4071W        W 8135   6.905   5.000   2.773
 4072W        W 8136   4.131   3.895   8.919
 4073W        W 8137   9.043   4.035   1.520
 4074W        W 8138   4.878   6.869   8.115
 4075W        W 8139   6.136   1.394  11.237
 4076W        W 8140   7.939   9.029   2.970
 4077W        W 8141   3.266   7.110   0.733
 4078W        W 8142   4.964   0.415  10.781
 4079W        W 8143   4.061   3.953   1.382
 4080W        W 8144   6.537   2.970   0.247
 4081W        W 8145   2.277   3.486   3.248
 4082W        W 8146   1.675   7.165   0.577
 4083W        W 8147   6.034   3.156  11.109
 4084W        W 8148   4.692   3.767   3.010
 4085W        W 8149  10.271   4.131   2.851
 4086W        W 8150   7.980   3.721   3.315
 4087W        W 8151   8.443   0.662   3.345
 4088W        W 8152   8.402   1.709   3.028
 4089W        W 8153   1.363   6.485  10.805
 4090W        W 8154   4.064   5.617   1.631
 4091W        W 8155   3.262   2.434   3.143
 4092W        W 8156   2.661   9.312   9.856
 4093W        W 8157   6.210   1.770   9.933
 4094W        W 8158   0.762   4.109   1.703
 4095W        W 8159   5.514   7.027   8.707
 4096W        W 8160   6.172   8.538   0.827
 4097W        W 8161   9.173   5.957   9.995
 4098W        W 8162   3.783   3.591   1.156
 4099W        W 8163   9.054   4.625   2.652
 4100W        W 8164   9.871   0.946   1.223
 4101W        W 8165   5.016   9.515   9.251
 4102W        W 8166   2.391   2.589  10.770
 4103W        W 8167   1.371   6.565   0.902
 4104W        W 8168   2.903   8.919   9.595
 4105W        W 8169   0.964   3.810   3.306
 4106W        W 8170   4.213   1.219   1.687
 4107W        W 8171   0.658   7.348   8.882
 4108W        W 8172   5.564   3.823   1.419
 4109W        W 8173   9.033   0.345   9.962
 4110W        W 8174   0.987   3.044   2.879
 4111W        W 8175   2.964   7.200   2.723
 4112W        W 8176   3.157   3.834   9.086
 4113W        W 8177   8.356   0.314   2.952
 4114W        W 8178   9.785   8.993  11.516
 4115W        W 8179   5.041   6.695   0.767
 4116W        W 8180  -0.001   2.832   1.917
 4117W        W 8181   8.659   6.640  10.801
 4118W        W 8182   4.258   9.109   2.820
 4119W        W 8183   9.960   3.079   9.322
 4120W        W 8184   7.437   9.303  10.721
 4121W        W 8185   5.980   5.287  11.506
 4122W        W 8186   9.430   4.282  10.548
 4123W        W 8187   6.689   4.288   2.316
 4124W        W 8188   3.730   9.830  10.303
 4125W        W 8189   7.312   2.216   9.240
 4126W        W 8190   9.737   0.771   0.225
 4127W        W 8191   5.064   3.737  11.007
 4128W        W 8192   0.502   8.264  10.256
 4129W        W 8193   0.826   7.882   2.713
 4130W        W 8194   5.122   3.081   3.046
 4131W        W 8195   9.919   0.277   0.735
 4132W        W 8196   7.489   6.298   0.017
 4133W        W 8197   3.563   1.108   9.859
 4134W        W 8198   8.283   4.279   9.843
 4135W        W 8199   2.251   3.264  11.467
 4136W        W 8200   4.143   6.171   8.873
 4137W        W 8201   4.598   4.655   0.102
 4138W        W 8202   7.891   1.298   8.853
 4139W        W 8203   9.538   0.866   2.762
 4140W        W 8204   6.650   2.285   1.814
 4141W        W 8205   4.765   1.868   1.389
 4142W        W 8206   5.790  10.335   3.437
 4143W        W 8207   4.367   7.429   9.391
 4144W        W 8208   5.798   3.177   1.881
 4145W        W 8209  10.421   3.280  10.609
 4146W        W 8210   5.149   9.071  10.961
 4147W        W 8211   8.613   2.882  10.968
 4148W        W 8212   5.538   0.681   1.249
 4149W        W 8213   4.167   7.744  10.287
 4150W        W 8214   2.390   5.614   8.379
 4151W        W 8215   1.351   6.101   2.436
 4152W        W 8216   4.705   4.969   0.737
 4153W        W 8217   0.292   7.978  10.625
 4154W        W 8218   7.444   6.072   0.906
 4155W        W 8219   4.615   5.222   2.591
 4156W        W 8220   5.235  10.058  10.569
 4157W        W 8221   5.742   6.222   9.872
 4158W        W 8222  10.409   1.141   2.907
 4159W        W 8223   7.497   1.083   3.431
 4160W        W 8224   5.660   9.019  10.164
 4161W        W 8225   2.697   5.714   9.060
 4162W        W 8226   3.624   1.615   9.918
 4163W        W 8227   5.711   2.387   1.396
 4164W        W 8228   3.403   5.787   9.958
 4165W        W 8229   8.028   2.933   0.679
 4166W        W 8230   3.407   6.098  11.395
 4167W        W 8231   2.459   6.475   8.599
 4168W        W 8232   2.387   1.948   1.481
 4169W        W 8233   4.572   5.593   1.812
 4170W        W 8234   6.909   2.148   9.577
 4171W        W 8235   0.361   0.028  11.347
 4172W        W 8236   8.396   6.943   2.014
 4173W        W 8237   6.447   3.370   1.317
 4174W        W 8238   9.403   6.208  10.409
 4175W        W 8239   9.013   6.839   9.063
 4176W        W 8240   2.451   2.892   1.621
 4177W        W 8241   0.771   8.341   9.824
 4178W        W 8242   1.940   8.452   2.704
 4179W        W 8243   2.726   9.230   8.840
 4180W        W 8244   8.907   9.112   9.578
 4181W        W 8245   5.992   6.752  11.601
 4182W        W 8246   8.680   4.985   9.368
 4183W        W 8247   5.055   2.710   3.384
 4184W        W 8248   1.671   3.240   1.688
 4185W        W 8249   4.294   6.443  11.003
 4186W        W 8250   2.693   9.105  11.780
 4187W        W 8251   0.793   9.408   1.903
 4188W        W 8252   7.456  10.291   2.111
 4189W        W 8253   9.768   4.353   9.993
 4190W        W 8254   4.106   0.390   3.318
 4191W        W 8255   4.519   8.949   0.660
 4192W        W 8256   7.245   5.740   2.168
 4193W        W 8257   0.779   3.739  10.764
 4194W        W 8258   3.096   2.258   2.177
 4195W        W 8259  10.424   9.853   1.417
 4196W        W 8260   5.919   9.594   3.589
 4197W        W 8261   6.929   8.158  10.782
 4198W        W 8262   0.780   5.177   2.166
 4199W        W 8263   0.490   1.904   2.245
 4200W        W 8264   1.122   6.436   8.614
 4201W        W 8265   4.492   1.723   2.385
 4202W        W 8266   0.836   3.064   8.963
 4203W        W 8267   2.724   6.478   0.843
 4204W        W 8268   0.501   7.722  11.403
 4205W        W 8269   3.714   0.442   1.980
 4206W        W 8270   0.836   1.795  11.394
 4207W        W 8271   4.946   4.250   9.114
 4208W        W 8272   7.746   0.809   1.791
 4209W        W 8273   5.497   6.654   3.571
 4210W        W 8274   1.258   6.062   9.927
 4211W        W 8275   9.998   4.024   0.213
 4212W        W 8276   8.395   1.159   3.244
 4213W        W 8277  10.234   5.472   2.667
 4214W        W 8278   5.763   7.107  10.039
 4215W        W 8279   7.484   2.717   1.973
 4216W        W 8280   9.207  10.312   9.887
 4217W        W 8281   0.315   5.442  11.056
 4218W        W 8282   4.769   7.948  10.334
 4219W        W 8283   8.866   1.520   9.207
 4220W        W 8284   1.217   3.983   1.930
 4221W        W 8285   3.740   5.832  11.715
 4222W        W 8286   6.564   8.345   2.719
 4223W        W 8287   3.187   6.968   9.043
 4224W        W 8288   1.366   2.274  11.879
 4225W        W 8289   7.878   9.458  10.519
 4226W        W 8290   6.739   4.011   9.323
 4227W        W 8291   8.391   2.613  11.905
 4228W        W 8292   8.038   9.990   0.378
 4229W        W 8293   7.585   6.607   0.482
 4230W        W 8294   8.756   9.534   2.239
 4231W        W 8295   4.639   4.196   3.290
 4232W        W 8296   6.106   8.427   9.295
 4233W        W 8297   3.747   1.324   1.920
 4234W        W 8298   0.855   6.925   9.210
 4235W        W 8299   7.870   1.809   0.048
 4236W        W 8300   6.670   6.493  11.355
 4237W        W 8301  10.434   8.266   3.111
 4238W        W 8302   9.647   3.838   8.920
 4239W        W 8303   4.230   7.411  11.268
 4240W        W 8304  10.411   9.425   0.581
 4241W        W 8305   4.655   8.922   3.138
 4242W        W 8306   3.189   3.725  10.088
 4243W        W 8307   6.055   9.569  10.992
 4244W        W 8308  10.486   9.700  11.426
 4245W        W 8309   1.513   3.713   2.941
 4246W        W 8310   7.618   1.297  10.624
 4247W        W 8311   8.380   7.067  10.783
 4248W        W 8312   4.304   5.260   8.411
 4249W        W 8313   2.317   3.924   8.811
 4250W        W 8314   4.755   6.030   1.015
 4251W        W 8315   1.894   3.059  11.900
 4252W        W 8316   3.306   7.154  10.465
 4253W        W 8317   9.337   2.812   1.691
 4254W        W 8318   3.581   2.717   2.299
 4255W        W 8319   4.713   7.019   2.470
 4256W        W 8320   6.115   2.237  10.147
 4257W        W 8321   1.818   5.987   1.754
 4258W        W 8322   7.798   9.766  11.678
 4259W        W 8323   6.681   6.163  11.958
 4260W        W 8324   9.390   9.062   1.291
 4261W        W 8325   9.411  10.491   2.640
 4262W        W 8326   1.937   9.757   0.707
 4263W        W 8327   2.056   9.947  10.409
 4264W        W 8328   0.385   2.897   0.704
 4265W        W 8329   2.170   4.503  10.853
 4266W        W 8330   3.293   4.443   3.630
 4267W        W 8331   0.035   2.823   0.338
 4268W        W 8332  10.304   8.213  10.735
 4269W        W 8333   5.241   9.478   0.775
 4270W        W 8334   4.797   2.326   1.182
 4271W        W 8335   1.714   8.476  11.779
 4272W        W 8336   3.217   7.201   1.409
 4273W        W 8337   0.272   5.262   3.576
 4274W        W 8338   8.932   6.211   8.507
 4275W        W 8339   6.950   4.074   0.685
 4276W        W 8340   1.346   7.852   0.310
 4277W        W 8341   2.854   9.847   1.875
 4278W        W 8342   2.111   6.635  11.802
 4279W        W 8343   1.935   9.436  11.477
 4280W        W 8344   5.954   4.320   9.077
 4281W        W 8345   8.004   9.715   9.923
 4282W        W 8346   8.131   8.656   2.682
 4283W        W 8347   9.361   1.704   9.846
 4284W        W 8348   3.594   3.589   2.148
 4285W        W 8349   3.568   9.531   9.906
 4286W        W 8350   1.384   3.200  11.850
 4287W        W 8351   2.189   3.729   9.814
 4288W        W 8352   3.202   8.851   3.399
 4289W        W 8353   8.371   5.251  10.958
 4290W        W 8354   3.273   0.653   2.992
 4291W        W 8355   3.835   4.654   8.305
 4292W        W 8356  10.238   6.045   2.861
 4293W        W 8357   6.547   4.873   1.268
 4294W        W 8358   3.730   4.531   1.959
 4295W        W 8359   2.617   1.962   8.899
 4296W        W 8360   4.408  10.103  10.431
 4297W        W 8361   7.050   2.301  10.071
 4298W        W 8362   9.567   2.982  10.828
 4299W        W 8363   1.659   7.527   9.042
 4300W        W 8364   6.634   6.205   4.019
 4301W        W 8365   1.799   7.053  11.758
 4302W        W 8366   0.033  10.227   9.591
 4303W        W 8367   0.270   3.105   1.197
 4304W        W 8368   9.489   5.641   0.716
 4305W        W 8369   8.963   5.044   8.933
 4306W        W 8370   8.518   6.612   1.646
 4307W        W 8371   0.884   4.765  10.730
 4308W        W 8372   2.325   4.758  11.255
 4309W        W 8373   3.854   8.297   9.493
 4310W        W 8374   2.086   1.025   1.308
 4311W        W 8375   6.351   9.778   9.207
 4312W        W 8376   5.065   4.232   8.612
 4313W        W 8377   6.145   2.242   1.666
 4314W        W 8378   4.674   5.884  10.494
 4315W        W 8379  10.313   2.986  11.905
 4316W        W 8380   8.423   4.261   0.249
 4317W        W 8381   7.824   9.008   2.468
 4318W        W 8382   2.843   8.540   2.773
 4319W        W 8383   3.373  10.362   2.924
 4320W        W 8384   0.020  10.466   0.772
 4321W        W 8385   2.755  10.320  11.680
 4322W        W 8386   8.175   6.627   3.115
 4323W        W 8387   0.253   6.541   9.272
 4324W        W 8388   4.138   9.233   1.431
 4325W        W 8389   3.461   0.351   8.554
 4326W        W 8390   6.553   3.663   1.996
 4327W        W 8391   8.963  10.198   0.062
 4328W        W 8392   0.381   8.957   2.168
 4329W        W 8393   1.337   1.296   0.033
 4330W        W 8394   8.871   9.989   2.989
 4331W        W 8395   0.562   0.981  11.030
 4332W        W 8396   5.975   6.443   3.582
 4333W        W 8397   6.176   0.960  10.938
 4334W        W 8398   7.875   0.838   0.364
 4335W        W 8399   9.581   7.364  11.894
 4336W        W 8400   2.359   1.108   8.971
 4337W        W 8401   2.022   9.822  11.818
 4338W        W 8402   3.356   7.483  11.235
 4339W        W 8403   0.043   2.664   1.049
 4340W        W 8404   2.755   2.194  11.370
 4341W        W 8405   5.228   9.997   0.010
 4342W        W 8406   6.514   8.365   1.757
 4343W        W 8407   4.725   5.507  11.821
 4344W        W 8408   1.671   7.914   9.913
 4345W        W 8409   1.303   2.762   2.608
 4346W        W 8410  10.168   7.272   0.971
 4347W        W 8411   6.557  10.267   9.388
 4348W        W 8412   4.111   8.514   9.868
 4349W        W 8413   5.978   0.005  11.756
 4350W        W 8414   0.115   5.331   0.885
 4351W        W 8415  10.261   6.553   9.066
 4352W        W 8416   8.121   4.111   9.381
 4353W        W 8417   3.353   2.396  10.411
 4354W        W 8418   7.679   5.273  11.421
 4355W        W 8419   6.626   6.908   0.370
 4356W        W 8420   6.129   1.866   0.057
 4357W        W 8421   9.301   0.303   1.301
 4358W        W 8422   5.914   5.745   9.869
 4359W        W 8423   9.038   5.718   2.463
 4360W        W 8424   9.529   0.000   0.933
 4361W        W 8425   0.482   6.080   9.369
 4362W        W 8426   7.500   6.148   2.945
 4363W        W 8427   6.091   6.100   9.495
 4364W        W 8428   6.699   3.058   9.359
 4365W        W 8429   0.832   8.977   2.685
 4366W        W 8430   4.922   2.680   1.953
 4367W        W 8431   3.066   0.213  11.305
 4368W        W 8432   4.231   1.065  10.476
 4369W        W 8433  10.393   6.960   8.749
 4370W        W 8434   3.724   3.347   3.040
 4371W        W 8435   7.544   4.007   4.366
 4372W        W 8436   9.349   6.167  11.378
 4373W        W 8437   2.690   7.417  11.660
 4374W        W 8438   0.524   7.739  11.934
 4375W        W 8439   7.160   4.979   1.927
 4376W        W 8440   0.317   5.004   2.644
 4377W        W 8441   4.139   6.272   2.893
 4378W        W 8442   3.610   3.760  10.371
 4379W        W 8443   5.565   1.667   0.922
 4380W        W 8444   3.729   0.753   8.922
 4381W        W 8445   7.541   1.344  11.122
 4382W        W 8446   2.716   9.763   9.025
 4383W        W 8447   4.717  10.039   0.803
 4384W        W 8448   6.670   8.479   2.238
 4385W        W 8449   5.043   4.010   9.889
 4386W        W 8450   6.910   0.792   9.602
 4387W        W 8451   2.123   6.893   1.899
 4388W        W 8452   8.815   2.914   0.001
 4389W        W 8453   5.097   6.675   2.333
 4390W        W 8454   0.769   2.232   1.169
 4391W        W 8455   9.041   8.906   0.880
 4392W        W 8456   9.844   8.200   2.801
 4393W        W 8457   3.328   7.592  10.220
 4394W        W 8458   4.905   6.207  11.548
 4395W        W 8459   7.043   5.394   1.019
 4396W        W 8460   7.910   6.295   0.907
 4397W        W 8461   8.340   5.927  11.361
 4398W        W 8462   6.323   2.715  10.930
 4399W        W 8463   8.341   6.344   2.605
 4400W        W 8464  10.014   6.165  10.979
 4401W        W 8465   2.087   8.490   2.136
 4402W        W 8466   8.949   2.645   1.003
 4403W        W 8467   9.483   5.447   1.677
 4404W        W 8468   4.086   8.893   0.987
 4405W        W 8469   2.587  10.002  10.440
 4406W        W 8470   5.077   9.562   1.282
 4407W        W 8471   7.134   7.471   9.159
 4408W        W 8472  10.143   6.661  10.969
 4409W        W 8473   4.127   3.763  11.793
 4410W        W 8474   9.918   3.005   8.795
 4411W        W 8475   2.908   9.909  11.407
 4412W        W 8476   5.522   0.745   0.733
 4413W        W 8477   0.304   6.954   3.432
 4414W        W 8478   5.590  10.349   9.419
 4415W        W 8479   7.915   3.302   9.705
 4416W        W 8480   7.365   1.437   8.649
 4417W        W 8481   5.431   5.530   1.888
 4418W        W 8482   9.532   4.496   2.602
 4419W        W 8483   9.946   4.076   1.981
 4420W        W 8484   9.294   8.845  10.812
 4421W        W 8485   5.983   3.528   9.401
 4422W        W 8486   2.829   8.333   0.254
 4423W        W 8487   1.479   4.703   0.913
 4424W        W 8488   9.773   8.886  11.017
 4425W        W 8489   9.830   5.195   0.974
 4426W        W 8490   1.463   6.167   9.436
 4427W        W 8491   8.086   6.089   9.478
 4428W        W 8492   5.190   0.283  10.320
 4429W        W 8493   4.987   3.762   0.517
 4430W        W 8494   2.712   1.189  10.324
 4431W        W 8495   8.547   1.715   2.514
 4432W        W 8496   4.574   3.847  11.527
 4433W        W 8497   5.221  10.007   9.612
 4434W        W 8498   1.377   6.681   3.042
 4435W        W 8499   0.389   8.187   2.748
 4436W        W 8500   6.133   4.285   2.624
 4437W        W 8501   8.048   0.210  10.156
 4438W        W 8502   3.541   9.896   3.186
 4439W        W 8503   5.449   8.562  10.362
 4440W        W 8504   9.416   7.287   0.375
 4441W        W 8505   2.370   7.099   2.504
 4442W        W 8506   2.788   1.835   9.507
 4443W        W 8507   2.359   7.764  10.454
 4444W        W 8508   6.117   4.177   0.257
 4445W        W 8509   4.304   8.057   2.866
 4446W        W 8510   2.682   4.615   9.326
 4447W        W 8511  10.368   8.431   1.774
 4448W        W 8512   1.811   0.308   8.892
 4449W        W 8513   2.227   4.134  11.296
 4450W        W 8514   4.785   6.057   0.008
 4451W        W 8515   6.042   0.845   2.535
 4452W        W 8516   4.666   9.032   9.192
 4453W        W 8517   8.514   1.085   1.418
 4454W        W 8518   8.381   2.643   2.529
 4455W        W 8519   4.684  10.334   1.934
 4456W        W 8520   9.057   0.705  10.766
 4457W        W 8521   0.723   8.522   3.446
 4458W        W 8522   6.124   1.688   1.485
 4459W        W 8523   5.225   8.191   2.768
 4460W        W 8524   0.316   1.687   1.784
 4461W        W 8525   7.400   7.162  10.492
 4462W        W 8526   8.291   5.188   3.066
 4463W        W 8527   7.069   5.353   3.818
 4464W        W 8528  10.295   4.201  11.759
 4465W        W 8529   0.320   7.554   1.925
 4466W        W 8530   9.921   5.518   1.409
 4467W        W 8531   5.649   3.511  11.758
 4468W        W 8532   4.069   2.391  11.373
 4469W        W 8533   6.028   4.093   0.770
 4470W        W 8534   8.009   3.568  10.663
 4471W        W 8535   3.140   0.297   2.658
 4472W        W 8536   5.746   9.151  11.774
 4473W        W 8537   2.834   0.743  10.590
 4474W        W 8538   6.685   1.400   0.458
 4475W        W 8539   7.404   5.566   9.967
 4476W        W 8540   4.182   3.449   1.431
 4477W        W 8541   3.589  10.047   0.006
 4478W        W 8542   4.266   9.612   2.751
 4479W        W 8543   5.639   6.589  10.254
 4480W        W 8544   9.385   1.509  10.787
 4481W        W 8545   8.259   3.752  10.264
 4482W        W 8546   0.696   5.503  11.382
 4483W        W 8547   0.437   1.895   0.884
 4484W        W 8548   4.159   7.052   0.708
 4485W        W 8549   4.229   0.734  11.833
 4486W        W 8550   5.278   8.557   9.343
 4487W        W 8551   1.782   2.125   9.830
 4488W        W 8552   3.340   6.146   9.567
 4489W        W 8553   7.041  10.091   0.319
 4490W        W 8554   1.672   7.756   3.695
 4491W        W 8555   8.423   3.301   9.816
 4492W        W 8556   6.569   2.133  11.483
 4493W        W 8557   1.773   6.965  10.270
 4494W        W 8558   0.363   6.032   2.009
 4495W        W 8559   5.966   7.101   9.577
 4496W        W 8560   2.696   5.162   3.355
 4497W        W 8561   1.870   0.352   1.754
 4498W        W 8562   1.700   7.971  11.944
 4499W        W 8563   6.266   8.246  10.305
 4500W        W 8564   7.016   2.197   2.524
 4501W        W 8565   6.137   8.914   9.082
 4502W        W 8566   8.889   6.192  10.402
 4503W        W 8567   6.328   2.780   3.206
 4504W        W 8568   7.092   2.727   1.209
 4505W        W 8569   9.926   6.490  11.436
 4506W        W 8570   9.507   3.781   1.442
 4507W        W 8571   0.856   6.067   2.293
 4508W        W 8572   7.783   8.148   1.039
 4509W        W 8573   4.269   3.252   3.548
 4510W        W 8574   0.544   8.957   0.212
 4511W        W 8575   5.678   0.277   2.342
 4512W        W 8576   2.168   0.356  10.244
 4513W        W 8577   9.855   6.578   9.385
 4514W        W 8578   3.788   2.975   0.475
 4515W        W 8579   8.858   4.606   9.665
 4516W        W 8580   0.972   9.436  11.534
 4517W        W 8581   1.308   1.456   2.743
 4518W        W 8582   1.826   5.734  11.996
 4519W        W 8583   7.900   7.159  11.191
 4520W        W 8584   9.186   0.077   3.114
 4521W        W 8585   1.504   9.509   0.876
 4522W        W 8586   8.571   0.257   2.011
 4523W        W 8587  10.419   4.197   1.742
 4524W        W 8588   7.202   5.143   1.435
 4525W        W 8589   8.449  10.438   2.390
 4526W        W 8590   3.184   3.322  11.550
 4527W        W 8591   4.642   6.858   0.443
 4528W        W 8592   3.397   5.731  10.769
 4529W        W 8593   9.710   5.669   8.921
 4530W        W 8594   7.866   9.085  10.954
 4531W        W 8595   2.933   0.499  11.776
 4532W        W 8596   9.097   3.748   9.920
 4533W        W 8597   5.729   5.273   2.214
 4534W        W 8598   4.250  10.312   2.240
 4535W        W 8599   0.455   8.069   1.892
 4536W        W 8600   0.906   6.625  11.084
 4537W        W 8601   0.786   3.899   8.201
 4538W        W 8602   5.735   6.884   2.773
 4539W        W 8603   8.369   2.131  10.773
 4540W        W 8604   6.737   0.787  10.849
 4541W        W 8605   5.818   1.522  10.320
 4542W        W 8606   8.265   7.270  11.516
 4543W        W 8607   5.065   9.098   2.312
 4544W        W 8608   7.019   5.263   9.829
 4545W        W 8609   9.838   5.946   0.467
 4546W        W 8610   6.961   3.270   9.767
 4547W        W 8611   4.769   3.813   2.495
 4548W        W 8612   8.656   7.170   9.822
 4549W        W 8613   5.539   7.601   3.239
 4550W        W 8614   3.552   7.155  10.904
 4551W        W 8615   3.018   0.676  11.058
 4552W        W 8616   8.062   8.982  11.922
 4553W        W 8617   9.822   5.107  11.917
 4554W        W 8618   8.911   1.851   9.613
 4555W        W 8619   6.140   3.784  11.788
 4556W        W 8620   7.369   0.321  10.353
 4557W        W 8621   1.126   2.213  10.906
 4558W        W 8622   3.308   3.312   1.324
 4559W        W 8623   8.930   7.820   2.843
 4560W        W 8624   4.744   9.415   0.599
 4561W        W 8625   7.063   1.758   1.422
 4562W        W 8626   2.212   8.643  10.101
 4563W        W 8627   4.335   9.721  10.869
 4564W        W 8628   3.135   5.560   1.851
 4565W        W 8629   5.711   3.093   9.300
 4566W        W 8630   7.182   8.082  10.318
 4567W        W 8631   6.713   5.337   1.441
 4568W        W 8632   9.825   0.775  11.700
 4569W        W 8633   3.933   9.796  11.698
 4570W        W 8634   3.687   6.958   1.503
 4571W        W 8635   1.473   0.202   1.493
 4572W        W 8636   6.064   5.787  11.337
 4573W        W 8637   3.846   4.059   2.212
 4574W        W 8638   4.062   4.246   2.667
 4575W        W 8639   3.237   4.766   3.227
 4576W        W 8640   9.153   6.905   2.572
 4577W        W 8641   2.645   8.416   3.486
 4578W        W 8642   3.842   0.863   1.707
 4579W        W 8643   4.825   6.692   9.865
 4580W        W 8644   2.566   0.228  11.453
 4581W        W 8645   3.346   3.132  10.914
 4582W        W 8646   9.523   9.426   3.324
 4583W        W 8647   6.965   2.920  11.368
 4584W        W 8648   1.253   1.567   1.723
 4585W        W 8649   5.078   6.940   1.227
 4586W        W 8650   7.058   7.206   2.293
 4587W        W 8651   8.009   6.956   2.346
 4588W        W 8652   5.488   3.786   2.681
 4589W        W 8653   8.759   9.798   3.452
 4590W        W 8654   3.653   4.718   1.500
 4591W        W 8655   5.976   8.336  11.948
 4592W        W 8656   1.255   8.089   2.523
 4593W        W 8657   7.881   0.402   2.811
 4594W        W 8658   1.886   8.807  10.988
 4595W        W 8659   1.882   9.468  10.052
 4596W        W 8660   4.687   2.856   2.830
 4597W        W 8661   9.914   1.401   1.545
 4598W        W 8662   6.182   0.389   2.387
 4599W        W 8663   6.586   7.050   1.299
 4600W        W 8664   3.825   4.091   0.155
 4601W        W 8665   3.685   0.717   3.329
 4602W        W 8666   7.839   5.289   9.871
 4603W        W 8667   7.093   8.496  10.002
 4604W        W 8668   4.720   9.039  10.219
 4605W        W 8669   0.828   0.928   1.894
 4606W        W 8670   4.255   7.486   0.473
 4607W        W 8671   2.757   1.045   0.667
 4608W        W 8672   2.767   0.406   3.006
 4609W        W 8673   7.654   3.297   0.721
 4610W        W 8674   4.202   5.332  10.049
 4611W        W 8675   0.536   2.790   2.805
 4612W        W 8676   4.238   4.383   9.034
 4613W        W 8677   7.374   3.865   0.093
 4614W        W 8678   1.932   6.461  10.332
 4615W        W 8679   3.703   4.580  11.957
 4616W        W 8680   8.457   9.033   2.820
 4617W        W 8681   6.420   8.101  10.820
 4618W        W 8682  10.440   6.470  11.342
 4619W        W 8683   6.039   5.566   9.007
 4620W        W 8684   0.751   5.913   2.779
 4621W        W 8685   0.052   6.595   1.236
 4622W        W 8686   8.656  10.468  10.871
 4623W        W 8687   0.025   2.675  10.030
 4624W        W 8688   9.833   5.164  11.050
 4625W        W 8689   5.060   2.817  11.419
 4626W        W 8690   0.602   9.000  11.332
 4627W        W 8691   2.613   2.286   8.514
 4628W        W 8692   8.746   1.068   9.365
 4629W        W 8693   3.500   4.167  11.766
 4630W        W 8694   8.807   8.866  10.617
 4631W        W 8695   8.498   5.017   2.284
 4632W        W 8696   1.136   2.933   0.924
 4633W        W 8697   9.367   6.508   9.226
 4634W        W 8698   7.111   8.351   0.806
 4635W        W 8699   9.856   2.327   1.669
 4636W        W 8700   5.625   4.742   2.840
 4637W        W 8701   2.934  10.425  10.162
 4638W        W 8702   4.521   0.558   2.493
 4639W        W 8703   6.781   6.177   9.925
 4640W        W 8704   5.917   8.584   3.419
 4641W        W 8705   3.068   8.085   2.582
 4642W        W 8706   5.104   8.980   8.922
 4643W        W 8707   6.546   3.604   9.998
 4644W        W 8708   2.544   3.308   9.848
 4645W        W 8709   0.964   6.164  10.859
 4646W        W 8710   8.930   7.438   3.190
 4647W        W 8711   6.892   6.480   3.676
 4648W        W 8712  10.337   4.709   9.823
 4649W        W 8713   5.476   0.444   1.848
 4650W        W 8714   5.498   3.611   1.915
 4651W        W 8715   8.523   7.715   1.408
 4652W        W 8716   6.486   4.544   4.130
 4653W        W 8717   1.803   9.808   1.188
 4654W        W 8718   8.636   4.142   9.480
 4655W        W 8719   0.371   2.882  11.952
 4656W        W 8720   4.999   8.590   2.962
 4657W        W 8721   8.373   5.121   3.541
 4658W        W 8722   8.049  10.320   8.835
 4659W        W 8723  10.433   2.492  11.944
 4660W        W 8724   4.293   8.595   2.834
 4661W        W 8725   9.559  10.074  10.890
 4662W        W 8726   3.887   4.643   9.368
 4663W        W 8727   1.137   7.432   9.041
 4664W        W 8728   4.779   2.094  11.766
 4665W        W 8729   8.770   0.139  11.363
 4666W        W 8730   3.893   5.588   8.461
 4667W        W 8731   3.737   2.285   1.513
 4668W        W 8732   2.229   2.369   9.026
 4669W        W 8733   7.389   4.588   0.817
 4670W        W 8734   5.163   0.845   9.441
 4671W        W 8735   7.032   8.475   1.777
 4672W        W 8736   9.324   3.206   3.223
 4673W        W 8737   0.828   1.010   8.906
 4674W        W 8738   1.167   7.975  11.063
 4675W        W 8739  10.493   0.525   2.168
 4676W        W 8740   5.645   7.044  10.943
 4677W        W 8741   6.572  10.121   3.435
 4678W        W 8742   8.515   1.480  10.853
 4679W        W 8743   7.533   4.799  10.733
 4680W        W 8744   4.677   4.693  10.461
 4681W        W 8745   3.764   0.898  11.681
 4682W        W 8746   9.604   3.833  10.330
 4683W        W 8747   8.672   3.223   9.346
 4684W        W 8748   3.323   5.521  11.986
 4685W        W 8749   5.673   4.799   9.871
 4686W        W 8750   0.257   0.829  10.175
 4687W        W 8751   3.188   5.906   8.510
 4688W        W 8752   1.842   7.906  10.442
 4689W        W 8753   6.591  10.227   1.867
 4690W        W 8754   8.086   9.867   1.890
 4691W        W 8755   4.618   7.858  11.198
 4692W        W 8756   2.616   0.892   1.155
 4693W        W 8757   6.214   7.408   0.007
 4694W        W 8758   9.347   2.472   9.487
 4695W        W 8759   1.819   6.768   2.770
 4696W        W 8760   1.668   6.842   9.790
 4697W        W 8761   0.219   2.028   9.520
 4698W        W 8762   8.536   6.051  11.823
 4699W        W 8763   3.166   2.854   8.839
 4700W        W 8764   9.923   0.900   1.739
 4701W        W 8765   5.471   8.994   0.800
 4702W        W 8766   6.115   3.261  11.659
 4703W        W 8767   9.993   1.726  11.919
 4704W        W 8768   3.010   4.100  11.823
 4705W        W 8769   1.755   1.301  10.245
 4706W        W 8770   3.574   0.067  11.249
 4707W        W 8771   0.376   6.929   8.963
 4708W        W 8772   7.114   5.747   1.373
 4709W        W 8773   5.494   2.851   9.713
 4710W        W 8774   8.442   2.122   1.671
 4711W        W 8775   8.458   9.751   0.266
 4712W        W 8776   6.445   9.349   0.358
 4713W        W 8777   6.963   4.652   4.346
 4714W        W 8778   8.550   3.808   9.853
 4715W        W 8779   3.234   2.334   1.440
 4716W        W 8780   1.379   5.207   1.382
 4717W        W 8781   0.174   0.697   3.206
 4718W        W 8782   7.896   5.000  11.043
 4719W        W 8783   0.702   4.979   9.777
 4720W        W 8784  10.281   5.667   9.630
 4721W        W 8785  10.159   3.609   8.482
 4722W        W 8786   9.120   4.737  10.646
 4723W        W 8787   7.617   0.417   0.359
 4724W        W 8788   5.269   4.058   2.292
 4725W        W 8789   9.812   9.851   3.133
 4726W        W 8790   1.954   8.298  11.021
 4727W        W 8791   9.252   4.054  11.803
 4728W        W 8792   1.401   5.552  10.046
 4729W        W 8793   2.193   8.447   9.619
 4730W        W 8794   8.444   6.433  11.283
 4731W        W 8795   8.332   8.334   3.031
 4732W        W 8796   7.688   9.974   1.301
 4733W        W 8797   7.078   3.579  10.175
 4734W        W 8798   9.396   6.007  10.899
 4735W        W 8799   7.786  10.238   1.733
 4736W        W 8800   4.729   5.821   9.524
 4737W        W 8801   6.180   6.254   2.285
 4738W        W 8802   7.524   2.179  10.251
 4739W        W 8803   6.608   0.220   0.695
 4740W        W 8804   6.159   0.923   8.424
 4741W        W 8805   7.377   0.879   0.400
 4742W        W 8806   9.593   3.868   9.819
 4743W        W 8807  10.390   9.210   2.040
 4744W        W 8808   6.131   8.048   1.897
 4745W        W 8809  10.208   1.558   0.336
 4746W        W 8810   7.104   5.088   0.183
 4747W        W 8811   8.595   3.061   2.299
 4748W        W 8812   2.812   5.186   9.041
 4749W        W 8813   8.249   6.205   9.933
 4750W        W 8814   4.211   6.719  10.568
 4751W        W 8815   3.634   3.665   8.925
 4752W        W 8816   0.775   3.585   8.689
 4753W        W 8817   4.316   3.306  10.452
 4754W        W 8818   3.684   6.722  10.066
 4755W        W 8819   0.700   0.742   3.187
 4756W        W 8820   2.783   8.349  10.863
 4757W        W 8821   4.665   4.930   9.341
 4758W        W 8822   5.523   5.866  10.759
 4759W        W 8823   5.310   5.055   1.946
 4760W        W 8824   7.520   0.769   9.603
 4761W        W 8825   5.149   6.213  11.043
 4762W        W 8826   6.561   6.128   3.024
 4763W        W 8827   5.490   1.339   9.468
 4764W        W 8828  10.429   3.514   0.462
 4765W        W 8829   2.478   5.234  11.501
 4766W        W 8830  10.154   3.945   3.690
 4767W        W 8831   9.393   6.622   2.213
 4768W        W 8832   2.648   1.187   9.503
 4769W        W 8833  10.407   9.121  10.892
 4770W        W 8834   0.875   3.113   0.063
 4771W        W 8835   4.646   6.377   3.682
 4772W        W 8836   2.448   5.158   0.001
 4773W        W 8837   7.753   0.652  10.081
 4774W        W 8838   0.879   0.263   3.625
 4775W        W 8839   3.122  10.428   1.423
 4776W        W 8840   8.402   7.264   2.459
 4777W        W 8841   8.459   7.581   2.828
 4778W        W 8842   0.848   7.657   0.351
 4779W        W 8843   0.929   9.510   0.920
 4780W        W 8844   0.925   9.865  11.266
 4781W        W 8845   8.739   9.784  11.806
 4782W        W 8846   1.058   6.329   2.791
 4783W        W 8847  10.440   9.971   0.907
 4784W        W 8848   4.577   2.985  11.427
 4785W        W 8849   1.836   0.881   2.924
 4786W        W 8850   1.704   2.553   2.358
 4787W        W 8851   5.988   0.529   0.133
 4788W        W 8852   8.063   4.879   1.148
 4789W        W 8853   2.674   2.431   2.391
 4790W        W 8854   0.285   3.644  10.514
 4791W        W 8855   3.641   6.216  10.057
 4792W        W 8856   6.570   5.229   0.891
 4793W        W 8857   6.578   5.923   9.544
 4794W        W 8858   6.692   8.687   0.850
 4795W        W 8859   2.333   0.745   2.856
 4796W        W 8860   6.766   9.117   0.028
 4797W        W 8861   1.742   3.150   8.917
 4798W        W 8862   4.978   7.351   9.975
 4799W        W 8863   1.914  10.019   0.278
 4800W        W 8864   8.998   1.615   8.393
 4801W        W 8865   6.560   0.676   2.204
 4802W        W 8866   9.593   6.622   3.144
 4803W        W 8867   2.261   3.409   8.846
 4804W        W 8868   1.770   7.455   0.175
 4805W        W 8869   1.312   6.116  10.452
 4806W        W 8870   3.840   4.634   8.824
 4807W        W 8871   3.744   8.559   9.053
 4808W        W 8872   4.076   2.389   8.946
 4809W        W 8873   1.198   7.972   9.664
 4810W        W 8874   4.294   4.829   8.107
 4811W        W 8875   3.936   2.743  10.870
 4812W        W 8876   4.027   0.002   1.828
 4813W        W 8877   6.571   9.975   1.275
 4814W        W 8878   7.022   6.205   2.192
 4815W        W 8879   4.294  10.044   9.476
 4816W        W 8880   3.661   0.815   0.687
 4817W        W 8881  10.406   3.571   0.983
 4818W        W 8882   1.235   1.076  11.557
 4819W        W 8883   9.586   7.873   0.794
 4820W        W 8884   5.539   3.455   8.965
 4821W        W 8885   7.009   2.423  11.560
 4822W        W 8886   0.991   4.201  11.327
 4823W        W 8887   9.457   0.029  10.711
 4824W        W 8888   1.243  10.220   9.902
 4825W        W 8889   4.336   0.495  11.340
 4826W        W 8890   2.713   9.974   9.936
 4827W        W 8891   4.148   2.927   3.160
 4828W        W 8892  10.459   9.429  10.512
 4829W        W 8893   3.282   8.426   1.578
 4830W        W 8894   3.365   3.183   2.631
 4831W        W 8895   3.248   5.115  10.245
 4832W        W 8896   5.237   0.010   2.289
 4833W        W 8897   9.494   1.870   1.501
 4834W        W 8898   4.143   8.916   3.297
 4835W        W 8899   2.343   5.288   8.802
 4836W        W 8900   7.936   8.453   0.116
 4837W        W 8901   0.484   4.328   9.288
 4838W        W 8902   4.667   7.020   3.983
 4839W        W 8903   9.871   4.669   0.761
 4840W        W 8904   8.146   9.036   1.813
 4841W        W 8905   0.682   9.877  10.819
 4842W        W 8906   5.184   0.423  11.665
 4843W        W 8907   4.965   7.075   9.546
 4844W        W 8908   9.750   4.162  11.803
 4845W        W 8909   1.317   5.815   8.531
 4846W        W 8910   5.725   9.884  10.341
 4847W        W 8911   2.358   4.598   2.268
 4848W        W 8912   4.126   6.925  10.017
 4849W        W 8913   6.937   4.417   1.054
 4850W        W 8914   5.739  10.064   0.018
 4851W        W 8915   9.405   3.015   8.616
 4852W        W 8916   8.114   4.342  11.310
 4853W        W 8917   6.622   9.936  10.373
 4854W        W 8918   5.484   3.594   3.969
 4855W        W 8919   2.947   6.424  11.868
 4856W        W 8920   6.832   7.131   3.541
 4857W        W 8921   2.345  10.472   2.295
 4858W        W 8922   9.735   2.173  10.244
 4859W        W 8923   6.974   4.619   0.548
 4860W        W 8924   3.689   9.500   2.169
 4861W        W 8925   0.260   4.186   3.033
 4862W        W 8926   3.081   0.446   8.921
 4863W        W 8927   0.702   6.672   1.895
 4864W        W 8928   6.645   2.587  11.909
 4865W        W 8929   6.356   9.158   3.709
 4866W        W 8930   4.700   1.833  10.063
 4867W        W 8931   0.672   3.700   2.491
 4868W        W 8932   4.477   0.335   8.928
 4869W        W 8933   0.878   6.350   0.886
 4870W        W 8934   0.338   2.324  11.003
 4871W        W 8935  10.376   0.852   0.966
 4872W        W 8936   3.608   3.670  11.936
 4873W        W 8937   7.573   8.774  11.946
 4874W        W 8938   8.519   1.362  10.072
 4875W        W 8939   7.117   7.625  10.642
 4876W        W 8940   0.354  10.026   1.211
 4877W        W 8941   5.131   6.910   0.281
 4878W        W 8942   4.919   0.040   1.404
 4879W        W 8943   4.341   7.010   1.827
 4880W        W 8944   6.453   0.296   9.851
 4881W        W 8945   0.772  10.384   0.358
 4882W        W 8946   8.384   3.153  10.337
 4883W        W 8947   2.987   5.310   0.889
 4884W        W 8948   5.973   3.217   2.690
 4885W        W 8949   2.437   6.483   9.439
 4886W        W 8950   4.962   3.218   3.495
 4887W        W 8951   6.935   0.791  10.392
 4888W        W 8952   6.347   4.596   2.085
 4889W        W 8953   1.892   8.432  10.519
 4890W        W 8954   2.634   0.725  11.393
 4891W        W 8955   7.974   1.575   8.432
 4892W        W 8956   9.457   6.717   1.340
 4893W        W 8957   0.984   0.245   1.372
 4894W        W 8958   7.184   7.694   2.234
 4895W        W 8959   5.135   7.586  10.407
 4896W        W 8960   9.427   9.531   1.525
 4897W        W 8961  10.499   8.498   1.292
 4898W        W 8962   7.394   6.674   2.899
 4899W        W 8963   8.665   2.233   8.861
 4900W        W 8964   8.218   9.966  11.882
 4901W        W 8965   2.162   2.553   8.556
 4902W        W 8966   6.633   4.931   1.783
 4903W        W 8967   0.168   8.489   0.807
 4904W        W 8968   9.269   2.762   2.750
 4905W        W 8969   4.412   6.176  11.440
 4906W        W 8970   3.123  10.313   0.483
 4907W        W 8971   8.948   1.183  10.789
 4908W        W 8972   2.802   1.263   8.628
 4909W        W 8973   8.863   2.611  10.432
 4910W        W 8974   7.791   4.990   9.187
 4911W        W 8975   0.842   4.459   9.639
 4912W        W 8976   6.414   2.852  10.440
 4913W        W 8977   0.228   8.984   0.659
 4914W        W 8978   6.458   1.141   2.401
 4915W        W 8979   5.914   3.652   4.247
 4916W        W 8980   6.456   7.393   2.615
 4917W        W 8981   7.543   3.764   2.980
 4918W        W 8982   9.643   3.224   1.771
 4919W        W 8983   9.377   1.808  11.255
 4920W        W 8984   9.457   7.777   0.295
 4921W        W 8985   1.466   8.785   0.129
 4922W        W 8986   7.038   5.471   9.190
 4923W        W 8987   0.039   4.158  10.511
 4924W        W 8988   7.692   8.085  10.385
 4925W        W 8989   0.788   7.087   3.308
 4926W        W 8990   0.626   9.832   2.143
 4927W        W 8991   2.199   1.294  11.009
 4928W        W 8992   3.290   6.010  11.873
 4929W        W 8993   0.026   3.319  11.103
 4930W        W 8994   8.559   3.312   1.200
 4931W        W 8995   4.492   6.468   1.719
 4932W        W 8996   5.984   2.612  10.445
 4933W        W 8997   1.704   7.998   2.782
 4934W        W 8998   6.964   9.485  10.001
 4935W        W 8999   7.203   6.569  11.214
 4936W        W 9000   2.486   7.550   2.747
 4937W        W 9001   7.275   1.687   0.965
 4938W        W 9002   6.243   4.507   3.399
 4939W        W 9003   6.022   0.428  10.108
 4940W        W 9004   0.144   4.716   1.979
 4941W        W 9005   0.532   4.057   3.446
 4942W        W 9006   9.949   3.518   0.263
 4943W        W 9007   7.961   7.206   1.885
 4944W        W 9008   4.703   4.047   3.780
 4945W        W 9009  10.045   9.056   2.380
 4946W        W 9010   8.567   4.964   8.427
 4947W        W 9011   7.473   4.139  10.445
 4948W        W 9012   2.233   1.144  11.867
 4949W        W 9013   0.781   3.687   2.002
 4950W        W 9014   9.100   1.667   1.201
 4951W        W 9015   4.431   4.206  11.890
 4952W        W 9016   5.574   1.395   1.548
 4953W        W 9017   7.472   0.754   2.624
 4954W        W 9018   6.647   4.699   3.657
 4955W        W 9019   0.999   8.996   1.656
 4956W        W 9020   1.987   6.252   9.470
 4957W        W 9021   3.700   2.669   3.272
 4958W        W 9022   2.344   4.259  10.031
 4959W        W 9023   7.610   7.958   3.228
 4960W        W 9024   8.846   8.922   3.145
 4961W        W 9025   0.176   4.763   0.296
 4962W        W 9026   2.771   4.816  11.651
 4963W        W 9027   6.241   8.364   9.789
 4964W        W 9028   1.035   3.547   2.862
 4965W        W 9029   6.852   8.974   2.213
 4966W        W 9030   2.676   8.510   1.684
 4967W        W 9031   6.955   3.822  11.318
 4968W        W 9032  10.285   8.909   3.410
 4969W        W 9033   1.967   2.549  11.837
 4970W        W 9034   5.614   0.882   9.199
 4971W        W 9035   7.524   8.731   2.806
 4972W        W 9036   0.843   4.307   3.140
 4973W        W 9037   5.426   3.298   9.934
 4974W        W 9038   3.080   4.076   2.885
 4975W        W 9039   7.839   4.525  11.696
 4976W        W 9040   1.382   2.994   2.147
 4977W        W 9041   7.599   9.780   1.970
 4978W        W 9042   0.796   3.158   0.568
 4979W        W 9043   3.600   6.435   2.717
 4980W        W 9044   2.759   9.070   0.694
 4981W        W 9045   9.151   6.557   3.424
 4982W        W 9046   5.472   0.608  10.696
 4983W        W 9047   0.874   9.857   2.586
 4984W        W 9048   7.561  10.057   8.715
 4985W        W 9049   4.210   7.768  11.624
 4986W        W 9050   2.012   0.948   2.427
 4987W        W 9051   2.168  10.084   1.436
 4988W        W 9052   3.631   1.935   2.617
 4989W        W 9053   7.443   4.276  10.928
 4990W        W 9054   7.200   1.802   8.968
 4991W        W 9055   8.568   6.843   1.189
 4992W        W 9056   7.939   2.708   2.232
 4993W        W 9057   9.443   5.573   9.774
 4994W        W 9058   4.626   7.866   1.907
 4995W        W 9059   4.821   0.331  11.303
 4996W        W 9060   6.400   0.856  10.465
 4997W        W 9061   1.629   2.819  10.443
 4998W        W 9062   0.684   1.650   3.291
 4999W        W 9063   4.543   7.150   9.818
 5000W        W 9064   2.030   3.085   8.493
 5001W        W 9065   9.800   5.920  10.582
 5002W        W 9066   4.843   7.576   9.532
 5003W        W 9067   3.431   6.583   9.276
 5004W        W 9068   0.483   2.560   0.317
 5005W        W 9069   1.861   4.218   8.769
 5006W        W 9070   2.234   1.608   8.886
 5007W        W 9071   2.708   3.804   9.782
 5008W        W 9072   4.822   1.173  11.382
 5009W        W 9073   1.648   5.186   0.704
 5010W        W 9074   9.907   6.112   9.123
 5011W        W 9075   9.022   4.227   2.025
 5012W        W 9076   9.211  10.094   9.407
 5013W        W 9077   6.511   9.473  10.233
 5014W        W 9078   8.286   4.535   8.548
 5015W        W 9079   8.823   2.078  11.627
 5016W        W 9080   8.102   9.255  10.114
 5017W        W 9081   9.957   2.144   3.233
 5018W        W 9082  10.209   5.651   9.099
 5019W        W 9083   7.097   6.770  10.332
 5020W        W 9084   9.973  10.280  10.513
 5021W        W 9085   2.249   0.771   8.540
 5022W        W 9086   4.747   6.004   0.519
 5023W        W 9087   8.101   6.730  10.536
 5024W        W 9088   1.192   1.904   3.192
 5025W        W 9089   8.476   5.498   1.692
 5026W        W 9090   5.546   3.348   2.943
 5027W        W 9091  10.270   7.500   2.783
 5028W        W 9092   8.832   4.244   2.906
 5029W        W 9093   0.186   5.655   9.279
 5030W        W 9094   7.615   4.612  10.274
 5031W        W 9095   6.244   0.202   1.515
 5032W        W 9096   4.301  10.040   1.763
 5033W        W 9097   7.979   9.564   0.112
 5034W        W 9098   6.475   4.561   9.938
 5035W        W 9099   9.280   8.363   9.695
 5036W        W 9100   4.163   2.229  10.881
 5037W        W 9101   0.339   4.957   1.191
 5038W        W 9102   3.876   7.207   1.913
 5039W        W 9103   1.607  10.367   1.838
 5040W        W 9104   4.706   7.431   2.803
 5041W        W 9105   8.869   9.816   8.844
 5042W        W 9106   2.102   7.193   2.926
 5043W        W 9107   1.830   1.381   3.213
 5044W        W 9108   8.067   2.137   0.414
 5045W        W 9109   7.016   6.257  10.349
 5046W        W 9110   0.714   4.339  11.751
 5047W        W 9111   5.939   7.840   0.002
 5048W        W 9112  10.347   0.929  10.509
 5049W        W 9113   9.964   6.022   1.413
 5050W        W 9114   7.517   3.620  10.481
 5051W        W 9115   1.439   0.062   0.984
 5052W        W 9116   5.942   6.598   0.276
 5053W        W 9117   2.679   7.453   0.174
 5054W        W 9118   0.216   4.095  10.044
 5055W        W 9119   5.940  10.042  11.549
 5056W        W 9120   9.313   7.894   9.442
 5057W        W 9121   4.428   0.378   8.395
 5058W        W 9122   7.938   7.678  11.338
 5059W        W 9123   6.140   5.920  11.828
 5060W        W 9124   1.846   8.966  11.706
 5061W        W 9125   6.440   6.943  11.510
 5062W        W 9126   4.738   3.383  11.697
 5063W        W 9127   8.478   2.200   2.275
 5064W        W 9128   6.902   5.148  11.239
 5065W        W 9129   5.572   7.877  11.334
 5066W        W 9130   9.391   3.720   1.927
 5067W        W 9131   2.938   0.638   2.080
 5068W        W 9132   5.289   0.456  11.157
 5069W        W 9133   2.874   8.568   0.734
 5070W        W 9134   4.064   1.544  10.585
 5071W        W 9135   1.832   4.920  11.599
 5072W        W 9136   2.808   0.149   2.252
 5073W        W 9137   4.152   0.787   0.895
 5074W        W 9138   6.147   6.756   2.350
 5075W        W 9139   3.684   6.116   0.239
 5076W        W 9140   8.811   5.977  10.864
 5077W        W 9141   7.903   9.922   3.334
 5078W        W 9142   4.125   7.490   3.532
 5079W        W 9143   2.584   7.132   3.064
 5080W        W 9144   2.742   1.245   1.496
 5081W        W 9145   1.968   7.516   0.817
 5082W        W 9146   1.242   5.754   2.827
 5083W        W 9147   8.494   7.434  11.106
 5084W        W 9148   3.932   6.782   2.890
 5085W        W 9149   6.994   7.628   0.072
 5086W        W 9150   7.934   0.087   2.079
 5087W        W 9151   0.236   2.329   2.365
 5088W        W 9152   7.979   0.915   2.821
 5089W        W 9153   5.795   3.440   8.488
 5090W        W 9154   5.275   4.629   3.187
 5091W        W 9155   6.497   1.972   2.793
 5092W        W 9156   6.643   0.672  11.777
 5093W        W 9157   1.911   9.913  11.324
 5094W        W 9158   4.711   0.904   1.672
 5095W        W 9159   9.873   8.358   1.901
 5096W        W 9160   7.550   5.713   2.594
 5097W        W 9161   0.308  10.401   3.484
 5098W        W 9162   8.152   1.822   2.185
 5099W        W 9163   8.996   1.170   1.236
 5100W        W 9164   3.853   6.472   4.108
 5101W        W 9165   6.864   3.183   8.801
 5102W        W 9166   8.710   0.402   2.528
 5103W        W 9167   1.146   6.874   1.800
 5104W        W 9168   7.940   0.941  10.460
 5105W        W 9169   9.055   9.484  11.460
 5106W        W 9170   5.060   1.266   0.905
 5107W        W 9171   9.928   0.454  11.286
 5108W        W 9172   5.942   1.064  10.496
 5109W        W 9173   9.975   6.537   1.345
 5110W        W 9174   5.577  10.203   1.423
 5111W        W 9175   7.455   2.896   0.448
 5112W        W 9176   8.616   1.684   8.763
 5113W        W 9177   6.097   9.919   2.193
 5114W        W 9178   2.290   4.662   0.253
 5115W        W 9179   1.695   8.769   0.600
 5116W        W 9180   0.322   1.181   9.053
 5117W        W 9181  10.298   5.273  11.876
 5118W        W 9182   4.044   6.659  11.933
 5119W        W 9183   8.258   0.958   9.476
 5120W        W 9184   4.323   1.764  10.953
 5121W        W 9185   5.725   5.279   1.127
 5122W        W 9186   1.680   3.160  10.070
 5123W        W 9187  10.109   7.871   3.102
 5124W        W 9188   5.577   8.881  11.199
 5125W        W 9189   4.722   0.275  10.116
 5126W        W 9190   3.644   2.451   9.578
 5127W        W 9191   3.635   2.231  11.578
 5128W        W 9192   0.500   6.344  10.774
 5129W        W 9193   9.000   0.377   1.712
 5130W        W 9194   7.132   6.684   0.217
 5131W        W 9195   7.548   9.485   1.284
 5132W        W 9196   1.639   2.538   9.568
 5133W        W 9197   1.375   6.107   8.941
 5134W        W 9198   2.475   4.148   0.371
 5135W        W 9199   0.896   8.990   2.183
 5136W        W 9200   2.290   0.567   1.413
 5137W        W 9201   6.430   9.344  11.256
 5138W        W 9202   1.536   8.614   3.654
 5139W        W 9203  10.183   6.997   1.868
 5140W        W 9204  10.365   9.317   9.506
 5141W        W 9205   0.735   9.420  11.054
 5142W        W 9206   2.496   5.121   0.922
 5143W        W 9207   0.809   2.386  11.254
 5144W        W 9208   4.173   1.229   1.179
 5145W        W 9209   6.012   5.719   0.396
 5146W        W 9210   2.247   4.243  11.854
 5147W        W 9211   9.078   8.793   0.060
 5148W        W 9212   9.458  10.015   0.227
 5149W        W 9213   4.783   6.560  11.216
 5150W        W 9214   9.365   2.253   1.872
 5151W        W 9215   1.728   7.144   9.371
 5152W        W 9216   3.888   5.484  10.802
 5153W        W 9217   4.627   3.761   0.043
 5154W        W 9218   4.354   4.281  10.425
 5155W        W 9219   2.830   0.936   9.063
 5156W        W 9220   5.298   6.245  11.881
 5157W        W 9221   4.200   0.306   1.225
 5158W        W 9222   3.174   2.371   0.568
 5159W        W 9223   8.924   1.646  10.591
 5160W        W 9224  10.361   3.729  10.226
 5161W        W 9225   6.289   9.024  10.376
 5162W        W 9226   9.576   3.299   9.054
 5163W        W 9227   1.728   9.033  10.293
 5164W        W 9228   6.109   3.636  11.294
 5165W        W 9229   0.818   1.189   3.404
 5166W        W 9230   3.535  10.489   1.722
 5167W        W 9231   4.979   9.452   8.743
 5168W        W 9232   0.353   9.102  11.769
 5169W        W 9233   2.240   8.747   8.817
 5170W        W 9234   0.359   1.299   1.243
 5171W        W 9235   6.455   3.829   1.506
 5172W        W 9236   2.813   5.940   2.591
 5173W        W 9237   0.208   5.465   2.807
 5174W        W 9238   0.890   4.435   2.650
 5175W        W 9239   3.526   2.163   9.995
 5176W        W 9240   4.668   6.094   9.065
 5177W        W 9241   7.018   6.375   0.877
 5178W        W 9242   8.103   8.680   2.173
 5179W        W 9243   5.164   7.217  10.884
 5180W        W 9244   8.956   1.576  11.102
 5181W        W 9245   9.782   4.430   8.687
 5182W        W 9246   0.367   1.425   2.202
 5183W        W 9247   1.314   7.644   2.794
 5184W        W 9248   0.476   5.999   0.161
 5185W        W 9249   6.230   6.524  10.585
 5186W        W 9250   8.290   3.648   1.837
 5187W        W 9251   9.010   6.080   9.446
 5188W        W 9252   0.642   5.369  10.525
 5189W        W 9253   2.202   0.254   8.554
 5190W        W 9254   1.656   8.683   2.335
 5191W        W 9255   5.635   8.509   0.709
 5192W        W 9256   5.214   6.020   0.317
 5193W        W 9257   4.533   1.928   3.196
 5194W        W 9258   4.090   3.759   9.860
 5195W        W 9259   2.910   6.043  11.516
 5196W        W 9260   0.877   1.388  11.740
 5197W        W 9261   6.282   1.682   0.960
 5198W        W 9262   8.212   0.375   2.436
 5199W        W 9263   9.482   7.082   2.972
 5200W        W 9264   3.183   8.064  10.568
 5201W        W 9265  10.157   2.155   9.911
 5202W        W 9266   7.715   8.989   0.387
 5203W        W 9267   5.838   6.528   1.387
 5204W        W 9268   4.567  10.055   1.304
 5205W        W 9269   7.123   8.575  11.038
 5206W        W 9270   1.454   6.111  11.791
 5207W        W 9271   8.678   5.576  11.196
 5208W        W 9272   2.205   7.853   9.214
 5209W        W 9273   4.219   4.042   3.574
 5210W        W 9274   1.654   9.983   3.207
 5211W        W 9275   7.129   4.103   8.451
 5212W        W 9276   8.050   9.442   9.124
 5213W        W 9277   1.946   5.030   0.115
 5214W        W 9278   4.291   8.374   2.253
 5215W        W 9279   0.426   4.167   2.550
 5216W        W 9280   5.398   6.374   1.701
 5217W        W 9281   7.341   9.013   1.312
 5218W        W 9282   7.714   3.749   1.027
 5219W        W 9283   1.346   4.737   2.745
 5220W        W 9284   4.261   6.185   9.388
 5221W        W 9285   6.093   3.041   1.201
 5222W        W 9286   6.167   9.993  10.580
 5223W        W 9287   7.644   1.833   9.320
 5224W        W 9288   8.100   7.578  11.871
 5225W        W 9289  10.249   1.856   9.497
 5226W        W 9290   5.073   5.046   2.387
 5227W        W 9291   5.792   8.172  10.494
 5228W        W 9292   9.208   5.527   8.788
 5229W        W 9293   1.722  10.290   1.309
 5230W        W 9294   2.678   2.285   9.274
 5231W        W 9295   7.732   6.036   0.473
 5232W        W 9296   4.349   8.585   1.297
 5233W        W 9297   6.883   3.950   1.232
 5234W        W 9298   9.443   5.643   3.171
 5235W        W 9299   5.094   8.604   0.112
 5236W        W 9300   4.823   2.287  10.249
 5237W        W 9301   9.335   1.996   2.948
 5238W        W 9302   2.397   2.780   2.135
 5239W        W 9303   8.765   1.168   2.478
 5240W        W 9304   1.440   9.518   3.092
 5241W        W 9305   7.207   0.570  10.848
 5242W        W 9306   0.807   4.183   2.205
 5243W        W 9307  10.230   4.497   2.151
 5244W        W 9308   5.432   6.042   3.364
 5245W        W 9309   8.629   0.488   0.668
 5246W        W 9310   4.514   4.043   9.322
 5247W        W 9311   6.595   7.430   0.352
 5248W        W 9312   1.480  10.202   0.071
 5249W        W 9313   0.845   2.155   8.490
 5250W        W 9314   2.942   8.101   1.855
 5251W        W 9315   8.477   6.479  10.320
 5252W        W 9316   2.115   4.210   1.868
 5253W        W 9317   4.845  10.101   8.399
 5254W        W 9318   2.037   1.841   1.086
 5255W        W 9319   0.365   3.429   9.465
 5256W        W 9320   9.465   3.297   0.888
 5257W        W 9321   4.959   7.804   1.117
 5258W        W 9322   6.518   3.754   3.490
 5259W        W 9323   9.910   3.054   9.844
 5260W        W 9324   0.483   5.062   1.690
 5261W        W 9325   2.199   2.011   8.580
 5262W        W 9326   9.076   8.673   2.303
 5263W        W 9327   9.520   0.023   9.461
 5264W        W 9328   6.447   8.212  11.837
 5265W        W 9329  10.436   9.757   9.834
 5266W        W 9330   9.670   2.155   9.734
 5267W        W 9331   8.929   0.669   1.272
 5268W        W 9332   9.426   7.434   9.614
 5269W        W 9333   4.863   1.353   0.451
 5270W        W 9334   2.006   6.166   2.724
 5271W        W 9335   6.097   2.232   2.619
 5272W        W 9336   9.763   9.490   0.414
 5273W        W 9337   9.894   1.206   3.027
 5274W        W 9338   3.399   2.812   1.411
 5275W        W 9339   1.775   5.152   2.198
 5276W        W 9340   4.601   3.636   3.490
 5277W        W 9341   4.614   0.943   0.665
 5278W        W 9342   7.598   8.845   3.295
 5279W        W 9343   1.681   5.735  11.502
 5280W        W 9344   4.839   4.379   9.589
 5281W        W 9345   5.547   7.436   0.757
 5282W        W 9346   7.802   8.014  10.936
 5283W        W 9347   3.183   5.557   8.922
 5284W        W 9348   3.920   6.147  11.355
 5285W        W 9349   9.272  10.447   1.791
 5286W        W 9350   6.991   0.799   2.441
 5287W        W 9351   5.208   7.036   2.665
 5288W        W 9352   0.467   6.855   1.457
 5289W        W 9353   2.928   3.204   3.479
 5290W        W 9354   0.885   2.391   2.672
 5291W        W 9355  10.005   4.113  11.356
 5292W        W 9356   0.095   6.034   8.419
 5293W        W 9357   5.048   7.054   3.456
 5294W        W 9358   9.729   2.895   2.972
 5295W        W 9359   7.398  10.012  11.482
 5296W        W 9360  10.422   3.097   0.754
 5297W        W 9361   9.438   9.502   1.001
 5298W        W 9362   4.624   8.118   0.902
 5299W        W 9363   8.879   9.957   0.496
 5300W        W 9364   4.281   0.411   9.899
 5301W        W 9365   8.459   5.413   9.496
 5302W        W 9366  10.428   2.134   9.092
 5303W        W 9367   2.566   9.673   2.285
 5304W        W 9368   5.274   7.407   1.191
 5305W        W 9369   1.735   6.167   0.760
 5306W        W 9370   9.506   0.497  10.987
 5307W        W 9371  10.044   8.843   1.877
 5308W        W 9372   9.727   0.811   9.453
 5309W        W 9373   9.307   5.978   2.812
 5310W        W 9374   5.218   8.281   1.935
 5311W        W 9375   2.151   0.421   9.354
 5312W        W 9376   4.015  10.238   1.376
 5313W        W 9377   0.322   0.300  10.256
 5314W        W 9378   4.060   4.992   1.310
 5315W        W 9379   3.190   0.869   0.446
 5316W        W 9380  10.058   2.399   8.817
 5317W        W 9381  10.282   5.188   3.392
 5318W        W 9382   9.065   3.227   0.408
 5319W        W 9383   6.972  10.444  10.960
 5320W        W 9384   4.058   4.461   1.346
 5321W        W 9385   6.039   9.026  11.357
 5322W        W 9386   1.974   4.240  10.403
 5323W        W 9387   7.572   1.446  11.636
 5324W        W 9388   2.898   9.831   0.470
 5325W        W 9389   7.654   5.237   2.706
 5326W        W 9390   0.938   8.417   8.866
 5327W        W 9391  10.301   4.529  11.360
 5328W        W 9392   0.755   4.512   1.348
 5329W        W 9393   3.066   0.978   9.699
 5330W        W 9394   1.183   8.880   8.945
 5331W        W 9395   7.486   3.810   2.434
 5332W        W 9396   5.232   5.860  11.375
 5333W        W 9397   4.345   7.079   2.851
 5334W        W 9398   7.492   3.718   3.497
 5335W        W 9399   0.269   3.087   3.164
 5336W        W 9400   7.482   7.001   1.951
 5337W        W 9401   2.701   6.502   3.217
 5338W        W 9402   5.132   2.599   2.857
 5339W        W 9403   2.369   6.871   0.616
 5340W        W 9404   9.010   6.934   3.080
 5341W        W 9405   8.357   0.885   0.487
 5342W        W 9406   5.365   6.522   1.203
 5343W        W 9407   2.271   7.549   2.223
 5344W        W 9408   5.040   9.491  11.237
 5345W        W 9409   9.818   0.745   3.201
 5346W        W 9410   9.367   2.870   1.183
 5347W        W 9411   0.798   7.425   9.958
 5348W        W 9412   5.163   4.734   8.726
 5349W        W 9413   6.440   1.368   8.999
 5350W        W 9414   1.508   2.770   1.259
 5351W        W 9415   9.410   8.528  10.361
 5352W        W 9416   0.651   6.462   0.026
 5353W        W 9417   1.377   8.453   9.179
 5354W        W 9418   7.561   7.067   1.169
 5355W        W 9419   4.273   6.769   4.236
 5356W        W 9420   0.489   0.350   1.438
 5357W        W 9421   8.163   8.015  10.557
 5358W        W 9422   4.140   6.148  11.900
 5359W        W 9423   7.968   5.871   9.053
 5360W        W 9424   9.956   7.854   1.791
 5361W        W 9425   5.604   8.947  10.669
 5362W        W 9426   7.832   1.389   1.981
 5363W        W 9427   0.128   0.257   2.938
 5364W        W 9428   1.266   3.669   1.540
 5365W        W 9429   8.403   7.007   0.723
 5366W        W 9430   1.269   7.032   9.500
 5367W        W 9431   4.116   5.355   8.887
 5368W        W 9432   6.140   3.532   2.258
 5369W        W 9433   9.848   2.738   1.986
 5370W        W 9434   6.548   6.164   0.826
 5371W        W 9435   9.404   4.731   9.293
 5372W        W 9436   1.558   1.305   0.547
 5373W        W 9437   9.469   5.629  11.277
 5374W        W 9438   0.767   2.987  10.539
 5375W        W 9439   2.433   5.603   3.234
 5376W        W 9440   0.636   9.389   2.401
 5377W        W 9441   2.419   0.372   9.793
 5378W        W 9442   9.965   1.871   1.284
 5379W        W 9443   2.244   7.301  11.901
 5380W        W 9444   6.942   3.781  11.841
 5381W        W 9445   4.609   8.315   3.187
 5382W        W 9446   5.607   9.838  10.871
 5383W        W 9447   8.354   6.575   9.008
 5384W        W 9448   8.819   9.851  10.265
 5385W        W 9449   4.537   9.069   1.153
 5386W        W 9450   3.194   9.181   1.020
 5387W        W 9451   3.693   8.053   8.950
 5388W        W 9452   5.975   3.590   3.546
 5389W        W 9453   8.370   0.057   0.848
 5390W        W 9454   2.010   9.416   0.351
 5391W        W 9455   4.729   1.494  11.010
 5392W        W 9456   2.322   9.193   2.283
 5393W        W 9457   6.599   4.819  10.908
 5394W        W 9458   0.280   7.454  11.017
 5395W        W 9459   9.246   1.894   0.497
 5396W        W 9460   4.175   0.461   1.753
 5397W        W 9461   2.306   4.379   8.554
 5398W        W 9462   4.117   3.556   2.295
 5399W        W 9463   7.418   6.465   8.460
 5400W        W 9464   2.921   0.363   9.841
 5401W        W 9465   4.734   7.059   8.939
 5402W        W 9466   0.787   3.118   9.486
 5403W        W 9467   0.036   1.168   0.345
 5404W        W 9468   7.501   5.676   9.132
 5405W        W 9469   1.276   1.904   0.860
 5406W        W 9470   5.154   8.965  10.461
 5407W        W 9471  10.403   0.054  10.922
 5408W        W 9472   3.159   7.707   2.251
 5409W        W 9473   2.855   6.133   9.349
 5410W        W 9474   7.068   6.949  10.855
 5411W        W 9475   0.356   5.021  10.770
 5412W        W 9476   3.757   1.273   0.868
 5413W        W 9477   9.085   0.263   0.814
 5414W        W 9478   7.935   3.356  10.209
 5415W        W 9479   8.123   2.758   9.021
 5416W        W 9480   9.876   9.779  10.615
 5417W        W 9481   4.299   8.789   8.282
 5418W        W 9482   6.272  10.306   9.815
 5419W        W 9483  10.318   4.746   9.299
 5420W        W 9484   3.192   6.263   0.287
 5421W        W 9485   5.032   3.841   1.888
 5422W        W 9486  10.212   5.741  11.727
 5423W        W 9487   3.324   5.264   2.253
 5424W        W 9488   1.235   6.556   9.695
 5425W        W 9489   1.683   7.855  10.921
 5426W        W 9490   7.263   7.194   9.990
 5427W        W 9491   5.753   1.778  10.755
 5428W        W 9492   3.041   3.259   9.977
 5429W        W 9493   7.309   6.091   9.946
 5430W        W 9494   6.425   1.207   0.850
 5431W        W 9495   7.551   0.218  11.869
 5432W        W 9496   1.961   9.365   2.819
 5433W        W 9497   8.686   7.007   3.462
 5434W        W 9498   0.451   6.878   2.964
 5435W        W 9499   6.189   0.145   9.409
 5436W        W 9500   1.886   7.591   9.513
 5437W        W 9501   7.149   4.553  10.496
 5438W        W 9502   5.232   2.656   2.358
 5439W        W 9503   5.676   3.908   9.146
 5440W        W 9504   4.311   9.987   8.946
 5441W        W 9505   3.399   7.423   1.845
 5442W        W 9506   5.667   0.286  11.448
 5443W        W 9507   1.256   7.080  10.037
 5444W        W 9508   7.467   8.271  11.909
 5445W        W 9509   2.911   1.035   2.440
 5446W        W 9510   0.069   7.532   0.192
 5447W        W 9511   5.048   7.550   3.497
 5448W        W 9512   1.248   3.730   9.592
 5449W        W 9513   4.685   4.720   2.450
 5450W        W 9514   4.211   9.369   0.871
 5451W        W 9515   3.198   1.452   9.593
 5452W        W 9516   3.203   7.080   3.574
 5453W        W 9517   1.158   5.387   1.868
 5454W        W 9518  10.027   7.037   9.580
 5455W        W 9519   9.677   7.651   8.254
 5456W        W 9520   7.510   8.165   9.903
 5457W        W 9521  10.070   6.391   3.242
 5458W        W 9522   6.529   0.243  11.435
 5459W        W 9523   1.968   4.766   8.956
 5460W        W 9524   5.644   0.906   1.685
 5461W        W 9525   2.420  10.478  10.538
 5462W        W 9526   0.142   9.805   2.338
 5463W        W 9527   2.617   4.287   2.801
 5464W        W 9528   6.103   8.805  11.838
 5465W        W 9529   4.702   6.029   1.525
 5466W        W 9530   7.530   4.264   2.831
 5467W        W 9531   5.274   3.595   0.947
 5468W        W 9532   4.578   5.903   3.798
 5469W        W 9533   9.932   9.719   3.594
 5470W        W 9534   3.427   1.829   1.370
 5471W        W 9535   4.426   5.675   1.279
 5472W        W 9536   7.693   9.968   9.584
 5473W        W 9537   6.048   9.488  10.486
 5474W        W 9538   8.470   7.175   8.540
 5475W        W 9539   8.524   8.058   2.686
 5476W        W 9540   2.874   7.579   1.828
 5477W        W 9541   1.868   1.325   3.719
 5478W        W 9542   3.607   9.183   0.279
 5479W        W 9543   1.412   7.097   1.013
 5480W        W 9544   1.685   0.211   9.373
 5481W        W 9545   6.723   6.564  10.765
 5482W        W 9546   5.631   9.832   9.364
 5483W        W 9547   0.339   0.970   9.525
 5484W        W 9548  10.460   6.166   0.978
 5485W        W 9549   5.070   6.158  10.567
 5486W        W 9550   0.108   9.184  11.338
 5487W        W 9551   7.089   7.141   1.384
 5488W        W 9552   4.982  10.423   8.800
 5489W        W 9553   3.747   6.188   9.179
 5490W        W 9554   3.331   0.469   1.170
 5491W        W 9555   4.808   2.913  10.989
 5492W        W 9556   2.742   3.234  11.264
 5493W        W 9557   6.507   9.883   2.996
 5494W        W 9558   4.249   9.541  11.381
 5495W        W 9559   0.720   9.125   0.645
 5496W        W 9560   9.014   2.145   8.461
 5497W        W 9561   9.957   6.634   9.906
 5498W        W 9562   5.159  10.007  11.105
 5499W        W 9563   7.052   2.659   2.786
 5500W        W 9564   3.797   2.941   9.666
 5501W        W 9565   3.220   2.368  11.285
 5502W        W 9566   6.567   3.765   8.918
 5503W        W 9567   1.032   7.898  11.911
 5504W        W 9568  10.333   3.154  10.120
 5505W        W 9569   3.077   2.790   2.273
 5506W        W 9570   0.475   5.635   2.378
 5507W        W 9571   7.743   1.552   1.059
 5508W        W 9572   1.143   9.729   9.739
 5509W        W 9573   2.165   6.119   9.945
 5510W        W 9574   9.268   6.533   8.725
 5511W        W 9575   0.173   5.992   3.418
 5512W        W 9576   8.080   6.457   0.438
 5513W        W 9577   7.546   1.923   1.349
 5514W        W 9578   9.837   3.369   3.070
 5515W        W 9579   5.431   2.968   8.875
 5516W        W 9580   6.039   6.606   1.858
 5517W        W 9581   6.167   0.857   3.040
 5518W        W 9582   7.582   1.591   9.759
 5519W        W 9583   0.439   6.485  11.262
 5520W        W 9584   6.294   6.143   0.340
 5521W        W 9585   3.808   3.160   2.362
 5522W        W 9586   2.834   0.445   1.318
 5523W        W 9587   3.732   9.521  11.306
 5524W        W 9588   0.680   3.650   3.688
 5525W        W 9589   7.959   6.687   1.823
 5526W        W 9590   9.271   2.860   9.107
 5527W        W 9591   1.294   0.990   9.516
 5528W        W 9592   1.379   1.486   9.534
 5529W        W 9593   1.843   3.790  11.266
 5530W        W 9594   9.068   5.284  11.423
 5531W        W 9595   4.227   8.014   0.154
 5532W        W 9596   5.076   4.092   2.804
 5533W        W 9597   3.735   3.299   9.289
 5534W        W 9598   6.078   3.259   0.189
 5535W        W 9599   3.536   8.016   2.411
 5536W        W 9600   3.327   0.690  10.632
 5537W        W 9601   0.122   7.069   0.884
 5538W        W 9602   4.500   7.592   0.050
 5539W        W 9603   1.884   0.819  10.423
 5540W        W 9604   7.495   5.489   4.093
 5541W        W 9605   1.788   6.660   0.597
 5542W        W 9606   3.945   5.534   1.138
 5543W        W 9607   8.598   8.829   2.249
 5544W        W 9608   5.058   4.901  11.482
 5545W        W 9609   9.076   5.759  11.583
 5546W        W 9610   5.259   6.424   9.961
 5547W        W 9611   5.716   6.419   0.870
 5548W        W 9612   2.436  10.408   3.481
 5549W        W 9613   2.481   0.866  10.933
 5550W        W 9614   1.040   5.681  10.457
 5551W        W 9615   7.126   2.236   2.014
 5552W        W 9616   3.987   0.313  10.941
 5553W        W 9617   7.456   6.290   2.467
 5554W        W 9618   2.274   1.933   9.295
 5555W        W 9619   5.936   7.559   3.551
 5556W        W 9620   4.420  10.339   0.504
 5557W        W 9621   4.151   6.635   8.628
 5558W        W 9622   5.744   2.529  11.828
 5559W        W 9623   6.968   7.145   9.521
 5560W        W 9624   7.417   2.239  10.738
 5561W        W 9625   6.442   5.666   0.138
 5562W        W 9626   3.349   9.570   8.509
 5563W        W 9627   2.171   5.918   0.875
 5564W        W 9628   5.990   2.816   0.433
 5565W        W 9629   6.479   2.459   8.553
 5566W        W 9630   0.824   2.819   2.377
 5567W        W 9631   2.068   8.455   0.728
 5568W        W 9632   4.213   6.105   0.433
 5569W        W 9633   5.723   1.274  10.926
 5570W        W 9634   6.401   9.124   0.913
 5571W        W 9635   0.072   6.399   3.096
 5572W        W 9636   5.166   1.814   8.837
 5573W        W 9637   5.901   0.959   0.439
 5574W        W 9638   2.070   9.979   3.476
 5575W        W 9639   4.672   9.429  10.571
 5576W        W 9640   7.045   8.582   1.264
 5577W        W 9641   1.711   8.557   9.537
 5578W        W 9642   8.052   7.885   2.948
 5579W        W 9643   6.106   0.490  11.125
 5580W        W 9644   1.165   0.424   0.179
 5581W        W 9645   1.511   4.259   0.254
 5582W        W 9646   9.294   4.644   3.545
 5583W        W 9647   3.147   3.621   9.575
 5584W        W 9648   8.896   8.807  11.547
 5585W        W 9649   9.777   7.435   0.715
 5586W        W 9650   3.282   1.571  10.873
 5587W        W 9651   7.396   1.635   0.468
 5588W        W 9652   5.913   8.034   2.346
 5589W        W 9653   6.994   2.765   9.751
 5590W        W 9654   2.655   2.865   0.972
 5591W        W 9655   3.036   9.789   3.171
 5592W        W 9656   9.592   7.188   2.489
 5593W        W 9657   8.200   6.247   3.551
 5594W        W 9658   4.707   0.331  11.955
 5595W        W 9659   0.259   5.425   1.373
 5596W        W 9660   5.983   7.991   1.407
 5597W        W 9661   6.564   3.640  11.032
 5598W        W 9662   7.107   1.363   3.174
 5599W        W 9663   9.984   7.060   2.824
 5600W        W 9664   9.822   0.984  11.221
 5601W        W 9665   5.228   3.153   9.383
 5602W        W 9666   9.333   6.058   8.967
 5603W        W 9667   1.323   9.960   1.907
 5604W        W 9668   6.971   8.104  11.829
 5605W        W 9669   3.131   6.664   0.556
 5606W        W 9670   7.281  10.395  10.041
 5607W        W 9671   7.516   2.375   1.141
 5608W        W 9672   6.583   2.117   9.994
 5609W        W 9673   9.461   1.052   0.931
 5610W        W 9674   2.249   9.135  10.101
 5611W        W 9675   8.082   1.407  11.850
 5612W        W 9676   5.641   3.402   2.361
 5613W        W 9677   3.812   5.959   9.626
 5614W        W 9678  10.452   1.957   0.049
 5615W        W 9679   4.148   1.314   2.237
 5616W        W 9680   4.686   9.293   1.976
 5617W        W 9681   7.846   5.605   0.199
 5618W        W 9682   5.548   8.914   2.503
 5619W        W 9683   0.795   5.184  10.989
 5620W        W 9684   8.984   4.584   0.764
 5621W        W 9685   5.247   9.983   9.082
 5622W        W 9686   0.216   6.944   0.371
 5623W        W 9687   8.022   4.524   9.059
 5624W        W 9688   0.262   2.827   2.372
 5625W        W 9689   7.462   3.140  10.257
 5626W        W 9690   1.434   9.203   3.852
 5627W        W 9691   2.264  10.040  10.922
 5628W        W 9692   8.889   8.835   1.356
 5629W        W 9693   6.557   7.853   2.852
 5630W        W 9694   0.931   8.629   0.130
 5631W        W 9695   4.186   6.104   1.475
 5632W        W 9696   6.562   8.665   0.003
 5633W        W 9697   2.427   1.728   0.190
 5634W        W 9698   0.172   9.908   8.860
 5635W        W 9699   7.568   8.032   2.240
 5636W        W 9700   2.279   5.104   1.999
 5637W        W 9701   2.727   3.570  10.275
 5638W        W 9702   5.283   2.642   1.182
 5639W        W 9703   5.935   9.012   1.188
 5640W        W 9704   7.904   3.228   3.524
 5641W        W 9705   4.674   7.939  11.712
 5642W        W 9706   1.958   8.926   0.202
 5643W        W 9707  10.475   0.249   9.366
 5644W        W 9708   4.983   4.464  10.102
 5645W        W 9709   0.463  10.377   2.917
 5646W        W 9710   4.581   2.852   3.475
 5647W        W 9711   7.261   3.178   1.543
 5648W        W 9712   8.412   8.130   9.833
 5649W        W 9713   1.571   8.550  11.300
 5650W        W 9714   0.858   7.984   1.227
 5651W        W 9715   8.161   3.645   1.223
 5652W        W 9716   1.925   7.869   1.973
 5653W        W 9717   2.868   9.411   1.391
 5654W        W 9718   8.502   2.444   1.253
 5655W        W 9719   1.837   1.186   9.751
 5656W        W 9720   3.319   5.035   1.781
 5657W        W 9721   7.067   5.968   9.080
 5658W        W 9722   0.119   5.393  10.510
 5659W        W 9723   6.077  10.276   1.701
 5660W        W 9724   4.083   2.908  11.378
 5661W        W 9725   6.417   9.278   9.351
 5662W        W 9726   6.917   8.958  11.293
 5663W        W 9727   3.475   2.206   1.020
 5664W        W 9728   3.340   6.732  11.752
 5665W        W 9729   0.597   4.981  11.417
 5666W        W 9730  10.367   5.427  11.357
 5667W        W 9731   5.542   4.122   1.846
 5668W        W 9732   0.831   2.306   3.183
 5669W        W 9733   5.224   7.054   9.113
 5670W        W 9734   3.261   5.168   9.285
 5671W        W 9735   0.488   8.260   9.085
 5672W        W 9736   1.003   7.370   0.787
 5673W        W 9737   1.010   2.133   0.225
 5674W        W 9738   7.859   6.648   0.006
 5675W        W 9739   9.331   0.586   3.132
 5676W        W 9740   4.583   4.523   3.939
 5677W        W 9741   6.425   0.157  11.959
 5678W        W 9742  10.490   3.929   0.154
 5679W        W 9743   6.085   9.325  10.001
 5680W        W 9744   4.576   5.321   9.679
 5681W        W 9745   8.546   5.895   9.572
 5682W        W 9746   9.902   8.286  11.978
 5683W        W 9747   5.657   1.811   8.977
 5684W        W 9748   1.243   0.316  11.033
 5685W        W 9749   3.233   8.346   8.852
 5686W        W 9750   9.470   7.836  10.974
 5687W        W 9751   9.931   9.794   1.685
 5688W        W 9752   5.703   3.476  10.349
 5689W        W 9753   7.353   3.123   8.883
 5690W        W 9754   1.839   7.906   0.471
 5691W        W 9755   1.355   3.829   1.050
 5692W        W 9756   5.144   8.640   0.628
 5693W        W 9757   0.748   0.887  11.546
 5694W        W 9758   1.407   0.235   9.885
 5695W        W 9759   8.147   5.994   1.343
 5696W        W 9760   9.493   5.715   1.230
 5697W        W 9761   0.877   5.425  10.029
 5698W        W 9762   3.662   5.896   3.632
 5699W        W 9763   3.515  10.304   9.381
 5700W        W 9764   7.686   1.793   8.818
 5701W        W 9765   1.301   4.959  10.964
 5702W        W 9766   7.733   6.345   9.756
 5703W        W 9767   5.086   3.643   1.408
 5704W        W 9768   1.216  10.262   1.398
 5705W        W 9769   6.614   3.258   3.279
 5706W        W 9770   0.824   3.980   9.465
 5707W        W 9771   1.330   7.846  10.555
 5708W        W 9772   3.410   7.543   2.693
 5709W        W 9773   2.817   4.076  10.200
 5710W        W 9774   1.667   2.796  11.506
 5711W        W 9775   0.856   6.471  11.567
 5712W        W 9776   5.460   8.415   3.182
 5713W        W 9777   2.173   3.283   1.790
 5714W        W 9778   5.992   5.442  11.982
 5715W        W 9779   7.660   0.104   0.764
 5716W        W 9780   2.136   9.326   9.618
 5717W        W 9781   7.663   1.218   0.659
 5718W        W 9782   3.710   3.624   1.659
 5719W        W 9783   7.125  10.456   3.156
 5720W        W 9784   5.683   0.786  11.136
 5721W        W 9785   7.991   2.624   0.251
 5722W        W 9786   3.327   0.730  11.464
 5723W        W 9787   8.765   2.300   9.887
 5724W        W 9788   2.771   1.484   9.899
 5725W        W 9789   6.946   4.975  10.266
 5726W        W 9790   4.426   5.159   3.641
 5727W        W 9791   1.244   9.290   1.262
 5728W        W 9792   2.404   5.670   9.958
 5729W        W 9793   3.210   3.315   9.118
 5730W        W 9794   9.131   3.282   1.899
 5731W        W 9795   5.498   3.721   0.512
 5732W        W 9796   0.197   9.569  11.952
 5733W        W 9797   5.105   3.150   1.169
 5734W        W 9798   5.679   6.433   3.141
 5735W        W 9799  10.334   7.190  10.855
 5736W        W 9800   9.877   9.049   1.452
 5737W        W 9801   6.884   9.929   2.616
 5738W        W 9802   4.608   2.383   0.698
 5739W        W 9803   1.346   0.874   0.350
 5740W        W 9804   6.148   0.063  10.767
 5741W        W 9805   3.761   5.011   2.146
 5742W        W 9806   1.180   0.902   3.186
 5743W        W 9807   3.879   0.895  11.188
 5744W        W 9808   7.434   9.561   9.762
 5745W        W 9809   7.033   8.150  11.309
 5746W        W 9810  10.064  10.442   2.873
 5747W        W 9811   1.847   1.689   9.591
 5748W        W 9812   4.739  10.458   9.667
 5749W        W 9813   6.310   9.893   8.677
 5750W        W 9814   2.859   7.581   9.345
 5751W        W 9815   2.415   6.113  11.468
 5752W        W 9816   7.605   5.382   2.173
 5753W        W 9817   4.558   3.106   1.825
 5754W        W 9818   8.984   0.398   9.131
 5755W        W 9819   8.320   2.230  10.259
 5756W        W 9820   9.157  10.318   1.285
 5757W        W 9821   6.970   6.098  10.822
 5758W        W 9822   4.442   7.741   1.235
 5759W        W 9823   9.485   2.206   3.436
 5760W        W 9824   4.157   6.990   3.322
 5761W        W 9825   4.592   8.814   2.146
 5762W        W 9826   2.152   2.397   9.550
 5763W        W 9827   4.669   8.380  11.446
 5764W        W 9828   4.526   5.477   9.208
 5765W        W 9829   5.178   0.954  10.933
 5766W        W 9830   9.463   4.884   2.936
 5767W        W 9831  10.429   2.860   3.473
 5768W        W 9832   4.624   0.441   1.516
 5769W        W 9833   3.449   5.602   8.167
 5770W        W 9834   8.608   0.978   0.916
 5771W        W 9835   1.465   9.284   8.768
 5772W        W 9836   2.213   6.413   0.784
 5773W        W 9837   2.908   4.798   0.869
 5774W        W 9838   8.095   8.532   1.127
 5775W        W 9839   8.868   7.414  10.243
 5776W        W 9840   0.977  10.201  10.555
 5777W        W 9841   7.350   4.110   1.028
 5778W        W 9842   1.163   6.517  11.996
 5779W        W 9843   2.487   9.595  10.769
 5780W        W 9844   7.094   9.929  10.217
 5781W        W 9845   3.081   7.998   9.548
 5782W        W 9846   0.419   5.219   9.394
 5783W        W 9847   9.047   7.958   3.346
 5784W        W 9848   0.307   8.606  11.919
 5785W        W 9849   7.534   5.540   3.592
 5786W        W 9850   0.535   8.630  10.610
 5787W        W 9851   8.376   9.467   1.932
 5788W        W 9852   8.946   6.624  11.499
 5789W        W 9853   0.865   2.153   9.023
 5790W        W 9854   7.480   6.492   1.990
 5791W        W 9855   4.536   4.141   1.302
 5792W        W 9856   0.464   4.558  10.536
 5793W        W 9857   3.711   0.793   2.758
 5794W        W 9858   5.523   3.315  10.848
 5795W        W 9859   2.502   1.734  11.337
 5796W        W 9860   2.375   0.297   1.862
 5797W        W 9861   3.182   5.269   3.236
 5798W        W 9862   4.229  10.207  11.728
 5799W        W 9863   0.572   4.589   3.474
 5800W        W 9864   9.148   6.636  10.573
 5801W        W 9865  10.274   7.205   0.476
 5802W        W 9866   0.723   6.076   9.845
 5803W        W 9867   0.183   8.135   0.086
 5804W        W 9868   2.127   2.101   0.025
 5805W        W 9869   3.681   5.038   4.230
 5806W        W 9870   4.631   5.727   2.431
 5807W        W 9871   7.530   2.633   0.002
 5808W        W 9872   8.994   9.423  10.484
 5809W        W 9873   9.994  10.232  11.054
 5810W        W 9874   3.345   8.382   0.611
 5811W        W 9875   0.957  10.396   0.974
 5812W        W 9876   8.453   1.752  10.410
 5813W        W 9877   3.155   4.795   0.384
 5814W        W 9878   5.651   2.300   2.890
 5815W        W 9879   0.500   1.126  10.504
 5816W        W 9880   3.641   8.157   3.378
 5817W        W 9881   9.361   9.429   0.056
 5818W        W 9882   1.751   3.751  10.279
 5819W        W 9883   6.227   7.672  11.122
 5820W        W 9884   2.613  10.382   1.330
 5821W        W 9885   9.096   9.876   0.948
 5822W        W 9886   0.667   8.231  11.969
 5823W        W 9887   9.977   4.622  11.793
 5824W        W 9888   1.480   3.449   2.516
 5825W        W 9889   3.801   9.323   2.669
 5826W        W 9890   3.072   9.595   9.888
 5827W        W 9891   0.341   3.920   9.596
 5828W        W 9892   1.379   3.740   9.105
 5829W        W 9893   0.874   8.574   1.389
 5830W        W 9894   4.033   7.500   8.957
 5831W        W 9895   3.333   0.466   0.161
 5832W        W 9896   9.460   9.989   1.747
 5833W        W 9897   2.314   5.975   0.369
 5834W        W 9898   3.814   0.424  11.954
 5835W        W 9899   1.111   9.944   3.495
 5836W        W 9900   9.510   3.443  11.017
 5837W        W 9901   2.116   4.357   2.790
 5838W        W 9902   5.024   7.103   8.540
 5839W        W 9903   4.229   1.798   9.815
 5840W        W 9904   0.493  10.297   0.788
 5841W        W 9905   2.680   5.946  10.792
 5842W        W 9906   0.785   0.322   9.980
 5843W        W 9907   6.566   1.644  11.838
 5844W        W 9908   4.560   5.079   3.088
 5845W        W 9909   3.934   5.043   3.758
 5846W        W 9910   1.940   4.701   1.982
 5847W        W 9911   1.852   7.030   8.884
 5848W        W 9912   8.284   2.361   9.762
 5849W        W 9913   4.651   5.015  11.759
 5850W        W 9914   5.129   4.967  10.102
 5851W        W 9915   0.214   7.030   1.867
 5852W        W 9916  10.286   0.068   2.091
 5853W        W 9917   6.784   6.996   9.979
 5854W        W 9918   1.055   3.974  10.413
 5855W        W 9919   6.940   4.532   1.958
 5856W        W 9920   5.962   6.446   2.708
 5857W        W 9921   1.961   9.772   9.441
 5858W        W 9922   3.064  10.009  11.982
 5859W        W 9923   2.578   6.603  11.570
 5860W        W 9924   4.721   0.729  11.628
 5861W        W 9925   7.131   1.712   9.990
 5862W        W 9926   2.602  10.289   1.842
 5863W        W 9927  10.067   9.536   2.806
 5864W        W 9928   2.163   2.287   2.314
 5865W        W 9929   1.298   3.102  11.354
 5866W        W 9930   3.752   9.336   9.465
 5867W        W 9931   0.510  10.483  11.868
 5868W        W 9932   0.965   3.361  11.623
 5869W        W 9933  10.318   7.945   9.733
 5870W        W 9934   6.131   6.628   9.486
 5871W        W 9935   0.491   5.729  10.181
 5872W        W 9936   6.714   5.026   4.067
 5873W        W 9937   7.847   3.107   0.199
 5874W        W 9938   3.766   7.142   0.368
 5875W        W 9939   6.481   4.085  10.211
 5876W        W 9940   7.706   8.407   3.528
 5877W        W 9941   6.620   2.616  10.049
 5878W        W 9942   5.986   5.701   1.226
 5879W        W 9943   4.131   4.265   1.804
 5880W        W 9944  10.475  10.414  10.384
 5881W        W 9945   5.545   9.589  11.947
 5882W        W 9946   5.531   0.224   3.192
 5883W        W 9947   6.440   4.037  11.368
 5884W        W 9948   9.474   1.336   2.288
 5885W        W 9949   8.329   5.759  10.875
 5886W        W 9950   5.729   2.134   3.390
 5887W        W 9951   3.097   9.374   1.860
 5888W        W 9952   5.037   5.038   2.891
 5889W        W 9953   2.510   2.762   9.390
 5890W        W 9954   0.343   3.041   9.812
 5891W        W 9955   4.110   3.883  11.293
 5892W        W 9956   1.300   9.008   2.518
 5893W        W 9957   1.936   0.463   3.530
 5894W        W 9958   7.843   8.412   3.040
 5895W        W 9959   6.491   7.290   1.748
 5896W        W 9960   7.235   0.864  10.001
 5897W        W 9961   1.334   8.151   3.514
 5898W        W 9962   6.595   5.719   3.853
 5899W        W 9963   2.317   5.192  10.205
 5900W        W 9964   5.040   3.390   8.051
 5901W        W 9965   1.144   4.313   1.005
 5902W        W 9966   1.599   4.953   9.917
 5903W        W 9967   8.608   1.559   3.475
 5904W        W 9968   3.534   3.122   1.913
 5905W        W 9969   2.198   5.249   3.550
 5906W        W 9970   5.555   2.624   3.309
 5907W        W 9971   7.241   6.214   0.450
 5908W        W 9972   5.228   1.349  11.676
 5909W        W 9973   9.104   7.049   0.680
 5910W        W 9974   2.295   2.796   9.888
 5911W        W 9975  10.034   4.029  10.517
 5912W        W 9976  10.078   1.328  10.217
 5913W        W 9977   7.720   9.467   2.666
 5914W        W 9978   0.869   1.635  10.293
 5915W        W 9979   3.776   8.460  11.020
 5916W        W 9980   3.082   0.027  12.000
 5917W        W 9981   1.990   9.353   1.024
 5918W        W 9982   5.368   6.867   3.116
 5919W        W 9983   9.723  10.413   0.436
 5920W        W 9984   4.306   2.437  10.310
 5921W        W 9985   7.706   8.016   0.284
 5922W        W 9986   4.708   1.387   1.504
 5923W        W 9987   6.582   9.695  11.982
 5924W        W 9988   3.276   5.766   2.309
 5925W        W 9989   6.028   4.302   9.978
 5926W        W 9990   5.013   1.335   9.211
 5927W        W 9991   6.976   9.493  10.528
 5928W        W 9992   0.607   6.616   0.502
 5929W        W 9993   8.913  10.353   9.047
 5930W        W 9994   9.139   7.025   9.840
 5931W        W 9995   9.358   5.158   0.756
 5932W        W 9996   9.906   7.544   9.844
 5933W        W 9997   9.663   0.445   2.423
 5934W        W 9998   2.321   9.780   1.047
 5935W        W 9999   8.176   3.138   2.006
 5936W        W10000   3.329   1.274   2.276
 5937W        W10001   6.025   1.809   2.962
 5938W        W10002   6.071   7.396  10.318
 5939W        W10003   2.433   9.462   2.715
 5940W        W10004   7.249   1.215   9.625
 5941W        W10005   2.699   1.983  10.032
 5942W        W10006   8.630   9.530  10.821
 5943W        W10007   9.368   7.106   2.021
 5944W        W10008   5.738   6.077   2.445
 5945W        W10009   3.922   1.361  11.396
 5946W        W10010   3.244   4.318   1.292
 5947W        W10011   4.530   4.064   9.850
 5948W        W10012   5.207   5.608   3.126
 5949W        W10013   7.938   3.576   2.633
 5950W        W10014   2.785   3.362  10.742
 5951W        W10015   4.803   9.924   8.856
 5952W        W10016   1.874  10.308   8.728
 5953W        W10017   7.424   4.998   9.991
 5954W        W10018   1.910   2.329   0.471
 5955W        W10019   1.090   5.551   1.091
 5956W        W10020  10.267   8.039   1.385
 5957W        W10021   0.831   8.099  11.470
 5958W        W10022   0.957   0.158   8.609
 5959W        W10023   5.442   7.583   4.230
 5960W        W10024   0.019   5.854   2.458
 5961W        W10025   5.433   0.357   9.393
 5962W        W10026  10.445   7.000   9.265
 5963W        W10027   4.604   7.411  11.609
 5964W        W10028   1.306   2.376   9.199
 5965W        W10029   6.994   7.688  11.540
 5966W        W10030   5.285   2.162  10.087
 5967W        W10031   5.476   4.001  11.682
 5968W        W10032   3.301   5.535   3.666
 5969W        W10033   1.793   7.581   3.127
 5970W        W10034   9.022   1.541   2.225
 5971W        W10035   4.367   4.527   9.500
 5972W        W10036   6.591   2.111   0.041
 5973W        W10037   4.636  10.471  11.583
 5974W        W10038   3.201   7.071   9.990
 5975W        W10039   4.618   4.411   8.407
 5976W        W10040   3.240   9.916   2.724
 5977W        W10041   3.358   3.469   3.397
 5978W        W10042   5.760   5.583   8.586
 5979W        W10043   6.054  10.069  11.055
 5980W        W10044   2.557   9.439   1.825
 5981W        W10045   2.937   6.062   3.129
 5982W        W10046  10.000   9.734   0.813
 5983W        W10047   9.748   1.694   3.090
 5984W        W10048   5.558   4.373   8.441
 5985W        W10049   2.546   9.159  10.504
 5986W        W10050   1.262  10.328   0.537
 5987W        W10051   9.214   0.908   2.383
 5988W        W10052   5.079   8.168   0.411
 5989W        W10053  10.211   8.856   9.097
 5990W        W10054   9.459   1.379   2.790
 5991W        W10055  10.026   1.824   8.989
 5992W        W10056   2.508   8.234   0.855
 5993W        W10057   8.467   1.073  10.517
 5994W        W10058   3.721   7.088   1.018
 5995W        W10059   6.616   6.587  10.240
 5996W        W10060   3.028   2.695   9.325
 5997W        W10061   8.929   6.085   3.236
 5998W        W10062   8.700   3.886   3.698
 5999W        W10063   9.119  10.273  11.056
 6000W        W10064   9.767   8.929   3.312
 6001W        W10065   5.710   4.758   9.010
 6002W        W10066   0.268   2.221   1.278
 6003W        W10067   2.659   3.849  10.739
 6004W        W10068  10.268   2.647   1.507
 6005W        W10069   3.380   8.480   2.610
 6006W        W10070   5.478   2.269   8.816
 6007W        W10071   3.697   4.121   3.530
 6008W        W10072   5.606   4.895   8.520
 6009W        W10073   3.289   7.542   9.712
 6010W        W10074   4.670   8.131   1.442
 6011W        W10075   9.022   1.646   2.726
 6012W        W10076   9.505   9.945   1.242
 6013W        W10077   8.685   2.728   9.068
 6014W        W10078   2.622   3.065  10.328
 6015W        W10079   2.286   3.837  10.314
 6016W        W10080   0.623   7.582  10.575
 6017W        W10081   6.698   1.669  11.302
 6018W        W10082   8.561   8.851   0.005
 6019W        W10083   2.274   9.870   1.915
 6020W        W10084   6.361   0.484   9.024
 6021W        W10085   7.342   5.736   0.226
 6022W        W10086   9.857   9.223   8.928
 6023W        W10087   6.705   7.851   3.356
 6024W        W10088   1.842   6.532   1.123
 6025W        W10089   8.067   9.440   1.090
 6026W        W10090   7.412   5.605   0.703
 6027W        W10091   0.280   4.737   9.564
 6028W        W10092   1.644   1.983   0.179
 6029W        W10093   2.223  10.292  11.950
 6030W        W10094   5.702   1.591   0.274
 6031W        W10095   0.752   1.281   9.346
 6032W        W10096   2.647   5.506   9.524
 6033W        W10097   2.757   4.249   3.302
 6034W        W10098   8.892  10.446   2.703
 6035W        W10099   1.850   3.721   8.918
 6036W        W10100   7.920  10.369   9.350
 6037W        W10101   5.217   1.891   1.692
 6038W        W10102   6.603   3.069  11.731
 6039W        W10103   6.388   3.284  10.711
 6040W        W10104   8.125   5.717  11.770
 6041W        W10105   8.950   5.300  11.967
 6042W        W10106   1.854   1.266   8.765
 6043W        W10107   8.794   0.177   1.237
 6044W        W10108   3.317   8.155   1.120
 6045W        W10109   0.692   9.811   8.897
 6046W        W10110   4.239   7.565   3.046
 6047W        W10111   5.513   4.991   9.426
 6048W        W10112   2.403   9.975   0.593
 6049W        W10113   1.789   5.692   2.836
 6050W        W10114   6.515  10.464   1.125
 6051W        W10115   5.069   0.796  10.460
 6052W        W10116   6.043   2.249  10.770
 6053W        W10117   8.125   9.685   2.393
 6054W        W10118   7.274   7.957   1.803
 6055W        W10119   4.203   1.482   3.210
 6056W        W10120   4.093   2.635   2.195
 6057W        W10121   0.262   9.611  11.004
 6058W        W10122   6.918   1.330   1.668
 6059W        W10123   5.164   9.280   1.836
 6060W        W10124   8.191   2.443   0.844
 6061W        W10125   3.794   0.884  10.692
 6062W        W10126   6.003   7.220   2.495
 6063W        W10127   3.308   5.794   0.444
 6064W        W10128   6.895   8.873   9.404
 6065W        W10129   7.654   7.615  10.532
 6066W        W10130   3.480   5.503   0.852
 6067W        W10131   2.024   5.357  11.730
 6068W        W10132   8.563   0.714   0.057
 6069W        W10133   0.398   2.388   0.795
 6070W        W10134   9.716   7.868   9.070
 6071W        W10135   1.795   2.676   0.848
 6072W        W10136   7.884  10.336  10.973
 6073W        W10137   9.154   0.332  10.444
 6074W        W10138   5.827   8.449   8.423
 6075W        W10139   5.110   5.175  11.970
 6076W        W10140   4.697   7.372   1.814
 6077W        W10141   4.314   4.697   2.793
 6078W        W10142   0.994   5.584   2.403
 6079W        W10143   6.130   0.475  11.644
 6080W        W10144   7.933   5.217  11.853
 6081W        W10145   7.148   1.694   9.465
 6082W        W10146   5.724   7.553   9.553
 6083W        W10147   9.273   8.766   9.375
 6084W        W10148   7.564   4.979   1.105
 6085W        W10149   8.812   0.712  10.304
 6086W        W10150   1.731   1.782   0.648
 6087W        W10151   1.690   0.810   1.579
 6088W        W10152   1.202   5.209   3.535
 6089W        W10153  10.245   2.783   2.378
 6090W        W10154  10.502   8.910   1.642
 6091W        W10155   5.683   1.693  11.251
 6092W        W10156   8.076   1.290   0.351
 6093W        W10157   2.186  10.461   9.576
 6094W        W10158   2.651   6.357  11.099
 6095W        W10159   4.162   9.424   3.227
 6096W        W10160   8.849   5.090   0.836
 6097W        W10161   9.539   9.077   0.762
 6098W        W10162   9.304   9.843  10.056
 6099W        W10163   2.859   3.151   9.481
 6100W        W10164   3.129   6.230  10.033
 6101W        W10165   6.667   3.213   2.228
 6102W        W10166   7.017   6.933   3.122
 6103W        W10167   8.680   2.392  11.123
 6104W        W10168   3.143   4.398  11.433
 6105W        W10169   4.186   0.037   9.542
 6106W        W10170   6.646   7.596   9.566
 6107W        W10171   2.448   1.643  10.285
 6108W        W10172   0.238   5.715  11.545
 6109W        W10173   8.411   7.764  11.471
 6110W        W10174   0.214   1.792  11.165
 6111W        W10175   4.548   9.504   9.026
 6112W        W10176   3.530   2.816   9.220
 6113W        W10177   0.074   1.358  10.339
 6114W        W10178   7.621   0.639   0.813
 6115W        W10179   2.193   8.153  10.173
 6116W        W10180   8.978   1.220  10.272
 6117W        W10181   3.836   8.040  11.372
 6118W        W10182   8.995   5.518   0.490
 6119W        W10183   6.489   4.416   8.443
 6120W        W10184   7.940   2.823  11.763
 6121W        W10185   6.392   0.975   0.394
 6122W        W10186   7.092   5.489   3.330
 6123W        W10187   3.463   5.028   0.023
 6124W        W10188   4.643   0.238   3.425
 6125W        W10189   1.596  10.136   3.696
 6126W        W10190   3.611   3.149   8.809
 6127W        W10191   2.854   4.639   2.537
 6128W        W10192   7.106   4.059   2.081
 6129W        W10193   9.802   7.462   3.114
 6130W        W10194   2.675   5.008   0.444
 6131W        W10195   8.859   7.713   9.240
 6132W        W10196   6.859   1.241   9.980
 6133W        W10197   5.895   8.141   0.445
 6134W        W10198   7.150   4.817   3.888
 6135W        W10199   4.565  10.499   1.009
 6136W        W10200   8.540   4.051  11.355
 6137W        W10201   3.171   5.685  11.232
 6138W        W10202   5.625   2.653   1.895
 6139W        W10203   6.374   8.798   9.531
 6140W        W10204   2.584   1.975   2.186
 6141W        W10205   3.366   9.805   1.838
 6142W        W10206   0.676   7.622   8.418
 6143W        W10207   5.628   8.316   1.174
 6144W        W10208   2.479   4.814   9.865
 6145W        W10209   0.246   4.354  11.969
 6146W        W10210   3.713   0.869   1.205
 6147W        W10211   0.457   3.820   9.108
 6148W        W10212   5.928   9.527   2.480
 6149W        W10213   1.706   3.813   1.807
 6150W        W10214   4.788   6.265   2.419
 6151W        W10215   1.790   8.079   3.301
 6152W        W10216   1.742   3.919   9.424
 6153W        W10217   4.723   0.766  11.100
 6154W        W10218   9.896   8.495  11.499
 6155W        W10219   0.403   6.173   2.485
 6156W        W10220   2.345   1.741   9.756
 6157W        W10221   8.023   5.088   2.105
 6158W        W10222   5.488  10.326  10.205
 6159W        W10223   3.329   2.332   2.621
 6160W        W10224   1.782   3.550   3.342
 6161W        W10225   5.133   9.552   0.273
 6162W        W10226   6.013   1.295   2.770
 6163W        W10227   8.958   2.036   2.390
 6164W        W10228   9.138   5.089   1.832
 6165W        W10229   0.715   7.186   1.781
 6166W        W10230   2.268   4.161   0.890
 6167W        W10231   7.132   1.249   0.712
 6168W        W10232   7.600   2.846   0.962
 6169W        W10233   6.765   6.987   2.688
 6170W        W10234   9.482   8.423   2.491
 6171W        W10235   1.226   2.823   9.473
 6172W        W10236   2.220   9.327  11.881
 6173W        W10237   7.499   5.624  10.877
 6174W        W10238   0.389   0.861   0.916
 6175W        W10239   5.604   4.288   2.611
 6176W        W10240   1.424   3.401   0.309
 6177W        W10241   8.915   9.473   1.764
 6178W        W10242   4.715   5.760  11.360
 6179W        W10243   7.237   2.547   0.744
 6180W        W10244   3.696   7.974   1.423
 6181W        W10245   7.731  10.229  11.997
 6182W        W10246   0.388   5.973  11.145
 6183W        W10247   0.793   0.424  11.813
 6184W        W10248   3.112   3.567   0.009
 6185W        W10249   0.354   8.578   3.089
 6186W        W10250   4.247   9.188   9.463
 6187W        W10251   2.374   3.074   0.344
 6188W        W10252   3.249   2.777   3.556
 6189W        W10253   5.201   3.844   8.953
 6190W        W10254   2.827   8.863   1.177
 6191W        W10255  10.334   5.649   1.689
 6192W        W10256   0.953   2.129  10.430
 6193W        W10257   5.542   2.638   0.295
 6194W        W10258   6.463   4.276   8.931
 6195W        W10259   3.257   9.280  11.478
 6196W        W10260   3.763   4.696   0.998
 6197W        W10261   0.812   1.432   1.963
 6198W        W10262   9.539   1.596  11.727
 6199W        W10263   8.081   8.282   0.604
 6200W        W10264   1.829   5.096  10.333
 6201W        W10265   9.965   6.407   1.855
 6202W        W10266   4.943   6.443   0.321
 6203W        W10267   3.377   9.902  10.684
 6204W        W10268   6.574   2.458   2.865
 6205W        W10269   5.296   3.292   8.502
 6206W        W10270   8.937   3.164   8.896
 6207W        W10271   3.203   1.374  10.127
 6208W        W10272   9.768   6.556   8.871
 6209W        W10273   9.908   6.967   8.551
 6210W        W10274   4.612   1.551   2.861
 6211W        W10275   4.606   2.652   2.354
 6212W        W10276   3.982   4.247  11.645
 6213W        W10277   4.416   8.718   9.529
 6214W        W10278   6.249   6.911   0.006
 6215W        W10279   6.113   4.939   0.923
 6216W        W10280   2.764  10.131   2.315
 6217W        W10281   2.130  10.019   9.866
 6218W        W10282   4.692   0.998  10.201
 6219W        W10283   6.570   1.915   1.368
 6220W        W10284   6.077  10.408  10.279
 6221W        W10285   9.337   9.590   2.048
 6222W        W10286   8.662   5.766   8.513
 6223W        W10287   5.482   1.232   0.600
 6224W        W10288   0.639   9.866   9.812
 6225W        W10289   6.850   0.891   1.392
 6226W        W10290   5.220   3.201  11.736
 6227W        W10291   6.057   2.665   9.030
 6228W        W10292   0.536   9.113   3.614
 6229W        W10293   8.137   3.595   8.936
 6230W        W10294   0.695   1.803  11.996
 6231W        W10295   0.977   6.050   9.303
 6232W        W10296   8.079   7.590  10.851
 6233W        W10297   7.950   9.470   1.604
 6234W        W10298   6.954   3.765   9.696
 6235W        W10299   6.066   2.078   1.166
 6236W        W10300   9.307   7.493  10.619
 6237W        W10301   6.637   2.967   2.855
 6238W        W10302   5.635   9.360   1.703
 6239W        W10303   7.086   8.608  11.970
 6240W        W10304   2.848   2.378  10.909
 6241W        W10305   8.536   9.383   8.943
 6242W        W10306   1.292   6.050   1.006
 6243W        W10307   5.257   1.845  10.935
 6244W        W10308   9.090   6.989  11.173
 6245W        W10309   0.016   1.709   1.106
 6246W        W10310   6.589   0.773  10.005
 6247W        W10311   6.005   3.817   8.192
 6248W        W10312   9.238   2.191  10.004
 6249W        W10313   4.079   6.623   1.480
 6250W        W10314   5.174   9.012   9.947
 6251W        W10315   6.108   2.788   1.694
 6252W        W10316   5.221   4.670   9.711
 6253W        W10317   1.642   3.990   3.866
 6254W        W10318   7.362   5.167  11.032
 6255W        W10319   4.527   3.608   9.610
 6256W        W10320   1.980   1.349   2.730
 6257W        W10321   3.082   2.278   8.965
 6258W        W10322   9.471   8.282   0.273
 6259W        W10323   0.841   1.572   8.913
 6260W        W10324   3.838   7.696   1.830
 6261W        W10325   5.596   9.345  10.962
 6262W        W10326   0.712   2.983   1.510
 6263W        W10327   6.872   5.933   1.776
 6264W        W10328   3.072   4.047  11.075
 6265W        W10329   3.072   8.928   9.122
 6266W        W10330   9.863   2.227   0.684
 6267W        W10331   7.942   6.172   1.789
 6268W        W10332  10.235   0.755   0.300
 6269W        W10333   7.510   3.590   8.986
 6270W        W10334   5.925   0.536   9.619
 6271W        W10335   7.907   4.532   2.037
 6272W        W10336   6.904   0.290  10.543
 6273W        W10337   2.168   0.485  11.241
 6274W        W10338   3.313   0.734   2.425
 6275W        W10339   5.814   0.043   9.838
 6276W        W10340  10.233   1.301   3.400
 6277W        W10341   1.232   4.269  11.796
 6278W        W10342   6.657   6.084   8.779
 6279W        W10343   7.993   0.407   3.334
 6280W        W10344   1.423   0.330   2.045
 6281W        W10345   0.326   3.809   1.729
 6282W        W10346   7.921   9.950  10.651
 6283W        W10347   4.141   2.694   0.192
 6284W        W10348   9.536   5.196   9.065
 6285W        W10349   4.180   3.759   1.843
 6286W        W10350   6.633   3.815   2.482
 6287W        W10351   7.713   3.162   1.775
 6288W        W10352   5.381   0.435   2.739
 6289W        W10353   4.924   9.798   3.564
 6290W        W10354   3.800   2.117   8.582
 6291W        W10355   5.486   5.278   9.894
 6292W        W10356   3.109   4.769  10.596
 6293W        W10357   6.965   4.075  10.366
 6294W        W10358   0.248   1.766   3.039
 6295W        W10359   5.582   0.279  11.964
 6296W        W10360   3.312  10.271   3.447
 6297W        W10361   3.464   7.536   3.650
 6298W        W10362   1.256   1.701   0.378
 6299W        W10363   1.771   8.615   4.109
 6300W        W10364   3.722   1.164   3.091
 6301W        W10365   6.036   8.034  11.528
 6302W        W10366   2.862   3.137   0.178
 6303W        W10367   4.249   5.708   9.644
 6304W        W10368   3.671   8.695   1.829
 6305W        W10369   5.558   9.827   0.439
 6306W        W10370   2.279   4.743  11.753
 6307W        W10371   4.171   0.889   2.556
 6308W        W10372   6.783   3.243   1.732
 6309W        W10373   2.456   7.315  10.217
 6310W        W10374   7.924   0.331  11.047
 6311W        W10375   7.359   3.701   1.390
 6312W        W10376   9.848   5.976  11.442
 6313W        W10377   6.228   7.011   9.145
 6314W        W10378   9.135   0.873   9.919
 6315W        W10379   2.763   5.124  10.484
 6316W        W10380   7.500   2.868   2.955
 6317W        W10381   2.262   5.759   1.355
 6318W        W10382   1.222   0.478  11.545
 6319W        W10383   9.464   1.086  11.859
 6320W        W10384   6.078   8.812   9.952
 6321W        W10385   1.433   3.909   3.423
 6322W        W10386   4.832   8.903  11.818
 6323W        W10387   3.296   5.977   2.786
 6324W        W10388   9.081   2.730   9.977
 6325W        W10389   5.268   3.110   2.568
 6326W        W10390   8.950   4.962   1.340
 6327W        W10391   3.768   3.153   1.449
 6328W        W10392   3.203   7.758   1.465
 6329W        W10393  10.134   3.929   9.773
 6330W        W10394   0.024   0.363   1.672
 6331W        W10395   7.104   3.779  10.771
 6332W        W10396   7.868   3.168   8.791
 6333W        W10397   0.143   7.788   3.005
 6334W        W10398   8.442   5.138  11.860
 6335W        W10399   9.072   5.531   1.009
 6336W        W10400   5.765   1.591   3.426
 6337W        W10401   4.051   1.399  10.115
 6338W        W10402   3.196   8.862   1.953
 6339W        W10403   3.348   0.042   9.873
 6340W        W10404   2.454   6.471  10.243
 6341W        W10405   9.363   5.858   0.280
 6342W        W10406   3.116   6.560   3.503
 6343W        W10407   3.807  10.052   1.874
 6344W        W10408   3.343  10.028   9.791
 6345W        W10409   5.025   0.228   1.871
 6346W        W10410   5.297   8.074  10.326
 6347W        W10411   1.376   9.005   2.025
 6348W        W10412   1.393   2.265  10.141
 6349W        W10413   1.763   2.652   3.442
 6350W        W10414   0.194   3.745   2.739
 6351W        W10415   5.758   6.583  11.150
 6352W        W10416   8.028   9.389  11.416
 6353W        W10417   6.171   1.855  11.047
 6354W        W10418   5.093   8.096  11.351
 6355W        W10419   4.522   1.372   9.911
 6356W        W10420   6.152   7.080   0.477
 6357W        W10421   3.061   1.850   0.973
 6358W        W10422   6.972   4.688   1.485
 6359W        W10423   1.019  10.163   8.664
 6360W        W10424   6.335   8.269   3.246
 6361W        W10425   2.469   4.266  10.521
 6362W        W10426   2.130   0.778   9.935
 6363W        W10427   7.199   9.807   0.705
 6364W        W10428   9.485   1.762   2.002
 6365W        W10429   1.800   9.325   9.177
 6366W        W10430   5.585   8.669  11.820
 6367W        W10431   9.770   4.594  11.313
 6368W        W10432   7.106   5.941   2.613
 6369W        W10433   1.836   5.671  10.996
 6370W        W10434   9.350   4.946  11.957
 6371W        W10435   3.175   1.296   9.105
 6372W        W10436   7.866  10.262  11.497
 6373W        W10437   1.551   0.211  11.874
 6374W        W10438   6.359   5.588   2.495
 6375W        W10439   8.543   0.992  11.050
 6376W        W10440   0.633   4.584   1.861
 6377W        W10441   7.511   7.126   0.666
 6378W        W10442   6.627   4.746   3.120
 6379W        W10443   8.525  10.347   3.064
 6380W        W10444   7.992   1.825   2.744
 6381W        W10445   7.056   0.478   0.619
 6382W        W10446   2.236   3.227   2.336
 6383W        W10447   3.224   4.722   9.558
 6384W        W10448   9.272   9.858  10.549
 6385W        W10449   5.339   3.084   2.069
 6386W        W10450   4.238   7.954   3.380
 6387W        W10451   2.374   4.092   2.381
 6388W        W10452   0.729   4.221   0.700
 6389W        W10453   9.434   9.651   9.152
 6390W        W10454   5.749   1.153  11.980
 6391W        W10455   8.854   2.318   1.964
 6392W        W10456   6.938   0.438   8.964
 6393W        W10457   8.948   5.680   1.955
 6394W        W10458   1.715   3.770  10.776
 6395W        W10459   9.630   3.560   3.518
 6396W        W10460   8.460   8.491  10.869
 6397W        W10461   8.091   0.441   0.608
 6398W        W10462   0.791   3.128  10.046
 6399W        W10463   6.218   9.598   0.977
 6400W        W10464   5.314   9.943   0.952
 6401W        W10465  10.068   3.203   2.056
 6402W        W10466  10.386   9.292  10.025
 6403W        W10467   6.009   7.143  11.286
 6404W        W10468   2.344   1.474   1.268
 6405W        W10469   6.709   3.215  10.264
 6406W        W10470   3.673   9.099   3.174
 6407W        W10471   2.851   6.153   8.828
 6408W        W10472   3.283   4.763   2.241
 6409W        W10473   3.585  10.469   0.699
 6410W        W10474   8.918   7.591   8.735
 6411W        W10475   9.702   8.759   9.087
 6412W        W10476  10.409   2.152   2.981
 6413W        W10477   2.373   2.113  10.509
 6414W        W10478   2.053   3.229   9.743
 6415W        W10479   6.893   1.788   1.906
 6416W        W10480   9.931   1.364   2.045
 6417W        W10481   9.819   9.086   2.837
 6418W        W10482   2.964   4.292  10.641
 6419W        W10483   5.583   4.470   9.412
 6420W        W10484   5.529   3.313   3.481
 6421W        W10485   0.398   7.252  11.549
 6422W        W10486   2.175   3.764  11.641
 6423W        W10487  10.049   3.502   8.970
 6424W        W10488   2.721   3.139   8.981
 6425W        W10489   8.615   3.852  10.620
 6426W        W10490   3.753   3.117   3.492
 6427W        W10491   7.294   7.171   2.768
 6428W        W10492   1.861   5.013   1.153
 6429W        W10493   6.858   9.856   9.390
 6430W        W10494   3.597   5.028   2.633
 6431W        W10495   0.386   7.853   0.449
 6432W        W10496   8.976   9.362   1.279
 6433W        W10497   5.798   1.764   9.471
 6434W        W10498   2.178   6.511   0.295
 6435W        W10499   5.324   2.873  10.955
 6436W        W10500   8.960   9.470   9.225
 6437W        W10501   7.171   5.224   8.451
 6438W        W10502   5.155   6.628  10.426
 6439W        W10503   9.487   4.059   0.268
 6440W        W10504   8.337   1.840   0.779
 6441W        W10505   9.136   6.088   3.697
 6442W        W10506   8.837   8.362   3.111
 6443W        W10507   1.716   0.550   0.234
 6444W        W10508   1.303  10.476  11.460
 6445W        W10509   9.984   8.552   2.448
 6446W        W10510   8.435   6.005   1.759
 6447W        W10511   1.228   7.201   3.051
 6448W        W10512   5.687   8.358   9.540
 6449W        W10513   4.274   4.776   8.609
 6450W        W10514   9.969   7.909  11.104
 6451W        W10515   7.319   5.093   3.066
 6452W        W10516   8.051   2.278   1.967
 6453W        W10517   6.456   9.839   0.461
 6454W        W10518   4.980   3.658   9.374
 6455W        W10519   6.156   6.304  11.361
 6456W        W10520   1.875   0.359   2.992
 6457W        W10521   2.190   4.686   9.441
 6458W        W10522   6.522   9.609   9.723
 6459W        W10523   4.933   8.049   2.281
 6460W        W10524   4.424   2.609   1.812
 6461W        W10525  10.252   9.650  10.959
 6462W        W10526   6.232   5.161   2.259
 6463W        W10527   5.468   3.331   1.495
 6464W        W10528   0.763   7.814   9.095
 6465W        W10529   6.239  10.432   3.177
 6466W        W10530   6.328   2.836   0.798
 6467W        W10531   5.449   1.145  10.504
 6468W        W10532   4.681   2.746  10.109
 6469W        W10533   1.822   6.149   2.241
 6470W        W10534   6.246   5.050   3.313
 6471W        W10535   1.605   6.562   8.829
 6472W        W10536   6.066   6.095   1.810
 6473W        W10537   5.700   4.316   1.386
 6474W        W10538   3.827   7.743   0.362
 6475W        W10539   0.417   6.450   3.482
 6476W        W10540   0.875   4.967  10.269
 6477W        W10541   0.150  10.216   2.059
 6478W        W10542   5.273   2.700  11.858
 6479W        W10543   9.570   3.120   0.262
 6480W        W10544  10.195   6.500   8.550
 6481W        W10545   5.254  10.438   2.819
 6482W        W10546   7.407   9.120   9.515
 6483W        W10547   4.471   6.463   0.149
 6484W        W10548   8.663   9.582   2.723
 6485W        W10549   2.384   4.232   1.409
 6486W        W10550  10.362   2.188   0.942
 6487W        W10551   7.986   7.918  10.018
 6488W        W10552   1.454   9.591  11.491
 6489W        W10553   5.547   7.181   3.530
 6490W        W10554   2.861   6.897   8.610
 6491W        W10555   3.019   3.499   0.536
 6492W        W10556   0.342   9.979   3.214
 6493W        W10557   5.495   9.379   2.251
 6494W        W10558   7.698   3.276   1.257
 6495W        W10559   6.237   4.041   4.138
 6496W        W10560   8.097   0.722   1.445
 6497W        W10561   0.415   4.113   1.327
 6498W        W10562   3.541   0.533  11.051
 6499W        W10563   4.790   9.851   1.747
 6500W        W10564   5.031   6.546   3.349
 6501W        W10565   1.845   1.388   0.985
 6502W        W10566   6.194   5.210   1.765
 6503W        W10567  10.037   5.801   2.328
 6504W        W10568   8.616   1.654  11.845
 6505W        W10569   6.046   8.546   1.902
 6506W        W10570   7.386   9.207   2.967
 6507W        W10571   8.861   8.355   1.943
 6508W        W10572   7.393   1.235   2.443
 6509W        W10573   9.574   9.499  11.555
 6510W        W10574   0.959   6.863   0.822
 6511W        W10575   6.997   0.798  11.400
 6512W        W10576   1.224   1.305   2.250
 6513W        W10577   1.630   9.078   3.383
 6514W        W10578   4.071   5.910  10.072
 6515W        W10579   2.649   2.489  11.781
 6516W        W10580   1.599   7.436  10.392
 6517W        W10581   1.174   1.003   1.325
 6518W        W10582   6.127   4.466   1.116
 6519W        W10583   3.351   2.580   1.868
 6520W        W10584   5.819   2.702  10.949
 6521W        W10585   8.318   7.304   1.150
 6522W        W10586   6.245   7.785   0.412
 6523W        W10587   0.546   4.068  10.441
 6524W        W10588   6.545   2.725   2.431
 6525W        W10589   2.189   2.819   1.140
 6526W        W10590   0.633  10.290   1.913
 6527W        W10591   6.297   1.344  10.236
 6528W        W10592   8.960   4.036   9.095
 6529W        W10593   8.814   2.804   0.529
 6530W        W10594   3.196   6.718   1.549
 6531W        W10595   5.193   0.886   1.894
 6532W        W10596   8.063   7.735   1.166
 6533W        W10597   8.262  10.460   9.737
 6534W        W10598   1.763   3.038   2.512
 6535W        W10599   1.792   6.114  10.701
 6536W        W10600   9.448   2.391   1.384
 6537W        W10601   4.946   6.383   1.944
 6538W        W10602   9.412   5.431   2.693
 6539W        W10603   4.806   8.647   9.874
 6540W        W10604   2.162   6.531  11.261
 6541W        W10605   4.609   3.354   2.628
 6542W        W10606   5.703   0.232  10.944
 6543W        W10607   1.387   8.531   2.758
 6544W        W10608   2.742   6.037  10.292
 6545W        W10609   2.789   2.215   0.239
 6546W        W10610   3.760   5.425   3.455
 6547W        W10611   4.571   6.049   2.017
 6548W        W10612   6.431   2.311   9.083
 6549W        W10613   1.847   2.239   2.746
 6550W        W10614   8.847   1.324   3.078
 6551W        W10615   7.175   1.065  10.808
 6552W        W10616   2.379   2.323   1.861
 6553W        W10617   0.929   1.131  10.229
 6554W        W10618   6.585   0.785   2.740
 6555W        W10619   0.403   9.820   2.752
 6556W        W10620   4.505   2.615   9.115
 6557W        W10621   2.207   1.418   9.365
 6558W        W10622   3.689   5.360   0.378
 6559W        W10623   8.550   6.357   0.248
 6560W        W10624   7.230  10.313  11.868
 6561W        W10625   3.620   8.445  10.528
 6562W        W10626   4.694   8.912   2.632
 6563W        W10627   7.927   2.701   2.754
 6564W        W10628   3.207   0.917   0.953
 6565W        W10629   1.585   3.113   0.722
 6566W        W10630   5.426   8.034   2.343
 6567W        W10631   9.345   3.640   2.441
 6568W        W10632   4.254   5.675  11.741
 6569W        W10633   1.046   2.833   8.524
 6570W        W10634   9.072   6.423  11.027
 6571W        W10635   3.762   6.948  10.502
 6572W        W10636   8.823   3.747   1.938
 6573W        W10637   9.923   7.722   3.545
 6574W        W10638   6.603   0.522   0.268
 6575W        W10639   3.314   6.618   9.771
 6576W        W10640  10.078   9.313  11.278
 6577W        W10641   5.794   4.309   3.108
 6578W        W10642   5.613   3.208   0.457
 6579W        W10643   0.738   8.945   3.172
 6580W        W10644   7.796   7.155  10.142
 6581W        W10645   8.482   6.000   9.071
 6582W        W10646   1.456   0.046   2.860
 6583W        W10647   0.430   0.330   0.764
 6584W        W10648   3.613   5.486  10.347
 6585W        W10649   8.844  10.311   0.875
 6586W        W10650   8.575   8.562   8.971
 6587W        W10651   5.855   4.386   2.165
 6588W        W10652   0.176   6.506   8.746
 6589W        W10653   6.562   6.803   8.783
 6590W        W10654   0.118   8.617  10.914
 6591W        W10655   7.850   3.652   9.352
 6592W        W10656   3.008   7.084   1.873
 6593W        W10657   7.863   7.638   2.144
 6594W        W10658   5.173  10.220   1.860
 6595W        W10659   5.717   4.080   3.999
 6596W        W10660   5.495   7.606  11.836
 6597W        W10661   6.167   2.803  11.948
 6598W        W10662   4.919   8.745   8.477
 6599W        W10663   5.517   0.752   0.204
 6600W        W10664   8.355   6.001   0.885
 6601W        W10665   5.147   5.993   2.756
 6602W        W10666   8.581   4.190   1.736
 6603W        W10667   6.202   3.717  10.414
 6604W        W10668   2.183   2.303   0.958
 6605W        W10669   9.431   5.359   0.271
 6606W        W10670   7.462   3.079   9.756
 6607W        W10671   5.801   4.777   3.332
 6608W        W10672   1.979   6.129  11.721
 6609W        W10673   4.141   4.891   9.783
 6610W        W10674   5.904   1.384   9.820
 6611W        W10675   1.850   6.942   1.456
 6612W        W10676   4.992   1.666   2.498
 6613W        W10677   3.760   2.258   2.070
 6614W        W10678   6.919   6.305   9.447
 6615W        W10679   3.406   1.901  11.250
 6616W        W10680   1.798   0.850   0.634
 6617W        W10681   3.335   4.495   0.806
 6618W        W10682   9.764   4.219   2.959
 6619W        W10683   4.477  10.392   8.642
 6620W        W10684   0.260   6.194  10.271
 6621W        W10685   3.308   1.118   2.789
 6622W        W10686   1.792   5.675   8.699
 6623W        W10687   8.559   8.411   8.465
 6624W        W10688   5.088   1.415  10.691
 6625W        W10689   0.770   5.481   1.494
 6626W        W10690   9.272   8.191   2.895
 6627W        W10691   6.521   5.606  11.174
 6628W        W10692  10.360   5.965  11.308
 6629W        W10693   9.472   6.884   0.077
 6630W        W10694   9.671   2.497  11.514
 6631W        W10695   7.634   8.367   8.419
 6632W        W10696   7.958   1.381   9.362
 6633W        W10697   0.815   7.504   1.380
 6634W        W10698   0.902   3.595   0.283
 6635W        W10699   1.606   0.805  11.326
 6636W        W10700  10.273   7.462  11.296
 6637W        W10701   8.425   8.058  11.870
 6638W        W10702   7.042   2.297   3.576
 6639W        W10703   3.110   3.548  11.087
 6640W        W10704   0.332   5.788   1.007
 6641W        W10705   4.263   0.742  10.879
 6642W        W10706   7.972   6.955   0.430
 6643W        W10707   1.401   7.559  11.851
 6644W        W10708   4.970   3.520   9.872
 6645W        W10709   1.899   7.198   2.297
 6646W        W10710   1.280   6.307  11.300
 6647W        W10711   4.196   8.557   1.788
 6648W        W10712   4.954  10.305  10.142
 6649W        W10713   7.978   4.103  10.525
 6650W        W10714   8.950   2.819   9.502
 6651W        W10715   2.401   6.172   9.039
 6652W        W10716   1.015   8.497  10.718
 6653W        W10717   8.985   9.952   1.958
 6654W        W10718   1.245   9.024   3.031
 6655W        W10719   7.246   3.949   9.254
 6656W        W10720   7.170   0.493   0.124
 6657W        W10721   8.724  10.420   9.975
 6658W        W10722   2.773   6.895   2.273
 6659W        W10723   4.743   7.339  11.146
 6660W        W10724   2.206   3.709   0.657
 6661W        W10725   4.764   3.604   1.005
 6662W        W10726   9.344   1.784   3.670
 6663W        W10727   9.884   3.794  10.960
 6664W        W10728   6.403   9.553   3.378
 6665W        W10729   3.313   4.587   2.737
 6666W        W10730   3.289   7.038   0.178
 6667W        W10731   6.714   9.568   0.846
 6668W        W10732   5.648   9.241   3.339
 6669W        W10733   4.250   1.302   0.697
 6670W        W10734   8.813   3.798  11.719
 6671W        W10735  10.040   2.225   0.217
 6672W        W10736   6.095   0.917   8.961
 6673W        W10737   6.339   0.794   3.532
 6674W        W10738   9.151   1.494   1.724
 6675W        W10739   2.294  10.227  11.442
 6676W        W10740   0.684   7.870   9.596
 6677W        W10741   4.330   3.088   2.288
 6678W        W10742   2.458   9.714   9.573
 6679W        W10743   0.778   1.912   1.818
 6680W        W10744   5.574   9.827   2.708
 6681W        W10745   0.018   0.691   2.666
 6682W        W10746   0.372   5.010  10.247
 6683W        W10747   2.831   7.415   9.885
 6684W        W10748   8.681   1.238   1.952
 6685W        W10749   9.939   4.817   3.239
 6686W        W10750  10.098   8.641   2.971
 6687W        W10751   2.659   6.247   9.824
 6688W        W10752   6.634   5.727  10.702
 6689W        W10753   2.160   8.237  11.874
 6690W        W10754   5.274   6.935  10.021
 6691W        W10755   0.257   5.958   2.919
 6692W        W10756   1.022   7.624  11.471
 6693W        W10757   8.119   3.507   0.736
 6694W        W10758  10.442  10.209  11.316
 6695W        W10759   0.542   9.342   2.888
 6696W        W10760   6.473   2.337  10.481
 6697W        W10761   4.216   7.078  11.671
 6698W        W10762   6.386   5.127   2.745
 6699W        W10763   2.222   1.633   0.653
 6700W        W10764   9.066   1.893   8.924
 6701W        W10765   2.202   2.651   3.087
 6702W        W10766   0.368   3.604   1.258
 6703W        W10767   8.834   8.617   9.623
 6704W        W10768   5.990   2.334   0.249
 6705W        W10769   6.321   9.807   1.722
 6706W        W10770   2.564   7.332  10.745
 6707W        W10771   3.228   8.893   0.533
 6708W        W10772   3.318   4.195  10.273
 6709W        W10773   0.001   8.413   9.031
 6710W        W10774   7.408  10.199   0.957
 6711W        W10775   3.157   1.850   9.889
 6712W        W10776   8.112   3.108   2.512
 6713W        W10777   6.015   4.578   8.631
 6714W        W10778   4.602   4.096   1.826
 6715W        W10779   0.187   9.010   8.890
 6716W        W10780   4.127   3.257   2.745
 6717W        W10781   2.665   5.668  11.258
 6718W        W10782   7.062  10.475   0.721
 6719W        W10783   2.297   1.175   0.850
 6720W        W10784   3.829   5.466   2.449
 6721W        W10785   4.024   4.138   9.477
 6722W        W10786   9.775   5.942   1.909
 6723W        W10787   3.236  10.223  11.067
 6724W        W10788   0.031   7.585   0.712
 6725W        W10789   4.116   5.947  10.922
 6726W        W10790   6.996   3.356  11.080
 6727W        W10791   1.252  10.011   2.913
 6728W        W10792   7.409  10.430   9.516
 6729W        W10793   2.319   7.534   3.263
 6730W        W10794  10.319   1.176   8.839
 6731W        W10795   5.182   6.043   1.322
 6732W        W10796   8.360   3.093   3.325
 6733W        W10797   9.916   7.042   3.350
 6734W        W10798   6.988   9.984   3.129
 6735W        W10799   4.285   1.670   1.401
 6736W        W10800   6.564   3.557  11.552
 6737W        W10801   1.338  10.008   0.948
 6738W        W10802   3.663   5.750   8.878
 6739W        W10803   9.971   3.366   0.772
 6740W        W10804   4.463   7.928   2.396
 6741W        W10805   6.519   5.708   1.127
 6742W        W10806   0.905   6.197   0.391
 6743W        W10807   0.872   5.976   1.291
 6744W        W10808  10.327   3.989   0.647
 6745W        W10809   6.555   7.055   2.213
 6746W        W10810   9.523  10.237  10.298
 6747W        W10811   9.590   2.416   2.968
 6748W        W10812   6.390   1.803   1.903
 6749W        W10813   2.182   8.964   0.728
 6750W        W10814   5.088   7.198   0.760
 6751W        W10815   3.277   6.090   1.896
 6752W        W10816   7.563  10.073   0.485
 6753W        W10817   0.392   9.423   0.403
 6754W        W10818   6.979   4.237   8.925
 6755W        W10819   5.692   6.041   1.462
 6756W        W10820   9.193   3.289  11.930
 6757W        W10821   6.569   8.642  10.084
 6758W        W10822   4.653   8.477  10.943
 6759W        W10823   9.937   3.836   3.228
 6760W        W10824   5.112   0.864  11.926
 6761W        W10825   0.241   5.851   9.754
 6762W        W10826   5.544   1.161   1.090
 6763W        W10827   4.204   3.549   3.154
 6764W        W10828   2.273   6.715   3.038
 6765W        W10829   7.662   0.858  10.933
 6766W        W10830   6.870   9.443   2.455
 6767W        W10831  10.220   7.899   9.223
 6768W        W10832   2.597   8.799   2.122
 6769W        W10833   8.978   6.677   0.062
 6770W        W10834   1.609   8.998   1.038
 6771W        W10835   8.001   0.436   0.035
 6772W        W10836   2.324   4.717   1.220
 6773W        W10837   2.600   9.851   1.455
 6774W        W10838   6.640   5.395  10.336
 6775W        W10839   7.539   2.839   8.509
 6776W        W10840   8.851   1.776   0.778
 6777W        W10841   1.232   5.450  10.905
 6778W        W10842   5.299   6.494  11.420
 6779W        W10843   2.358   8.660   1.138
 6780W        W10844   5.485   0.427   9.899
 6781W        W10845   8.879   2.593   2.396
 6782W        W10846   6.658   9.007   8.967
 6783W        W10847   5.455   7.134   9.585
 6784W        W10848   0.288   8.282   8.613
 6785W        W10849   8.564   4.265   0.726
 6786W        W10850   8.926   3.110  10.390
 6787W        W10851   5.121   0.878   3.166
 6788W        W10852   7.630   1.250   0.110
 6789W        W10853   7.641   9.154   0.890
 6790W        W10854   5.561   4.338  10.741
 6791W        W10855   9.811   2.888   0.925
 6792W        W10856   1.756  10.230   0.750
 6793W        W10857   2.390   4.671   1.736
 6794W        W10858   6.351   8.350   0.354
 6795W        W10859   0.251   4.557   1.502
 6796W        W10860   5.219   2.912   1.616
 6797W        W10861   6.744   9.509   9.029
 6798W        W10862   3.488   8.539   3.086
 6799W        W10863   1.431   8.605  10.407
 6800W        W10864   8.912   6.659   1.993
 6801W        W10865   1.724   8.579   3.168
 6802W        W10866   5.153   4.130   3.321
 6803W        W10867   8.207   9.539   3.491
 6804W        W10868   6.184   9.855  10.072
 6805W        W10869   7.798   5.932  10.057
 6806W        W10870   4.165   0.881   0.384
 6807W        W10871   9.847   7.446   9.320
 6808W        W10872   4.286   0.415   0.226
 6809W        W10873   7.131   6.053   8.577
 6810W        W10874   1.252   9.853  10.786
 6811W        W10875   9.373   0.553  11.945
 6812W        W10876  10.256   5.782   0.223
 6813W        W10877   1.647   0.927   3.400
 6814W        W10878   2.456   4.608   0.725
 6815W        W10879   5.530   7.966   9.806
 6816W        W10880   5.184   5.661  10.414
 6817W        W10881   4.709   9.123   9.704
 6818W        W10882   8.337   3.265  11.276
 6819W        W10883  10.063  10.440   9.466
 6820W        W10884   6.881   8.964   1.669
 6821W        W10885   3.245   0.196  10.810
 6822W        W10886   4.466   8.069  10.712
 6823W        W10887   6.811   4.282  11.705
 6824W        W10888   9.845   4.771   2.342
 6825W        W10889   5.772   6.149   0.095
 6826W        W10890   5.113   1.394   1.819
 6827W        W10891   3.561   4.657  10.392
 6828W        W10892   5.672   8.399  11.367
 6829W        W10893   4.585   1.012   2.915
 6830W        W10894   0.560   3.332   2.818
 6831W        W10895   0.131   8.895   9.379
 6832W        W10896   4.969   1.696   0.045
 6833W        W10897  10.386   3.289   1.649
 6834W        W10898   9.024   0.900   8.951
 6835W        W10899   6.421   0.330  10.401
 6836W        W10900   3.328   9.590   0.107
 6837W        W10901   9.940   4.212   2.471
 6838W        W10902  10.246   2.254   2.478
 6839W        W10903   1.213   3.060   1.602
 6840W        W10904   2.982   1.741  11.498
 6841W        W10905   5.434   5.682   2.374
 6842W        W10906   8.875   3.687   9.470
 6843W        W10907   0.767   3.311   3.313
 6844W        W10908   3.951   8.921  11.966
 6845W        W10909   9.429   6.994   3.470
 6846W        W10910   6.581   5.421   1.983
 6847W        W10911   7.589   0.581   1.336
 6848W        W10912   5.583   7.031   2.307
 6849W        W10913   7.130   1.311   0.202
 6850W        W10914   5.441  10.391   0.286
 6851W        W10915   8.550  10.202   8.657
 6852W        W10916   8.891   7.164   0.222
 6853W        W10917   4.060   7.136  10.879
 6854W        W10918   8.870   5.091   9.836
 6855W        W10919   3.737   5.083   9.097
 6856W        W10920   0.382   2.246  11.930
 6857W        W10921   7.245   8.804   8.718
 6858W        W10922  10.496   9.458   3.525
 6859W        W10923   0.293   1.727  11.713
 6860W        W10924   1.774   2.095  11.618
 6861W        W10925   7.584   1.941   8.347
 6862W        W10926   4.005   4.003   3.106
 6863W        W10927   3.272  10.281  11.583
 6864W        W10928   7.573   1.668  10.276
 6865W        W10929   9.269   5.157   3.331
 6866W        W10930   9.575  10.009   0.741
 6867W        W10931   0.578   3.298  11.293
 6868W        W10932   1.763   2.627   9.023
 6869W        W10933   4.926   6.049   3.254
 6870W        W10934   9.894   6.802   2.243
 6871W        W10935   2.472   5.541   2.221
 6872W        W10936   5.006   1.752   3.108
 6873W        W10937   6.754   2.592   0.835
 6874W        W10938   5.461   2.236   9.598
 6875W        W10939   6.408   1.189   9.771
 6876W        W10940   7.956   2.287  11.879
 6877W        W10941   1.305   2.845   8.961
 6878W        W10942   1.267   7.358   0.334
 6879W        W10943   4.936   1.871   0.888
 6880W        W10944   0.837   4.266  10.824
 6881W        W10945   7.380   9.087  11.174
 6882W        W10946  10.030   5.204   9.310
 6883W        W10947   4.323   3.124  11.865
 6884W        W10948   3.396   1.302   0.256
 6885W        W10949   9.937   5.373   9.906
 6886W        W10950   7.390   4.105   3.881
 6887W        W10951   6.257   4.046   2.183
 6888W        W10952   2.107   1.877   1.988
 6889W        W10953   0.618   7.563   2.340
 6890W        W10954   6.413   3.296   8.984
 6891W        W10955   9.706   6.830   1.763
 6892W        W10956   5.656   8.854   3.007
 6893W        W10957  10.418   1.411   2.461
 6894W        W10958   0.321   4.225   2.048
 6895W        W10959   3.958   1.772  11.734
 6896W        W10960   0.372   1.768  10.306
 6897W        W10961   6.636   3.730   2.999
 6898W        W10962   8.604   5.542   0.815
 6899W        W10963   7.989   4.776   3.491
 6900W        W10964   7.154   9.427  11.987
 6901W        W10965   1.785   6.161  11.220
 6902W        W10966   2.616   7.939  11.984
 6903W        W10967   8.501   0.907  11.566
 6904W        W10968  10.095   5.495  10.489
 6905W        W10969   8.488   5.679   3.148
 6906W        W10970   3.702   0.244   9.559
 6907W        W10971   6.038   9.448   1.988
 6908W        W10972   0.868   0.669   8.471
 6909W        W10973   0.509  10.296   8.759
 6910W        W10974   8.971   9.275   8.700
 6911W        W10975   6.152   1.374  11.738
 6912W        W10976   0.057   8.505  10.411
 6913W        W10977   6.507   9.807  10.952
 6914W        W10978   2.679   2.629   8.891
 6915W        W10979   7.905   2.956  11.270
 6916W        W10980   0.885   3.528   9.214
 6917W        W10981   6.640   4.475  10.495
 6918W        W10982   2.590   5.134  11.007
 6919W        W10983   8.618   5.572  11.681
 6920W        W10984   4.421   1.327   0.234
 6921W        W10985   5.211   6.225   0.807
 6922W        W10986   6.420  10.099   8.186
 6923W        W10987   4.231   5.703   2.771
 6924W        W10988   9.962   7.994  10.106
 6925W        W10989   2.413   7.746   0.730
 6926W        W10990   8.995   3.633   1.183
 6927W        W10991   7.349   5.402  11.810
 6928W        W10992   8.325   3.679  11.846
 6929W        W10993   6.467   7.120   9.582
 6930W        W10994   9.965   7.079   0.083
 6931W        W10995   3.788   5.515   2.962
 6932W        W10996  10.483   0.910  11.891
 6933W        W10997   7.619  10.289   2.978
 6934W        W10998   5.116  10.420   3.343
 6935W        W10999   9.521   4.245   1.236
 6936W        W11000   7.545   4.670   3.198
 6937W        W11001   3.213  10.346   2.440
 6938W        W11002   6.936   3.129   3.666
 6939W        W11003   9.366   8.343  10.941
 6940W        W11004   7.983   7.101   3.268
 6941W        W11005   7.540   7.830   9.399
 6942W        W11006   8.452   3.354   2.823
 6943W        W11007   4.606   3.555   2.086
 6944W        W11008   6.458   4.937  10.441
 6945W        W11009   7.547   1.435   1.519
 6946W        W11010   6.030   4.591   0.557
 6947W        W11011   3.863   7.290   2.840
 6948W        W11012   8.569   0.662   1.681
 6949W        W11013   8.516   1.410  11.388
 6950W        W11014   1.240   4.702   1.360
 6951W        W11015   7.461   7.756  11.899
 6952W        W11016  10.312   2.750   9.124
 6953W        W11017   7.937   9.920   2.820
 6954W        W11018   4.485   6.619   2.191
 6955W        W11019   0.825   4.710   0.860
 6956W        W11020   7.067   4.733  11.542
 6957W        W11021   5.200   2.227  10.591
 6958W        W11022   1.693   4.715   0.451
 6959W        W11023   8.521  10.235   1.260
 6960W        W11024   0.112   8.024   0.999
 6961W        W11025   4.610   7.432  10.313
 6962W        W11026   8.411   9.009  11.509
 6963W        W11027   7.158   9.196   9.057
 6964W        W11028   6.286   6.087   9.966
 6965W        W11029   9.895  10.421   8.928
 6966W        W11030   5.941   1.909   0.604
 6967W        W11031   2.761   2.738   0.483
 6968W        W11032   0.280   5.151   2.176
 6969W        W11033   4.060   9.051   1.913
 6970W        W11034   1.886   5.097   1.671
 6971W        W11035   9.024   4.089   0.939
 6972W        W11036   0.404   5.607   0.520
 6973W        W11037   6.695   4.270   3.292
 6974W        W11038  10.447   7.888   3.487
 6975W        W11039   1.987   1.724  10.105
 6976W        W11040   7.585   0.693   3.101
 6977W        W11041   7.607   2.001   3.706
 6978W        W11042   1.216   8.638  11.689
 6979W        W11043   2.785   5.304  10.005
 6980W        W11044   2.414   2.590   3.542
 6981W        W11045  10.323   2.151   1.512
 6982W        W11046   6.026   1.703   8.623
 6983W        W11047   9.373   8.593   1.106
 6984W        W11048   0.759   3.717   0.793
 6985W        W11049   4.188   7.443   1.556
 6986W        W11050   6.330   4.664   0.143
 6987W        W11051   3.570   1.943   9.532
 6988W        W11052   3.112   6.376   3.986
 6989W        W11053   8.566   4.850   2.773
 6990W        W11054   9.399   0.107   8.978
 6991W        W11055   3.638   4.163   1.617
 6992W        W11056   1.613   4.200   0.788
 6993W        W11057   3.373   7.415   9.235
 6994W        W11058   9.901   9.070   9.451
 6995W        W11059   5.643   4.533   0.890
 6996W        W11060   2.231   4.695  10.343
 6997W        W11061  10.017   2.125  10.668
 6998W        W11062   9.248   9.849  11.798
 6999W        W11063   5.115  10.042   0.500
 7000W        W11064   1.178   0.332   2.520
 7001W        W11065   7.474   0.978  11.474
 7002W        W11066   9.979   2.295  11.173
 7003W        W11067   3.377   1.819  10.368
 7004W        W11068   8.000   4.801   9.982
 7005W        W11069   9.353   7.556   2.865
 7006W        W11070   6.397   0.340   2.902
 7007W        W11071   1.718   4.878   9.415
 7008W        W11072   3.659   1.461   9.383
 7009W        W11073   9.912   8.046   0.438
 7010W        W11074   8.844   1.006   0.371
 7011W        W11075   5.483   7.179  10.461
 7012W        W11076   2.394   9.441   0.685
 7013W        W11077   3.837   4.233  10.414
 7014W        W11078   4.801   4.257   2.280
 7015W        W11079   4.602   2.417   0.154
 7016W        W11080   8.424   5.557   0.147
 7017W        W11081   3.673  10.067  11.325
 7018W        W11082   9.065   4.784  11.339
 7019W        W11083   9.638   7.081   9.919
 7020W        W11084   4.586   8.638   8.868
 7021W        W11085   4.795   4.042  10.344
 7022W        W11086   1.954   0.791   9.003
 7023W        W11087   8.422  10.022   2.661
 7024W        W11088  10.110   5.638   3.623
 7025W        W11089   5.210   2.225   3.183
 7026W        W11090   6.907   5.544   0.027
 7027W        W11091   2.248   0.027   9.033
 7028W        W11092   8.139   5.154   2.598
 7029W        W11093   8.304   0.595  10.370
 7030W        W11094  10.014   5.249   8.796
 7031W        W11095   9.253   9.021  10.339
 7032W        W11096  10.059   4.620   2.777
 7033W        W11097   9.010   4.665  10.153
 7034W        W11098   5.768   4.807   1.294
 7035W        W11099   7.182   6.389   3.269
 7036W        W11100   1.685   3.587   9.802
 7037W        W11101   7.572   4.865   2.210
 7038W        W11102   3.734   1.802   9.015
 7039W        W11103   8.599   5.373   2.690
 7040W        W11104   4.074   9.933   3.156
 7041W        W11105   4.225   2.935   1.491
 7042W        W11106   7.122   4.512   3.461
 7043W        W11107   6.937   6.942  11.481
 7044W        W11108   9.788   4.501   0.254
 7045W        W11109   6.646   4.146   1.839
 7046W        W11110   2.635   6.819  10.882
 7047W        W11111   6.901   9.583   0.375
 7048W        W11112   1.684   3.475   8.495
 7049W        W11113  10.323   4.075   8.301
 7050W        W11114   5.450   9.514   8.966
 7051W        W11115   8.949   7.586   9.756
 7052W        W11116   1.309   3.834   0.071
 7053W        W11117   1.060   4.692   8.476
 7054W        W11118   4.550   3.591   9.075
 7055W        W11119   5.544   1.584   8.515
 7056W        W11120   0.861   7.915  10.068
 7057W        W11121  10.435  10.486  11.819
 7058W        W11122   1.446   2.270   1.384
 7059W        W11123   7.376   9.430   2.293
 7060W        W11124   5.529   6.707  11.958
 7061W        W11125   8.849   2.404   0.072
 7062W        W11126   6.413   3.022   8.504
 7063W        W11127   8.945   0.686  11.727
 7064W        W11128   0.297   4.490  11.484
 7065W        W11129   4.725   6.674   8.577
 7066W        W11130   6.690   6.768   9.281
 7067W        W11131   0.561   1.162   0.331
 7068W        W11132   9.259   2.412  11.792
 7069W        W11133   5.294   1.856  11.667
 7070W        W11134   1.184   1.799  11.860
 7071W        W11135  10.473   4.286   9.557
 7072W        W11136   1.015   3.289   2.424
 7073W        W11137   2.710   7.906   1.462
 7074W        W11138   3.282   6.052   9.058
 7075W        W11139   9.792   2.228   2.197
 7076W        W11140   4.277   2.195   1.463
 7077W        W11141   6.509   6.292   1.718
 7078W        W11142   3.083   6.563   2.011
 7079W        W11143   5.443   6.460   2.680
 7080W        W11144   0.808   9.824   3.091
 7081W        W11145   2.765   0.316   3.555
 7082W        W11146   7.877   2.045   0.947
 7083W        W11147   0.500   6.705   0.982
 7084W        W11148   2.203   1.259  10.499
 7085W        W11149   8.452   0.543   1.139
 7086W        W11150   7.894   1.858   1.719
 7087W        W11151   6.475   5.903   2.082
 7088W        W11152   6.681  10.373   2.886
 7089W        W11153   6.974   6.397   2.792
 7090W        W11154   4.284   2.151  11.867
 7091W        W11155   6.504   9.331   1.790
 7092W        W11156   6.115   2.729   2.727
 7093W        W11157   0.703   8.571  11.595
 7094W        W11158   2.284   7.209   1.449
 7095W        W11159   4.179  10.017  11.259
 7096W        W11160  10.287   6.459   2.279
 7097W        W11161  10.331   1.805  11.550
 7098W        W11162   9.289   4.212  10.075
 7099W        W11163   1.311   6.937  11.053
 7100W        W11164   3.740   7.494  10.538
 7101W        W11165   1.314   1.569  11.425
 7102W        W11166   9.580   0.020  11.215
 7103W        W11167   1.146   1.703  10.961
 7104W        W11168   0.389   3.291   1.781
 7105W        W11169   6.526   4.658   0.816
 7106W        W11170   0.036   9.104   0.174
 7107W        W11171   1.821   3.154   1.199
 7108W        W11172   9.869   7.489  10.837
 7109W        W11173   1.438   9.809   0.448
 7110W        W11174   1.608   4.315   1.910
 7111W        W11175   4.663   1.012   1.167
 7112W        W11176   6.907   6.653   1.297
 7113W        W11177   2.813   6.982  10.420
 7114W        W11178   3.553   7.044   9.604
 7115W        W11179   5.109   0.566   1.488
 7116W        W11180   1.991   4.279   0.442
 7117W        W11181   2.766   9.357   9.352
 7118W        W11182   9.278   8.935   3.525
 7119W        W11183   8.396   7.672   8.953
 7120W        W11184   4.061   7.012   9.522
 7121W        W11185   4.319   6.246   4.110
 7122W        W11186   0.810   0.388   1.853
 7123W        W11187   9.468   2.452   0.886
 7124W        W11188   9.859   5.042   1.535
 7125W        W11189   2.553   7.826   9.985
 7126W        W11190  10.194   0.459   3.045
 7127W        W11191   2.864   0.218   1.762
 7128W        W11192   3.332   4.780  11.053
 7129W        W11193   3.584   6.200   8.636
 7130W        W11194   9.552   2.505  11.011
 7131W        W11195   9.593   8.620   2.950
 7132W        W11196   5.503   9.359   9.477
 7133W        W11197   8.457   8.613   9.976
 7134W        W11198   7.866   5.403   8.858
 7135W        W11199   7.014   2.673   2.250
 7136W        W11200   2.629   1.847   2.670
 7137W        W11201   9.777   7.548  11.421
 7138W        W11202   6.937   3.506   9.217
 7139W        W11203   2.278   3.476  10.678
 7140W        W11204   9.169   9.127   0.430
 7141W        W11205   6.560   0.021   8.940
 7142W        W11206   9.012   2.064  10.870
 7143W        W11207   0.922   7.117  11.397
 7144W        W11208   1.420   5.610   3.291
 7145W        W11209   0.333   2.912   9.315
 7146W        W11210  10.308   5.994  10.477
 7147W        W11211   9.147   5.176   9.410
 7148W        W11212   0.523   3.254   2.303
 7149W        W11213   7.473   2.192  11.723
 7150W        W11214   0.215   1.476   3.452
 7151W        W11215  10.265   4.233  10.931
 7152W        W11216  10.370   2.933   9.615
 7153W        W11217   5.479   7.858   0.284
 7154W        W11218   4.767   7.352   1.304
 7155W        W11219   4.619   2.846   0.441
 7156W        W11220   2.369   7.425  11.233
 7157W        W11221   9.340   9.991   2.774
 7158W        W11222   6.589   5.259   3.629
 7159W        W11223   3.622   0.236   3.518
 7160W        W11224   6.209   5.713  10.368
 7161W        W11225   2.588   0.186   0.009
 7162W        W11226   1.450   4.920   1.826
 7163W        W11227   1.849   8.956   9.808
 7164W        W11228  10.262   1.095  10.985
 7165W        W11229   4.297   4.725   0.964
 7166W        W11230   1.817  10.382  11.155
 7167W        W11231   0.381   6.153   0.641
 7168W        W11232   6.781   1.699   0.871
 7169W        W11233   0.909   3.857  11.746
 7170W        W11234   6.105   3.319   8.095
 7171W        W11235   3.593   6.627   0.198
 7172W        W11236   6.971   5.012   9.371
 7173W        W11237   7.356   9.499  11.522
 7174W        W11238   4.622   9.609   1.040
 7175W        W11239   2.604   4.711  10.726
 7176W        W11240   5.680   7.128   4.031
 7177W        W11241   9.688   7.596   2.179
 7178W        W11242   9.724   2.982  11.332
 7179W        W11243   6.228   5.272   1.281
 7180W        W11244   0.326   3.164  10.310
 7181W        W11245   0.495   8.572   9.488
 7182W        W11246   3.795   8.471   2.312
 7183W        W11247   9.619   8.773   2.139
 7184W        W11248   8.348   2.285  11.493
 7185W        W11249   0.174   2.152  10.003
 7186W        W11250   4.976   0.393   9.157
 7187W        W11251   5.109   7.706   0.637
 7188W        W11252  10.032  10.276   0.809
 7189W        W11253   2.311   6.458  10.728
 7190W        W11254   4.991   5.338   1.648
 7191W        W11255   9.464   1.348   1.338
 7192W        W11256   1.885   4.436  11.483
 7193W        W11257   7.701   6.654  11.356
 7194W        W11258   6.674   5.271   3.129
 7195W        W11259   1.264   5.909   1.964
 7196W        W11260   7.097   4.023   3.061
 7197W        W11261   1.823   6.168   0.240
 7198W        W11262   7.567   7.298   2.358
 7199W        W11263   5.538   9.421  10.459
 7200W        W11264   2.691   6.394   2.323
 7201W        W11265   4.057   9.048   0.480
 7202W        W11266   6.089   2.381   0.743
 7203W        W11267   0.821   8.089   2.237
 7204W        W11268   3.192   6.518   8.807
 7205W        W11269   1.703   8.838   8.921
 7206W        W11270   1.303   5.206  10.445
 7207W        W11271   5.597   2.814   2.823
 7208W        W11272   3.226   1.846   0.498
 7209W        W11273   1.622   6.980   1.911
 7210W        W11274   6.205   3.044   9.363
 7211W        W11275   4.816   7.985   3.621
 7212W        W11276   7.510   9.559   9.258
 7213W        W11277   6.663   1.720   2.369
 7214W        W11278   2.799   2.835   9.877
 7215W        W11279  10.265   2.806  10.522
 7216W        W11280   1.781   6.916  11.267
 7217W        W11281   5.939   8.091  11.020
 7218W        W11282   4.153   5.743   2.132
 7219W        W11283   9.976   7.583   1.340
 7220W        W11284   0.822   9.428  10.036
 7221W        W11285   4.193   5.588  11.254
 7222W        W11286   1.338   8.159  11.561
 7223W        W11287   8.594   3.767   1.454
 7224W        W11288   6.886   0.913   0.408
 7225W        W11289   4.733   5.393  10.419
 7226W        W11290   9.842   8.065   2.306
 7227W        W11291   7.115  10.297   8.701
 7228W        W11292   8.116   8.175  11.318
 7229W        W11293   3.038   2.359  10.029
 7230W        W11294   7.576   6.870  10.892
 7231W        W11295   4.086   4.274   9.968
 7232W        W11296  10.294   6.221   0.481
 7233W        W11297   6.412   9.676   2.566
 7234W        W11298   5.058   9.575  11.745
 7235W        W11299   8.632   4.436   2.434
 7236W        W11300   1.624   7.243   2.731
 7237W        W11301   7.482   7.045   3.280
 7238W        W11302   9.403   5.189   1.266
 7239W        W11303   8.297   9.214   2.374
 7240W        W11304   0.322   8.168  11.596
 7241W        W11305   9.835   1.804   3.586
 7242W        W11306   8.457   8.317   2.264
 7243W        W11307   6.933   4.639   8.600
 7244W        W11308   0.593   7.190   1.039
 7245W        W11309   0.779  10.439  10.965
 7246W        W11310   4.176   9.340   2.323
 7247W        W11311   6.511   2.149   0.899
 7248W        W11312   0.793   6.999  10.274
 7249W        W11313   2.817   5.880   3.938
 7250W        W11314   4.070   6.622  11.431
 7251W        W11315   5.933   6.922  10.490
 7252W        W11316   8.353   8.547   9.475
 7253W        W11317   9.450   0.615   9.066
 7254W        W11318   8.098   5.178   0.336
 7255W        W11319   4.783   4.188   0.280
 7256W        W11320   9.880   0.861  10.312
 7257W        W11321   2.918   6.628   9.477
 7258W        W11322   6.845   5.919   0.367
 7259W        W11323  10.432   6.581   1.747
 7260W        W11324   7.394   4.465   9.835
 7261W        W11325   7.953   3.208   2.997
 7262W        W11326   1.387   4.694   0.029
 7263W        W11327   6.279   0.417   1.073
 7264W        W11328   3.120   0.853  10.180
 7265W        W11329   9.490   8.048   1.624
 7266W        W11330   2.114   4.988   0.614
 7267W        W11331   4.211   9.370  11.881
 7268W        W11332   2.808   6.972   0.941
 7269W        W11333   2.760   3.814  11.435
 7270W        W11334   1.705  10.334   9.719
 7271W        W11335   0.881   5.506   8.627
 7272W        W11336   5.880   6.874   3.267
 7273W        W11337   7.408   7.570   0.393
 7274W        W11338   5.199   0.534   2.273
 7275W        W11339   3.281   9.686  11.135
 7276W        W11340   9.259   7.071  10.325
 7277W        W11341   4.978   5.578   0.283
 7278W        W11342   1.777   1.405  11.261
 7279W        W11343   0.549   5.180   8.903
 7280W        W11344   5.738   9.415   0.913
 7281W        W11345   5.041   6.989  11.376
 7282W        W11346   0.879   9.891   1.689
 7283W        W11347   1.688   9.799   8.994
 7284W        W11348   8.983   6.611   9.565
 7285W        W11349   9.908   2.661  11.971
 7286W        W11350   8.112   8.593   8.572
 7287W        W11351   1.983   5.657   2.314
 7288W        W11352   7.884   7.455   9.242
 7289W        W11353   5.503   5.723   9.019
 7290W        W11354   0.307   3.565   9.981
 7291W        W11355  10.364   6.596  11.830
 7292W        W11356   3.336   3.066  11.991
 7293W        W11357   4.543   7.709   9.905
 7294W        W11358   8.419   2.111  11.973
 7295W        W11359   6.529   7.511  10.637
 7296W        W11360   2.852   2.283   2.883
 7297W        W11361   7.399   2.086   9.750
 7298W        W11362   3.651   5.036   9.604
 7299W        W11363   9.390   7.913   2.491
 7300W        W11364   5.952   8.654   0.329
 7301W        W11365   3.602   3.815   9.416
 7302W        W11366   0.278   6.547   2.134
 7303W        W11367   2.373   5.133   9.306
 7304W        W11368   9.790   8.079   1.221
 7305W        W11369   9.334  10.091   8.892
 7306W        W11370   7.370   1.753  11.976
 7307W        W11371   1.490   3.157   2.931
 7308W        W11372   0.784  10.310  10.090
 7309W        W11373   0.872   7.584   3.605
 7310W        W11374   1.244   1.300   9.082
 7311W        W11375   8.094   0.335   9.070
 7312W        W11376   5.083   0.761   0.996
 7313ION    NA+11377   6.457   4.864   8.696
 7314ION    NA+11378   1.835  10.072   2.212
 7315ION    NA+11379   7.761   7.055  11.704
 7316ION    NA+11380   9.064   5.992   1.328
 7317ION    NA+11381   5.485   3.579   9.496
 7318ION    NA+11382   7.899   4.754   0.138
 7319ION    NA+11383   5.516   4.057   0.959
 7320ION    NA+11384   6.216   1.441  10.733
 7321ION    NA+11385   2.617   8.352   9.919
 7322ION    NA+11386   2.738   4.601  10.250
 7323ION    NA+11387   1.513   2.365  10.633
 7324ION    NA+11388  10.105   4.990  11.456
 7325ION    NA+11389   2.677   0.359  10.295
 7326ION    NA+11390   0.604   9.097   9.400
 7327ION    NA+11391   5.158   4.579   2.636
 7328ION    NA+11392   4.196   8.543   0.225
 7329ION    NA+11393   7.478   4.359   2.322
 7330ION    NA+11394   1.134   7.649   2.291
 7331ION    NA+11395   8.837   0.619   9.575
 7332ION    NA+11396   3.714   2.628  10.082
 7333ION    NA+11397   7.328   1.294   1.954
 7334ION    NA+11398   4.993   3.257   0.663
 7335ION    NA+11399   4.220   5.411   0.511
 7336ION    NA+11400   0.617   8.417  11.110
 7337ION    NA+11401   0.672   2.726   1.079
 7338ION    NA+11402   8.280   1.534   1.765
 7339ION    NA+11403   0.799   2.708   9.771
 7340ION    NA+11404   1.504   2.734   0.007
 7341ION    NA+11405   7.064   8.993   9.879
 7342ION    NA+11406   8.449   6.204   3.094
 7343ION    NA+11407   2.930   9.508   2.710
 7344ION    NA+11408   8.932   9.139   2.658
 7345ION    NA+11409   2.405   2.140  11.026
 7346ION    NA+11410   0.915   5.163  11.972
 7347ION    NA+11411   9.659   2.095  11.838
 7348ION    NA+11412   7.057   7.185   0.364
 7349ION    NA+11413   2.309   1.256   9.962
 7350ION    NA+11414   4.984   4.089  11.780
 7351ION    NA+11415   6.544   7.787   9.018
 7352ION    NA+11416   8.630   8.237  11.400
 7353ION    NA+11417   2.700   6.493   0.327
 7354ION    NA+11418   1.664   5.194   2.714
 7355ION    NA+11419   5.148   8.229   0.919
 7356ION    NA+11420   5.644   6.084  11.208
 7357ION    NA+11421   3.047   7.120   9.512
 7358ION    NA+11422   6.717   9.152   3.245
 7359ION    NA+11423   1.709   7.094  10.776
 7360ION    NA+11424  10.478   1.601   9.109
 7361ION    NA+11425   1.427   8.293   0.560
 7362ION    NA+11426   7.878   8.727   9.363
 7363ION    NA+11427   8.389   9.071  10.903
 7364ION    NA+11428   4.401   1.499  11.420
 7365ION    NA+11429   3.117   2.877  11.292
 7366ION    NA+11430   3.805   3.886   0.663
 7367ION    NA+11431   7.668   7.861   1.465
 7368ION    NA+11432   9.024   5.120   2.796
 7369ION    NA+11433   6.642   1.694   3.193
 7370ION    NA+11434   3.449   8.393  11.442
 7371ION    NA+11435   9.883   9.521   1.260
 7372ION    NA+11436   7.057   3.115   2.547
 7373ION    NA+11437   6.195   2.554   1.231
 7374ION    NA+11438   3.999   2.273   0.939
 7375ION    NA+11439   6.028   9.652   9.614
 7376ION    NA+11440   9.960   9.824  11.393
 7377ION    NA+11441   9.026  10.325  10.420
 7378ION    NA+11442   1.198   9.106   0.758
 7379ION    NA+11443   8.466   7.009   2.939
 7380ION    NA+11444   3.738   1.658   3.044
 7381ION    NA+11445   6.015   6.987   8.690
 7382ION    NA+11446   6.572   0.717   0.782
 7383ION    NA+11447   8.454   6.858   0.228
 7384ION    NA+11448   7.079   6.442  11.696
 7385ION    NA+11449   1.429   4.474   8.926
 7386ION    NA+11450   1.660   0.355  10.348
 7387ION    NA+11451   2.982   3.956   0.305
 7388ION    NA+11452   2.089   0.187  11.640
 7389ION    NA+11453   3.861  10.107   0.465
 7390ION    CL-11454   5.856   5.573   2.658
 7391ION    CL-11455   8.173   9.868   1.352
 7392ION    CL-11456   6.201   0.545   0.594
 7393ION    CL-11457   6.575   1.707  10.774
 7394ION    CL-11458   7.478   7.237   9.488
 7395ION    CL-11459  10.166   8.335   0.949
 7396ION    CL-11460   4.090   5.274   9.430
 7397ION    CL-11461   1.578   7.680   2.339
 7398ION    CL-11462   1.920   5.494  10.019
 7399ION    CL-11463   9.377   7.590   3.450
 7400ION    CL-11464   5.539   2.627  11.365
 7401ION    CL-11465   2.946   9.928   8.386
 7402ION    CL-11466   4.118   6.424  10.109
 7403ION    CL-11467   2.332   3.926   3.029
 7404ION    CL-11468   1.200   8.688   0.580
 7405ION    CL-11469  10.451   5.169   9.584
 7406ION    CL-11470   9.165   9.501   2.535
 7407ION    CL-11471   2.127   8.446   3.450
 7408ION    CL-11472  10.241   7.903   0.051
 7409ION    CL-11473   0.282   1.594   0.223
 7410ION    CL-11474   7.791   7.421   1.453
 7411ION    CL-11475   7.682   8.328   9.308
 7412ION    CL-11476   2.907   2.917  11.684
 7413ION    CL-11477   4.248   5.261   0.089
 7414ION    CL-11478   0.640   8.812   9.057
 7415ION    CL-11479   2.024   6.471   1.602
 7416ION    CL-11480   7.886   6.379   9.111
 7417ION    CL-11481   7.362   6.793  11.770
 7418ION    CL-11482   5.471   7.379  11.346
 7419ION    CL-11483   2.793   2.277   3.416
 7420ION    CL-11484   0.978   4.781  11.751
 7421ION    CL-11485   0.288   3.937   0.867
 7422ION    CL-11486   8.651   6.588   2.947
 7423ION    CL-11487   1.056   8.489  11.214
 7424ION    CL-11488  10.207   9.999  11.735
 7425ION    CL-11489   7.254   6.251   1.334
 7426ION    CL-11490   9.693   6.116   3.694
 7427ION    CL-11491   3.901   1.917   1.190
 7428ION    CL-11492   2.884   3.156   2.949
 7429ION    CL-11493   6.236   4.736   9.062
 7430ION    CL-11494   4.480   1.670  11.824
 7431ION    CL-11495   1.908   0.587  11.734
 7432ION    CL-11496   7.865   2.152  10.991
 7433ION    CL-11497   9.835   8.036   9.558
 7434ION    CL-11498   9.708   9.618  11.072
 7435ION    CL-11499   6.503   9.268   2.861
 7436ION    CL-11500  10.070   2.215  11.711
 7437ION    CL-11501   3.411   3.868   0.434
 7438ION    CL-11502   2.267   3.708   2.055
 7439ION    CL-11503   8.861   7.928  11.627
 7440ION    CL-11504   3.683   1.442   2.652
 7441ION    CL-11505  10.381   3.749  10.818
 7442ION    CL-11506   7.348   8.156   1.330
 7443ION    CL-11507   6.770   1.281   9.434
 7444ION    CL-11508   4.139   4.792   1.786
 7445ION    CL-11509   9.321   5.921   1.684
 7446ION    CL-11510   0.240   8.158  11.095
 7447ION    CL-11511   6.324   6.617   1.291
 7448ION    CL-11512   8.636   0.912   9.846
 7449ION    CL-11513   8.817   3.106  11.506
 7450ION    CL-11514   9.372   0.794  11.413
 7451ION    CL-11515   4.785   8.459   9.318
 7452ION    CL-11516   0.049   0.337   0.181
 7453ION    CL-11517   5.090   4.488  11.979
 7454ION    CL-11518   3.803  10.015   9.064
 7455ION    CL-11519   1.281   4.278   2.351
 7456ION    CL-11520   8.148   7.070  11.967
 7457ION    CL-11521   8.856   1.905   3.147
 7458ION    CL-11522   3.254   7.587  10.748
 7459ION    CL-11523   9.578   6.682  10.256
 7460ION    CL-11524   4.446   8.906   0.153
 7461ION    CL-11525   7.705   5.944   2.172
 7462ION    CL-11526   1.490   4.200  10.527
 7463ION    CL-11527   0.732   6.561   2.423
 7464ION    CL-11528   8.370   5.535   8.883
 7465ION    CL-11529  10.121   4.035   8.770
 7466ION    CL-11530   5.077   3.722  11.524
  10.50000  10.50000  12.00000
