Protein in INSANE! Membrane UpperLeaflet>POPC=1.0 LowerLeaflet>POPC=1.0
12676
    1AU     AUC    1   4.622   5.471   7.194 -0.0140  0.0209 -0.0169
    1AU     AUC    2   4.520   5.182   7.191 -0.0711  0.0390  0.0210
    1AU     AUC    3   4.349   5.434   7.122  0.0656 -0.1246 -0.0137
    1AU     AUC    4   4.909   5.490   7.240 -0.0338  0.0482  0.0682
    1AU     AUC    5   4.747   5.751   7.197 -0.0551 -0.0044 -0.0234
    1AU     AUC    6   4.681   5.579   7.454 -0.0180 -0.1160 -0.0298
    1AU     AUC    7   4.451   5.377   7.415 -0.0041  0.0118  0.0651
    1AU     AUC    8   4.792   5.541   6.950 -0.0135 -0.0835 -0.0535
    1AU     AUC    9   4.549   5.374   6.926  0.0937  0.0108  0.0785
    1AU     AUC   10   4.501   5.660   6.994  0.0688 -0.0606  0.0551
    1AU     AUC   11   4.438   5.672   7.295 -0.0231  0.0674 -0.0021
    1AU     AUC   12   4.814   5.251   7.082 -0.0337  0.1005 -0.0562
    1AU     AUC   13   4.763   5.281   7.372 -0.0704  0.0295  0.0309
    1AU     AUC   14   4.401   4.896   7.168  0.0939  0.0452  0.0874
    1AU     AUC   15   4.215   5.126   7.122 -0.0030  0.0239  0.0150
    1AU     AUC   16   4.043   5.398   7.052 -0.0025  0.0339  0.0259
    1AU     AUC   17   5.208   5.530   7.304 -0.0000  0.0139 -0.0239
    1AU     AUC   18   5.028   5.784   7.266  0.0751 -0.0604  0.0353
    1AU     AUC   19   4.820   6.028   7.220 -0.0547 -0.0402  0.0032
    1AU     AUC   20   4.740   5.669   7.725 -0.0319 -0.0193 -0.0834
    1AU     AUC   21   4.509   5.487   7.698 -0.0521  0.1195  0.0479
    1AU     AUC   22   4.278   5.301   7.645  0.0140 -0.0811 -0.0274
    1AU     AUC   23   4.981   5.640   6.735  0.0828 -0.0016 -0.0286
    1AU     AUC   24   4.734   5.427   6.680  0.0673 -0.0007 -0.0938
    1AU     AUC   25   4.490   5.284   6.650  0.0611  0.1139 -0.0269
    1AU     AUC   26   4.393   5.866   6.780  0.0629  0.0136  0.0231
    1AU     AUC   27   4.313   5.884   7.097  0.0595  0.0681  0.0129
    1AU     AUC   28   4.241   5.882   7.375  0.0456  0.0063 -0.0845
    1AU     AUC   29   4.980   5.049   6.949 -0.0738 -0.0216  0.0209
    1AU     AUC   30   4.926   5.039   7.257 -0.0342 -0.0286 -0.0227
    1AU     AUC   31   4.887   5.076   7.573  0.0540 -0.0136 -0.0382
    1AU     AUC   32   4.188   5.618   6.936  0.0540 -0.0416  0.0639
    1AU     AUC   33   4.142   5.647   7.219  0.1679  0.0457  0.0182
    1AU     AUC   34   4.690   4.954   7.067  0.1007  0.0636 -0.0471
    1AU     AUC   35   4.623   4.983   7.370  0.0529  0.0050  0.0678
    1AU     AUC   36   4.606   5.951   7.004 -0.0120 -0.0403 -0.0067
    1AU     AUC   37   4.528   5.964   7.305  0.0083  0.0212 -0.0572
    1AU     AUC   38   5.104   5.273   7.139  0.0364  0.0302 -0.0235
    1AU     AUC   39   5.044   5.307   7.434  0.0451 -0.0460  0.0246
    1AU     AUC   40   4.336   5.097   7.421  0.0806  0.0995  0.1279
    1AU     AUC   41   4.147   5.337   7.336 -0.0283 -0.1113  0.0797
    1AU     AUC   42   4.986   5.628   7.513 -0.0085  0.0612 -0.0342
    1AU     AUC   43   4.782   5.867   7.485 -0.0209  0.0228 -0.1260
    1AU     AUC   44   4.428   5.070   6.914  0.0280 -0.0596 -0.0193
    1AU     AUC   45   4.250   5.332   6.843 -0.0346 -0.1268 -0.0771
    1AU     AUC   46   5.099   5.588   7.011 -0.1015  0.0508 -0.0262
    1AU     AUC   47   4.896   5.823   6.976 -0.0078 -0.1315  0.0547
    1AU     AUC   48   4.499   5.803   7.564 -0.0180 -0.0073 -0.0989
    1AU     AUC   49   4.246   5.591   7.537  0.0934 -0.0821 -0.0061
    1AU     AUC   50   4.698   5.736   6.737 -0.0623 -0.1317  0.0747
    1AU     AUC   51   4.434   5.572   6.700 -0.0216 -0.0192 -0.0059
    1AU     AUC   52   4.815   5.372   7.660  0.0684  0.0316 -0.1027
    1AU     AUC   53   4.573   5.183   7.608 -0.0623  0.0892 -0.0249
    1AU     AUC   54   4.987   5.331   6.850  0.0634  0.0444  0.0891
    1AU     AUC   55   4.722   5.148   6.793 -0.0458  0.0149  0.0617
    1AU    AUSL   56   4.005   5.771   6.993  0.0241  0.0796  0.0022
    1AU    AUSL   57   4.089   5.732   6.571 -0.0012  0.0178  0.0255
    1AU     AUL   58   3.741   5.915   6.640 -0.0410 -0.0260  0.0277
    1AU       S   59   3.788   5.546   6.318 -0.0055 -0.3959  0.0374
    1AU     LIG   60   3.465   5.250   6.285  0.3402  0.0730  0.1670
    1AU     LIG   61   3.125   4.943   6.576 -0.0165  0.2929  0.3812
    1AU     LIG   62   2.880   4.559   6.713 -0.1251  0.3632 -0.1167
    1AU     LIG   63   2.633   4.150   6.787  0.0913  0.0201  0.2299
    1AU     LIG   64   2.315   3.843   7.047 -0.0482 -0.2071 -0.1315
    1AU     LIG   65   2.095   3.910   7.456  0.0302 -0.1687  0.6256
    1AU       S   66   3.742   6.234   7.003 -0.0935 -0.0083 -0.3271
    1AU     LIG   67   3.630   6.681   7.241  0.1362  0.1613  0.0518
    1AU     LIG   68   3.349   6.875   7.382  0.4616 -0.0160 -0.1645
    1AU     LIG   69   3.389   7.376   7.424  0.2583 -0.1438  0.2403
    1AU     LIG   70   3.374   7.831   7.414 -0.2900 -0.1827 -0.2525
    1AU     LIG   71   3.675   8.038   7.511 -0.2487  0.2233 -0.4545
    1AU     LIG   72   4.073   7.891   7.490  0.3410  0.1241 -0.2894
    1AU    AUSL   73   4.132   6.078   6.766 -0.0472  0.0638  0.0218
    1AU    AUSL   74   4.175   6.146   7.168 -0.0174  0.0030  0.0911
    1AU     AUL   75   4.063   6.285   6.665  0.0295  0.0809 -0.0215
    1AU       S   76   3.670   6.311   6.940 -0.1846 -0.0229  0.1148
    1AU     LIG   77   3.296   6.032   6.691  0.1681 -0.0232 -0.0109
    1AU     LIG   78   2.879   5.987   6.782  0.3301  0.0461 -0.0730
    1AU     LIG   79   2.671   6.437   6.922  0.2903 -0.0327  0.1484
    1AU     LIG   80   2.511   6.737   6.760  0.1786 -0.0450  0.1442
    1AU     LIG   81   2.154   6.953   7.006  0.2155 -0.1227 -0.3003
    1AU     LIG   82   2.209   7.023   7.438  0.0547  0.6674  0.4326
    1AU       S   83   4.095   6.600   6.988  0.1354 -0.2033  0.1582
    1AU     LIG   84   4.043   7.058   6.926  0.0451  0.2915 -0.3074
    1AU     LIG   85   4.109   7.398   6.685 -0.0008  0.0187  0.1582
    1AU     LIG   86   4.310   7.756   6.564 -0.1664  0.1175  0.1921
    1AU     LIG   87   4.108   8.169   6.612  0.0535  0.0732  0.0112
    1AU     LIG   88   4.063   8.455   6.527 -0.1408  0.0184 -0.0288
    1AU     LIG   89   3.977   8.801   6.396  0.0189 -0.2064 -0.2069
    1AU    AUSL   90   3.864   5.938   7.338 -0.0460 -0.0011  0.0516
    1AU    AUSL   91   3.787   5.494   7.230 -0.0427  0.0684  0.1099
    1AU     AUL   92   3.670   5.768   7.061  0.0059 -0.0117 -0.0071
    1AU       S   93   3.721   6.116   7.335  0.0898 -0.3782 -0.1810
    1AU     LIG   94   3.340   6.126   7.285  0.1059 -0.1462  0.5222
    1AU     LIG   95   3.017   6.444   7.336  0.3100 -0.3255  0.0011
    1AU     LIG   96   2.790   6.879   7.099  0.3887  0.2045  0.1064
    1AU     LIG   97   2.972   7.289   6.967 -0.0344 -0.0174 -0.0601
    1AU     LIG   98   2.789   7.745   7.118 -0.0873  0.0094  0.3562
    1AU     LIG   99   3.074   7.960   6.970 -0.3430  0.1849  0.2048
    1AU       S  100   3.556   5.366   7.245  0.0931 -0.1273  0.0686
    1AU     LIG  101   3.131   5.202   7.043  0.1658 -0.1560 -0.1103
    1AU     LIG  102   2.780   5.413   7.094  0.0096 -0.0117  0.5786
    1AU     LIG  103   2.448   5.636   7.142  0.2903 -0.3102 -0.1260
    1AU     LIG  104   2.024   5.436   7.067 -0.4294  0.0154 -0.0803
    1AU     LIG  105   1.788   5.584   6.655  0.2131  0.0171 -0.2386
    1AU     LIG  106   1.528   5.462   6.356  0.0470 -0.2242  0.1917
    1AU    AUSL  107   4.571   4.671   7.258  0.0171 -0.0270  0.0021
    1AU    AUSL  108   4.698   4.776   7.681  0.0135  0.1733 -0.0585
    1AU     AUL  109   4.705   4.469   7.539 -0.0220 -0.0203  0.0257
    1AU       S  110   4.918   4.207   7.160 -0.2520  0.2761  0.1706
    1AU     LIG  111   5.278   3.974   7.143 -0.1215  0.2282  0.0403
    1AU     LIG  112   5.595   4.045   6.904  0.0501  0.0626  0.2667
    1AU     LIG  113   5.978   4.085   6.682  0.4554 -0.0148  0.2300
    1AU     LIG  114   6.268   4.031   6.387 -0.0765 -0.4229 -0.0484
    1AU     LIG  115   6.214   3.837   6.032  0.1139  0.1675 -0.0575
    1AU     LIG  116   6.170   3.721   5.566 -0.2171  0.1825  0.0649
    1AU       S  117   4.351   4.380   7.828 -0.6692 -0.0798  0.3044
    1AU     LIG  118   4.617   4.052   7.899 -0.1922 -0.2987 -0.1298
    1AU     LIG  119   4.712   3.684   7.832  0.0051 -0.0048 -0.0688
    1AU     LIG  120   5.031   3.436   7.933  0.1415  0.1672  0.2931
    1AU     LIG  121   5.418   3.314   7.722  0.0070  0.0712 -0.1703
    1AU     LIG  122   5.860   3.147   7.806  0.2098  0.0198 -0.3149
    1AU     LIG  123   6.247   3.055   7.631  0.3918  0.0641  0.3707
    1AU    AUSL  124   4.906   4.667   7.030  0.0106 -0.0877  0.0894
    1AU    AUSL  125   4.474   4.678   6.866 -0.0392 -0.0251 -0.0208
    1AU     AUL  126   4.538   4.433   7.049  0.0059  0.0553 -0.0579
    1AU       S  127   4.549   4.498   6.602 -0.1245  0.1873  0.0443
    1AU     LIG  128   4.207   4.244   6.593 -0.0677  0.1104  0.1642
    1AU     LIG  129   3.814   4.140   6.384 -0.1187 -0.4079 -0.0229
    1AU     LIG  130   3.410   4.053   6.211  0.1727  0.1039 -0.1625
    1AU     LIG  131   3.063   3.766   6.173  0.2512 -0.2443 -0.0910
    1AU     LIG  132   2.810   3.473   6.015 -0.2511  0.4502 -0.4576
    1AU     LIG  133   3.128   3.215   5.988 -0.0482  0.0716 -0.4446
    1AU       S  134   5.013   4.361   6.941  0.1907 -0.2633 -0.1021
    1AU     LIG  135   5.117   4.016   6.678  0.1450  0.0241  0.4145
    1AU     LIG  136   4.913   3.616   6.522 -0.2411 -0.0116 -0.2035
    1AU     LIG  137   4.761   3.243   6.403 -0.2466 -0.3981 -0.0927
    1AU     LIG  138   4.554   2.949   6.068 -0.2047  0.0542  0.2843
    1AU     LIG  139   4.603   2.738   5.720  0.1484 -0.1699 -0.2203
    1AU     LIG  140   4.981   2.755   5.463  0.1569 -0.1363  0.3841
    1AU    AUSL  141   4.875   4.936   7.360 -0.0523  0.0439  0.0023
    1AU    AUSL  142   5.245   4.863   7.179 -0.0589  0.0581  0.0329
    1AU     AUL  143   5.086   4.584   7.351 -0.0919  0.0960  0.0190
    1AU       S  144   5.554   4.709   7.425 -0.0762  0.1102 -0.2669
    1AU     LIG  145   5.540   4.297   7.409 -0.0277  0.0213  0.0061
    1AU     LIG  146   5.710   3.893   7.452  0.4080  0.1164 -0.1623
    1AU     LIG  147   5.873   3.705   7.045 -0.1864 -0.3920  0.0197
    1AU     LIG  148   5.829   3.329   7.127  0.2546 -0.0625  0.1018
    1AU     LIG  149   5.994   2.965   7.080  0.0235 -0.0890 -0.1177
    1AU     LIG  150   6.177   2.713   6.816 -0.0598 -0.1104  0.2686
    1AU       S  151   5.058   4.563   6.904  0.3939 -0.2538  0.2731
    1AU     LIG  152   5.459   4.638   6.778  0.3082  0.2750 -0.0979
    1AU     LIG  153   5.843   4.591   7.026  0.1758 -0.0473 -0.4690
    1AU     LIG  154   6.252   4.428   7.155 -0.2091 -0.0545  0.1756
    1AU     LIG  155   6.495   4.081   6.924  0.2189 -0.0406  0.1554
    1AU     LIG  156   6.397   3.592   6.728  0.2101 -0.2451  0.1808
    1AU     LIG  157   6.442   3.237   7.063  0.3397 -0.0344  0.2926
    1AU    AUSL  158   4.565   6.286   7.175 -0.0349 -0.0101  0.0198
    1AU    AUSL  159   4.356   6.154   7.525 -0.0037  0.0606 -0.0134
    1AU     AUL  160   4.177   6.338   7.360 -0.0078  0.1357 -0.0296
    1AU       S  161   4.399   6.699   7.206 -0.0848  0.3661  0.4506
    1AU     LIG  162   4.510   7.063   7.171  0.2356 -0.1935  0.3787
    1AU     LIG  163   4.634   7.556   7.170  0.1250 -0.2641  0.2864
    1AU     LIG  164   4.384   7.956   7.029  0.3767  0.0190 -0.0022
    1AU     LIG  165   4.161   8.402   7.068 -0.1393  0.2319 -0.0295
    1AU     LIG  166   3.898   8.562   7.162 -0.0481 -0.5376  0.2040
    1AU     LIG  167   3.651   8.575   7.494 -0.0637 -0.1777 -0.1608
    1AU       S  168   4.429   6.577   7.685 -0.4667  0.2583  0.5030
    1AU     LIG  169   4.059   6.762   7.615 -0.2270 -0.1647  0.4219
    1AU     LIG  170   3.763   7.169   7.678 -0.1932  0.1762 -0.0831
    1AU     LIG  171   3.650   7.548   7.884  0.3366  0.1716 -0.1535
    1AU     LIG  172   3.834   7.935   8.052  0.0389  0.2282  0.1389
    1AU     LIG  173   4.093   8.290   8.283 -0.2232  0.0364 -0.1202
    1AU     LIG  174   4.208   8.530   8.668  0.2663 -0.3537 -0.1425
    1AU    AUSL  175   4.469   5.940   6.960 -0.0253 -0.0255 -0.0463
    1AU    AUSL  176   4.896   6.251   6.950 -0.0307 -0.0501 -0.0762
    1AU     AUL  177   4.722   6.439   7.037  0.0404  0.0133  0.0509
    1AU       S  178   4.834   6.567   6.621 -0.4086 -0.1673  0.1760
    1AU     LIG  179   4.942   6.920   6.771 -0.1203  0.0329  0.2342
    1AU     LIG  180   5.310   7.138   6.696  0.1291  0.0941  0.0412
    1AU     LIG  181   5.657   6.952   6.717 -0.0429  0.2366  0.0458
    1AU     LIG  182   6.001   7.029   6.885  0.0914 -0.2011 -0.0153
    1AU     LIG  183   6.443   6.907   7.018 -0.3616 -0.0959 -0.1696
    1AU     LIG  184   6.708   7.232   7.289  0.1839  0.1632  0.3163
    1AU       S  185   4.280   6.585   6.953 -0.2372  0.0707 -0.0350
    1AU     LIG  186   4.449   6.983   6.685  0.0067 -0.1455  0.2807
    1AU     LIG  187   4.587   7.390   6.677 -0.3372 -0.0077 -0.2502
    1AU     LIG  188   4.996   7.582   6.674  0.1466  0.0270  0.1704
    1AU     LIG  189   5.349   7.657   6.765 -0.1339 -0.1178  0.1447
    1AU     LIG  190   5.751   7.544   6.928  0.2905  0.1567  0.0068
    1AU     LIG  191   5.983   7.738   7.207 -0.0370 -0.2353 -0.0700
    1AU    AUSL  192   5.271   5.256   7.292  0.0036  0.1179 -0.0681
    1AU    AUSL  193   5.272   5.139   6.886  0.0727  0.0518  0.0252
    1AU     AUL  194   5.538   5.017   7.064 -0.0009 -0.1290  0.0122
    1AU       S  195   5.702   4.844   7.502  0.2114  0.0432  0.2454
    1AU     LIG  196   6.072   4.615   7.546  0.3203  0.0114 -0.0703
    1AU     LIG  197   6.140   4.183   7.590 -0.0496  0.0278 -0.2560
    1AU     LIG  198   6.460   3.940   7.810  0.1066 -0.3393 -0.1588
    1AU     LIG  199   6.773   4.084   8.090  0.1424 -0.2529 -0.0350
    1AU     LIG  200   6.810   4.387   8.464 -0.1791 -0.1149 -0.2339
    1AU     LIG  201   6.808   4.695   8.672 -0.0480  0.0303  0.2139
    1AU       S  202   5.764   5.231   6.687  0.2595 -0.3566  0.1262
    1AU     LIG  203   6.000   5.079   7.111  0.1235  0.4374  0.0608
    1AU     LIG  204   6.318   5.002   7.339 -0.0196 -0.1477  0.0798
    1AU     LIG  205   6.748   4.939   7.315 -0.6045  0.0443 -0.5170
    1AU     LIG  206   7.077   4.642   7.375  0.2175 -0.0013 -0.1970
    1AU     LIG  207   7.515   4.515   7.172 -0.3147 -0.1389 -0.1837
    1AU     LIG  208   7.817   4.242   7.133  0.0653 -0.0583 -0.0066
    1AU    AUSL  209   5.203   4.965   7.600  0.0622  0.0844 -0.0179
    1AU    AUSL  210   5.375   5.451   7.649 -0.0063  0.0921  0.0331
    1AU     AUL  211   5.557   5.280   7.475  0.0940 -0.0301  0.0196
    1AU       S  212   5.545   5.254   7.931  0.0747 -0.4275 -0.0250
    1AU     LIG  213   5.940   5.298   7.842 -0.1724 -0.1906  0.3510
    1AU     LIG  214   6.378   5.326   7.705  0.3706  0.8337  0.0955
    1AU     LIG  215   6.746   5.517   7.665  0.1632 -0.1450  0.1465
    1AU     LIG  216   6.923   5.428   7.297  0.0769 -0.0961  0.1459
    1AU     LIG  217   7.210   5.083   7.218  0.3169  0.0352 -0.0176
    1AU     LIG  218   7.576   4.991   7.307 -0.2153 -0.0297 -0.6785
    1AU       S  219   5.385   4.822   7.583  0.3078  0.2169  0.0874
    1AU     LIG  220   5.521   4.486   7.888 -0.2965  0.0681 -0.1710
    1AU     LIG  221   5.569   4.083   7.926  0.1348 -0.1872 -0.0901
    1AU     LIG  222   5.801   3.655   7.877 -0.0263  0.2708  0.0444
    1AU     LIG  223   6.167   3.558   7.467  0.0572  0.0146 -0.0498
    1AU     LIG  224   6.518   3.849   7.328  0.1174 -0.0065 -0.2172
    1AU     LIG  225   6.908   3.824   7.358 -0.1181 -0.2281  0.2809
    1AU    AUSL  226   4.058   5.070   7.708 -0.0483  0.0334  0.1030
    1AU    AUSL  227   4.285   4.752   7.546 -0.0847  0.0546 -0.0172
    1AU     AUL  228   4.077   4.851   7.937  0.1129  0.0231 -0.0345
    1AU       S  229   4.215   4.457   7.601 -0.5088  0.2264  0.0288
    1AU     LIG  230   4.415   4.076   7.434 -0.0430  0.4048  0.2906
    1AU     LIG  231   4.759   3.785   7.354  0.1943 -0.4541  0.4755
    1AU     LIG  232   4.860   3.617   7.022  0.0979  0.2365 -0.0120
    1AU     LIG  233   4.884   3.211   6.892 -0.1260  0.1603  0.0676
    1AU     LIG  234   5.253   2.997   7.065 -0.2713  0.0282 -0.2700
    1AU     LIG  235   5.633   2.976   7.415  0.1406 -0.3913 -0.3283
    1AU       S  236   3.775   4.713   7.595  0.1263 -0.1425  0.3588
    1AU     LIG  237   3.802   4.226   7.660 -0.2641  0.0546  0.0908
    1AU     LIG  238   3.797   3.794   7.437  0.2979 -0.2573  0.4648
    1AU     LIG  239   4.215   3.607   7.479  0.0127 -0.0597  0.1942
    1AU     LIG  240   4.442   3.194   7.298 -0.2728 -0.1994  0.3040
    1AU     LIG  241   4.868   2.818   7.333  0.2105 -0.0607  0.4839
    1AU     LIG  242   5.160   2.674   7.452 -0.1083 -0.1151 -0.1210
    1AU    AUSL  243   4.095   4.775   7.197  0.0093  0.0393 -0.0792
    1AU    AUSL  244   3.881   5.053   6.945 -0.0217 -0.0451  0.0014
    1AU     AUL  245   3.773   4.711   6.909 -0.0105  0.0216  0.0016
    1AU       S  246   3.834   4.724   7.392  0.2028  0.1295  0.2411
    1AU     LIG  247   3.543   4.336   7.251  0.1752 -0.0536 -0.1007
    1AU     LIG  248   3.364   3.905   7.119 -0.0109  0.2281  0.0344
    1AU     LIG  249   3.306   3.408   7.231 -0.0215 -0.0405 -0.1745
    1AU     LIG  250   3.446   3.015   7.295  0.2973 -0.2747 -0.2852
    1AU     LIG  251   3.266   2.606   7.219  0.1967  0.4694  0.0780
    1AU     LIG  252   3.219   2.306   6.928  0.1130 -0.1423  0.0662
    1AU       S  253   3.745   4.839   6.449 -0.0568 -0.5020 -0.0085
    1AU     LIG  254   3.441   4.513   6.529  0.2587  0.0059  0.3566
    1AU     LIG  255   3.402   4.299   6.747 -0.2368 -0.0756 -0.0495
    1AU     LIG  256   3.062   3.922   6.707 -0.1806 -0.1894 -0.0709
    1AU     LIG  257   2.594   3.688   6.592 -0.1012  0.2918 -0.2734
    1AU     LIG  258   2.198   3.987   6.532 -0.0564  0.2200  0.1772
    1AU     LIG  259   1.737   4.137   6.513  0.0918 -0.0841 -0.2962
    1AU    AUSL  260   4.030   5.170   7.312 -0.0406 -0.0505  0.0618
    1AU    AUSL  261   3.907   5.450   7.631  0.0886 -0.0029 -0.0679
    1AU     AUL  262   3.791   5.213   7.623 -0.0572  0.0064 -0.0612
    1AU       S  263   3.511   5.521   7.458  0.1247  0.0979 -0.3804
    1AU     LIG  264   3.279   5.150   7.623 -0.0108 -0.1973 -0.0133
    1AU     LIG  265   2.967   4.894   7.508 -0.0460 -0.0431 -0.4399
    1AU     LIG  266   2.677   4.504   7.599  0.4305  0.1661 -0.1484
    1AU     LIG  267   2.363   4.415   7.151  0.0243  0.0999 -0.3992
    1AU     LIG  268   1.966   4.304   7.066 -0.3674  0.1177 -0.3880
    1AU     LIG  269   1.808   3.854   6.913  0.0843 -0.0582 -0.0707
    1AU       S  270   3.672   4.855   7.360 -0.0705 -0.0994 -0.0377
    1AU     LIG  271   3.269   4.752   7.055 -0.0253 -0.3411 -0.3358
    1AU     LIG  272   2.762   4.853   7.080  0.2522  0.0468 -0.0982
    1AU     LIG  273   2.467   4.879   7.341 -0.1131 -0.5211  0.1794
    1AU     LIG  274   2.398   4.941   7.765  0.4842 -0.3596  0.0901
    1AU     LIG  275   2.758   4.900   7.978  0.1831  0.0331  0.3314
    1AU     LIG  276   3.066   5.067   8.058 -0.4285 -0.1872 -0.0963
    1AU    AUSL  277   4.967   5.946   7.794  0.0312  0.0390  0.0068
    1AU    AUSL  278   4.770   6.190   7.527 -0.0018  0.0155  0.0807
    1AU     AUL  279   4.798   6.184   7.913 -0.0053 -0.0342 -0.0149
    1AU       S  280   4.775   6.522   7.555  0.2853 -0.2330 -0.3212
    1AU     LIG  281   4.940   6.831   7.301 -0.2546 -0.0282 -0.1272
    1AU     LIG  282   5.087   7.290   7.098  0.3093 -0.0363 -0.2212
    1AU     LIG  283   5.333   7.626   7.250  0.1245  0.0419 -0.1207
    1AU     LIG  284   5.531   8.066   7.293  0.1614 -0.4351  0.1683
    1AU     LIG  285   5.643   8.488   7.309  0.2531 -0.4371  0.1642
    1AU     LIG  286   6.002   8.751   7.087  0.0027  0.2254 -0.1777
    1AU       S  287   5.211   6.364   7.810  0.0434  0.0198  0.0359
    1AU     LIG  288   5.314   6.778   7.663  0.2001  0.0228  0.0170
    1AU     LIG  289   5.250   7.223   7.603 -0.0834  0.0303  0.0446
    1AU     LIG  290   4.833   7.257   7.567  0.1556 -0.1811 -0.0663
    1AU     LIG  291   4.636   7.576   7.648  0.2580 -0.2811 -0.1148
    1AU     LIG  292   4.684   7.997   7.465 -0.2893 -0.1764 -0.2257
    1AU     LIG  293   4.698   8.484   7.398 -0.0470  0.1009  0.0296
    1AU    AUSL  294   5.111   5.710   7.492  0.1647 -0.0811  0.0372
    1AU    AUSL  295   5.048   5.569   7.916  0.0119  0.0532 -0.0250
    1AU     AUL  296   5.272   5.740   7.889 -0.0347  0.0226 -0.0662
    1AU       S  297   5.388   6.189   7.799  0.0532 -0.1281  0.0751
    1AU     LIG  298   5.797   5.979   7.850 -0.0449  0.0368  0.2685
    1AU     LIG  299   5.874   5.726   7.603 -0.1057 -0.0530 -0.1798
    1AU     LIG  300   6.083   5.650   7.312 -0.0364 -0.0186  0.0549
    1AU     LIG  301   6.462   5.415   7.169  0.0320 -0.1273  0.3490
    1AU     LIG  302   6.668   5.255   6.911  0.1062  0.0118  0.1544
    1AU     LIG  303   7.092   5.301   6.733  0.1247  0.0683 -0.0076
    1AU       S  304   5.397   5.408   8.163 -0.2106  0.1648  0.1097
    1AU     LIG  305   5.516   5.850   8.357 -0.1766  0.0404  0.0106
    1AU     LIG  306   5.417   6.237   8.389  0.2650 -0.3533 -0.2107
    1AU     LIG  307   5.691   6.483   8.079 -0.0482 -0.0881 -0.2371
    1AU     LIG  308   6.068   6.554   7.798 -0.0055 -0.5475 -0.0167
    1AU     LIG  309   5.978   6.831   7.369 -0.1291 -0.2202 -0.0850
    1AU     LIG  310   5.833   6.562   6.951 -0.0851 -0.0793 -0.1815
    1AU    AUSL  311   5.147   6.125   7.410 -0.0621  0.0725  0.0817
    1AU    AUSL  312   5.386   5.822   7.220  0.0377 -0.1258 -0.1296
    1AU     AUL  313   5.449   5.880   7.498  0.0638  0.0247 -0.0269
    1AU       S  314   5.543   6.125   7.121  0.2548  0.0132 -0.2244
    1AU     LIG  315   5.969   6.080   6.901 -0.1089  0.1160  0.0016
    1AU     LIG  316   6.401   5.933   7.073  0.1346  0.2193 -0.1171
    1AU     LIG  317   6.778   5.955   7.358 -0.0620 -0.1031 -0.2511
    1AU     LIG  318   7.030   6.363   7.433  0.3550  0.1462  0.1253
    1AU     LIG  319   7.023   6.742   7.185 -0.1528  0.4102  0.0049
    1AU     LIG  320   7.203   7.148   7.108  0.3324  0.3896  0.0119
    1AU       S  321   5.188   6.332   7.427 -0.1991  0.1810 -0.4289
    1AU     LIG  322   5.640   6.457   7.477 -0.1517 -0.1999  0.2870
    1AU     LIG  323   5.952   6.203   7.420  0.0565  0.1681 -0.0594
    1AU     LIG  324   6.331   5.946   7.608  0.0180 -0.0472  0.1829
    1AU     LIG  325   6.392   5.726   8.015 -0.0274  0.0179 -0.1461
    1AU     LIG  326   6.689   5.950   8.189 -0.0476  0.1067  0.3678
    1AU     LIG  327   6.623   5.991   8.604 -0.0016 -0.1297  0.1898
    1AU    AUSL  328   4.121   5.091   6.594  0.0587  0.0775 -0.0734
    1AU    AUSL  329   3.921   5.426   6.788  0.0010 -0.0340  0.0332
    1AU     AUL  330   3.685   5.150   6.780  0.0836  0.1042 -0.0260
    1AU       S  331   3.950   4.988   6.388  0.5329 -0.4451  0.2159
    1AU     LIG  332   4.078   4.600   6.168 -0.1504  0.1334 -0.2736
    1AU     LIG  333   4.175   4.145   6.098 -0.0596  0.0171  0.0430
    1AU     LIG  334   4.538   3.877   6.349  0.1981  0.3231  0.1430
    1AU     LIG  335   4.647   3.970   6.719 -0.0241 -0.0559  0.1755
    1AU     LIG  336   4.288   3.817   7.042  0.0609 -0.1188 -0.1521
    1AU     LIG  337   3.958   3.559   7.048  0.0787 -0.2956  0.0504
    1AU       S  338   3.864   5.505   6.549  0.4527 -0.0523  0.3636
    1AU     LIG  339   3.359   5.509   6.664 -0.2792 -0.0007  0.0892
    1AU     LIG  340   3.152   5.743   7.111 -0.2023  0.1853  0.3689
    1AU     LIG  341   3.034   5.623   7.498 -0.1270 -0.1793  0.1592
    1AU     LIG  342   3.117   5.666   7.885  0.0362 -0.0269  0.0806
    1AU     LIG  343   3.189   5.724   8.290  0.2427  0.1020  0.1664
    1AU     LIG  344   3.193   5.628   8.795 -0.1531 -0.1937  0.3445
    1AU    AUSL  345   4.294   5.028   6.959  0.0716 -0.0261 -0.0452
    1AU    AUSL  346   4.502   4.961   6.559 -0.0548 -0.0183  0.0088
    1AU     AUL  347   4.199   4.734   6.709  0.0593 -0.0036 -0.0442
    1AU       S  348   4.057   5.083   6.469 -0.4702  0.4027 -0.0498
    1AU     LIG  349   4.360   4.986   6.092  0.0323  0.2349 -0.2193
    1AU     LIG  350   4.239   4.820   5.721  0.2956 -0.1518  0.3118
    1AU     LIG  351   4.422   4.693   5.446 -0.0949  0.0862 -0.1393
    1AU     LIG  352   4.511   4.614   4.944 -0.1741  0.2270 -0.1491
    1AU     LIG  353   4.625   4.644   4.515  0.2803  0.4451  0.2733
    1AU     LIG  354   4.845   4.395   4.249  0.1977  0.0709 -0.3220
    1AU       S  355   4.544   4.579   6.335  0.5008 -0.0113 -0.3078
    1AU     LIG  356   4.670   4.502   6.029  0.1524  0.1929 -0.2783
    1AU     LIG  357   4.797   4.354   5.676 -0.0418  0.1556 -0.0530
    1AU     LIG  358   4.897   3.890   5.663  0.0496 -0.0470  0.1342
    1AU     LIG  359   4.628   3.568   5.554 -0.0862 -0.1526  0.3999
    1AU     LIG  360   4.359   3.200   5.579  0.1944  0.2031 -0.2608
    1AU     LIG  361   4.126   3.031   5.856  0.0602  0.1661 -0.0985
    1AU    AUSL  362   5.277   5.837   6.797 -0.0673 -0.0639 -0.0247
    1AU    AUSL  363   5.450   5.486   7.021  0.0032 -0.0178 -0.0476
    1AU     AUL  364   5.689   5.700   7.054  0.0028 -0.0060  0.0171
    1AU       S  365   5.697   5.403   6.682  0.0174  0.0078  0.1278
    1AU     LIG  366   6.178   5.479   6.739  0.2027  0.2435  0.1261
    1AU     LIG  367   6.610   5.493   6.517 -0.0226 -0.3197 -0.0539
    1AU     LIG  368   6.823   5.304   6.298  0.0501 -0.0574  0.0511
    1AU     LIG  369   7.112   5.103   6.049 -0.0347 -0.3622  0.0546
    1AU     LIG  370   7.463   5.374   5.810 -0.6538  0.1998  0.1677
    1AU     LIG  371   7.598   5.631   5.529 -0.0800  0.1413 -0.2353
    1AU       S  372   5.443   6.081   6.976 -0.0009  0.2603  0.1091
    1AU     LIG  373   5.580   6.267   6.587 -0.1167  0.1270  0.0442
    1AU     LIG  374   6.033   6.436   6.521 -0.1448  0.2087 -0.0745
    1AU     LIG  375   6.315   6.440   6.839  0.0101 -0.0324 -0.0874
    1AU     LIG  376   6.776   6.322   7.048  0.0393 -0.0245  0.2205
    1AU     LIG  377   7.154   6.165   6.910  0.0783  0.0166 -0.2047
    1AU     LIG  378   7.468   6.262   6.685 -0.2574  0.3764 -0.2763
    1AU    AUSL  379   5.000   5.897   7.104 -0.0306  0.0550 -0.0080
    1AU    AUSL  380   4.891   5.925   6.679  0.0039 -0.0611  0.0909
    1AU     AUL  381   5.086   6.151   6.695  0.0072  0.1365  0.0731
    1AU       S  382   4.861   6.441   6.412  0.0626 -0.3647 -0.2155
    1AU     LIG  383   4.870   6.325   6.007  0.0976 -0.0591 -0.0284
    1AU     LIG  384   4.742   6.145   5.664 -0.1323  0.1767 -0.1326
    1AU     LIG  385   4.327   5.956   5.585  0.0411  0.0760 -0.0177
    1AU     LIG  386   3.907   5.790   5.419 -0.2620 -0.2235  0.2299
    1AU     LIG  387   3.581   5.545   5.508  0.1715 -0.5237  0.4650
    1AU     LIG  388   3.385   5.493   5.902  0.1990 -0.2986  0.0372
    1AU       S  389   5.394   6.214   7.013 -0.1952 -0.3353 -0.0748
    1AU     LIG  390   5.295   6.629   6.979 -0.2222  0.1181  0.1070
    1AU     LIG  391   5.478   6.994   7.199  0.0311  0.3366 -0.2585
    1AU     LIG  392   5.756   7.269   7.368 -0.3083 -0.4201  0.1202
    1AU     LIG  393   6.178   7.297   7.274  0.1275  0.0471 -0.1159
    1AU     LIG  394   6.444   7.419   6.903 -0.1680  0.0776 -0.1422
    1AU     LIG  395   6.213   7.749   6.757 -0.4606  0.1860  0.5519
    1AU    AUSL  396   4.132   5.902   7.754  0.0839  0.0231 -0.0064
    1AU    AUSL  397   4.581   5.862   7.665  0.0571  0.0549 -0.0542
    1AU     AUL  398   4.295   6.125   7.876  0.0250  0.0281  0.1385
    1AU       S  399   4.486   6.490   7.707  0.1633  0.3802  0.0549
    1AU     LIG  400   4.787   6.847   7.939  0.2402  0.1474  0.1068
    1AU     LIG  401   4.914   7.145   8.063 -0.2104  0.0685 -0.1203
    1AU     LIG  402   5.103   7.523   7.944  0.3754 -0.3296 -0.2362
    1AU     LIG  403   5.173   7.864   7.679  0.2804  0.1262 -0.1601
    1AU     LIG  404   5.143   8.350   7.362 -0.0186  0.4588 -0.0286
    1AU     LIG  405   5.117   8.650   7.097  0.0288 -0.0608 -0.2549
    1AU       S  406   4.040   5.730   8.169  0.0340 -0.0293  0.2860
    1AU     LIG  407   3.830   6.034   8.139  0.0100  0.3126 -0.2073
    1AU     LIG  408   3.884   6.351   7.730 -0.0415 -0.1858 -0.1812
    1AU     LIG  409   3.528   6.573   7.829 -0.1270  0.2167 -0.2509
    1AU     LIG  410   3.019   6.635   7.777 -0.1631  0.0268 -0.2802
    1AU     LIG  411   2.722   6.953   7.597 -0.2986 -0.1236  0.1083
    1AU     LIG  412   2.564   7.310   7.351 -0.1190  0.0732 -0.3374
    1AU    AUSL  413   4.524   5.762   8.044  0.0076 -0.0214 -0.0069
    1AU    AUSL  414   4.393   5.177   7.990 -0.0369  0.0010  0.1176
    1AU     AUL  415   4.608   5.514   8.293  0.0958 -0.0479  0.0300
    1AU       S  416   4.219   5.786   8.243 -0.3318  0.1242 -0.0966
    1AU     LIG  417   4.555   6.100   8.417  0.2564 -0.0774  0.1455
    1AU     LIG  418   4.694   6.431   8.317  0.1330  0.1142  0.0648
    1AU     LIG  419   4.597   6.873   8.349  0.1023 -0.0186 -0.0439
    1AU     LIG  420   4.381   7.135   8.131 -0.1055  0.1747  0.1851
    1AU     LIG  421   4.419   7.086   7.681 -0.2454  0.2554  0.1091
    1AU     LIG  422   4.169   7.354   7.421  0.0337  0.0831 -0.3053
    1AU       S  423   4.411   5.018   8.331 -0.6340  0.3437  0.1881
    1AU     LIG  424   4.351   4.542   8.274 -0.1481 -0.0444  0.2237
    1AU     LIG  425   4.293   4.096   8.261 -0.1386 -0.4952  0.2377
    1AU     LIG  426   4.106   3.896   7.931  0.1854 -0.0162  0.2114
    1AU     LIG  427   3.951   3.491   7.854 -0.2429 -0.1457  0.1110
    1AU     LIG  428   4.021   3.116   7.603 -0.2694 -0.0438  0.2314
    1AU     LIG  429   4.002   3.075   7.158  0.0325 -0.2299  0.5021
    1AU    AUSL  430   4.258   5.514   7.812 -0.0050 -0.0833  0.0639
    1AU    AUSL  431   4.160   5.677   7.406 -0.1300 -0.0879 -0.0273
    1AU     AUL  432   3.888   5.718   7.757  0.0708  0.0453 -0.1280
    1AU       S  433   3.513   5.652   7.501 -0.2716  0.5262  0.3513
    1AU     LIG  434   3.480   5.996   7.744  0.2200  0.3647  0.3374
    1AU     LIG  435   2.967   6.091   7.707 -0.0321 -0.1889  0.2919
    1AU     LIG  436   2.643   6.029   7.379  0.4874 -0.1659  0.1792
    1AU     LIG  437   2.268   6.190   7.192 -0.0070  0.0600  0.1608
    1AU     LIG  438   2.110   6.465   6.863  0.0723  0.5125 -0.2109
    1AU     LIG  439   1.772   6.705   6.733 -0.1534 -0.2179 -0.2963
    1AU       S  440   4.114   5.532   8.124  0.1942 -0.3100  0.2111
    1AU     LIG  441   3.883   5.198   8.284 -0.0473  0.1623 -0.0784
    1AU     LIG  442   3.597   4.975   8.016  0.1416  0.2004  0.1064
    1AU     LIG  443   3.336   4.644   7.835  0.4728 -0.1028  0.1751
    1AU     LIG  444   3.122   4.297   7.554 -0.3763 -0.0256  0.2806
    1AU     LIG  445   2.895   4.274   7.191 -0.1058 -0.1491 -0.3580
    1AU     LIG  446   2.855   3.787   7.161  0.1544 -0.4919 -0.5187
    1AU    AUSL  447   4.488   5.805   6.526 -0.0570 -0.0221  0.0089
    1AU    AUSL  448   4.329   5.418   6.687 -0.1860  0.0444  0.0154
    1AU     AUL  449   4.213   5.826   6.354  0.0558 -0.1148 -0.0415
    1AU       S  450   4.518   5.756   6.014 -0.0106 -0.1468 -0.2360
    1AU     LIG  451   4.251   6.189   6.026 -0.2549  0.0944 -0.1593
    1AU     LIG  452   3.893   6.286   6.129  0.2380 -0.1373 -0.6180
    1AU     LIG  453   3.667   6.388   6.452  0.4211 -0.0061 -0.0455
    1AU     LIG  454   3.617   6.785   6.608  0.0113  0.0952 -0.2271
    1AU     LIG  455   3.495   7.137   6.877  0.5317  0.1143 -0.0100
    1AU     LIG  456   3.514   7.539   6.949 -0.3643 -0.4491 -0.0268
    1AU       S  457   4.003   5.445   6.218  0.0664  0.3529  0.1288
    1AU     LIG  458   3.955   5.776   5.907 -0.0561 -0.1932 -0.0686
    1AU     LIG  459   3.592   5.984   5.850 -0.1006 -0.0206 -0.1863
    1AU     LIG  460   3.301   6.042   6.157 -0.1236 -0.1040  0.2090
    1AU     LIG  461   3.091   5.731   6.235  0.0489  0.1845  0.0002
    1AU     LIG  462   2.807   5.492   6.525  0.1651  0.1960  0.2044
    1AU     LIG  463   2.395   5.513   6.645  0.0444  0.0518  0.0732
    1AU    AUSL  464   4.847   5.648   6.406  0.0571 -0.0207 -0.1355
    1AU    AUSL  465   4.564   6.176   6.659  0.0899  0.0862  0.0083
    1AU     AUL  466   4.740   5.995   6.349  0.0416 -0.0686 -0.0219
    1AU       S  467   4.645   5.733   5.992  0.0784 -0.0882  0.2325
    1AU     LIG  468   5.025   5.836   5.942 -0.0228 -0.0498 -0.1877
    1AU     LIG  469   5.309   6.097   5.788 -0.1685 -0.3020 -0.0309
    1AU     LIG  470   5.684   6.015   5.913 -0.0830 -0.2621  0.1385
    1AU     LIG  471   6.050   5.823   5.791  0.2903 -0.2127  0.4941
    1AU     LIG  472   6.503   5.755   5.777  0.2721  0.0114 -0.1898
    1AU     LIG  473   6.874   5.728   5.768 -0.1216 -0.0488 -0.0558
    1AU       S  474   4.551   6.354   6.575 -0.1550  0.2399  0.3150
    1AU     LIG  475   4.283   6.634   6.385 -0.4312 -0.1676 -0.0487
    1AU     LIG  476   4.099   7.042   6.275 -0.3612 -0.2336 -0.0189
    1AU     LIG  477   4.380   7.433   6.202  0.1998  0.0439 -0.1273
    1AU     LIG  478   4.723   7.845   6.252  0.2437  0.0715  0.1337
    1AU     LIG  479   4.846   8.030   6.665  0.4231 -0.2359  0.0371
    1AU     LIG  480   4.988   7.891   7.084  0.0812 -0.2116  0.1144
    1AU    AUSL  481   4.493   5.400   6.320 -0.0480  0.0747  0.0368
    1AU    AUSL  482   5.154   5.379   6.489  0.0938  0.0459 -0.0541
    1AU     AUL  483   4.878   5.344   6.146 -0.0172 -0.1263  0.0115
    1AU       S  484   5.349   5.334   6.275 -0.3342 -0.4919  0.2667
    1AU     LIG  485   5.683   5.507   6.070 -0.1527  0.1795  0.0995
    1AU     LIG  486   6.031   5.250   6.193  0.3459 -0.4209  0.2458
    1AU     LIG  487   6.293   5.079   6.532  0.2333  0.2233  0.0153
    1AU     LIG  488   6.391   4.865   6.858 -0.2388  0.1207  0.1691
    1AU     LIG  489   6.700   4.600   6.998 -0.2786 -0.0720  0.2850
    1AU     LIG  490   6.960   4.254   7.065  0.2873 -0.2601  0.1243
    1AU       S  491   4.436   5.464   6.113  0.0209 -0.1807 -0.0817
    1AU     LIG  492   4.668   5.199   5.768  0.1038 -0.0177  0.2006
    1AU     LIG  493   4.759   4.895   5.763  0.4486 -0.2639  0.1801
    1AU     LIG  494   5.215   4.714   5.880  0.1144  0.0572 -0.3932
    1AU     LIG  495   5.551   4.565   5.898 -0.1355  0.1392 -0.5008
    1AU     LIG  496   5.944   4.389   5.723  0.1713  0.0307  0.0085
    1AU     LIG  497   6.148   4.494   5.396 -0.0496 -0.1657 -0.0637
    1AU    AUSL  498   4.823   5.074   7.918 -0.0934 -0.0697 -0.0508
    1AU    AUSL  499   4.450   5.115   7.596 -0.1261  0.0512 -0.0341
    1AU     AUL  500   4.540   4.829   7.914 -0.0645  0.0121  0.0429
    1AU       S  501   4.710   4.996   8.323  0.1377  0.0986  0.1176
    1AU     LIG  502   4.986   5.221   8.567  0.1002  0.0009  0.1754
    1AU     LIG  503   5.361   5.066   8.545 -0.0995  0.3100  0.1016
    1AU     LIG  504   5.691   4.842   8.325 -0.1160 -0.0894  0.1285
    1AU     LIG  505   6.022   4.735   8.075  0.1376  0.0462 -0.0039
    1AU     LIG  506   6.451   4.473   7.908 -0.1925  0.0395 -0.3354
    1AU     LIG  507   6.592   4.386   7.500 -0.1762 -0.1231 -0.0348
    1AU       S  508   4.227   4.572   7.591 -0.2735 -0.0867 -0.2262
    1AU     LIG  509   4.044   4.255   7.181  0.0308  0.2106  0.2330
    1AU     LIG  510   3.872   4.077   6.880 -0.3698 -0.1925  0.1456
    1AU     LIG  511   3.622   3.761   6.676  0.1007 -0.1761 -0.1040
    1AU     LIG  512   3.354   3.537   6.433 -0.0950 -0.1995 -0.2325
    1AU     LIG  513   3.215   3.051   6.501 -0.0790  0.2545  0.2263
    1AU     LIG  514   3.210   2.867   6.803 -0.0271 -0.2895  0.1393
    1AU    AUSL  515   4.668   5.447   7.833  0.0094  0.0045  0.0061
    1AU    AUSL  516   4.989   5.292   7.621 -0.0312 -0.1352 -0.0335
    1AU     AUL  517   4.951   5.301   8.064  0.1061  0.0118 -0.0654
    1AU       S  518   4.366   5.160   8.187 -0.1661 -0.1754 -0.2464
    1AU     LIG  519   4.222   5.392   8.601 -0.0794 -0.3107  0.4293
    1AU     LIG  520   4.233   5.740   8.786  0.2444  0.0920  0.3368
    1AU     LIG  521   4.458   6.140   8.886 -0.2043 -0.0266 -0.0964
    1AU     LIG  522   4.855   6.141   8.845  0.2710 -0.3629 -0.3223
    1AU     LIG  523   5.226   5.952   8.826 -0.0480  0.1231  0.2710
    1AU     LIG  524   5.749   5.860   8.832  0.0437  0.4143  0.1274
    1AU       S  525   5.399   5.109   7.980  0.1920 -0.0991  0.7640
    1AU     LIG  526   5.172   4.806   8.129  0.0591  0.0522  0.2819
    1AU     LIG  527   5.064   4.511   7.910  0.1179  0.1364 -0.0359
    1AU     LIG  528   5.120   4.239   7.688 -0.2371  0.3609  0.2742
    1AU     LIG  529   5.254   3.822   7.625 -0.0328 -0.0860  0.2261
    1AU     LIG  530   5.379   3.504   7.233  0.1982  0.4595  0.1169
    1AU     LIG  531   5.357   3.421   6.781  0.2146  0.2347 -0.2561
    1AU    AUSL  532   5.041   4.961   6.611 -0.0047  0.0530 -0.0101
    1AU    AUSL  533   5.068   5.501   6.854  0.0150  0.0294  0.0610
    1AU     AUL  534   5.337   5.134   6.686 -0.0555  0.0722 -0.0530
    1AU       S  535   5.614   5.555   6.605  0.2259  0.3055  0.1165
    1AU     LIG  536   5.865   5.808   6.467  0.3174 -0.0152  0.0972
    1AU     LIG  537   6.257   5.934   6.493 -0.0613  0.3865 -0.4571
    1AU     LIG  538   6.606   6.063   6.598 -0.0487 -0.1164 -0.0980
    1AU     LIG  539   7.021   5.789   6.619 -0.0748 -0.2435 -0.0765
    1AU     LIG  540   7.264   5.689   6.929 -0.0585  0.0699 -0.3659
    1AU     LIG  541   7.296   5.836   7.299  0.1768  0.1392  0.2330
    1AU       S  542   5.251   5.057   6.238  0.1274 -0.1598 -0.2202
    1AU     LIG  543   5.512   4.877   6.302  0.0005  0.2585 -0.1568
    1AU     LIG  544   5.867   4.758   6.554 -0.0746 -0.0977 -0.0808
    1AU     LIG  545   6.245   4.512   6.508 -0.1091  0.0812  0.1063
    1AU     LIG  546   6.598   4.384   6.548 -0.4504 -0.1780 -0.0967
    1AU     LIG  547   7.013   4.284   6.552 -0.2584  0.1153  0.1367
    1AU     LIG  548   7.391   4.121   6.820  0.3568  0.2220 -0.0397
    1AU    AUSL  549   4.765   5.274   6.585 -0.0634 -0.0977 -0.0443
    1AU    AUSL  550   4.758   5.002   6.890  0.0492  0.0277 -0.0574
    1AU     AUL  551   4.791   4.962   6.408  0.1168  0.0447  0.1017
    1AU       S  552   5.237   5.455   6.362 -0.3325 -0.2397 -0.0858
    1AU     LIG  553   5.329   5.846   6.303  0.0085  0.0382 -0.0739
    1AU     LIG  554   5.261   6.275   6.255 -0.0077 -0.0266 -0.1151
    1AU     LIG  555   5.325   6.753   6.335  0.0792  0.4545  0.1882
    1AU     LIG  556   5.584   7.245   6.309  0.1823 -0.2403  0.0426
    1AU     LIG  557   6.030   7.340   6.490  0.0148 -0.0984  0.0568
    1AU     LIG  558   6.425   7.111   6.456  0.1686 -0.1880  0.1441
    1AU       S  559   4.765   4.538   6.543  0.2447 -0.2459  0.0191
    1AU     LIG  560   5.148   4.517   6.381  0.0348 -0.1038 -0.0308
    1AU     LIG  561   5.445   4.279   6.371  0.0432 -0.3918 -0.1135
    1AU     LIG  562   5.886   4.305   6.216  0.0441 -0.0888 -0.3521
    1AU     LIG  563   6.029   4.702   6.096  0.1212 -0.2075  0.1072
    1AU     LIG  564   6.493   4.831   6.167 -0.2341 -0.1894 -0.3524
    1AU     LIG  565   6.806   4.846   6.515  0.0387 -0.1483  0.1267
    2POPC   NC3  566   0.199   1.841   8.416  0.0956  0.1748  0.2757
    2POPC   PO4  567  -0.079   2.137   8.736  0.1299 -0.0105  0.2045
    2POPC   GL1  568   0.030   2.312   8.333  0.2122 -0.1449 -0.1303
    2POPC   GL2  569  -0.024   2.667   8.372  0.0734  0.1693  0.0763
    2POPC   C1A  570   0.180   2.078   7.854 -0.4390 -0.0694 -0.0591
    2POPC   D2A  571   0.150   2.065   7.352 -0.0403  0.1416  0.1803
    2POPC   C3A  572   0.305   2.342   7.003 -0.0080 -0.0511  0.0037
    2POPC   C4A  573   0.318   2.732   6.863  0.0471 -0.0234  0.0298
    2POPC   C1B  574  -0.149   2.790   7.961 -0.0674  0.0541  0.3358
    2POPC   C2B  575  -0.080   3.032   7.646 -0.0925  0.1650 -0.0655
    2POPC   C3B  576  -0.001   3.367   7.485 -0.1034 -0.0811 -0.1370
    2POPC   C4B  577  -0.173   3.719   7.443  0.1114  0.2023  0.0527
    3POPC   NC3  578   2.761   3.679   9.475 -0.0295  0.1766  0.0556
    3POPC   PO4  579   3.231   3.654   9.491 -0.1639 -0.2985 -0.0154
    3POPC   GL1  580   3.336   3.525   9.088 -0.3167  0.2571  0.2714
    3POPC   GL2  581   3.467   3.307   9.230 -0.1254 -0.1168  0.3222
    3POPC   C1A  582   3.496   3.269   8.759 -0.0478  0.2697  0.0881
    3POPC   D2A  583   3.550   3.005   8.413  0.0109  0.1757  0.1559
    3POPC   C3A  584   3.613   2.578   8.540  0.0575 -0.0725 -0.2024
    3POPC   C4A  585   3.770   2.163   8.508 -0.1063  0.0903  0.1491
    3POPC   C1B  586   3.814   3.052   8.988 -0.0613 -0.3247  0.0351
    3POPC   C2B  587   4.036   2.866   8.634 -0.1257  0.0679  0.0788
    3POPC   C3B  588   4.201   2.676   8.259  0.1449 -0.0264  0.1740
    3POPC   C4B  589   4.105   2.675   7.794 -0.2936 -0.0523  0.1742
    4POPC   NC3  590   9.752   5.379   8.964 -0.2956  0.0068 -0.0014
    4POPC   PO4  591  10.095   5.684   9.112 -0.1712 -0.0607  0.1022
    4POPC   GL1  592  10.322   5.680   8.643  0.1648  0.0550  0.0823
    4POPC   GL2  593  10.229   5.460   8.419  0.1478 -0.2382  0.0975
    4POPC   C1A  594  10.704   5.702   8.532  0.2480  0.1003 -0.2349
    4POPC   D2A  595  10.718   5.569   8.060  0.1059  0.0679 -0.1708
    4POPC   C3A  596  10.410   5.283   7.827  0.1229 -0.1944  0.1263
    4POPC   C4A  597  10.575   4.948   7.599  0.0595 -0.1926  0.1719
    4POPC   C1B  598   9.974   5.424   8.052  0.0888 -0.2164  0.0122
    4POPC   C2B  599   9.946   5.393   7.605  0.5288 -0.0276 -0.2986
    4POPC   C3B  600  10.215   5.235   7.341 -0.0937 -0.0115  0.2674
    4POPC   C4B  601  10.464   5.260   6.972  0.0066 -0.0341 -0.2896
    5POPC   NC3  602   3.680   6.275   9.867  0.1398 -0.3046  0.1753
    5POPC   PO4  603   3.985   6.595   9.929 -0.1116 -0.3220 -0.1035
    5POPC   GL1  604   3.971   6.390   9.481 -0.4874  0.1441 -0.1576
    5POPC   GL2  605   3.654   6.395   9.407  0.0632 -0.0960  0.0407
    5POPC   C1A  606   3.941   6.208   9.054  0.1295  0.2740  0.0275
    5POPC   D2A  607   3.868   6.083   8.609 -0.0869 -0.2899  0.1815
    5POPC   C3A  608   3.461   6.181   8.456  0.1710  0.2555  0.2341
    5POPC   C4A  609   3.216   6.244   8.140 -0.0222  0.0560 -0.1891
    5POPC   C1B  610   3.674   6.603   9.020  0.2578 -0.0504 -0.0181
    5POPC   C2B  611   3.737   6.619   8.533  0.1022  0.2670  0.0017
    5POPC   C3B  612   3.410   6.744   8.299 -0.0042  0.0067 -0.1680
    5POPC   C4B  613   2.956   6.599   8.359  0.2146  0.1573 -0.1875
    6POPC   NC3  614   3.017   4.062  10.017 -0.0303 -0.2144  0.2706
    6POPC   PO4  615   3.008   4.116   9.617 -0.0311 -0.2521  0.0526
    6POPC   GL1  616   3.367   4.190   9.380 -0.2008 -0.2372  0.1836
    6POPC   GL2  617   3.557   4.501   9.386  0.0076  0.0740  0.0795
    6POPC   C1A  618   3.538   4.092   9.003  0.1166 -0.2842 -0.0127
    6POPC   D2A  619   3.325   3.839   8.695  0.1412 -0.0779  0.2002
    6POPC   C3A  620   3.191   3.998   8.296 -0.1358 -0.1154 -0.0158
    6POPC   C4A  621   3.472   4.077   7.987 -0.0259  0.2949 -0.0385
    6POPC   C1B  622   3.601   4.746   8.969 -0.0730  0.1966  0.1067
    6POPC   C2B  623   3.532   4.986   8.561 -0.2249  0.1659 -0.0695
    6POPC   C3B  624   3.325   5.269   8.426  0.3213  0.0229  0.0818
    6POPC   C4B  625   2.887   5.414   8.466  0.0068  0.0495 -0.3259
    7POPC   NC3  626   6.978   2.247   9.222 -0.1084 -0.2569 -0.1735
    7POPC   PO4  627   7.188   2.618   9.201  0.1286 -0.3789  0.2040
    7POPC   GL1  628   7.219   2.509   8.824  0.3834  0.0729  0.1025
    7POPC   GL2  629   7.033   2.336   8.706 -0.3040  0.1883  0.1256
    7POPC   C1A  630   7.467   2.710   8.539  0.2956 -0.2632  0.3151
    7POPC   D2A  631   7.858   2.797   8.458  0.0999 -0.2711  0.0233
    7POPC   C3A  632   8.080   2.527   8.142  0.1732 -0.0857 -0.1170
    7POPC   C4A  633   7.903   2.359   7.909 -0.1439  0.1086  0.1714
    7POPC   C1B  634   6.948   2.229   8.371  0.3578  0.1201 -0.0619
    7POPC   C2B  635   7.031   2.211   7.847 -0.3383 -0.1291  0.0561
    7POPC   C3B  636   6.891   2.462   7.614  0.2114 -0.1510 -0.0526
    7POPC   C4B  637   6.435   2.489   7.649 -0.1301  0.3344 -0.0932
    8POPC   NC3  638   7.136   4.543   9.820  0.1584  0.2633  0.2730
    8POPC   PO4  639   7.450   4.417   9.519  0.3678 -0.1088 -0.1828
    8POPC   GL1  640   7.651   4.489   9.043 -0.1040  0.2586 -0.0165
    8POPC   GL2  641   7.935   4.467   8.940 -0.1852 -0.2048  0.1586
    8POPC   C1A  642   7.492   4.745   8.819  0.0938 -0.0832  0.0497
    8POPC   D2A  643   7.442   4.748   8.385 -0.0596  0.0755 -0.4755
    8POPC   C3A  644   7.209   4.553   8.117  0.1062 -0.0383  0.0767
    8POPC   C4A  645   6.903   4.678   7.848  0.1338 -0.0822 -0.0052
    8POPC   C1B  646   7.896   4.625   8.558  0.1575 -0.1470  0.2766
    8POPC   C2B  647   7.792   4.530   8.093 -0.1352 -0.0166  0.0645
    8POPC   C3B  648   7.572   4.270   7.655 -0.2126 -0.3468 -0.4024
    8POPC   C4B  649   7.401   3.968   7.313 -0.1586  0.0542 -0.1184
    9POPC   NC3  650   0.649   3.521   9.237 -0.0819 -0.0330 -0.0150
    9POPC   PO4  651   0.660   3.223   8.950 -0.4430 -0.1428  0.2049
    9POPC   GL1  652   0.473   3.071   8.541  0.0009  0.1845 -0.0780
    9POPC   GL2  653   0.741   3.211   8.472 -0.1189  0.1004  0.0119
    9POPC   C1A  654   0.301   3.234   8.249  0.0812  0.0208  0.2340
    9POPC   D2A  655   0.393   3.273   7.805 -0.2362 -0.1855 -0.1301
    9POPC   C3A  656   0.726   3.046   7.663 -0.1631 -0.0949 -0.1591
    9POPC   C4A  657   0.994   2.907   7.355  0.1554 -0.1711  0.1657
    9POPC   C1B  658   0.767   3.398   8.112 -0.2138  0.1485  0.0398
    9POPC   C2B  659   0.907   3.487   7.693  0.1066  0.3279 -0.1296
    9POPC   C3B  660   1.101   3.487   7.296 -0.2959 -0.0460  0.0113
    9POPC   C4B  661   1.073   3.416   6.905  0.0397 -0.2056  0.0067
   10POPC   NC3  662   5.106   2.951   9.515  0.3823  0.1217 -0.3189
   10POPC   PO4  663   5.196   3.337   9.782 -0.1787 -0.0091 -0.2245
   10POPC   GL1  664   5.175   3.486   9.417 -0.0999  0.1233  0.1576
   10POPC   GL2  665   5.494   3.558   9.268  0.1950  0.0813  0.0789
   10POPC   C1A  666   5.022   3.791   9.312 -0.1192 -0.0582  0.0769
   10POPC   D2A  667   4.806   4.079   9.484  0.1721  0.0013  0.1998
   10POPC   C3A  668   4.494   4.484   9.322 -0.1018 -0.0328 -0.1513
   10POPC   C4A  669   4.185   4.656   9.163 -0.3718 -0.1285  0.3575
   10POPC   C1B  670   5.268   3.670   8.907  0.1300  0.2054 -0.1248
   10POPC   C2B  671   5.053   3.823   8.653 -0.0066 -0.1296 -0.1978
   10POPC   C3B  672   4.665   3.735   8.352 -0.0755  0.1833  0.1471
   10POPC   C4B  673   4.319   3.509   8.161  0.1174  0.0313 -0.2240
   11POPC   NC3  674   4.020   3.658  10.117  0.2149  0.2101  0.0207
   11POPC   PO4  675   4.046   4.036  10.077  0.0189  0.0515 -0.1480
   11POPC   GL1  676   3.940   3.871   9.601  0.0747 -0.0430 -0.1505
   11POPC   GL2  677   3.766   3.701   9.421 -0.2823 -0.1355  0.0886
   11POPC   C1A  678   4.031   4.197   9.172  0.0613  0.1461  0.3127
   11POPC   D2A  679   4.051   4.262   8.741  0.1593 -0.0129  0.2198
   11POPC   C3A  680   3.562   4.385   8.590  0.0058  0.1977 -0.1733
   11POPC   C4A  681   3.122   4.395   8.756 -0.4680  0.2479  0.0100
   11POPC   C1B  682   3.916   3.600   9.066  0.0485  0.1971  0.1252
   11POPC   C2B  683   3.942   3.367   8.556  0.0116  0.0776  0.0670
   11POPC   C3B  684   4.040   3.123   8.213 -0.1902 -0.1693  0.3009
   11POPC   C4B  685   3.669   2.944   7.918  0.3549 -0.0185  0.0456
   12POPC   NC3  686   5.224   0.341   9.594  0.0523  0.1994 -0.0199
   12POPC   PO4  687   5.009   0.050   9.475 -0.2078 -0.1242  0.4168
   12POPC   GL1  688   4.917  -0.234   9.090 -0.4028  0.1484  0.3849
   12POPC   GL2  689   4.788  -0.536   8.927 -0.1495  0.0803  0.3161
   12POPC   C1A  690   5.086  -0.132   8.676 -0.1310  0.1524 -0.4963
   12POPC   D2A  691   5.176  -0.112   8.248 -0.2529 -0.1311 -0.3526
   12POPC   C3A  692   4.958   0.131   7.923 -0.0516  0.0023  0.3531
   12POPC   C4A  693   4.737   0.337   7.790  0.2286 -0.0108  0.0157
   12POPC   C1B  694   5.184  -0.601   8.634  0.0482  0.1058 -0.1404
   12POPC   C2B  695   5.185  -0.705   8.179  0.0384  0.0074  0.1429
   12POPC   C3B  696   5.196  -0.959   7.814 -0.0159 -0.2010  0.2161
   12POPC   C4B  697   5.124  -0.810   7.416  0.1324 -0.2351 -0.0443
   13POPC   NC3  698   0.174   3.520   9.083  0.0071 -0.3132 -0.0477
   13POPC   PO4  699   0.324   3.777   9.532 -0.1558  0.2350 -0.1834
   13POPC   GL1  700   0.399   3.972   9.079 -0.3757  0.2418  0.2032
   13POPC   GL2  701   0.508   3.764   8.855  0.2282  0.1507  0.0744
   13POPC   C1A  702   0.282   4.255   8.768 -0.0593 -0.2957  0.1702
   13POPC   D2A  703   0.237   4.245   8.375  0.0594  0.0549 -0.0220
   13POPC   C3A  704  -0.088   4.553   8.267  0.1230  0.0687 -0.4765
   13POPC   C4A  705   0.014   4.995   8.282  0.0758  0.0077 -0.1996
   13POPC   C1B  706   0.891   3.768   8.565 -0.1277  0.0024  0.3621
   13POPC   C2B  707   1.115   3.764   8.124 -0.0176 -0.0203  0.3006
   13POPC   C3B  708   1.422   3.840   7.752 -0.3227 -0.0170 -0.1773
   13POPC   C4B  709   1.624   4.113   7.436 -0.1122  0.2203 -0.1380
   14POPC   NC3  710   2.624   9.735   9.038  0.1121  0.0644 -0.3185
   14POPC   PO4  711   3.089   9.925   9.118 -0.2368 -0.1474  0.0469
   14POPC   GL1  712   3.185   9.972   8.686 -0.0246  0.0345 -0.1986
   14POPC   GL2  713   3.044  10.304   8.637 -0.3393 -0.2558 -0.0498
   14POPC   C1A  714   3.622   9.958   8.393  0.0324  0.1066 -0.0294
   14POPC   D2A  715   3.799   9.890   7.963 -0.0193  0.1240 -0.2306
   14POPC   C3A  716   3.749  10.282   7.720 -0.0380 -0.0406 -0.1823
   14POPC   C4A  717   3.615  10.236   7.388 -0.0516 -0.1556  0.1274
   14POPC   C1B  718   2.818   9.991   8.330 -0.3779 -0.3026 -0.1999
   14POPC   C2B  719   2.826   9.681   7.933 -0.0979  0.0238  0.0091
   14POPC   C3B  720   2.615   9.451   7.622 -0.0003 -0.2600 -0.1415
   14POPC   C4B  721   2.675   9.149   7.326 -0.1305 -0.3778  0.2389
   15POPC   NC3  722   2.263   7.464   9.879 -0.1688 -0.1843  0.0158
   15POPC   PO4  723   2.551   7.525   9.486 -0.0801  0.3540 -0.3294
   15POPC   GL1  724   2.415   7.704   9.145  0.0325  0.4052 -0.3236
   15POPC   GL2  725   2.252   7.591   8.974  0.0731  0.0772  0.0704
   15POPC   C1A  726   2.574   7.804   8.701 -0.1762  0.1079  0.4244
   15POPC   D2A  727   2.568   7.745   8.273  0.0980 -0.1104 -0.0889
   15POPC   C3A  728   2.738   7.467   7.947 -0.0891 -0.2228  0.2135
   15POPC   C4A  729   2.989   7.437   7.649  0.2156 -0.0909  0.1284
   15POPC   C1B  730   2.148   7.661   8.498 -0.0060  0.1220  0.0436
   15POPC   C2B  731   2.061   7.575   8.097  0.0125  0.0818  0.1848
   15POPC   C3B  732   2.282   7.536   7.768  0.1979  0.1407 -0.0969
   15POPC   C4B  733   2.350   7.833   7.346 -0.0407  0.0374 -0.3287
   16POPC   NC3  734   0.827   9.997   8.679  0.1658  0.1176 -0.0718
   16POPC   PO4  735   0.724   9.595   8.339  0.0919  0.1363 -0.0259
   16POPC   GL1  736   0.924   9.252   8.400 -0.1209  0.0107 -0.2519
   16POPC   GL2  737   1.251   9.325   8.585 -0.1245  0.1804 -0.3718
   16POPC   C1A  738   0.896   8.882   8.010 -0.2661 -0.2635  0.0174
   16POPC   D2A  739   0.773   8.715   7.630 -0.1916 -0.1028 -0.1107
   16POPC   C3A  740   0.336   8.601   7.810 -0.0642 -0.1590  0.3258
   16POPC   C4A  741  -0.170   8.653   7.682  0.0755  0.0569 -0.1684
   16POPC   C1B  742   1.425   9.568   8.114  0.0555 -0.1339  0.0806
   16POPC   C2B  743   1.518   9.928   7.885 -0.2828  0.1421  0.1012
   16POPC   C3B  744   1.607  10.174   7.582  0.1384  0.0052 -0.0546
   16POPC   C4B  745   1.840  10.494   7.251 -0.1672 -0.1156 -0.0079
   17POPC   NC3  746   8.629   1.255   9.046  0.0478  0.1567 -0.0061
   17POPC   PO4  747   8.783   1.508   9.216 -0.0592  0.0522  0.1102
   17POPC   GL1  748   8.658   1.754   8.795  0.1014 -0.1920  0.1257
   17POPC   GL2  749   8.862   1.852   8.490  0.0190 -0.2795 -0.2135
   17POPC   C1A  750   8.256   1.721   8.523  0.4388 -0.3000  0.1837
   17POPC   D2A  751   7.941   1.951   8.238  0.0887  0.0587 -0.1429
   17POPC   C3A  752   8.024   1.844   7.910  0.0595 -0.1986 -0.2547
   17POPC   C4A  753   8.310   1.643   7.618 -0.0442 -0.1623 -0.0543
   17POPC   C1B  754   8.826   2.178   8.183  0.2305 -0.1848  0.0700
   17POPC   C2B  755   8.660   2.506   8.092 -0.2751  0.0021 -0.1160
   17POPC   C3B  756   8.398   2.674   7.777 -0.0366 -0.0098 -0.1831
   17POPC   C4B  757   8.097   2.625   7.404  0.0189  0.1070  0.1196
   18POPC   NC3  758   9.159   6.047   9.432  0.2636 -0.0676  0.0294
   18POPC   PO4  759   9.222   6.454   9.317 -0.0341  0.0953  0.0829
   18POPC   GL1  760   9.224   6.451   8.911 -0.1861 -0.2062  0.0258
   18POPC   GL2  761   9.456   6.341   8.807  0.4045 -0.0411  0.3671
   18POPC   C1A  762   9.087   6.204   8.510  0.0028 -0.1266  0.0201
   18POPC   D2A  763   8.852   6.244   8.075  0.0168 -0.0675 -0.1608
   18POPC   C3A  764   8.684   6.069   7.640 -0.0278 -0.4394 -0.0602
   18POPC   C4A  765   8.470   5.745   7.552 -0.1428 -0.0516  0.0453
   18POPC   C1B  766   9.567   6.237   8.453  0.0033  0.2326  0.0044
   18POPC   C2B  767   9.589   6.373   8.028  0.2698  0.0369  0.0509
   18POPC   C3B  768   9.661   6.642   7.670 -0.2107  0.3331  0.2886
   18POPC   C4B  769   9.732   6.702   7.202  0.0639  0.0499  0.2037
   19POPC   NC3  770   1.334   1.645   9.098 -0.0769  0.2470  0.0338
   19POPC   PO4  771   1.171   1.515   8.684  0.2331 -0.3872  0.0306
   19POPC   GL1  772   1.461   1.650   8.337 -0.1080  0.1211  0.0464
   19POPC   GL2  773   1.390   1.484   8.077  0.0408 -0.1483 -0.0194
   19POPC   C1A  774   1.856   1.758   8.267  0.0886 -0.2280  0.1052
   19POPC   D2A  775   1.954   2.045   7.985  0.2529 -0.2559  0.3220
   19POPC   C3A  776   2.015   1.817   7.605  0.3804 -0.0640  0.2846
   19POPC   C4A  777   1.902   1.709   7.187 -0.2947 -0.1730 -0.1757
   19POPC   C1B  778   1.552   1.796   7.829  0.1059  0.0287 -0.3033
   19POPC   C2B  779   1.521   2.165   7.567  0.0266 -0.1352 -0.1106
   19POPC   C3B  780   1.538   2.594   7.314  0.0288 -0.1211 -0.1572
   19POPC   C4B  781   1.386   2.794   6.882 -0.1649  0.1490  0.0224
   20POPC   NC3  782   3.466   1.605   9.518 -0.0002  0.1572  0.1479
   20POPC   PO4  783   3.523   1.542   9.001  0.2309 -0.1969 -0.2864
   20POPC   GL1  784   3.439   1.464   8.576  0.1743  0.2028  0.5895
   20POPC   GL2  785   3.091   1.326   8.603  0.0863  0.1517 -0.3204
   20POPC   C1A  786   3.306   1.443   8.120  0.4957  0.0455  0.1818
   20POPC   D2A  787   3.396   1.472   7.699 -0.0442 -0.2897 -0.0228
   20POPC   C3A  788   3.582   1.619   7.301  0.0413  0.3926  0.0932
   20POPC   C4A  789   3.713   1.349   7.134  0.0312 -0.0448 -0.0517
   20POPC   C1B  790   2.830   1.539   8.282 -0.1659  0.3730  0.0104
   20POPC   C2B  791   2.913   1.626   7.754  0.2004  0.1255 -0.0450
   20POPC   C3B  792   2.710   1.989   7.562 -0.0074  0.2357 -0.1573
   20POPC   C4B  793   2.757   2.403   7.437  0.3252  0.0448  0.0342
   21POPC   NC3  794   4.190   8.847   9.837  0.1234 -0.0494  0.4014
   21POPC   PO4  795   4.298   8.501   9.647  0.0566 -0.3877  0.2048
   21POPC   GL1  796   4.234   8.097   9.353 -0.0292  0.0886  0.2543
   21POPC   GL2  797   3.916   8.318   9.163  0.1362 -0.1348  0.1083
   21POPC   C1A  798   4.496   8.149   8.953 -0.0175  0.0144 -0.5096
   21POPC   D2A  799   4.685   8.523   8.843  0.5871  0.0311 -0.3006
   21POPC   C3A  800   5.004   8.546   8.460  0.0406  0.0643  0.0117
   21POPC   C4A  801   5.087   8.359   8.097 -0.3979 -0.3382  0.4711
   21POPC   C1B  802   3.694   8.529   8.819  0.1372  0.2355  0.0260
   21POPC   C2B  803   3.793   8.697   8.382 -0.0102  0.0804 -0.4714
   21POPC   C3B  804   3.840   8.594   8.018 -0.1974 -0.2811  0.1749
   21POPC   C4B  805   3.544   8.440   7.973  0.1764 -0.1041 -0.2200
   22POPC   NC3  806   0.956   1.069   8.651  0.1523 -0.0175  0.0384
   22POPC   PO4  807   1.121   0.752   8.788 -0.2101 -0.1720  0.0628
   22POPC   GL1  808   1.223   0.650   8.347 -0.0723 -0.0423 -0.1668
   22POPC   GL2  809   1.123   0.858   8.160 -0.0637  0.1565  0.1468
   22POPC   C1A  810   1.570   0.698   8.161  0.0786  0.2705  0.2326
   22POPC   D2A  811   1.710   0.574   7.662 -0.0066  0.2248 -0.1754
   22POPC   C3A  812   1.636   0.832   7.405 -0.0289  0.0752  0.2642
   22POPC   C4A  813   1.679   1.197   6.957  0.1667 -0.0932  0.0978
   22POPC   C1B  814   0.790   0.946   7.834  0.0338  0.1497 -0.2703
   22POPC   C2B  815   0.247   0.902   7.822 -0.3625  0.1677  0.4546
   22POPC   C3B  816  -0.042   1.039   7.618 -0.0613  0.0834  0.2305
   22POPC   C4B  817  -0.395   1.174   7.432 -0.2728 -0.1557  0.2457
   23POPC   NC3  818  10.035   3.812   9.775 -0.0544 -0.2915 -0.0042
   23POPC   PO4  819  10.032   3.899   9.253  0.1283  0.0474 -0.2758
   23POPC   GL1  820  10.056   3.943   8.928  0.1690  0.0002 -0.0064
   23POPC   GL2  821   9.717   3.770   8.674 -0.1534 -0.0404 -0.2261
   23POPC   C1A  822   9.877   4.339   8.676  0.1344  0.0620 -0.0398
   23POPC   D2A  823   9.467   4.394   8.434 -0.1412  0.0755 -0.0669
   23POPC   C3A  824   9.580   4.353   8.039 -0.2192 -0.0548  0.3692
   23POPC   C4A  825   9.512   4.524   7.598  0.0002  0.4183 -0.1131
   23POPC   C1B  826   9.975   3.890   8.395 -0.2058  0.2455 -0.2263
   23POPC   C2B  827  10.119   4.108   7.982  0.0826 -0.2346 -0.0247
   23POPC   C3B  828   9.970   4.391   7.737  0.0161 -0.1750 -0.0951
   23POPC   C4B  829  10.104   4.834   7.719  0.0660  0.0885 -0.0634
   24POPC   NC3  830   9.861   1.261   8.831  0.0280 -0.0485 -0.0423
   24POPC   PO4  831  10.217   0.942   8.742 -0.0426  0.2316  0.0251
   24POPC   GL1  832   9.948   1.077   8.296  0.0906  0.1356 -0.2289
   24POPC   GL2  833  10.100   1.304   8.052 -0.0422  0.2010  0.0135
   24POPC   C1A  834   9.718   1.063   7.872  0.0455  0.2481 -0.3540
   24POPC   D2A  835   9.365   1.014   7.675  0.0737 -0.2821  0.1061
   24POPC   C3A  836   8.957   1.267   7.945 -0.2700  0.1740 -0.4117
   24POPC   C4A  837   9.100   1.671   8.107 -0.0233  0.0494 -0.1747
   24POPC   C1B  838  10.140   1.583   7.827 -0.1678  0.1210 -0.2409
   24POPC   C2B  839  10.236   1.507   7.412  0.2134 -0.3152 -0.0112
   24POPC   C3B  840  10.159   1.575   7.018 -0.0483 -0.0549  0.0735
   24POPC   C4B  841  10.185   1.966   6.833  0.0018 -0.0682 -0.1959
   25POPC   NC3  842   4.652   6.764  10.667 -0.0466 -0.0750 -0.3124
   25POPC   PO4  843   4.827   6.963  10.273  0.3323  0.0732  0.1680
   25POPC   GL1  844   4.830   6.692   9.815  0.0834  0.1780 -0.2584
   25POPC   GL2  845   4.596   6.788   9.617 -0.1502 -0.0776 -0.1285
   25POPC   C1A  846   5.019   6.869   9.403 -0.0324 -0.0863 -0.2242
   25POPC   D2A  847   4.939   6.986   9.052 -0.0811  0.0705  0.2665
   25POPC   C3A  848   5.027   6.847   8.675 -0.2955 -0.2797 -0.0403
   25POPC   C4A  849   5.164   6.713   8.227 -0.1011 -0.3151  0.0884
   25POPC   C1B  850   4.582   7.081   9.353 -0.0496  0.0148 -0.3369
   25POPC   C2B  851   4.414   7.115   8.952  0.2398 -0.2708  0.1466
   25POPC   C3B  852   4.119   6.999   8.540 -0.2602  0.0101  0.1008
   25POPC   C4B  853   3.883   6.866   8.118 -0.1439 -0.2680 -0.3068
   26POPC   NC3  854   1.791   5.355   9.356 -0.2389  0.0218  0.0982
   26POPC   PO4  855   1.384   5.151   9.199 -0.0336 -0.3315  0.0999
   26POPC   GL1  856   1.543   5.244   8.812  0.1314 -0.0360  0.1041
   26POPC   GL2  857   1.714   5.527   8.902  0.1760 -0.1454  0.1152
   26POPC   C1A  858   1.663   5.258   8.334  0.2026 -0.0411 -0.1337
   26POPC   D2A  859   2.074   5.315   8.070 -0.2056  0.0794 -0.1502
   26POPC   C3A  860   2.085   5.586   7.837  0.0810 -0.1199 -0.0506
   26POPC   C4A  861   1.959   5.837   7.463  0.0252 -0.1149  0.2522
   26POPC   C1B  862   1.941   5.651   8.466 -0.2339  0.0806  0.0113
   26POPC   C2B  863   2.080   6.007   8.190  0.0190  0.1593  0.3274
   26POPC   C3B  864   2.222   6.245   7.732  0.1817  0.2804 -0.0127
   26POPC   C4B  865   2.452   6.552   7.498  0.1029 -0.1950  0.0320
   27POPC   NC3  866   0.500   6.502   9.222  0.0388  0.0646  0.0732
   27POPC   PO4  867   0.878   6.535   9.426  0.1849  0.2989  0.0632
   27POPC   GL1  868   1.043   6.617   9.107 -0.3064  0.2284 -0.1597
   27POPC   GL2  869   0.785   6.634   8.838 -0.2463  0.0891  0.1164
   27POPC   C1A  870   1.257   6.640   8.649  0.2142 -0.0937 -0.0234
   27POPC   D2A  871   1.380   6.651   8.253 -0.2047  0.1497 -0.1342
   27POPC   C3A  872   1.575   6.777   7.830 -0.0487  0.3168 -0.0343
   27POPC   C4A  873   1.931   6.667   7.551 -0.2244  0.2464  0.1192
   27POPC   C1B  874   0.851   6.596   8.378  0.2338 -0.3149  0.1666
   27POPC   C2B  875   0.793   6.555   7.942 -0.1791 -0.0246 -0.2902
   27POPC   C3B  876   0.791   6.427   7.502  0.1102 -0.1199 -0.0894
   27POPC   C4B  877   0.852   6.266   7.132 -0.1506 -0.0014 -0.0987
   28POPC   NC3  878   4.552   6.484  10.164 -0.0974  0.0550 -0.2407
   28POPC   PO4  879   4.809   6.117  10.068  0.2644 -0.0623 -0.0047
   28POPC   GL1  880   4.906   6.064   9.643  0.3114 -0.1132 -0.3434
   28POPC   GL2  881   4.978   6.371   9.450 -0.0663  0.1161 -0.0815
   28POPC   C1A  882   4.741   5.867   9.268  0.1081  0.2242  0.2701
   28POPC   D2A  883   4.440   5.583   9.173 -0.1953  0.2666 -0.3341
   28POPC   C3A  884   4.610   5.165   8.935 -0.1315 -0.3060 -0.1162
   28POPC   C4A  885   4.509   4.685   8.773 -0.1489 -0.1111 -0.0080
   28POPC   C1B  886   5.099   6.514   9.079  0.3798 -0.0172 -0.2247
   28POPC   C2B  887   5.467   6.463   8.803  0.1330  0.0298  0.0879
   28POPC   C3B  888   5.849   6.363   8.679 -0.1174 -0.1633 -0.0201
   28POPC   C4B  889   5.944   6.137   8.367 -0.2836  0.2086 -0.1321
   29POPC   NC3  890   5.943   2.372   9.365  0.0111  0.2149  0.1225
   29POPC   PO4  891   6.282   2.203   9.466 -0.0782 -0.1509 -0.0787
   29POPC   GL1  892   6.312   2.354   8.977  0.2735  0.0767 -0.0725
   29POPC   GL2  893   6.603   2.151   8.896 -0.0011 -0.4614  0.3581
   29POPC   C1A  894   6.481   2.599   8.648  0.3049  0.0322  0.2661
   29POPC   D2A  895   6.071   2.761   8.409  0.1418  0.1876 -0.0587
   29POPC   C3A  896   6.195   2.843   8.040  0.4671  0.1518  0.1379
   29POPC   C4A  897   5.924   2.671   7.738 -0.1318  0.2263 -0.0820
   29POPC   C1B  898   6.773   1.839   8.600 -0.1817  0.6863 -0.0064
   29POPC   C2B  899   6.872   1.505   8.569  0.4131  0.1405 -0.2343
   29POPC   C3B  900   6.917   1.125   8.718  0.2265 -0.0178  0.0157
   29POPC   C4B  901   7.173   0.712   8.671  0.0360 -0.0673  0.0722
   30POPC   NC3  902   4.706   0.994   9.446 -0.0331  0.3679 -0.2281
   30POPC   PO4  903   4.475   1.489   9.494  0.3959 -0.0387  0.1339
   30POPC   GL1  904   4.614   1.501   9.149 -0.0994  0.3835  0.1780
   30POPC   GL2  905   4.593   1.805   8.919 -0.2523 -0.0560  0.1699
   30POPC   C1A  906   4.912   1.248   8.799 -0.1971 -0.1397  0.2475
   30POPC   D2A  907   5.433   1.222   8.888 -0.1893 -0.2194 -0.1329
   30POPC   C3A  908   5.661   1.129   8.486 -0.1447 -0.1190 -0.3451
   30POPC   C4A  909   5.809   0.918   8.162  0.0029  0.2681  0.3572
   30POPC   C1B  910   4.619   1.541   8.572  0.0914  0.4135 -0.2260
   30POPC   C2B  911   4.930   1.188   8.325 -0.1863 -0.1772 -0.0453
   30POPC   C3B  912   5.066   1.167   7.810  0.2252  0.0130 -0.0623
   30POPC   C4B  913   5.234   1.298   7.453  0.1537  0.2139  0.1780
   31POPC   NC3  914   5.425   2.631   9.288  0.1278  0.2178 -0.1912
   31POPC   PO4  915   5.433   2.203   9.431  0.0805  0.1635  0.0084
   31POPC   GL1  916   5.550   2.024   9.059  0.0461  0.0986  0.0099
   31POPC   GL2  917   5.829   2.092   8.883  0.1211  0.1914  0.2482
   31POPC   C1A  918   5.357   2.016   8.695  0.0085  0.0858  0.0620
   31POPC   D2A  919   4.926   1.922   8.441 -0.0502  0.3749  0.1187
   31POPC   C3A  920   4.945   1.640   8.119  0.2118 -0.1439 -0.0071
   31POPC   C4A  921   4.950   1.901   7.747 -0.1048  0.0398  0.0947
   31POPC   C1B  922   5.980   2.295   8.466  0.0113  0.1311  0.1231
   31POPC   C2B  923   6.065   2.322   8.079  0.2008  0.3621  0.4074
   31POPC   C3B  924   5.918   2.126   7.616 -0.1962 -0.0136  0.3146
   31POPC   C4B  925   5.853   1.983   7.157 -0.1668 -0.0209 -0.2844
   32POPC   NC3  926   8.331   8.271   9.152 -0.0517  0.2527  0.0812
   32POPC   PO4  927   8.154   7.832   9.260 -0.0423  0.2512  0.2035
   32POPC   GL1  928   7.950   7.991   8.837 -0.2862  0.2447 -0.2156
   32POPC   GL2  929   8.143   8.313   8.733  0.1712  0.1762  0.0203
   32POPC   C1A  930   7.998   8.059   8.359  0.1941 -0.0117 -0.2903
   32POPC   D2A  931   7.983   8.073   8.013 -0.0716  0.1404 -0.1047
   32POPC   C3A  932   8.303   8.193   7.678  0.2195 -0.0837  0.3265
   32POPC   C4A  933   8.516   7.866   7.414  0.3129 -0.3042 -0.4047
   32POPC   C1B  934   8.372   8.405   8.288 -0.0606  0.0397 -0.0585
   32POPC   C2B  935   8.542   8.594   7.927 -0.2501 -0.0644  0.0965
   32POPC   C3B  936   8.720   8.397   7.535  0.0334 -0.1795  0.1365
   32POPC   C4B  937   8.946   8.507   7.169  0.1052 -0.1486  0.0848
   33POPC   NC3  938   7.079   7.766   9.163  0.1017  0.0378 -0.1989
   33POPC   PO4  939   7.131   7.381   9.198  0.1143  0.2650 -0.0320
   33POPC   GL1  940   7.285   7.364   8.773 -0.1993 -0.3426  0.2937
   33POPC   GL2  941   6.993   7.565   8.715  0.5778  0.2553 -0.1235
   33POPC   C1A  942   6.985   7.309   8.337  0.1997  0.0015  0.0054
   33POPC   D2A  943   6.848   7.242   7.915 -0.1468  0.0167  0.0345
   33POPC   C3A  944   7.130   7.154   7.655  0.1845  0.4723  0.0292
   33POPC   C4A  945   7.405   7.470   7.529  0.0475  0.1608 -0.3858
   33POPC   C1B  946   7.093   7.793   8.362 -0.4718  0.1334 -0.1816
   33POPC   C2B  947   7.183   7.652   7.942  0.1129 -0.4477 -0.0131
   33POPC   C3B  948   6.961   7.782   7.542 -0.1182 -0.0296  0.1175
   33POPC   C4B  949   7.010   7.649   7.171  0.0170  0.3457 -0.1720
   34POPC   NC3  950   2.676   6.253   9.807 -0.1162 -0.2794  0.2003
   34POPC   PO4  951   2.993   5.927  10.027  0.2745 -0.2741 -0.1001
   34POPC   GL1  952   2.912   5.894   9.581 -0.0091 -0.3366 -0.3729
   34POPC   GL2  953   3.185   5.977   9.434 -0.1131 -0.1597  0.2079
   34POPC   C1A  954   2.877   5.953   9.009 -0.0974  0.0524  0.1708
   34POPC   D2A  955   2.994   6.199   8.681  0.0457  0.1696  0.0535
   34POPC   C3A  956   2.788   5.980   8.219  0.4310 -0.1901 -0.0557
   34POPC   C4A  957   2.484   5.853   7.885 -0.0510  0.0452 -0.1911
   34POPC   C1B  958   3.090   5.598   9.259  0.2638 -0.1489  0.1217
   34POPC   C2B  959   2.735   5.482   8.972 -0.0568  0.0704  0.0388
   34POPC   C3B  960   2.482   5.274   8.653  0.1157  0.1694  0.1107
   34POPC   C4B  961   2.380   4.990   8.305  0.0630 -0.0038  0.1250
   35POPC   NC3  962   2.269  10.095   9.685 -0.0294 -0.3541 -0.0214
   35POPC   PO4  963   2.343  10.081   9.243 -0.3239 -0.1822 -0.0510
   35POPC   GL1  964   2.341  10.039   8.782  0.0408 -0.1530 -0.3431
   35POPC   GL2  965   2.508  10.295   8.564 -0.1658  0.0971 -0.0073
   35POPC   C1A  966   2.414   9.755   8.425  0.0580  0.0405  0.1584
   35POPC   D2A  967   2.443   9.414   8.193  0.0725 -0.0151  0.1263
   35POPC   C3A  968   2.236   9.173   7.899  0.1209 -0.3801 -0.2999
   35POPC   C4A  969   1.805   9.233   7.815 -0.0228 -0.1080 -0.0331
   35POPC   C1B  970   2.746  10.529   8.202 -0.1772 -0.1676  0.3131
   35POPC   C2B  971   2.580  10.839   7.905  0.1037  0.0039  0.1233
   35POPC   C3B  972   2.672  10.927   7.497  0.2288 -0.0823 -0.0551
   35POPC   C4B  973   2.625  11.142   7.115  0.0055 -0.0456  0.0352
   36POPC   NC3  974   2.491   2.399   9.165 -0.0854 -0.2499 -0.2089
   36POPC   PO4  975   2.197   2.124   9.298  0.0012  0.2227 -0.0085
   36POPC   GL1  976   2.100   2.259   8.896 -0.0411  0.0182  0.1995
   36POPC   GL2  977   2.158   2.594   8.747 -0.1033 -0.1434  0.1684
   36POPC   C1A  978   1.846   2.294   8.419 -0.2070  0.0042 -0.1599
   36POPC   D2A  979   1.526   2.181   8.244  0.0544 -0.1902  0.0818
   36POPC   C3A  980   1.337   2.423   7.922 -0.0398  0.1211  0.1102
   36POPC   C4A  981   1.336   2.805   7.763 -0.0433 -0.0809 -0.0742
   36POPC   C1B  982   2.287   2.490   8.353  0.0939  0.0077 -0.0673
   36POPC   C2B  983   2.317   2.397   7.941  0.0579 -0.2220  0.0108
   36POPC   C3B  984   2.197   2.434   7.581 -0.2111  0.1730  0.3787
   36POPC   C4B  985   1.896   2.275   7.231 -0.0668  0.1273  0.2563
   37POPC   NC3  986   2.734   0.650   9.154 -0.1617 -0.0631  0.2577
   37POPC   PO4  987   3.160   0.600   8.993 -0.0501 -0.2529  0.0507
   37POPC   GL1  988   3.293   0.750   8.609  0.0359 -0.1795  0.3838
   37POPC   GL2  989   3.500   0.918   8.402  0.1022 -0.1299  0.0809
   37POPC   C1A  990   3.273   0.549   8.209 -0.0700  0.0868 -0.1087
   37POPC   D2A  991   3.369   0.222   8.053  0.1973  0.0171  0.1904
   37POPC   C3A  992   3.026   0.055   7.855 -0.1105  0.0978 -0.1546
   37POPC   C4A  993   2.626   0.259   7.634  0.0619 -0.2175  0.2074
   37POPC   C1B  994   3.140   1.014   8.209  0.0562  0.1004 -0.0899
   37POPC   C2B  995   3.002   1.106   7.764  0.1228 -0.1258 -0.2412
   37POPC   C3B  996   3.024   1.334   7.362 -0.4556 -0.3184  0.3680
   37POPC   C4B  997   3.222   1.468   6.868 -0.3149 -0.0130 -0.3860
   38POPC   NC3  998   7.638   9.004   9.142  0.3030  0.0386  0.0910
   38POPC   PO4  999   7.263   9.292   9.144 -0.1978  0.2784  0.2126
   38POPC   GL1 1000   7.276   9.173   8.764 -0.0528 -0.2161  0.2988
   38POPC   GL2 1001   7.292   8.795   8.677 -0.4339 -0.1178  0.4932
   38POPC   C1A 1002   7.098   9.344   8.381  0.2226 -0.0490 -0.0433
   38POPC   D2A 1003   6.820   9.519   8.030  0.3163  0.2505 -0.3230
   38POPC   C3A 1004   6.522   9.323   8.138 -0.2257  0.0743 -0.4283
   38POPC   C4A 1005   6.295   8.963   8.066  0.2835  0.1945 -0.3251
   38POPC   C1B 1006   6.882   8.832   8.506  0.1678 -0.0347 -0.0637
   38POPC   C2B 1007   6.679   8.683   8.215 -0.1140 -0.3405 -0.1019
   38POPC   C3B 1008   6.735   8.547   7.922 -0.1859 -0.3180  0.0325
   38POPC   C4B 1009   6.502   8.572   7.550  0.1098  0.0594 -0.0396
   39POPC   NC3 1010   3.126   1.942   9.137  0.1411  0.1273 -0.0365
   39POPC   PO4 1011   2.983   2.290   9.077  0.2752  0.2761  0.2599
   39POPC   GL1 1012   2.725   2.491   8.711  0.2738  0.0368  0.1694
   39POPC   GL2 1013   2.594   2.220   8.591 -0.0011 -0.1123 -0.1748
   39POPC   C1A 1014   2.757   2.626   8.311  0.2342  0.0942 -0.0515
   39POPC   D2A 1015   2.744   2.746   7.862  0.3058  0.3632  0.0612
   39POPC   C3A 1016   2.920   3.013   7.549  0.1729 -0.1997  0.0065
   39POPC   C4A 1017   2.774   3.278   7.235  0.1589  0.1649 -0.1859
   39POPC   C1B 1018   2.823   2.059   8.275  0.0818 -0.0170  0.2737
   39POPC   C2B 1019   2.962   2.205   7.905 -0.0825 -0.0881 -0.1130
   39POPC   C3B 1020   3.279   2.184   7.552 -0.0953 -0.0277  0.1748
   39POPC   C4B 1021   3.118   1.863   7.291 -0.0770  0.0596 -0.2250
   40POPC   NC3 1022   7.870   8.741   9.509 -0.0765  0.0796  0.2227
   40POPC   PO4 1023   8.044   8.699   9.032 -0.2505 -0.1058  0.0398
   40POPC   GL1 1024   7.832   8.844   8.693 -0.4446 -0.0242  0.1514
   40POPC   GL2 1025   8.041   8.806   8.485  0.3719 -0.0358  0.2853
   40POPC   C1A 1026   7.609   8.919   8.321 -0.0720 -0.1771  0.2746
   40POPC   D2A 1027   7.476   8.919   7.861 -0.1086  0.1273  0.0297
   40POPC   C3A 1028   7.048   8.953   7.948 -0.1419 -0.0378  0.1581
   40POPC   C4A 1029   6.673   9.063   7.745 -0.1034  0.2041  0.1306
   40POPC   C1B 1030   8.110   8.872   7.978 -0.3390 -0.2447 -0.2276
   40POPC   C2B 1031   7.869   8.894   7.533 -0.2695  0.2889 -0.0769
   40POPC   C3B 1032   7.660   8.868   7.153 -0.1120 -0.4246  0.1531
   40POPC   C4B 1033   7.207   8.982   6.941  0.2989 -0.1026 -0.3733
   41POPC   NC3 1034   3.400   9.510   9.306 -0.4535 -0.0617 -0.0446
   41POPC   PO4 1035   3.704   9.129   9.444 -0.0088  0.0658  0.2253
   41POPC   GL1 1036   3.766   9.155   9.019 -0.2036 -0.0403 -0.4026
   41POPC   GL2 1037   4.010   9.010   8.760 -0.2041 -0.1132 -0.0504
   41POPC   C1A 1038   3.440   8.964   8.745  0.0298 -0.0914 -0.1447
   41POPC   D2A 1039   3.419   8.961   8.269 -0.4812 -0.0630 -0.0562
   41POPC   C3A 1040   3.399   8.847   7.795 -0.2083 -0.0257 -0.0913
   41POPC   C4A 1041   3.712   9.082   7.595  0.2161 -0.1080  0.1383
   41POPC   C1B 1042   4.083   9.175   8.335 -0.1077  0.0951  0.0256
   41POPC   C2B 1043   4.560   9.216   8.077 -0.0747 -0.0088 -0.1311
   41POPC   C3B 1044   4.805   9.529   7.905 -0.1671 -0.0845 -0.1897
   41POPC   C4B 1045   4.913   9.831   7.663 -0.1739 -0.2468  0.0097
   42POPC   NC3 1046   9.545   5.866   9.026  0.0079 -0.1714 -0.4918
   42POPC   PO4 1047   9.911   6.120   9.281 -0.4085  0.2996 -0.0288
   42POPC   GL1 1048   9.931   6.055   8.781 -0.0096  0.0819  0.1066
   42POPC   GL2 1049   9.973   6.332   8.682  0.1978  0.1579  0.4004
   42POPC   C1A 1050   9.946   5.890   8.394 -0.0393 -0.1908 -0.0608
   42POPC   D2A 1051   9.944   5.945   7.912 -0.0158  0.1083  0.3133
   42POPC   C3A 1052   9.771   5.830   7.472  0.3231 -0.2323 -0.3691
   42POPC   C4A 1053   9.416   5.798   7.178  0.2796 -0.1469 -0.3200
   42POPC   C1B 1054  10.035   6.380   8.224  0.2927 -0.1395 -0.3153
   42POPC   C2B 1055  10.063   6.425   7.775 -0.2022  0.1180  0.1067
   42POPC   C3B 1056  10.045   6.236   7.293  0.3058  0.0985 -0.2289
   42POPC   C4B 1057   9.836   6.060   6.975  0.2598 -0.3425 -0.2452
   43POPC   NC3 1058   3.990   0.656   9.293 -0.0220 -0.0302  0.1580
   43POPC   PO4 1059   3.742   0.260   9.326  0.1070 -0.0385 -0.2698
   43POPC   GL1 1060   3.855  -0.019   9.020 -0.1570 -0.2337 -0.0135
   43POPC   GL2 1061   3.602  -0.276   8.972  0.0810  0.0532 -0.0360
   43POPC   C1A 1062   4.030   0.019   8.670 -0.2467 -0.1207 -0.0983
   43POPC   D2A 1063   3.954   0.105   8.300 -0.0008 -0.3420 -0.1734
   43POPC   C3A 1064   4.186   0.130   7.899  0.2647 -0.0115 -0.0022
   43POPC   C4A 1065   4.324   0.304   7.536  0.2530  0.0186 -0.3904
   43POPC   C1B 1066   3.777  -0.535   8.791 -0.0566  0.3280  0.4134
   43POPC   C2B 1067   3.671  -0.688   8.389  0.0190  0.0843 -0.1948
   43POPC   C3B 1068   3.529  -0.808   8.005 -0.2850 -0.0549  0.0145
   43POPC   C4B 1069   3.218  -0.805   7.639 -0.0373  0.0017  0.0643
   44POPC   NC3 1070   8.543   2.351   9.029 -0.0721  0.1322 -0.1174
   44POPC   PO4 1071   8.211   2.081   9.162 -0.1263 -0.1051  0.4660
   44POPC   GL1 1072   8.052   2.131   8.777  0.1871  0.2095  0.1396
   44POPC   GL2 1073   8.339   2.213   8.547 -0.2845  0.1529  0.1192
   44POPC   C1A 1074   7.743   2.280   8.505  0.1337  0.2128  0.2637
   44POPC   D2A 1075   7.462   2.278   8.180 -0.0411  0.5251 -0.3749
   44POPC   C3A 1076   7.501   2.033   7.795  0.0174  0.2196  0.1310
   44POPC   C4A 1077   7.175   1.811   7.557  0.1260  0.0385 -0.1866
   44POPC   C1B 1078   8.362   2.119   8.124  0.2237 -0.3907  0.2694
   44POPC   C2B 1079   8.188   2.146   7.575  0.1875 -0.2836  0.0164
   44POPC   C3B 1080   8.122   2.174   7.172  0.1666  0.0043 -0.0439
   44POPC   C4B 1081   7.990   2.122   6.833 -0.0101 -0.1931  0.1430
   45POPC   NC3 1082   6.681   7.351   9.450 -0.2853  0.1050  0.2072
   45POPC   PO4 1083   6.297   7.709   9.474  0.1827  0.1527  0.3056
   45POPC   GL1 1084   6.570   7.713   9.137  0.0835  0.1023 -0.2118
   45POPC   GL2 1085   6.393   7.502   9.022  0.2055  0.2139  0.1422
   45POPC   C1A 1086   6.522   7.958   8.735 -0.1417 -0.0677  0.0828
   45POPC   D2A 1087   6.371   8.099   8.352  0.1281 -0.2066  0.3444
   45POPC   C3A 1088   6.103   7.914   7.995  0.1192  0.0294  0.0531
   45POPC   C4A 1089   6.061   7.715   7.709  0.0916  0.1936 -0.0033
   45POPC   C1B 1090   6.526   7.460   8.601 -0.0396 -0.0295  0.0403
   45POPC   C2B 1091   6.459   7.368   8.220  0.1405  0.1114 -0.3470
   45POPC   C3B 1092   6.549   7.650   7.980  0.0100  0.1201  0.1886
   45POPC   C4B 1093   6.493   8.054   7.711 -0.1508  0.1724  0.1064
   46POPC   NC3 1094   1.559   9.799   9.234 -0.0235 -0.1656 -0.0573
   46POPC   PO4 1095   1.817  10.100   9.464 -0.0280  0.0968  0.0676
   46POPC   GL1 1096   1.923  10.308   9.044  0.4041 -0.1025  0.1339
   46POPC   GL2 1097   1.839  10.033   8.883 -0.4562  0.0205  0.1083
   46POPC   C1A 1098   1.894  10.370   8.559  0.2640 -0.0996 -0.0316
   46POPC   D2A 1099   1.756  10.375   8.096 -0.0280 -0.2518 -0.1555
   46POPC   C3A 1100   2.104  10.085   7.874 -0.2395 -0.1372  0.0162
   46POPC   C4A 1101   2.517  10.101   7.957  0.0120  0.0175  0.0633
   46POPC   C1B 1102   1.918   9.810   8.510 -0.3235 -0.4091 -0.0167
   46POPC   C2B 1103   1.951   9.597   8.075  0.0445 -0.2658  0.2784
   46POPC   C3B 1104   2.160   9.632   7.654 -0.1854  0.0104  0.0876
   46POPC   C4B 1105   2.253   9.438   7.305 -0.0337  0.3064 -0.0748
   47POPC   NC3 1106   9.991   3.007   9.251  0.1406 -0.0022  0.3412
   47POPC   PO4 1107  10.269   3.020   8.989  0.0072  0.1966  0.1316
   47POPC   GL1 1108  10.003   3.161   8.646 -0.0145  0.0195 -0.0491
   47POPC   GL2 1109  10.142   3.503   8.581 -0.0351 -0.0772  0.2145
   47POPC   C1A 1110   9.975   3.199   8.180  0.0424 -0.1459  0.0299
   47POPC   D2A 1111  10.113   3.516   7.940  0.2210 -0.0297  0.1795
   47POPC   C3A 1112   9.734   3.873   7.844  0.1996  0.0156  0.2280
   47POPC   C4A 1113   9.571   4.014   7.470 -0.0788 -0.2034 -0.1800
   47POPC   C1B 1114  10.545   3.756   8.314  0.1526  0.0257  0.1727
   47POPC   C2B 1115  10.569   3.854   7.879 -0.1997 -0.1711  0.2611
   47POPC   C3B 1116  10.633   3.750   7.539  0.1947  0.4700  0.2931
   47POPC   C4B 1117  10.780   3.397   7.320 -0.1573 -0.1167  0.0225
   48POPC   NC3 1118   1.583   8.068   9.524 -0.2366  0.0276  0.0347
   48POPC   PO4 1119   1.322   8.229   9.249 -0.3108 -0.0413 -0.0471
   48POPC   GL1 1120   1.589   7.988   8.979 -0.1330  0.0199  0.0572
   48POPC   GL2 1121   1.795   7.922   9.056 -0.0730  0.2000  0.1888
   48POPC   C1A 1122   1.677   7.915   8.578 -0.3240  0.0390 -0.1927
   48POPC   D2A 1123   1.635   7.719   8.231 -0.1262  0.2807 -0.1682
   48POPC   C3A 1124   1.482   7.320   8.266  0.1842 -0.2016  0.1933
   48POPC   C4A 1125   1.547   6.990   8.600  0.2508 -0.1514  0.1549
   48POPC   C1B 1126   2.112   8.078   8.747 -0.1668  0.0587 -0.2139
   48POPC   C2B 1127   2.296   8.151   8.366 -0.2963  0.0236  0.1631
   48POPC   C3B 1128   2.210   8.055   8.032 -0.2269  0.0835  0.3350
   48POPC   C4B 1129   2.138   8.211   7.644  0.3246 -0.0651  0.1511
   49POPC   NC3 1130   8.528   7.445   9.399  0.0178  0.0583  0.1940
   49POPC   PO4 1131   8.071   7.310   9.444 -0.2531 -0.2550  0.1459
   49POPC   GL1 1132   7.997   7.472   8.992  0.0861  0.2605  0.1007
   49POPC   GL2 1133   8.272   7.539   8.881 -0.0335  0.1898 -0.1161
   49POPC   C1A 1134   7.902   7.391   8.567  0.3562 -0.0435 -0.1233
   49POPC   D2A 1135   8.005   7.277   8.117  0.2043  0.2560  0.1222
   49POPC   C3A 1136   8.172   7.431   7.742 -0.1862  0.0509 -0.0229
   49POPC   C4A 1137   8.527   7.351   7.468  0.0948 -0.0905  0.2331
   49POPC   C1B 1138   8.673   7.554   8.764 -0.1185 -0.2210 -0.2935
   49POPC   C2B 1139   8.782   7.577   8.294 -0.1493  0.2004  0.0146
   49POPC   C3B 1140   8.766   7.556   7.870  0.2803  0.2081 -0.2263
   49POPC   C4B 1141   9.012   7.205   7.615  0.4727  0.0819  0.1069
   50POPC   NC3 1142   0.215   6.122   9.035 -0.0169 -0.1796  0.0072
   50POPC   PO4 1143   0.042   6.533   9.047 -0.0064 -0.2068 -0.1552
   50POPC   GL1 1144   0.365   6.450   8.726  0.2102 -0.0251  0.0399
   50POPC   GL2 1145   0.292   6.123   8.482 -0.2667 -0.2277 -0.0183
   50POPC   C1A 1146   0.360   6.575   8.299  0.0833  0.0935  0.0712
   50POPC   D2A 1147   0.351   6.952   8.075  0.0557  0.2375  0.1124
   50POPC   C3A 1148   0.057   7.055   7.797  0.2690 -0.0648  0.0330
   50POPC   C4A 1149  -0.062   6.872   7.474  0.1046 -0.1980 -0.0003
   50POPC   C1B 1150   0.209   5.876   8.093 -0.3082  0.0535  0.2677
   50POPC   C2B 1151   0.262   5.742   7.665  0.1705 -0.1562  0.2476
   50POPC   C3B 1152   0.132   5.756   7.203 -0.3527  0.0311 -0.0876
   50POPC   C4B 1153   0.311   5.886   6.851 -0.2634  0.0834  0.1864
   51POPC   NC3 1154   4.277   1.129   9.833 -0.1315 -0.2975 -0.4802
   51POPC   PO4 1155   4.248   1.055   9.401  0.3463 -0.0716  0.2509
   51POPC   GL1 1156   4.319   0.976   8.999 -0.0577 -0.3198  0.0446
   51POPC   GL2 1157   4.614   0.784   8.940 -0.1369  0.0203  0.1153
   51POPC   C1A 1158   4.424   1.074   8.599  0.0819 -0.0643 -0.1055
   51POPC   D2A 1159   4.392   1.065   8.183 -0.0003 -0.1859 -0.2684
   51POPC   C3A 1160   4.570   1.297   7.983  0.1220 -0.1895  0.0692
   51POPC   C4A 1161   4.320   1.684   7.946 -0.1329  0.0372  0.0775
   51POPC   C1B 1162   4.763   0.735   8.502 -0.4412 -0.1662 -0.0873
   51POPC   C2B 1163   4.950   0.595   8.121  0.1713 -0.0028  0.2201
   51POPC   C3B 1164   5.130   0.555   7.666 -0.2076  0.1035  0.0875
   51POPC   C4B 1165   5.425   0.290   7.460  0.1217  0.0374 -0.0463
   52POPC   NC3 1166   6.927   8.474   9.523 -0.0398 -0.1208  0.3503
   52POPC   PO4 1167   6.955   8.840   9.166 -0.2075 -0.0840 -0.3163
   52POPC   GL1 1168   7.010   8.425   8.937  0.1777 -0.0841 -0.1248
   52POPC   GL2 1169   6.880   8.203   9.098  0.2648 -0.0602 -0.2736
   52POPC   C1A 1170   6.922   8.214   8.581  0.1548  0.5559  0.1660
   52POPC   D2A 1171   6.903   8.106   8.056 -0.4322 -0.1478  0.2954
   52POPC   C3A 1172   7.153   8.343   7.699  0.0156  0.0184 -0.1134
   52POPC   C4A 1173   7.044   8.671   7.455  0.2066  0.0632 -0.0422
   52POPC   C1B 1174   6.526   8.483   8.854 -0.0031  0.0589  0.1839
   52POPC   C2B 1175   6.263   8.587   8.502  0.0089 -0.0295 -0.1343
   52POPC   C3B 1176   6.173   8.525   8.017 -0.0737  0.7066  0.1675
   52POPC   C4B 1177   6.005   8.285   7.653  0.0173 -0.2958  0.2197
   53POPC   NC3 1178   9.881   8.945   9.874 -0.2394 -0.0992  0.0865
   53POPC   PO4 1179   9.651   8.764   9.559  0.1553 -0.1426  0.3464
   53POPC   GL1 1180   9.390   8.738   9.136  0.2868  0.0499  0.0218
   53POPC   GL2 1181   9.503   8.437   9.035 -0.0332  0.1755  0.1055
   53POPC   C1A 1182   8.979   8.582   9.025  0.1747  0.1219 -0.5012
   53POPC   D2A 1183   8.577   8.665   8.936  0.0537 -0.0403  0.0431
   53POPC   C3A 1184   8.566   8.797   8.593 -0.0450 -0.4494  0.3671
   53POPC   C4A 1185   8.628   9.039   8.135 -0.0544 -0.1400  0.0525
   53POPC   C1B 1186   9.345   8.262   8.761 -0.3016  0.4211 -0.0651
   53POPC   C2B 1187   9.396   8.189   8.309 -0.1423 -0.1893  0.0114
   53POPC   C3B 1188   9.117   7.975   7.995 -0.3418 -0.0652 -0.0413
   53POPC   C4B 1189   8.718   8.030   7.993  0.0438  0.1310 -0.0620
   54POPC   NC3 1190   7.524   7.791   9.370  0.2802 -0.0327  0.1148
   54POPC   PO4 1191   7.397   8.139   9.529  0.3576 -0.0917  0.1742
   54POPC   GL1 1192   7.449   8.231   8.999 -0.2514  0.1347 -0.0363
   54POPC   GL2 1193   7.602   8.493   8.906  0.1960  0.0200 -0.0428
   54POPC   C1A 1194   7.435   8.034   8.621 -0.0467  0.1270  0.2602
   54POPC   D2A 1195   7.609   7.775   8.392 -0.1941 -0.2800  0.3226
   54POPC   C3A 1196   7.443   8.061   8.126 -0.1231 -0.0830  0.1163
   54POPC   C4A 1197   7.214   8.498   8.268 -0.0647  0.5680 -0.0251
   54POPC   C1B 1198   7.674   8.430   8.462 -0.1947  0.2058 -0.0057
   54POPC   C2B 1199   7.731   8.526   8.106 -0.0973  0.0286 -0.1941
   54POPC   C3B 1200   7.740   8.386   7.734 -0.1055  0.4072  0.3142
   54POPC   C4B 1201   7.926   8.300   7.336  0.1020 -0.1944  0.1531
   55POPC   NC3 1202   2.134   9.233   9.604 -0.1351  0.0968  0.2045
   55POPC   PO4 1203   2.464   9.271   9.291 -0.0384 -0.2063  0.6120
   55POPC   GL1 1204   2.698   9.178   9.000  0.1297  0.0237  0.3337
   55POPC   GL2 1205   2.578   9.017   8.871 -0.0874 -0.0800  0.2352
   55POPC   C1A 1206   2.730   9.326   8.559  0.0315 -0.0307  0.0193
   55POPC   D2A 1207   3.104   9.383   8.237  0.1023 -0.3487  0.0450
   55POPC   C3A 1208   3.282   9.738   8.108  0.2165 -0.0243  0.0233
   55POPC   C4A 1209   3.338   9.852   7.676  0.1992  0.1237 -0.2553
   55POPC   C1B 1210   2.463   8.741   8.487 -0.0986  0.2412  0.0709
   55POPC   C2B 1211   2.391   8.648   8.014  0.2067 -0.1605  0.2415
   55POPC   C3B 1212   2.433   8.634   7.514  0.1083 -0.1026  0.0600
   55POPC   C4B 1213   2.243   8.737   7.135  0.1965 -0.0510  0.0464
   56POPC   NC3 1214   7.356   3.174   9.105 -0.1134  0.0747 -0.3520
   56POPC   PO4 1215   7.709   3.427   9.091  0.1090 -0.1076 -0.3032
   56POPC   GL1 1216   7.926   3.715   8.781  0.2835 -0.1155  0.1882
   56POPC   GL2 1217   7.934   3.993   8.876  0.0086 -0.0425 -0.1718
   56POPC   C1A 1218   8.103   3.665   8.319  0.1006  0.2718 -0.1470
   56POPC   D2A 1219   7.893   3.517   7.847 -0.2095 -0.0372  0.3195
   56POPC   C3A 1220   7.514   3.638   7.783 -0.3525 -0.2022 -0.0113
   56POPC   C4A 1221   7.249   3.384   7.527  0.1758 -0.2268 -0.3934
   56POPC   C1B 1222   7.962   4.113   8.410  0.1548  0.1176  0.2314
   56POPC   C2B 1223   7.883   3.970   7.933  0.0380 -0.1801 -0.2648
   56POPC   C3B 1224   7.944   3.870   7.504  0.2974  0.3295  0.0995
   56POPC   C4B 1225   7.684   3.561   7.300  0.0873 -0.0419 -0.2342
   57POPC   NC3 1226   3.423   0.467   9.832 -0.2897  0.1134  0.0799
   57POPC   PO4 1227   3.429   0.737   9.398  0.0062  0.1333  0.0751
   57POPC   GL1 1228   3.657   0.623   8.931 -0.0840  0.2528 -0.2998
   57POPC   GL2 1229   3.951   0.443   8.874 -0.1700 -0.1056 -0.5430
   57POPC   C1A 1230   3.662   0.470   8.500  0.0784 -0.3164 -0.1578
   57POPC   D2A 1231   3.784   0.470   8.075 -0.0947 -0.0455  0.0756
   57POPC   C3A 1232   3.661   0.659   7.755 -0.1907 -0.1281 -0.0312
   57POPC   C4A 1233   3.486   0.992   7.873  0.2054 -0.2159 -0.0889
   57POPC   C1B 1234   4.095   0.628   8.459 -0.5741 -0.0408  0.2667
   57POPC   C2B 1235   3.943   0.947   8.145  0.2255 -0.2273 -0.2088
   57POPC   C3B 1236   3.788   1.380   8.049  0.1086 -0.2101  0.1487
   57POPC   C4B 1237   3.848   1.783   8.179  0.2482 -0.3145 -0.1400
   58POPC   NC3 1238   0.113   7.840   9.074  0.0003 -0.2463 -0.1358
   58POPC   PO4 1239  -0.199   7.582   9.215  0.2898  0.1196 -0.3060
   58POPC   GL1 1240  -0.415   7.673   8.806  0.0952  0.1042 -0.0608
   58POPC   GL2 1241  -0.448   7.348   8.720 -0.0980  0.0903  0.2718
   58POPC   C1A 1242  -0.621   7.792   8.561  0.1389 -0.0393 -0.0547
   58POPC   D2A 1243  -0.905   7.510   8.431  0.0910  0.0621  0.3525
   58POPC   C3A 1244  -0.703   7.078   8.333  0.0577 -0.0257 -0.1272
   58POPC   C4A 1245  -0.297   6.824   8.092 -0.1730 -0.0350 -0.0811
   58POPC   C1B 1246  -0.376   7.476   8.294 -0.0735  0.0970 -0.4522
   58POPC   C2B 1247   0.013   7.449   8.229 -0.2405  0.0590  0.4719
   58POPC   C3B 1248   0.292   7.520   7.919 -0.1020 -0.0480 -0.2125
   58POPC   C4B 1249   0.235   7.735   7.619 -0.2175 -0.1526 -0.0633
   59POPC   NC3 1250   1.569   4.215   9.651 -0.2125 -0.1932 -0.3387
   59POPC   PO4 1251   1.523   4.075   9.257 -0.1247 -0.0712 -0.2224
   59POPC   GL1 1252   1.895   3.968   9.025 -0.1046 -0.1608 -0.2074
   59POPC   GL2 1253   2.003   4.152   9.312 -0.0137  0.2655 -0.1981
   59POPC   C1A 1254   1.980   3.947   8.613  0.1078 -0.0269  0.0170
   59POPC   D2A 1255   2.189   3.847   8.282 -0.2635 -0.0780  0.0073
   59POPC   C3A 1256   2.020   4.013   7.941 -0.1942 -0.2241 -0.1798
   59POPC   C4A 1257   1.733   4.304   7.884  0.2668 -0.1795 -0.3504
   59POPC   C1B 1258   2.178   4.350   8.874  0.1034  0.1305 -0.1311
   59POPC   C2B 1259   2.186   4.409   8.392  0.5297 -0.1026  0.1052
   59POPC   C3B 1260   2.322   4.399   8.048  0.2149  0.0559 -0.3177
   59POPC   C4B 1261   2.095   4.347   7.593 -0.0362 -0.2099 -0.2555
   60POPC   NC3 1262   7.316  10.098   9.414  0.0434  0.2191 -0.0009
   60POPC   PO4 1263   7.025  10.321   9.257 -0.1160  0.3676  0.1038
   60POPC   GL1 1264   7.050  10.386   8.895 -0.3705  0.0420 -0.1223
   60POPC   GL2 1265   6.836  10.673   8.931  0.0885  0.1478  0.0181
   60POPC   C1A 1266   7.106  10.378   8.464  0.4442  0.0147 -0.0164
   60POPC   D2A 1267   7.192  10.481   8.004 -0.1673  0.0819 -0.1702
   60POPC   C3A 1268   7.025  10.371   7.619  0.2412 -0.2994 -0.2258
   60POPC   C4A 1269   6.957   9.985   7.225 -0.2580 -0.1548 -0.2033
   60POPC   C1B 1270   6.559  10.960   8.810  0.4035 -0.2255  0.0953
   60POPC   C2B 1271   6.588  11.022   8.395  0.1294 -0.1211 -0.1134
   60POPC   C3B 1272   6.299  11.128   8.050  0.4087 -0.0261  0.0855
   60POPC   C4B 1273   5.991  11.383   7.789  0.1183 -0.1524  0.0910
   61POPC   NC3 1274   0.858   5.391   9.422  0.0453 -0.0821  0.0907
   61POPC   PO4 1275   0.882   4.876   9.258  0.1739 -0.0620 -0.0624
   61POPC   GL1 1276   0.953   5.093   8.871 -0.0041  0.2051  0.2690
   61POPC   GL2 1277   0.580   5.163   8.859  0.0586 -0.0714  0.0790
   61POPC   C1A 1278   1.163   5.172   8.508 -0.3444 -0.0311 -0.1865
   61POPC   D2A 1279   1.221   5.382   8.097 -0.1885  0.1787 -0.0413
   61POPC   C3A 1280   1.591   5.238   7.825  0.3467  0.1295  0.1598
   61POPC   C4A 1281   1.941   5.200   7.593  0.3613  0.2016  0.1398
   61POPC   C1B 1282   0.682   5.246   8.405 -0.0873 -0.0876 -0.2903
   61POPC   C2B 1283   0.753   5.148   8.027 -0.2756 -0.1414  0.1482
   61POPC   C3B 1284   0.853   5.368   7.673 -0.0524 -0.1330  0.1796
   61POPC   C4B 1285   0.512   5.477   7.354 -0.2998  0.1674  0.1154
   62POPC   NC3 1286   4.489   5.252   9.994  0.0603 -0.0984 -0.3327
   62POPC   PO4 1287   4.088   5.141  10.104 -0.0429  0.0703  0.1526
   62POPC   GL1 1288   4.188   5.282   9.583 -0.1228  0.2092  0.0087
   62POPC   GL2 1289   3.961   5.498   9.446  0.1607  0.0219 -0.0802
   62POPC   C1A 1290   4.134   5.218   9.116 -0.3900  0.0905 -0.2570
   62POPC   D2A 1291   4.080   4.961   8.698  0.0712  0.0153  0.0181
   62POPC   C3A 1292   3.918   4.712   8.367  0.2013  0.1635 -0.1908
   62POPC   C4A 1293   3.852   4.441   8.129 -0.0404 -0.1358  0.2587
   62POPC   C1B 1294   4.209   5.942   9.443 -0.0632  0.1282 -0.0447
   62POPC   C2B 1295   4.489   6.284   9.418 -0.0880  0.1964  0.0949
   62POPC   C3B 1296   4.594   6.544   9.231  0.1397  0.0795  0.1983
   62POPC   C4B 1297   4.641   6.613   8.829 -0.0870 -0.1121 -0.0430
   63POPC   NC3 1298   0.720   8.703   8.985 -0.1575 -0.0613  0.0184
   63POPC   PO4 1299   0.547   9.033   8.750 -0.0021  0.0754  0.1174
   63POPC   GL1 1300   0.352   9.013   8.424  0.0094  0.0888 -0.3106
   63POPC   GL2 1301   0.564   8.694   8.372 -0.2295 -0.3298 -0.2835
   63POPC   C1A 1302   0.470   9.106   7.963  0.1905  0.1230 -0.1071
   63POPC   D2A 1303   0.595   9.317   7.614  0.1884  0.1122  0.2888
   63POPC   C3A 1304   0.414   9.156   7.200 -0.0855 -0.0133  0.1541
   63POPC   C4A 1305   0.351   8.726   7.184  0.1277 -0.1742 -0.0368
   63POPC   C1B 1306   0.766   8.384   8.131  0.0612 -0.1664 -0.0755
   63POPC   C2B 1307   0.634   8.191   7.641 -0.1198  0.0393 -0.0797
   63POPC   C3B 1308   0.456   8.074   7.181 -0.1652  0.0060 -0.6387
   63POPC   C4B 1309   0.477   8.236   6.752  0.0304  0.3454  0.2232
   64POPC   NC3 1310   5.189   8.082   9.707  0.0402 -0.0455 -0.2881
   64POPC   PO4 1311   5.631   7.877   9.898 -0.2438 -0.0025 -0.1875
   64POPC   GL1 1312   5.750   7.669   9.539  0.4009 -0.0240 -0.2922
   64POPC   GL2 1313   5.691   8.040   9.373 -0.0620  0.0848  0.3397
   64POPC   C1A 1314   5.687   7.598   9.086 -0.1519 -0.2813  0.1302
   64POPC   D2A 1315   5.415   7.775   8.774  0.1761  0.0916  0.1822
   64POPC   C3A 1316   5.680   7.842   8.285  0.1301 -0.0401 -0.0553
   64POPC   C4A 1317   5.581   7.652   7.850  0.0132 -0.1094 -0.1915
   64POPC   C1B 1318   5.562   8.117   9.055 -0.3095  0.0498  0.0729
   64POPC   C2B 1319   5.134   8.277   8.965 -0.1524 -0.1165 -0.0392
   64POPC   C3B 1320   4.855   8.104   8.665  0.2124 -0.1478  0.1273
   64POPC   C4B 1321   4.595   8.287   8.312  0.0286 -0.0444  0.2547
   65POPC   NC3 1322   4.194   9.120   9.381  0.1806  0.1389 -0.1116
   65POPC   PO4 1323   4.485   9.407   9.348 -0.1305 -0.1549  0.2256
   65POPC   GL1 1324   4.321   9.411   8.881 -0.0533  0.1411 -0.1091
   65POPC   GL2 1325   4.292   9.723   8.768 -0.1369  0.0871  0.0305
   65POPC   C1A 1326   4.554   9.415   8.537 -0.2392 -0.1779  0.0204
   65POPC   D2A 1327   4.760   9.736   8.384  0.1181  0.0617 -0.3070
   65POPC   C3A 1328   4.544   9.891   8.125 -0.0053  0.1741  0.1733
   65POPC   C4A 1329   4.365   9.807   7.732 -0.1968 -0.2486 -0.3096
   65POPC   C1B 1330   4.124   9.692   8.285  0.3553  0.2529 -0.0075
   65POPC   C2B 1331   4.095   9.460   7.878  0.1552  0.3854  0.2433
   65POPC   C3B 1332   4.146   9.031   7.783 -0.1538 -0.1905  0.3053
   65POPC   C4B 1333   4.285   8.785   7.362  0.0125 -0.1554  0.0300
   66POPC   NC3 1334   8.494   5.026   9.449 -0.0585 -0.2278 -0.1109
   66POPC   PO4 1335   8.801   5.412   9.405  0.1838  0.5056 -0.0832
   66POPC   GL1 1336   8.816   5.269   9.053 -0.2992 -0.2158 -0.0112
   66POPC   GL2 1337   8.667   5.650   8.901  0.0035  0.0184 -0.3555
   66POPC   C1A 1338   8.781   5.161   8.630  0.3244 -0.1534  0.3273
   66POPC   D2A 1339   8.590   5.241   8.241  0.1577 -0.0082  0.1744
   66POPC   C3A 1340   8.655   4.922   7.873  0.1296  0.1527  0.2386
   66POPC   C4A 1341   8.390   4.756   7.417 -0.2208  0.2214 -0.0608
   66POPC   C1B 1342   8.384   5.436   8.678 -0.1736 -0.1891  0.2053
   66POPC   C2B 1343   8.218   5.523   8.322  0.1614  0.0854 -0.0132
   66POPC   C3B 1344   8.100   5.329   7.941 -0.2623  0.4740  0.2122
   66POPC   C4B 1345   8.018   5.189   7.471 -0.1976 -0.2475  0.0542
   67POPC   NC3 1346   4.084   2.806   9.658  0.3654  0.0275  0.0373
   67POPC   PO4 1347   4.534   2.733   9.784  0.0048 -0.0761 -0.2122
   67POPC   GL1 1348   4.533   2.793   9.411 -0.0428 -0.1064  0.0573
   67POPC   GL2 1349   4.626   3.038   9.394 -0.1295 -0.1345  0.0255
   67POPC   C1A 1350   4.395   2.758   8.994  0.0155 -0.0045  0.0311
   67POPC   D2A 1351   4.575   2.746   8.613  0.0939 -0.0545  0.0363
   67POPC   C3A 1352   4.580   2.321   8.413  0.1419 -0.0637  0.0144
   67POPC   C4A 1353   4.582   2.052   8.135  0.2416  0.0330 -0.1048
   67POPC   C1B 1354   4.803   3.373   9.153  0.3390  0.1788 -0.0705
   67POPC   C2B 1355   4.648   3.684   8.909  0.0448  0.0542 -0.0384
   67POPC   C3B 1356   4.250   3.767   8.655 -0.0282 -0.0412 -0.1432
   67POPC   C4B 1357   3.796   3.883   8.423 -0.0848  0.0343  0.2102
   68POPC   NC3 1358   3.362   8.122   9.780 -0.0653 -0.0045  0.0867
   68POPC   PO4 1359   3.065   8.357   9.744 -0.0189  0.3458 -0.0750
   68POPC   GL1 1360   3.053   8.366   9.284 -0.1896  0.1614 -0.0629
   68POPC   GL2 1361   3.403   8.384   9.316 -0.0104  0.2996 -0.0167
   68POPC   C1A 1362   3.086   8.546   8.939  0.1216 -0.0773  0.1555
   68POPC   D2A 1363   2.993   8.901   8.597  0.0859 -0.2292  0.0840
   68POPC   C3A 1364   2.870   8.813   8.197 -0.2360  0.1839  0.0752
   68POPC   C4A 1365   2.836   8.851   7.739 -0.0666  0.0286 -0.0082
   68POPC   C1B 1366   3.420   8.101   9.026  0.1493 -0.0615  0.2368
   68POPC   C2B 1367   3.782   7.935   8.877  0.0317 -0.0196 -0.3301
   68POPC   C3B 1368   4.040   7.933   8.583 -0.0804 -0.0106 -0.1623
   68POPC   C4B 1369   4.337   7.863   8.435 -0.0953  0.0880  0.0012
   69POPC   NC3 1370   4.935   9.178   9.416 -0.1530 -0.2748  0.2028
   69POPC   PO4 1371   4.614   8.894   9.498  0.1829  0.2402 -0.1568
   69POPC   GL1 1372   4.639   9.040   9.042  0.0300 -0.2431 -0.1757
   69POPC   GL2 1373   4.906   9.139   8.799 -0.0549  0.1399 -0.0200
   69POPC   C1A 1374   4.523   8.955   8.630  0.2871 -0.0868 -0.0571
   69POPC   D2A 1375   4.448   8.754   8.298 -0.0378 -0.1859  0.0060
   69POPC   C3A 1376   4.366   8.567   7.912  0.3611  0.1540  0.2736
   69POPC   C4A 1377   4.115   8.368   7.636  0.2370  0.1389  0.1470
   69POPC   C1B 1378   4.902   9.052   8.370 -0.3737  0.0348  0.1247
   69POPC   C2B 1379   4.912   8.809   7.948 -0.2271  0.0078  0.0552
   69POPC   C3B 1380   4.760   9.016   7.548 -0.2057 -0.1033  0.1821
   69POPC   C4B 1381   4.681   9.177   7.116  0.1269  0.0777  0.1431
   70POPC   NC3 1382   2.703   7.969   9.655 -0.2355 -0.1219  0.1511
   70POPC   PO4 1383   3.045   7.857   9.555  0.0600 -0.0346 -0.1134
   70POPC   GL1 1384   3.063   7.751   9.216 -0.1114 -0.2590  0.3210
   70POPC   GL2 1385   2.879   7.534   9.132  0.1444  0.2170 -0.1338
   70POPC   C1A 1386   3.310   7.682   8.799  0.1569 -0.1817  0.4786
   70POPC   D2A 1387   3.544   7.742   8.485  0.1545  0.2209 -0.0598
   70POPC   C3A 1388   3.617   8.188   8.435  0.2015 -0.0818 -0.0832
   70POPC   C4A 1389   3.258   8.470   8.363 -0.1437  0.1681  0.1495
   70POPC   C1B 1390   2.869   7.347   8.733  0.0438  0.2353  0.0543
   70POPC   C2B 1391   2.973   7.093   8.451  0.0879 -0.0179  0.2089
   70POPC   C3B 1392   2.945   7.051   8.071 -0.0068 -0.3367  0.3279
   70POPC   C4B 1393   3.299   7.052   7.853 -0.0480 -0.1261 -0.3144
   71POPC   NC3 1394   8.972   0.483   9.055 -0.1740 -0.1698 -0.1813
   71POPC   PO4 1395   8.963   0.886   9.012 -0.0999 -0.0657  0.0162
   71POPC   GL1 1396   9.024   1.035   8.578  0.2667  0.4822 -0.1535
   71POPC   GL2 1397   8.913   1.289   8.608  0.3518 -0.0558 -0.2413
   71POPC   C1A 1398   9.349   1.072   8.307  0.0459 -0.0069  0.1423
   71POPC   D2A 1399   9.499   0.652   8.136  0.2071 -0.1446 -0.0109
   71POPC   C3A 1400   9.358   0.537   7.775  0.1452  0.2708  0.0290
   71POPC   C4A 1401   9.585   0.217   7.483 -0.0220  0.0179 -0.0538
   71POPC   C1B 1402   8.644   1.353   8.356 -0.0529  0.5189  0.0547
   71POPC   C2B 1403   8.605   1.619   8.083  0.0732  0.1142 -0.1304
   71POPC   C3B 1404   8.670   1.977   7.692  0.1221  0.2401 -0.1619
   71POPC   C4B 1405   8.862   2.269   7.658  0.0869  0.1356  0.1033
   72POPC   NC3 1406   0.311   9.486   8.678 -0.0323 -0.0224 -0.1244
   72POPC   PO4 1407   0.361   9.887   8.597 -0.0790  0.0242 -0.0280
   72POPC   GL1 1408   0.304   9.843   8.237 -0.2851  0.2300 -0.2781
   72POPC   GL2 1409  -0.030   9.824   8.202 -0.2170 -0.1777  0.1289
   72POPC   C1A 1410   0.419   9.869   7.818 -0.2741 -0.0290 -0.3648
   72POPC   D2A 1411   0.417  10.244   7.539  0.0206 -0.0035  0.1895
   72POPC   C3A 1412   0.249  10.706   7.518 -0.2911 -0.5629  0.0232
   72POPC   C4A 1413   0.375  11.112   7.354 -0.3146 -0.0084  0.2072
   72POPC   C1B 1414   0.050   9.323   8.063  0.3982  0.0439 -0.4211
   72POPC   C2B 1415   0.009   8.849   8.094  0.0180 -0.1594  0.1414
   72POPC   C3B 1416  -0.250   8.454   8.126  0.0686 -0.0020 -0.0758
   72POPC   C4B 1417  -0.200   7.949   8.163  0.0031 -0.0135  0.0975
   73POPC   NC3 1418   7.833   4.775   9.469 -0.1119 -0.1557  0.1045
   73POPC   PO4 1419   8.247   4.629   9.410 -0.0624 -0.2671  0.0712
   73POPC   GL1 1420   8.083   4.962   9.047  0.1040  0.2811  0.2738
   73POPC   GL2 1421   8.363   4.998   8.991 -0.0768  0.0854 -0.1826
   73POPC   C1A 1422   7.911   5.212   8.757 -0.0970 -0.0522  0.1150
   73POPC   D2A 1423   7.809   5.114   8.288 -0.0820 -0.1517  0.1925
   73POPC   C3A 1424   7.658   4.983   7.893 -0.1808 -0.0728 -0.0496
   73POPC   C4A 1425   7.404   4.760   7.712  0.0630  0.3288  0.3690
   73POPC   C1B 1426   8.285   4.966   8.577 -0.0730  0.0191 -0.2978
   73POPC   C2B 1427   8.201   4.751   8.166 -0.1434  0.1316 -0.3403
   73POPC   C3B 1428   8.163   4.862   7.842 -0.0412 -0.1296 -0.1994
   73POPC   C4B 1429   7.964   4.593   7.541 -0.1128  0.2364 -0.1025
   74POPC   NC3 1430   7.087   9.529   9.565  0.1272  0.0819 -0.0261
   74POPC   PO4 1431   7.463   9.636   9.610 -0.0771 -0.1756 -0.0746
   74POPC   GL1 1432   7.525   9.742   9.209 -0.1776 -0.2430 -0.1168
   74POPC   GL2 1433   7.756   9.520   9.080 -0.0442 -0.0357  0.3072
   74POPC   C1A 1434   7.369   9.691   8.707 -0.0829 -0.0197 -0.0341
   74POPC   D2A 1435   7.377   9.742   8.282  0.0960  0.0154 -0.3222
   74POPC   C3A 1436   7.286   9.419   7.856  0.1788  0.1735  0.0120
   74POPC   C4A 1437   7.227   9.160   7.489  0.1866  0.1092 -0.0346
   74POPC   C1B 1438   7.780   9.390   8.568 -0.0043 -0.1292 -0.0316
   74POPC   C2B 1439   7.767   9.386   8.055  0.2978  0.0545 -0.0949
   74POPC   C3B 1440   7.959   9.332   7.678  0.2675 -0.2483 -0.1185
   74POPC   C4B 1441   8.131   9.609   7.361 -0.1071 -0.2931  0.3843
   75POPC   NC3 1442   0.043   0.104   8.484  0.1681 -0.0100  0.0907
   75POPC   PO4 1443   0.041   0.588   8.399 -0.2831 -0.1327  0.1504
   75POPC   GL1 1444   0.204   0.447   8.134  0.1629  0.1572 -0.0465
   75POPC   GL2 1445   0.164   0.170   8.003 -0.3169  0.1903  0.1807
   75POPC   C1A 1446   0.605   0.444   7.872  0.4006  0.0748 -0.4021
   75POPC   D2A 1447   0.756   0.560   7.450  0.0883  0.0751  0.1072
   75POPC   C3A 1448   0.901   0.998   7.261  0.5818 -0.1611  0.0823
   75POPC   C4A 1449   0.925   1.067   6.744 -0.1067 -0.2902 -0.0995
   75POPC   C1B 1450  -0.133  -0.063   7.752 -0.1254 -0.0571  0.1941
   75POPC   C2B 1451  -0.388  -0.256   7.408  0.0528 -0.2866 -0.0175
   75POPC   C3B 1452  -0.664  -0.130   7.124 -0.2774 -0.1288 -0.1918
   75POPC   C4B 1453  -1.098  -0.020   6.956 -0.2072 -0.1239 -0.3584
   76POPC   NC3 1454   0.736   2.402   8.740  0.0848 -0.0941  0.0257
   76POPC   PO4 1455   1.004   1.966   8.922 -0.2259 -0.0098  0.0685
   76POPC   GL1 1456   0.873   1.962   8.462 -0.0547  0.1914 -0.2877
   76POPC   GL2 1457   1.001   1.826   8.320 -0.0055  0.0599  0.1245
   76POPC   C1A 1458   0.838   2.296   8.078  0.0695 -0.0350  0.1333
   76POPC   D2A 1459   0.895   2.603   7.722  0.2231  0.2824 -0.0230
   76POPC   C3A 1460   1.099   2.410   7.322  0.3206 -0.3088 -0.1942
   76POPC   C4A 1461   1.031   2.392   6.884  0.2154 -0.2348 -0.1784
   76POPC   C1B 1462   1.109   1.895   7.935 -0.0853 -0.1348  0.1362
   76POPC   C2B 1463   1.090   1.883   7.585 -0.0388 -0.2588 -0.1038
   76POPC   C3B 1464   0.892   1.779   7.168  0.1340 -0.1177 -0.0295
   76POPC   C4B 1465   0.666   2.029   6.859 -0.0554 -0.1687 -0.1927
   77POPC   NC3 1466   9.117   3.714   9.253  0.0294  0.0668  0.2219
   77POPC   PO4 1467   9.329   3.390   9.145 -0.0250  0.0904  0.0659
   77POPC   GL1 1468   9.258   3.428   8.741 -0.3702 -0.0364 -0.0049
   77POPC   GL2 1469   9.302   3.298   8.582  0.1270  0.1602  0.2254
   77POPC   C1A 1470   9.339   3.551   8.178 -0.0786  0.1771  0.0496
   77POPC   D2A 1471   9.299   3.710   7.737 -0.0203  0.0443  0.0612
   77POPC   C3A 1472   9.139   4.167   7.715 -0.0654  0.1583 -0.2353
   77POPC   C4A 1473   8.735   4.445   7.604  0.0268 -0.0734 -0.0668
   77POPC   C1B 1474   9.059   3.070   8.324  0.0530 -0.0451  0.0401
   77POPC   C2B 1475   8.671   3.009   8.065  0.1508 -0.0660 -0.1176
   77POPC   C3B 1476   8.360   3.142   7.670  0.2113  0.0074  0.0249
   77POPC   C4B 1477   8.084   3.201   7.446 -0.2486 -0.2279 -0.1435
   78POPC   NC3 1478   3.835   7.187   9.911  0.0630 -0.0247 -0.1123
   78POPC   PO4 1479   3.887   7.682   9.830 -0.1855  0.0465 -0.1655
   78POPC   GL1 1480   4.019   7.362   9.460  0.0844  0.1422 -0.2346
   78POPC   GL2 1481   4.184   7.584   9.291 -0.1279  0.1769 -0.4284
   78POPC   C1A 1482   3.944   7.066   9.093  0.4847 -0.0334 -0.0647
   78POPC   D2A 1483   4.161   6.692   8.965 -0.1080  0.2737 -0.0982
   78POPC   C3A 1484   4.222   6.466   8.583  0.1007 -0.1443 -0.1191
   78POPC   C4A 1485   4.193   6.510   8.103 -0.4255  0.3368  0.1937
   78POPC   C1B 1486   4.260   7.564   8.959  0.1566  0.3476 -0.2613
   78POPC   C2B 1487   4.407   7.402   8.569  0.1801  0.2782  0.1853
   78POPC   C3B 1488   4.647   7.583   8.195  0.2453 -0.1280 -0.1813
   78POPC   C4B 1489   4.854   7.954   8.005 -0.0864  0.2130  0.2317
   79POPC   NC3 1490   8.604   8.509   9.978 -0.1163 -0.0341 -0.1437
   79POPC   PO4 1491   8.691   8.899   9.840  0.0023  0.1862  0.1686
   79POPC   GL1 1492   8.898   8.994   9.401  0.1989  0.0144  0.0801
   79POPC   GL2 1493   8.674   9.231   9.311  0.1230  0.1113  0.1760
   79POPC   C1A 1494   9.034   9.036   8.856  0.1279 -0.3316 -0.3198
   79POPC   D2A 1495   9.132   8.818   8.492  0.0773  0.2568 -0.0818
   79POPC   C3A 1496   9.167   9.039   8.117  0.2487  0.3317  0.1658
   79POPC   C4A 1497   8.995   9.035   7.650 -0.3692  0.2964  0.0990
   79POPC   C1B 1498   8.597   9.241   8.898  0.0882  0.0223 -0.0352
   79POPC   C2B 1499   8.765   9.324   8.492 -0.0433  0.0081  0.0836
   79POPC   C3B 1500   8.904   9.586   8.140 -0.3431 -0.1725  0.1326
   79POPC   C4B 1501   9.251   9.500   7.846 -0.0943  0.0652 -0.4149
   80POPC   NC3 1502   5.357   4.004  10.402 -0.0293 -0.0396  0.2692
   80POPC   PO4 1503   5.427   4.105   9.953  0.2339 -0.3035  0.1394
   80POPC   GL1 1504   5.446   3.936   9.587  0.1295 -0.0920 -0.0597
   80POPC   GL2 1505   5.752   3.906   9.513  0.1862  0.2110 -0.2223
   80POPC   C1A 1506   5.385   4.112   9.132 -0.2080 -0.0788  0.0468
   80POPC   D2A 1507   5.530   4.049   8.771 -0.0191 -0.0649 -0.3018
   80POPC   C3A 1508   5.349   4.038   8.349 -0.2821 -0.2005  0.0447
   80POPC   C4A 1509   5.069   3.986   8.093 -0.3619  0.0613 -0.0778
   80POPC   C1B 1510   5.875   3.786   9.063 -0.0252 -0.0240 -0.0947
   80POPC   C2B 1511   6.233   3.710   8.746 -0.2093 -0.1863  0.2727
   80POPC   C3B 1512   6.384   3.304   8.626 -0.1454  0.0537  0.0321
   80POPC   C4B 1513   6.496   3.089   8.300 -0.0026  0.1286 -0.1914
   81POPC   NC3 1514   7.345   6.896   9.149  0.2897  0.0463 -0.0398
   81POPC   PO4 1515   7.033   6.775   9.586 -0.0712  0.2080 -0.0254
   81POPC   GL1 1516   6.945   6.619   9.180 -0.1089 -0.1302  0.2840
   81POPC   GL2 1517   6.928   6.935   8.912 -0.2058  0.1966 -0.0476
   81POPC   C1A 1518   6.603   6.409   8.909 -0.4398  0.0294  0.0200
   81POPC   D2A 1519   6.345   6.515   8.603  0.0003  0.1325  0.0114
   81POPC   C3A 1520   6.489   6.371   8.193 -0.1457  0.1867 -0.1083
   81POPC   C4A 1521   6.728   6.258   7.821  0.0755 -0.2186  0.1020
   81POPC   C1B 1522   6.795   6.810   8.649 -0.3139  0.5236  0.5008
   81POPC   C2B 1523   6.729   6.831   8.311  0.0542 -0.0135 -0.2336
   81POPC   C3B 1524   6.413   6.906   8.062 -0.0986 -0.0713  0.1050
   81POPC   C4B 1525   6.338   7.186   7.708 -0.3016 -0.0865  0.1105
   82POPC   NC3 1526   5.709   3.406   9.696  0.0837  0.2587  0.6455
   82POPC   PO4 1527   5.604   3.039   9.471  0.0131  0.1769 -0.1966
   82POPC   GL1 1528   5.450   3.059   9.047 -0.2552 -0.4820  0.4058
   82POPC   GL2 1529   5.208   3.129   9.045  0.0832  0.2527 -0.0150
   82POPC   C1A 1530   5.494   3.123   8.582 -0.0480  0.1447 -0.0939
   82POPC   D2A 1531   5.523   3.034   8.174  0.1057 -0.1103  0.0765
   82POPC   C3A 1532   5.489   2.767   7.933  0.0039  0.0242 -0.2256
   82POPC   C4A 1533   5.489   2.333   7.718 -0.0728  0.1433 -0.0624
   82POPC   C1B 1534   4.960   3.109   8.756  0.1402 -0.0925 -0.2318
   82POPC   C2B 1535   5.063   3.337   8.464  0.0624  0.1232 -0.1104
   82POPC   C3B 1536   5.421   3.516   8.212  0.0449 -0.1901  0.1726
   82POPC   C4B 1537   5.929   3.310   8.291  0.2434  0.1927 -0.2767
   83POPC   NC3 1538   6.041   7.523   9.975  0.0653 -0.0226  0.0745
   83POPC   PO4 1539   6.024   7.138  10.270  0.2249 -0.2423  0.2932
   83POPC   GL1 1540   6.089   6.738   9.927 -0.0783  0.2589  0.0495
   83POPC   GL2 1541   6.003   6.512   9.978  0.0140  0.1497 -0.1758
   83POPC   C1A 1542   6.048   6.786   9.454 -0.2565 -0.3396 -0.1711
   83POPC   D2A 1543   6.024   7.192   9.250  0.3206  0.1588  0.0884
   83POPC   C3A 1544   5.961   7.281   8.801  0.0301 -0.1932  0.0037
   83POPC   C4A 1545   5.662   7.398   8.527 -0.1425 -0.1874 -0.2678
   83POPC   C1B 1546   6.091   6.306   9.609 -0.1031 -0.0012 -0.0870
   83POPC   C2B 1547   6.022   6.236   9.142  0.1745  0.1659  0.0656
   83POPC   C3B 1548   6.215   6.014   8.850  0.2283  0.0636 -0.0482
   83POPC   C4B 1549   6.250   5.626   8.619 -0.1404  0.0846  0.2162
   84POPC   NC3 1550   1.210   2.363   8.643  0.2351 -0.1669 -0.0747
   84POPC   PO4 1551   1.561   2.526   8.905  0.0988 -0.2023  0.0480
   84POPC   GL1 1552   1.713   2.882   8.769 -0.1554 -0.1799 -0.4443
   84POPC   GL2 1553   1.949   3.089   8.899 -0.1185  0.0582  0.1054
   84POPC   C1A 1554   1.688   3.251   8.470 -0.1023  0.0816  0.0190
   84POPC   D2A 1555   1.704   3.174   8.050 -0.5853 -0.0360  0.1000
   84POPC   C3A 1556   1.911   3.406   7.772  0.4138  0.0923 -0.3032
   84POPC   C4A 1557   2.220   3.449   7.433  0.3978 -0.1289 -0.3805
   84POPC   C1B 1558   2.126   2.979   8.500  0.1448 -0.1627  0.0482
   84POPC   C2B 1559   2.119   2.904   8.071 -0.2991  0.0074  0.0176
   84POPC   C3B 1560   2.305   3.031   7.681  0.1624 -0.3065 -0.2515
   84POPC   C4B 1561   2.458   2.890   7.411  0.3060 -0.0391  0.1367
   85POPC   NC3 1562   7.387   3.926   9.657 -0.2366  0.0008  0.2704
   85POPC   PO4 1563   7.611   3.919   9.276 -0.0577  0.1510  0.3456
   85POPC   GL1 1564   7.417   3.832   8.899 -0.0708 -0.2859 -0.0563
   85POPC   GL2 1565   7.461   3.475   8.702  0.1261 -0.0909 -0.3037
   85POPC   C1A 1566   7.099   3.852   8.584 -0.0154  0.1032 -0.0774
   85POPC   D2A 1567   6.614   3.982   8.610  0.0323 -0.2225 -0.1162
   85POPC   C3A 1568   6.404   3.790   8.310 -0.0303 -0.0330  0.2456
   85POPC   C4A 1569   6.284   3.465   7.950  0.2869 -0.2162 -0.0785
   85POPC   C1B 1570   7.260   3.251   8.363 -0.0069  0.0285 -0.1351
   85POPC   C2B 1571   7.008   3.155   7.971  0.0339 -0.2056 -0.3737
   85POPC   C3B 1572   6.707   2.879   7.848  0.0587 -0.0824 -0.0010
   85POPC   C4B 1573   6.599   2.882   7.372 -0.1123 -0.0586  0.2266
   86POPC   NC3 1574   0.402   1.568   9.141  0.1539  0.1967 -0.1433
   86POPC   PO4 1575   0.036   1.640   8.892 -0.3884 -0.2197  0.2221
   86POPC   GL1 1576  -0.290   1.683   8.470  0.1934  0.0146 -0.2600
   86POPC   GL2 1577  -0.296   1.952   8.290  0.3338  0.0746 -0.0832
   86POPC   C1A 1578  -0.514   1.558   8.050 -0.0036  0.2153 -0.0838
   86POPC   D2A 1579  -0.758   1.525   7.664  0.0062 -0.2369  0.2103
   86POPC   C3A 1580  -1.008   1.778   7.350  0.1002  0.0557  0.0782
   86POPC   C4A 1581  -1.069   1.730   7.006 -0.1729 -0.1186 -0.0993
   86POPC   C1B 1582  -0.315   1.994   7.868 -0.1935  0.3183  0.1173
   86POPC   C2B 1583  -0.466   1.843   7.452 -0.3023  0.2182  0.3521
   86POPC   C3B 1584  -0.547   1.620   7.062 -0.1907 -0.2925 -0.1065
   86POPC   C4B 1585  -0.743   1.510   6.649 -0.0596 -0.0554  0.1875
   87POPC   NC3 1586   6.341   1.690   9.798  0.0247  0.2040  0.0730
   87POPC   PO4 1587   6.611   1.589   9.586 -0.0216  0.0726  0.1402
   87POPC   GL1 1588   6.278   1.440   9.317  0.2779 -0.0496 -0.0585
   87POPC   GL2 1589   5.968   1.464   9.398  0.1793 -0.0887 -0.2165
   87POPC   C1A 1590   6.213   1.699   9.010 -0.1783  0.2109  0.3168
   87POPC   D2A 1591   6.224   1.838   8.549  0.0101  0.0696 -0.2933
   87POPC   C3A 1592   6.433   2.181   8.436  0.0974 -0.1054  0.0807
   87POPC   C4A 1593   6.628   2.560   8.211  0.0460  0.2159 -0.0774
   87POPC   C1B 1594   5.726   1.587   9.039  0.1446  0.2548  0.1412
   87POPC   C2B 1595   5.856   1.578   8.623 -0.1094  0.2900  0.0609
   87POPC   C3B 1596   5.910   1.551   8.189 -0.2342  0.1369  0.0621
   87POPC   C4B 1597   6.080   1.769   7.925 -0.2585  0.2105 -0.3172
   88POPC   NC3 1598   1.760   0.614   9.179 -0.0153 -0.0944 -0.0458
   88POPC   PO4 1599   1.794   1.003   8.893  0.2131  0.2641 -0.1144
   88POPC   GL1 1600   2.007   0.955   8.573  0.0424 -0.1210 -0.1139
   88POPC   GL2 1601   2.248   0.934   8.699 -0.1786  0.0125  0.1421
   88POPC   C1A 1602   2.069   0.920   8.126 -0.1635  0.0329  0.1467
   88POPC   D2A 1603   2.130   0.951   7.724  0.0388 -0.1579  0.3426
   88POPC   C3A 1604   2.215   1.258   7.544 -0.0871  0.2004  0.0972
   88POPC   C4A 1605   2.474   1.597   7.409 -0.2432  0.1084  0.0546
   88POPC   C1B 1606   2.374   0.595   8.398  0.0723 -0.1595  0.1677
   88POPC   C2B 1607   2.240   0.378   8.088 -0.0106  0.0336  0.0255
   88POPC   C3B 1608   2.179   0.456   7.677  0.0206 -0.3051  0.1308
   88POPC   C4B 1609   2.230   0.694   7.228 -0.0758 -0.0912 -0.0437
   89POPC   NC3 1610   8.653   5.886   9.325  0.0306 -0.0847  0.1121
   89POPC   PO4 1611   8.722   6.302   9.160  0.2387  0.4465 -0.0799
   89POPC   GL1 1612   8.628   6.334   8.684  0.1701  0.1807 -0.0478
   89POPC   GL2 1613   8.521   6.666   8.595  0.0958  0.0802  0.3472
   89POPC   C1A 1614   8.397   6.269   8.239 -0.0582 -0.1987 -0.4174
   89POPC   D2A 1615   8.185   6.043   7.927 -0.0385 -0.0221 -0.1616
   89POPC   C3A 1616   8.162   6.275   7.587 -0.0023 -0.0398  0.0024
   89POPC   C4A 1617   8.023   6.521   7.332  0.1181  0.2140  0.3762
   89POPC   C1B 1618   8.663   6.682   8.145 -0.3664 -0.2791 -0.1360
   89POPC   C2B 1619   8.927   6.752   7.774  0.0792  0.1933 -0.0614
   89POPC   C3B 1620   9.188   6.480   7.663  0.0829 -0.0538  0.0833
   89POPC   C4B 1621   9.564   6.264   7.350  0.1499  0.0171 -0.2891
   90POPC   NC3 1622   5.995   8.837   9.261  0.1319 -0.0928  0.1836
   90POPC   PO4 1623   5.527   9.025   9.209 -0.1133  0.0612 -0.0664
   90POPC   GL1 1624   5.589   9.133   8.832  0.0501  0.0614  0.1405
   90POPC   GL2 1625   5.675   9.407   8.835 -0.1987 -0.1201  0.0240
   90POPC   C1A 1626   5.329   9.013   8.628 -0.0806  0.0739  0.2199
   90POPC   D2A 1627   5.379   9.029   8.226 -0.2413 -0.0123 -0.0989
   90POPC   C3A 1628   5.750   8.905   8.013  0.1458  0.0931  0.1253
   90POPC   C4A 1629   5.955   8.769   7.567 -0.0854 -0.2135  0.1859
   90POPC   C1B 1630   5.654   9.400   8.413 -0.2001  0.0016 -0.2881
   90POPC   C2B 1631   5.653   9.364   7.943  0.1069 -0.1480  0.0513
   90POPC   C3B 1632   5.369   9.730   7.788  0.2808 -0.4128  0.0813
   90POPC   C4B 1633   5.438   9.940   7.365 -0.1306  0.3104 -0.0184
   91POPC   NC3 1634   6.244  10.080   9.315 -0.2245 -0.0424  0.2657
   91POPC   PO4 1635   6.454   9.806   9.161 -0.0875 -0.1814 -0.1216
   91POPC   GL1 1636   6.628  10.067   8.927 -0.1989 -0.2012 -0.1700
   91POPC   GL2 1637   6.549  10.215   8.779  0.2524  0.0166  0.0205
   91POPC   C1A 1638   6.957   9.885   8.555  0.1362  0.0667 -0.1127
   91POPC   D2A 1639   6.851  10.017   8.103  0.1362  0.3755 -0.2202
   91POPC   C3A 1640   7.125   9.927   7.756  0.0859  0.0038  0.0742
   91POPC   C4A 1641   7.431  10.072   7.548 -0.2236  0.1991  0.1550
   91POPC   C1B 1642   6.633  10.492   8.419  0.0918 -0.1111 -0.4775
   91POPC   C2B 1643   6.546  10.523   7.998 -0.1878 -0.0234  0.0995
   91POPC   C3B 1644   6.509  10.686   7.516  0.2497  0.0223 -0.1035
   91POPC   C4B 1645   6.775  10.626   7.151  0.0238  0.1142 -0.1630
   92POPC   NC3 1646   5.694   4.879  10.364 -0.0125  0.0918 -0.0019
   92POPC   PO4 1647   5.981   4.839   9.963  0.1484  0.3420  0.2176
   92POPC   GL1 1648   5.848   4.751   9.659  0.1009  0.0283 -0.3033
   92POPC   GL2 1649   5.703   4.413   9.530 -0.1036  0.1311 -0.1505
   92POPC   C1A 1650   5.893   4.796   9.221 -0.2109 -0.0635 -0.1234
   92POPC   D2A 1651   5.758   4.922   8.822 -0.3146  0.2376 -0.0462
   92POPC   C3A 1652   5.857   5.331   8.559  0.0155 -0.1014  0.0536
   92POPC   C4A 1653   5.901   5.604   8.186  0.0926 -0.1216 -0.2165
   92POPC   C1B 1654   5.897   4.322   9.062  0.2515 -0.1292  0.1595
   92POPC   C2B 1655   6.141   4.181   8.778  0.1753 -0.0549  0.3450
   92POPC   C3B 1656   6.308   4.403   8.385  0.0621  0.0426  0.1963
   92POPC   C4B 1657   6.612   4.766   8.271  0.0134 -0.1808  0.0396
   93POPC   NC3 1658   8.021   0.383   9.264 -0.0530  0.0786 -0.0169
   93POPC   PO4 1659   8.399   0.359   9.064 -0.1332  0.1309 -0.0533
   93POPC   GL1 1660   8.521   0.516   8.640 -0.4971 -0.0815 -0.0312
   93POPC   GL2 1661   8.561   0.860   8.658 -0.2036  0.3144  0.1663
   93POPC   C1A 1662   8.522   0.314   8.336 -0.3861 -0.0317  0.0265
   93POPC   D2A 1663   8.404   0.352   7.988  0.2810  0.1688  0.3712
   93POPC   C3A 1664   8.389   0.631   7.625  0.1449 -0.1186 -0.0037
   93POPC   C4A 1665   8.069   0.436   7.370 -0.1455  0.0840  0.1062
   93POPC   C1B 1666   8.756   0.769   8.278  0.0217  0.1430 -0.1605
   93POPC   C2B 1667   8.852   0.759   7.824  0.1697 -0.2920 -0.1148
   93POPC   C3B 1668   8.926   0.998   7.454  0.0258  0.0049  0.1143
   93POPC   C4B 1669   9.250   1.304   7.202  0.0378  0.0884  0.1252
   94POPC   NC3 1670   8.167   3.706   9.279  0.2191 -0.0436  0.1490
   94POPC   PO4 1671   8.595   3.720   9.306  0.2200  0.2972 -0.1532
   94POPC   GL1 1672   8.793   3.794   8.949  0.0472  0.1325  0.1133
   94POPC   GL2 1673   8.862   3.742   8.533  0.0880  0.0032 -0.1277
   94POPC   C1A 1674   8.903   4.250   8.684  0.0614  0.0732  0.2397
   94POPC   D2A 1675   8.868   4.690   8.522  0.0495  0.1607  0.1394
   94POPC   C3A 1676   9.237   4.846   8.422  0.4103 -0.0852  0.3312
   94POPC   C4A 1677   9.529   5.255   8.324  0.4044 -0.1464 -0.0450
   94POPC   C1B 1678   8.947   3.915   8.198  0.1434 -0.1978  0.3568
   94POPC   C2B 1679   9.020   4.310   8.163 -0.3400  0.1014  0.1158
   94POPC   C3B 1680   9.060   4.649   7.929 -0.1411 -0.1483 -0.0820
   94POPC   C4B 1681   9.092   4.944   7.498  0.0566  0.0971  0.2610
   95POPC   NC3 1682   2.739   2.528   9.794  0.3378  0.1288 -0.2159
   95POPC   PO4 1683   2.768   2.792   9.523  0.0907 -0.2185  0.4531
   95POPC   GL1 1684   2.824   2.823   9.114 -0.3186  0.1406  0.3259
   95POPC   GL2 1685   2.953   3.139   9.122 -0.0579 -0.3968  0.0293
   95POPC   C1A 1686   2.577   2.933   8.683  0.3440 -0.1722  0.2725
   95POPC   D2A 1687   2.581   3.048   8.199  0.0089  0.0357 -0.2560
   95POPC   C3A 1688   2.664   3.276   7.948 -0.1587  0.1611  0.1624
   95POPC   C4A 1689   2.775   3.492   7.661  0.2562 -0.0455 -0.1210
   95POPC   C1B 1690   2.936   3.292   8.770  0.0728  0.6224 -0.1179
   95POPC   C2B 1691   2.977   3.543   8.425 -0.1669  0.2513  0.0750
   95POPC   C3B 1692   3.223   3.546   8.037  0.1743 -0.2176  0.0763
   95POPC   C4B 1693   3.294   3.282   7.703  0.0564 -0.3175  0.0681
   96POPC   NC3 1694   5.115   5.930  10.570 -0.1357  0.2519 -0.2392
   96POPC   PO4 1695   5.185   5.460  10.610  0.0279 -0.0821  0.0257
   96POPC   GL1 1696   5.308   5.305  10.272  0.3459  0.0804  0.1527
   96POPC   GL2 1697   5.125   5.439   9.960 -0.0292 -0.2879 -0.1172
   96POPC   C1A 1698   5.677   5.407   9.937 -0.1376  0.2149  0.1599
   96POPC   D2A 1699   5.887   5.345   9.553  0.3777  0.0385 -0.0810
   96POPC   C3A 1700   5.665   5.511   9.196 -0.0281  0.4476  0.0396
   96POPC   C4A 1701   5.406   5.462   8.783  0.0363 -0.1369 -0.0947
   96POPC   C1B 1702   5.329   5.384   9.572 -0.2752 -0.3151  0.2457
   96POPC   C2B 1703   5.499   5.009   9.429 -0.2528 -0.1181  0.1345
   96POPC   C3B 1704   5.370   4.606   9.140 -0.2039 -0.2133 -0.0822
   96POPC   C4B 1705   4.967   4.308   9.088  0.0058 -0.0535 -0.0414
   97POPC   NC3 1706   6.383   2.734   9.751  0.2236  0.2877 -0.1865
   97POPC   PO4 1707   6.125   2.811   9.443  0.0054 -0.4699 -0.1832
   97POPC   GL1 1708   5.889   2.848   9.102 -0.4577 -0.3241 -0.0884
   97POPC   GL2 1709   5.860   2.575   8.866 -0.2136 -0.2899  0.1452
   97POPC   C1A 1710   5.923   3.204   8.798  0.0469  0.0565 -0.1335
   97POPC   D2A 1711   5.695   3.561   8.641  0.0559  0.2445  0.2185
   97POPC   C3A 1712   5.913   3.863   8.403  0.2336  0.2030  0.4447
   97POPC   C4A 1713   6.063   4.056   8.108  0.0929  0.0097  0.0276
   97POPC   C1B 1714   5.605   2.583   8.546 -0.0656  0.1942 -0.0990
   97POPC   C2B 1715   5.415   2.383   8.259  0.3377 -0.0973  0.2537
   97POPC   C3B 1716   5.023   2.347   8.026  0.0979 -0.1264  0.1420
   97POPC   C4B 1717   4.595   2.594   7.899 -0.0909  0.0384 -0.5594
   98POPC   NC3 1718   4.761   3.147   9.902 -0.0345 -0.1880 -0.1530
   98POPC   PO4 1719   4.346   3.252   9.850  0.0973  0.1115 -0.2391
   98POPC   GL1 1720   4.211   3.486   9.539  0.1988 -0.1499 -0.1899
   98POPC   GL2 1721   4.057   3.254   9.379  0.5703  0.1707  0.2659
   98POPC   C1A 1722   4.358   3.834   9.327 -0.1886 -0.0886  0.0573
   98POPC   D2A 1723   4.437   4.084   8.967 -0.0342 -0.0434 -0.2140
   98POPC   C3A 1724   4.673   4.171   8.707  0.0695  0.0430  0.1923
   98POPC   C4A 1725   4.818   4.432   8.323  0.0255  0.0609 -0.2508
   98POPC   C1B 1726   4.273   3.185   9.079  0.1321  0.0192 -0.0307
   98POPC   C2B 1727   4.450   3.239   8.594 -0.1127  0.3472  0.0828
   98POPC   C3B 1728   4.647   3.156   8.190  0.1648  0.2947 -0.1949
   98POPC   C4B 1729   4.511   3.189   7.770 -0.0295 -0.1371 -0.2324
   99POPC   NC3 1730   0.227   8.671   8.782 -0.0125 -0.0086  0.1942
   99POPC   PO4 1731  -0.160   8.382   8.745  0.0952 -0.0128 -0.0952
   99POPC   GL1 1732  -0.229   8.897   8.526  0.0420  0.0367 -0.4325
   99POPC   GL2 1733  -0.535   8.842   8.656 -0.0571 -0.0440  0.3499
   99POPC   C1A 1734  -0.443   9.145   8.132 -0.1902 -0.0469 -0.3170
   99POPC   D2A 1735  -0.606   9.056   7.746 -0.0950  0.0310 -0.3688
   99POPC   C3A 1736  -0.646   8.821   7.352  0.1731 -0.1067 -0.3850
   99POPC   C4A 1737  -0.615   8.450   7.177 -0.1021 -0.1420 -0.2145
   99POPC   C1B 1738  -0.637   8.709   8.250 -0.2034 -0.0457  0.0402
   99POPC   C2B 1739  -0.645   8.591   7.819 -0.1916  0.2367  0.1662
   99POPC   C3B 1740  -0.880   8.302   7.549 -0.0379  0.1188  0.0532
   99POPC   C4B 1741  -1.207   7.875   7.577  0.0542  0.1787 -0.1590
  100POPC   NC3 1742   1.301   7.243   9.354  0.3998  0.1117 -0.0428
  100POPC   PO4 1743   1.683   7.468   9.282  0.1668  0.3750 -0.0777
  100POPC   GL1 1744   1.714   7.452   8.767 -0.0214 -0.0230  0.1286
  100POPC   GL2 1745   1.415   7.460   8.749 -0.1677 -0.2134  0.1960
  100POPC   C1A 1746   1.942   7.201   8.400  0.3398 -0.0639  0.0173
  100POPC   D2A 1747   1.845   6.829   8.251 -0.1003 -0.0211 -0.3703
  100POPC   C3A 1748   2.097   6.600   8.038 -0.0118  0.1346 -0.0536
  100POPC   C4A 1749   2.576   6.538   7.975  0.1569  0.5801  0.0776
  100POPC   C1B 1750   1.090   7.620   8.392  0.1573 -0.1337  0.0378
  100POPC   C2B 1751   1.164   7.522   7.898  0.0183  0.1346  0.0722
  100POPC   C3B 1752   1.549   7.352   7.776  0.0022  0.1921 -0.2940
  100POPC   C4B 1753   1.935   7.170   7.862  0.2403  0.0601 -0.0453
  101POPC   NC3 1754   6.699   1.144   9.396  0.0138 -0.1152 -0.0471
  101POPC   PO4 1755   7.102   1.325   9.314  0.0194 -0.0952 -0.2068
  101POPC   GL1 1756   7.372   1.280   8.893  0.1402 -0.2287 -0.2593
  101POPC   GL2 1757   7.375   1.451   8.666 -0.0394 -0.0061 -0.0395
  101POPC   C1A 1758   7.595   1.047   8.531  0.0418  0.3213 -0.1785
  101POPC   D2A 1759   7.697   1.046   8.096  0.0073  0.0159 -0.0031
  101POPC   C3A 1760   7.417   0.888   7.783  0.2893 -0.1761  0.0632
  101POPC   C4A 1761   7.060   0.730   7.450  0.4564  0.2256  0.2668
  101POPC   C1B 1762   7.295   1.842   8.472 -0.0819 -0.1055 -0.1833
  101POPC   C2B 1763   7.099   1.793   8.111 -0.1765  0.0144 -0.0115
  101POPC   C3B 1764   6.752   1.726   7.904  0.5661 -0.2983  0.1024
  101POPC   C4B 1765   6.543   2.032   7.976  0.1229 -0.5050 -0.1013
  102POPC   NC3 1766   1.389   4.608   9.399 -0.2276 -0.3817  0.1079
  102POPC   PO4 1767   1.082   4.415   9.504 -0.0911 -0.1605 -0.0234
  102POPC   GL1 1768   1.086   4.376   9.046  0.1151 -0.1272 -0.0874
  102POPC   GL2 1769   0.888   4.200   8.903  0.0828  0.0561 -0.0096
  102POPC   C1A 1770   1.045   4.546   8.619  0.1581 -0.0297  0.0441
  102POPC   D2A 1771   0.891   4.656   8.230  0.2049  0.1731  0.2984
  102POPC   C3A 1772   0.817   4.534   7.810 -0.0374  0.1504  0.1053
  102POPC   C4A 1773   1.025   4.468   7.390  0.0941 -0.4664 -0.2187
  102POPC   C1B 1774   0.689   4.279   8.529 -0.0776 -0.0823  0.2421
  102POPC   C2B 1775   0.702   4.194   8.104  0.1913 -0.1990  0.0500
  102POPC   C3B 1776   0.878   4.023   7.737 -0.2818  0.2405 -0.1385
  102POPC   C4B 1777   1.102   3.983   7.323 -0.1488 -0.0656  0.1212
  103POPC   NC3 1778   7.665   1.181   9.302  0.1527  0.0183 -0.0434
  103POPC   PO4 1779   8.108   1.103   9.253  0.0563  0.0622 -0.0265
  103POPC   GL1 1780   7.928   1.269   8.863 -0.2223 -0.1363 -0.1382
  103POPC   GL2 1781   8.174   1.180   8.664 -0.2263  0.3913 -0.1487
  103POPC   C1A 1782   7.807   1.472   8.523 -0.1165  0.3275 -0.1135
  103POPC   D2A 1783   7.599   1.586   8.093  0.0169 -0.1890  0.0800
  103POPC   C3A 1784   7.275   1.262   8.022  0.0759 -0.0514  0.0364
  103POPC   C4A 1785   6.852   1.228   8.127 -0.1761 -0.0579 -0.0096
  103POPC   C1B 1786   8.147   1.395   8.207  0.0514 -0.0461  0.0197
  103POPC   C2B 1787   7.970   1.368   7.801 -0.2373 -0.0951 -0.0209
  103POPC   C3B 1788   7.559   1.320   7.660 -0.0046 -0.0747  0.2408
  103POPC   C4B 1789   7.395   1.031   7.326  0.1949  0.1355  0.4221
  104POPC   NC3 1790   2.140   6.680  10.383 -0.1702 -0.0028  0.3988
  104POPC   PO4 1791   2.284   6.571   9.894 -0.0345  0.1021 -0.2425
  104POPC   GL1 1792   2.419   6.574   9.414 -0.0496 -0.2547 -0.1032
  104POPC   GL2 1793   2.102   6.427   9.246  0.1262  0.1553 -0.2106
  104POPC   C1A 1794   2.528   6.364   8.965 -0.1397 -0.0285 -0.2441
  104POPC   D2A 1795   2.373   6.370   8.536  0.1368  0.0384 -0.1996
  104POPC   C3A 1796   2.375   6.758   8.369  0.0112 -0.3592  0.0541
  104POPC   C4A 1797   2.373   7.016   8.006 -0.1298  0.0588 -0.0236
  104POPC   C1B 1798   2.097   6.117   8.861 -0.1847 -0.3207  0.1028
  104POPC   C2B 1799   2.390   5.827   8.669  0.2123 -0.0921 -0.1230
  104POPC   C3B 1800   2.476   5.540   8.247 -0.0722 -0.0192  0.0378
  104POPC   C4B 1801   2.655   5.385   7.881 -0.2724 -0.1936 -0.3305
  105POPC   NC3 1802   2.305   1.450   9.082  0.2647  0.1577 -0.2119
  105POPC   PO4 1803   2.618   1.069   9.326 -0.0308  0.1162  0.1557
  105POPC   GL1 1804   2.748   1.072   8.835 -0.1313 -0.2101 -0.3781
  105POPC   GL2 1805   2.572   1.432   8.698 -0.0265  0.1952  0.1203
  105POPC   C1A 1806   2.677   1.014   8.361 -0.1157 -0.3922 -0.2503
  105POPC   D2A 1807   2.534   1.225   7.881  0.0400  0.0179 -0.3080
  105POPC   C3A 1808   2.396   1.671   7.903  0.0674  0.1081 -0.1761
  105POPC   C4A 1809   2.327   1.971   8.292  0.4713  0.1506 -0.1744
  105POPC   C1B 1810   2.267   1.389   8.321 -0.0102 -0.0322 -0.2605
  105POPC   C2B 1811   1.973   1.401   7.901 -0.0988 -0.0488 -0.1268
  105POPC   C3B 1812   1.733   1.337   7.559 -0.1285 -0.1287  0.1825
  105POPC   C4B 1813   1.430   1.589   7.321 -0.3648 -0.0312  0.2324
  106POPC   NC3 1814   1.921   2.565   9.234  0.1170  0.0056  0.3294
  106POPC   PO4 1815   1.690   2.985   9.277  0.2040 -0.0066 -0.0510
  106POPC   GL1 1816   1.549   3.292   9.029  0.1661 -0.1497  0.0540
  106POPC   GL2 1817   1.157   3.297   8.839  0.1900  0.0908  0.1412
  106POPC   C1A 1818   1.485   3.673   8.725 -0.1790  0.1779  0.5998
  106POPC   D2A 1819   1.301   4.052   8.658  0.2381  0.1499  0.4146
  106POPC   C3A 1820   1.142   4.229   8.253  0.1397  0.0266  0.0313
  106POPC   C4A 1821   1.231   4.382   7.882  0.0688  0.0446 -0.2757
  106POPC   C1B 1822   1.205   3.403   8.444 -0.2171  0.0307 -0.1944
  106POPC   C2B 1823   1.225   3.201   8.040  0.2871 -0.0130  0.0363
  106POPC   C3B 1824   1.419   3.309   7.618 -0.0069 -0.3233  0.1598
  106POPC   C4B 1825   1.440   3.127   7.225 -0.1276 -0.0707  0.0137
  107POPC   NC3 1826   9.067   2.932   9.435  0.2436 -0.1909 -0.3064
  107POPC   PO4 1827   8.614   2.763   9.315 -0.0461  0.0994  0.1153
  107POPC   GL1 1828   8.495   2.844   8.880 -0.1254 -0.0196  0.1124
  107POPC   GL2 1829   8.636   3.082   8.750 -0.1827 -0.1342 -0.0298
  107POPC   C1A 1830   8.359   2.803   8.441 -0.0114  0.3493 -0.0054
  107POPC   D2A 1831   8.178   3.121   8.177  0.0572 -0.0168  0.1033
  107POPC   C3A 1832   7.749   3.290   8.287  0.1173 -0.2507  0.1154
  107POPC   C4A 1833   7.561   3.713   8.331  0.2143  0.1108 -0.0957
  107POPC   C1B 1834   8.570   3.393   8.423  0.2532 -0.0817 -0.0693
  107POPC   C2B 1835   8.622   3.462   8.057  0.2351 -0.0678  0.2032
  107POPC   C3B 1836   8.808   3.640   7.717 -0.0041 -0.0748 -0.0667
  107POPC   C4B 1837   8.848   3.941   7.383  0.3731 -0.2263 -0.1684
  108POPC   NC3 1838   7.862   6.144   8.963  0.2679 -0.0357 -0.1687
  108POPC   PO4 1839   7.383   6.377   9.039 -0.3451  0.4723 -0.1830
  108POPC   GL1 1840   7.514   6.175   8.620 -0.0538  0.0556  0.0464
  108POPC   GL2 1841   7.434   5.921   8.688 -0.2724  0.1062  0.0667
  108POPC   C1A 1842   7.479   6.339   8.211  0.1762 -0.0954  0.2896
  108POPC   D2A 1843   7.279   6.390   7.847 -0.1551 -0.1358 -0.3296
  108POPC   C3A 1844   7.386   6.745   7.584  0.2148 -0.0011  0.1006
  108POPC   C4A 1845   7.695   6.994   7.827  0.0309  0.1038  0.0114
  108POPC   C1B 1846   7.605   5.590   8.510 -0.0734 -0.0306 -0.1676
  108POPC   C2B 1847   7.424   5.421   8.048  0.0611 -0.0322  0.0565
  108POPC   C3B 1848   7.463   5.400   7.512 -0.0990 -0.1259  0.0245
  108POPC   C4B 1849   7.699   5.453   7.099 -0.0040 -0.2103  0.2808
  109POPC   NC3 1850   7.791   1.048   9.776 -0.3957 -0.0031 -0.0395
  109POPC   PO4 1851   7.698   0.709   9.458  0.0569 -0.2071  0.2011
  109POPC   GL1 1852   7.780   0.753   9.005 -0.3846  0.0753  0.0452
  109POPC   GL2 1853   8.112   0.716   8.842 -0.0702  0.0018  0.0951
  109POPC   C1A 1854   7.643   0.437   8.715  0.0514 -0.1312  0.2441
  109POPC   D2A 1855   7.543   0.525   8.282  0.0156  0.1608 -0.0907
  109POPC   C3A 1856   7.188   0.790   8.196  0.0720 -0.1920 -0.1754
  109POPC   C4A 1857   6.779   0.799   7.948  0.3065 -0.2536 -0.1153
  109POPC   C1B 1858   8.109   0.738   8.413  0.0840  0.0640  0.0851
  109POPC   C2B 1859   8.340   0.945   8.102  0.1234 -0.1365 -0.1908
  109POPC   C3B 1860   8.477   1.171   7.758 -0.6055  0.0216  0.0669
  109POPC   C4B 1861   8.791   1.474   7.559  0.0915 -0.3583 -0.0540
  110POPC   NC3 1862   8.816   9.400   9.787  0.3729 -0.2512 -0.0743
  110POPC   PO4 1863   8.590   9.737   9.441  0.0104  0.0053 -0.1960
  110POPC   GL1 1864   8.451   9.732   9.034  0.2421 -0.0311  0.1196
  110POPC   GL2 1865   8.313  10.006   8.920  0.0939 -0.3477  0.0095
  110POPC   C1A 1866   8.329   9.558   8.538 -0.1915  0.0296  0.1485
  110POPC   D2A 1867   8.190   9.237   8.289  0.1170 -0.0757 -0.1738
  110POPC   C3A 1868   8.382   9.516   7.989  0.2654 -0.0534  0.0783
  110POPC   C4A 1869   8.613   9.567   7.684 -0.1408 -0.1063 -0.1816
  110POPC   C1B 1870   8.108  10.241   8.598  0.1273  0.0066 -0.0555
  110POPC   C2B 1871   7.987  10.472   8.274  0.0473  0.2422 -0.3145
  110POPC   C3B 1872   7.955  10.803   7.972  0.0433  0.1763 -0.1308
  110POPC   C4B 1873   7.939  11.031   7.538 -0.1260 -0.3138  0.3445
  111POPC   NC3 1874   9.693   7.612   9.648 -0.0603 -0.1322 -0.1120
  111POPC   PO4 1875   9.341   7.807   9.972 -0.0557  0.0576  0.1332
  111POPC   GL1 1876   9.128   7.903   9.477 -0.2135 -0.0114  0.0331
  111POPC   GL2 1877   9.402   7.738   9.243  0.1567 -0.0002  0.2982
  111POPC   C1A 1878   9.013   8.101   9.102  0.1701  0.0184 -0.1839
  111POPC   D2A 1879   8.583   8.078   8.796  0.0019  0.1429  0.1473
  111POPC   C3A 1880   8.453   7.944   8.476  0.0738 -0.0486 -0.3278
  111POPC   C4A 1881   8.301   7.692   8.212 -0.1308  0.0601  0.4443
  111POPC   C1B 1882   9.131   7.710   8.876 -0.1416 -0.1003  0.3254
  111POPC   C2B 1883   8.978   7.945   8.508  0.0211  0.0789 -0.1063
  111POPC   C3B 1884   8.905   8.400   8.371  0.4001  0.1229 -0.3004
  111POPC   C4B 1885   9.087   8.472   8.004  0.1239 -0.5811  0.0568
  112POPC   NC3 1886   7.862   5.724   9.594 -0.0940 -0.0373 -0.2648
  112POPC   PO4 1887   8.193   5.947   9.261 -0.1211 -0.0748 -0.2471
  112POPC   GL1 1888   8.311   5.964   8.898 -0.1467 -0.1213  0.2015
  112POPC   GL2 1889   8.110   5.877   8.642 -0.0217 -0.0969  0.1246
  112POPC   C1A 1890   8.630   5.888   8.472  0.0587  0.1740 -0.3490
  112POPC   D2A 1891   8.607   5.741   8.093  0.1931  0.2442 -0.1580
  112POPC   C3A 1892   9.045   5.768   7.877 -0.3641  0.0076 -0.1193
  112POPC   C4A 1893   9.308   5.957   7.704 -0.2083  0.4289 -0.1458
  112POPC   C1B 1894   7.894   6.026   8.337  0.0055  0.0850 -0.0256
  112POPC   C2B 1895   7.680   5.882   8.000 -0.1388  0.2701  0.0763
  112POPC   C3B 1896   7.852   5.770   7.614 -0.1103 -0.0751 -0.0140
  112POPC   C4B 1897   8.096   5.672   7.307 -0.1418  0.0870  0.2547
  113POPC   NC3 1898   5.992   6.648  10.448 -0.8113 -0.0900 -0.1395
  113POPC   PO4 1899   5.826   6.181  10.435  0.2415 -0.0232 -0.3369
  113POPC   GL1 1900   5.594   6.315  10.184  0.0955  0.0054 -0.0803
  113POPC   GL2 1901   5.324   6.104  10.084  0.1666  0.1172 -0.1896
  113POPC   C1A 1902   5.573   6.567   9.749  0.2432 -0.1755 -0.0529
  113POPC   D2A 1903   5.633   6.629   9.314 -0.0350 -0.3361 -0.0181
  113POPC   C3A 1904   5.514   6.196   9.252 -0.1884  0.0114 -0.0473
  113POPC   C4A 1905   5.314   5.822   9.299  0.3116 -0.1669  0.1327
  113POPC   C1B 1906   5.531   6.017   9.704 -0.0563  0.0500 -0.2268
  113POPC   C2B 1907   5.859   5.827   9.475 -0.2784 -0.1608  0.1589
  113POPC   C3B 1908   6.097   5.634   9.183 -0.1787  0.0931  0.1294
  113POPC   C4B 1909   6.191   5.237   8.965 -0.1629  0.5936  0.2414
  114POPC   NC3 1910   4.776   4.648  10.400 -0.1280  0.1104 -0.3102
  114POPC   PO4 1911   4.943   4.901  10.134 -0.0516  0.2026 -0.2836
  114POPC   GL1 1912   4.907   5.066   9.733 -0.0381  0.0701  0.3448
  114POPC   GL2 1913   4.509   4.921   9.498 -0.1771  0.2013 -0.0549
  114POPC   C1A 1914   4.801   5.388   9.439 -0.2548 -0.3465  0.1177
  114POPC   D2A 1915   5.064   5.466   9.125 -0.0658  0.0139 -0.0219
  114POPC   C3A 1916   4.819   5.643   8.751  0.0565  0.2345 -0.1410
  114POPC   C4A 1917   5.010   5.868   8.354  0.1761  0.1319  0.1501
  114POPC   C1B 1918   4.846   4.802   9.205  0.0840 -0.2567 -0.2294
  114POPC   C2B 1919   5.010   4.769   8.844  0.2302  0.0804  0.0997
  114POPC   C3B 1920   5.265   4.486   8.630  0.0953 -0.0648  0.0006
  114POPC   C4B 1921   5.755   4.483   8.606 -0.0780  0.0774 -0.2374
  115POPC   NC3 1922   4.614   1.979   9.517 -0.3962  0.2422  0.2724
  115POPC   PO4 1923   4.897   2.402   9.442  0.0690 -0.4147  0.2838
  115POPC   GL1 1924   4.959   2.157   9.075 -0.0378  0.1765  0.1835
  115POPC   GL2 1925   5.007   1.866   9.261  0.1499  0.0553  0.1652
  115POPC   C1A 1926   5.009   2.417   8.633  0.0193 -0.2512 -0.2214
  115POPC   D2A 1927   5.003   2.794   8.306 -0.1120  0.2277  0.2665
  115POPC   C3A 1928   4.972   2.954   7.841  0.3773 -0.0912 -0.0467
  115POPC   C4A 1929   4.910   3.307   7.493 -0.0915 -0.1807 -0.1294
  115POPC   C1B 1930   5.145   1.615   9.031 -0.0895  0.2334 -0.3887
  115POPC   C2B 1931   5.293   1.525   8.536 -0.0994  0.1569 -0.0643
  115POPC   C3B 1932   5.396   1.839   8.224  0.0925  0.0318 -0.3327
  115POPC   C4B 1933   5.685   2.012   8.130  0.0517  0.0041 -0.0930
  116POPC   NC3 1934   7.854   5.811  10.061 -0.1103 -0.1380 -0.3817
  116POPC   PO4 1935   7.506   5.590   9.939  0.2764  0.0011  0.0586
  116POPC   GL1 1936   7.343   5.491   9.571 -0.1297 -0.0163  0.0546
  116POPC   GL2 1937   7.536   5.334   9.351  0.1235 -0.3997 -0.0648
  116POPC   C1A 1938   7.088   5.570   9.112  0.0105 -0.1945  0.2909
  116POPC   D2A 1939   7.049   5.626   8.625 -0.0948 -0.0298  0.0094
  116POPC   C3A 1940   7.159   5.872   8.214 -0.1352 -0.0251  0.0154
  116POPC   C4A 1941   7.141   5.862   7.826 -0.0347  0.3921 -0.3288
  116POPC   C1B 1942   7.473   5.276   8.932 -0.1956 -0.1079  0.3298
  116POPC   C2B 1943   7.314   5.177   8.569 -0.1489 -0.0344 -0.0202
  116POPC   C3B 1944   7.116   5.045   8.173  0.2542 -0.0695 -0.2928
  116POPC   C4B 1945   7.117   5.122   7.727  0.1162 -0.0155 -0.1499
  117POPC   NC3 1946   7.084   6.861  10.090  0.1531  0.1621 -0.1618
  117POPC   PO4 1947   6.686   6.624   9.993  0.0904  0.1959 -0.0364
  117POPC   GL1 1948   6.529   6.550   9.667  0.1331 -0.0182 -0.1593
  117POPC   GL2 1949   6.559   6.813   9.413 -0.8040  0.1921 -0.2001
  117POPC   C1A 1950   6.557   6.228   9.392  0.0446 -0.0365 -0.1476
  117POPC   D2A 1951   6.924   6.069   9.024 -0.2740  0.1089 -0.0948
  117POPC   C3A 1952   7.024   6.282   8.546  0.1111 -0.4864 -0.1460
  117POPC   C4A 1953   6.983   6.372   8.223  0.2804 -0.3076 -0.0402
  117POPC   C1B 1954   6.453   6.943   9.000  0.0682 -0.0992 -0.1777
  117POPC   C2B 1955   6.337   7.040   8.547 -0.2872  0.2665 -0.2391
  117POPC   C3B 1956   5.953   6.968   8.416 -0.0313 -0.2177  0.1277
  117POPC   C4B 1957   5.584   6.862   8.495  0.0500 -0.1002  0.0466
  118POPC   NC3 1958   1.409   9.055   8.992  0.1581  0.0435  0.0594
  118POPC   PO4 1959   1.596   8.925   8.646 -0.0978 -0.0357 -0.4704
  118POPC   GL1 1960   1.720   8.725   8.340  0.0165 -0.2149  0.3036
  118POPC   GL2 1961   1.938   8.499   8.392  0.1586  0.0902  0.0827
  118POPC   C1A 1962   1.871   8.660   7.895  0.0366 -0.3023  0.0743
  118POPC   D2A 1963   1.902   8.608   7.504  0.0614 -0.6042  0.2719
  118POPC   C3A 1964   1.849   9.012   7.247 -0.0569 -0.1326  0.1207
  118POPC   C4A 1965   1.734   9.482   7.270 -0.2326 -0.2712  0.0027
  118POPC   C1B 1966   1.702   8.211   8.096 -0.2259  0.2226  0.1069
  118POPC   C2B 1967   1.698   7.863   7.734 -0.3327 -0.1983 -0.1798
  118POPC   C3B 1968   1.911   7.543   7.431  0.2152 -0.1178  0.2574
  118POPC   C4B 1969   2.140   7.416   7.064  0.0190  0.1298  0.0471
  119POPC   NC3 1970   6.392   9.119   8.936  0.2758 -0.0842  0.1184
  119POPC   PO4 1971   6.089   9.348   9.161 -0.0001 -0.1031  0.0354
  119POPC   GL1 1972   6.181   9.585   8.799  0.4447  0.1660 -0.0445
  119POPC   GL2 1973   6.174   9.374   8.543  0.3006  0.0147 -0.0950
  119POPC   C1A 1974   6.024   9.938   8.656  0.1976  0.4176 -0.3713
  119POPC   D2A 1975   6.077  10.323   8.731 -0.1550 -0.3092  0.0426
  119POPC   C3A 1976   6.147  10.682   8.377 -0.2389  0.1344 -0.1911
  119POPC   C4A 1977   6.060  10.579   7.922 -0.0357  0.1493 -0.2042
  119POPC   C1B 1978   5.978   9.000   8.444  0.0018  0.0476  0.0569
  119POPC   C2B 1979   5.704   8.688   8.452 -0.0169  0.1104 -0.1566
  119POPC   C3B 1980   5.497   8.385   8.531  0.2502  0.1563  0.0682
  119POPC   C4B 1981   5.188   7.918   8.328 -0.2280 -0.0665  0.0183
  120POPC   NC3 1982   1.290   6.226   9.402 -0.0560  0.1742 -0.2442
  120POPC   PO4 1983   1.205   5.782   9.307  0.2490 -0.1110 -0.1184
  120POPC   GL1 1984   1.211   5.686   8.887 -0.2626  0.1670 -0.1436
  120POPC   GL2 1985   0.964   5.556   8.765 -0.0646  0.2046  0.0836
  120POPC   C1A 1986   1.435   5.670   8.532 -0.0277 -0.0153  0.1889
  120POPC   D2A 1987   1.576   5.799   8.112 -0.0671  0.0229 -0.0874
  120POPC   C3A 1988   1.386   5.728   7.710 -0.2022 -0.1871 -0.0670
  120POPC   C4A 1989   1.167   5.507   7.300 -0.3371  0.5783 -0.0034
  120POPC   C1B 1990   1.004   5.786   8.336 -0.1926 -0.0149 -0.0214
  120POPC   C2B 1991   0.907   5.804   7.897 -0.3021 -0.0574  0.4964
  120POPC   C3B 1992   0.675   5.915   7.484  0.0206  0.1509 -0.2448
  120POPC   C4B 1993   0.399   6.173   7.237  0.0717 -0.2361  0.2217
  121POPC   NC3 1994   8.597   4.317   9.489 -0.0412  0.0618 -0.1123
  121POPC   PO4 1995   8.744   4.688   9.187 -0.1055 -0.1118  0.0606
  121POPC   GL1 1996   8.466   4.455   8.959 -0.2878  0.3964 -0.0051
  121POPC   GL2 1997   8.339   4.188   9.063  0.2099 -0.2083 -0.0761
  121POPC   C1A 1998   8.404   4.430   8.520 -0.0643 -0.0342 -0.0821
  121POPC   D2A 1999   8.593   4.495   8.088  0.3737  0.0485  0.1757
  121POPC   C3A 2000   8.270   4.359   7.833 -0.1200 -0.0221 -0.1445
  121POPC   C4A 2001   8.229   4.214   7.395  0.0494  0.0271  0.0053
  121POPC   C1B 2002   8.431   4.004   8.692 -0.2565  0.0609  0.0183
  121POPC   C2B 2003   8.462   4.008   8.260  0.2191  0.0162 -0.0033
  121POPC   C3B 2004   8.423   3.892   7.909 -0.0841 -0.1301 -0.2074
  121POPC   C4B 2005   8.389   3.707   7.462  0.2851 -0.0704 -0.0545
  122POPC   NC3 2006   5.442   1.126   9.961 -0.0206  0.1660 -0.0633
  122POPC   PO4 2007   5.444   1.166   9.542  0.3062  0.1147 -0.2264
  122POPC   GL1 2008   5.746   1.052   9.214  0.2762  0.0769  0.0063
  122POPC   GL2 2009   5.741   0.842   8.973  0.2147 -0.1221 -0.0955
  122POPC   C1A 2010   6.076   1.189   8.909  0.3774  0.2427  0.1475
  122POPC   D2A 2011   6.416   1.322   8.674 -0.0318 -0.3259  0.2590
  122POPC   C3A 2012   6.404   1.471   8.239  0.3558 -0.0224  0.1218
  122POPC   C4A 2013   6.441   1.380   7.793  0.0141 -0.2520  0.0295
  122POPC   C1B 2014   5.745   0.560   8.629 -0.2887 -0.1071  0.1911
  122POPC   C2B 2015   5.794   0.147   8.332 -0.2546 -0.0608 -0.0312
  122POPC   C3B 2016   6.211   0.025   8.214  0.2807 -0.1986  0.3672
  122POPC   C4B 2017   6.435  -0.377   8.366  0.1943  0.1916  0.0883
  123POPC   NC3 2018   2.511   8.469   9.556  0.1104 -0.1406  0.2073
  123POPC   PO4 2019   2.341   8.757   9.253  0.2301 -0.3443  0.1776
  123POPC   GL1 2020   2.596   8.508   8.968  0.2462 -0.1951  0.0012
  123POPC   GL2 2021   2.641   8.121   9.162 -0.0397  0.0659  0.2391
  123POPC   C1A 2022   2.778   8.383   8.546  0.1364 -0.1255  0.1636
  123POPC   D2A 2023   2.801   8.314   8.135 -0.0803  0.2401 -0.0330
  123POPC   C3A 2024   2.660   8.266   7.797  0.0281 -0.1328 -0.2712
  123POPC   C4A 2025   2.830   7.948   7.590  0.0167  0.2727 -0.0482
  123POPC   C1B 2026   2.978   8.057   8.877 -0.2499  0.2006  0.1776
  123POPC   C2B 2027   3.012   7.852   8.410 -0.1777 -0.0887  0.0386
  123POPC   C3B 2028   3.211   8.004   8.011  0.1128 -0.2943 -0.1089
  123POPC   C4B 2029   3.175   8.420   7.615  0.2590  0.1955 -0.0573
  124POPC   NC3 2030   5.701   8.418   9.912 -0.1269 -0.2043 -0.2038
  124POPC   PO4 2031   6.062   8.559   9.651  0.0529 -0.2839  0.0550
  124POPC   GL1 2032   6.069   8.330   9.189 -0.2430  0.0447 -0.1437
  124POPC   GL2 2033   5.927   8.467   8.919 -0.0849 -0.1984 -0.1857
  124POPC   C1A 2034   6.062   7.967   8.910  0.2342 -0.0745 -0.0539
  124POPC   D2A 2035   6.096   7.668   8.492  0.0457 -0.3264 -0.0799
  124POPC   C3A 2036   5.961   7.401   8.155 -0.2078 -0.0742  0.1821
  124POPC   C4A 2037   5.807   6.972   7.845 -0.1054 -0.2686  0.1022
  124POPC   C1B 2038   5.921   8.225   8.495  0.0142 -0.0795 -0.0641
  124POPC   C2B 2039   5.726   8.322   8.067 -0.2284 -0.0233  0.3383
  124POPC   C3B 2040   5.539   8.516   7.788 -0.0775  0.0374  0.2465
  124POPC   C4B 2041   5.251   8.790   7.578  0.0591  0.0136  0.3283
  125POPC   NC3 2042   9.580   7.291   9.285  0.0660  0.1597  0.1082
  125POPC   PO4 2043   9.444   6.928   9.057  0.4107 -0.0725 -0.0023
  125POPC   GL1 2044   9.168   7.169   8.750 -0.0914 -0.1063 -0.1753
  125POPC   GL2 2045   8.847   7.129   8.640  0.2372 -0.0743  0.0339
  125POPC   C1A 2046   9.060   6.734   8.498  0.0901 -0.1405  0.0303
  125POPC   D2A 2047   9.230   6.642   8.187  0.0120 -0.5311  0.1207
  125POPC   C3A 2048   9.421   7.006   7.885 -0.0618  0.0377 -0.0748
  125POPC   C4A 2049   9.660   7.147   7.474 -0.3681 -0.1544 -0.1703
  125POPC   C1B 2050   8.965   7.134   8.130 -0.0154 -0.0358 -0.0249
  125POPC   C2B 2051   9.287   7.463   7.922 -0.1174  0.1233  0.2152
  125POPC   C3B 2052   9.411   7.585   7.571  0.0480 -0.0824  0.0096
  125POPC   C4B 2053   9.506   7.621   7.118  0.2206  0.2265  0.0827
  126POPC   NC3 2054   6.468   3.206   9.519 -0.2776  0.0391 -0.2118
  126POPC   PO4 2055   6.849   3.088   9.268  0.1778 -0.2144 -0.0876
  126POPC   GL1 2056   6.941   3.270   8.912 -0.1624 -0.0253 -0.2636
  126POPC   GL2 2057   6.857   3.028   8.772 -0.0184  0.1424 -0.4385
  126POPC   C1A 2058   6.840   3.451   8.544  0.0094  0.0362  0.1247
  126POPC   D2A 2059   7.059   3.655   8.076  0.1104  0.0941  0.1319
  126POPC   C3A 2060   7.332   4.077   8.044  0.3376  0.2955 -0.0878
  126POPC   C4A 2061   7.108   4.156   7.712  0.0736 -0.2232 -0.1162
  126POPC   C1B 2062   6.923   2.816   8.421 -0.1501  0.3973 -0.0126
  126POPC   C2B 2063   7.127   2.688   8.124 -0.5804 -0.0434  0.0888
  126POPC   C3B 2064   7.534   2.873   8.052  0.1310  0.3377  0.1702
  126POPC   C4B 2065   7.931   2.858   7.825 -0.0714 -0.0753 -0.2948
  127POPC   NC3 2066   5.734   9.451   9.467  0.0333 -0.1560 -0.4377
  127POPC   PO4 2067   5.817   9.835   9.312  0.1185 -0.1198 -0.0091
  127POPC   GL1 2068   5.569   9.840   8.961 -0.0173 -0.2066  0.0770
  127POPC   GL2 2069   5.454  10.211   9.102 -0.1201 -0.1059 -0.2188
  127POPC   C1A 2070   5.571   9.880   8.497  0.2556  0.0779  0.1519
  127POPC   D2A 2071   5.893   9.828   8.193  0.0695  0.2715  0.3397
  127POPC   C3A 2072   6.233   9.724   7.909  0.0535  0.2209  0.1809
  127POPC   C4A 2073   6.623   9.837   7.660  0.2002  0.1756 -0.2254
  127POPC   C1B 2074   5.520  10.320   8.779 -0.4831  0.0299  0.2130
  127POPC   C2B 2075   5.297  10.470   8.450  0.0036 -0.0513 -0.0772
  127POPC   C3B 2076   5.446  10.577   8.034 -0.0467 -0.2335  0.0686
  127POPC   C4B 2077   5.691  10.232   7.867 -0.1289  0.1784 -0.1976
  128POPC   NC3 2078   2.057   3.296   9.573  0.1728 -0.1970  0.1299
  128POPC   PO4 2079   2.256   3.660   9.522  0.0053  0.0688  0.0278
  128POPC   GL1 2080   2.126   3.500   9.071 -0.0258 -0.0547  0.1440
  128POPC   GL2 2081   2.410   3.363   9.027 -0.0707 -0.0880  0.2218
  128POPC   C1A 2082   2.080   3.463   8.615 -0.1019 -0.1919 -0.0790
  128POPC   D2A 2083   2.176   3.368   8.197  0.0140 -0.0894  0.0439
  128POPC   C3A 2084   2.355   3.649   7.871 -0.0359 -0.1632  0.1084
  128POPC   C4A 2085   2.569   3.996   7.576  0.2128  0.0400  0.1168
  128POPC   C1B 2086   2.544   3.546   8.592 -0.1634  0.0145 -0.1236
  128POPC   C2B 2087   2.709   3.862   8.169 -0.0452 -0.4429 -0.0018
  128POPC   C3B 2088   3.015   3.916   7.852 -0.2182  0.1150 -0.2232
  128POPC   C4B 2089   3.339   3.789   7.600 -0.0918 -0.0635  0.3011
  129POPC   NC3 2090   0.979   7.915   9.611 -0.2840 -0.0011 -0.0304
  129POPC   PO4 2091   0.889   7.532   9.458 -0.0445  0.2709 -0.1493
  129POPC   GL1 2092   0.993   7.424   9.021  0.1229 -0.3198  0.1029
  129POPC   GL2 2093   1.127   7.135   8.893  0.1494  0.1690 -0.3331
  129POPC   C1A 2094   0.694   7.367   8.813  0.0804 -0.3192  0.0162
  129POPC   D2A 2095   0.567   7.006   8.515 -0.0294  0.0299  0.0914
  129POPC   C3A 2096   0.097   6.950   8.495  0.0853  0.0711 -0.1331
  129POPC   C4A 2097  -0.368   6.786   8.602  0.1848 -0.2090  0.3310
  129POPC   C1B 2098   1.046   7.090   8.457 -0.1981  0.0701 -0.0399
  129POPC   C2B 2099   1.126   6.970   7.976  0.0129  0.0639 -0.0091
  129POPC   C3B 2100   1.219   6.908   7.561 -0.1630 -0.1861  0.0244
  129POPC   C4B 2101   1.432   6.617   7.308  0.3245  0.0714  0.0425
  130POPC   NC3 2102   9.483   2.515   8.831  0.0223 -0.1618 -0.4646
  130POPC   PO4 2103   9.589   2.967   8.953  0.0638 -0.0501 -0.0299
  130POPC   GL1 2104   9.571   2.887   8.457  0.2586  0.0182 -0.2957
  130POPC   GL2 2105   9.675   2.565   8.352 -0.2692  0.0475  0.0102
  130POPC   C1A 2106   9.537   3.051   8.036  0.2398 -0.3091  0.1134
  130POPC   D2A 2107   9.656   3.342   7.593  0.1605 -0.1124 -0.0171
  130POPC   C3A 2108   9.816   3.051   7.241  0.0956 -0.0107 -0.0546
  130POPC   C4A 2109   9.908   2.891   6.815  0.2077  0.1061  0.3753
  130POPC   C1B 2110   9.691   2.440   8.063  0.3290  0.2334 -0.1994
  130POPC   C2B 2111   9.564   2.673   7.679  0.0011 -0.2432  0.0652
  130POPC   C3B 2112   9.305   3.015   7.576 -0.1626 -0.0873 -0.0207
  130POPC   C4B 2113   9.043   3.240   7.809 -0.0506 -0.0220 -0.1773
  131POPC   NC3 2114   0.649   4.396   9.278  0.0476 -0.0460  0.1141
  131POPC   PO4 2115   0.336   4.668   9.469  0.0668 -0.2467  0.0671
  131POPC   GL1 2116   0.383   4.726   9.022 -0.1820 -0.1915  0.2012
  131POPC   GL2 2117   0.649   4.668   8.835  0.3849 -0.0466 -0.1395
  131POPC   C1A 2118   0.029   4.782   8.720  0.0628 -0.0904  0.0799
  131POPC   D2A 2119  -0.432   4.865   8.514  0.1161 -0.0643  0.3289
  131POPC   C3A 2120  -0.448   4.867   8.012  0.4520  0.0390  0.1552
  131POPC   C4A 2121  -0.722   5.040   7.842 -0.1745 -0.0635  0.1652
  131POPC   C1B 2122   0.455   4.785   8.451  0.2065  0.1887  0.2159
  131POPC   C2B 2123   0.339   4.649   8.047 -0.1351 -0.1265  0.1290
  131POPC   C3B 2124   0.297   4.486   7.596  0.0823 -0.1918 -0.0209
  131POPC   C4B 2125  -0.082   4.591   7.302  0.2686  0.4285 -0.3201
  132POPC   NC3 2126   8.855   6.765   9.550  0.0432 -0.1366 -0.0626
  132POPC   PO4 2127   8.528   6.926   9.356 -0.0273 -0.1159 -0.0185
  132POPC   GL1 2128   8.447   7.081   8.927  0.1535 -0.2789 -0.1913
  132POPC   GL2 2129   8.081   6.971   8.695  0.0727  0.0305 -0.1685
  132POPC   C1A 2130   8.371   7.239   8.462 -0.0190  0.1831 -0.2038
  132POPC   D2A 2131   8.456   7.118   8.012 -0.2130  0.2862  0.1679
  132POPC   C3A 2132   8.283   6.885   7.702 -0.0292  0.0262 -0.1986
  132POPC   C4A 2133   8.554   6.623   7.506 -0.2858 -0.1287 -0.2156
  132POPC   C1B 2134   8.176   6.721   8.260 -0.0029  0.3526 -0.0386
  132POPC   C2B 2135   7.963   6.541   7.991  0.4283 -0.1207 -0.3056
  132POPC   C3B 2136   7.729   6.335   7.736 -0.2458  0.2324  0.1260
  132POPC   C4B 2137   7.541   6.286   7.282  0.0296  0.3965 -0.1074
  133POPC   NC3 2138   0.361   1.080   8.347 -0.1562 -0.2695  0.0583
  133POPC   PO4 2139   0.148   1.359   8.483 -0.3476  0.1209 -0.1252
  133POPC   GL1 2140   0.394   1.541   8.047  0.1617 -0.1693 -0.0913
  133POPC   GL2 2141   0.606   1.812   8.036  0.1851  0.0272 -0.0278
  133POPC   C1A 2142   0.552   1.380   7.652  0.0752 -0.1495  0.1537
  133POPC   D2A 2143   0.960   1.418   7.570  0.3518  0.2594  0.0210
  133POPC   C3A 2144   1.271   1.169   7.537 -0.0470 -0.3132 -0.0148
  133POPC   C4A 2145   1.497   1.065   7.877 -0.0424  0.2865 -0.1695
  133POPC   C1B 2146   0.570   1.888   7.579  0.0868 -0.1588 -0.0697
  133POPC   C2B 2147   0.630   2.261   7.329  0.0566 -0.1018 -0.0669
  133POPC   C3B 2148   0.573   2.741   7.300  0.1063  0.2559  0.0279
  133POPC   C4B 2149   0.240   3.027   7.263 -0.0628 -0.1207  0.1739
  134POPC   NC3 2150   6.077   0.473   9.575 -0.3644  0.3430  0.0911
  134POPC   PO4 2151   5.598   0.644   9.487 -0.1951 -0.0197  0.2644
  134POPC   GL1 2152   5.318   0.523   9.109 -0.1092  0.1491  0.0795
  134POPC   GL2 2153   5.132   0.840   9.206  0.0436  0.2874  0.1576
  134POPC   C1A 2154   4.926   0.334   8.875 -0.2691 -0.0923  0.0801
  134POPC   D2A 2155   4.811   0.192   8.432  0.0493  0.3102  0.1369
  134POPC   C3A 2156   4.489   0.388   8.233  0.2292  0.0111 -0.2057
  134POPC   C4A 2157   4.367   0.632   7.959 -0.0419  0.1451  0.4223
  134POPC   C1B 2158   5.216   0.805   8.729  0.0377 -0.0771  0.0272
  134POPC   C2B 2159   5.330   0.881   8.304  0.0951  0.0725 -0.0062
  134POPC   C3B 2160   5.453   1.305   8.074  0.0680  0.0515  0.2562
  134POPC   C4B 2161   5.378   1.630   7.802  0.0353 -0.2366 -0.0275
  135POPC   NC3 2162   9.109   5.041   9.376 -0.0467 -0.2711  0.0953
  135POPC   PO4 2163   9.237   5.557   9.181 -0.0303  0.0404  0.0455
  135POPC   GL1 2164   9.231   5.521   8.747  0.2822 -0.0859  0.3134
  135POPC   GL2 2165   9.429   5.756   8.567  0.2293 -0.1197 -0.2682
  135POPC   C1A 2166   9.058   5.465   8.387 -0.1655 -0.1478  0.3008
  135POPC   D2A 2167   9.033   5.243   8.049 -0.1658 -0.0505  0.1571
  135POPC   C3A 2168   8.755   5.399   7.768 -0.1755  0.1779  0.0589
  135POPC   C4A 2169   8.564   5.248   7.430  0.1542  0.0007 -0.0796
  135POPC   C1B 2170   9.486   5.809   8.147 -0.1302 -0.2219  0.1026
  135POPC   C2B 2171   9.493   5.538   7.839  0.1556 -0.3853 -0.1297
  135POPC   C3B 2172   9.222   5.440   7.531  0.1940 -0.0070 -0.0347
  135POPC   C4B 2173   8.933   5.769   7.329  0.1423 -0.0549  0.1473
  136POPC   NC3 2174   4.853   7.449  10.218  0.0243  0.0553 -0.0646
  136POPC   PO4 2175   4.848   7.941  10.020 -0.1088 -0.0115 -0.1037
  136POPC   GL1 2176   4.743   7.666   9.675 -0.1486 -0.0349  0.1851
  136POPC   GL2 2177   4.656   7.811   9.459 -0.0752 -0.0105  0.0722
  136POPC   C1A 2178   4.958   7.403   9.380 -0.0546 -0.1383 -0.0246
  136POPC   D2A 2179   5.247   7.402   9.083 -0.2747 -0.1680  0.1738
  136POPC   C3A 2180   5.527   6.981   8.953 -0.0465  0.0656  0.0004
  136POPC   C4A 2181   5.924   6.731   8.939  0.1274 -0.1337  0.0497
  136POPC   C1B 2182   4.752   7.621   8.925  0.2272 -0.2604  0.1869
  136POPC   C2B 2183   4.901   7.380   8.630  0.3933 -0.0156  0.1821
  136POPC   C3B 2184   5.178   7.352   8.433 -0.0667  0.2801 -0.1094
  136POPC   C4B 2185   5.467   7.169   8.121 -0.0281  0.0801  0.0588
  137POPC   NC3 2186   1.340   8.503   8.767 -0.5189 -0.3057 -0.0402
  137POPC   PO4 2187   1.040   8.846   8.650  0.2078  0.5380  0.0960
  137POPC   GL1 2188   1.225   8.528   8.326 -0.2168 -0.1844  0.1115
  137POPC   GL2 2189   1.258   8.148   8.395  0.2018 -0.0236 -0.1132
  137POPC   C1A 2190   1.343   8.639   7.890 -0.0015 -0.1942 -0.1270
  137POPC   D2A 2191   1.393   8.790   7.504 -0.2451  0.0386 -0.0311
  137POPC   C3A 2192   1.329   9.156   7.613 -0.2445  0.1797  0.0383
  137POPC   C4A 2193   1.059   9.380   7.787 -0.3510  0.1271  0.1697
  137POPC   C1B 2194   1.151   8.079   7.953 -0.1154  0.1898 -0.1945
  137POPC   C2B 2195   1.181   8.141   7.562 -0.0938 -0.1351  0.1043
  137POPC   C3B 2196   0.848   8.433   7.205 -0.0936  0.2237 -0.2898
  137POPC   C4B 2197   0.666   8.684   6.833 -0.5266  0.0835  0.1867
  138POPC   NC3 2198   8.745   0.000   9.158 -0.1235  0.0835 -0.0673
  138POPC   PO4 2199   9.191  -0.058   9.044 -0.1905 -0.1523  0.3618
  138POPC   GL1 2200   9.234  -0.213   8.688  0.0481 -0.2520  0.2441
  138POPC   GL2 2201   9.285  -0.581   8.631 -0.0799  0.0086 -0.0543
  138POPC   C1A 2202   9.066  -0.138   8.296 -0.2613  0.2147 -0.1330
  138POPC   D2A 2203   9.055   0.289   8.098 -0.0284  0.1153 -0.0581
  138POPC   C3A 2204   8.856   0.200   7.724  0.3537  0.1072 -0.0668
  138POPC   C4A 2205   8.929   0.428   7.331 -0.1136 -0.0056  0.2325
  138POPC   C1B 2206   9.489  -0.508   8.220  0.3027 -0.1225 -0.0626
  138POPC   C2B 2207   9.742  -0.572   7.840 -0.3018  0.2449 -0.1304
  138POPC   C3B 2208   9.579  -0.709   7.441  0.1907 -0.0754 -0.0346
  138POPC   C4B 2209   9.565  -0.901   7.083 -0.1571  0.1658  0.0642
  139POPC   NC3 2210   9.953   0.204   9.119 -0.2499  0.0350 -0.2603
  139POPC   PO4 2211   9.707  -0.036   8.779  0.0238 -0.3977  0.3057
  139POPC   GL1 2212   9.659  -0.040   8.284  0.0699  0.0115  0.0091
  139POPC   GL2 2213   9.811   0.201   8.188  0.0732  0.2937  0.0627
  139POPC   C1A 2214   9.431  -0.059   7.932 -0.1988  0.2372  0.0040
  139POPC   D2A 2215   9.196  -0.241   7.612 -0.2933 -0.1099 -0.0003
  139POPC   C3A 2216   8.857  -0.173   7.392  0.0643 -0.0062  0.1441
  139POPC   C4A 2217   8.400  -0.142   7.555  0.0299  0.0792  0.0288
  139POPC   C1B 2218   9.881   0.454   7.841 -0.4094  0.3855 -0.0797
  139POPC   C2B 2219   9.801   0.698   7.443  0.1148 -0.2544  0.0436
  139POPC   C3B 2220  10.056   0.737   7.153 -0.0503  0.0122  0.0507
  139POPC   C4B 2221   9.965   0.585   6.718 -0.3636 -0.0675 -0.1237
  140POPC   NC3 2222   3.576   3.398   9.833  0.0224 -0.2138  0.1301
  140POPC   PO4 2223   3.606   2.879   9.662 -0.3654 -0.3253  0.5234
  140POPC   GL1 2224   3.734   2.626   9.285 -0.2481  0.0097 -0.0382
  140POPC   GL2 2225   3.454   2.452   9.152 -0.0195  0.2150  0.1485
  140POPC   C1A 2226   3.924   2.509   8.921  0.3413  0.3700  0.0988
  140POPC   D2A 2227   4.206   2.401   8.723 -0.4240  0.3213  0.0805
  140POPC   C3A 2228   4.251   1.945   8.502  0.0737  0.2330  0.2322
  140POPC   C4A 2229   4.165   1.430   8.406  0.0348 -0.1044  0.0961
  140POPC   C1B 2230   3.313   2.790   8.954 -0.0090 -0.2201 -0.0283
  140POPC   C2B 2231   3.034   2.846   8.587  0.2411 -0.2212 -0.1598
  140POPC   C3B 2232   3.129   2.904   8.086 -0.1641 -0.0163 -0.0635
  140POPC   C4B 2233   3.272   2.696   7.715  0.0302  0.0848 -0.1970
  141POPC   NC3 2234   2.102   5.576   9.670  0.1196  0.2245  0.0249
  141POPC   PO4 2235   2.178   5.056   9.531  0.4756 -0.4080 -0.1655
  141POPC   GL1 2236   2.344   5.074   9.070 -0.2165 -0.2688 -0.0416
  141POPC   GL2 2237   2.050   5.140   8.864 -0.2817  0.0860 -0.0739
  141POPC   C1A 2238   2.477   4.790   8.786 -0.0577 -0.1487  0.0675
  141POPC   D2A 2239   2.646   4.507   8.510  0.0634  0.1667  0.0527
  141POPC   C3A 2240   2.505   4.099   8.619  0.0279  0.0428 -0.0191
  141POPC   C4A 2241   2.367   3.927   8.985 -0.2551 -0.2787  0.0080
  141POPC   C1B 2242   1.982   4.832   8.588  0.3167 -0.5014  0.1225
  141POPC   C2B 2243   1.936   4.836   8.117  0.2250  0.0689 -0.1720
  141POPC   C3B 2244   1.755   4.757   7.743  0.0490  0.2698 -0.0221
  141POPC   C4B 2245   1.636   4.612   7.340 -0.1876  0.0989 -0.0411
  142POPC   NC3 2246   4.199   1.924   9.297 -0.1639 -0.1885 -0.3647
  142POPC   PO4 2247   3.659   2.020   9.321 -0.1315 -0.1054 -0.0126
  142POPC   GL1 2248   3.463   2.053   8.827 -0.0752 -0.0012  0.1594
  142POPC   GL2 2249   3.218   2.270   8.657  0.1355 -0.0218  0.2070
  142POPC   C1A 2250   3.359   1.846   8.349 -0.1001 -0.0113  0.1141
  142POPC   D2A 2251   3.387   1.895   7.949 -0.0267 -0.1613  0.0622
  142POPC   C3A 2252   3.727   1.829   7.735 -0.2580 -0.0490 -0.1345
  142POPC   C4A 2253   3.981   1.463   7.507  0.2968  0.1906 -0.0510
  142POPC   C1B 2254   3.213   2.469   8.317  0.0503  0.1016  0.0811
  142POPC   C2B 2255   3.674   2.453   8.049  0.0006  0.0536 -0.3339
  142POPC   C3B 2256   4.080   2.173   7.954  0.1156 -0.0916  0.0537
  142POPC   C4B 2257   4.422   2.227   7.650  0.0298 -0.1856  0.0024
  143POPC   NC3 2258   2.806   5.418   9.860 -0.1131  0.0581  0.1931
  143POPC   PO4 2259   2.796   5.036   9.728  0.1777  0.3239 -0.0858
  143POPC   GL1 2260   3.061   5.079   9.345 -0.0731 -0.3770  0.0093
  143POPC   GL2 2261   3.359   4.975   9.582  0.1127  0.2820 -0.0834
  143POPC   C1A 2262   3.109   5.081   8.871  0.2941 -0.2703 -0.1278
  143POPC   D2A 2263   2.950   4.897   8.532 -0.1938  0.3277 -0.0047
  143POPC   C3A 2264   3.200   4.669   8.317 -0.0398  0.1501  0.3048
  143POPC   C4A 2265   2.918   4.392   8.073  0.1317 -0.1283 -0.0719
  143POPC   C1B 2266   3.688   5.149   9.249 -0.0403  0.3086  0.0278
  143POPC   C2B 2267   3.617   5.320   8.893  0.0125  0.0581 -0.0809
  143POPC   C3B 2268   3.683   5.602   8.491 -0.1701  0.0300  0.1415
  143POPC   C4B 2269   3.538   5.494   8.025 -0.1548 -0.0049  0.1932
  144POPC   NC3 2270   8.004   9.734   9.494  0.1890  0.2615  0.2397
  144POPC   PO4 2271   7.799  10.069   9.453  0.0840  0.2916 -0.0460
  144POPC   GL1 2272   7.852  10.089   9.060 -0.2318  0.2429 -0.0435
  144POPC   GL2 2273   7.544  10.149   8.869 -0.1019  0.3438  0.1262
  144POPC   C1A 2274   7.894   9.823   8.717  0.0248 -0.2468 -0.1955
  144POPC   D2A 2275   7.888   9.830   8.293 -0.1650 -0.0933 -0.1228
  144POPC   C3A 2276   8.164   9.988   8.083 -0.2575 -0.3269  0.0928
  144POPC   C4A 2277   8.603  10.058   8.012  0.2108  0.4536 -0.1160
  144POPC   C1B 2278   7.561  10.187   8.465 -0.1923  0.1254 -0.1040
  144POPC   C2B 2279   7.608  10.134   8.031 -0.1634 -0.0264  0.2365
  144POPC   C3B 2280   7.795   9.822   7.782  0.0100  0.1773 -0.2568
  144POPC   C4B 2281   7.535   9.596   7.426  0.2820  0.1562 -0.2321
  145POPC   NC3 2282   3.105   6.895  10.678  0.2046  0.2750  0.0551
  145POPC   PO4 2283   3.152   6.919  10.266  0.2195  0.0410 -0.0414
  145POPC   GL1 2284   3.022   6.804   9.772  0.0340 -0.0625 -0.1728
  145POPC   GL2 2285   3.020   7.138   9.493 -0.2339 -0.2118 -0.0267
  145POPC   C1A 2286   2.820   6.781   9.296 -0.1765 -0.0009 -0.0730
  145POPC   D2A 2287   2.562   7.182   9.104  0.0492 -0.0482 -0.0579
  145POPC   C3A 2288   2.389   7.135   8.708 -0.0300  0.1268  0.0935
  145POPC   C4A 2289   2.458   7.291   8.363 -0.1722 -0.1233 -0.2761
  145POPC   C1B 2290   3.182   7.139   9.061  0.0366  0.0523  0.0417
  145POPC   C2B 2291   3.445   7.162   8.754 -0.0917 -0.0832  0.0715
  145POPC   C3B 2292   3.526   7.217   8.318  0.0870  0.0351 -0.0450
  145POPC   C4B 2293   3.207   7.489   8.154  0.0904  0.0020  0.0807
  146POPC   NC3 2294   1.237   2.912   9.148 -0.0175  0.0191 -0.0436
  146POPC   PO4 2295   0.974   2.822   8.788  0.0455  0.0894 -0.0440
  146POPC   GL1 2296   1.304   2.856   8.514 -0.0952  0.1139  0.0760
  146POPC   GL2 2297   1.099   2.724   8.220  0.0325  0.0575  0.0560
  146POPC   C1A 2298   1.605   2.730   8.193 -0.3010  0.1898 -0.4055
  146POPC   D2A 2299   1.816   2.506   7.885 -0.0039  0.3914 -0.1064
  146POPC   C3A 2300   1.825   2.839   7.638 -0.0058 -0.2845  0.1907
  146POPC   C4A 2301   1.989   2.975   7.256  0.0593 -0.2419  0.0846
  146POPC   C1B 2302   0.699   2.890   8.129  0.2385  0.3447  0.3647
  146POPC   C2B 2303   0.332   2.767   7.865 -0.0825 -0.4342 -0.3675
  146POPC   C3B 2304   0.128   2.544   7.495  0.0480  0.0788 -0.0487
  146POPC   C4B 2305  -0.248   2.355   7.542  0.1674  0.3884  0.0098
  147POPC   NC3 2306   0.079   8.320   9.172 -0.2729  0.0111  0.0912
  147POPC   PO4 2307   0.486   8.219   8.962  0.2540  0.5328 -0.1195
  147POPC   GL1 2308   0.497   7.964   8.586 -0.0993  0.1495 -0.0998
  147POPC   GL2 2309   0.733   7.970   8.377  0.0152  0.0939  0.2632
  147POPC   C1A 2310   0.466   7.509   8.383  0.0356 -0.1416 -0.1698
  147POPC   D2A 2311   0.781   7.332   8.130 -0.0890 -0.1129  0.1648
  147POPC   C3A 2312   0.720   7.160   7.674 -0.0388 -0.0696  0.1398
  147POPC   C4A 2313   0.356   7.264   7.470  0.0271 -0.2879  0.1006
  147POPC   C1B 2314   0.312   8.010   8.140 -0.2336 -0.0821  0.1218
  147POPC   C2B 2315   0.097   8.146   7.792 -0.1795  0.0099 -0.1094
  147POPC   C3B 2316   0.149   8.332   7.452 -0.0207  0.1215 -0.1057
  147POPC   C4B 2317  -0.042   8.389   7.051 -0.1092  0.2120  0.1720
  148POPC   NC3 2318   2.021   6.820   9.578 -0.0085  0.0313 -0.2192
  148POPC   PO4 2319   1.722   6.410   9.556 -0.2169 -0.1680  0.1678
  148POPC   GL1 2320   1.562   6.661   9.229  0.1313 -0.0354 -0.0241
  148POPC   GL2 2321   1.724   6.916   9.208 -0.0874 -0.2373  0.0313
  148POPC   C1A 2322   1.711   6.553   8.755  0.0905 -0.1219  0.2205
  148POPC   D2A 2323   1.758   6.403   8.431 -0.0026  0.0843  0.0720
  148POPC   C3A 2324   1.724   6.269   7.965  0.1567  0.0379  0.1391
  148POPC   C4A 2325   1.681   6.253   7.649  0.2393  0.1871  0.1149
  148POPC   C1B 2326   1.981   6.957   8.820 -0.0353 -0.0523 -0.0828
  148POPC   C2B 2327   2.227   6.703   8.856  0.2372  0.3156  0.1000
  148POPC   C3B 2328   2.759   6.754   8.788  0.3009 -0.0220 -0.2496
  148POPC   C4B 2329   3.245   6.720   8.760  0.1594  0.1684  0.2387
  149POPC   NC3 2330   0.781   6.226   9.800  0.0650 -0.0248  0.0493
  149POPC   PO4 2331   0.715   6.009   9.459 -0.2387  0.0675 -0.1108
  149POPC   GL1 2332   0.762   6.115   9.072 -0.0009  0.0684 -0.2179
  149POPC   GL2 2333   1.018   6.124   8.948  0.0807 -0.0499 -0.2903
  149POPC   C1A 2334   0.733   6.174   8.595  0.0365  0.0603 -0.0279
  149POPC   D2A 2335   0.658   6.124   8.156  0.2826  0.4698 -0.2963
  149POPC   C3A 2336   0.363   6.297   7.820 -0.1193 -0.0875  0.4591
  149POPC   C4A 2337   0.378   6.680   7.547 -0.1214  0.2306 -0.0345
  149POPC   C1B 2338   1.308   6.147   8.576 -0.0438 -0.1285 -0.0047
  149POPC   C2B 2339   1.232   6.188   8.165  0.0284 -0.0951 -0.1084
  149POPC   C3B 2340   1.197   6.365   7.790 -0.0598  0.0581  0.0007
  149POPC   C4B 2341   1.174   6.047   7.463  0.2756  0.2808 -0.1068
  150POPC   NC3 2342   2.545   4.738   9.417  0.1187  0.0513  0.0852
  150POPC   PO4 2343   2.061   4.603   9.511 -0.0875  0.1230  0.1153
  150POPC   GL1 2344   1.854   4.659   9.106  0.2256  0.2168  0.2470
  150POPC   GL2 2345   1.483   4.762   8.952 -0.1925  0.0878 -0.0513
  150POPC   C1A 2346   1.704   4.373   8.726 -0.4511  0.2744 -0.1824
  150POPC   D2A 2347   1.642   4.379   8.348  0.0786  0.0236  0.0417
  150POPC   C3A 2348   1.580   3.999   8.200 -0.4422  0.0584 -0.1192
  150POPC   C4A 2349   1.714   3.720   8.223 -0.1923 -0.1256  0.1072
  150POPC   C1B 2350   1.474   4.834   8.562 -0.1200 -0.1819 -0.0748
  150POPC   C2B 2351   1.399   4.815   8.129 -0.0275  0.1285  0.3554
  150POPC   C3B 2352   1.260   4.868   7.704 -0.3366 -0.0137  0.0550
  150POPC   C4B 2353   0.941   4.958   7.502 -0.0879 -0.0096  0.0648
  151POPC   NC3 2354   5.980   3.897   9.916  0.2129 -0.0098  0.0618
  151POPC   PO4 2355   6.192   3.572   9.758  0.1031  0.2963 -0.3153
  151POPC   GL1 2356   6.272   3.796   9.421  0.3991  0.3995 -0.0959
  151POPC   GL2 2357   6.211   4.162   9.546  0.1612  0.2655 -0.0894
  151POPC   C1A 2358   6.440   3.938   9.122  0.3683 -0.0766 -0.0437
  151POPC   D2A 2359   6.682   4.318   8.972  0.1173 -0.0246 -0.0112
  151POPC   C3A 2360   7.121   4.318   8.903 -0.1175 -0.2686  0.0614
  151POPC   C4A 2361   7.508   4.269   8.614  0.0647  0.0222  0.2339
  151POPC   C1B 2362   6.325   4.500   9.257  0.2648 -0.1083 -0.0159
  151POPC   C2B 2363   6.291   4.678   8.889  0.1346  0.2013 -0.0680
  151POPC   C3B 2364   6.247   4.955   8.527  0.2299 -0.0442 -0.2145
  151POPC   C4B 2365   6.356   5.236   8.185 -0.0145  0.1734  0.5008
  152POPC   NC3 2366   0.811   0.179   9.139 -0.1961  0.2095 -0.3177
  152POPC   PO4 2367   0.994   0.298   8.704  0.1049  0.1047 -0.2156
  152POPC   GL1 2368   0.937   0.251   8.275  0.0077 -0.4104  0.0018
  152POPC   GL2 2369   0.737   0.036   8.111  0.2503 -0.1045 -0.0307
  152POPC   C1A 2370   1.158   0.351   7.948 -0.1623 -0.2037  0.0473
  152POPC   D2A 2371   1.222   0.684   7.706  0.0259  0.0191  0.4064
  152POPC   C3A 2372   1.280   0.533   7.356 -0.2118  0.0879  0.1335
  152POPC   C4A 2373   1.332   0.881   7.016 -0.0004 -0.0544  0.1005
  152POPC   C1B 2374   0.960  -0.108   7.820  0.2526  0.2919  0.1451
  152POPC   C2B 2375   1.042   0.148   7.469  0.0172  0.1949 -0.1634
  152POPC   C3B 2376   1.177   0.086   7.138 -0.1529  0.1956  0.0689
  152POPC   C4B 2377   1.675  -0.040   6.921 -0.0227  0.0430 -0.1464
  153POPC   NC3 2378   9.197   1.731   9.034  0.3209  0.0091 -0.1355
  153POPC   PO4 2379   9.070   2.140   8.825  0.0734  0.2009  0.1750
  153POPC   GL1 2380   9.208   2.305   8.458  0.4212  0.1045 -0.2052
  153POPC   GL2 2381   9.365   2.138   8.273  0.0913  0.0824  0.2212
  153POPC   C1A 2382   9.155   2.596   8.268  0.2673 -0.4022  0.1382
  153POPC   D2A 2383   9.070   2.699   7.774 -0.0070 -0.1614  0.1470
  153POPC   C3A 2384   8.781   2.866   7.520 -0.0573 -0.3400 -0.1513
  153POPC   C4A 2385   8.541   2.576   7.273 -0.2297 -0.1508  0.0835
  153POPC   C1B 2386   9.382   2.020   7.874  0.3692 -0.0024  0.2413
  153POPC   C2B 2387   9.385   2.228   7.483  0.1584 -0.0529 -0.2307
  153POPC   C3B 2388   9.498   2.161   7.103  0.4210  0.1092  0.1841
  153POPC   C4B 2389   9.566   2.457   6.725 -0.1767  0.0824  0.0087
  154POPC   NC3 2390   3.287   7.211   9.900  0.0842 -0.1256 -0.0710
  154POPC   PO4 2391   3.390   7.559   9.727 -0.1367  0.2698  0.1208
  154POPC   GL1 2392   3.466   7.246   9.439 -0.1571 -0.0241  0.3596
  154POPC   GL2 2393   3.576   7.485   9.114 -0.3746  0.2521  0.1634
  154POPC   C1A 2394   3.410   6.800   9.449  0.1710  0.2994  0.0439
  154POPC   D2A 2395   3.159   6.414   9.235  0.0426  0.0412  0.0838
  154POPC   C3A 2396   3.432   6.064   8.968  0.3501 -0.7395 -0.0506
  154POPC   C4A 2397   3.791   5.750   9.000  0.1486  0.0183 -0.3668
  154POPC   C1B 2398   3.892   7.424   8.700  0.0056  0.1387 -0.0254
  154POPC   C2B 2399   3.993   7.395   8.287  0.1635  0.3106 -0.1299
  154POPC   C3B 2400   4.250   7.575   7.960  0.2081 -0.1395 -0.2503
  154POPC   C4B 2401   4.391   8.029   7.905 -0.1570  0.2413 -0.0529
  155POPC   NC3 2402   8.242   6.531   9.082  0.0086 -0.0167  0.3099
  155POPC   PO4 2403   7.765   6.693   9.030 -0.0935 -0.0670  0.1220
  155POPC   GL1 2404   7.534   6.847   8.690  0.0021  0.1644 -0.1049
  155POPC   GL2 2405   7.323   6.653   8.591  0.0850 -0.2381  0.6417
  155POPC   C1A 2406   7.721   6.905   8.296 -0.3160 -0.1055 -0.0355
  155POPC   D2A 2407   7.523   7.300   8.115  0.2838  0.1360 -0.0686
  155POPC   C3A 2408   7.674   7.615   7.955 -0.0977  0.0204 -0.0715
  155POPC   C4A 2409   7.938   7.841   7.540 -0.1171 -0.1855 -0.0971
  155POPC   C1B 2410   7.214   6.847   8.127  0.0172 -0.0755 -0.0823
  155POPC   C2B 2411   6.868   6.763   7.837 -0.3443  0.1316 -0.0764
  155POPC   C3B 2412   6.576   6.781   7.506  0.1243 -0.2573  0.0368
  155POPC   C4B 2413   6.396   6.399   7.375  0.0342 -0.2005 -0.1050
  156POPC   NC3 2414   6.898   5.816   9.769 -0.0947 -0.0607  0.0577
  156POPC   PO4 2415   6.813   5.824  10.234  0.5381 -0.0935 -0.1649
  156POPC   GL1 2416   6.394   5.635   9.891  0.2106  0.0392  0.2511
  156POPC   GL2 2417   6.356   5.824   9.586 -0.0348 -0.0857 -0.0658
  156POPC   C1A 2418   6.492   5.257   9.782  0.5375  0.1138  0.0505
  156POPC   D2A 2419   6.271   5.000   9.433 -0.0420  0.0721 -0.0592
  156POPC   C3A 2420   6.602   4.923   9.146  0.0331 -0.3703 -0.0982
  156POPC   C4A 2421   6.966   5.102   8.944 -0.0877 -0.0047  0.2626
  156POPC   C1B 2422   6.565   5.773   9.211  0.0298 -0.0352  0.2441
  156POPC   C2B 2423   6.617   5.441   8.925 -0.1909 -0.2970 -0.0194
  156POPC   C3B 2424   6.703   5.233   8.520 -0.2265  0.0175 -0.0935
  156POPC   C4B 2425   6.892   5.478   8.120 -0.0368 -0.1353 -0.0304
  157POPC   NC3 2426   2.594   8.094   4.828  0.1713 -0.0920 -0.1680
  157POPC   PO4 2427   2.996   8.297   4.565  0.0021  0.1517 -0.0128
  157POPC   GL1 2428   3.148   8.259   4.951  0.1554 -0.2421 -0.1013
  157POPC   GL2 2429   3.319   8.465   5.116 -0.2742  0.1407 -0.1782
  157POPC   C1A 2430   3.298   7.989   5.129  0.2528 -0.1724  0.5397
  157POPC   D2A 2431   3.367   7.869   5.573  0.1122  0.0539 -0.0803
  157POPC   C3A 2432   3.718   8.112   5.792 -0.0481  0.0655  0.0477
  157POPC   C4A 2433   3.783   8.169   6.219  0.0047 -0.4517  0.0644
  157POPC   C1B 2434   3.532   8.467   5.516 -0.0858  0.2019 -0.3648
  157POPC   C2B 2435   3.914   8.564   5.653  0.0131 -0.0145  0.1587
  157POPC   C3B 2436   4.354   8.559   5.722  0.0063 -0.2708  0.1609
  157POPC   C4B 2437   4.775   8.412   5.876  0.0694  0.2151  0.2253
  158POPC   NC3 2438   7.884   4.038   4.745  0.0932 -0.2290  0.0810
  158POPC   PO4 2439   8.331   4.043   4.853 -0.2318 -0.1352  0.1566
  158POPC   GL1 2440   8.255   4.099   5.348 -0.2073 -0.0423  0.0819
  158POPC   GL2 2441   8.419   3.763   5.475  0.0626  0.1252 -0.1540
  158POPC   C1A 2442   8.278   4.097   5.798 -0.1978  0.0415  0.2469
  158POPC   D2A 2443   8.237   4.012   6.234  0.1116  0.0504 -0.3049
  158POPC   C3A 2444   8.101   4.220   6.643  0.2642  0.0803 -0.2599
  158POPC   C4A 2445   8.257   4.480   6.985 -0.0068 -0.0705 -0.2602
  158POPC   C1B 2446   8.462   3.619   5.955  0.2218 -0.4778 -0.0107
  158POPC   C2B 2447   8.668   3.541   6.402 -0.0226  0.2143  0.0321
  158POPC   C3B 2448   8.657   3.290   6.719 -0.1967 -0.0598 -0.1465
  158POPC   C4B 2449   8.253   3.297   7.004  0.2790 -0.1623 -0.0253
  159POPC   NC3 2450   7.999   1.379   5.270  0.2335 -0.1851 -0.0436
  159POPC   PO4 2451   7.897   1.740   5.614  0.2236 -0.1098 -0.2300
  159POPC   GL1 2452   8.061   1.894   6.054  0.0080 -0.0443  0.1722
  159POPC   GL2 2453   7.912   2.153   6.195 -0.3181  0.4100  0.0425
  159POPC   C1A 2454   7.952   1.683   6.433 -0.1843 -0.0913  0.1226
  159POPC   D2A 2455   7.675   1.626   6.786 -0.1624 -0.0791  0.4458
  159POPC   C3A 2456   8.120   1.650   7.068  0.2530 -0.3786 -0.1465
  159POPC   C4A 2457   8.630   1.710   7.194 -0.0743 -0.1924 -0.2150
  159POPC   C1B 2458   7.626   2.066   6.512  0.4028  0.0473  0.1188
  159POPC   C2B 2459   7.332   2.352   6.801 -0.0495 -0.1115 -0.0100
  159POPC   C3B 2460   7.221   2.546   7.206 -0.1515  0.1076  0.0382
  159POPC   C4B 2461   7.077   2.906   7.498 -0.1525  0.0892 -0.0336
  160POPC   NC3 2462   5.810   6.897   3.963  0.0469  0.0301  0.3133
  160POPC   PO4 2463   5.532   6.565   4.158 -0.1068  0.0052  0.1272
  160POPC   GL1 2464   5.223   6.530   4.508 -0.1527  0.1027 -0.2379
  160POPC   GL2 2465   4.980   6.292   4.539  0.2058  0.0240 -0.0170
  160POPC   C1A 2466   5.218   6.605   4.998  0.0360  0.0427  0.2989
  160POPC   D2A 2467   4.874   6.476   5.319  0.2440  0.0176  0.1098
  160POPC   C3A 2468   4.814   6.715   5.690 -0.2874 -0.1910  0.4054
  160POPC   C4A 2469   4.474   6.867   5.959 -0.0848 -0.0662  0.0105
  160POPC   C1B 2470   4.981   6.089   4.832 -0.3531  0.3108 -0.1366
  160POPC   C2B 2471   5.167   5.929   5.219 -0.1100 -0.0148 -0.0128
  160POPC   C3B 2472   5.295   5.680   5.522  0.0291  0.1664  0.1074
  160POPC   C4B 2473   5.345   5.326   5.701  0.0268 -0.2930 -0.3083
  161POPC   NC3 2474   2.118   1.648   4.880 -0.2391 -0.3465  0.2382
  161POPC   PO4 2475   2.353   1.522   5.280 -0.2154  0.0389  0.0570
  161POPC   GL1 2476   2.025   1.611   5.622 -0.0906  0.0209  0.0345
  161POPC   GL2 2477   2.228   1.733   5.851  0.2466  0.1740  0.1350
  161POPC   C1A 2478   1.720   1.511   5.827 -0.2461 -0.2479  0.0110
  161POPC   D2A 2479   1.741   1.422   6.214 -0.1598  0.0417  0.0984
  161POPC   C3A 2480   1.961   1.152   6.541  0.3272  0.1265 -0.3006
  161POPC   C4A 2481   1.850   0.763   6.927  0.3424  0.0324 -0.0731
  161POPC   C1B 2482   2.245   1.451   6.060  0.1246 -0.0728  0.0685
  161POPC   C2B 2483   2.327   1.074   6.202  0.0138  0.1765 -0.3729
  161POPC   C3B 2484   2.269   0.704   6.521 -0.0020  0.3058 -0.2192
  161POPC   C4B 2485   1.980   0.336   6.743 -0.0885 -0.1963  0.0248
  162POPC   NC3 2486   7.630   8.897   5.267 -0.1598  0.0781 -0.0818
  162POPC   PO4 2487   7.275   8.790   5.349 -0.1691 -0.4668  0.1968
  162POPC   GL1 2488   7.446   8.818   5.826  0.2156 -0.0115  0.1887
  162POPC   GL2 2489   7.933   8.773   5.753  0.0045 -0.3401  0.2004
  162POPC   C1A 2490   7.541   8.764   6.199  0.0993  0.0003 -0.1699
  162POPC   D2A 2491   7.623   8.407   6.428  0.0003  0.0624  0.2540
  162POPC   C3A 2492   7.650   8.382   6.903 -0.2133  0.1118  0.0056
  162POPC   C4A 2493   7.445   8.408   7.250  0.1843  0.2214 -0.2674
  162POPC   C1B 2494   8.060   8.526   6.139  0.1222  0.0142 -0.0132
  162POPC   C2B 2495   8.171   8.512   6.513 -0.0475  0.0798  0.0062
  162POPC   C3B 2496   8.168   8.129   6.834  0.1046 -0.1681  0.1502
  162POPC   C4B 2497   8.134   7.910   7.115 -0.2408  0.1818 -0.3970
  163POPC   NC3 2498   1.993   9.097   5.003 -0.1673 -0.3758  0.0565
  163POPC   PO4 2499   2.055   8.798   5.334 -0.1575 -0.2380 -0.1087
  163POPC   GL1 2500   1.923   8.898   5.711  0.0038 -0.3440  0.1139
  163POPC   GL2 2501   2.306   8.751   5.814  0.0736  0.0133 -0.2089
  163POPC   C1A 2502   1.672   9.139   5.966  0.2747 -0.6195  0.1917
  163POPC   D2A 2503   1.772   9.297   6.394 -0.0803  0.3074 -0.0023
  163POPC   C3A 2504   1.583   9.165   6.668 -0.3522 -0.0768 -0.1134
  163POPC   C4A 2505   1.372   9.189   7.056  0.2700  0.1513  0.1830
  163POPC   C1B 2506   2.492   8.655   6.188 -0.1298  0.0677 -0.1193
  163POPC   C2B 2507   2.780   8.378   6.262  0.2335 -0.0687  0.1870
  163POPC   C3B 2508   2.836   7.981   6.486 -0.1045 -0.0574 -0.1252
  163POPC   C4B 2509   3.229   7.619   6.550 -0.1511  0.0439  0.1554
  164POPC   NC3 2510   0.482   9.409   5.024 -0.1526 -0.0006  0.0552
  164POPC   PO4 2511   0.125   9.551   5.198  0.1238 -0.3293 -0.0766
  164POPC   GL1 2512  -0.028   9.714   5.653  0.0618  0.1158 -0.1050
  164POPC   GL2 2513   0.008   9.986   5.581 -0.1202  0.0980 -0.0077
  164POPC   C1A 2514   0.074   9.713   6.104  0.0030  0.3198 -0.4355
  164POPC   D2A 2515  -0.050   9.931   6.476 -0.3805  0.0476  0.0652
  164POPC   C3A 2516  -0.158  10.234   6.879 -0.0248  0.1126 -0.0812
  164POPC   C4A 2517  -0.128  10.364   7.286 -0.0490 -0.0249 -0.2739
  164POPC   C1B 2518   0.283  10.186   5.969 -0.3798  0.2679 -0.2498
  164POPC   C2B 2519   0.547  10.471   6.202  0.0908  0.1699  0.0790
  164POPC   C3B 2520   0.813  10.382   6.563 -0.1974  0.1304 -0.1669
  164POPC   C4B 2521   0.603  10.288   7.072  0.3109 -0.2122  0.3085
  165POPC   NC3 2522   2.627   4.924   4.514 -0.1071  0.1015 -0.0417
  165POPC   PO4 2523   2.195   4.959   4.720  0.0553 -0.5754  0.0870
  165POPC   GL1 2524   2.466   5.061   5.049 -0.1132  0.0633  0.0306
  165POPC   GL2 2525   2.824   4.997   4.969  0.1832 -0.1277  0.0712
  165POPC   C1A 2526   2.591   5.263   5.466  0.3035  0.1102  0.0845
  165POPC   D2A 2527   2.937   5.442   5.712  0.0332  0.0901  0.2609
  165POPC   C3A 2528   2.943   5.905   5.737  0.2358  0.1389  0.2900
  165POPC   C4A 2529   3.037   6.222   5.694 -0.4139 -0.1818 -0.0596
  165POPC   C1B 2530   3.029   5.256   5.126 -0.1505 -0.1655  0.1018
  165POPC   C2B 2531   3.334   5.479   4.961 -0.2644  0.1210 -0.3005
  165POPC   C3B 2532   3.706   5.688   4.909  0.0465  0.0068 -0.2072
  165POPC   C4B 2533   4.054   6.003   4.887  0.2672  0.1549  0.0156
  166POPC   NC3 2534   9.702   5.550   5.082 -0.2219  0.2975  0.0623
  166POPC   PO4 2535   9.441   5.851   5.371  0.0966  0.2302 -0.0256
  166POPC   GL1 2536   9.471   6.158   5.640 -0.4192  0.0729 -0.2524
  166POPC   GL2 2537   9.105   6.253   5.596  0.1959 -0.1488  0.0805
  166POPC   C1A 2538   9.438   6.292   6.060 -0.0134  0.1866  0.0962
  166POPC   D2A 2539   9.134   6.245   6.238  0.3428 -0.0303  0.5259
  166POPC   C3A 2540   9.128   5.834   6.309 -0.2421 -0.3342  0.0630
  166POPC   C4A 2541   9.309   5.367   6.289  0.0862 -0.1414  0.1007
  166POPC   C1B 2542   8.727   6.141   5.912  0.0353  0.3545  0.4647
  166POPC   C2B 2543   8.639   6.088   6.367 -0.0642 -0.3279 -0.0712
  166POPC   C3B 2544   8.879   6.166   6.750  0.0194 -0.0678 -0.1139
  166POPC   C4B 2545   9.110   6.266   7.185  0.1838  0.1912 -0.0569
  167POPC   NC3 2546   0.212   7.759   5.406  0.0469  0.0600  0.0132
  167POPC   PO4 2547   0.027   7.530   5.692  0.0331 -0.0872  0.1538
  167POPC   GL1 2548  -0.006   7.414   6.050  0.1865 -0.3965 -0.3457
  167POPC   GL2 2549  -0.162   7.652   6.175 -0.3779  0.0462  0.1545
  167POPC   C1A 2550   0.065   7.330   6.511  0.1589 -0.2260 -0.0585
  167POPC   D2A 2551   0.151   7.145   6.933 -0.1026  0.1397  0.1118
  167POPC   C3A 2552   0.048   6.795   6.991  0.0862  0.0951  0.2542
  167POPC   C4A 2553   0.020   6.425   6.878  0.2276  0.1788  0.0507
  167POPC   C1B 2554  -0.432   7.664   6.506  0.1051  0.2301 -0.3060
  167POPC   C2B 2555  -0.783   7.680   6.616  0.3977 -0.0706  0.0056
  167POPC   C3B 2556  -1.161   7.591   6.789  0.2725  0.2387 -0.1923
  167POPC   C4B 2557  -1.216   7.563   7.219  0.0383 -0.1771 -0.1014
  168POPC   NC3 2558   3.042   4.744   3.600  0.2163 -0.1842  0.0081
  168POPC   PO4 2559   3.408   4.825   3.893 -0.0376  0.3100  0.4495
  168POPC   GL1 2560   3.426   4.658   4.220  0.2281 -0.1384  0.1258
  168POPC   GL2 2561   3.679   4.562   4.331  0.0278 -0.0233  0.0219
  168POPC   C1A 2562   3.577   4.782   4.712 -0.0485  0.0332  0.0221
  168POPC   D2A 2563   3.357   4.906   5.109  0.0032 -0.3138 -0.0315
  168POPC   C3A 2564   3.495   5.029   5.553 -0.3866 -0.1127 -0.0833
  168POPC   C4A 2565   3.849   5.077   5.913 -0.0355  0.0574  0.0048
  168POPC   C1B 2566   3.356   4.347   4.593 -0.3814  0.1793  0.1455
  168POPC   C2B 2567   3.052   4.537   4.859 -0.1510  0.1402  0.0288
  168POPC   C3B 2568   2.963   4.600   5.237  0.1568  0.0666  0.0892
  168POPC   C4B 2569   2.986   4.943   5.543  0.0574 -0.0561 -0.1817
  169POPC   NC3 2570   8.631   6.915   5.125 -0.2628 -0.0946  0.5311
  169POPC   PO4 2571   8.743   6.568   5.357  0.0097 -0.0925 -0.1004
  169POPC   GL1 2572   8.661   6.614   5.765  0.2225  0.1041 -0.2097
  169POPC   GL2 2573   8.868   6.757   5.916  0.0710  0.0094  0.1240
  169POPC   C1A 2574   8.311   6.460   6.092 -0.2856  0.1364  0.0301
  169POPC   D2A 2575   7.921   6.317   6.402 -0.0656  0.0813 -0.0989
  169POPC   C3A 2576   7.751   5.864   6.415 -0.1717  0.1072 -0.0311
  169POPC   C4A 2577   7.586   5.488   6.624  0.0578  0.0323 -0.0308
  169POPC   C1B 2578   8.682   6.710   6.354  0.3937 -0.0476 -0.1437
  169POPC   C2B 2579   8.376   6.425   6.597  0.2030  0.1261 -0.3487
  169POPC   C3B 2580   8.117   6.393   6.877  0.4483 -0.1573  0.0727
  169POPC   C4B 2581   7.884   6.024   7.002 -0.1183 -0.0035  0.0477
  170POPC   NC3 2582   6.531   6.008   3.715 -0.1415  0.2390 -0.0957
  170POPC   PO4 2583   6.946   5.769   3.645  0.2679 -0.1506  0.0819
  170POPC   GL1 2584   6.784   5.589   4.021 -0.0810 -0.2653 -0.0066
  170POPC   GL2 2585   6.668   5.897   4.233 -0.2376  0.2949 -0.1739
  170POPC   C1A 2586   6.823   5.388   4.452  0.5547 -0.0259  0.0708
  170POPC   D2A 2587   6.430   5.305   4.762 -0.1144 -0.4488  0.0130
  170POPC   C3A 2588   6.478   5.478   5.140 -0.1250  0.0827 -0.0380
  170POPC   C4A 2589   6.775   5.774   5.257 -0.0586 -0.0007 -0.0332
  170POPC   C1B 2590   6.615   5.781   4.710  0.0381 -0.1794 -0.1584
  170POPC   C2B 2591   6.415   6.059   5.035 -0.0761  0.0466  0.0526
  170POPC   C3B 2592   6.458   6.186   5.437  0.2453 -0.2015  0.0613
  170POPC   C4B 2593   6.591   6.665   5.601 -0.4542 -0.2739 -0.0726
  171POPC   NC3 2594   2.393   3.958   4.374  0.1781 -0.2494  0.0079
  171POPC   PO4 2595   1.911   3.930   4.612 -0.1802  0.0867 -0.0383
  171POPC   GL1 2596   2.283   3.931   4.850  0.1548 -0.4202 -0.1551
  171POPC   GL2 2597   1.968   3.962   5.107 -0.1895 -0.0430  0.2801
  171POPC   C1A 2598   2.349   3.642   5.172 -0.2127 -0.1428 -0.0030
  171POPC   D2A 2599   2.647   3.285   5.298 -0.0991 -0.1879  0.0879
  171POPC   C3A 2600   2.989   3.499   5.555  0.2711 -0.0478  0.0706
  171POPC   C4A 2601   3.220   3.868   5.720 -0.0273 -0.5300 -0.2046
  171POPC   C1B 2602   2.264   4.172   5.432 -0.3703  0.0398  0.1674
  171POPC   C2B 2603   2.441   4.382   5.849  0.0180 -0.0471 -0.3389
  171POPC   C3B 2604   2.439   4.496   6.351  0.2010  0.1831  0.2068
  171POPC   C4B 2605   2.164   4.602   6.612 -0.2577 -0.1264  0.2149
  172POPC   NC3 2606   4.191   1.244   4.960 -0.3009 -0.0704 -0.1022
  172POPC   PO4 2607   4.400   1.308   5.393  0.2879  0.0579  0.2112
  172POPC   GL1 2608   4.483   1.532   5.687 -0.1261  0.0897  0.0843
  172POPC   GL2 2609   4.406   1.398   5.940 -0.4935 -0.0935  0.0129
  172POPC   C1A 2610   4.427   1.881   6.049 -0.0673 -0.2123  0.0804
  172POPC   D2A 2611   4.430   2.199   6.447 -0.1749 -0.0290  0.0699
  172POPC   C3A 2612   4.551   1.930   6.877  0.1326  0.0896 -0.0183
  172POPC   C4A 2613   4.488   1.696   7.154  0.0158  0.1701  0.1640
  172POPC   C1B 2614   4.250   1.226   6.318 -0.2471  0.1824 -0.1020
  172POPC   C2B 2615   4.304   1.154   6.827 -0.3105  0.1674  0.1113
  172POPC   C3B 2616   4.350   1.182   7.263  0.0718  0.0691 -0.3671
  172POPC   C4B 2617   4.195   1.029   7.717  0.4426  0.0897  0.0777
  173POPC   NC3 2618   7.362   5.709   4.025 -0.5965 -0.0290 -0.2127
  173POPC   PO4 2619   7.462   5.193   4.179  0.1311 -0.0161 -0.2732
  173POPC   GL1 2620   7.248   4.932   4.447  0.0059  0.1996  0.2287
  173POPC   GL2 2621   7.476   4.927   4.659 -0.0507 -0.2737 -0.0527
  173POPC   C1A 2622   6.756   4.858   4.487  0.0175 -0.0217 -0.2884
  173POPC   D2A 2623   6.518   4.783   4.899  0.0059 -0.0833 -0.1993
  173POPC   C3A 2624   6.394   4.988   5.234  0.2691  0.1577  0.0771
  173POPC   C4A 2625   6.261   5.069   5.587 -0.0150 -0.2465  0.1778
  173POPC   C1B 2626   7.393   5.269   4.960 -0.0512 -0.1488  0.0487
  173POPC   C2B 2627   7.120   5.357   5.354  0.2033 -0.2735 -0.0144
  173POPC   C3B 2628   6.781   5.298   5.569  0.1298  0.0880 -0.0519
  173POPC   C4B 2629   6.462   5.286   5.977 -0.0145  0.1516  0.0508
  174POPC   NC3 2630   3.656   9.395   4.408 -0.0648 -0.0256  0.0284
  174POPC   PO4 2631   3.952   9.219   4.742  0.1047 -0.0773 -0.0100
  174POPC   GL1 2632   4.195   9.100   5.104  0.1413  0.1496  0.1696
  174POPC   GL2 2633   4.562   9.076   5.296  0.0414  0.2945 -0.0628
  174POPC   C1A 2634   4.094   9.031   5.542 -0.3529 -0.0134 -0.1301
  174POPC   D2A 2635   4.110   9.098   6.033 -0.2582  0.1917  0.0497
  174POPC   C3A 2636   4.248   9.486   6.151  0.0651  0.1761 -0.3125
  174POPC   C4A 2637   4.562   9.806   6.227  0.1911  0.0983 -0.1561
  174POPC   C1B 2638   4.565   8.983   5.804 -0.0242 -0.2396 -0.3464
  174POPC   C2B 2639   4.445   8.734   6.167 -0.3527 -0.1961  0.2338
  174POPC   C3B 2640   4.607   8.537   6.498 -0.2987 -0.0834 -0.0662
  174POPC   C4B 2641   4.703   8.416   6.893  0.2782 -0.0550  0.2468
  175POPC   NC3 2642   1.531   1.901   4.999  0.0842  0.1230 -0.3507
  175POPC   PO4 2643   1.803   1.859   5.224 -0.4745  0.0920  0.0786
  175POPC   GL1 2644   1.876   2.232   5.367  0.0567 -0.2469 -0.1304
  175POPC   GL2 2645   2.089   2.464   5.502 -0.1650 -0.0277 -0.1186
  175POPC   C1A 2646   1.841   2.170   5.837  0.0702  0.2986  0.2196
  175POPC   D2A 2647   2.015   1.925   6.249 -0.2175 -0.1582 -0.1225
  175POPC   C3A 2648   2.105   2.216   6.681 -0.0776  0.1411 -0.1220
  175POPC   C4A 2649   2.351   2.539   7.037 -0.1122  0.3554  0.2177
  175POPC   C1B 2650   2.373   2.202   5.863 -0.0145  0.3154 -0.1914
  175POPC   C2B 2651   2.498   2.349   6.358 -0.3096  0.0019 -0.0986
  175POPC   C3B 2652   2.361   2.695   6.572  0.1497  0.1119  0.2051
  175POPC   C4B 2653   2.294   3.053   6.858 -0.0072  0.0338 -0.0037
  176POPC   NC3 2654   6.009   1.608   5.278  0.1749  0.3861  0.2911
  176POPC   PO4 2655   6.200   2.010   5.595 -0.0034  0.0063  0.2366
  176POPC   GL1 2656   5.925   2.238   5.873  0.1876 -0.0567 -0.0461
  176POPC   GL2 2657   5.644   2.358   5.741 -0.0674 -0.0630 -0.0364
  176POPC   C1A 2658   5.596   2.232   6.191 -0.2097 -0.4714  0.0093
  176POPC   D2A 2659   5.345   2.388   6.587  0.1434 -0.0335  0.0138
  176POPC   C3A 2660   5.340   2.120   6.981 -0.2118  0.3344  0.0012
  176POPC   C4A 2661   5.411   1.982   7.379  0.1323 -0.0331 -0.1446
  176POPC   C1B 2662   5.282   2.007   5.785 -0.2859  0.0104  0.0500
  176POPC   C2B 2663   5.007   1.882   6.171 -0.0535  0.0224  0.2557
  176POPC   C3B 2664   4.957   2.049   6.631  0.1408 -0.2030 -0.1912
  176POPC   C4B 2665   4.879   2.447   6.837 -0.1163  0.0346  0.1150
  177POPC   NC3 2666   1.172   8.296   4.976  0.5117 -0.2297  0.1880
  177POPC   PO4 2667   1.552   8.179   5.271 -0.1984  0.4936  0.0768
  177POPC   GL1 2668   1.459   8.055   5.700 -0.1278 -0.0078  0.0650
  177POPC   GL2 2669   1.775   7.893   5.847  0.0000  0.3705  0.2602
  177POPC   C1A 2670   1.373   7.994   6.130 -0.2213 -0.0625 -0.2053
  177POPC   D2A 2671   1.453   7.862   6.526 -0.1821  0.0214  0.1268
  177POPC   C3A 2672   1.440   8.192   6.888 -0.4434 -0.0397 -0.0425
  177POPC   C4A 2673   1.587   8.625   7.079 -0.0462  0.3431 -0.1830
  177POPC   C1B 2674   1.943   7.803   6.224  0.0323  0.1884  0.1625
  177POPC   C2B 2675   1.929   7.655   6.667  0.0795  0.0190  0.0652
  177POPC   C3B 2676   1.912   7.839   7.040 -0.4741 -0.0996 -0.0031
  177POPC   C4B 2677   1.701   8.202   7.345 -0.0967 -0.1122  0.0154
  178POPC   NC3 2678   7.383   3.140   4.329  0.1644 -0.2215  0.2396
  178POPC   PO4 2679   7.264   3.204   4.794  0.2066 -0.2244  0.0055
  178POPC   GL1 2680   6.983   3.261   5.118  0.1337  0.0136 -0.0755
  178POPC   GL2 2681   6.724   3.104   5.168  0.0769 -0.3856  0.1864
  178POPC   C1A 2682   6.800   3.564   5.359 -0.3522 -0.1165 -0.0517
  178POPC   D2A 2683   6.566   3.903   5.376 -0.0810  0.2001  0.2012
  178POPC   C3A 2684   6.403   4.173   5.662  0.0754 -0.3423  0.0950
  178POPC   C4A 2685   6.407   4.367   6.038  0.1341 -0.0624 -0.0740
  178POPC   C1B 2686   6.394   3.014   5.529  0.3139 -0.1442  0.0296
  178POPC   C2B 2687   6.301   3.304   5.865  0.1853 -0.1916  0.3329
  178POPC   C3B 2688   6.523   3.437   6.193 -0.0095 -0.0026 -0.2042
  178POPC   C4B 2689   6.729   3.794   6.333 -0.0806 -0.1040  0.1875
  179POPC   NC3 2690   8.283   4.481   4.991 -0.2848  0.0477 -0.5016
  179POPC   PO4 2691   8.496   4.942   4.823 -0.2350 -0.1344  0.0358
  179POPC   GL1 2692   8.326   4.919   5.213  0.0608 -0.0471  0.3565
  179POPC   GL2 2693   8.492   4.578   5.440  0.0395  0.1693  0.0807
  179POPC   C1A 2694   7.876   4.756   5.445  0.0459  0.1761 -0.3437
  179POPC   D2A 2695   7.483   4.904   5.424 -0.1350  0.3333  0.0160
  179POPC   C3A 2696   6.992   4.830   5.616 -0.0292 -0.1239  0.2318
  179POPC   C4A 2697   6.539   4.657   5.703  0.0849 -0.0409 -0.3461
  179POPC   C1B 2698   8.298   4.755   5.748 -0.1528  0.0431 -0.5549
  179POPC   C2B 2699   7.945   5.002   5.956 -0.2053  0.0038 -0.1951
  179POPC   C3B 2700   7.558   5.083   6.228 -0.0314 -0.1419  0.1553
  179POPC   C4B 2701   7.522   5.007   6.718 -0.2072 -0.0047 -0.0696
  180POPC   NC3 2702   1.510   2.687   4.810 -0.0531  0.2443 -0.0580
  180POPC   PO4 2703   1.450   2.440   5.145 -0.0155 -0.3394  0.0136
  180POPC   GL1 2704   1.342   2.227   5.405  0.1330 -0.4036  0.0575
  180POPC   GL2 2705   1.346   1.890   5.493 -0.2454 -0.0545 -0.2506
  180POPC   C1A 2706   1.380   2.387   5.804 -0.0168  0.0461  0.2202
  180POPC   D2A 2707   1.684   2.472   6.186  0.0623  0.2364  0.1838
  180POPC   C3A 2708   2.045   2.512   6.190 -0.1093 -0.2820  0.0395
  180POPC   C4A 2709   2.436   2.676   5.939  0.0524  0.1824  0.2360
  180POPC   C1B 2710   1.450   1.876   5.919 -0.3051 -0.0152 -0.0902
  180POPC   C2B 2711   1.536   2.015   6.390 -0.0532  0.0127 -0.1403
  180POPC   C3B 2712   1.614   2.378   6.680 -0.0545  0.2707  0.1442
  180POPC   C4B 2713   1.453   2.103   7.124 -0.3559 -0.0044  0.1154
  181POPC   NC3 2714   2.723   7.108   4.483 -0.0872 -0.1214  0.1019
  181POPC   PO4 2715   2.918   6.757   4.373  0.3150 -0.1583 -0.2121
  181POPC   GL1 2716   3.226   6.630   4.695 -0.1219 -0.1254 -0.4847
  181POPC   GL2 2717   3.426   6.872   4.756  0.1046 -0.1483 -0.0009
  181POPC   C1A 2718   3.220   6.483   5.164 -0.2572  0.0961  0.0196
  181POPC   D2A 2719   3.458   6.528   5.444  0.0121 -0.2542 -0.2528
  181POPC   C3A 2720   3.475   6.490   5.864 -0.2529 -0.0129 -0.0208
  181POPC   C4A 2721   3.303   6.670   6.153  0.3909 -0.2411  0.3462
  181POPC   C1B 2722   3.658   6.570   4.918  0.4456  0.1264 -0.4521
  181POPC   C2B 2723   3.639   6.204   5.137 -0.2147  0.1642  0.0307
  181POPC   C3B 2724   3.388   6.002   5.413 -0.0242  0.0682  0.0015
  181POPC   C4B 2725   3.023   5.685   5.311  0.2166  0.1203  0.0957
  182POPC   NC3 2726   5.436   3.279   3.979  0.1123  0.2595  0.1150
  182POPC   PO4 2727   5.004   3.308   4.243 -0.2218  0.0607 -0.0071
  182POPC   GL1 2728   4.863   3.648   4.506 -0.2600  0.3862  0.2711
  182POPC   GL2 2729   4.800   3.940   4.360 -0.1607  0.0914 -0.0772
  182POPC   C1A 2730   5.006   3.892   4.817  0.1050 -0.4517  0.0422
  182POPC   D2A 2731   5.274   3.953   5.160 -0.1259  0.1448  0.3228
  182POPC   C3A 2732   5.344   3.646   5.479  0.1573  0.0592  0.0018
  182POPC   C4A 2733   5.144   3.259   5.626  0.2760 -0.2302 -0.2641
  182POPC   C1B 2734   4.621   4.152   4.669  0.1400  0.1115 -0.0853
  182POPC   C2B 2735   4.265   4.149   4.920  0.1545 -0.1243  0.0618
  182POPC   C3B 2736   4.044   4.323   5.292 -0.0937 -0.0970  0.2728
  182POPC   C4B 2737   4.047   4.318   5.652  0.0796  0.0491  0.2685
  183POPC   NC3 2738   0.591   2.262   5.029 -0.2119  0.1262  0.6219
  183POPC   PO4 2739   0.810   2.393   5.334 -0.2856  0.0507  0.0338
  183POPC   GL1 2740   0.775   2.294   5.690 -0.0754  0.0463 -0.0324
  183POPC   GL2 2741   0.389   2.273   5.646  0.0612  0.0482 -0.0444
  183POPC   C1A 2742   0.618   2.308   6.107 -0.1212 -0.1194 -0.0091
  183POPC   D2A 2743   0.468   2.119   6.397  0.1220  0.5445 -0.2387
  183POPC   C3A 2744   0.049   2.354   6.567  0.2075  0.0963  0.1877
  183POPC   C4A 2745  -0.169   2.433   7.036  0.3646  0.4234 -0.1558
  183POPC   C1B 2746   0.211   2.485   6.005 -0.1966  0.0363 -0.1402
  183POPC   C2B 2747   0.261   2.661   6.279 -0.2543 -0.3726  0.2334
  183POPC   C3B 2748   0.394   3.060   6.434 -0.4398  0.2087 -0.0632
  183POPC   C4B 2749   0.810   3.278   6.460  0.0425  0.1685 -0.1810
  184POPC   NC3 2750   6.583   7.149   4.110  0.2254  0.2623  0.0748
  184POPC   PO4 2751   6.317   6.801   3.985 -0.0760 -0.1575  0.2158
  184POPC   GL1 2752   6.442   6.760   4.435  0.0616  0.1496 -0.1828
  184POPC   GL2 2753   6.483   7.142   4.632  0.0228  0.1728 -0.0226
  184POPC   C1A 2754   6.615   6.369   4.687  0.2598  0.0377  0.0486
  184POPC   D2A 2755   6.789   6.401   5.164  0.0651 -0.0763 -0.1402
  184POPC   C3A 2756   7.058   6.729   5.344 -0.0461  0.0787 -0.3091
  184POPC   C4A 2757   7.074   6.967   5.729  0.2297  0.2529  0.2381
  184POPC   C1B 2758   6.111   6.994   4.827  0.2550 -0.0665  0.1851
  184POPC   C2B 2759   5.680   6.978   5.186 -0.2854 -0.1101 -0.2002
  184POPC   C3B 2760   5.622   6.846   5.617  0.5588  0.0564  0.3213
  184POPC   C4B 2761   5.305   6.626   5.759 -0.2645 -0.0691  0.0618
  185POPC   NC3 2762   8.781   6.028   4.635  0.3986  0.3565 -0.0186
  185POPC   PO4 2763   8.660   5.785   4.953 -0.2230  0.0208 -0.0366
  185POPC   GL1 2764   8.608   5.878   5.447 -0.0336 -0.0950  0.4591
  185POPC   GL2 2765   8.361   6.186   5.555  0.1866  0.0340  0.0694
  185POPC   C1A 2766   8.565   5.703   5.852 -0.1343 -0.3565 -0.1066
  185POPC   D2A 2767   8.717   5.440   6.275  0.1799  0.0020 -0.2319
  185POPC   C3A 2768   8.748   5.588   6.597  0.1159 -0.0816 -0.3609
  185POPC   C4A 2769   8.517   5.581   7.043 -0.1275 -0.2301  0.3052
  185POPC   C1B 2770   8.250   6.030   5.894  0.0117 -0.0120 -0.1796
  185POPC   C2B 2771   8.301   5.740   6.294 -0.0040  0.1814 -0.2171
  185POPC   C3B 2772   8.313   5.905   6.737 -0.0072 -0.0909 -0.4861
  185POPC   C4B 2773   8.414   6.064   7.172  0.0449 -0.1571 -0.2139
  186POPC   NC3 2774   8.310   5.436   4.708  0.3289  0.1513  0.2072
  186POPC   PO4 2775   8.252   5.920   4.614 -0.2476  0.1766  0.2487
  186POPC   GL1 2776   8.200   5.743   5.085 -0.0233 -0.2738  0.0029
  186POPC   GL2 2777   8.021   6.018   5.048 -0.0197 -0.2916  0.1633
  186POPC   C1A 2778   8.149   5.724   5.509  0.4085  0.3460  0.1111
  186POPC   D2A 2779   7.878   5.665   5.941 -0.4373  0.0086  0.0239
  186POPC   C3A 2780   7.980   5.375   6.340 -0.2491 -0.0308 -0.0356
  186POPC   C4A 2781   8.143   5.487   6.724 -0.2341 -0.1073 -0.0143
  186POPC   C1B 2782   7.918   6.161   5.404 -0.1244  0.0501 -0.2144
  186POPC   C2B 2783   7.601   6.090   5.740  0.1018  0.3286  0.2139
  186POPC   C3B 2784   7.310   5.843   5.913  0.0044  0.1436  0.4797
  186POPC   C4B 2785   7.258   5.540   6.246  0.2276  0.0026 -0.1308
  187POPC   NC3 2786   2.127   7.548   4.907 -0.2840 -0.0496 -0.1422
  187POPC   PO4 2787   2.065   7.268   5.255  0.1231  0.2739  0.1829
  187POPC   GL1 2788   1.775   7.288   5.559 -0.0436 -0.2063 -0.3386
  187POPC   GL2 2789   1.551   7.565   5.546 -0.2004 -0.0498  0.0741
  187POPC   C1A 2790   1.943   7.198   6.002 -0.1113 -0.0504 -0.0258
  187POPC   D2A 2791   2.408   7.173   6.052  0.1170  0.0133 -0.1584
  187POPC   C3A 2792   2.698   6.896   6.327 -0.1473  0.1243  0.1218
  187POPC   C4A 2793   3.006   6.855   6.547  0.0127  0.0253  0.1621
  187POPC   C1B 2794   1.512   7.451   5.992  0.1742  0.0485  0.3145
  187POPC   C2B 2795   1.589   7.352   6.494  0.2275 -0.1520 -0.0880
  187POPC   C3B 2796   1.717   7.202   6.947  0.2817 -0.0428  0.0527
  187POPC   C4B 2797   1.667   7.087   7.305  0.0335  0.2690 -0.0932
  188POPC   NC3 2798   8.104   3.080   4.750  0.2334 -0.0697 -0.0771
  188POPC   PO4 2799   7.705   3.061   4.669  0.1450 -0.0524  0.1497
  188POPC   GL1 2800   7.704   3.310   5.080 -0.0387  0.2351  0.0863
  188POPC   GL2 2801   7.655   3.150   5.284 -0.1358 -0.1033  0.1916
  188POPC   C1A 2802   7.476   3.677   5.210 -0.1379 -0.0424 -0.0845
  188POPC   D2A 2803   7.260   3.908   5.432 -0.2649  0.0204 -0.0256
  188POPC   C3A 2804   7.017   4.219   5.195 -0.1083  0.3482 -0.4484
  188POPC   C4A 2805   6.759   4.481   5.255 -0.3535  0.0944  0.1193
  188POPC   C1B 2806   7.248   3.366   5.497 -0.3121  0.0565 -0.1383
  188POPC   C2B 2807   7.142   3.598   5.812 -0.2747  0.0564  0.0394
  188POPC   C3B 2808   7.309   3.879   6.087 -0.0418 -0.1732  0.2117
  188POPC   C4B 2809   7.511   4.268   6.182  0.0046 -0.1724  0.1004
  189POPC   NC3 2810   0.357   5.419   4.818  0.4962 -0.1397 -0.2796
  189POPC   PO4 2811   0.043   5.387   5.040 -0.2195  0.0369  0.3684
  189POPC   GL1 2812  -0.032   5.339   5.450  0.3702  0.0439 -0.3662
  189POPC   GL2 2813  -0.235   5.112   5.662 -0.1183 -0.0746  0.0049
  189POPC   C1A 2814  -0.068   5.526   5.892 -0.4334 -0.0142  0.1228
  189POPC   D2A 2815   0.037   5.719   6.200  0.1436 -0.0070 -0.0468
  189POPC   C3A 2816  -0.052   6.002   6.519  0.1009 -0.3474 -0.0294
  189POPC   C4A 2817   0.073   6.367   6.265  0.1261 -0.0561  0.0231
  189POPC   C1B 2818  -0.669   5.026   5.984 -0.2576 -0.1385 -0.2427
  189POPC   C2B 2819  -1.077   4.926   6.175 -0.1300  0.1206  0.0195
  189POPC   C3B 2820  -1.209   5.063   6.617 -0.2112  0.0798  0.2454
  189POPC   C4B 2821  -1.238   5.316   7.046 -0.0236  0.4965  0.0194
  190POPC   NC3 2822   1.817   4.479   4.745 -0.2124 -0.0597 -0.1612
  190POPC   PO4 2823   1.560   4.512   5.218  0.0342 -0.0325  0.3136
  190POPC   GL1 2824   1.655   4.879   5.457  0.0465 -0.0355  0.2367
  190POPC   GL2 2825   1.521   5.242   5.408  0.1314  0.3793  0.3143
  190POPC   C1A 2826   1.758   4.987   5.926 -0.1810 -0.2889 -0.1367
  190POPC   D2A 2827   1.721   5.005   6.368 -0.1402  0.2655  0.0704
  190POPC   C3A 2828   2.030   5.130   6.567 -0.0571 -0.3182 -0.0681
  190POPC   C4A 2829   2.326   5.090   6.887 -0.0875  0.1082 -0.1887
  190POPC   C1B 2830   1.777   5.448   5.753 -0.0192  0.0550 -0.3507
  190POPC   C2B 2831   2.013   5.389   6.091  0.0035 -0.2019 -0.0623
  190POPC   C3B 2832   2.364   5.261   6.208  0.0279  0.0932 -0.0093
  190POPC   C4B 2833   2.582   4.977   6.462  0.0745  0.4403 -0.1795
  191POPC   NC3 2834   6.771   1.731   5.753  0.0610  0.1483 -0.0394
  191POPC   PO4 2835   6.475   1.510   5.741  0.1013  0.1310 -0.0466
  191POPC   GL1 2836   6.418   1.797   6.073 -0.2202 -0.2335  0.0692
  191POPC   GL2 2837   6.680   1.859   6.296 -0.1571 -0.0541 -0.2098
  191POPC   C1A 2838   6.104   1.941   6.301  0.1360  0.1030  0.1799
  191POPC   D2A 2839   6.041   2.337   6.397 -0.0514  0.1907  0.2698
  191POPC   C3A 2840   5.818   2.302   6.797  0.1027  0.0250 -0.4911
  191POPC   C4A 2841   5.580   2.587   7.150 -0.1594 -0.1477  0.0364
  191POPC   C1B 2842   6.586   1.599   6.563 -0.0963  0.0023  0.1354
  191POPC   C2B 2843   6.607   1.700   7.014 -0.0258  0.0050  0.0679
  191POPC   C3B 2844   6.748   1.491   7.381 -0.1368 -0.0454 -0.2169
  191POPC   C4B 2845   7.022   1.247   7.555  0.1163 -0.0754 -0.0319
  192POPC   NC3 2846   3.261   1.093   5.454  0.3494  0.0410  0.1131
  192POPC   PO4 2847   3.505   0.786   5.413 -0.1868 -0.2910  0.3017
  192POPC   GL1 2848   3.597   0.889   5.798 -0.1427 -0.0251  0.2653
  192POPC   GL2 2849   3.493   0.737   6.097 -0.2529  0.1236 -0.1662
  192POPC   C1A 2850   3.591   1.268   6.100 -0.4604 -0.2218 -0.0143
  192POPC   D2A 2851   3.396   1.433   6.395  0.1590  0.0781 -0.1634
  192POPC   C3A 2852   3.410   1.040   6.699  0.2694  0.2491 -0.0891
  192POPC   C4A 2853   3.158   0.994   6.968  0.0718  0.0124  0.1104
  192POPC   C1B 2854   3.187   0.670   6.389 -0.3196  0.2747  0.1942
  192POPC   C2B 2855   3.128   0.518   6.804  0.0206  0.1330  0.1794
  192POPC   C3B 2856   3.014   0.553   7.203 -0.1878  0.1451 -0.3092
  192POPC   C4B 2857   3.039   0.544   7.702 -0.2599  0.3829  0.2649
  193POPC   NC3 2858   3.510   3.781   3.686  0.1283  0.4021 -0.4100
  193POPC   PO4 2859   4.015   3.777   3.727  0.1430 -0.2380  0.1055
  193POPC   GL1 2860   4.372   3.927   4.126  0.3845  0.2845  0.1254
  193POPC   GL2 2861   4.358   4.280   4.045 -0.2077  0.2304 -0.6827
  193POPC   C1A 2862   4.238   3.832   4.531 -0.1472 -0.0759 -0.1348
  193POPC   D2A 2863   4.466   3.653   4.821  0.3394 -0.0078 -0.0885
  193POPC   C3A 2864   4.173   3.723   5.149  0.1346 -0.0241  0.1023
  193POPC   C4A 2865   4.331   3.970   5.495 -0.0288 -0.1050  0.1467
  193POPC   C1B 2866   4.168   4.394   4.397  0.2189 -0.1059  0.0026
  193POPC   C2B 2867   3.995   4.523   4.702  0.4774 -0.0009 -0.2219
  193POPC   C3B 2868   4.064   4.799   4.959  0.3418 -0.2244  0.0549
  193POPC   C4B 2869   3.919   4.811   5.317 -0.1524  0.1571  0.1824
  194POPC   NC3 2870   1.015   6.122   4.675 -0.0211  0.1448 -0.0669
  194POPC   PO4 2871   1.151   5.905   4.991 -0.1863 -0.1776 -0.0272
  194POPC   GL1 2872   1.102   5.828   5.354 -0.1414 -0.1514 -0.0566
  194POPC   GL2 2873   1.363   5.703   5.579 -0.2849 -0.2595 -0.2894
  194POPC   C1A 2874   1.109   6.171   5.691 -0.0608  0.0231  0.0020
  194POPC   D2A 2875   1.209   6.250   6.131 -0.1852 -0.1878 -0.4832
  194POPC   C3A 2876   1.489   6.556   6.354 -0.3315  0.0493  0.0735
  194POPC   C4A 2877   1.629   6.869   6.291  0.0638 -0.0337 -0.0428
  194POPC   C1B 2878   1.574   5.845   5.964 -0.1221  0.3172  0.0626
  194POPC   C2B 2879   1.649   6.040   6.364 -0.1661 -0.1519  0.1086
  194POPC   C3B 2880   1.858   6.067   6.684 -0.4494  0.2360 -0.1072
  194POPC   C4B 2881   1.745   6.208   7.158 -0.0887 -0.4515  0.0794
  195POPC   NC3 2882   0.027  10.017   4.998  0.0401 -0.1467 -0.3823
  195POPC   PO4 2883   0.175  10.243   5.199 -0.0448 -0.3724  0.1021
  195POPC   GL1 2884   0.384  10.467   5.455 -0.1826 -0.2705 -0.0822
  195POPC   GL2 2885   0.461  10.675   5.459  0.0042 -0.0422 -0.2245
  195POPC   C1A 2886   0.732  10.310   5.733  0.1413 -0.0396 -0.1382
  195POPC   D2A 2887   0.946  10.131   6.105  0.0156 -0.0740  0.0220
  195POPC   C3A 2888   1.318   9.923   6.098 -0.3371 -0.0066 -0.0341
  195POPC   C4A 2889   1.711  10.179   6.012  0.4021  0.0964  0.1007
  195POPC   C1B 2890   0.767  10.989   5.611 -0.2510  0.0427 -0.1814
  195POPC   C2B 2891   0.929  11.236   5.900 -0.2671 -0.0880 -0.0553
  195POPC   C3B 2892   0.870  11.323   6.235 -0.1895 -0.2954 -0.1639
  195POPC   C4B 2893   0.526  11.341   6.474 -0.1359 -0.2594 -0.0271
  196POPC   NC3 2894   3.172   3.032   4.272  0.0675  0.0280  0.2655
  196POPC   PO4 2895   3.499   3.339   4.388  0.4034  0.1490 -0.0330
  196POPC   GL1 2896   3.594   3.706   4.356 -0.0916  0.1048 -0.0311
  196POPC   GL2 2897   3.320   3.839   4.560 -0.0539  0.2126 -0.3572
  196POPC   C1A 2898   3.743   4.041   4.586  0.1457  0.0856 -0.0288
  196POPC   D2A 2899   3.755   4.093   4.971 -0.1106  0.0478  0.0341
  196POPC   C3A 2900   3.837   3.926   5.427  0.2045  0.2109 -0.0489
  196POPC   C4A 2901   3.771   3.997   5.880  0.0414 -0.0255 -0.2503
  196POPC   C1B 2902   3.273   3.946   4.950  0.0865 -0.0862 -0.0060
  196POPC   C2B 2903   3.310   4.240   5.233  0.0378 -0.0447  0.1417
  196POPC   C3B 2904   3.541   4.458   5.519  0.1332  0.3968  0.3422
  196POPC   C4B 2905   3.629   4.490   6.024 -0.0050  0.0605 -0.0833
  197POPC   NC3 2906   4.466   6.156   3.560 -0.1405  0.2388 -0.1612
  197POPC   PO4 2907   4.725   5.896   3.506 -0.2990 -0.0485 -0.2035
  197POPC   GL1 2908   4.986   5.879   3.829 -0.0213  0.0372 -0.0280
  197POPC   GL2 2909   5.157   5.540   3.926 -0.0656  0.2794 -0.0010
  197POPC   C1A 2910   4.950   5.858   4.311  0.1512 -0.1883  0.2182
  197POPC   D2A 2911   4.859   5.573   4.680  0.0566  0.0144 -0.0181
  197POPC   C3A 2912   4.951   5.545   5.063 -0.0125  0.2060 -0.0974
  197POPC   C4A 2913   4.939   5.245   5.327 -0.1756 -0.2177 -0.0595
  197POPC   C1B 2914   5.190   5.382   4.372  0.0494  0.0516  0.1414
  197POPC   C2B 2915   5.307   5.243   4.747 -0.1010 -0.1219  0.0692
  197POPC   C3B 2916   5.438   5.281   5.139 -0.0262 -0.1830  0.1697
  197POPC   C4B 2917   5.369   4.967   5.421  0.1645 -0.1160 -0.0304
  198POPC   NC3 2918   4.688   2.265   4.806  0.0169  0.1938  0.1233
  198POPC   PO4 2919   4.644   2.650   4.743  0.1136 -0.2049  0.0038
  198POPC   GL1 2920   4.949   3.038   4.832  0.1629 -0.0475  0.1118
  198POPC   GL2 2921   5.372   2.997   4.954 -0.0809  0.0884 -0.1526
  198POPC   C1A 2922   4.891   3.426   5.092  0.0052  0.1645 -0.0933
  198POPC   D2A 2923   4.722   3.849   5.207  0.0167  0.0553  0.0921
  198POPC   C3A 2924   4.879   4.283   5.161  0.1994 -0.0406 -0.1458
  198POPC   C4A 2925   5.039   4.445   4.805  0.0839 -0.0144 -0.1250
  198POPC   C1B 2926   5.427   3.390   5.045 -0.0464 -0.1422  0.2789
  198POPC   C2B 2927   5.737   3.738   5.034  0.1976 -0.1885  0.0793
  198POPC   C3B 2928   6.142   3.959   5.113  0.1399  0.0564  0.2650
  198POPC   C4B 2929   6.293   4.336   4.977  0.0724  0.1278 -0.0502
  199POPC   NC3 2930   4.497   9.673   5.078 -0.2232  0.0463  0.3430
  199POPC   PO4 2931   4.829   9.490   5.370 -0.0355 -0.1474  0.1216
  199POPC   GL1 2932   4.924   9.284   5.723  0.1891 -0.0218 -0.1171
  199POPC   GL2 2933   5.252   9.250   5.827  0.0692  0.0169  0.2193
  199POPC   C1A 2934   4.869   9.278   6.175  0.0160  0.0543 -0.0896
  199POPC   D2A 2935   5.053   9.140   6.523 -0.1638  0.3491 -0.1027
  199POPC   C3A 2936   4.851   8.915   6.740  0.4646  0.4459 -0.1737
  199POPC   C4A 2937   4.321   8.842   6.776  0.1676  0.0143 -0.1476
  199POPC   C1B 2938   5.383   9.427   6.253  0.0044 -0.2478  0.1127
  199POPC   C2B 2939   5.001   9.641   6.534  0.1093  0.0630 -0.1426
  199POPC   C3B 2940   4.575   9.437   6.603  0.0978 -0.1109 -0.1513
  199POPC   C4B 2941   4.118   9.268   6.538 -0.0919  0.1188 -0.3604
  200POPC   NC3 2942   5.252   5.761   3.454  0.1651 -0.1635 -0.1859
  200POPC   PO4 2943   5.381   6.121   3.603 -0.1090 -0.0290  0.1153
  200POPC   GL1 2944   5.494   6.073   4.007  0.1511  0.2913  0.1311
  200POPC   GL2 2945   5.732   5.861   4.052  0.3791  0.1801 -0.1438
  200POPC   C1A 2946   5.444   6.012   4.463 -0.1178  0.1284 -0.0855
  200POPC   D2A 2947   5.357   5.769   4.776 -0.0177  0.0923 -0.1690
  200POPC   C3A 2948   5.701   5.659   5.144 -0.4449 -0.1476  0.1698
  200POPC   C4A 2949   6.088   5.801   5.286 -0.1034  0.2807  0.0493
  200POPC   C1B 2950   5.982   6.045   4.243 -0.0804 -0.0018 -0.3071
  200POPC   C2B 2951   6.186   6.132   4.543 -0.1274  0.2118  0.0464
  200POPC   C3B 2952   6.101   6.465   4.751 -0.1561  0.0122 -0.2158
  200POPC   C4B 2953   5.703   6.670   4.823  0.0919  0.0988 -0.2864
  201POPC   NC3 2954   0.647   9.070   5.779 -0.4232 -0.0638 -0.5489
  201POPC   PO4 2955   0.294   9.099   5.428  0.1948 -0.1295 -0.3357
  201POPC   GL1 2956   0.329   9.395   5.629  0.2350 -0.2220  0.2754
  201POPC   GL2 2957   0.203   9.308   5.911 -0.1546  0.1287  0.0407
  201POPC   C1A 2958   0.540   9.727   5.962 -0.1297 -0.1064 -0.1147
  201POPC   D2A 2959   0.482  10.011   6.413  0.3423 -0.1005 -0.3013
  201POPC   C3A 2960   0.368   9.929   6.780  0.0044 -0.0440  0.2777
  201POPC   C4A 2961   0.169   9.940   7.170 -0.0326 -0.1107 -0.3283
  201POPC   C1B 2962   0.293   9.322   6.358  0.3604  0.1634 -0.1823
  201POPC   C2B 2963   0.387   9.396   6.774 -0.0976 -0.2393 -0.3826
  201POPC   C3B 2964   0.541   9.622   7.146 -0.0556  0.2201 -0.0599
  201POPC   C4B 2965   0.711   9.896   7.309  0.1155 -0.3166 -0.0484
  202POPC   NC3 2966   9.784   8.096   5.780 -0.2551 -0.1931  0.1582
  202POPC   PO4 2967  10.233   7.968   5.881 -0.0890  0.2188  0.1220
  202POPC   GL1 2968  10.540   7.748   6.216 -0.0289  0.2563 -0.2723
  202POPC   GL2 2969  10.702   8.034   6.259  0.0042  0.1959  0.0052
  202POPC   C1A 2970  10.588   7.686   6.613 -0.2044 -0.2489  0.1098
  202POPC   D2A 2971  10.658   7.558   7.039  0.1828  0.0013 -0.1019
  202POPC   C3A 2972  10.905   7.331   7.161  0.0296 -0.3208 -0.1593
  202POPC   C4A 2973  11.354   7.334   7.384 -0.0241  0.0746  0.0674
  202POPC   C1B 2974  11.018   8.062   6.504  0.1642 -0.1014  0.0585
  202POPC   C2B 2975  11.133   8.038   6.949  0.0171  0.4976  0.3293
  202POPC   C3B 2976  11.061   7.739   7.439  0.0472 -0.2485  0.2081
  202POPC   C4B 2977  10.912   7.729   7.880  0.2072 -0.2597 -0.1105
  203POPC   NC3 2978   1.231   8.785   5.102  0.0427 -0.1710 -0.0840
  203POPC   PO4 2979   1.005   8.870   5.356  0.0556 -0.0392 -0.0579
  203POPC   GL1 2980   1.218   8.953   5.799 -0.1624  0.1734  0.3857
  203POPC   GL2 2981   1.202   9.248   5.757 -0.1899 -0.1385 -0.1952
  203POPC   C1A 2982   1.285   8.908   6.286  0.0445  0.3760 -0.1208
  203POPC   D2A 2983   1.619   8.672   6.453 -0.1390 -0.0256 -0.0631
  203POPC   C3A 2984   1.953   8.723   6.411  0.0481  0.1385  0.0965
  203POPC   C4A 2985   2.303   9.054   6.350  0.0389  0.3910  0.0427
  203POPC   C1B 2986   1.362   9.380   6.248  0.3553  0.0359 -0.1885
  203POPC   C2B 2987   1.423   9.689   6.604  0.0932  0.2920 -0.0680
  203POPC   C3B 2988   1.282   9.683   6.968 -0.0993  0.0256 -0.0623
  203POPC   C4B 2989   1.227   9.744   7.479  0.0633  0.1255 -0.2442
  204POPC   NC3 2990   5.482   0.822   5.113 -0.2166 -0.2602  0.2700
  204POPC   PO4 2991   5.384   0.391   5.292  0.2124  0.0970  0.2828
  204POPC   GL1 2992   5.377   0.411   5.811 -0.1978 -0.3361  0.1709
  204POPC   GL2 2993   5.168   0.182   5.933  0.5560 -0.0644 -0.0762
  204POPC   C1A 2994   5.400   0.401   6.279  0.1562  0.0243  0.0197
  204POPC   D2A 2995   5.419   0.296   6.718  0.1911  0.2484  0.1923
  204POPC   C3A 2996   5.232  -0.064   6.875  0.5116 -0.0658 -0.1129
  204POPC   C4A 2997   4.982  -0.375   7.136 -0.2052  0.0739  0.1781
  204POPC   C1B 2998   5.033   0.042   6.361  0.0351 -0.2371 -0.3206
  204POPC   C2B 2999   4.583  -0.007   6.558  0.1081 -0.1811 -0.2906
  204POPC   C3B 3000   4.430   0.172   6.967 -0.1804  0.1187 -0.0641
  204POPC   C4B 3001   4.666  -0.017   7.361  0.1915  0.1490 -0.0927
  205POPC   NC3 3002   1.627   9.909   5.214  0.0456  0.0405  0.1122
  205POPC   PO4 3003   1.824   9.422   5.292 -0.1323 -0.2634 -0.2184
  205POPC   GL1 3004   1.942   9.474   5.716 -0.1564 -0.0092  0.0069
  205POPC   GL2 3005   2.112   9.369   5.970  0.1259  0.4307 -0.0607
  205POPC   C1A 3006   1.815   9.678   6.107  0.0407  0.1258 -0.0596
  205POPC   D2A 3007   1.900  10.010   6.451  0.3232 -0.0538 -0.2464
  205POPC   C3A 3008   1.843   9.590   6.794  0.1922 -0.1874 -0.1088
  205POPC   C4A 3009   2.124   9.233   6.794  0.0809 -0.0879 -0.2777
  205POPC   C1B 3010   2.298   9.525   6.219 -0.0133 -0.3566  0.0946
  205POPC   C2B 3011   2.313   9.749   6.526  0.3500  0.2350  0.0070
  205POPC   C3B 3012   2.196   9.854   6.995 -0.1531 -0.1626  0.0327
  205POPC   C4B 3013   1.985   9.987   7.287 -0.1265 -0.1079  0.0295
  206POPC   NC3 3014   7.503   0.021   4.807  0.1577  0.1309  0.0410
  206POPC   PO4 3015   7.325   0.219   5.264 -0.1874 -0.1199 -0.0117
  206POPC   GL1 3016   7.526   0.070   5.661 -0.1644  0.0197  0.0665
  206POPC   GL2 3017   7.820   0.224   5.694 -0.0620 -0.0640  0.3295
  206POPC   C1A 3018   7.470  -0.001   6.034 -0.2625  0.0716 -0.0684
  206POPC   D2A 3019   7.528  -0.218   6.446  0.4520  0.1210 -0.0263
  206POPC   C3A 3020   7.411  -0.087   6.849  0.0033 -0.1730 -0.2750
  206POPC   C4A 3021   7.213   0.197   7.124 -0.3483  0.2491  0.0291
  206POPC   C1B 3022   7.963   0.020   6.012 -0.0122  0.2806  0.0867
  206POPC   C2B 3023   8.081  -0.188   6.456 -0.0893  0.1926  0.2451
  206POPC   C3B 3024   8.166  -0.085   6.861 -0.0202  0.0415 -0.2595
  206POPC   C4B 3025   8.485  -0.297   7.089  0.2884  0.0957 -0.0244
  207POPC   NC3 3026   3.292   5.690   3.703 -0.1144  0.2077  0.2968
  207POPC   PO4 3027   3.678   5.682   3.798  0.0165  0.1180  0.1558
  207POPC   GL1 3028   3.658   5.662   4.259 -0.0968 -0.4346 -0.2233
  207POPC   GL2 3029   3.284   5.661   4.417 -0.0752 -0.0843  0.3449
  207POPC   C1A 3030   3.969   5.490   4.523 -0.2131 -0.0702  0.0822
  207POPC   D2A 3031   4.277   5.548   4.729 -0.1446  0.0108 -0.0718
  207POPC   C3A 3032   4.417   5.437   5.022 -0.2858 -0.0820  0.2623
  207POPC   C4A 3033   4.491   5.091   5.261 -0.0754 -0.1766  0.1822
  207POPC   C1B 3034   3.503   5.255   4.533 -0.1028  0.3773 -0.0561
  207POPC   C2B 3035   3.833   5.234   4.913  0.0299  0.0937  0.0184
  207POPC   C3B 3036   4.024   5.274   5.317  0.3064  0.0291  0.2546
  207POPC   C4B 3037   4.186   5.407   5.686 -0.1505 -0.1813  0.1492
  208POPC   NC3 3038   2.632   7.722   4.187  0.1961 -0.1704  0.0877
  208POPC   PO4 3039   2.606   7.554   4.662  0.0824  0.1488 -0.0628
  208POPC   GL1 3040   2.954   7.285   4.993  0.1030  0.2890  0.0904
  208POPC   GL2 3041   2.868   6.921   4.997 -0.0597 -0.1327  0.1369
  208POPC   C1A 3042   3.092   7.541   5.390 -0.0741  0.0476  0.6615
  208POPC   D2A 3043   3.386   7.384   5.767 -0.1449  0.0344 -0.1825
  208POPC   C3A 3044   3.583   7.598   6.074 -0.1272  0.0542  0.2265
  208POPC   C4A 3045   3.758   7.773   6.540  0.1656  0.0168  0.1872
  208POPC   C1B 3046   3.150   6.982   5.299  0.2850 -0.0651 -0.2154
  208POPC   C2B 3047   3.564   7.018   5.495  0.3209 -0.0432  0.1223
  208POPC   C3B 3048   3.660   7.037   6.007 -0.1037 -0.0497 -0.5489
  208POPC   C4B 3049   3.591   7.255   6.417 -0.3621 -0.1671  0.1415
  209POPC   NC3 3050   0.788   7.445   4.812  0.2363 -0.0103 -0.1253
  209POPC   PO4 3051   0.968   6.921   5.055  0.2096 -0.2552  0.0695
  209POPC   GL1 3052   0.976   6.732   5.393 -0.0953 -0.0793  0.0006
  209POPC   GL2 3053   0.769   6.606   5.718  0.0205 -0.2796  0.0646
  209POPC   C1A 3054   1.361   6.926   5.744 -0.1304  0.0346 -0.3337
  209POPC   D2A 3055   1.851   6.752   5.779  0.2296 -0.1099  0.1954
  209POPC   C3A 3056   2.164   6.438   5.828  0.0511 -0.1512 -0.1721
  209POPC   C4A 3057   2.510   6.143   5.790  0.2948  0.0151  0.1519
  209POPC   C1B 3058   0.566   6.553   6.136  0.2454  0.2212 -0.2602
  209POPC   C2B 3059   0.477   6.207   6.461  0.0166  0.0147 -0.1346
  209POPC   C3B 3060   0.837   6.048   6.679  0.0806  0.3582 -0.1513
  209POPC   C4B 3061   0.842   5.707   7.006 -0.0137 -0.1937 -0.2451
  210POPC   NC3 3062   8.055   8.095   4.881  0.0578 -0.2372 -0.2119
  210POPC   PO4 3063   8.217   7.839   5.234  0.0741  0.0090  0.3283
  210POPC   GL1 3064   8.279   7.790   5.705 -0.0640  0.1692  0.2224
  210POPC   GL2 3065   8.129   8.040   5.937  0.0414 -0.1721 -0.1219
  210POPC   C1A 3066   8.216   7.643   6.129 -0.0078 -0.0893  0.0261
  210POPC   D2A 3067   8.164   7.382   6.498 -0.2398 -0.0372  0.3172
  210POPC   C3A 3068   8.359   6.981   6.634 -0.2043 -0.0030 -0.0659
  210POPC   C4A 3069   8.201   6.941   7.101  0.2308  0.0213 -0.3077
  210POPC   C1B 3070   7.868   8.017   6.341 -0.0756 -0.0220  0.1609
  210POPC   C2B 3071   7.829   7.787   6.765  0.0847  0.1704  0.2901
  210POPC   C3B 3072   7.635   7.932   7.152 -0.0884 -0.0884  0.1658
  210POPC   C4B 3073   7.474   7.962   7.588 -0.0485 -0.0286 -0.1312
  211POPC   NC3 3074   9.738   2.247   4.996  0.0697 -0.0134  0.0027
  211POPC   PO4 3075   9.685   1.920   5.337 -0.1003  0.0227 -0.2900
  211POPC   GL1 3076   9.606   1.897   5.780  0.4631  0.0117  0.1640
  211POPC   GL2 3077   9.315   2.094   5.786  0.0668 -0.0625  0.1164
  211POPC   C1A 3078   9.680   1.606   6.209  0.0802  0.2736 -0.3508
  211POPC   D2A 3079   9.901   1.589   6.617  0.1360  0.0088  0.1026
  211POPC   C3A 3080  10.118   1.164   6.643 -0.0299 -0.1604  0.1969
  211POPC   C4A 3081  10.341   1.043   6.915 -0.0801  0.1883 -0.0142
  211POPC   C1B 3082   9.334   2.311   6.201  0.2687  0.1633 -0.0811
  211POPC   C2B 3083   9.165   2.616   6.430  0.1572  0.2142  0.0745
  211POPC   C3B 3084   8.801   2.820   6.568  0.1643  0.1322 -0.1629
  211POPC   C4B 3085   8.794   2.916   6.980  0.4901  0.0148  0.0287
  212POPC   NC3 3086   4.101   7.805   4.100 -0.0136 -0.3861  0.2517
  212POPC   PO4 3087   4.309   7.425   3.834  0.2970  0.1628 -0.2404
  212POPC   GL1 3088   4.490   7.460   4.243 -0.3054 -0.1980 -0.0744
  212POPC   GL2 3089   4.370   7.714   4.501  0.2517  0.1218 -0.0885
  212POPC   C1A 3090   4.827   7.613   4.505  0.1507 -0.0026 -0.2279
  212POPC   D2A 3091   5.209   7.714   4.748  0.0633  0.0420  0.0281
  212POPC   C3A 3092   5.120   7.896   5.111  0.1374  0.0886  0.0955
  212POPC   C4A 3093   5.009   8.275   5.461  0.0739  0.1963 -0.0703
  212POPC   C1B 3094   4.342   7.187   4.694  0.2682  0.1356  0.4268
  212POPC   C2B 3095   4.523   7.048   5.022 -0.0795 -0.3242 -0.1885
  212POPC   C3B 3096   4.511   6.748   5.237  0.0932  0.0347  0.1696
  212POPC   C4B 3097   4.390   6.483   5.606 -0.0669 -0.1190  0.2652
  213POPC   NC3 3098   5.970   5.339   3.592  0.0382  0.0462  0.0103
  213POPC   PO4 3099   5.556   5.426   3.580  0.3012  0.4370  0.1142
  213POPC   GL1 3100   5.601   5.349   4.064  0.1799  0.1275  0.2788
  213POPC   GL2 3101   5.831   5.137   4.122 -0.3650 -0.2579 -0.0587
  213POPC   C1A 3102   5.685   5.485   4.476 -0.4950  0.1586 -0.1956
  213POPC   D2A 3103   5.841   5.187   4.839 -0.0834 -0.0784 -0.1050
  213POPC   C3A 3104   5.966   5.322   5.261 -0.0589  0.0363  0.1334
  213POPC   C4A 3105   5.842   5.431   5.597 -0.1717  0.3230  0.5280
  213POPC   C1B 3106   5.561   4.933   4.461 -0.0353  0.1678 -0.1213
  213POPC   C2B 3107   5.427   4.744   4.856 -0.0175 -0.2013  0.0690
  213POPC   C3B 3108   5.394   4.516   5.290 -0.1569 -0.1058  0.0386
  213POPC   C4B 3109   5.307   4.202   5.588 -0.0780  0.1460 -0.0248
  214POPC   NC3 3110   0.440   3.230   5.389  0.3270 -0.1261 -0.0776
  214POPC   PO4 3111   0.006   3.308   5.450 -0.1155  0.1037  0.2084
  214POPC   GL1 3112  -0.059   3.566   5.765  0.2339  0.2166 -0.1430
  214POPC   GL2 3113   0.113   3.742   5.930  0.0329 -0.0212  0.2707
  214POPC   C1A 3114  -0.191   3.565   6.201 -0.1954 -0.1731  0.1784
  214POPC   D2A 3115  -0.523   3.619   6.576 -0.2181 -0.2168  0.1771
  214POPC   C3A 3116  -0.597   3.255   6.627  0.0302  0.0800 -0.0705
  214POPC   C4A 3117  -0.832   2.939   6.836 -0.1832  0.0544  0.0082
  214POPC   C1B 3118   0.054   3.947   6.321 -0.0260 -0.1867  0.0363
  214POPC   C2B 3119  -0.118   3.817   6.766  0.1626  0.0886 -0.1007
  214POPC   C3B 3120  -0.222   4.141   7.146 -0.1304 -0.0322 -0.0696
  214POPC   C4B 3121   0.090   4.099   7.451  0.0683  0.1409 -0.0669
  215POPC   NC3 3122   0.316   8.621   5.221  0.0044 -0.1792  0.0810
  215POPC   PO4 3123   0.556   8.601   5.543 -0.1302 -0.2380 -0.2416
  215POPC   GL1 3124   0.848   8.419   5.880 -0.0770 -0.0584 -0.2384
  215POPC   GL2 3125   0.833   8.582   6.210  0.0581  0.3939 -0.1445
  215POPC   C1A 3126   1.364   8.510   6.047  0.2069 -0.0953  0.2612
  215POPC   D2A 3127   1.772   8.338   6.085  0.3459 -0.1171 -0.4098
  215POPC   C3A 3128   1.825   8.191   6.576 -0.2413 -0.0763  0.0874
  215POPC   C4A 3129   2.004   8.308   6.964  0.1769 -0.5034 -0.0628
  215POPC   C1B 3130   1.165   8.472   6.509  0.2247  0.0323  0.2191
  215POPC   C2B 3131   1.194   8.797   6.854  0.0345  0.1932 -0.1044
  215POPC   C3B 3132   0.926   9.014   7.151  0.3365  0.0384 -0.0988
  215POPC   C4B 3133   0.970   9.389   7.281 -0.1320 -0.0444  0.4162
  216POPC   NC3 3134   3.701   8.836   5.016 -0.1885  0.1361 -0.1784
  216POPC   PO4 3135   3.491   9.122   5.239 -0.1226 -0.2009  0.4233
  216POPC   GL1 3136   3.669   9.183   5.673  0.0247 -0.1431 -0.0490
  216POPC   GL2 3137   3.800   9.508   5.851 -0.2709 -0.1135  0.0987
  216POPC   C1A 3138   3.626   8.942   6.056 -0.4970 -0.1792 -0.4041
  216POPC   D2A 3139   3.447   8.607   6.374 -0.1128  0.0638 -0.1583
  216POPC   C3A 3140   3.489   8.645   6.895  0.2210 -0.2062 -0.1300
  216POPC   C4A 3141   3.420   8.305   7.174  0.0391  0.0447 -0.3352
  216POPC   C1B 3142   3.748   9.454   6.295 -0.0851 -0.0809  0.1199
  216POPC   C2B 3143   3.725   9.535   6.741  0.4028  0.0629  0.0292
  216POPC   C3B 3144   3.767   9.569   7.174  0.0376 -0.0724  0.0724
  216POPC   C4B 3145   3.752   9.553   7.594 -0.1967  0.0064 -0.3493
  217POPC   NC3 3146   8.922   4.982   5.142  0.0144 -0.0700  0.2528
  217POPC   PO4 3147   8.773   4.591   5.053 -0.3388 -0.3233 -0.0982
  217POPC   GL1 3148   8.991   4.482   5.430  0.0279  0.2365 -0.0409
  217POPC   GL2 3149   9.240   4.360   5.568 -0.1287 -0.2625  0.1797
  217POPC   C1A 3150   8.851   4.552   5.877 -0.1690  0.0870 -0.0140
  217POPC   D2A 3151   8.479   4.515   6.192  0.3267 -0.1610 -0.2229
  217POPC   C3A 3152   8.538   4.563   6.551  0.1715  0.0411 -0.1731
  217POPC   C4A 3153   8.593   4.895   6.924 -0.1075  0.0661 -0.2015
  217POPC   C1B 3154   9.347   4.325   6.016 -0.1650  0.0825 -0.0809
  217POPC   C2B 3155   9.292   4.469   6.397 -0.3494 -0.1499  0.2177
  217POPC   C3B 3156   9.025   4.508   6.724  0.2135  0.0274 -0.1288
  217POPC   C4B 3157   8.791   4.387   7.093  0.2343  0.0763 -0.0118
  218POPC   NC3 3158   6.341   3.190   4.846 -0.1574 -0.2207 -0.0874
  218POPC   PO4 3159   5.953   3.051   4.745  0.0937  0.1355  0.0809
  218POPC   GL1 3160   5.841   3.064   5.173 -0.3970  0.0304  0.0400
  218POPC   GL2 3161   6.008   3.334   5.244 -0.2546  0.1483  0.0741
  218POPC   C1A 3162   5.604   2.789   5.498 -0.1241 -0.0721 -0.3196
  218POPC   D2A 3163   5.554   2.892   5.928  0.0596  0.0661 -0.2043
  218POPC   C3A 3164   5.747   2.717   6.359  0.0125 -0.0261 -0.2988
  218POPC   C4A 3165   5.645   2.855   6.765 -0.0205  0.0212 -0.0638
  218POPC   C1B 3166   5.755   3.346   5.616  0.0610 -0.1187 -0.1064
  218POPC   C2B 3167   5.410   3.564   5.932  0.1390 -0.2218  0.2142
  218POPC   C3B 3168   5.239   3.811   6.126  0.2098  0.3639 -0.2607
  218POPC   C4B 3169   5.017   4.128   6.165 -0.0027  0.2195 -0.2374
  219POPC   NC3 3170   8.245   8.255   5.504  0.1653  0.1135 -0.0408
  219POPC   PO4 3171   7.972   8.533   5.271 -0.0230 -0.1648  0.1392
  219POPC   GL1 3172   7.662   8.397   5.524  0.1501  0.1316  0.0179
  219POPC   GL2 3173   7.338   8.374   5.606  0.0348 -0.1208 -0.0029
  219POPC   C1A 3174   7.678   8.235   5.876 -0.2119  0.1785  0.2479
  219POPC   D2A 3175   7.409   8.055   6.066  0.1786 -0.1466  0.0935
  219POPC   C3A 3176   7.343   7.932   6.467 -0.2619 -0.1634 -0.0707
  219POPC   C4A 3177   7.248   8.106   6.932 -0.1526 -0.0647  0.0675
  219POPC   C1B 3178   7.158   8.444   6.041 -0.1148  0.0394 -0.2939
  219POPC   C2B 3179   7.098   8.501   6.582 -0.1370  0.0010  0.3416
  219POPC   C3B 3180   6.961   8.538   6.979 -0.1726  0.2291 -0.2702
  219POPC   C4B 3181   6.882   8.218   7.290 -0.0722  0.1596 -0.0463
  220POPC   NC3 3182   1.901   2.714   5.100 -0.0195  0.1888  0.0815
  220POPC   PO4 3183   1.643   3.130   5.135 -0.4079 -0.1114 -0.1219
  220POPC   GL1 3184   1.627   3.325   5.526 -0.0391 -0.0412 -0.0407
  220POPC   GL2 3185   1.835   3.559   5.468  0.2558 -0.3150 -0.0791
  220POPC   C1A 3186   1.860   3.404   5.936  0.1322  0.0580 -0.3724
  220POPC   D2A 3187   1.816   3.211   6.325 -0.1246 -0.0257 -0.3146
  220POPC   C3A 3188   1.803   2.884   6.431  0.0275  0.0716 -0.0308
  220POPC   C4A 3189   1.936   2.674   6.860 -0.0518  0.0575 -0.0010
  220POPC   C1B 3190   2.158   3.768   5.642  0.0796 -0.2694 -0.3266
  220POPC   C2B 3191   2.587   3.840   5.860  0.1392 -0.0757 -0.0635
  220POPC   C3B 3192   2.647   4.071   6.266  0.1082  0.0069 -0.1808
  220POPC   C4B 3193   2.978   4.252   6.355  0.0488 -0.0983  0.0384
  221POPC   NC3 3194   2.701   3.143   4.791  0.3718 -0.1986 -0.3330
  221POPC   PO4 3195   3.181   3.030   4.770 -0.1606 -0.0762 -0.1314
  221POPC   GL1 3196   3.176   3.233   5.126 -0.1520 -0.0517  0.3331
  221POPC   GL2 3197   3.194   3.079   5.293  0.0509  0.1847 -0.0254
  221POPC   C1A 3198   3.470   3.546   5.430 -0.0724  0.2036  0.2248
  221POPC   D2A 3199   3.507   3.522   5.835 -0.0901 -0.2010  0.0211
  221POPC   C3A 3200   3.804   3.627   6.212  0.2903 -0.0316 -0.3089
  221POPC   C4A 3201   4.105   3.700   6.566 -0.0126 -0.3865  0.0097
  221POPC   C1B 3202   2.856   2.974   5.649 -0.2960 -0.1156  0.0945
  221POPC   C2B 3203   2.925   2.718   6.105  0.0151  0.3120  0.1445
  221POPC   C3B 3204   2.889   2.548   6.566 -0.0891  0.1175  0.0206
  221POPC   C4B 3205   2.768   2.761   6.995  0.1009  0.3794  0.1939
  222POPC   NC3 3206   9.739   9.704   5.414  0.0860 -0.0366  0.0005
  222POPC   PO4 3207   9.763  10.212   5.305 -0.5385  0.2136 -0.2324
  222POPC   GL1 3208   9.697  10.117   5.707  0.4845 -0.0506  0.1700
  222POPC   GL2 3209   9.396  10.125   5.735 -0.0453 -0.0784 -0.3418
  222POPC   C1A 3210   9.918  10.230   6.085  0.3267 -0.1340  0.1583
  222POPC   D2A 3211  10.191  10.445   6.376  0.0706  0.1591  0.0805
  222POPC   C3A 3212  10.488  10.468   6.701 -0.0043 -0.0229 -0.2629
  222POPC   C4A 3213  10.578  10.764   7.004  0.0842  0.2042  0.3308
  222POPC   C1B 3214   9.346  10.443   6.090  0.4336  0.1465 -0.0638
  222POPC   C2B 3215   9.556  10.628   6.491 -0.2192 -0.1417 -0.1195
  222POPC   C3B 3216   9.541  10.964   6.756  0.0524 -0.2544  0.1826
  222POPC   C4B 3217   9.758  11.349   6.962  0.2342 -0.0482  0.5503
  223POPC   NC3 3218   5.944   9.826   5.476  0.1409 -0.0053 -0.2787
  223POPC   PO4 3219   5.396   9.752   5.387  0.0928 -0.0999  0.1340
  223POPC   GL1 3220   5.495   9.752   5.905 -0.1278  0.2359 -0.0888
  223POPC   GL2 3221   5.346   9.946   6.122  0.1210  0.0120 -0.3184
  223POPC   C1A 3222   5.787   9.661   6.169 -0.1113  0.4601  0.3161
  223POPC   D2A 3223   5.806   9.595   6.604  0.0294  0.2364  0.1659
  223POPC   C3A 3224   5.545   9.594   7.032 -0.1151  0.1976 -0.0351
  223POPC   C4A 3225   5.681   9.436   7.384 -0.0274 -0.0739 -0.3254
  223POPC   C1B 3226   5.535  10.029   6.394 -0.0737  0.2631  0.0788
  223POPC   C2B 3227   5.723  10.048   6.794  0.0953  0.1327 -0.3288
  223POPC   C3B 3228   5.807  10.217   7.170  0.1765 -0.1183 -0.0311
  223POPC   C4B 3229   5.894  10.721   7.440  0.2828 -0.1196  0.2544
  224POPC   NC3 3230   0.029   7.065   5.302  0.0814 -0.3608 -0.1023
  224POPC   PO4 3231   0.369   7.313   5.285 -0.2708 -0.2577 -0.0085
  224POPC   GL1 3232   0.458   7.065   5.745 -0.1954 -0.1986 -0.2166
  224POPC   GL2 3233   0.198   6.931   5.909 -0.0338  0.2177  0.0509
  224POPC   C1A 3234   0.498   7.224   6.184 -0.1551  0.3858  0.2311
  224POPC   D2A 3235   0.595   7.229   6.574 -0.0833  0.1700  0.0271
  224POPC   C3A 3236   1.010   7.133   6.786  0.0948 -0.3435  0.0282
  224POPC   C4A 3237   1.345   6.930   6.718  0.0770  0.2674 -0.0475
  224POPC   C1B 3238   0.059   6.901   6.292  0.3481  0.1280 -0.1432
  224POPC   C2B 3239   0.328   6.761   6.608  0.1428 -0.1369  0.0000
  224POPC   C3B 3240   0.645   6.868   6.956  0.1098 -0.3036  0.2313
  224POPC   C4B 3241   1.006   6.785   7.145 -0.0833  0.0019 -0.0557
  225POPC   NC3 3242   4.513   4.670   2.965 -0.3757  0.2222 -0.0762
  225POPC   PO4 3243   4.651   4.950   3.331 -0.1185 -0.0719 -0.1236
  225POPC   GL1 3244   4.796   4.894   3.738 -0.0495 -0.0975 -0.0191
  225POPC   GL2 3245   4.736   4.633   3.858 -0.1518  0.3724  0.0423
  225POPC   C1A 3246   4.710   5.136   4.045  0.2548 -0.0930 -0.1034
  225POPC   D2A 3247   4.736   5.155   4.487 -0.1585 -0.1137 -0.0834
  225POPC   C3A 3248   4.345   5.090   4.688  0.4090  0.2388  0.0118
  225POPC   C4A 3249   4.004   4.921   4.423  0.1003  0.1005  0.2826
  225POPC   C1B 3250   4.341   4.823   4.081  0.2923  0.1112 -0.0408
  225POPC   C2B 3251   4.229   5.314   4.176 -0.2965 -0.3652 -0.0991
  225POPC   C3B 3252   4.424   5.742   4.255 -0.1114 -0.1877  0.0929
  225POPC   C4B 3253   4.526   6.090   4.540 -0.0703  0.1736 -0.1000
  226POPC   NC3 3254   9.011   8.741   5.737  0.2296  0.4527  0.1260
  226POPC   PO4 3255   9.273   8.366   5.702 -0.1426 -0.0515  0.1957
  226POPC   GL1 3256   9.341   8.161   6.171 -0.0554  0.2179  0.1175
  226POPC   GL2 3257   9.633   8.174   6.218 -0.0899 -0.1558  0.1097
  226POPC   C1A 3258   9.175   8.441   6.620  0.1608  0.2062 -0.2819
  226POPC   D2A 3259   9.171   8.089   6.915 -0.2819 -0.0807  0.3706
  226POPC   C3A 3260   8.781   8.022   7.028  0.0482  0.1123 -0.3038
  226POPC   C4A 3261   8.457   8.359   7.138  0.0350 -0.1444  0.1473
  226POPC   C1B 3262   9.603   8.162   6.628  0.1641 -0.1892 -0.1790
  226POPC   C2B 3263   9.737   8.061   6.965 -0.0924 -0.1411 -0.0891
  226POPC   C3B 3264   9.812   8.029   7.399  0.3374 -0.0951 -0.0014
  226POPC   C4B 3265   9.584   8.030   7.839  0.0608 -0.0076  0.3887
  227POPC   NC3 3266   1.808   6.385   5.066 -0.0754  0.0411 -0.3135
  227POPC   PO4 3267   1.425   6.640   5.122  0.0173 -0.1613  0.1364
  227POPC   GL1 3268   1.490   6.411   5.468 -0.2349  0.1332  0.0379
  227POPC   GL2 3269   1.559   6.059   5.313  0.2516 -0.1693  0.0776
  227POPC   C1A 3270   1.698   6.317   5.922  0.1780  0.0627  0.0480
  227POPC   D2A 3271   1.989   6.490   6.310 -0.3656  0.1272 -0.2726
  227POPC   C3A 3272   2.187   6.871   6.334  0.2087 -0.2029 -0.1376
  227POPC   C4A 3273   2.081   7.194   6.552 -0.2653 -0.0695 -0.1745
  227POPC   C1B 3274   1.949   6.001   5.624  0.1249 -0.2989 -0.2520
  227POPC   C2B 3275   2.087   6.002   6.024  0.0644  0.4510 -0.1340
  227POPC   C3B 3276   2.116   5.798   6.365  0.2098 -0.1124  0.1621
  227POPC   C4B 3277   2.346   5.971   6.769 -0.1497  0.2326 -0.0302
  228POPC   NC3 3278   9.686   4.146   5.256 -0.1008 -0.0679 -0.1252
  228POPC   PO4 3279   9.890   3.976   5.591  0.1696 -0.0017 -0.2346
  228POPC   GL1 3280   9.757   4.019   6.008 -0.0510  0.0413  0.0771
  228POPC   GL2 3281   9.958   4.341   6.023  0.2043  0.1977 -0.0008
  228POPC   C1A 3282   9.659   4.086   6.438 -0.4251  0.0810  0.5570
  228POPC   D2A 3283   9.504   4.156   6.732 -0.1015  0.1331 -0.2123
  228POPC   C3A 3284   9.552   3.866   6.995 -0.2539 -0.0570 -0.3472
  228POPC   C4A 3285   9.793   3.486   7.020  0.0251  0.1447 -0.1618
  228POPC   C1B 3286   9.771   4.608   6.267  0.1940 -0.0344  0.0156
  228POPC   C2B 3287   9.571   4.889   6.553 -0.1089  0.3324  0.3435
  228POPC   C3B 3288   9.584   5.298   6.726 -0.2168 -0.3597  0.2925
  228POPC   C4B 3289   9.257   5.634   6.738 -0.1762  0.4113 -0.1307
  229POPC   NC3 3290   4.351   6.915   3.609  0.2936  0.1519 -0.2009
  229POPC   PO4 3291   3.931   6.917   3.893  0.2854 -0.0966 -0.0326
  229POPC   GL1 3292   3.949   6.795   4.252  0.1539 -0.2123 -0.1206
  229POPC   GL2 3293   3.723   6.666   4.386 -0.0159  0.0065  0.3002
  229POPC   C1A 3294   4.248   6.630   4.542 -0.1734  0.1262  0.1136
  229POPC   D2A 3295   4.167   6.534   4.881 -0.0075  0.0863 -0.0026
  229POPC   C3A 3296   4.094   6.324   5.227 -0.1697 -0.0047 -0.2441
  229POPC   C4A 3297   3.899   6.281   5.563 -0.0377  0.0418  0.3364
  229POPC   C1B 3298   3.904   6.968   4.705 -0.2463  0.1727 -0.0780
  229POPC   C2B 3299   3.983   7.136   5.125 -0.2054 -0.1559  0.0737
  229POPC   C3B 3300   4.036   6.783   5.388  0.2536 -0.1140  0.1945
  229POPC   C4B 3301   3.957   6.723   5.828  0.1365 -0.2295  0.1032
  230POPC   NC3 3302   6.168   0.825   5.474  0.3197 -0.1289  0.0179
  230POPC   PO4 3303   6.100   1.052   5.819 -0.0157 -0.3729 -0.3080
  230POPC   GL1 3304   6.261   1.013   6.194 -0.2461 -0.0896  0.0683
  230POPC   GL2 3305   6.456   1.294   6.184 -0.2384  0.0925 -0.1195
  230POPC   C1A 3306   6.081   0.863   6.635 -0.0916 -0.0622 -0.1964
  230POPC   D2A 3307   5.815   1.023   6.835  0.0521 -0.0549 -0.0409
  230POPC   C3A 3308   5.668   1.062   7.274 -0.0181  0.1108  0.2027
  230POPC   C4A 3309   5.528   0.926   7.695 -0.3314 -0.3440  0.3740
  230POPC   C1B 3310   6.842   1.119   6.448 -0.2694  0.1059  0.1319
  230POPC   C2B 3311   6.956   1.293   6.810 -0.1132  0.0816  0.0934
  230POPC   C3B 3312   6.954   1.029   7.068  0.2841 -0.2308 -0.0925
  230POPC   C4B 3313   6.628   0.979   7.419  0.2485 -0.3158  0.1047
  231POPC   NC3 3314   4.095   3.058   4.973 -0.0467 -0.2086  0.1489
  231POPC   PO4 3315   4.214   2.640   5.138 -0.1280  0.2071  0.2934
  231POPC   GL1 3316   4.076   2.571   5.515  0.2912  0.1386  0.1878
  231POPC   GL2 3317   4.322   2.347   5.698  0.2091 -0.1969  0.2753
  231POPC   C1A 3318   3.803   2.553   5.818 -0.0327  0.0542  0.1592
  231POPC   D2A 3319   3.382   2.603   6.086 -0.0998  0.1692  0.2027
  231POPC   C3A 3320   3.483   2.529   6.536 -0.1384  0.2386 -0.0985
  231POPC   C4A 3321   3.706   2.709   6.906 -0.0147 -0.1764 -0.0854
  231POPC   C1B 3322   4.280   2.539   6.045 -0.3397  0.0526 -0.0737
  231POPC   C2B 3323   4.123   2.774   6.348  0.1285 -0.0575 -0.2236
  231POPC   C3B 3324   4.283   3.173   6.552  0.1070  0.3646 -0.0426
  231POPC   C4B 3325   4.442   3.352   6.864  0.0509  0.0862  0.1044
  232POPC   NC3 3326   3.913   2.140   5.302 -0.3393 -0.2129 -0.0165
  232POPC   PO4 3327   3.630   1.876   5.522  0.3498 -0.0169  0.2157
  232POPC   GL1 3328   3.518   1.766   5.997  0.0640  0.2433 -0.0100
  232POPC   GL2 3329   3.228   1.748   6.054 -0.2222 -0.3941  0.2060
  232POPC   C1A 3330   3.529   1.955   6.408  0.2100  0.2490  0.1802
  232POPC   D2A 3331   3.478   1.927   6.875  0.1536  0.0223 -0.0015
  232POPC   C3A 3332   3.689   2.249   7.099  0.2692  0.0852 -0.0026
  232POPC   C4A 3333   3.794   2.317   7.575 -0.0047 -0.0752  0.1478
  232POPC   C1B 3334   3.057   1.356   5.966 -0.0575 -0.1434 -0.2002
  232POPC   C2B 3335   2.735   1.327   6.223 -0.1892  0.1294 -0.1296
  232POPC   C3B 3336   2.910   1.440   6.513  0.0468  0.0057 -0.4729
  232POPC   C4B 3337   2.752   1.598   6.935 -0.0316 -0.5132 -0.5722
  233POPC   NC3 3338   9.548   1.459   5.481 -0.2813 -0.2248  0.1185
  233POPC   PO4 3339   9.400   0.997   5.492  0.1840 -0.0412  0.2537
  233POPC   GL1 3340   9.400   0.802   5.682 -0.0206 -0.1214  0.0510
  233POPC   GL2 3341   9.600   0.476   5.729  0.1751 -0.1701 -0.1256
  233POPC   C1A 3342   9.398   0.773   6.130 -0.1719 -0.0264  0.2904
  233POPC   D2A 3343   9.126   0.773   6.496  0.1074  0.5381  0.0725
  233POPC   C3A 3344   9.108   1.090   6.804  0.0584  0.1247  0.1286
  233POPC   C4A 3345   8.794   1.259   7.068  0.2750  0.1217 -0.2323
  233POPC   C1B 3346   9.906   0.614   6.002  0.1358 -0.0320  0.0759
  233POPC   C2B 3347   9.871   0.848   6.349 -0.0345  0.0264  0.1859
  233POPC   C3B 3348   9.664   1.165   6.385  0.0949  0.3092  0.1761
  233POPC   C4B 3349   9.212   1.243   6.304 -0.0263  0.2001 -0.2308
  234POPC   NC3 3350   1.925   7.852   5.364 -0.1571  0.1278  0.1696
  234POPC   PO4 3351   2.265   7.921   5.237  0.3853 -0.1062 -0.1817
  234POPC   GL1 3352   2.387   7.997   5.757 -0.1058  0.1738  0.2806
  234POPC   GL2 3353   2.237   8.191   5.960  0.0346 -0.0992 -0.2808
  234POPC   C1A 3354   2.527   7.818   6.130  0.0068  0.2932 -0.0754
  234POPC   D2A 3355   2.346   7.645   6.444 -0.0012  0.0141 -0.1861
  234POPC   C3A 3356   2.390   7.929   6.843  0.3174  0.1188  0.1309
  234POPC   C4A 3357   2.547   8.310   7.157 -0.1366 -0.2114  0.0259
  234POPC   C1B 3358   2.262   8.200   6.393 -0.0769 -0.0166  0.1271
  234POPC   C2B 3359   2.447   8.402   6.646  0.2291  0.2867 -0.1208
  234POPC   C3B 3360   2.676   8.781   6.820 -0.1086  0.1474  0.3473
  234POPC   C4B 3361   2.983   9.103   6.747  0.0627  0.1960  0.2016
  235POPC   NC3 3362   9.480   9.294   5.605  0.3595  0.0151 -0.1352
  235POPC   PO4 3363   9.378   9.053   5.835 -0.0058 -0.0414  0.2655
  235POPC   GL1 3364   9.462   9.009   6.236 -0.2951  0.0844 -0.1054
  235POPC   GL2 3365   9.407   8.652   6.154  0.0381 -0.1153 -0.0016
  235POPC   C1A 3366   9.297   8.911   6.568  0.3389 -0.1774 -0.3463
  235POPC   D2A 3367   9.192   8.834   6.971  0.3128 -0.1796  0.1561
  235POPC   C3A 3368   9.001   9.116   7.051 -0.0071 -0.2188 -0.1109
  235POPC   C4A 3369   8.590   9.320   7.085 -0.2787 -0.0544 -0.1803
  235POPC   C1B 3370   9.698   8.611   6.471 -0.0690 -0.1596 -0.2568
  235POPC   C2B 3371   9.758   8.754   6.882 -0.0151 -0.0844 -0.2056
  235POPC   C3B 3372  10.032   8.879   7.264 -0.0955  0.1650 -0.0962
  235POPC   C4B 3373  10.195   9.063   7.631  0.0160  0.4141  0.0967
  236POPC   NC3 3374   5.015   9.793   5.747  0.2318  0.0793  0.0250
  236POPC   PO4 3375   4.628   9.975   5.498  0.0844 -0.1670  0.2476
  236POPC   GL1 3376   4.668  10.142   5.868 -0.0811 -0.0761 -0.2107
  236POPC   GL2 3377   4.689  10.376   6.068 -0.0337 -0.2620  0.3641
  236POPC   C1A 3378   4.273  10.186   6.170  0.0328  0.0822 -0.0264
  236POPC   D2A 3379   3.994  10.341   6.547 -0.3404 -0.1823 -0.0137
  236POPC   C3A 3380   3.862  10.044   6.919 -0.0372 -0.3257  0.0723
  236POPC   C4A 3381   4.006   9.955   7.437 -0.1982  0.0750 -0.0151
  236POPC   C1B 3382   4.476  10.621   6.543  0.0464 -0.0713 -0.2223
  236POPC   C2B 3383   4.162  10.825   6.732 -0.0289 -0.1089  0.1848
  236POPC   C3B 3384   3.930  11.042   7.009  0.1451  0.2464 -0.1475
  236POPC   C4B 3385   3.882  11.096   7.361  0.0858 -0.3031 -0.0014
  237POPC   NC3 3386   6.175   8.960   5.084  0.0256 -0.0094 -0.0793
  237POPC   PO4 3387   6.200   8.485   5.020  0.1719 -0.0509  0.0416
  237POPC   GL1 3388   6.118   8.050   5.240 -0.1947  0.2766  0.0371
  237POPC   GL2 3389   6.108   7.745   5.134  0.1200 -0.1417 -0.2535
  237POPC   C1A 3390   5.897   8.027   5.643  0.1286  0.0305 -0.2370
  237POPC   D2A 3391   5.824   8.128   6.083  0.3026  0.0081  0.3773
  237POPC   C3A 3392   5.636   8.333   6.430 -0.1037 -0.3004 -0.1832
  237POPC   C4A 3393   5.553   8.585   6.850  0.2979  0.0060  0.2910
  237POPC   C1B 3394   6.183   7.272   5.395  0.0961 -0.1791 -0.0685
  237POPC   C2B 3395   6.094   6.832   5.629  0.0914  0.4128  0.1394
  237POPC   C3B 3396   5.946   6.426   5.717 -0.3037 -0.0049 -0.1831
  237POPC   C4B 3397   6.312   6.282   5.930 -0.0818  0.0170  0.0726
  238POPC   NC3 3398   7.415   7.507   4.435  0.2765  0.0281  0.1723
  238POPC   PO4 3399   7.776   7.827   4.580  0.1950 -0.0288  0.0324
  238POPC   GL1 3400   7.571   7.634   4.874 -0.0446 -0.1727 -0.1839
  238POPC   GL2 3401   7.679   7.424   5.140 -0.0469  0.0360 -0.1314
  238POPC   C1A 3402   7.273   7.754   5.148 -0.1072  0.1136  0.0198
  238POPC   D2A 3403   7.306   7.864   5.555 -0.2883  0.1296 -0.0124
  238POPC   C3A 3404   6.979   8.011   5.760  0.0352  0.2518 -0.0322
  238POPC   C4A 3405   6.907   8.026   6.218  0.1107 -0.0288 -0.0724
  238POPC   C1B 3406   7.737   7.634   5.572 -0.2431  0.0412  0.2007
  238POPC   C2B 3407   7.699   7.732   5.885 -0.0328 -0.0153 -0.0599
  238POPC   C3B 3408   7.663   7.553   6.327  0.2179 -0.2385  0.2440
  238POPC   C4B 3409   7.706   7.263   6.727 -0.0083 -0.0702  0.1925
  239POPC   NC3 3410   6.576   0.995   5.683 -0.0564  0.2755  0.2603
  239POPC   PO4 3411   6.960   1.181   5.772 -0.2277 -0.0069 -0.0020
  239POPC   GL1 3412   7.157   1.052   6.073  0.1995 -0.0242 -0.0771
  239POPC   GL2 3413   7.518   0.844   6.005  0.2587 -0.0274  0.2299
  239POPC   C1A 3414   7.259   0.920   6.517 -0.0511  0.1207  0.0293
  239POPC   D2A 3415   7.492   1.166   6.785 -0.0261 -0.0229  0.2989
  239POPC   C3A 3416   7.290   1.476   7.142  0.5772 -0.1384 -0.0325
  239POPC   C4A 3417   7.568   1.955   7.078  0.3534 -0.1215 -0.0084
  239POPC   C1B 3418   7.529   0.494   6.206  0.1374  0.0182 -0.0006
  239POPC   C2B 3419   7.793   0.233   6.485  0.3100  0.1962  0.1535
  239POPC   C3B 3420   7.802   0.192   6.984  0.1079  0.1583 -0.2393
  239POPC   C4B 3421   7.941  -0.082   7.387 -0.0492 -0.5619  0.3096
  240POPC   NC3 3422   7.678   2.155   5.746  0.4507 -0.1833 -0.1756
  240POPC   PO4 3423   7.645   2.561   5.566  0.0642 -0.1862 -0.1065
  240POPC   GL1 3424   7.589   2.860   5.911  0.1517  0.0054  0.0212
  240POPC   GL2 3425   7.876   2.770   6.150 -0.1161 -0.0463  0.2365
  240POPC   C1A 3426   7.273   3.075   6.001 -0.1822  0.2455  0.1174
  240POPC   D2A 3427   7.043   3.397   6.252  0.3507  0.3728 -0.3004
  240POPC   C3A 3428   7.258   3.738   6.552  0.0068 -0.0233 -0.2315
  240POPC   C4A 3429   7.328   3.493   6.949  0.0850  0.0812  0.4355
  240POPC   C1B 3430   7.773   2.616   6.622 -0.0048  0.1334  0.0736
  240POPC   C2B 3431   7.776   2.524   7.032 -0.1360 -0.0223 -0.3819
  240POPC   C3B 3432   7.686   2.310   7.371 -0.2462 -0.0267 -0.3293
  240POPC   C4B 3433   7.410   2.539   7.694 -0.0916  0.0144 -0.3744
  241POPC   NC3 3434   7.301   1.059   5.415  0.1304  0.0975  0.1283
  241POPC   PO4 3435   7.702   1.222   5.636  0.1220  0.0819  0.1208
  241POPC   GL1 3436   7.800   1.380   6.048 -0.0209  0.0204  0.3542
  241POPC   GL2 3437   7.468   1.355   6.259  0.1751  0.1629 -0.1977
  241POPC   C1A 3438   7.907   1.212   6.483  0.0377 -0.1890 -0.0061
  241POPC   D2A 3439   7.954   1.140   6.947 -0.0855 -0.1720  0.1387
  241POPC   C3A 3440   7.817   1.361   7.244  0.4339  0.4122  0.2574
  241POPC   C4A 3441   7.789   1.734   7.488 -0.2489 -0.2621 -0.1087
  241POPC   C1B 3442   7.198   1.676   6.553  0.0932 -0.3801 -0.3960
  241POPC   C2B 3443   7.015   2.003   6.832 -0.0016 -0.0640  0.0243
  241POPC   C3B 3444   6.884   2.106   7.141 -0.1668 -0.0891  0.0061
  241POPC   C4B 3445   6.660   2.014   7.469  0.0022  0.3203 -0.1578
  242POPC   NC3 3446   5.410   9.173   4.790  0.1827  0.3145 -0.0178
  242POPC   PO4 3447   5.660   8.947   5.057  0.1188 -0.0802 -0.0620
  242POPC   GL1 3448   5.633   9.024   5.564  0.0446  0.1964  0.2730
  242POPC   GL2 3449   5.796   9.326   5.652 -0.1139 -0.1196  0.1281
  242POPC   C1A 3450   5.510   8.833   5.898 -0.2869  0.1159  0.0194
  242POPC   D2A 3451   5.445   8.838   6.366  0.0892  0.0095 -0.2434
  242POPC   C3A 3452   5.509   9.147   6.770  0.1356  0.1646 -0.0700
  242POPC   C4A 3453   5.205   9.249   6.999 -0.1095 -0.1418  0.2014
  242POPC   C1B 3454   5.876   9.127   6.138 -0.1442 -0.0216 -0.0464
  242POPC   C2B 3455   5.921   9.015   6.502  0.0158 -0.1814  0.0428
  242POPC   C3B 3456   6.051   8.572   6.631 -0.2935  0.0583  0.1875
  242POPC   C4B 3457   6.160   8.120   6.399 -0.1974 -0.0287  0.2068
  243POPC   NC3 3458   0.513   6.818   5.279 -0.2367  0.2915  0.0906
  243POPC   PO4 3459   0.245   6.545   5.599 -0.1653 -0.0720 -0.2501
  243POPC   GL1 3460   0.050   6.148   5.766  0.1056  0.0126  0.0272
  243POPC   GL2 3461   0.233   5.898   5.742  0.0925 -0.0165  0.1323
  243POPC   C1A 3462  -0.279   6.029   6.099  0.0826  0.0324 -0.2539
  243POPC   D2A 3463  -0.549   5.785   6.413  0.0223  0.0333 -0.2132
  243POPC   C3A 3464  -0.717   6.187   6.654 -0.1569  0.0023  0.2606
  243POPC   C4A 3465  -0.759   6.507   6.906 -0.2103  0.2174 -0.1207
  243POPC   C1B 3466   0.638   5.948   5.995 -0.1536 -0.1081  0.0653
  243POPC   C2B 3467   0.589   5.725   6.407  0.2466 -0.0894 -0.1377
  243POPC   C3B 3468   0.716   5.406   6.640  0.1508  0.5030  0.2401
  243POPC   C4B 3469   0.821   5.141   6.996  0.0498  0.0582  0.0638
  244POPC   NC3 3470   8.144   6.397   4.721 -0.4624 -0.0060 -0.0351
  244POPC   PO4 3471   8.155   6.792   4.967 -0.1959 -0.2222  0.1669
  244POPC   GL1 3472   8.184   6.626   5.315  0.1323  0.0043 -0.3717
  244POPC   GL2 3473   8.323   6.867   5.544 -0.1293  0.0893 -0.1134
  244POPC   C1A 3474   7.933   6.499   5.720  0.1948  0.0357 -0.0940
  244POPC   D2A 3475   7.675   6.534   6.031  0.1458  0.1502 -0.1596
  244POPC   C3A 3476   7.480   6.217   6.181  0.0405  0.1737  0.3037
  244POPC   C4A 3477   7.055   6.195   6.360 -0.2639  0.0929  0.3408
  244POPC   C1B 3478   8.413   7.073   5.964  0.1477  0.0548 -0.2526
  244POPC   C2B 3479   8.573   7.351   6.268 -0.2870 -0.3696 -0.1742
  244POPC   C3B 3480   8.929   7.665   6.299  0.0274 -0.0207  0.2930
  244POPC   C4B 3481   8.923   7.962   6.537 -0.3947  0.0414 -0.0427
  245POPC   NC3 3482   1.938   3.074   4.705 -0.0207 -0.0331 -0.0553
  245POPC   PO4 3483   2.252   3.076   4.934  0.1065  0.3985 -0.1855
  245POPC   GL1 3484   2.137   3.145   5.325  0.2371  0.1834  0.1220
  245POPC   GL2 3485   2.055   2.954   5.506  0.0368 -0.0100  0.1377
  245POPC   C1A 3486   2.372   3.308   5.757  0.1111 -0.0904  0.1367
  245POPC   D2A 3487   2.360   3.572   6.174 -0.1968 -0.0659 -0.1999
  245POPC   C3A 3488   2.183   3.433   6.509 -0.2097  0.0682  0.2191
  245POPC   C4A 3489   2.052   3.451   6.963 -0.0159 -0.1121 -0.1557
  245POPC   C1B 3490   2.013   2.956   5.870  0.1060  0.1243 -0.0582
  245POPC   C2B 3491   2.313   3.035   6.203 -0.1550  0.0905 -0.1129
  245POPC   C3B 3492   2.687   3.121   6.505 -0.0388 -0.0599 -0.0283
  245POPC   C4B 3493   2.959   3.352   6.810 -0.0684  0.1759  0.0474
  246POPC   NC3 3494   8.379   0.195   5.040  0.1148  0.0230  0.3098
  246POPC   PO4 3495   8.405  -0.040   5.374 -0.0415  0.2400  0.2968
  246POPC   GL1 3496   8.633  -0.097   5.699  0.0207  0.3203  0.1097
  246POPC   GL2 3497   8.898  -0.095   5.662  0.1696  0.3002  0.1770
  246POPC   C1A 3498   8.559  -0.204   6.136  0.0194  0.3686  0.0652
  246POPC   D2A 3499   8.713  -0.109   6.570  0.0478  0.0664  0.1329
  246POPC   C3A 3500   8.600   0.161   6.810 -0.1018 -0.2371 -0.2322
  246POPC   C4A 3501   8.473   0.253   7.197 -0.4468 -0.0192  0.0767
  246POPC   C1B 3502   9.056  -0.204   6.125 -0.1936 -0.3158  0.1391
  246POPC   C2B 3503   9.167  -0.271   6.539 -0.2306  0.4762 -0.0876
  246POPC   C3B 3504   9.564  -0.497   6.753  0.3611 -0.0092  0.0338
  246POPC   C4B 3505   9.891  -0.391   6.971  0.2878  0.1278  0.2812
  247POPC   NC3 3506   4.624   8.792   4.189  0.1265 -0.0437  0.0120
  247POPC   PO4 3507   4.144   8.649   4.193  0.1150  0.0744  0.0700
  247POPC   GL1 3508   4.303   8.281   4.367 -0.1499  0.1457 -0.0023
  247POPC   GL2 3509   4.527   8.370   4.582  0.0303 -0.0813  0.1946
  247POPC   C1A 3510   4.199   8.072   4.870 -0.2970 -0.3272  0.2702
  247POPC   D2A 3511   4.022   8.074   5.325 -0.0900  0.0814  0.2106
  247POPC   C3A 3512   4.237   8.034   5.702  0.1857 -0.1419 -0.2965
  247POPC   C4A 3513   4.516   7.748   5.833  0.0559  0.0890  0.2272
  247POPC   C1B 3514   4.701   8.022   4.829 -0.3688 -0.0646  0.2256
  247POPC   C2B 3515   4.496   7.915   5.223  0.0714 -0.0378 -0.1138
  247POPC   C3B 3516   4.280   7.572   5.399 -0.0900 -0.1241 -0.0006
  247POPC   C4B 3517   4.388   7.190   5.495  0.0231  0.0951  0.0666
  248POPC   NC3 3518   7.141   9.188   4.968  0.1498  0.0930 -0.1333
  248POPC   PO4 3519   7.527   9.376   5.244  0.1681 -0.2666 -0.5432
  248POPC   GL1 3520   7.548   9.305   5.722 -0.0407 -0.4002 -0.0020
  248POPC   GL2 3521   7.601   9.724   5.868 -0.2805 -0.1471 -0.0631
  248POPC   C1A 3522   7.792   9.182   5.984 -0.0402 -0.0979 -0.0564
  248POPC   D2A 3523   8.051   8.972   6.275 -0.0901  0.2696  0.0316
  248POPC   C3A 3524   8.289   9.081   6.647  0.0392 -0.2135 -0.2217
  248POPC   C4A 3525   8.085   9.147   7.132 -0.0783  0.0547  0.5365
  248POPC   C1B 3526   7.370   9.438   6.195  0.4246  0.0572  0.0424
  248POPC   C2B 3527   7.199   9.578   6.624 -0.0231 -0.2072  0.3129
  248POPC   C3B 3528   7.017   9.445   6.985 -0.2015 -0.0355  0.1036
  248POPC   C4B 3529   6.880   9.512   7.368  0.0843 -0.2217  0.0523
  249POPC   NC3 3530   7.468   9.888   5.276 -0.0951 -0.1086 -0.0351
  249POPC   PO4 3531   7.101   9.620   5.341  0.2480  0.1262 -0.0874
  249POPC   GL1 3532   7.041   9.664   5.835 -0.2066 -0.3513 -0.3953
  249POPC   GL2 3533   6.833   9.507   5.871  0.1057  0.0784 -0.2151
  249POPC   C1A 3534   7.029   9.904   6.208  0.0817  0.3457  0.0726
  249POPC   D2A 3535   7.070  10.087   6.541  0.2931  0.0107 -0.0592
  249POPC   C3A 3536   7.330  10.534   6.650  0.1387 -0.0248  0.0073
  249POPC   C4A 3537   7.249  10.826   6.935  0.0621 -0.3597 -0.2007
  249POPC   C1B 3538   6.796   9.356   6.236 -0.2936  0.0425 -0.1804
  249POPC   C2B 3539   6.776   9.151   6.663  0.0885 -0.2068  0.0681
  249POPC   C3B 3540   6.648   9.020   7.123 -0.1633 -0.3362  0.5617
  249POPC   C4B 3541   6.418   8.950   7.280 -0.2684  0.1887  0.0596
  250POPC   NC3 3542   1.131   2.874   5.255  0.1971 -0.3084  0.2093
  250POPC   PO4 3543   1.004   3.265   5.264 -0.2439 -0.0477 -0.2272
  250POPC   GL1 3544   1.139   3.624   5.583  0.0342  0.0747  0.0945
  250POPC   GL2 3545   1.015   3.892   5.726  0.1224 -0.0469  0.0219
  250POPC   C1A 3546   1.550   3.779   5.842 -0.0623  0.0801 -0.3315
  250POPC   D2A 3547   1.498   4.024   6.052  0.1280 -0.4753  0.4852
  250POPC   C3A 3548   1.239   4.073   6.380  0.1633 -0.3943 -0.1040
  250POPC   C4A 3549   1.264   3.876   6.823  0.1760  0.2228 -0.0100
  250POPC   C1B 3550   0.801   3.810   6.123  0.3318 -0.2977  0.2644
  250POPC   C2B 3551   0.837   3.787   6.513  0.0714 -0.3091  0.2771
  250POPC   C3B 3552   0.676   3.689   6.967  0.0035 -0.4065  0.1655
  250POPC   C4B 3553   0.659   4.118   7.250  0.4581 -0.0733  0.0345
  251POPC   NC3 3554   8.293   0.417   5.510  0.1167  0.0200 -0.0009
  251POPC   PO4 3555   8.048   0.890   5.440  0.4296 -0.0471  0.3058
  251POPC   GL1 3556   8.023   0.843   5.830 -0.4148 -0.0955 -0.2662
  251POPC   GL2 3557   8.306   0.734   5.854 -0.0197 -0.5077  0.0908
  251POPC   C1A 3558   7.942   0.707   6.251  0.0816  0.0192 -0.2797
  251POPC   D2A 3559   7.690   0.741   6.703 -0.1357  0.2845 -0.0280
  251POPC   C3A 3560   7.701   0.635   7.174 -0.2282  0.1907 -0.0239
  251POPC   C4A 3561   7.561   0.448   7.575 -0.0770 -0.0257 -0.1861
  251POPC   C1B 3562   8.232   1.153   6.097 -0.1180 -0.0651  0.2164
  251POPC   C2B 3563   8.469   1.480   6.207  0.2085  0.0199 -0.2268
  251POPC   C3B 3564   8.701   1.411   6.425  0.2113  0.0180  0.2036
  251POPC   C4B 3565   8.800   1.650   6.662  0.0347 -0.2577  0.0580
  252POPC   NC3 3566   4.480   0.819   5.445  0.3097  0.0493 -0.1472
  252POPC   PO4 3567   4.860   1.027   5.368  0.1629 -0.3572 -0.2002
  252POPC   GL1 3568   4.690   1.000   5.874  0.1360  0.4114 -0.1959
  252POPC   GL2 3569   4.943   1.318   5.930  0.1079 -0.0729 -0.1340
  252POPC   C1A 3570   4.423   0.748   6.141 -0.0792  0.0084 -0.1801
  252POPC   D2A 3571   3.958   0.576   6.248  0.1941 -0.0082  0.3143
  252POPC   C3A 3572   3.881   0.989   6.488 -0.1574  0.0866  0.2904
  252POPC   C4A 3573   3.822   1.392   6.667  0.0443 -0.1321  0.1440
  252POPC   C1B 3574   4.678   1.539   6.340 -0.3688  0.1576  0.3106
  252POPC   C2B 3575   4.721   1.510   6.732 -0.0967 -0.0249 -0.1571
  252POPC   C3B 3576   4.788   1.259   7.115  0.0352  0.3845 -0.1326
  252POPC   C4B 3577   4.703   1.405   7.550 -0.0555  0.2263  0.0392
  253POPC   NC3 3578   6.616   9.946   5.545 -0.3781 -0.3556  0.1795
  253POPC   PO4 3579   6.229  10.207   5.703  0.1850 -0.1690  0.0360
  253POPC   GL1 3580   6.148   9.945   5.989 -0.3374  0.0421 -0.0286
  253POPC   GL2 3581   6.482   9.879   6.145  0.0582 -0.1214  0.0430
  253POPC   C1A 3582   6.111  10.009   6.416 -0.1418 -0.0116  0.0880
  253POPC   D2A 3583   6.227  10.085   6.808 -0.2560  0.0444 -0.2517
  253POPC   C3A 3584   6.087   9.773   7.115 -0.1807  0.0198  0.1729
  253POPC   C4A 3585   5.878   9.870   7.560  0.1960  0.0300  0.0018
  253POPC   C1B 3586   6.602   9.770   6.567 -0.0310 -0.0333  0.2186
  253POPC   C2B 3587   6.580   9.737   6.990 -0.1371 -0.1106 -0.0716
  253POPC   C3B 3588   6.404   9.466   7.299  0.2988 -0.0084 -0.0736
  253POPC   C4B 3589   6.071   9.238   7.608  0.1330  0.3074 -0.0864
  254POPC   NC3 3590   2.015   5.578   4.726  0.0569 -0.3564 -0.0514
  254POPC   PO4 3591   1.926   5.933   4.931  0.3106  0.0674  0.0787
  254POPC   GL1 3592   2.013   5.623   5.279  0.1385  0.1663 -0.2156
  254POPC   GL2 3593   2.056   5.304   5.260  0.5377 -0.0726  0.1504
  254POPC   C1A 3594   2.232   5.567   5.677 -0.2499 -0.1004  0.2870
  254POPC   D2A 3595   2.539   5.681   6.033 -0.0883 -0.2313 -0.1586
  254POPC   C3A 3596   2.591   5.976   6.306 -0.1370  0.2620 -0.0977
  254POPC   C4A 3597   2.466   6.352   6.369  0.3678  0.0033 -0.0238
  254POPC   C1B 3598   2.153   5.068   5.667 -0.0983  0.1739 -0.1276
  254POPC   C2B 3599   2.270   4.804   6.017 -0.0077  0.0631  0.1280
  254POPC   C3B 3600   2.682   4.839   6.024 -0.2622 -0.0956  0.1857
  254POPC   C4B 3601   2.995   5.229   6.131 -0.2263  0.0468  0.0920
  255POPC   NC3 3602   1.623   7.548   4.992  0.0597  0.0247 -0.0803
  255POPC   PO4 3603   1.196   7.782   5.150  0.0590 -0.2889 -0.0708
  255POPC   GL1 3604   1.066   7.625   5.627  0.0967 -0.0843 -0.0313
  255POPC   GL2 3605   0.927   7.899   5.849 -0.4907 -0.1043 -0.0883
  255POPC   C1A 3606   0.947   7.258   5.879  0.0610  0.3415  0.0764
  255POPC   D2A 3607   1.113   6.994   6.231 -0.0604  0.0532  0.2891
  255POPC   C3A 3608   0.913   6.686   6.503  0.4032  0.1837  0.0704
  255POPC   C4A 3609   1.254   6.408   6.777  0.1471 -0.1505  0.0410
  255POPC   C1B 3610   0.962   7.689   6.179  0.2246 -0.0121 -0.0006
  255POPC   C2B 3611   0.922   7.599   6.570  0.3470 -0.1250 -0.1136
  255POPC   C3B 3612   1.266   7.548   6.944  0.0940  0.1457  0.1417
  255POPC   C4B 3613   1.447   7.743   7.283 -0.0851 -0.0919 -0.0591
  256POPC   NC3 3614   7.004   0.454   5.637 -0.1154  0.2780  0.2464
  256POPC   PO4 3615   6.537   0.475   5.623  0.0723 -0.0936  0.0906
  256POPC   GL1 3616   6.573   0.294   6.006 -0.1286 -0.0171 -0.1109
  256POPC   GL2 3617   6.793   0.079   5.933  0.0308  0.0969  0.2645
  256POPC   C1A 3618   6.598   0.112   6.408  0.0109  0.3001  0.2147
  256POPC   D2A 3619   6.750   0.097   6.843  0.1213 -0.3003  0.1290
  256POPC   C3A 3620   6.456   0.102   7.287 -0.1155 -0.3269  0.1151
  256POPC   C4A 3621   6.115   0.114   7.517  0.0604  0.1527 -0.0648
  256POPC   C1B 3622   7.033   0.328   6.237 -0.2089 -0.0744 -0.0627
  256POPC   C2B 3623   6.900   0.535   6.553  0.2410  0.0594 -0.1564
  256POPC   C3B 3624   6.643   0.790   6.748 -0.0445 -0.0450  0.2112
  256POPC   C4B 3625   6.475   1.197   6.897 -0.0685  0.1778 -0.3199
  257POPC   NC3 3626   0.418   1.467   5.170 -0.3245 -0.0537 -0.2118
  257POPC   PO4 3627   0.608   1.775   4.896  0.0842  0.0130  0.2881
  257POPC   GL1 3628   0.728   1.881   5.433  0.2233  0.3936  0.0442
  257POPC   GL2 3629   0.470   1.823   5.650 -0.0898 -0.0595 -0.1185
  257POPC   C1A 3630   0.997   1.906   5.806  0.0413  0.2271 -0.2321
  257POPC   D2A 3631   0.988   1.986   6.252  0.0133 -0.5342  0.2821
  257POPC   C3A 3632   1.188   2.410   6.342  0.0069  0.0475 -0.0208
  257POPC   C4A 3633   1.303   2.854   6.080  0.0086 -0.0018 -0.2369
  257POPC   C1B 3634   0.187   1.870   5.938 -0.2592  0.0088  0.3353
  257POPC   C2B 3635   0.022   1.928   6.312  0.2870  0.3932 -0.1556
  257POPC   C3B 3636  -0.442   2.058   6.427  0.1224  0.2757 -0.1515
  257POPC   C4B 3637  -0.827   1.977   6.649  0.0066 -0.4076  0.5002
  258POPC   NC3 3638   9.693   5.052   5.217 -0.1134 -0.0229  0.0636
  258POPC   PO4 3639   9.335   4.818   5.276 -0.3088 -0.0849 -0.0037
  258POPC   GL1 3640   9.012   5.011   5.642  0.0263 -0.2297 -0.2330
  258POPC   GL2 3641   8.723   5.013   5.571 -0.2443 -0.0410 -0.0817
  258POPC   C1A 3642   8.955   5.375   5.833 -0.1478 -0.1310 -0.0876
  258POPC   D2A 3643   9.178   5.775   5.811 -0.1456  0.1007 -0.0651
  258POPC   C3A 3644   9.627   5.625   5.962  0.1679  0.0580  0.1617
  258POPC   C4A 3645   9.825   5.388   6.260 -0.2337  0.0697  0.0858
  258POPC   C1B 3646   8.611   4.977   6.001 -0.2403 -0.0240 -0.3383
  258POPC   C2B 3647   8.303   4.972   6.338 -0.0071 -0.1902  0.3902
  258POPC   C3B 3648   8.007   4.965   6.605 -0.2530  0.0745  0.1602
  258POPC   C4B 3649   8.066   4.970   7.025 -0.0511 -0.1468  0.0636
  259POPC   NC3 3650   0.191   3.845   5.466  0.4006  0.1798  0.0362
  259POPC   PO4 3651   0.569   4.097   5.539 -0.1948 -0.1003 -0.0839
  259POPC   GL1 3652   0.496   4.185   6.032 -0.0220 -0.0544 -0.2490
  259POPC   GL2 3653   0.361   4.438   6.002 -0.0441  0.0897  0.0132
  259POPC   C1A 3654   0.668   4.227   6.406 -0.2013  0.1075  0.0040
  259POPC   D2A 3655   0.834   4.202   6.771  0.0709 -0.2267 -0.1589
  259POPC   C3A 3656   1.113   4.352   6.926 -0.1268 -0.2280 -0.2413
  259POPC   C4A 3657   1.450   4.269   7.023 -0.4084  0.0208 -0.1342
  259POPC   C1B 3658   0.112   4.502   6.392 -0.0237  0.3073  0.1704
  259POPC   C2B 3659  -0.269   4.559   6.730 -0.3069 -0.3854  0.0921
  259POPC   C3B 3660  -0.658   4.573   7.087  0.1111  0.1094 -0.1913
  259POPC   C4B 3661  -0.874   4.945   6.981  0.1959  0.1340 -0.3817
  260POPC   NC3 3662   5.764   1.289   5.578  0.0840  0.1657  0.2067
  260POPC   PO4 3663   5.380   1.196   5.507  0.2852  0.0716  0.1423
  260POPC   GL1 3664   5.347   1.514   5.808 -0.3005 -0.1646  0.4246
  260POPC   GL2 3665   5.425   1.314   6.112 -0.2760 -0.1476  0.3562
  260POPC   C1A 3666   5.576   1.740   6.238 -0.2412  0.1767  0.1395
  260POPC   D2A 3667   5.693   1.818   6.638 -0.0850 -0.2415  0.1390
  260POPC   C3A 3668   6.144   1.890   6.809  0.2009 -0.0028 -0.4508
  260POPC   C4A 3669   6.543   2.127   6.643  0.0282 -0.0318 -0.1957
  260POPC   C1B 3670   5.161   1.377   6.450  0.0658 -0.3148 -0.1440
  260POPC   C2B 3671   5.193   1.616   6.774 -0.2533  0.0661 -0.3991
  260POPC   C3B 3672   5.012   1.759   7.194 -0.0238  0.0121 -0.0522
  260POPC   C4B 3673   4.903   2.269   7.300 -0.0700 -0.1687 -0.1492
  261POPC   NC3 3674   0.434   4.524   5.365  0.0099  0.0464 -0.4420
  261POPC   PO4 3675  -0.031   4.411   5.370  0.2092  0.1144  0.1147
  261POPC   GL1 3676   0.103   4.723   5.704  0.0139 -0.1828 -0.3020
  261POPC   GL2 3677   0.333   4.939   5.748 -0.1943  0.1105  0.1163
  261POPC   C1A 3678  -0.048   4.987   6.110 -0.2073 -0.3541  0.2626
  261POPC   D2A 3679  -0.027   5.028   6.601 -0.0817  0.3029  0.1721
  261POPC   C3A 3680  -0.197   5.012   6.958 -0.3574  0.0893 -0.2964
  261POPC   C4A 3681  -0.442   5.071   7.347 -0.3357 -0.0112  0.0447
  261POPC   C1B 3682   0.492   4.954   6.154 -0.0954  0.1026 -0.1295
  261POPC   C2B 3683   0.457   4.953   6.584 -0.0890 -0.0083 -0.0786
  261POPC   C3B 3684   0.315   4.747   6.997 -0.0212 -0.0176 -0.2831
  261POPC   C4B 3685   0.651   4.728   7.183 -0.3401  0.1724  0.0549
  262POPC   NC3 3686   8.751   4.091   5.160  0.1419  0.0038 -0.2992
  262POPC   PO4 3687   8.944   3.776   5.261  0.0357  0.0283  0.0435
  262POPC   GL1 3688   8.920   3.627   5.605  0.1587 -0.4874  0.1802
  262POPC   GL2 3689   8.900   4.017   5.761  0.0374  0.2270 -0.0124
  262POPC   C1A 3690   8.924   3.464   6.032  0.2937 -0.3390 -0.1910
  262POPC   D2A 3691   9.090   3.287   6.389 -0.0022  0.3606 -0.0805
  262POPC   C3A 3692   9.109   3.428   6.809 -0.3085 -0.0518  0.1138
  262POPC   C4A 3693   9.278   3.520   7.220 -0.1662 -0.3294 -0.1695
  262POPC   C1B 3694   8.762   4.088   6.221  0.1003 -0.5017  0.1123
  262POPC   C2B 3695   8.583   4.080   6.658 -0.0461  0.3006 -0.0886
  262POPC   C3B 3696   8.679   3.718   6.960  0.0394 -0.0783  0.0481
  262POPC   C4B 3697   8.708   3.413   7.277 -0.2121 -0.2179 -0.0435
  263POPC   NC3 3698   6.682   8.528   5.189 -0.3411  0.1150  0.1311
  263POPC   PO4 3699   6.743   8.970   5.200 -0.1987  0.4124  0.2228
  263POPC   GL1 3700   6.807   8.763   5.618 -0.0807  0.0251  0.0423
  263POPC   GL2 3701   6.877   8.487   5.644 -0.1567  0.0255  0.0735
  263POPC   C1A 3702   6.996   8.928   6.005  0.1054  0.1600 -0.0453
  263POPC   D2A 3703   7.296   9.052   6.498 -0.1574  0.0558 -0.0962
  263POPC   C3A 3704   7.805   8.795   6.660  0.1292  0.0077  0.1766
  263POPC   C4A 3705   8.125   8.659   6.977  0.0184  0.2837  0.1378
  263POPC   C1B 3706   6.601   8.473   6.165  0.0940  0.2389  0.0880
  263POPC   C2B 3707   6.666   8.168   6.652 -0.1325  0.3202  0.2261
  263POPC   C3B 3708   6.598   7.875   7.068 -0.1572 -0.1222  0.2712
  263POPC   C4B 3709   6.528   7.662   7.370 -0.1180 -0.2038 -0.0069
  264POPC   NC3 3710   5.122   6.890   3.530 -0.3225 -0.4002 -0.1854
  264POPC   PO4 3711   5.304   6.993   3.962 -0.0084  0.1597 -0.0375
  264POPC   GL1 3712   5.188   7.024   4.404  0.3271 -0.1229 -0.0484
  264POPC   GL2 3713   4.841   7.091   4.520 -0.1816  0.1059 -0.2392
  264POPC   C1A 3714   5.325   7.047   4.826 -0.3929 -0.0878  0.0755
  264POPC   D2A 3715   5.362   7.396   5.123  0.1577  0.2281 -0.0953
  264POPC   C3A 3716   5.238   7.498   5.601  0.0624 -0.2182  0.0682
  264POPC   C4A 3717   5.002   7.868   5.829  0.0496  0.0111  0.3119
  264POPC   C1B 3718   4.765   6.691   4.719 -0.2779 -0.1333 -0.2492
  264POPC   C2B 3719   4.560   6.285   4.994  0.1427 -0.4379 -0.0387
  264POPC   C3B 3720   4.577   5.900   5.120  0.3934 -0.1373 -0.2644
  264POPC   C4B 3721   4.703   5.658   5.469 -0.2547  0.0163  0.2380
  265POPC   NC3 3722   7.774   6.647   4.004 -0.0906 -0.2264 -0.2311
  265POPC   PO4 3723   7.933   6.734   4.404  0.2005 -0.0053  0.2213
  265POPC   GL1 3724   7.664   6.700   4.808  0.1065 -0.0617  0.0080
  265POPC   GL2 3725   7.763   6.505   5.057 -0.2025 -0.0396 -0.0229
  265POPC   C1A 3726   7.476   6.934   5.204 -0.0634 -0.3627 -0.1616
  265POPC   D2A 3727   7.317   7.302   5.390  0.1523  0.1195 -0.0618
  265POPC   C3A 3728   7.271   7.404   5.678 -0.0628  0.0253  0.0929
  265POPC   C4A 3729   7.177   7.618   6.037 -0.2548 -0.0684 -0.1088
  265POPC   C1B 3730   7.526   6.468   5.425  0.1519 -0.4242 -0.1833
  265POPC   C2B 3731   7.287   6.514   5.766  0.0145  0.0664 -0.0964
  265POPC   C3B 3732   7.209   6.652   6.172 -0.0773  0.2912 -0.2897
  265POPC   C4B 3733   7.022   6.625   6.652 -0.0910 -0.0404 -0.1977
  266POPC   NC3 3734   8.800   9.682   5.347  0.2218  0.1888 -0.1925
  266POPC   PO4 3735   9.248   9.721   5.532  0.0176  0.1112 -0.2545
  266POPC   GL1 3736   9.150   9.548   5.893 -0.3136  0.0126 -0.0024
  266POPC   GL2 3737   8.822   9.617   5.851 -0.1728  0.0610 -0.2139
  266POPC   C1A 3738   9.321   9.458   6.283  0.0493 -0.0641 -0.0930
  266POPC   D2A 3739   9.217   9.375   6.679  0.0207 -0.1492 -0.0495
  266POPC   C3A 3740   8.848   9.080   6.594  0.0005 -0.3072 -0.3476
  266POPC   C4A 3741   8.577   8.820   6.313 -0.0623  0.1495  0.2498
  266POPC   C1B 3742   8.837   9.520   6.369 -0.1151 -0.1343  0.1992
  266POPC   C2B 3743   8.858   9.658   6.829  0.0627 -0.1451 -0.2170
  266POPC   C3B 3744   9.128   9.634   7.113 -0.0733 -0.0469 -0.0799
  266POPC   C4B 3745   9.039   9.457   7.395  0.1051  0.0534 -0.2040
  267POPC   NC3 3746   8.738   7.869   5.427  0.1006  0.2015  0.2436
  267POPC   PO4 3747   8.665   8.071   5.791  0.0240 -0.1837  0.3514
  267POPC   GL1 3748   8.616   7.993   6.167  0.6524 -0.1626 -0.1669
  267POPC   GL2 3749   8.466   8.244   6.279 -0.1597 -0.0563 -0.0682
  267POPC   C1A 3750   8.463   7.790   6.597 -0.1417 -0.0586  0.0116
  267POPC   D2A 3751   8.455   7.527   6.986  0.1417  0.3195 -0.0223
  267POPC   C3A 3752   8.026   7.413   7.214 -0.1041  0.0291 -0.1378
  267POPC   C4A 3753   7.716   7.068   7.368 -0.3370  0.3121 -0.1524
  267POPC   C1B 3754   8.648   8.430   6.663 -0.1403 -0.0162  0.0215
  267POPC   C2B 3755   8.620   8.805   6.894  0.4143 -0.1933 -0.0574
  267POPC   C3B 3756   8.412   8.830   7.356  0.1327  0.2361 -0.3182
  267POPC   C4B 3757   8.455   9.097   7.665 -0.1606  0.0955  0.2407
  268POPC   NC3 3758   8.721   1.187   5.011 -0.0534  0.1096 -0.0450
  268POPC   PO4 3759   8.908   1.364   5.416 -0.0288  0.3917 -0.0152
  268POPC   GL1 3760   8.965   1.416   5.755  0.1497  0.0791 -0.2312
  268POPC   GL2 3761   9.208   1.598   5.899 -0.0424  0.0872  0.2645
  268POPC   C1A 3762   8.748   1.136   6.063 -0.0817 -0.0180 -0.0042
  268POPC   D2A 3763   8.639   0.731   6.267 -0.1058  0.0296 -0.2843
  268POPC   C3A 3764   8.425   0.970   6.607 -0.2796 -0.1857  0.5173
  268POPC   C4A 3765   8.344   1.341   6.798  0.2870  0.0483 -0.1793
  268POPC   C1B 3766   8.985   1.759   6.201  0.3041  0.0584 -0.0788
  268POPC   C2B 3767   8.827   2.183   6.497 -0.1631  0.0504  0.1852
  268POPC   C3B 3768   9.053   2.362   6.821  0.0049  0.2605 -0.0033
  268POPC   C4B 3769   9.128   2.605   7.238 -0.0597  0.1927 -0.2351
  269POPC   NC3 3770   6.016   4.142   3.999 -0.2497 -0.1130 -0.1470
  269POPC   PO4 3771   5.746   3.739   4.089 -0.0611 -0.1156  0.0380
  269POPC   GL1 3772   5.683   4.030   4.407  0.2518  0.2759  0.3164
  269POPC   GL2 3773   5.785   4.246   4.395  0.0045  0.0656  0.3893
  269POPC   C1A 3774   5.479   4.096   4.732 -0.0101 -0.0263 -0.2864
  269POPC   D2A 3775   5.671   4.288   5.003 -0.1923 -0.1023  0.0208
  269POPC   C3A 3776   5.779   4.046   5.393 -0.0155 -0.1417 -0.0842
  269POPC   C4A 3777   5.711   3.991   5.865 -0.1469  0.0194 -0.1621
  269POPC   C1B 3778   5.325   4.479   4.330  0.7354 -0.1336  0.0899
  269POPC   C2B 3779   5.104   4.839   4.426  0.0064  0.0007 -0.0573
  269POPC   C3B 3780   4.939   4.966   4.909  0.2153 -0.1784 -0.2986
  269POPC   C4B 3781   4.859   4.760   5.284 -0.3615  0.2864 -0.0775
  270POPC   NC3 3782   5.944   8.590   5.415 -0.2024 -0.0374 -0.0354
  270POPC   PO4 3783   6.323   8.644   5.495  0.0717 -0.2943  0.0113
  270POPC   GL1 3784   6.306   8.248   5.697 -0.3176 -0.2498  0.0734
  270POPC   GL2 3785   6.555   8.098   5.511 -0.0354  0.2580 -0.0528
  270POPC   C1A 3786   6.418   8.011   6.013 -0.2647  0.0815  0.2317
  270POPC   D2A 3787   6.543   7.740   6.338  0.0146 -0.3846 -0.0400
  270POPC   C3A 3788   6.867   7.598   6.629  0.0316  0.0846  0.1977
  270POPC   C4A 3789   7.327   7.611   6.799  0.0142  0.1006 -0.1285
  270POPC   C1B 3790   6.272   7.747   5.589 -0.2597  0.3035  0.0424
  270POPC   C2B 3791   6.161   7.558   6.008  0.1829 -0.0607  0.0794
  270POPC   C3B 3792   5.971   7.132   6.027 -0.1360 -0.0008 -0.1975
  270POPC   C4B 3793   5.753   6.824   6.081  0.1672  0.1715 -0.1307
  271POPC   NC3 3794   0.068   0.615   5.168  0.1328 -0.2313 -0.0465
  271POPC   PO4 3795   0.121   1.037   5.162 -0.1389 -0.1916 -0.2089
  271POPC   GL1 3796   0.300   1.002   5.558 -0.2208  0.0791 -0.1169
  271POPC   GL2 3797   0.167   0.761   5.762  0.1423  0.1111 -0.0658
  271POPC   C1A 3798   0.386   1.229   5.911 -0.1143 -0.3417  0.0579
  271POPC   D2A 3799   0.696   1.623   6.104  0.2710  0.0089  0.1560
  271POPC   C3A 3800   0.817   1.638   6.498 -0.2124 -0.0169  0.2179
  271POPC   C4A 3801   1.148   1.950   6.699 -0.0059 -0.2353  0.2226
  271POPC   C1B 3802  -0.100   1.104   5.985 -0.0584 -0.1519 -0.3032
  271POPC   C2B 3803   0.019   1.460   6.192  0.3309  0.0522  0.0777
  271POPC   C3B 3804   0.290   1.576   6.623  0.1815  0.0178 -0.3840
  271POPC   C4B 3805   0.584   1.391   7.009  0.1921 -0.0176 -0.0115
  272POPC   NC3 3806   7.348   4.412   4.249  0.2508  0.0981 -0.1071
  272POPC   PO4 3807   7.582   4.450   4.627 -0.3502  0.2902 -0.1447
  272POPC   GL1 3808   7.707   4.419   5.048 -0.1898  0.1894  0.0657
  272POPC   GL2 3809   7.769   4.176   5.234  0.2135  0.3228  0.1662
  272POPC   C1A 3810   7.379   4.407   5.478  0.0941 -0.2033  0.1961
  272POPC   D2A 3811   7.465   4.674   5.874  0.4102  0.1398 -0.2270
  272POPC   C3A 3812   7.289   4.678   6.384 -0.1357 -0.1934  0.1024
  272POPC   C4A 3813   7.197   4.651   6.836 -0.1014  0.1211 -0.1623
  272POPC   C1B 3814   7.767   4.109   5.681 -0.0325 -0.1287  0.1940
  272POPC   C2B 3815   7.993   4.412   5.953  0.1368  0.0279  0.0996
  272POPC   C3B 3816   7.851   4.609   6.300  0.0664 -0.2508 -0.1651
  272POPC   C4B 3817   7.696   4.490   6.665  0.4106  0.0614 -0.0312
  273POPC   NC3 3818   7.162   2.686   4.848  0.1186 -0.1015 -0.1069
  273POPC   PO4 3819   6.861   2.613   5.176  0.2423  0.1481 -0.1031
  273POPC   GL1 3820   6.832   2.825   5.525 -0.0881  0.0294  0.0753
  273POPC   GL2 3821   7.044   2.580   5.768 -0.2015  0.4829  0.0178
  273POPC   C1A 3822   6.804   3.238   5.744  0.2499  0.0309 -0.0443
  273POPC   D2A 3823   6.645   3.682   5.811  0.0424  0.0195  0.1653
  273POPC   C3A 3824   6.858   4.080   5.877 -0.1952  0.1528  0.1015
  273POPC   C4A 3825   6.972   4.450   6.099  0.0737 -0.3452 -0.1053
  273POPC   C1B 3826   6.931   2.802   6.150  0.0876  0.0866 -0.2914
  273POPC   C2B 3827   6.803   3.072   6.525  0.1570 -0.1331  0.1379
  273POPC   C3B 3828   6.881   3.403   6.773  0.0595  0.4231  0.2902
  273POPC   C4B 3829   6.867   3.808   6.834  0.1120 -0.1135  0.0214
  274POPC   NC3 3830   2.053   9.971   5.474 -0.6094  0.2071  0.1306
  274POPC   PO4 3831   2.138  10.387   5.389 -0.1361 -0.0771 -0.2516
  274POPC   GL1 3832   2.170  10.327   5.905 -0.0578  0.0074 -0.0749
  274POPC   GL2 3833   2.209  10.025   6.031  0.1547  0.1995  0.0020
  274POPC   C1A 3834   1.969  10.517   6.249 -0.1002 -0.0681  0.0490
  274POPC   D2A 3835   1.673  10.777   6.463 -0.3785  0.0454  0.0322
  274POPC   C3A 3836   1.438  10.538   6.808 -0.5117  0.0363  0.2757
  274POPC   C4A 3837   0.960  10.711   6.913  0.1487  0.1316  0.0164
  274POPC   C1B 3838   2.521  10.191   6.256  0.1449  0.1730 -0.0929
  274POPC   C2B 3839   2.563  10.125   6.708 -0.1576  0.2644  0.1745
  274POPC   C3B 3840   2.900  10.052   7.011  0.1318  0.1796  0.2195
  274POPC   C4B 3841   3.130  10.226   7.360 -0.1307  0.1481 -0.2139
  275POPC   NC3 3842   9.632   3.633   5.351 -0.0198 -0.1388  0.2554
  275POPC   PO4 3843   9.332   3.391   5.363 -0.1028 -0.3325  0.0517
  275POPC   GL1 3844   9.314   3.460   5.798 -0.2122 -0.1792 -0.0073
  275POPC   GL2 3845   9.624   3.512   5.906  0.0406  0.1916  0.1541
  275POPC   C1A 3846   9.266   3.773   6.148 -0.4455  0.0652 -0.1690
  275POPC   D2A 3847   9.158   3.869   6.499 -0.0364 -0.3009  0.2957
  275POPC   C3A 3848   9.099   3.962   6.961  0.0389 -0.0048 -0.0952
  275POPC   C4A 3849   9.221   4.245   7.262 -0.0019  0.3503  0.2672
  275POPC   C1B 3850   9.515   3.252   6.163 -0.1052  0.0259 -0.3130
  275POPC   C2B 3851   9.623   2.901   6.259 -0.1468 -0.3607 -0.1569
  275POPC   C3B 3852   9.880   2.584   6.189  0.1070 -0.0749 -0.3323
  275POPC   C4B 3853   9.924   2.255   6.013 -0.0439  0.2141 -0.2218
  276POPC   NC3 3854   1.015   3.954   5.252 -0.2451 -0.0561 -0.1579
  276POPC   PO4 3855   0.642   3.655   5.240  0.1122  0.3486 -0.2462
  276POPC   GL1 3856   0.610   3.629   5.708 -0.2548 -0.3246 -0.0102
  276POPC   GL2 3857   0.870   3.372   5.855 -0.0250 -0.1705  0.0536
  276POPC   C1A 3858   0.476   3.451   6.121 -0.0684 -0.1134 -0.0672
  276POPC   D2A 3859   0.341   3.565   6.560  0.0804  0.3207 -0.2125
  276POPC   C3A 3860   0.330   3.941   6.778 -0.1230 -0.1449  0.2201
  276POPC   C4A 3861   0.149   4.279   6.854  0.1209  0.3135 -0.0026
  276POPC   C1B 3862   1.232   3.462   6.110 -0.0915  0.2030 -0.1407
  276POPC   C2B 3863   1.341   3.183   6.491  0.1747 -0.1205 -0.2211
  276POPC   C3B 3864   1.585   3.400   6.855  0.0192 -0.0177  0.1742
  276POPC   C4B 3865   1.679   3.578   7.321 -0.1330 -0.1473  0.1523
  277POPC   NC3 3866   5.342   8.232   4.583  0.0576 -0.0962 -0.0753
  277POPC   PO4 3867   5.284   8.513   4.915  0.1541 -0.1319  0.0888
  277POPC   GL1 3868   5.387   8.632   5.328 -0.1373  0.0947 -0.0552
  277POPC   GL2 3869   5.516   8.405   5.584  0.3307 -0.1267 -0.2526
  277POPC   C1A 3870   4.997   8.797   5.672  0.1112  0.2476  0.1992
  277POPC   D2A 3871   4.960   8.803   6.115 -0.3839  0.0880 -0.0658
  277POPC   C3A 3872   5.128   8.407   6.406  0.4597 -0.0276  0.0969
  277POPC   C4A 3873   5.300   8.168   6.808  0.4677 -0.0469  0.0931
  277POPC   C1B 3874   5.301   8.238   5.968 -0.3259  0.0339  0.0669
  277POPC   C2B 3875   5.243   7.917   6.361 -0.1375 -0.2205 -0.3588
  277POPC   C3B 3876   5.065   7.512   6.205  0.1247  0.1512 -0.2234
  277POPC   C4B 3877   4.807   7.369   5.804 -0.1809  0.0212  0.3454
  278POPC   NC3 3878   3.173   3.560   4.123  0.4062 -0.0939 -0.1218
  278POPC   PO4 3879   2.867   3.776   4.308 -0.4343  0.0557 -0.1120
  278POPC   GL1 3880   2.771   3.904   4.713 -0.2009 -0.3929 -0.2346
  278POPC   GL2 3881   2.842   3.678   5.075 -0.3077  0.0662 -0.1702
  278POPC   C1A 3882   2.662   4.243   5.030  0.0726 -0.2802 -0.0544
  278POPC   D2A 3883   2.511   4.671   5.421 -0.2693  0.0889  0.0772
  278POPC   C3A 3884   2.020   4.570   5.632 -0.2551 -0.0602  0.1508
  278POPC   C4A 3885   1.873   4.524   6.076 -0.1836 -0.0932  0.0036
  278POPC   C1B 3886   2.810   4.003   5.441  0.2131 -0.3008 -0.2031
  278POPC   C2B 3887   2.948   4.336   5.673  0.0397 -0.1274  0.1950
  278POPC   C3B 3888   3.087   4.516   6.001 -0.0802 -0.1717  0.2150
  278POPC   C4B 3889   3.338   4.893   5.995  0.0640  0.1568 -0.0373
  279POPC   NC3 3890   2.588   0.435   5.587  0.0906  0.2039  0.0795
  279POPC   PO4 3891   2.977   0.219   5.608  0.1774 -0.1707  0.1138
  279POPC   GL1 3892   2.895   0.282   5.991 -0.4110 -0.3588  0.0219
  279POPC   GL2 3893   3.172   0.183   6.094 -0.1040 -0.2934 -0.0979
  279POPC   C1A 3894   2.760   0.439   6.469  0.0730 -0.1459 -0.0320
  279POPC   D2A 3895   2.578   0.523   6.869 -0.1645 -0.0532  0.1912
  279POPC   C3A 3896   2.366   0.234   7.137 -0.1070  0.1059 -0.1777
  279POPC   C4A 3897   2.542  -0.205   7.349 -0.0918  0.2208  0.0304
  279POPC   C1B 3898   3.531   0.294   6.379 -0.0041  0.1611 -0.0755
  279POPC   C2B 3899   3.615   0.576   6.725 -0.0575 -0.0556  0.0499
  279POPC   C3B 3900   3.519   0.597   7.099 -0.1680  0.0348  0.1666
  279POPC   C4B 3901   3.298   0.849   7.429  0.3104 -0.3421 -0.0522
  280POPC   NC3 3902   6.620   9.426   5.448  0.1551  0.0774  0.3118
  280POPC   PO4 3903   6.158   9.357   5.366 -0.0190 -0.0942  0.2484
  280POPC   GL1 3904   6.288   9.494   5.831 -0.0278 -0.1316 -0.0811
  280POPC   GL2 3905   6.471   9.163   5.889 -0.1030 -0.3547  0.2506
  280POPC   C1A 3906   6.232   9.497   6.350 -0.3468  0.2793  0.2417
  280POPC   D2A 3907   6.285   9.373   6.781 -0.0094 -0.2105 -0.1492
  280POPC   C3A 3908   5.952   9.243   7.019  0.1524 -0.0925 -0.2908
  280POPC   C4A 3909   5.565   8.997   7.247 -0.1759  0.2210  0.2358
  280POPC   C1B 3910   6.431   8.924   6.265 -0.0812  0.0366  0.0317
  280POPC   C2B 3911   6.545   8.695   6.675  0.1132 -0.0880  0.5133
  280POPC   C3B 3912   6.424   8.504   6.979 -0.0768 -0.3967 -0.0140
  280POPC   C4B 3913   6.243   8.270   7.201 -0.0313  0.0691 -0.0327
  281POPC   NC3 3914   0.371   5.685   5.269  0.3254 -0.1614 -0.0708
  281POPC   PO4 3915   0.707   5.597   5.171  0.1018  0.2316  0.0462
  281POPC   GL1 3916   0.712   5.644   5.607 -0.3908 -0.3349  0.1299
  281POPC   GL2 3917   0.902   5.409   5.663 -0.2800 -0.0381  0.0879
  281POPC   C1A 3918   0.488   5.379   5.983  0.0139  0.0453 -0.0921
  281POPC   D2A 3919   0.266   5.368   6.459 -0.2134  0.2431  0.0489
  281POPC   C3A 3920  -0.114   5.547   6.716 -0.4831 -0.0604 -0.1052
  281POPC   C4A 3921  -0.306   5.519   7.108 -0.0183  0.0450  0.1922
  281POPC   C1B 3922   1.075   5.720   5.949  0.0286  0.4152 -0.0338
  281POPC   C2B 3923   1.123   5.753   6.344 -0.0138 -0.0338 -0.2348
  281POPC   C3B 3924   1.252   5.740   6.807 -0.0139 -0.1136  0.1613
  281POPC   C4B 3925   1.583   5.739   7.170  0.4126  0.1738 -0.1870
  282POPC   NC3 3926   9.434   2.617   4.768 -0.1112 -0.0249 -0.0790
  282POPC   PO4 3927   9.488   2.821   5.279 -0.0992 -0.1769  0.1010
  282POPC   GL1 3928   9.163   3.021   5.607  0.0610  0.1060  0.0400
  282POPC   GL2 3929   9.106   2.611   5.649  0.4132  0.1021  0.3552
  282POPC   C1A 3930   8.934   2.924   6.017  0.1901  0.2101 -0.0094
  282POPC   D2A 3931   8.655   3.113   6.146 -0.1874  0.1202 -0.0329
  282POPC   C3A 3932   8.343   2.972   6.456  0.0312  0.0751 -0.0418
  282POPC   C4A 3933   8.242   2.779   6.934  0.1497 -0.1120  0.0642
  282POPC   C1B 3934   8.818   2.190   5.966  0.1295 -0.2474  0.0129
  282POPC   C2B 3935   8.521   2.096   6.089  0.0008 -0.1783 -0.1293
  282POPC   C3B 3936   8.366   1.919   6.515 -0.1421 -0.1564 -0.1667
  282POPC   C4B 3937   8.434   1.903   6.745  0.1548  0.0971  0.2141
  283POPC   NC3 3938   1.230   4.880   5.109  0.3357 -0.0304 -0.1838
  283POPC   PO4 3939   0.969   4.979   5.433  0.1350  0.2324  0.1783
  283POPC   GL1 3940   1.178   4.947   5.753 -0.1064  0.0508 -0.1319
  283POPC   GL2 3941   1.310   5.149   5.978  0.2825 -0.4450 -0.1671
  283POPC   C1A 3942   1.404   4.675   6.135 -0.0460 -0.0535 -0.0956
  283POPC   D2A 3943   1.504   4.576   6.546  0.0560 -0.1094 -0.2943
  283POPC   C3A 3944   1.761   4.751   6.899  0.5219  0.3299 -0.2364
  283POPC   C4A 3945   2.003   4.879   7.266  0.2357 -0.0888  0.1614
  283POPC   C1B 3946   1.065   5.243   6.312  0.0225  0.0800 -0.0930
  283POPC   C2B 3947   1.249   5.265   6.723 -0.0413 -0.1083 -0.1218
  283POPC   C3B 3948   1.600   5.228   6.952 -0.2178  0.1717 -0.0041
  283POPC   C4B 3949   1.524   5.133   7.336  0.0576 -0.0203 -0.2505
  284POPC   NC3 3950   2.268   1.120   5.088  0.1655  0.1281 -0.2452
  284POPC   PO4 3951   2.710   1.129   5.309  0.3448  0.1725  0.0147
  284POPC   GL1 3952   2.544   0.999   5.696  0.1433  0.1130 -0.0633
  284POPC   GL2 3953   2.243   1.144   5.569  0.1181  0.1560  0.0707
  284POPC   C1A 3954   2.792   0.856   6.040 -0.2316  0.0286  0.1755
  284POPC   D2A 3955   2.765   0.953   6.600 -0.1507  0.4638 -0.0169
  284POPC   C3A 3956   2.427   1.298   6.656 -0.1003 -0.3157  0.1196
  284POPC   C4A 3957   2.237   1.384   6.969  0.2054  0.1002  0.3023
  284POPC   C1B 3958   2.050   0.706   5.757  0.0120  0.1836  0.0805
  284POPC   C2B 3959   1.662   0.534   5.862 -0.3058  0.1762  0.0349
  284POPC   C3B 3960   1.336   0.298   6.160  0.1161 -0.2198 -0.2476
  284POPC   C4B 3961   1.228  -0.008   6.534 -0.1113 -0.0882 -0.3599
  285POPC   NC3 3962  10.084   2.786   5.355  0.2154 -0.3621 -0.3210
  285POPC   PO4 3963  10.401   2.560   5.240 -0.3458  0.0293 -0.0143
  285POPC   GL1 3964  10.700   2.724   5.652  0.2047 -0.1231  0.1359
  285POPC   GL2 3965  10.447   2.891   5.703  0.0232  0.0001 -0.3469
  285POPC   C1A 3966  10.806   2.868   6.028  0.3473  0.1917  0.2759
  285POPC   D2A 3967  10.913   2.664   6.456  0.1003  0.2522 -0.1051
  285POPC   C3A 3968  11.042   2.835   6.776  0.0888  0.0917 -0.1302
  285POPC   C4A 3969  10.788   3.129   6.906 -0.0048 -0.1388 -0.0218
  285POPC   C1B 3970  10.109   3.088   6.078 -0.0531  0.1530 -0.0398
  285POPC   C2B 3971  10.055   3.176   6.447  0.0501 -0.1356 -0.0872
  285POPC   C3B 3972  10.204   3.293   6.818 -0.0579  0.1917 -0.0429
  285POPC   C4B 3973  10.374   3.511   7.071  0.1659  0.2475  0.0702
  286POPC   NC3 3974  10.027   8.792   5.352  0.2398 -0.1023 -0.0521
  286POPC   PO4 3975  10.130   8.379   5.546  0.0065 -0.0914  0.0357
  286POPC   GL1 3976  10.035   8.449   6.091  0.0481  0.0187  0.2784
  286POPC   GL2 3977  10.134   8.139   6.309 -0.1545  0.3567 -0.3008
  286POPC   C1A 3978  10.234   8.554   6.602  0.0164 -0.3364  0.1512
  286POPC   D2A 3979  10.419   8.917   6.696 -0.0407 -0.3780  0.1228
  286POPC   C3A 3980  10.882   9.094   6.557 -0.2075 -0.0822  0.0268
  286POPC   C4A 3981  11.174   9.293   6.710 -0.0638  0.1027 -0.4150
  286POPC   C1B 3982  10.169   8.029   6.669  0.0692  0.3345  0.2596
  286POPC   C2B 3983  10.075   7.617   6.893  0.1447  0.1818 -0.1776
  286POPC   C3B 3984  10.066   7.448   7.349  0.5023 -0.0688 -0.2140
  286POPC   C4B 3985   9.941   7.605   7.753  0.3386  0.1102 -0.0113
  287POPC   NC3 3986   8.734   3.146   5.447  0.1373  0.0418  0.2999
  287POPC   PO4 3987   8.212   3.212   5.370  0.0553  0.0036 -0.0107
  287POPC   GL1 3988   7.965   3.472   5.635  0.0587  0.0608 -0.0158
  287POPC   GL2 3989   7.656   3.305   5.782  0.0907 -0.1432 -0.0107
  287POPC   C1A 3990   7.933   3.749   5.938  0.1011 -0.0689  0.0994
  287POPC   D2A 3991   7.748   3.843   6.393  0.1798  0.2856 -0.0583
  287POPC   C3A 3992   7.803   3.481   6.722  0.3891  0.2007 -0.0022
  287POPC   C4A 3993   7.918   3.103   6.638 -0.3041 -0.0585 -0.4091
  287POPC   C1B 3994   7.563   3.442   6.145  0.0876 -0.2595  0.2056
  287POPC   C2B 3995   7.430   3.152   6.487  0.0177 -0.0759 -0.0635
  287POPC   C3B 3996   7.508   2.932   6.910  0.2591  0.1890  0.1263
  287POPC   C4B 3997   7.641   2.935   7.379  0.0800 -0.0353  0.0594
  288POPC   NC3 3998   8.247   9.384   4.706 -0.0487  0.0177 -0.0084
  288POPC   PO4 3999   8.552   9.282   5.139  0.0010 -0.0445  0.4767
  288POPC   GL1 4000   8.480   9.349   5.580  0.0200  0.2466  0.0068
  288POPC   GL2 4001   8.364   9.644   5.631  0.0272  0.0341  0.1060
  288POPC   C1A 4002   8.424   9.228   6.068  0.4907  0.2133 -0.0026
  288POPC   D2A 4003   8.342   9.539   6.407  0.0789 -0.1978  0.1464
  288POPC   C3A 4004   8.117   9.546   6.766 -0.2061  0.1859 -0.0920
  288POPC   C4A 4005   7.827   9.797   6.980 -0.1448 -0.3284  0.0814
  288POPC   C1B 4006   8.135   9.715   5.949 -0.1873 -0.1011 -0.1640
  288POPC   C2B 4007   7.846   9.603   6.217  0.1922  0.0232 -0.1193
  288POPC   C3B 4008   7.720   9.396   6.520 -0.0172 -0.1864 -0.0284
  288POPC   C4B 4009   7.685   9.323   6.886  0.1091  0.3966 -0.1962
  289POPC   NC3 4010   1.874   6.795   5.275  0.2664 -0.3310 -0.0113
  289POPC   PO4 4011   2.163   6.725   4.987  0.1106 -0.0527 -0.1629
  289POPC   GL1 4012   2.362   6.788   5.399 -0.1261  0.0236  0.3839
  289POPC   GL2 4013   2.265   6.952   5.652 -0.2589 -0.0215 -0.1726
  289POPC   C1A 4014   2.729   7.117   5.436 -0.0799  0.0100  0.1803
  289POPC   D2A 4015   2.737   7.489   5.713 -0.1289 -0.0622  0.1456
  289POPC   C3A 4016   2.856   7.199   5.937 -0.0375 -0.0987 -0.2486
  289POPC   C4A 4017   3.153   7.159   6.213 -0.0055 -0.0182  0.0316
  289POPC   C1B 4018   2.575   6.761   5.848  0.3670  0.2900 -0.0828
  289POPC   C2B 4019   2.836   6.437   6.058  0.0690 -0.1123  0.1160
  289POPC   C3B 4020   3.029   6.377   6.418  0.0471 -0.0897 -0.0175
  289POPC   C4B 4021   3.185   6.543   6.892 -0.0002  0.4394  0.0586
  290POPC   NC3 4022   3.762   2.404   4.869 -0.0708  0.0386  0.0644
  290POPC   PO4 4023   3.337   2.553   4.959  0.1773  0.2783 -0.0032
  290POPC   GL1 4024   3.604   2.663   5.306  0.0451  0.2716  0.0168
  290POPC   GL2 4025   3.655   3.006   5.226 -0.1476 -0.2102  0.2004
  290POPC   C1A 4026   3.458   3.000   5.678  0.1802  0.1128 -0.3368
  290POPC   D2A 4027   3.618   3.056   6.127  0.0266 -0.0800 -0.0841
  290POPC   C3A 4028   3.730   3.205   6.513 -0.3325  0.0999  0.1835
  290POPC   C4A 4029   3.660   3.274   6.855  0.4307  0.1479  0.3127
  290POPC   C1B 4030   3.852   3.253   5.517  0.0687  0.1876  0.0347
  290POPC   C2B 4031   4.084   3.592   5.799  0.2775 -0.0197  0.2782
  290POPC   C3B 4032   4.366   3.466   6.153  0.0201  0.4577  0.0999
  290POPC   C4B 4033   4.823   3.487   5.996  0.1165 -0.2220 -0.0068
  291POPC   NC3 4034   1.379   3.833   4.547 -0.0741 -0.3484 -0.1162
  291POPC   PO4 4035   1.423   4.115   4.992  0.3555 -0.2479 -0.1358
  291POPC   GL1 4036   1.476   4.074   5.383 -0.3586  0.1852 -0.4041
  291POPC   GL2 4037   1.369   4.334   5.656  0.3336 -0.2290 -0.1016
  291POPC   C1A 4038   1.825   4.133   5.665  0.4231 -0.0882 -0.0879
  291POPC   D2A 4039   2.117   4.105   6.016 -0.1108 -0.0162 -0.1393
  291POPC   C3A 4040   1.870   3.784   6.217 -0.1461 -0.2451  0.0283
  291POPC   C4A 4041   1.501   3.664   6.431 -0.1445  0.0169  0.1651
  291POPC   C1B 4042   1.004   4.330   5.995 -0.0361 -0.1602  0.2434
  291POPC   C2B 4043   0.927   4.702   6.243 -0.0331  0.0385  0.3579
  291POPC   C3B 4044   0.880   4.737   6.746 -0.2232 -0.0664  0.4497
  291POPC   C4B 4045   1.227   4.835   7.052  0.0059 -0.0811 -0.2263
  292POPC   NC3 4046   3.428   8.015   4.437 -0.0327  0.2946 -0.2430
  292POPC   PO4 4047   3.610   7.672   4.320 -0.2252 -0.3861 -0.1602
  292POPC   GL1 4048   3.862   7.744   4.617 -0.1535  0.0904 -0.1313
  292POPC   GL2 4049   3.607   7.711   4.897  0.1700 -0.2370 -0.1029
  292POPC   C1A 4050   4.101   7.585   4.908  0.1141  0.1112  0.3255
  292POPC   D2A 4051   4.603   7.539   4.933  0.4699  0.2964 -0.1046
  292POPC   C3A 4052   4.790   7.374   5.272  0.0782 -0.2508 -0.2174
  292POPC   C4A 4053   5.058   7.033   5.324  0.0561  0.2134  0.0887
  292POPC   C1B 4054   3.651   7.520   5.395 -0.0044 -0.0614  0.3128
  292POPC   C2B 4055   3.922   7.447   5.735  0.0400 -0.1012 -0.2760
  292POPC   C3B 4056   4.026   7.739   6.103 -0.1823  0.0235 -0.0570
  292POPC   C4B 4057   4.327   8.091   6.201  0.3861 -0.1029 -0.1206
  293POPC   NC3 4058   6.844   2.196   5.480  0.0965  0.2879  0.0554
  293POPC   PO4 4059   7.166   2.022   5.777 -0.0445  0.0939  0.2507
  293POPC   GL1 4060   7.067   2.074   6.096 -0.2294  0.0909  0.3350
  293POPC   GL2 4061   7.351   2.343   6.217 -0.1023 -0.2579 -0.0193
  293POPC   C1A 4062   6.883   2.344   6.407  0.0591 -0.3394 -0.0546
  293POPC   D2A 4063   6.867   2.488   6.814  0.1954 -0.1623  0.0170
  293POPC   C3A 4064   6.519   2.430   7.079  0.1619  0.0713  0.1440
  293POPC   C4A 4065   6.056   2.458   7.200 -0.1126  0.2511  0.0355
  293POPC   C1B 4066   7.186   2.734   6.573 -0.1242 -0.1164  0.1726
  293POPC   C2B 4067   7.025   2.956   6.968  0.2932  0.1281 -0.1544
  293POPC   C3B 4068   6.891   3.261   7.245 -0.1094 -0.2415  0.2283
  293POPC   C4B 4069   6.660   3.412   7.584  0.1091  0.3428 -0.1159
  294POPC   NC3 4070   9.167   0.431   5.430  0.0714  0.1918 -0.3360
  294POPC   PO4 4071   8.757   0.455   5.332  0.1128 -0.0417  0.0258
  294POPC   GL1 4072   8.724   0.399   5.870  0.0742  0.0193  0.1830
  294POPC   GL2 4073   8.433   0.278   6.039 -0.0348 -0.0126 -0.0154
  294POPC   C1A 4074   8.855   0.198   6.262  0.0209 -0.2035 -0.0093
  294POPC   D2A 4075   9.143   0.210   6.523 -0.0567  0.1247  0.1400
  294POPC   C3A 4076   9.086   0.502   6.858 -0.4094  0.0578  0.0639
  294POPC   C4A 4077   8.797   0.723   6.982 -0.1597 -0.2063 -0.4346
  294POPC   C1B 4078   8.263   0.266   6.367  0.1137  0.0469  0.1987
  294POPC   C2B 4079   8.158   0.550   6.694  0.0158  0.0898  0.2707
  294POPC   C3B 4080   8.268   0.788   7.075  0.2444 -0.0926  0.1169
  294POPC   C4B 4081   8.318   1.234   7.278  0.2519 -0.3250  0.1671
  295POPC   NC3 4082   3.478   9.624   5.457 -0.0376 -0.1110 -0.1264
  295POPC   PO4 4083   3.691  10.055   5.523  0.4271 -0.0493 -0.2180
  295POPC   GL1 4084   3.617   9.995   5.901  0.1026  0.1707  0.0725
  295POPC   GL2 4085   3.817  10.205   6.033  0.2167  0.0502 -0.2789
  295POPC   C1A 4086   3.455   9.886   6.335 -0.0904 -0.0193  0.3750
  295POPC   D2A 4087   3.217   9.616   6.657  0.0861 -0.0963 -0.0194
  295POPC   C3A 4088   3.337   9.358   7.013 -0.4540  0.0314  0.0159
  295POPC   C4A 4089   3.273   8.967   7.308 -0.7035  0.1645  0.1384
  295POPC   C1B 4090   3.946   9.901   6.316 -0.1476 -0.0721 -0.0044
  295POPC   C2B 4091   4.189   9.725   6.630  0.2800 -0.0563  0.0010
  295POPC   C3B 4092   4.284   9.736   7.048 -0.0613  0.2089  0.0136
  295POPC   C4B 4093   4.616   9.599   7.364  0.1093 -0.0132 -0.1397
  296POPC   NC3 4094   5.703   0.032   5.175  0.2078 -0.1499  0.0688
  296POPC   PO4 4095   5.646   0.029   5.622  0.0849 -0.1522 -0.3846
  296POPC   GL1 4096   5.797   0.095   6.064  0.0450 -0.0715  0.1971
  296POPC   GL2 4097   6.068   0.264   6.110  0.0388  0.3277 -0.1817
  296POPC   C1A 4098   5.865   0.310   6.564 -0.1662  0.3090 -0.3209
  296POPC   D2A 4099   5.856   0.504   6.925 -0.2587 -0.3773  0.2675
  296POPC   C3A 4100   5.488   0.623   7.064 -0.0364  0.0056 -0.0132
  296POPC   C4A 4101   5.101   0.820   7.187 -0.0533  0.0309 -0.0795
  296POPC   C1B 4102   6.345   0.498   6.404  0.1914  0.1093 -0.2262
  296POPC   C2B 4103   6.328   0.411   6.813  0.0111  0.1263  0.3167
  296POPC   C3B 4104   6.252   0.761   7.130 -0.1271  0.1152  0.0087
  296POPC   C4B 4105   6.151   1.079   7.350  0.2121 -0.1724 -0.2860
  297POPC   NC3 4106   5.711   7.532   4.144 -0.1258  0.1885 -0.2954
  297POPC   PO4 4107   5.633   7.807   4.506 -0.0522  0.4088  0.0187
  297POPC   GL1 4108   5.675   7.840   4.998 -0.1448 -0.1193  0.0696
  297POPC   GL2 4109   5.601   8.143   5.163  0.0021  0.0972 -0.2243
  297POPC   C1A 4110   5.785   7.581   5.462 -0.0568 -0.2133 -0.0376
  297POPC   D2A 4111   5.680   7.310   5.691  0.2421  0.2841 -0.0266
  297POPC   C3A 4112   5.227   7.069   5.971 -0.0966 -0.3565 -0.0543
  297POPC   C4A 4113   4.801   7.099   6.264 -0.0127 -0.3945 -0.1455
  297POPC   C1B 4114   5.407   7.920   5.540 -0.3193  0.0061 -0.3780
  297POPC   C2B 4115   5.455   7.730   5.994 -0.1742 -0.0145  0.1946
  297POPC   C3B 4116   5.715   7.769   6.399  0.0365  0.0532  0.1035
  297POPC   C4B 4117   5.824   8.074   6.806 -0.2928  0.1293  0.2337
  298POPC   NC3 4118   1.969   0.452   4.871  0.1948 -0.0784  0.0881
  298POPC   PO4 4119   1.618   0.824   4.850  0.0232  0.2680 -0.3641
  298POPC   GL1 4120   1.523   0.863   5.250 -0.1089  0.1359  0.0428
  298POPC   GL2 4121   1.249   1.003   5.313  0.1703 -0.4014 -0.1533
  298POPC   C1A 4122   1.501   1.010   5.740 -0.2754  0.1520 -0.3403
  298POPC   D2A 4123   1.414   1.016   6.184 -0.3947 -0.0300  0.2404
  298POPC   C3A 4124   1.093   0.788   6.436  0.2051 -0.2213  0.3508
  298POPC   C4A 4125   0.610   0.712   6.538  0.1407 -0.0749 -0.0941
  298POPC   C1B 4126   1.203   1.444   5.603 -0.0327  0.0544  0.0561
  298POPC   C2B 4127   1.187   1.502   6.115  0.1697  0.1990 -0.2031
  298POPC   C3B 4128   1.287   1.401   6.569  0.1133  0.0159  0.0044
  298POPC   C4B 4129   1.143   1.453   6.933 -0.3450  0.3793  0.1809
  299POPC   NC3 4130   9.617   6.847   5.076 -0.0898 -0.0243 -0.0804
  299POPC   PO4 4131   9.596   7.176   5.293  0.0078 -0.0222  0.2716
  299POPC   GL1 4132   9.338   7.158   5.723 -0.3552  0.1862  0.0938
  299POPC   GL2 4133   9.085   7.217   5.934  0.3090 -0.2121 -0.2224
  299POPC   C1A 4134   9.364   6.839   6.065 -0.1407 -0.0528 -0.3280
  299POPC   D2A 4135   9.201   6.730   6.426  0.2975  0.2702 -0.0307
  299POPC   C3A 4136   8.923   6.617   6.786 -0.1788 -0.1336 -0.2406
  299POPC   C4A 4137   8.642   6.604   6.986 -0.1679  0.1259  0.0679
  299POPC   C1B 4138   9.119   7.237   6.330  0.0522  0.0821 -0.0050
  299POPC   C2B 4139   8.855   7.127   6.633  0.0916  0.0568 -0.3381
  299POPC   C3B 4140   8.732   7.083   7.074  0.1421 -0.0082  0.0082
  299POPC   C4B 4141   8.993   6.737   7.302  0.0023  0.1126 -0.0309
  300POPC   NC3 4142   5.543   2.595   4.755  0.1053 -0.0880  0.4094
  300POPC   PO4 4143   5.940   2.545   4.933  0.0909  0.0549 -0.1268
  300POPC   GL1 4144   6.089   2.689   5.357 -0.0873  0.1099 -0.1034
  300POPC   GL2 4145   6.418   2.515   5.523 -0.1216 -0.1572  0.1303
  300POPC   C1A 4146   5.997   2.742   5.841  0.0189 -0.0086  0.2761
  300POPC   D2A 4147   5.927   3.102   6.104 -0.1168 -0.0449 -0.0129
  300POPC   C3A 4148   5.867   3.515   6.158 -0.1222  0.0739  0.0581
  300POPC   C4A 4149   5.668   3.823   6.412 -0.1652 -0.1943  0.2145
  300POPC   C1B 4150   6.486   2.753   5.930  0.1603  0.0384  0.4325
  300POPC   C2B 4151   6.466   2.639   6.375  0.3157 -0.1420  0.1517
  300POPC   C3B 4152   6.299   3.051   6.469 -0.0272 -0.1480 -0.3189
  300POPC   C4B 4153   5.968   3.252   6.625  0.1917  0.0415 -0.1449
  301POPC   NC3 4154   2.433   5.001   3.872 -0.1849  0.1443  0.1045
  301POPC   PO4 4155   2.327   5.296   4.341 -0.3661  0.2149  0.0901
  301POPC   GL1 4156   2.518   5.423   4.714 -0.1028 -0.1538  0.2749
  301POPC   GL2 4157   2.408   5.521   5.007 -0.0640  0.2117 -0.1083
  301POPC   C1A 4158   2.873   5.789   4.859 -0.1609 -0.0879  0.0905
  301POPC   D2A 4159   3.254   6.064   4.843  0.1465 -0.1351 -0.4129
  301POPC   C3A 4160   3.638   6.153   4.626  0.0255 -0.1268 -0.0199
  301POPC   C4A 4161   4.053   6.058   4.425  0.2022 -0.0730  0.3568
  301POPC   C1B 4162   2.535   5.804   5.347 -0.4612 -0.1859 -0.2202
  301POPC   C2B 4163   2.732   6.094   5.347  0.1826  0.1160 -0.1801
  301POPC   C3B 4164   2.781   6.500   5.384  0.0695  0.1496  0.2864
  301POPC   C4B 4165   3.040   6.745   5.726  0.2097 -0.1042  0.2182
  302POPC   NC3 4166   9.744   8.761   5.771  0.1284 -0.0812  0.1481
  302POPC   PO4 4167   9.977   9.224   5.645 -0.0299  0.2757 -0.0769
  302POPC   GL1 4168   9.856   9.363   5.950 -0.1602 -0.0096 -0.0247
  302POPC   GL2 4169   9.648   9.681   5.940  0.0663  0.1786 -0.0262
  302POPC   C1A 4170   9.889   9.418   6.369  0.0021 -0.0216 -0.3722
  302POPC   D2A 4171   9.983   9.243   6.741  0.3235  0.0165 -0.2003
  302POPC   C3A 4172  10.126   9.458   7.210 -0.2500 -0.0762 -0.2071
  302POPC   C4A 4173  10.204   9.605   7.627 -0.0826  0.1535 -0.0834
  302POPC   C1B 4174   9.597   9.918   6.260 -0.0295  0.0059  0.0061
  302POPC   C2B 4175   9.579  10.178   6.653 -0.0183  0.0233  0.1668
  302POPC   C3B 4176   9.523  10.545   7.005 -0.0480  0.1411  0.1186
  302POPC   C4B 4177   9.385  10.979   7.220  0.0977  0.1769  0.0874
  303POPC   NC3 4178   0.756   0.009   4.736 -0.1294  0.3780 -0.2218
  303POPC   PO4 4179   1.172  -0.001   4.949 -0.0544 -0.0483 -0.1020
  303POPC   GL1 4180   1.187  -0.120   5.411 -0.0705 -0.0062 -0.2056
  303POPC   GL2 4181   1.353   0.032   5.663 -0.3233 -0.2717 -0.1391
  303POPC   C1A 4182   0.954  -0.290   5.701 -0.1388  0.2073  0.4100
  303POPC   D2A 4183   1.007  -0.592   6.026  0.2456  0.1471 -0.2281
  303POPC   C3A 4184   0.786  -0.515   6.398 -0.2922 -0.0432 -0.1037
  303POPC   C4A 4185   0.839  -0.280   6.763  0.1424 -0.0376  0.1461
  303POPC   C1B 4186   1.186   0.377   5.690 -0.0648 -0.0896  0.1609
  303POPC   C2B 4187   0.933   0.563   6.008 -0.1740 -0.5176  0.0892
  303POPC   C3B 4188   0.528   0.781   6.078 -0.1000  0.0721 -0.0609
  303POPC   C4B 4189   0.201   0.824   6.277 -0.2061  0.2655 -0.2415
  304POPC   NC3 4190   5.517   2.269   5.153  0.2548 -0.0764 -0.0564
  304POPC   PO4 4191   5.156   2.097   4.912 -0.3258 -0.0841  0.1334
  304POPC   GL1 4192   5.096   2.173   5.393  0.1510  0.2252 -0.0366
  304POPC   GL2 4193   4.835   2.026   5.631 -0.1363  0.0230 -0.0314
  304POPC   C1A 4194   5.206   2.512   5.846  0.0431 -0.0666  0.0182
  304POPC   D2A 4195   5.052   2.831   6.109 -0.1359  0.0216  0.1613
  304POPC   C3A 4196   5.187   2.939   6.494  0.1286  0.0527  0.1147
  304POPC   C4A 4197   5.506   3.229   6.387  0.0775  0.1058  0.0621
  304POPC   C1B 4198   4.741   2.295   5.982  0.3393  0.0958  0.1651
  304POPC   C2B 4199   4.936   2.365   6.267  0.3240 -0.2126  0.1126
  304POPC   C3B 4200   4.710   2.740   6.467  0.0445  0.1403  0.0306
  304POPC   C4B 4201   4.509   2.836   6.895 -0.0456 -0.2565 -0.2522
  305POPC   NC3 4202   8.145   5.784   3.793  0.3698  0.0018 -0.0359
  305POPC   PO4 4203   7.847   5.705   4.133 -0.0734 -0.0252  0.1351
  305POPC   GL1 4204   7.735   5.830   4.569 -0.2350  0.1348  0.0446
  305POPC   GL2 4205   7.665   6.225   4.716 -0.1275  0.0150  0.2055
  305POPC   C1A 4206   7.745   5.620   4.979  0.1358  0.0359  0.2567
  305POPC   D2A 4207   8.004   5.265   5.109  0.0759 -0.1960  0.0597
  305POPC   C3A 4208   8.150   5.233   5.519  0.0427  0.1554  0.0646
  305POPC   C4A 4209   8.264   5.355   5.924 -0.4259  0.0845  0.0193
  305POPC   C1B 4210   7.543   6.059   5.100 -0.5088 -0.2077  0.0433
  305POPC   C2B 4211   7.292   5.997   5.399 -0.2079 -0.0168  0.2698
  305POPC   C3B 4212   6.956   6.189   5.627 -0.0661  0.0793 -0.1677
  305POPC   C4B 4213   6.817   6.468   5.969  0.1717  0.0489 -0.1176
  306POPC   NC3 4214   7.261   6.538   3.899  0.0473 -0.1764  0.2893
  306POPC   PO4 4215   7.013   6.784   4.252  0.3619 -0.2647  0.1031
  306POPC   GL1 4216   6.922   6.879   4.701 -0.1240  0.2245 -0.4161
  306POPC   GL2 4217   7.119   6.666   4.847 -0.0511 -0.2029 -0.0619
  306POPC   C1A 4218   6.538   6.848   5.040  0.1911  0.0454  0.2317
  306POPC   D2A 4219   6.239   6.580   5.213  0.2483 -0.0481  0.3746
  306POPC   C3A 4220   5.876   6.388   5.190 -0.1358 -0.0470  0.2381
  306POPC   C4A 4221   5.604   6.110   5.391  0.1214  0.0317 -0.1839
  306POPC   C1B 4222   7.133   6.209   4.877  0.0948 -0.2466  0.0892
  306POPC   C2B 4223   7.165   5.706   4.931 -0.0543  0.3680 -0.2149
  306POPC   C3B 4224   6.902   5.300   4.925 -0.1081 -0.0379 -0.4097
  306POPC   C4B 4225   6.960   4.894   5.026  0.1192  0.1438 -0.0990
  307POPC   NC3 4226   5.153   0.825   5.740  0.3058 -0.1978  0.0094
  307POPC   PO4 4227   4.841   0.519   5.730 -0.3430  0.0360  0.2031
  307POPC   GL1 4228   4.962   0.582   6.205  0.1571 -0.1150 -0.0320
  307POPC   GL2 4229   5.071   0.899   6.201 -0.3483 -0.0312 -0.0643
  307POPC   C1A 4230   4.994   0.522   6.686  0.3107 -0.2100 -0.1480
  307POPC   D2A 4231   4.996   0.311   7.046 -0.0880 -0.2816  0.2703
  307POPC   C3A 4232   4.797   0.461   7.313 -0.2708  0.0190  0.0080
  307POPC   C4A 4233   4.738   0.908   7.541  0.0133  0.1370  0.2178
  307POPC   C1B 4234   4.792   0.997   6.533  0.0562 -0.0654 -0.3648
  307POPC   C2B 4235   4.687   0.783   6.922 -0.2619  0.2190  0.0603
  307POPC   C3B 4236   4.347   0.683   7.186  0.0573 -0.1562  0.0036
  307POPC   C4B 4237   3.944   0.430   7.156  0.1309 -0.0570 -0.0824
  308POPC   NC3 4238   6.130   7.924   4.648  0.0255 -0.3115 -0.0750
  308POPC   PO4 4239   6.499   7.667   4.629 -0.0826  0.1568  0.2787
  308POPC   GL1 4240   6.656   7.499   5.003  0.1279  0.0561 -0.0268
  308POPC   GL2 4241   6.939   7.388   5.074  0.1983 -0.0299 -0.1765
  308POPC   C1A 4242   6.792   7.686   5.420  0.1093  0.1177 -0.3325
  308POPC   D2A 4243   6.704   7.564   5.907 -0.2932 -0.1110  0.2151
  308POPC   C3A 4244   6.799   7.257   6.133 -0.3673 -0.2499  0.1118
  308POPC   C4A 4245   6.828   6.869   6.291 -0.0213 -0.1926 -0.0581
  308POPC   C1B 4246   6.693   7.178   5.353  0.1996  0.2558 -0.0681
  308POPC   C2B 4247   6.506   7.122   5.751 -0.1534 -0.1921  0.0447
  308POPC   C3B 4248   6.361   6.816   6.063 -0.0574 -0.3104 -0.1111
  308POPC   C4B 4249   6.510   6.543   6.387  0.0771  0.2360 -0.2910
  309POPC   NC3 4250   2.852   9.756   5.365  0.3069 -0.4151  0.1524
  309POPC   PO4 4251   3.047   9.375   5.490  0.0932 -0.0118 -0.0181
  309POPC   GL1 4252   3.119   9.317   5.922  0.1471 -0.1000  0.0756
  309POPC   GL2 4253   3.305   9.530   5.944  0.1006  0.1699 -0.2945
  309POPC   C1A 4254   2.791   9.400   6.292  0.1448  0.1443  0.0571
  309POPC   D2A 4255   2.580   9.365   6.679  0.0007 -0.1784  0.1563
  309POPC   C3A 4256   2.685   9.648   6.922  0.2998  0.1333  0.1080
  309POPC   C4A 4257   2.942   9.657   7.299  0.1817 -0.0788  0.0846
  309POPC   C1B 4258   3.326   9.235   6.357  0.0843  0.0095  0.1305
  309POPC   C2B 4259   3.572   9.047   6.660  0.2179  0.0524 -0.0263
  309POPC   C3B 4260   3.915   9.096   7.012  0.1537 -0.4841  0.1953
  309POPC   C4B 4261   4.161   9.269   7.301 -0.1161  0.0325 -0.0399
  310POPC   NC3 4262   9.845   6.263   5.325  0.1882  0.1259  0.2899
  310POPC   PO4 4263   9.958   6.598   5.322  0.2382 -0.0027  0.0340
  310POPC   GL1 4264   9.908   6.726   5.625  0.1315 -0.0087  0.2303
  310POPC   GL2 4265   9.893   7.009   5.725 -0.1933  0.1269 -0.4073
  310POPC   C1A 4266   9.899   6.558   6.016  0.2611 -0.1212 -0.0913
  310POPC   D2A 4267   9.724   6.586   6.438  0.2075 -0.0021  0.4395
  310POPC   C3A 4268   9.809   6.721   6.714 -0.0929 -0.1582  0.0881
  310POPC   C4A 4269   9.790   7.197   6.970  0.0474 -0.1179  0.0950
  310POPC   C1B 4270   9.792   7.171   6.157  0.4717  0.0852 -0.0753
  310POPC   C2B 4271   9.630   7.189   6.506  0.0109  0.1044  0.2043
  310POPC   C3B 4272   9.327   7.010   6.794  0.1874 -0.1723  0.0854
  310POPC   C4B 4273   9.299   7.179   7.157  0.2268  0.1457 -0.2403
  311POPC   NC3 4274   3.701   1.305   5.474  0.3934  0.0228 -0.1043
  311POPC   PO4 4275   3.982   1.585   5.274  0.3055 -0.1168 -0.2696
  311POPC   GL1 4276   4.014   1.647   5.747  0.2230  0.0355 -0.0803
  311POPC   GL2 4277   4.016   2.004   5.813  0.1684  0.2093 -0.1811
  311POPC   C1A 4278   3.954   1.589   6.179 -0.2471 -0.2742  0.1669
  311POPC   D2A 4279   4.144   1.760   6.495  0.3301  0.0976 -0.0305
  311POPC   C3A 4280   3.983   1.788   6.975  0.0984  0.1761  0.2056
  311POPC   C4A 4281   4.124   1.925   7.421  0.0221  0.4898 -0.0977
  311POPC   C1B 4282   3.943   2.142   6.249 -0.1084 -0.1398 -0.0564
  311POPC   C2B 4283   3.986   2.162   6.706 -0.1149 -0.1921  0.0126
  311POPC   C3B 4284   4.207   2.248   7.101  0.3071  0.0018 -0.0511
  311POPC   C4B 4285   4.295   2.554   7.353  0.0559  0.0414 -0.0767
  312POPC   NC3 4286   5.922   0.490   5.696  0.0384  0.2752 -0.1267
  312POPC   PO4 4287   5.655   0.780   5.577  0.0709  0.1790 -0.2650
  312POPC   GL1 4288   5.628   0.901   6.039 -0.1368  0.0034 -0.0021
  312POPC   GL2 4289   5.801   0.717   6.292  0.0417  0.2733 -0.2011
  312POPC   C1A 4290   5.791   1.184   6.358 -0.1438  0.2317  0.0927
  312POPC   D2A 4291   6.053   1.455   6.517  0.2963  0.0884  0.1198
  312POPC   C3A 4292   6.092   1.460   7.017  0.3403 -0.0477  0.1839
  312POPC   C4A 4293   6.293   1.689   7.373  0.2589  0.0904 -0.1407
  312POPC   C1B 4294   5.428   0.793   6.571 -0.1669 -0.0239 -0.0366
  312POPC   C2B 4295   5.344   1.082   6.866 -0.2931 -0.0310 -0.1998
  312POPC   C3B 4296   5.602   1.510   7.063  0.1822 -0.0907 -0.0150
  312POPC   C4B 4297   5.817   1.564   7.438 -0.0298  0.0980 -0.2227
  313POPC   NC3 4298   8.242   7.321   5.026 -0.1580  0.2138  0.1141
  313POPC   PO4 4299   8.503   7.413   5.360  0.2378 -0.1785  0.5375
  313POPC   GL1 4300   8.133   7.335   5.603 -0.1122  0.1798  0.3437
  313POPC   GL2 4301   7.867   7.065   5.470  0.2616 -0.0095 -0.1155
  313POPC   C1A 4302   7.970   7.266   6.012  0.0774 -0.1282 -0.1209
  313POPC   D2A 4303   8.022   6.925   6.248 -0.0811 -0.0218 -0.1638
  313POPC   C3A 4304   7.834   6.778   6.597  0.2019 -0.1692  0.1856
  313POPC   C4A 4305   7.469   6.783   6.782  0.5583 -0.2797  0.0612
  313POPC   C1B 4306   7.544   6.950   5.684 -0.0419 -0.2039 -0.1460
  313POPC   C2B 4307   7.384   7.138   6.076 -0.0270 -0.0164  0.0078
  313POPC   C3B 4308   7.233   7.149   6.503  0.0397  0.1834 -0.0121
  313POPC   C4B 4309   6.830   7.114   6.784 -0.0171  0.1157 -0.2551
  314POPC   NC3 4310   2.302   9.184   5.512 -0.1633 -0.0007  0.0728
  314POPC   PO4 4311   2.397   9.612   5.545  0.0184 -0.1141 -0.0066
  314POPC   GL1 4312   2.630   9.565   5.827 -0.0560  0.1859 -0.1641
  314POPC   GL2 4313   2.666   9.194   5.866 -0.1352  0.1837 -0.0455
  314POPC   C1A 4314   2.903   9.909   6.143  0.2064  0.1470 -0.0320
  314POPC   D2A 4315   3.010  10.211   6.529 -0.1227 -0.0845  0.0065
  314POPC   C3A 4316   3.402  10.245   6.828  0.2648  0.1379  0.2534
  314POPC   C4A 4317   3.382   9.855   7.109  0.0753  0.0373  0.1875
  314POPC   C1B 4318   2.971   8.881   6.038 -0.2110  0.0519 -0.0487
  314POPC   C2B 4319   3.051   8.828   6.370  0.0406 -0.1941  0.1171
  314POPC   C3B 4320   3.031   8.448   6.792 -0.1887  0.0007  0.1090
  314POPC   C4B 4321   2.904   8.625   7.245  0.1194 -0.0322 -0.3501
  315POPC   NC3 4322   6.971   4.809   3.524 -0.0871 -0.2234 -0.2625
  315POPC   PO4 4323   6.628   5.176   3.705  0.2960  0.0004  0.0162
  315POPC   GL1 4324   6.440   5.274   4.141  0.0266  0.3927 -0.2724
  315POPC   GL2 4325   6.259   5.031   4.358 -0.0629  0.2493 -0.0529
  315POPC   C1A 4326   6.220   5.564   4.372 -0.2146 -0.2800 -0.1332
  315POPC   D2A 4327   6.096   5.690   4.804  0.0021 -0.0688 -0.0842
  315POPC   C3A 4328   5.856   5.982   4.845 -0.1359 -0.0655  0.2005
  315POPC   C4A 4329   5.497   6.222   4.904 -0.0040 -0.1480 -0.0283
  315POPC   C1B 4330   6.010   4.684   4.692 -0.1892 -0.2517 -0.0405
  315POPC   C2B 4331   5.871   4.779   5.079  0.1355  0.2561 -0.0177
  315POPC   C3B 4332   5.839   4.899   5.434 -0.1332  0.1755 -0.0804
  315POPC   C4B 4333   5.691   5.025   5.880  0.2803  0.1172  0.1217
  316POPC   NC3 4334   8.879   2.164   5.263  0.1331  0.2516 -0.2941
  316POPC   PO4 4335   8.594   2.447   5.442 -0.1884 -0.0471 -0.1500
  316POPC   GL1 4336   8.464   2.744   5.721  0.1000 -0.0832 -0.2487
  316POPC   GL2 4337   8.151   2.969   5.779  0.0048 -0.2780  0.2123
  316POPC   C1A 4338   8.500   2.606   6.130  0.0392 -0.4130  0.2482
  316POPC   D2A 4339   8.225   2.417   6.465 -0.1346 -0.4447  0.1133
  316POPC   C3A 4340   8.514   2.402   6.815  0.1308 -0.3098  0.2997
  316POPC   C4A 4341   8.743   2.144   7.118 -0.2055  0.0547 -0.1431
  316POPC   C1B 4342   8.106   3.201   6.099  0.2856 -0.2099  0.0471
  316POPC   C2B 4343   8.075   3.478   6.345  0.1221 -0.0657 -0.1376
  316POPC   C3B 4344   8.262   3.705   6.641  0.3180 -0.2106  0.3211
  316POPC   C4B 4345   8.186   3.869   7.012  0.0761  0.0903 -0.1781
  317POPC   NC3 4346   3.192   2.223   5.352 -0.2104 -0.0079 -0.1745
  317POPC   PO4 4347   2.722   2.396   5.365 -0.3121 -0.2587  0.0504
  317POPC   GL1 4348   2.843   2.311   5.785 -0.1853  0.1083  0.4094
  317POPC   GL2 4349   2.933   2.031   5.772 -0.2263  0.0672  0.0945
  317POPC   C1A 4350   3.084   2.246   6.179 -0.2139  0.0972  0.0691
  317POPC   D2A 4351   2.998   2.022   6.498 -0.3067 -0.3276 -0.0832
  317POPC   C3A 4352   2.762   2.124   6.811  0.1274  0.1069 -0.2258
  317POPC   C4A 4353   2.368   1.933   7.013 -0.0609  0.1358 -0.0301
  317POPC   C1B 4354   2.684   1.844   6.058  0.0552  0.4543 -0.1286
  317POPC   C2B 4355   2.443   1.801   6.508  0.2687 -0.0843  0.0902
  317POPC   C3B 4356   2.040   1.697   6.682 -0.2414  0.2137 -0.0551
  317POPC   C4B 4357   1.647   1.680   6.734  0.2823 -0.1628  0.1518
  318POPC   NC3 4358   2.757   8.502   5.105  0.1441 -0.3463  0.0140
  318POPC   PO4 4359   2.450   8.345   5.415  0.0581 -0.0524 -0.1684
  318POPC   GL1 4360   2.709   8.394   5.712  0.3113 -0.4368 -0.0573
  318POPC   GL2 4361   3.051   8.476   5.590  0.2232  0.1090 -0.0679
  318POPC   C1A 4362   2.893   8.033   5.877 -0.2541 -0.4622  0.1373
  318POPC   D2A 4363   3.054   7.684   6.099 -0.0889  0.1709  0.0274
  318POPC   C3A 4364   2.788   7.459   6.474 -0.0570  0.0391 -0.3308
  318POPC   C4A 4365   2.536   7.273   6.789  0.2850 -0.0992  0.1685
  318POPC   C1B 4366   3.312   8.346   5.984  0.3370  0.0630  0.1271
  318POPC   C2B 4367   3.327   8.031   6.289 -0.2053  0.1659 -0.2398
  318POPC   C3B 4368   3.495   8.162   6.666  0.4910 -0.4208  0.3118
  318POPC   C4B 4369   3.801   8.009   6.971 -0.0524 -0.1647  0.1942
  319W        W 4370   3.222   5.389  13.386 -0.0322  0.2606  0.0354
  320W        W 4371   7.036   7.125   1.603 -0.0861  0.1690 -0.1021
  321W        W 4372   3.481   0.731   0.269 -0.0134  0.0930  0.0626
  322W        W 4373   5.839   2.034   1.006 -0.0363 -0.1169 -0.1267
  323W        W 4374   0.413   4.475  11.439 -0.3133 -0.1405  0.0279
  324W        W 4375   4.076   4.308  11.666  0.0300  0.2998  0.3043
  325W        W 4376   8.092   5.050  12.060 -0.1381  0.0747  0.3619
  326W        W 4377   7.220   1.080  13.695  0.4287  0.0123  0.2085
  327W        W 4378   9.481   1.236   0.316 -0.0375 -0.3249 -0.0700
  328W        W 4379   5.327   8.706   1.024 -0.2660 -0.3075  0.1765
  329W        W 4380   5.082   1.541   1.573  0.3190  0.5146  0.1812
  330W        W 4381   8.331   6.719   2.754  0.0795 -0.0934 -0.1433
  331W        W 4382   0.128   7.366   8.804 -0.4181  0.0660 -0.1858
  332W        W 4383   6.841   9.402   0.276  0.1216  0.0180 -0.1677
  333W        W 4384   9.625   0.087  11.913 -0.0732  0.0968  0.1924
  334W        W 4385   7.464   8.977   4.110  0.0286 -0.0515 -0.1720
  335W        W 4386   9.150   4.388   3.816  0.0752  0.1184 -0.0996
  336W        W 4387   5.280   4.353   0.930  0.3296  0.2342  0.1029
  337W        W 4388   3.478   9.788   2.234  0.3349  0.0327  0.1592
  338W        W 4389   9.227   1.844  13.667 -0.0296 -0.0228 -0.4621
  339W        W 4390   7.297   5.056  13.692 -0.2598 -0.4254  0.3172
  340W        W 4391   4.235   9.093   4.325  0.2842 -0.1660  0.0767
  341W        W 4392   8.278   4.682   1.724 -0.0061  0.0744  0.0164
  342W        W 4393   8.868   7.138  10.474 -0.1348 -0.1594 -0.2226
  343W        W 4394   7.785   6.592  13.103 -0.0415  0.2738  0.3376
  344W        W 4395   4.507   9.184   3.040 -0.1954 -0.2683  0.3831
  345W        W 4396   9.711   8.744   4.955 -0.2544  0.0392  0.1803
  346W        W 4397   7.282   0.621   3.674 -0.2850 -0.0906 -0.2127
  347W        W 4398   6.789   2.144  10.944  0.0877 -0.0033  0.0974
  348W        W 4399   4.143   0.617  11.619 -0.0102 -0.0356  0.0652
  349W        W 4400   0.856   8.018  11.347  0.4824  0.0326 -0.1388
  350W        W 4401   7.284   8.091   1.082 -0.0337 -0.5283  0.0877
  351W        W 4402   8.313   2.529   1.552  0.3260  0.1585  0.2807
  352W        W 4403   5.588   8.025   1.809 -0.0741  0.4772  0.0801
  353W        W 4404   9.504   1.591  10.451 -0.0481  0.2365  0.3228
  354W        W 4405   0.922   0.703   3.572 -0.1357  0.3173 -0.0599
  355W        W 4406   9.893   4.283   3.224  0.2757  0.1137 -0.0283
  356W        W 4407   0.829   7.684   0.277 -0.0207 -0.2027 -0.1964
  357W        W 4408   3.808   4.365   1.044  0.0002 -0.0476 -0.1265
  358W        W 4409   7.707   3.517   9.635  0.0191  0.4027 -0.0473
  359W        W 4410   5.723   4.745  12.081  0.1730 -0.3448  0.2175
  360W        W 4411   5.729   4.532   0.757  0.3657  0.2274 -0.2675
  361W        W 4412   9.018   1.119   4.148  0.1006 -0.0985 -0.0830
  362W        W 4413   4.850   9.543  10.105 -0.0162  0.1398  0.1013
  363W        W 4414   2.217   4.580   5.037  0.0934  0.0245 -0.0424
  364W        W 4415   7.040   0.325  12.237 -0.2285  0.6187 -0.1078
  365W        W 4416   7.207   4.273   2.856 -0.0284 -0.2290 -0.1232
  366W        W 4417   7.633   6.045  10.548 -0.1597  0.3047 -0.1206
  367W        W 4418   5.050   9.225   1.609  0.0603 -0.0106 -0.0626
  368W        W 4419   9.554   1.177   0.866 -0.0342  0.0506 -0.0557
  369W        W 4420   0.685   1.659   4.422  0.0092  0.2271  0.2742
  370W        W 4421   1.559   2.562  13.952  0.1037 -0.1676  0.0339
  371W        W 4422   3.384   3.696  11.582 -0.1757 -0.0202 -0.2843
  372W        W 4423   9.832   7.528   1.605  0.0345 -0.1046  0.0768
  373W        W 4424   5.927   0.762   4.666  0.2459  0.0715  0.2436
  374W        W 4425   7.206   5.178   2.866 -0.0305  0.4054  0.0477
  375W        W 4426   1.051   4.318  13.356 -0.1267 -0.0883 -0.1246
  376W        W 4427   8.345   2.265  10.240  0.0006 -0.1884  0.1248
  377W        W 4428   7.270   2.406   1.608  0.0085  0.0082 -0.0345
  378W        W 4429   5.372   9.748   4.869 -0.2288 -0.2335  0.2100
  379W        W 4430   2.814   0.496   4.706 -0.0119  0.0291 -0.1443
  380W        W 4431   3.638   3.128   0.466  0.2600 -0.2988 -0.0150
  381W        W 4432   1.944   1.490  12.532  0.1482  0.0884 -0.0345
  382W        W 4433   1.372  10.129   0.958 -0.1035  0.0260 -0.4252
  383W        W 4434   3.866   3.295   2.948  0.0619  0.2189  0.0163
  384W        W 4435   2.776   0.312  10.741 -0.2772 -0.0205  0.2249
  385W        W 4436   6.595   3.533  10.521  0.0697  0.1956 -0.1507
  386W        W 4437  10.002   2.161   1.313 -0.1090 -0.1133  0.2876
  387W        W 4438   4.437   6.669   0.214 -0.0476  0.1724  0.0741
  388W        W 4439   4.471   1.876  10.525 -0.6075 -0.0514 -0.1578
  389W        W 4440   3.778   0.788   2.224 -0.2088  0.0459  0.3287
  390W        W 4441   2.146   9.132  13.537 -0.1824 -0.1743 -0.0732
  391W        W 4442   1.670   0.857  13.294  0.2153 -0.0794  0.0503
  392W        W 4443   0.817   8.691   1.461  0.0129  0.0594  0.2597
  393W        W 4444   6.255   4.022   4.559  0.2118 -0.2412  0.0409
  394W        W 4445   2.219   1.849  12.256  0.1801 -0.0237 -0.0768
  395W        W 4446  10.040   2.155  12.760 -0.2876 -0.1853  0.1219
  396W        W 4447   9.770   9.488  13.240  0.1175 -0.3984  0.0742
  397W        W 4448   4.513   6.760   2.792 -0.0268  0.0349  0.3944
  398W        W 4449   0.743   7.382  10.410  0.0892  0.2312 -0.0031
  399W        W 4450   4.840   0.609   3.286 -0.1130  0.0728  0.0402
  400W        W 4451   9.989   8.168   3.541  0.1990  0.1383  0.1786
  401W        W 4452   9.854   0.303   2.346  0.0138  0.0987  0.0314
  402W        W 4453   9.811   4.972  13.091  0.0576 -0.1326  0.0542
  403W        W 4454   4.148   0.879   3.756 -0.1994 -0.0101 -0.2024
  404W        W 4455   8.195   6.001  11.805 -0.0503 -0.2075 -0.0412
  405W        W 4456   9.297   0.674   2.968 -0.2117  0.1820  0.0035
  406W        W 4457   4.146   1.813   4.435  0.2019  0.4225  0.2864
  407W        W 4458   7.999   6.419   1.192  0.0863  0.0606 -0.1674
  408W        W 4459   9.678   7.302   3.048  0.0877 -0.0383 -0.0517
  409W        W 4460   0.791   6.786   3.519  0.1241  0.3985  0.1835
  410W        W 4461   7.617   5.253   2.235 -0.0099  0.0347 -0.2069
  411W        W 4462   8.815   0.635   0.967  0.0194  0.0953 -0.1817
  412W        W 4463   0.807   6.968   0.771 -0.1460  0.1609  0.0327
  413W        W 4464   6.667   6.765  12.144 -0.2430  0.2487  0.2585
  414W        W 4465   7.911   6.219   2.040 -0.0125  0.3499 -0.0507
  415W        W 4466   4.001   3.610  12.179  0.1486 -0.1209 -0.0172
  416W        W 4467   1.403   8.759   4.546  0.2676 -0.0498  0.0252
  417W        W 4468   0.745   1.606   1.853  0.1990 -0.4052 -0.0929
  418W        W 4469   9.135   1.357   1.927 -0.2581 -0.1857  0.0187
  419W        W 4470   5.911   2.563   4.420  0.0639 -0.0053  0.0148
  420W        W 4471   3.720   3.563   1.507 -0.1919  0.1462  0.0117
  421W        W 4472   7.239   2.104   2.975  0.0701 -0.0194  0.0811
  422W        W 4473   9.191   1.953   9.783  0.3750  0.1043 -0.0695
  423W        W 4474   6.323   1.160  12.087  0.3054 -0.3265 -0.0816
  424W        W 4475   4.554   9.384   1.707  0.0895  0.3675 -0.0205
  425W        W 4476   3.645   2.229  13.920 -0.2347 -0.1141 -0.1660
  426W        W 4477   4.302   6.337  13.227  0.2638 -0.2378  0.0740
  427W        W 4478   3.851   5.670   2.433  0.2892 -0.2160  0.2486
  428W        W 4479   3.826   3.857  11.740 -0.3203  0.1478 -0.1297
  429W        W 4480   7.211   2.013   0.680 -0.1686  0.0127  0.2351
  430W        W 4481   0.131   6.100  13.393  0.1247 -0.1182  0.1324
  431W        W 4482   5.770   9.669   4.392 -0.0418 -0.0487 -0.0956
  432W        W 4483   1.107   7.970   8.857 -0.0921 -0.2282  0.2012
  433W        W 4484   4.707   5.203  10.520  0.0061 -0.2870  0.1146
  434W        W 4485   8.101   7.775  10.802  0.0077 -0.5615  0.1498
  435W        W 4486   7.453   1.882   3.403 -0.0760 -0.0676 -0.1502
  436W        W 4487   5.692   6.164  11.979  0.2698  0.1309 -0.2174
  437W        W 4488   1.503  10.077  10.410  0.1146  0.0504  0.0801
  438W        W 4489   8.147   0.507   3.583  0.4589  0.1642 -0.2279
  439W        W 4490   9.841   3.381   0.680 -0.2312 -0.2361 -0.1140
  440W        W 4491   0.041   9.471  12.112  0.1689 -0.0546 -0.1331
  441W        W 4492   8.791   3.853  10.371 -0.0316 -0.1325  0.1893
  442W        W 4493   0.064   1.178   9.171  0.0005  0.3304 -0.0440
  443W        W 4494   2.377   5.153   0.699  0.0708 -0.2247  0.1015
  444W        W 4495   8.106   5.336   0.410  0.1449  0.0410 -0.3542
  445W        W 4496   7.525   3.471  13.982  0.0714 -0.6375 -0.1210
  446W        W 4497   4.013   0.992   1.252  0.0174  0.0529 -0.2071
  447W        W 4498   4.804   7.868   1.067 -0.1736  0.3806  0.0594
  448W        W 4499   2.604   8.004   3.826  0.1890 -0.0985  0.2410
  449W        W 4500   2.087   7.500   0.580 -0.3019 -0.3543  0.1025
  450W        W 4501   9.419   9.446   3.756  0.2783 -0.0520 -0.0916
  451W        W 4502   4.628   3.893  13.687  0.1371  0.1371 -0.1027
  452W        W 4503   4.021   8.223   2.904 -0.1216 -0.5013 -0.6044
  453W        W 4504   4.425   1.988  13.260 -0.2191 -0.0117 -0.0969
  454W        W 4505   6.482   4.150  11.703  0.1081 -0.0860 -0.2890
  455W        W 4506   9.475   9.420   3.285 -0.2964  0.1572  0.1647
  456W        W 4507   0.932   0.941   2.638  0.0557 -0.2262 -0.0212
  457W        W 4508   4.355   1.345   4.503 -0.4142 -0.0770 -0.2782
  458W        W 4509   3.700   9.564  13.628  0.1198 -0.1060 -0.0805
  459W        W 4510   7.543   8.443  12.936  0.1378  0.1837  0.1530
  460W        W 4511   8.629   1.777   3.147  0.0241  0.1144  0.2401
  461W        W 4512   2.516   5.296  10.585  0.1002 -0.0978 -0.2569
  462W        W 4513   2.008   5.443   1.851  0.2009 -0.1990 -0.0653
  463W        W 4514   1.611   0.991   0.604  0.2788  0.3821 -0.1062
  464W        W 4515   5.596   4.907  13.130 -0.1399  0.0718  0.0767
  465W        W 4516   5.698   6.497   2.847 -0.2513 -0.1880 -0.0164
  466W        W 4517   2.333   9.274   4.004 -0.2258 -0.2314  0.0742
  467W        W 4518   3.962   2.767   2.516 -0.0721  0.1356 -0.3480
  468W        W 4519   6.094   7.660  11.909  0.0890 -0.0326 -0.1561
  469W        W 4520   8.956   2.439   9.602  0.0436 -0.0219  0.0658
  470W        W 4521   3.183   8.805  10.958  0.0415  0.0214  0.2216
  471W        W 4522   0.555   4.330   0.723 -0.0318  0.0357 -0.2174
  472W        W 4523   5.166   4.960  10.726 -0.3024 -0.2555 -0.0363
  473W        W 4524   9.385   0.381   2.607  0.1604 -0.0072 -0.0833
  474W        W 4525   2.563   1.591  10.804 -0.2731 -0.2758  0.0486
  475W        W 4526   8.488   2.319   9.533 -0.1376 -0.0517 -0.0178
  476W        W 4527   5.860   2.333  13.632 -0.1619 -0.1276 -0.2677
  477W        W 4528   7.866   5.969   3.387 -0.2240  0.2455  0.0204
  478W        W 4529   5.751   5.067   3.085  0.1232 -0.1090  0.1378
  479W        W 4530   8.866   8.506   4.773  0.1791 -0.0809  0.2727
  480W        W 4531   8.018   4.247   1.433 -0.0279  0.0188 -0.0823
  481W        W 4532   4.580   0.209  13.708  0.0124 -0.2256  0.0276
  482W        W 4533   2.442   5.777  10.400 -0.3129  0.2782  0.1582
  483W        W 4534   8.282   5.683   3.235  0.0905 -0.3340 -0.0119
  484W        W 4535   4.511   9.093  10.958  0.0070 -0.2645  0.0463
  485W        W 4536   8.754   7.869   4.458 -0.0399  0.1493  0.1938
  486W        W 4537   1.021   2.793  12.832 -0.0313 -0.0382  0.0392
  487W        W 4538   6.692   2.744   1.131 -0.0415 -0.0729 -0.1066
  488W        W 4539   9.840   8.651  11.834  0.0267  0.3658  0.1465
  489W        W 4540   0.147   1.849  13.929  0.1079 -0.1693  0.2099
  490W        W 4541   5.224   8.456   3.109 -0.1724 -0.0044 -0.2318
  491W        W 4542   7.451   2.510   0.133  0.0590  0.0106 -0.1432
  492W        W 4543   1.896   8.549  10.897  0.2373  0.1348  0.2113
  493W        W 4544   4.937   7.849   1.878 -0.0452  0.2178  0.0735
  494W        W 4545   2.208   4.600   0.222  0.2012 -0.1618 -0.0896
  495W        W 4546   9.530   5.404  12.670 -0.0428 -0.0626 -0.1795
  496W        W 4547   3.734  10.018   1.881  0.0107  0.1376 -0.3406
  497W        W 4548   8.806   0.867   2.833 -0.2235  0.4450 -0.3582
  498W        W 4549   2.879   7.349  11.889 -0.0060  0.2985 -0.2037
  499W        W 4550   0.356   7.845  12.627 -0.1504 -0.0468 -0.3806
  500W        W 4551   3.785   6.760  11.680 -0.0907  0.1404 -0.0664
  501W        W 4552   1.743   6.531  13.733  0.4136 -0.3652 -0.2982
  502W        W 4553   2.753   1.034  10.727  0.1807 -0.3118  0.1376
  503W        W 4554   1.331   7.106   1.498 -0.0209  0.0237  0.0354
  504W        W 4555   2.976   4.929   0.152 -0.0175  0.0684 -0.1669
  505W        W 4556   7.187   0.914   4.438 -0.1744 -0.0548 -0.0174
  506W        W 4557   8.257   4.742   1.118  0.1282  0.2875  0.1676
  507W        W 4558   1.094   0.894  10.424 -0.5774 -0.0274  0.1959
  508W        W 4559   7.701   5.997  11.919  0.2263 -0.1997 -0.3539
  509W        W 4560   9.994   4.242   0.287 -0.0100 -0.1773 -0.2805
  510W        W 4561   7.152   3.540   2.593 -0.1915 -0.0931  0.2927
  511W        W 4562   2.310   6.589   2.803  0.0807  0.2457  0.0367
  512W        W 4563   5.286   9.210   1.178 -0.0736 -0.1075 -0.1032
  513W        W 4564   6.115   5.794   2.409  0.0790 -0.0591 -0.2559
  514W        W 4565   4.282   0.264  11.116  0.2758  0.0139  0.2640
  515W        W 4566   2.540   2.856  10.805 -0.1417  0.0806  0.1575
  516W        W 4567   8.172   4.952  13.826  0.1017  0.1358 -0.1972
  517W        W 4568   9.435   6.474   2.640 -0.0682  0.5284 -0.2158
  518W        W 4569   2.857   6.784  11.140 -0.1056 -0.1265 -0.4458
  519W        W 4570   0.915   5.543  12.954  0.0027  0.1841 -0.0759
  520W        W 4571   2.994   0.046   2.473 -0.0737  0.0707 -0.0550
  521W        W 4572   1.763   4.959   3.841 -0.0531  0.2268 -0.1114
  522W        W 4573   4.383   8.354  10.217 -0.1946 -0.3423  0.0170
  523W        W 4574   1.055   2.492   0.054 -0.0279 -0.1794  0.1477
  524W        W 4575  10.019   4.894   1.925 -0.1512  0.2662  0.2252
  525W        W 4576   8.260   7.042   3.242  0.0678  0.0207  0.2099
  526W        W 4577   6.712   8.722  11.337 -0.0784  0.0393 -0.3007
  527W        W 4578   2.875   4.935  10.747  0.1949  0.0241 -0.2390
  528W        W 4579   3.235   0.824  11.712 -0.2824 -0.1997 -0.2126
  529W        W 4580   5.318   0.508  10.109  0.0907 -0.0781  0.3060
  530W        W 4581   0.775   9.188   1.459 -0.0253  0.1480  0.1851
  531W        W 4582   4.423   8.834   4.708 -0.0220 -0.2356  0.0798
  532W        W 4583   3.393   8.386   3.818 -0.2314  0.3087 -0.2549
  533W        W 4584   7.881   9.396   0.589  0.1467  0.0070 -0.0579
  534W        W 4585   5.105   1.605   4.686 -0.2099  0.1022 -0.4637
  535W        W 4586   7.054   8.182   5.195  0.0514 -0.1370 -0.3731
  536W        W 4587   5.635   9.955   0.652  0.1905  0.1877  0.0625
  537W        W 4588   3.622   2.017   0.989 -0.1011 -0.0577  0.1213
  538W        W 4589   8.537   0.512  11.989  0.1591 -0.2103  0.3567
  539W        W 4590   1.330   1.906  11.736 -0.3430 -0.1793  0.0413
  540W        W 4591   5.610   4.000   1.654 -0.0675  0.1559 -0.1820
  541W        W 4592   4.401   7.710  11.699 -0.0031 -0.3401 -0.0749
  542W        W 4593   1.403   1.648  14.004 -0.0372 -0.2593  0.1959
  543W        W 4594   1.028   0.450   0.174 -0.0996  0.3348  0.1390
  544W        W 4595   1.895   1.732   9.218 -0.0563  0.1685  0.0934
  545W        W 4596   4.244   0.414  12.655  0.1731  0.0971  0.1424
  546W        W 4597   7.156   8.749   9.958  0.1760  0.2222 -0.0155
  547W        W 4598   4.782   8.517   5.067 -0.1168  0.0314  0.1474
  548W        W 4599   1.287   3.771   9.576  0.0647  0.1038 -0.2336
  549W        W 4600   2.843   8.001   3.164 -0.0622 -0.2479  0.1588
  550W        W 4601  10.020   4.657   3.665  0.2774  0.2272  0.1870
  551W        W 4602   3.140   1.931  13.771  0.0357 -0.2454 -0.1986
  552W        W 4603   4.169   2.463  10.511  0.1582  0.2746  0.0612
  553W        W 4604   6.412   7.068   2.698 -0.0651 -0.2235  0.0078
  554W        W 4605   6.530   1.845   4.793 -0.0806 -0.0235  0.5974
  555W        W 4606   1.094   4.888  10.666 -0.0478  0.1598 -0.1990
  556W        W 4607   5.788   8.319   4.753  0.2852 -0.2080 -0.0041
  557W        W 4608   1.002   3.151  11.905  0.3467  0.0842  0.1268
  558W        W 4609   1.345   5.078   4.693  0.1664 -0.1878 -0.0669
  559W        W 4610   7.289   7.204   3.127  0.0472 -0.0909 -0.1959
  560W        W 4611   1.339   9.179  12.041  0.0276  0.2232  0.2770
  561W        W 4612   2.321   7.492  10.778 -0.1209  0.2757  0.0094
  562W        W 4613   8.106   4.503   3.118  0.1077  0.2767 -0.0132
  563W        W 4614   6.497   8.670   0.514  0.0434 -0.0932 -0.2866
  564W        W 4615   2.278   5.465   1.409  0.0949 -0.2445 -0.1357
  565W        W 4616   7.771   8.544   2.628  0.1750 -0.1072 -0.0966
  566W        W 4617   8.608   9.511   3.025 -0.0682  0.2641 -0.0705
  567W        W 4618   6.640   4.608   0.366  0.0280 -0.1345  0.0616
  568W        W 4619   1.744   4.519   0.913 -0.1718 -0.1997  0.0104
  569W        W 4620   5.710   7.001   4.476  0.0417  0.2335 -0.0150
  570W        W 4621   4.056   2.165  11.356  0.0874  0.1304 -0.2044
  571W        W 4622   1.243   0.187   3.066 -0.0189 -0.2259  0.1134
  572W        W 4623   4.681   9.955   0.445  0.2334 -0.0892 -0.0001
  573W        W 4624   0.668   7.444   0.736  0.0972  0.1988  0.2334
  574W        W 4625   7.023   8.050   2.694  0.0891 -0.0943  0.1116
  575W        W 4626   6.548   6.781   0.864 -0.2863  0.0930  0.1917
  576W        W 4627   9.891   1.396  12.333  0.0100 -0.0026 -0.0975
  577W        W 4628   2.612   6.527   4.914  0.0033 -0.1299 -0.0373
  578W        W 4629   6.771   4.176   4.747 -0.0313  0.0342  0.0500
  579W        W 4630   7.808   6.844  10.622  0.3028  0.0868  0.2498
  580W        W 4631   5.050   1.090   1.970 -0.0024  0.0582  0.2111
  581W        W 4632   3.922   0.381   9.768 -0.2621  0.0690 -0.0647
  582W        W 4633   7.367   2.102  10.479  0.1216 -0.0129 -0.1406
  583W        W 4634   6.805   0.736   6.049  0.2185 -0.2656 -0.0823
  584W        W 4635   5.901   0.090  11.156  0.1250  0.1903  0.1228
  585W        W 4636   0.865   7.546   9.954 -0.3044  0.1449 -0.1025
  586W        W 4637   6.079   7.967   2.884  0.1702 -0.1958 -0.5031
  587W        W 4638   5.936   2.067   5.052 -0.1931  0.2752 -0.3402
  588W        W 4639   1.380   5.013  11.999 -0.0631  0.0054 -0.0151
  589W        W 4640   7.950   7.079   2.821 -0.2385 -0.0983  0.1080
  590W        W 4641  10.004   9.027   2.752  0.2115  0.0338 -0.2338
  591W        W 4642   1.900   7.787  12.401 -0.0039  0.0966 -0.1084
  592W        W 4643   0.796   0.694   2.194 -0.0750  0.0916  0.1319
  593W        W 4644   4.953   7.935  10.474 -0.1018  0.1187  0.0978
  594W        W 4645   8.213   8.881   2.682  0.1653  0.2277 -0.0777
  595W        W 4646   8.291   8.912   5.390 -0.0515  0.2325 -0.4799
  596W        W 4647   2.960   5.561  11.351 -0.2760 -0.0932  0.0642
  597W        W 4648  10.155   4.055   1.442  0.0408 -0.1494 -0.0322
  598W        W 4649   2.923   6.438   3.899 -0.0288  0.2332 -0.0313
  599W        W 4650   7.947   9.366  12.794  0.1428 -0.2474  0.3723
  600W        W 4651   1.047   9.212   0.561 -0.1070 -0.2794  0.2295
  601W        W 4652   9.973   5.752  11.822  0.2965 -0.2506  0.0401
  602W        W 4653   7.590   3.865  11.058 -0.1651  0.0302  0.0022
  603W        W 4654   1.662   6.485   2.800  0.0331 -0.0671  0.1359
  604W        W 4655   5.194   3.478  13.867  0.0465 -0.1094 -0.0326
  605W        W 4656   0.008   7.937   8.579  0.0989 -0.3215  0.0299
  606W        W 4657   9.695   1.736   2.758  0.0128 -0.0892 -0.0183
  607W        W 4658   2.238   8.063  11.520  0.1330 -0.0493 -0.4369
  608W        W 4659   2.378   2.497  13.046  0.2069  0.0205  0.1029
  609W        W 4660   3.731   8.210   3.446  0.0100  0.2529 -0.4199
  610W        W 4661   9.223   6.863  10.889 -0.1644 -0.1831  0.0930
  611W        W 4662   4.698   5.026  12.935 -0.2389 -0.1495 -0.1577
  612W        W 4663  10.064   5.281  12.749 -0.2461 -0.1619 -0.7649
  613W        W 4664   1.984  10.089   4.935 -0.1198  0.0625  0.0062
  614W        W 4665   3.164   9.921   5.756 -0.0791 -0.3463  0.3015
  615W        W 4666   0.547   4.977  11.591  0.0763  0.2438  0.1130
  616W        W 4667   9.131   4.863   0.815  0.2214 -0.0407 -0.0814
  617W        W 4668   9.065   3.849  12.906  0.1133  0.3303 -0.3815
  618W        W 4669   7.993   5.919  13.760  0.0907  0.1664 -0.1620
  619W        W 4670   8.283   8.127  11.118  0.1787 -0.1670  0.1149
  620W        W 4671   6.750   7.458   3.107 -0.1796 -0.0407 -0.2504
  621W        W 4672   5.020   0.305   2.532 -0.1664  0.2097 -0.2198
  622W        W 4673   1.796   1.314   5.259  0.0368  0.0719 -0.0404
  623W        W 4674   7.171   4.606  10.816  0.0226  0.1418 -0.3814
  624W        W 4675   3.681   1.090  12.925  0.3335  0.0912 -0.1939
  625W        W 4676   6.265  10.034   1.401 -0.1093  0.0684 -0.2898
  626W        W 4677   1.459   9.724  11.729  0.2419  0.0096  0.0985
  627W        W 4678   6.243   7.091  12.993  0.1097  0.1869  0.1268
  628W        W 4679   6.082   9.429   3.170  0.0232 -0.0597 -0.1668
  629W        W 4680   4.276   3.774   0.299  0.1525  0.2054 -0.2095
  630W        W 4681   3.024   1.581  10.571  0.3144 -0.2697 -0.1944
  631W        W 4682   0.857   5.093  12.592 -0.2486 -0.2261  0.2038
  632W        W 4683   6.570   9.791   1.010  0.1330 -0.2339 -0.1452
  633W        W 4684   8.926   5.086   4.429  0.0325  0.0829 -0.0166
  634W        W 4685   4.969   4.153   2.279 -0.1626 -0.0849  0.1797
  635W        W 4686   7.749   9.414   4.759 -0.1877  0.0478 -0.3944
  636W        W 4687   2.872   8.781  10.480 -0.0751  0.0835  0.1496
  637W        W 4688   7.280   4.390   2.041 -0.1283  0.0569 -0.1751
  638W        W 4689   7.674   0.342   3.744 -0.0842  0.0001  0.0284
  639W        W 4690   7.087   9.190   5.568  0.0623  0.0916 -0.1888
  640W        W 4691   3.482   6.438  13.796 -0.1608  0.0035 -0.0903
  641W        W 4692   3.978   2.850   0.716  0.2798  0.0251 -0.0700
  642W        W 4693   6.706   6.058  11.590  0.1282 -0.4468 -0.0590
  643W        W 4694   8.208   7.347  11.515 -0.0992 -0.1676  0.2494
  644W        W 4695   3.554   3.334   2.539  0.0721  0.1545 -0.1833
  645W        W 4696   8.469   7.238   2.816  0.0252 -0.0448 -0.1815
  646W        W 4697   4.554   8.278  13.445  0.1302  0.0860 -0.1889
  647W        W 4698   5.321   9.302  12.863 -0.0644 -0.1776 -0.0052
  648W        W 4699   0.434   3.890  11.723 -0.1066  0.0605 -0.0148
  649W        W 4700   0.421   7.652   3.881 -0.1335  0.0096 -0.0910
  650W        W 4701   4.098   1.000  11.928 -0.0199  0.1770 -0.0489
  651W        W 4702   2.219   6.261  12.553  0.0946  0.1185  0.2996
  652W        W 4703   4.144   2.306  12.886 -0.2583  0.0186 -0.2840
  653W        W 4704   2.020   7.809  12.888 -0.2101 -0.3493 -0.2435
  654W        W 4705   6.839   9.053   9.658  0.1421  0.2361  0.0077
  655W        W 4706   4.940   9.910   5.008 -0.1109  0.1165  0.1837
  656W        W 4707  10.103   1.123  12.880 -0.3310  0.1361  0.0932
  657W        W 4708   2.369   3.844  10.772  0.2299 -0.0822  0.1363
  658W        W 4709   8.415   3.510   8.912 -0.0394  0.1521 -0.1101
  659W        W 4710   2.133   4.803   3.412  0.0009  0.1728 -0.3047
  660W        W 4711   1.915   2.196  10.902 -0.0232  0.1739 -0.1848
  661W        W 4712   7.903   8.932   0.650 -0.0408  0.1778  0.0236
  662W        W 4713   2.408   6.570   3.658  0.0079 -0.1754 -0.1454
  663W        W 4714   2.138   5.195  11.541  0.1943  0.1703 -0.0435
  664W        W 4715   6.536   5.115  13.279  0.1191 -0.0256  0.1609
  665W        W 4716   3.490   5.853   9.992 -0.0513  0.2848 -0.0590
  666W        W 4717   6.970   1.439   4.041 -0.1660 -0.2365  0.5401
  667W        W 4718   2.499   7.515   5.248  0.0573 -0.1987  0.0406
  668W        W 4719   9.572   3.090   2.515 -0.1505  0.0477 -0.1028
  669W        W 4720   9.752   4.576  11.197 -0.2931  0.2596  0.0134
  670W        W 4721   4.950   4.511  13.640 -0.1337  0.2978 -0.1589
  671W        W 4722   4.480   5.586   0.914 -0.0995 -0.0470 -0.0174
  672W        W 4723   5.260   9.052   4.086  0.4073 -0.1533  0.3361
  673W        W 4724   0.907   6.261  11.136  0.3465  0.1110  0.1283
  674W        W 4725   9.731   1.723   9.076  0.2458 -0.2564  0.0516
  675W        W 4726   6.962   1.571   4.847  0.0786 -0.1983  0.1334
  676W        W 4727   6.268   7.603   4.181  0.0217  0.0338  0.0381
  677W        W 4728   7.163   7.611   2.850  0.0873  0.2979 -0.0215
  678W        W 4729   1.052   7.931  13.794 -0.0999 -0.0535  0.0241
  679W        W 4730   6.036   2.259   9.914 -0.2191  0.2383  0.0960
  680W        W 4731   6.115   7.458   2.813  0.1172 -0.0774 -0.1659
  681W        W 4732   5.620   9.735   3.017  0.0852 -0.3813  0.0771
  682W        W 4733   8.439   0.452   1.327 -0.0898  0.0562  0.0048
  683W        W 4734   3.817   4.850   3.492  0.0625  0.2410 -0.0594
  684W        W 4735   7.599   8.140   4.210 -0.0525  0.4081  0.2826
  685W        W 4736   7.088   6.552   0.904 -0.1702 -0.1248 -0.0149
  686W        W 4737   2.423   9.550  12.419 -0.0448 -0.1009 -0.0699
  687W        W 4738   2.059   1.662   9.936 -0.2569 -0.3484 -0.0556
  688W        W 4739   1.043   1.748   1.500  0.0416  0.0424  0.1057
  689W        W 4740   6.265   7.176   9.700 -0.3539  0.1726 -0.0404
  690W        W 4741   4.273   5.399  13.155  0.1598 -0.0127  0.7620
  691W        W 4742   0.031   1.692   2.750  0.0303  0.1660 -0.2662
  692W        W 4743   2.773   1.675   0.165 -0.0641  0.3339  0.1144
  693W        W 4744   4.567   2.689  10.761  0.2025  0.0457 -0.0500
  694W        W 4745   9.090   2.227   0.137  0.2202  0.3070 -0.2554
  695W        W 4746   5.087   2.003  12.236  0.1531 -0.0023  0.1578
  696W        W 4747   1.157   5.413   4.995  0.2948 -0.5827 -0.0447
  697W        W 4748   4.844   2.743   9.054 -0.1715 -0.2750 -0.0027
  698W        W 4749   0.634   0.634   8.997  0.0147  0.2040  0.4596
  699W        W 4750   1.745   7.992  11.570  0.1538 -0.2027 -0.2586
  700W        W 4751   0.546   4.124   5.065 -0.2693  0.1144  0.0323
  701W        W 4752   3.894   2.626   1.504  0.0426  0.3999 -0.2850
  702W        W 4753   5.845   1.905   9.557 -0.0802  0.1089 -0.1985
  703W        W 4754   5.437   2.428  13.906 -0.0903 -0.0357 -0.1438
  704W        W 4755   1.026   6.301  10.627  0.0567 -0.1688  0.1649
  705W        W 4756   1.325   9.214   2.272  0.2470  0.0619  0.2914
  706W        W 4757   7.342   1.373   4.388 -0.0434  0.0213  0.0040
  707W        W 4758   9.324   2.089  11.191 -0.1837 -0.4271  0.1254
  708W        W 4759   4.467   7.842  10.335 -0.1611 -0.2458 -0.1893
  709W        W 4760   7.734   2.539   9.524 -0.1436  0.0876 -0.0584
  710W        W 4761   2.587   1.994   1.779 -0.1241  0.3181  0.0395
  711W        W 4762   0.408   7.404  12.904 -0.0325 -0.4033 -0.1287
  712W        W 4763   8.597   8.748  10.910 -0.0712  0.1220  0.1488
  713W        W 4764   1.805   9.557   2.215 -0.0779 -0.0506  0.3137
  714W        W 4765   2.416   4.432  13.543  0.1277  0.2108  0.3219
  715W        W 4766   3.068   6.178  13.638 -0.0456 -0.1451  0.1591
  716W        W 4767   0.764   3.117   2.372 -0.1440 -0.0319  0.1579
  717W        W 4768   0.431   4.828   1.815 -0.1163  0.1319  0.0395
  718W        W 4769   9.188   8.550   2.046  0.1950 -0.0407 -0.0426
  719W        W 4770   1.527   4.213  10.703  0.1035 -0.2462  0.2404
  720W        W 4771   2.900   2.682  13.660  0.0681  0.4062 -0.0391
  721W        W 4772   9.666   3.811   1.447 -0.0168 -0.0327  0.3430
  722W        W 4773   3.344   2.586   4.462 -0.2685 -0.3954  0.0332
  723W        W 4774   5.432   8.923  10.678 -0.2595  0.0022 -0.3148
  724W        W 4775   2.413   1.448   1.706 -0.1088 -0.5230  0.2461
  725W        W 4776   4.660   0.808   9.950  0.1725  0.0477  0.2477
  726W        W 4777   6.939   6.320   3.547  0.2100 -0.1694  0.3038
  727W        W 4778   9.238   7.419  11.718  0.2082 -0.1952  0.1199
  728W        W 4779   4.002   8.959  11.569 -0.0002  0.0228  0.0575
  729W        W 4780   6.083   3.029   3.451 -0.2573 -0.0621  0.2810
  730W        W 4781   9.401   0.109  12.412 -0.1545  0.1403 -0.1625
  731W        W 4782   6.712   1.752   9.157  0.1622 -0.2207 -0.0715
  732W        W 4783   4.992   0.779   4.163  0.2474 -0.2603  0.0268
  733W        W 4784   9.055   8.044   4.885 -0.0328  0.4124 -0.0031
  734W        W 4785   0.829   8.744   0.290 -0.2882 -0.4152 -0.1318
  735W        W 4786   1.353   6.335  13.242 -0.1020  0.1840 -0.1330
  736W        W 4787   6.916   1.780   4.417  0.2234  0.0977 -0.0338
  737W        W 4788   0.237   9.293   0.777  0.1854 -0.2026 -0.1680
  738W        W 4789   8.594   6.148  14.021 -0.0248 -0.0527  0.0249
  739W        W 4790   1.616   6.536   0.586  0.0724  0.1007 -0.0054
  740W        W 4791   6.572   3.187   3.240  0.3575 -0.0756  0.2271
  741W        W 4792   5.663   5.199  13.534  0.0879 -0.1748  0.2755
  742W        W 4793   2.682   8.130  11.313 -0.1747  0.1516  0.0561
  743W        W 4794  10.108   4.363   2.677  0.4081 -0.0541 -0.0198
  744W        W 4795   1.955   6.449   1.461  0.1314 -0.1552 -0.0229
  745W        W 4796   7.713   7.825  13.117 -0.0538  0.0879  0.0874
  746W        W 4797   0.833  10.068   9.579 -0.0980 -0.3186  0.1396
  747W        W 4798   7.858   8.448   0.511  0.1103  0.0517  0.0359
  748W        W 4799   0.261   8.193   0.885 -0.1573  0.2309 -0.1614
  749W        W 4800   6.016   2.862   0.355  0.1483 -0.0915 -0.3994
  750W        W 4801   9.955   0.947   2.207 -0.1668  0.2183 -0.1108
  751W        W 4802   3.369   9.354   3.873 -0.2085  0.1453  0.0912
  752W        W 4803   0.636   4.281   2.056  0.0793 -0.0058 -0.4041
  753W        W 4804   2.509   9.546  12.944  0.2516 -0.1062 -0.0363
  754W        W 4805   2.083   0.730   0.417  0.0614 -0.0734 -0.0680
  755W        W 4806   5.648   0.366  12.297 -0.1263 -0.2059 -0.2385
  756W        W 4807   8.582   9.656  12.269  0.3146  0.2343 -0.0696
  757W        W 4808   0.240   4.642   4.316 -0.0676  0.1617  0.3204
  758W        W 4809   5.186   9.584  13.821 -0.2108  0.1212 -0.0219
  759W        W 4810   7.164   3.923   1.212 -0.1733 -0.0113  0.1364
  760W        W 4811   2.180   6.173   1.839  0.1970 -0.0463  0.4822
  761W        W 4812   0.462   2.270   0.048  0.0970  0.1007  0.5018
  762W        W 4813   8.421   9.133   0.467 -0.4603 -0.0443 -0.1640
  763W        W 4814   1.280   7.741   9.252  0.1027  0.1805  0.0372
  764W        W 4815   6.419   6.364   2.910 -0.3453  0.1562 -0.0451
  765W        W 4816   9.497   2.219  13.903 -0.0267 -0.0777 -0.1844
  766W        W 4817   7.350   3.595   3.860 -0.3219 -0.2248 -0.1424
  767W        W 4818   0.950   9.944   1.219  0.3246 -0.1343 -0.2137
  768W        W 4819   9.417   1.975   3.239  0.2822  0.0751 -0.1523
  769W        W 4820   0.524   7.608   5.730 -0.2739  0.1216  0.1799
  770W        W 4821   4.617   7.220   1.204  0.2160  0.1418 -0.0232
  771W        W 4822   9.890   0.989   0.013  0.1553 -0.0963  0.2760
  772W        W 4823   1.031   1.142   1.926  0.1708 -0.2210  0.0291
  773W        W 4824   1.654   8.790  11.916  0.1988 -0.1725  0.0254
  774W        W 4825   5.146   7.159   1.779  0.2075  0.0637 -0.0085
  775W        W 4826   4.729   7.337  13.568 -0.2641 -0.1987 -0.2774
  776W        W 4827   9.186   3.350   9.716 -0.1581  0.2108 -0.0489
  777W        W 4828   3.301   4.230   0.832 -0.6970 -0.0832 -0.1330
  778W        W 4829   2.558   7.681  11.215 -0.1786  0.1658  0.0234
  779W        W 4830   2.179   8.019  12.041  0.0901  0.0270 -0.2634
  780W        W 4831   9.570   3.076   0.385 -0.0965 -0.3097 -0.4400
  781W        W 4832   7.045   3.699   4.860 -0.0243  0.1747 -0.2401
  782W        W 4833   0.739   5.544  13.594  0.0968  0.2258  0.1598
  783W        W 4834   6.982   4.098  10.460  0.1355  0.1785 -0.2234
  784W        W 4835   2.821   0.674  13.489 -0.0118 -0.0293 -0.0115
  785W        W 4836   1.070   3.358  10.584  0.2010  0.4558 -0.0401
  786W        W 4837   9.485   5.279  12.068 -0.0378 -0.1661 -0.2215
  787W        W 4838   8.035   3.740   5.118  0.0337 -0.1871 -0.1656
  788W        W 4839   8.053  10.112   1.947  0.0662 -0.1952  0.0141
  789W        W 4840   8.147  10.156   3.687 -0.0560  0.1024 -0.3447
  790W        W 4841   7.748   9.682   2.487  0.3273  0.0594  0.3006
  791W        W 4842   6.917   1.262   9.903 -0.1029 -0.0646  0.1461
  792W        W 4843   8.959   3.633   0.057  0.0460  0.0897 -0.0299
  793W        W 4844   9.813   1.013  11.843  0.1582  0.0747 -0.2793
  794W        W 4845   0.355   8.897   1.698  0.2419 -0.0425 -0.0685
  795W        W 4846   7.241   1.195   4.876  0.2824  0.0034 -0.1568
  796W        W 4847   1.744   8.556   9.139 -0.1763 -0.1097 -0.1863
  797W        W 4848   5.374   6.645   0.464 -0.0250  0.2152  0.0826
  798W        W 4849   6.774   5.556  13.231  0.0695 -0.3394 -0.1435
  799W        W 4850   9.110   6.391  11.804  0.2062 -0.0546  0.1305
  800W        W 4851   8.634   4.755   9.871  0.1733 -0.1718  0.1527
  801W        W 4852   7.224   6.388   9.956  0.0169  0.2309  0.1551
  802W        W 4853   2.194   5.333   3.471 -0.0516 -0.0255  0.2190
  803W        W 4854   1.366   8.463   3.587  0.1490  0.0869  0.0315
  804W        W 4855   6.587   8.976   0.056  0.2248  0.0059 -0.3886
  805W        W 4856   6.760   1.110   2.143 -0.0252 -0.1897  0.2309
  806W        W 4857   5.330   9.164   9.711 -0.3348 -0.0794  0.1183
  807W        W 4858   3.306   1.451  10.978 -0.1123  0.2017 -0.1799
  808W        W 4859   5.057   3.500   1.745 -0.0602  0.1061  0.3770
  809W        W 4860   9.149   4.522  12.545  0.1714  0.2639  0.2053
  810W        W 4861   4.201   0.542   5.052  0.0904 -0.0916  0.2362
  811W        W 4862   0.168   3.017   5.039 -0.0565  0.0263  0.3117
  812W        W 4863   7.855   4.026  13.553 -0.1716 -0.0003  0.2624
  813W        W 4864   7.899   5.900   1.218  0.0052  0.0865 -0.1099
  814W        W 4865   4.407   1.314  12.586  0.0852  0.2747  0.0002
  815W        W 4866   9.859   5.598  10.715  0.2392  0.3986 -0.0525
  816W        W 4867   6.648   7.261  13.214  0.2459 -0.0709  0.1957
  817W        W 4868   6.942   0.943   3.481  0.3055 -0.2144 -0.2516
  818W        W 4869   1.796   9.255   9.929 -0.1948  0.2083 -0.1924
  819W        W 4870   9.440   4.118  12.530  0.0689  0.1058  0.1198
  820W        W 4871   8.437   9.084   2.158  0.0034  0.1411  0.1519
  821W        W 4872   8.516   5.715   1.295 -0.1547  0.2442 -0.0174
  822W        W 4873   5.861   6.757  11.568  0.3104 -0.2844  0.0340
  823W        W 4874   4.222   9.628  10.268 -0.3046  0.6258 -0.0354
  824W        W 4875   0.511   3.429  11.880 -0.1123 -0.0515 -0.0316
  825W        W 4876   7.701   4.630   9.961 -0.2423 -0.0121 -0.0967
  826W        W 4877   4.946   5.769   2.154  0.1209  0.2350 -0.0802
  827W        W 4878   7.248   6.668   1.636  0.1816 -0.0540  0.0979
  828W        W 4879   7.304   4.875   9.320 -0.1986  0.0820 -0.2171
  829W        W 4880   4.907   0.674   0.848  0.0650 -0.2776 -0.0315
  830W        W 4881   9.352   5.023  12.461  0.3251  0.1013 -0.0054
  831W        W 4882   7.842   6.514   8.486 -0.2078 -0.0508 -0.2335
  832W        W 4883  10.132   2.806  12.992 -0.1702  0.1518  0.0519
  833W        W 4884   2.576   3.534  12.144  0.1941 -0.3086 -0.3339
  834W        W 4885  10.151   0.058  11.997  0.0424  0.2046 -0.1838
  835W        W 4886   7.580   2.393  13.039 -0.2292  0.4950 -0.2723
  836W        W 4887   8.847   9.673   2.539  0.3063  0.1064 -0.2739
  837W        W 4888   9.536   1.170  10.902 -0.0652 -0.0712 -0.0645
  838W        W 4889   5.157   4.031   1.820  0.4534  0.1071  0.0092
  839W        W 4890   9.250   7.388  10.178 -0.3169 -0.0387 -0.0168
  840W        W 4891   8.007   7.042   1.977 -0.0207  0.2298 -0.2876
  841W        W 4892   9.213   8.867   4.806  0.0997 -0.0697 -0.0318
  842W        W 4893   0.115   1.319   2.429 -0.0431  0.2676  0.3097
  843W        W 4894   9.922   0.738   4.722  0.1026 -0.5443  0.2323
  844W        W 4895   9.019   3.832  11.611 -0.1346  0.2630  0.0252
  845W        W 4896   0.389   8.611  10.983 -0.0734  0.0450  0.1251
  846W        W 4897   4.613   9.329  12.094  0.1169  0.0010 -0.0766
  847W        W 4898   8.233   6.617  12.266  0.0193  0.2388 -0.2997
  848W        W 4899   1.836   5.297  12.063 -0.2503 -0.1653  0.2788
  849W        W 4900   7.856   6.653   0.669  0.2181  0.0422 -0.1717
  850W        W 4901   9.945   7.602   0.198  0.0579  0.3549 -0.3535
  851W        W 4902   6.566   5.217   2.227  0.2099 -0.0741 -0.0427
  852W        W 4903   5.222   0.898  13.695 -0.2170 -0.3102 -0.1249
  853W        W 4904   2.973   3.958   0.337  0.2221 -0.2736 -0.3320
  854W        W 4905   3.735   3.702  13.589  0.1055 -0.2392  0.1550
  855W        W 4906   2.454   5.175  12.808  0.0833  0.0397 -0.1136
  856W        W 4907   7.669   8.717  13.323  0.1512  0.0393  0.1617
  857W        W 4908   5.242   0.794  12.669  0.2176  0.0581 -0.0401
  858W        W 4909   7.558   1.667  12.020 -0.0816  0.1629  0.0645
  859W        W 4910   1.564   1.863  11.182 -0.1059 -0.1998  0.0148
  860W        W 4911   9.228   3.743   2.710 -0.0958 -0.1820  0.0642
  861W        W 4912   2.968   1.430  12.424 -0.2365  0.2373  0.1853
  862W        W 4913   6.671   6.425  13.714  0.1344 -0.5513  0.3654
  863W        W 4914   8.492   6.662   3.469 -0.0498  0.0104  0.0528
  864W        W 4915   5.872   0.506   5.078  0.0935 -0.1004 -0.0226
  865W        W 4916   2.118   6.586  13.357  0.2764 -0.0754 -0.1577
  866W        W 4917   2.495   5.931   2.800 -0.1646 -0.1076 -0.0778
  867W        W 4918   4.155   9.947   5.746  0.2580 -0.0357  0.0323
  868W        W 4919   3.361   4.626   3.274 -0.0172 -0.0384 -0.0561
  869W        W 4920   1.815   5.779   0.482  0.0304  0.3348  0.1658
  870W        W 4921   6.622   4.627  13.197 -0.1119  0.0279 -0.1676
  871W        W 4922  10.030   8.957  12.236 -0.0421  0.1109 -0.0113
  872W        W 4923   0.462   3.275   3.963 -0.0608  0.1045 -0.0400
  873W        W 4924   8.979   8.156   9.891  0.1440 -0.2841 -0.1245
  874W        W 4925   3.906   9.653   0.687  0.1536 -0.1572  0.3151
  875W        W 4926  10.097   4.902   1.402  0.1025 -0.0894  0.0513
  876W        W 4927   0.502   6.132   0.170 -0.2306  0.0082  0.1993
  877W        W 4928   5.088   9.474   3.816 -0.2050  0.4097 -0.1000
  878W        W 4929   4.465   2.045   0.749 -0.0260  0.2601  0.2123
  879W        W 4930   0.163   8.513  11.934 -0.0444 -0.3053  0.1686
  880W        W 4931   4.147   8.851  11.064  0.2751  0.1177 -0.0543
  881W        W 4932   7.296   0.590   0.663 -0.0705  0.0142 -0.1644
  882W        W 4933   3.520   3.598  12.064  0.1238  0.1059  0.1157
  883W        W 4934   7.379   3.895  12.884  0.1705  0.1313 -0.0357
  884W        W 4935   5.753   3.929  11.012  0.0103 -0.0336 -0.0622
  885W        W 4936   4.011   2.847   2.007 -0.2707  0.0306  0.1730
  886W        W 4937   2.515   3.552   2.672  0.2231  0.2238 -0.0844
  887W        W 4938   7.848   5.603   9.046  0.0736  0.0563  0.1504
  888W        W 4939   1.901   9.014   0.940 -0.2468  0.0657 -0.1392
  889W        W 4940   3.731   7.706   3.201  0.1600  0.1309  0.1311
  890W        W 4941   3.718   0.125  13.846  0.1194 -0.1838  0.0875
  891W        W 4942   3.005   2.532   4.108 -0.0658  0.0666 -0.2266
  892W        W 4943   5.260   8.701   1.995  0.1442  0.0104  0.1848
  893W        W 4944   8.977   6.426   2.369 -0.0415 -0.3028 -0.0058
  894W        W 4945   2.093   4.360  11.845 -0.0837 -0.0127 -0.1277
  895W        W 4946   1.413   0.457  11.323 -0.0580 -0.4087 -0.0898
  896W        W 4947   3.706   7.177   1.087  0.2621 -0.0695  0.1203
  897W        W 4948  10.027   9.123   1.867 -0.0511 -0.1717 -0.1135
  898W        W 4949   3.587   7.472   1.536  0.0094  0.3224  0.0532
  899W        W 4950   1.949   3.439  13.359 -0.1060 -0.0541  0.0381
  900W        W 4951   2.956   5.105  11.272  0.3718  0.0321  0.1227
  901W        W 4952   7.381   3.826   2.915  0.1595 -0.0863 -0.0535
  902W        W 4953   4.975   9.968  12.347  0.0963  0.1383 -0.0747
  903W        W 4954   5.977   2.789   2.661  0.3633  0.0080  0.1536
  904W        W 4955   1.719   6.873   1.322 -0.1970  0.1223  0.1193
  905W        W 4956   6.187   2.598   3.691  0.2396 -0.0592  0.2019
  906W        W 4957   7.406   0.264  11.027  0.0133  0.1632  0.1800
  907W        W 4958   3.347   0.950  10.790 -0.3316  0.2372  0.1176
  908W        W 4959   5.492   6.954   1.424 -0.0870 -0.1740  0.0793
  909W        W 4960   4.319   6.514   2.349 -0.0947  0.0132  0.1348
  910W        W 4961   2.837   1.591  11.507  0.0919 -0.3003 -0.0081
  911W        W 4962   7.062   1.157   3.067 -0.4789  0.1776 -0.0104
  912W        W 4963   4.941   2.073   3.942  0.2203 -0.1982  0.4125
  913W        W 4964   8.017   2.936   2.096  0.0887 -0.1823 -0.0333
  914W        W 4965   1.590   4.214  13.010 -0.1052 -0.1257  0.0680
  915W        W 4966   5.683   5.345   2.589  0.0315  0.2994  0.0379
  916W        W 4967   8.614   1.990   9.876  0.0438  0.1651 -0.1444
  917W        W 4968   1.191   0.430   9.345 -0.2443  0.0854 -0.1811
  918W        W 4969   1.863   8.967  11.352 -0.0564 -0.2841  0.3326
  919W        W 4970   0.414   9.728  13.500  0.0179  0.0037 -0.0924
  920W        W 4971   6.715   0.390  13.968  0.0587  0.1310 -0.4181
  921W        W 4972   6.961   7.965  10.955  0.0923 -0.3006  0.2158
  922W        W 4973   4.037   3.913   0.953  0.4840 -0.0481 -0.1315
  923W        W 4974   1.319   7.564  10.210 -0.0094  0.1242 -0.0353
  924W        W 4975   2.391   8.057   1.432  0.2213 -0.1360  0.1395
  925W        W 4976   5.011   6.220   0.566 -0.0581 -0.1151 -0.1231
  926W        W 4977   7.154   9.638   3.848  0.0800 -0.0355 -0.0933
  927W        W 4978   7.746   5.728  10.956  0.3566  0.0422  0.2096
  928W        W 4979   8.250   9.873   4.647 -0.0764 -0.0322  0.2593
  929W        W 4980   6.684   4.195  13.406 -0.2009 -0.2500  0.3261
  930W        W 4981   0.579   5.890  12.833  0.1599  0.0881  0.0926
  931W        W 4982   7.960   7.484   1.259 -0.1108 -0.2741  0.3173
  932W        W 4983   2.682   1.452   5.685 -0.1507 -0.1972  0.0202
  933W        W 4984   0.506   7.616   2.346 -0.2149  0.0072 -0.3405
  934W        W 4985   0.501   9.510   0.297  0.0162 -0.1179 -0.0683
  935W        W 4986   6.705   6.227  12.117  0.2451 -0.2320 -0.0900
  936W        W 4987   0.566   7.319   3.477  0.2503 -0.0729  0.0988
  937W        W 4988   6.370   5.619  11.060 -0.0872  0.1758 -0.0070
  938W        W 4989   8.845   2.846  12.909 -0.0188 -0.3519  0.2886
  939W        W 4990   3.816   3.763  13.077  0.1586  0.0751  0.1242
  940W        W 4991   3.930   6.307   1.979  0.0206 -0.3601 -0.1300
  941W        W 4992   6.397   0.277   4.061 -0.1523  0.3406  0.3400
  942W        W 4993   5.408   1.874  10.595 -0.2399 -0.1972 -0.3502
  943W        W 4994   2.828   0.692   3.616  0.0082  0.1894  0.0842
  944W        W 4995   4.396   3.581  12.829 -0.0483 -0.2638 -0.1120
  945W        W 4996   4.926   8.198   4.205 -0.0626  0.1665 -0.0655
  946W        W 4997   8.468   2.746   4.597  0.2392 -0.0636 -0.1745
  947W        W 4998   2.339   3.845   3.062  0.1204  0.1263  0.3120
  948W        W 4999   9.699   9.208   9.047 -0.0426 -0.1807  0.0757
  949W        W 5000   9.278   6.770   1.546 -0.1078 -0.0347 -0.0226
  950W        W 5001   2.986   2.449  11.551 -0.0691  0.0551 -0.1463
  951W        W 5002   7.238   9.241  12.658 -0.1576 -0.1201 -0.1017
  952W        W 5003   9.494   9.122   2.693 -0.3409  0.1611  0.0829
  953W        W 5004   6.832   4.771   2.115  0.1463 -0.1285 -0.0025
  954W        W 5005   5.716   5.029   1.329  0.2848  0.0074  0.0047
  955W        W 5006   9.081   3.986   1.300 -0.1359 -0.0866  0.1690
  956W        W 5007   2.457   1.067   0.358  0.0068  0.2951 -0.0592
  957W        W 5008   0.166   9.168   3.638  0.0958 -0.1108  0.0397
  958W        W 5009   4.829   9.293  11.249 -0.1455  0.3558  0.1030
  959W        W 5010   0.122   5.873  10.944  0.2225 -0.3791 -0.1583
  960W        W 5011   2.176   3.716   3.494 -0.2305  0.3118  0.2362
  961W        W 5012   8.714   4.069   0.150  0.1506 -0.0358 -0.1226
  962W        W 5013   7.382   4.074  13.465  0.1512  0.0364  0.1414
  963W        W 5014   9.160   0.547   0.168 -0.0573 -0.0179  0.0233
  964W        W 5015   3.967   2.386   1.085 -0.2066  0.1935 -0.0337
  965W        W 5016   2.295   8.679  11.388 -0.2404 -0.0029 -0.4609
  966W        W 5017   2.904   5.323   3.804 -0.2387  0.0059  0.3810
  967W        W 5018   3.413   0.261  12.933  0.4246 -0.1407  0.2101
  968W        W 5019   4.545   0.152   9.616  0.3319  0.2149 -0.2759
  969W        W 5020   1.089   7.581  12.104  0.4082  0.2237  0.3167
  970W        W 5021   4.949   0.447   1.964  0.1066 -0.0268  0.0632
  971W        W 5022   3.175   0.341   1.833  0.0461 -0.2215  0.1667
  972W        W 5023   0.595   1.369   2.373  0.1849 -0.0338  0.0700
  973W        W 5024   0.487   3.579  10.404  0.0654  0.0480  0.2764
  974W        W 5025   7.939   8.172  12.334  0.0200  0.1137  0.0376
  975W        W 5026   0.238   1.225  12.477  0.1895  0.0402 -0.3507
  976W        W 5027   0.274   6.784   0.009 -0.0533 -0.0887 -0.1077
  977W        W 5028   5.439   6.376  10.676  0.0408 -0.0904  0.4001
  978W        W 5029   8.153   1.547   3.962  0.2536  0.1665  0.1703
  979W        W 5030   2.926   4.073   1.616  0.3878 -0.1376  0.3423
  980W        W 5031   1.669   1.817  12.293 -0.1709 -0.1001 -0.1892
  981W        W 5032   2.260   5.968   3.374  0.0115  0.0626  0.1605
  982W        W 5033   3.036   7.423   2.338  0.1033  0.2992  0.2877
  983W        W 5034   2.870   1.101   3.284 -0.1200  0.1476 -0.2272
  984W        W 5035   6.387   8.667  12.675  0.1670  0.1364 -0.2171
  985W        W 5036   4.893   5.101   2.134  0.2834  0.1657 -0.1212
  986W        W 5037   2.955   1.238   4.300  0.0755 -0.0894 -0.0729
  987W        W 5038   2.170   2.361  13.998  0.3273  0.0754 -0.1414
  988W        W 5039   1.987   7.203   0.999  0.1183  0.0733  0.0181
  989W        W 5040   0.289   6.281   1.569  0.0190 -0.0158 -0.0183
  990W        W 5041   0.232   5.372  11.658 -0.1883  0.1203 -0.1166
  991W        W 5042   4.135   0.583   4.562  0.0751 -0.2174  0.2117
  992W        W 5043   8.111   6.297   3.753  0.1562 -0.2779 -0.1474
  993W        W 5044   0.275   4.125   3.149  0.0064 -0.2671 -0.2311
  994W        W 5045   4.651   2.232  13.647 -0.5979 -0.4653 -0.1284
  995W        W 5046   6.776   4.027   2.836  0.0736 -0.0190  0.2951
  996W        W 5047   5.042   5.995   2.605  0.0444 -0.3075  0.4003
  997W        W 5048   6.331   5.633  12.943 -0.1617  0.2151  0.0119
  998W        W 5049   8.636   7.114  12.449 -0.1919  0.1234 -0.0812
  999W        W 5050   2.672   8.647  11.011  0.1645  0.1292  0.4458
 1000W        W 5051   7.368   7.658   0.421  0.3013 -0.0825  0.1791
 1001W        W 5052   7.709   6.958   3.251 -0.2594 -0.1835 -0.1330
 1002W        W 5053   5.214   1.609   2.064 -0.2874  0.0837  0.0325
 1003W        W 5054   8.228   3.290   2.884  0.1314  0.1248  0.3238
 1004W        W 5055   6.743  10.124  13.599 -0.1447 -0.0260 -0.3304
 1005W        W 5056   2.710   6.194   0.942  0.0843  0.0978  0.0404
 1006W        W 5057   2.272   5.551   0.335  0.1360 -0.2757  0.1077
 1007W        W 5058   5.639   4.484   1.752  0.3566  0.0260  0.2702
 1008W        W 5059   2.395   0.176   2.385 -0.0754  0.1697 -0.0053
 1009W        W 5060   7.372   4.044   4.852 -0.0933 -0.1044 -0.0452
 1010W        W 5061   9.627   4.120   2.668  0.2223 -0.0217  0.2758
 1011W        W 5062   3.364   2.449  11.891 -0.0738  0.0518  0.0604
 1012W        W 5063   8.232   0.613  11.564 -0.4340  0.4561  0.1497
 1013W        W 5064   8.377   8.587   4.967  0.0552  0.1316 -0.3904
 1014W        W 5065   4.825   8.683  11.598 -0.0818 -0.2436 -0.0386
 1015W        W 5066   2.859   0.044   5.049 -0.1320 -0.0899  0.1447
 1016W        W 5067   2.545   8.874   1.934 -0.1258 -0.0134  0.0155
 1017W        W 5068   8.546   4.358  12.468  0.3088 -0.3441 -0.0602
 1018W        W 5069  10.018   0.541  13.542 -0.1561 -0.0809  0.3062
 1019W        W 5070   3.820   2.767   3.586 -0.0406 -0.0009 -0.2820
 1020W        W 5071   1.425   1.441   1.538 -0.1032  0.2628  0.0411
 1021W        W 5072   4.627   1.624   1.176  0.1636 -0.0130  0.1316
 1022W        W 5073   3.069   0.786  10.009  0.0723 -0.0867 -0.0793
 1023W        W 5074   9.435   8.407  13.539 -0.0756 -0.0592 -0.0268
 1024W        W 5075   2.085   2.327   4.000 -0.3129 -0.0661 -0.0697
 1025W        W 5076   0.400   8.635   1.190 -0.2361 -0.3603  0.0469
 1026W        W 5077   4.198   2.891   1.166  0.0887 -0.1830  0.2025
 1027W        W 5078   1.766   3.219   3.890 -0.2556  0.0769 -0.0291
 1028W        W 5079   4.415   7.692  13.419 -0.1066  0.1080  0.1683
 1029W        W 5080  10.028   1.562   5.032 -0.0491  0.3264 -0.0354
 1030W        W 5081   2.456   2.468   3.175 -0.2460 -0.0055  0.3056
 1031W        W 5082   0.586   4.258  13.022 -0.0695  0.1476 -0.3926
 1032W        W 5083   5.560   5.898   2.508 -0.1686  0.0253  0.2046
 1033W        W 5084   9.388   2.300  11.960 -0.0895 -0.0364 -0.2226
 1034W        W 5085   0.412   5.314  12.907  0.2593 -0.0082  0.2312
 1035W        W 5086   5.084   2.590   4.996  0.0526  0.0613  0.0290
 1036W        W 5087   4.435   4.277  13.397 -0.1212 -0.0419 -0.1018
 1037W        W 5088   5.310   4.294   1.407 -0.3697 -0.0523  0.1698
 1038W        W 5089   9.319   7.015  13.185 -0.0951 -0.1077 -0.2187
 1039W        W 5090   3.833   7.806   2.681 -0.0749 -0.3467  0.0218
 1040W        W 5091   0.561   3.678  13.716 -0.0235  0.3784  0.3468
 1041W        W 5092   7.585   5.552  10.465 -0.0451 -0.1163 -0.0850
 1042W        W 5093   2.399   7.884   2.280 -0.1149  0.5332 -0.0050
 1043W        W 5094   7.363   5.838  11.378  0.2223  0.0280 -0.2903
 1044W        W 5095   5.744   5.029   1.961 -0.2240 -0.1737  0.1698
 1045W        W 5096   8.199   4.379   9.859 -0.0494  0.0821  0.3388
 1046W        W 5097   9.890   1.191   2.726  0.0201  0.5395  0.0143
 1047W        W 5098   1.696   7.343   2.765 -0.2949 -0.1497  0.0843
 1048W        W 5099   2.434   0.961   2.907 -0.0684 -0.0202 -0.1284
 1049W        W 5100   8.840   2.652  11.083 -0.0223  0.0733 -0.0376
 1050W        W 5101   1.993   5.373  13.720 -0.3699  0.1825 -0.2220
 1051W        W 5102   3.967   6.651   0.520 -0.4427  0.3186  0.0413
 1052W        W 5103   6.109   6.024   0.412  0.0942 -0.0621  0.3410
 1053W        W 5104   4.143   2.950   4.024  0.1000  0.2132  0.3443
 1054W        W 5105   0.801   5.690  11.897  0.1416 -0.0680  0.1677
 1055W        W 5106   2.903   9.532   9.421  0.0803  0.1459  0.1240
 1056W        W 5107   3.888   1.116   8.791  0.4299  0.0431  0.3626
 1057W        W 5108   9.506   0.939   4.354 -0.3253  0.1088  0.0542
 1058W        W 5109   6.181   0.336   4.639  0.2194 -0.3465 -0.0354
 1059W        W 5110   0.088   4.262   0.724  0.2041  0.0539 -0.1461
 1060W        W 5111   8.648   3.267   9.638  0.0913  0.0660  0.2943
 1061W        W 5112   8.933   1.684   4.002  0.1145 -0.1673 -0.0394
 1062W        W 5113   1.709   4.926   9.647 -0.0431  0.2844 -0.0409
 1063W        W 5114   4.699   1.390   4.950 -0.3267 -0.0188 -0.2148
 1064W        W 5115   4.488   0.352   0.855 -0.1009  0.0050  0.0543
 1065W        W 5116   0.196   2.615   4.656 -0.0350  0.1373 -0.4236
 1066W        W 5117   0.256   1.819   2.307 -0.0041  0.5610 -0.0740
 1067W        W 5118   1.292   9.490   5.289  0.1397  0.0879 -0.0060
 1068W        W 5119   6.996   1.639  11.841 -0.2443 -0.1693 -0.2470
 1069W        W 5120   8.200   8.007   4.188 -0.3273 -0.0091 -0.1995
 1070W        W 5121   6.758   6.385  10.912 -0.0394  0.3216  0.1459
 1071W        W 5122   1.354   5.213  12.938  0.4057  0.1080 -0.1627
 1072W        W 5123   0.086   9.838   3.258 -0.1152  0.2583  0.2543
 1073W        W 5124   9.558   2.136   1.662 -0.1509 -0.1012  0.2842
 1074W        W 5125   1.360   6.986   2.718 -0.0256  0.0958  0.0959
 1075W        W 5126   2.656   8.863   2.466  0.1786 -0.4535 -0.1577
 1076W        W 5127   3.440   2.932   2.833  0.1802 -0.0232  0.3881
 1077W        W 5128   6.480   1.635  13.930  0.2601 -0.0085  0.3043
 1078W        W 5129   7.147   1.847   8.923  0.0730 -0.1427 -0.2965
 1079W        W 5130   8.801   7.276  11.958 -0.0697  0.0708  0.0318
 1080W        W 5131   5.564   8.116   2.892 -0.0436  0.0111  0.3454
 1081W        W 5132   0.847   5.910   2.480 -0.0437  0.0344  0.2171
 1082W        W 5133   7.294   4.587   0.719  0.1194  0.0645 -0.1391
 1083W        W 5134   9.486   7.297  10.772 -0.1866 -0.1935 -0.2932
 1084W        W 5135   1.538   5.556  13.660 -0.3106  0.1465  0.0322
 1085W        W 5136   2.315   8.673  12.806 -0.3879 -0.1038  0.2467
 1086W        W 5137   9.683   4.648   4.015 -0.1091  0.3082  0.0468
 1087W        W 5138   3.140   9.090  12.862  0.1086 -0.0022 -0.1199
 1088W        W 5139   0.981   5.014   1.953 -0.2517  0.0136  0.4784
 1089W        W 5140   3.001   8.325  12.217 -0.0662 -0.1961  0.1350
 1090W        W 5141   2.598   5.772   4.441  0.5383 -0.2530  0.1645
 1091W        W 5142   7.420   9.171   3.556 -0.2120  0.2317 -0.1145
 1092W        W 5143   3.573   9.942   9.443 -0.2967  0.1668  0.4234
 1093W        W 5144   1.618   8.042   1.198  0.3303 -0.1633 -0.1548
 1094W        W 5145   5.381   6.904  13.996  0.3739  0.3031  0.0871
 1095W        W 5146   4.016   4.278  10.529  0.2968 -0.0909  0.1147
 1096W        W 5147   0.757   8.483   2.495 -0.2752  0.1590 -0.2202
 1097W        W 5148   2.551   9.637   3.711  0.0813 -0.0475  0.0515
 1098W        W 5149   8.200   4.795   2.668  0.2230  0.0740 -0.0805
 1099W        W 5150   4.267  10.054  13.115 -0.1593 -0.1065  0.1458
 1100W        W 5151   5.010   2.472  10.751  0.1703  0.4160 -0.1107
 1101W        W 5152   1.252   2.580  10.388  0.4187  0.1587 -0.2400
 1102W        W 5153  10.106   5.518   4.555  0.1680  0.3806  0.0896
 1103W        W 5154   3.235   4.705   1.601  0.1743  0.4006  0.0592
 1104W        W 5155   0.269   4.480  12.540 -0.0756  0.3418  0.0147
 1105W        W 5156   2.598   9.057  12.706 -0.0279  0.3307 -0.0270
 1106W        W 5157   9.932   3.286   2.164 -0.3797 -0.2610  0.1065
 1107W        W 5158  10.079   8.965   6.220 -0.1459  0.2028 -0.0936
 1108W        W 5159   7.600   5.617  13.669 -0.2117  0.0508 -0.1177
 1109W        W 5160   6.762   3.284  11.290  0.1560 -0.0304  0.1160
 1110W        W 5161   0.603   4.502   4.775  0.0388  0.1908  0.0869
 1111W        W 5162   4.117   1.674  13.585 -0.3161 -0.1268  0.0387
 1112W        W 5163   8.510   1.657   3.615  0.0542  0.0673 -0.2961
 1113W        W 5164   5.413   5.431   0.998 -0.2650 -0.4568  0.1339
 1114W        W 5165   8.436   0.116  12.324  0.0282  0.2718  0.2096
 1115W        W 5166   4.495   4.845  13.383 -0.1557  0.0116  0.2062
 1116W        W 5167   7.634   0.639   4.091  0.2293  0.2073  0.2102
 1117W        W 5168   1.854   2.622   0.313 -0.1668 -0.0934 -0.0219
 1118W        W 5169   9.011   4.683  10.226  0.1410 -0.0922  0.3858
 1119W        W 5170   0.755   6.405   2.563 -0.2831  0.2107 -0.0120
 1120W        W 5171   3.461   8.009   1.634  0.2155 -0.0237 -0.2988
 1121W        W 5172   6.338   4.488   2.383 -0.1295 -0.3534 -0.0532
 1122W        W 5173   7.113   0.140   3.575  0.0120  0.0343 -0.0474
 1123W        W 5174   7.974   5.136   0.924  0.1268 -0.0433  0.1883
 1124W        W 5175   7.466   6.442   2.423  0.3443 -0.0600  0.0367
 1125W        W 5176   6.950   6.158   0.573 -0.0951 -0.1486  0.0926
 1126W        W 5177   8.534   3.132  13.356 -0.1006 -0.3104 -0.1235
 1127W        W 5178   0.578   2.862  11.789 -0.2650 -0.0845  0.3998
 1128W        W 5179   6.301   2.583  13.530 -0.1540  0.0006 -0.2051
 1129W        W 5180   3.549   4.191  10.757 -0.2252  0.0125 -0.1747
 1130W        W 5181   8.385   7.764  11.784 -0.0357  0.1894 -0.0033
 1131W        W 5182   6.309   3.432  11.236 -0.0847  0.0869  0.2302
 1132W        W 5183   8.009   9.030   4.991 -0.0366  0.1749  0.2887
 1133W        W 5184   9.733   0.682  11.023 -0.1730 -0.1981 -0.1011
 1134W        W 5185   8.195   2.258   2.991 -0.1588 -0.1670  0.1258
 1135W        W 5186   5.258   8.454  12.358  0.0893  0.0868  0.1454
 1136W        W 5187   8.244   8.106  13.585 -0.0298  0.0330 -0.2845
 1137W        W 5188   2.195   9.221   0.043  0.0374  0.1852  0.0821
 1138W        W 5189   2.010   7.015   0.489 -0.2443 -0.0143  0.2048
 1139W        W 5190   7.889   4.483  11.777 -0.0954 -0.1689 -0.2175
 1140W        W 5191   3.998   9.299   2.910 -0.2015  0.1810 -0.2876
 1141W        W 5192   3.681   8.155  13.357 -0.1471 -0.2949 -0.1559
 1142W        W 5193   2.743   4.378  13.060 -0.0184  0.1494 -0.0314
 1143W        W 5194   8.744   2.002  12.545 -0.2580 -0.2996 -0.1312
 1144W        W 5195   0.982   6.360   5.152  0.1819 -0.1002  0.2257
 1145W        W 5196   9.359   1.059  11.604 -0.1738 -0.0281  0.0269
 1146W        W 5197   1.118   1.821  12.256 -0.0759 -0.2152  0.0657
 1147W        W 5198   6.522   1.474  12.514  0.1208 -0.1463 -0.0619
 1148W        W 5199   7.254   8.534   4.367  0.4691 -0.0325 -0.0727
 1149W        W 5200   5.522   1.672   0.480 -0.2399  0.4039  0.0706
 1150W        W 5201   2.091   2.868  13.817  0.0098  0.1481 -0.0911
 1151W        W 5202   0.384   9.891   1.901 -0.1730  0.1132  0.3724
 1152W        W 5203   0.745   5.726   0.296  0.2235  0.1416 -0.0876
 1153W        W 5204   9.503   7.239  12.778  0.0596  0.3526  0.0577
 1154W        W 5205   0.612   1.286   4.765  0.0915  0.1728  0.0094
 1155W        W 5206   6.369   2.397  13.017  0.3051  0.0988  0.0632
 1156W        W 5207   8.339   7.872  12.490  0.0267 -0.1703 -0.3457
 1157W        W 5208   3.691   5.451  12.524 -0.1279 -0.0489  0.4840
 1158W        W 5209   1.984   9.395   1.385 -0.2721 -0.0589 -0.0437
 1159W        W 5210   9.818   5.622   4.099  0.2503  0.2229  0.2938
 1160W        W 5211   3.464   8.533   4.647  0.1220 -0.6106 -0.4926
 1161W        W 5212   9.627   7.993   2.562 -0.2621  0.2087  0.1267
 1162W        W 5213   0.335   1.226  10.887  0.1416  0.0655 -0.1306
 1163W        W 5214   5.129   8.025   1.477  0.1303 -0.1896  0.3293
 1164W        W 5215   1.199   9.692   9.638 -0.2380 -0.1251 -0.0319
 1165W        W 5216   3.353   6.143  12.822  0.0635 -0.1298  0.0599
 1166W        W 5217   9.081   5.972   8.942 -0.2050 -0.0115  0.0365
 1167W        W 5218   5.991   0.504   4.212  0.0364  0.1650 -0.0383
 1168W        W 5219   1.270   7.988  13.343 -0.2888 -0.0126 -0.1853
 1169W        W 5220   6.388   5.586  13.619  0.0470 -0.0542  0.1090
 1170W        W 5221   2.711   9.748   4.834 -0.0904 -0.0170 -0.0791
 1171W        W 5222   2.365   7.561   0.113  0.3885 -0.2173 -0.0084
 1172W        W 5223   1.559  10.149   3.349 -0.1297  0.0276 -0.2446
 1173W        W 5224   6.383   8.462   0.000 -0.1679  0.2255  0.0425
 1174W        W 5225   6.880   2.677   9.773 -0.1433 -0.0213  0.5095
 1175W        W 5226   9.083   9.735   9.573  0.0309  0.0780 -0.0483
 1176W        W 5227   7.086   3.483  12.704  0.0061  0.2624 -0.4268
 1177W        W 5228   8.414   9.758   2.280  0.1892 -0.0805 -0.1537
 1178W        W 5229   1.201   3.107   2.760 -0.0429  0.2984  0.0654
 1179W        W 5230   5.475   8.601   3.533  0.2586  0.1844  0.0187
 1180W        W 5231   4.023   0.013   0.974 -0.1217 -0.0782 -0.0847
 1181W        W 5232   4.838   8.448  12.600 -0.0013 -0.3719  0.2818
 1182W        W 5233   0.877   0.052  12.798  0.3895  0.2662  0.0572
 1183W        W 5234   6.690   7.615   9.973 -0.0230  0.3163  0.0365
 1184W        W 5235   3.738   4.133  11.250  0.1504  0.0271  0.0993
 1185W        W 5236   7.541   9.507   3.081 -0.1230 -0.3517 -0.2084
 1186W        W 5237   8.190   1.446  11.904  0.0257 -0.2534  0.3593
 1187W        W 5238   1.945   3.516   4.909 -0.0302  0.0780 -0.0299
 1188W        W 5239   7.776   7.962   9.844  0.2604 -0.1233 -0.4716
 1189W        W 5240   6.621   0.871   1.368  0.0319 -0.0336 -0.0032
 1190W        W 5241   9.286   8.974   2.278  0.2175  0.4360  0.0346
 1191W        W 5242   8.338   9.437  11.848 -0.0432 -0.0983  0.0975
 1192W        W 5243   2.758   8.137  13.450 -0.1525  0.0900 -0.2711
 1193W        W 5244   6.358   8.162  12.614  0.4617  0.0639 -0.0819
 1194W        W 5245   3.100   3.947   2.054  0.2709  0.1109 -0.0548
 1195W        W 5246   2.805   0.417  13.028 -0.1350 -0.0934  0.0937
 1196W        W 5247   8.320   1.742   1.061 -0.1218 -0.0301 -0.2261
 1197W        W 5248   6.443   6.933  13.655 -0.2532  0.2477  0.2042
 1198W        W 5249   6.566   8.793   4.771  0.0074 -0.1524  0.1698
 1199W        W 5250   3.571   7.210  10.861  0.2799 -0.2296  0.0036
 1200W        W 5251   0.050   0.904   3.377 -0.0060  0.2354  0.0745
 1201W        W 5252   5.432   5.488   3.033  0.0145 -0.1881  0.0921
 1202W        W 5253   8.781   4.133  12.013  0.0139  0.2226 -0.0439
 1203W        W 5254   8.528   3.116   4.141  0.0445 -0.0118  0.2064
 1204W        W 5255   7.188   1.105   2.503 -0.0515  0.1741  0.3015
 1205W        W 5256   9.459  10.081   2.789  0.3166 -0.0201 -0.0005
 1206W        W 5257   6.696   0.211   5.279 -0.0106  0.0600 -0.0188
 1207W        W 5258   5.471   2.666   2.146 -0.1814  0.0153  0.2103
 1208W        W 5259   0.239   3.700  10.822  0.0168 -0.0326  0.0015
 1209W        W 5260   3.319   8.612  12.910 -0.3594  0.0383 -0.0219
 1210W        W 5261   7.406   1.744   4.709 -0.3540 -0.0772 -0.0791
 1211W        W 5262   6.865   4.369   4.254 -0.2050  0.1132  0.1261
 1212W        W 5263   3.685   9.072   9.987  0.0223 -0.3063  0.0443
 1213W        W 5264   8.777   2.541  10.612 -0.2351  0.1979  0.1920
 1214W        W 5265   6.716   2.794   3.598 -0.0207 -0.1358 -0.3367
 1215W        W 5266   2.800   8.495   3.946 -0.1285 -0.0723 -0.0995
 1216W        W 5267   9.314   4.135  11.402 -0.0713  0.0641  0.1457
 1217W        W 5268   1.798   4.543  12.289  0.2418  0.2725  0.2512
 1218W        W 5269   8.515  10.112   1.094 -0.1451  0.2942  0.0667
 1219W        W 5270   2.600   4.521  11.867 -0.0909 -0.0014 -0.4596
 1220W        W 5271   3.712   2.443   2.048  0.0692 -0.1505  0.0001
 1221W        W 5272   0.218   0.967  13.880  0.0548 -0.0598  0.2875
 1222W        W 5273   6.618   0.555   0.452  0.0706 -0.0238  0.1827
 1223W        W 5274   1.330   6.819  13.328  0.1342 -0.0895  0.0955
 1224W        W 5275   6.406   2.733   4.994 -0.0684  0.1269  0.0150
 1225W        W 5276   8.391   6.495  10.515  0.2169 -0.1100  0.2418
 1226W        W 5277   6.497   9.583   2.038  0.0885  0.0214  0.1369
 1227W        W 5278   0.617   2.989   1.910  0.0325  0.2219  0.3286
 1228W        W 5279   1.350   3.502   1.738 -0.1977  0.2750  0.1508
 1229W        W 5280   7.284   2.079  12.746 -0.0620 -0.0535  0.2036
 1230W        W 5281   1.300   7.909   0.177  0.1346  0.0528 -0.2218
 1231W        W 5282   9.447   7.537   6.084 -0.2895 -0.1510 -0.2558
 1232W        W 5283   6.202   4.516  10.418 -0.1032 -0.1068  0.4574
 1233W        W 5284   8.116   2.510   2.388 -0.0294 -0.0952 -0.2224
 1234W        W 5285   3.272   9.998   5.257  0.1485  0.0444 -0.1272
 1235W        W 5286   3.253   3.962   3.096  0.1069 -0.0423 -0.3378
 1236W        W 5287   0.945   4.091  13.817  0.1542  0.1783  0.1068
 1237W        W 5288   7.651   6.339   1.562 -0.0290 -0.1623 -0.2070
 1238W        W 5289   1.285   2.875   9.755 -0.1527  0.1983  0.2395
 1239W        W 5290   6.702   0.926  14.026 -0.1540  0.2231  0.1308
 1240W        W 5291  10.098  10.100   2.102  0.1136  0.3078  0.3703
 1241W        W 5292   9.778   9.628   2.890  0.1777 -0.1227  0.2811
 1242W        W 5293   5.189   8.992  13.868 -0.1523 -0.3371  0.0601
 1243W        W 5294   9.173   8.866   0.852  0.3800 -0.0847  0.1722
 1244W        W 5295   0.882   3.667  11.737 -0.0751 -0.1896  0.0614
 1245W        W 5296   7.762   3.591   3.044  0.0133  0.0569  0.0650
 1246W        W 5297   7.114   9.022  10.469  0.0711  0.1502  0.0864
 1247W        W 5298   3.239   8.510   1.562 -0.0861 -0.1745  0.1144
 1248W        W 5299   6.457   2.337   3.264 -0.1474  0.1585 -0.2389
 1249W        W 5300   0.439   1.262   3.402  0.0872 -0.2951  0.3538
 1250W        W 5301   4.595   6.498   3.175  0.3151  0.0719 -0.0924
 1251W        W 5302   8.622   8.565   3.227  0.1770 -0.0680 -0.2011
 1252W        W 5303   4.708  10.044  14.007 -0.0634 -0.2712 -0.0069
 1253W        W 5304   5.290   5.142   1.881 -0.1196 -0.0150 -0.0924
 1254W        W 5305   7.687   8.555   2.111  0.1165 -0.0312  0.1392
 1255W        W 5306   9.962   5.059   4.698 -0.0504 -0.2754 -0.2569
 1256W        W 5307   0.552   1.327   0.388 -0.0522 -0.0541 -0.0714
 1257W        W 5308   9.987   7.391   1.129 -0.0044 -0.0639 -0.1593
 1258W        W 5309   7.018   9.690  13.487 -0.1179  0.0039  0.2105
 1259W        W 5310   0.666   3.745   0.127 -0.2216 -0.1118 -0.1116
 1260W        W 5311   8.985   2.405   3.503  0.1810 -0.0475 -0.0213
 1261W        W 5312   2.598   4.945  12.403  0.3364  0.0619 -0.1964
 1262W        W 5313   5.467   0.284   2.118  0.2542  0.0053  0.1499
 1263W        W 5314   5.472   4.143   2.187  0.0956  0.1671  0.0636
 1264W        W 5315   6.028   5.181  12.837 -0.1606 -0.1086 -0.1256
 1265W        W 5316   2.354   3.464   4.624 -0.1095 -0.2295  0.0635
 1266W        W 5317   7.179   0.327   4.135 -0.1236 -0.0269  0.0979
 1267W        W 5318   3.580   2.722  11.014 -0.0834 -0.1159  0.1561
 1268W        W 5319  10.081   8.859   2.316 -0.0026 -0.2736 -0.0058
 1269W        W 5320   3.494   6.350  13.270  0.2363  0.0382  0.3376
 1270W        W 5321   9.544   1.661   1.913 -0.0068 -0.1821  0.0194
 1271W        W 5322   6.005   6.723   3.562 -0.1125  0.0202  0.0558
 1272W        W 5323   8.541   8.597  13.302  0.1919  0.0413  0.1282
 1273W        W 5324   0.813   4.670   9.820 -0.2124  0.1436  0.3040
 1274W        W 5325   4.201   9.580   3.283 -0.2152 -0.1706 -0.2955
 1275W        W 5326   2.172   9.622  10.744 -0.0020 -0.2892 -0.2306
 1276W        W 5327   1.680   4.585  13.383 -0.1340  0.1837 -0.2702
 1277W        W 5328   3.851   1.470  10.733  0.1452  0.1952 -0.0850
 1278W        W 5329   0.021   6.594  13.078 -0.1703  0.0526 -0.1760
 1279W        W 5330   8.659   0.247  12.837  0.0489 -0.0790  0.0055
 1280W        W 5331   2.470   2.402   4.365 -0.0447 -0.2260  0.1442
 1281W        W 5332   6.286   6.236  11.794  0.1155 -0.1947  0.1312
 1282W        W 5333   6.117   0.718  12.334 -0.2217  0.0062 -0.0133
 1283W        W 5334   7.766   9.655   0.170  0.3225 -0.0457 -0.0454
 1284W        W 5335   6.517   3.740  13.484 -0.1883  0.0556 -0.0353
 1285W        W 5336   8.664   0.698  13.054  0.1935  0.1857  0.0651
 1286W        W 5337   4.389   6.336  11.747  0.0646  0.1007 -0.1623
 1287W        W 5338   4.621   0.853   4.920  0.0523 -0.1017 -0.0169
 1288W        W 5339   5.992   8.470   0.586 -0.1292 -0.0785  0.1907
 1289W        W 5340   9.515   3.831   3.098  0.2543  0.1191  0.3500
 1290W        W 5341  10.055   4.946   0.840 -0.0045  0.0407  0.1266
 1291W        W 5342   9.968  10.117   2.765  0.3489  0.1606  0.0440
 1292W        W 5343   2.088   4.519   3.802 -0.4032 -0.0258 -0.0823
 1293W        W 5344   3.193   6.341   9.745  0.0569  0.0066 -0.2929
 1294W        W 5345   4.146   7.498  13.813  0.2334  0.0150  0.0690
 1295W        W 5346   2.940   3.490  11.805  0.0508  0.0560 -0.1275
 1296W        W 5347   3.170   4.928   4.550 -0.2490  0.1047  0.0950
 1297W        W 5348   7.389   9.988  11.467 -0.2469  0.0821  0.1308
 1298W        W 5349  10.145   8.467   4.944  0.4895 -0.0256  0.0165
 1299W        W 5350   0.278   5.544   3.397  0.0468  0.0488 -0.1596
 1300W        W 5351   4.886   4.393   1.621  0.3562  0.0515  0.2646
 1301W        W 5352   9.371   9.213  11.419  0.2644 -0.0443 -0.1278
 1302W        W 5353   6.593   2.272   5.992  0.2975  0.2983 -0.2461
 1303W        W 5354   6.767   5.075  11.644  0.1111  0.0632  0.0372
 1304W        W 5355  10.076   1.380   3.201  0.1440 -0.2657 -0.1308
 1305W        W 5356  10.052   1.765  11.299 -0.0610 -0.1737 -0.3559
 1306W        W 5357   4.793   9.190   2.141  0.3784  0.0131  0.2145
 1307W        W 5358   4.751  10.086  13.301 -0.1008 -0.1239  0.1100
 1308W        W 5359   8.789   8.088  12.614 -0.2357 -0.0869  0.0261
 1309W        W 5360   1.932   8.488   3.739 -0.3033  0.0434  0.1462
 1310W        W 5361   9.524   8.197   4.872 -0.2094 -0.2907 -0.0469
 1311W        W 5362   7.459   9.098   0.852 -0.3159  0.0657  0.3450
 1312W        W 5363   1.090   1.895  11.047 -0.0021  0.0980  0.2093
 1313W        W 5364   6.579   5.084   1.673 -0.0987  0.2253 -0.3725
 1314W        W 5365   6.998   4.745   1.620  0.2601 -0.1178 -0.2857
 1315W        W 5366   0.231   7.683  11.058  0.0622  0.1821 -0.1369
 1316W        W 5367   8.609   7.189   9.802  0.2953 -0.0171 -0.1676
 1317W        W 5368   4.723   7.078  12.298 -0.3171 -0.1610 -0.1747
 1318W        W 5369   5.488   3.481   4.492  0.3223 -0.0012  0.0582
 1319W        W 5370   0.649   0.576  11.047  0.0216  0.0127  0.1859
 1320W        W 5371   2.164   5.044  10.898 -0.0542 -0.1183  0.0891
 1321W        W 5372   0.418   7.861  10.501  0.2574  0.0153  0.2715
 1322W        W 5373   0.479   8.361   1.710  0.0061 -0.0857 -0.0062
 1323W        W 5374   0.262   3.128   2.253  0.0105  0.0426  0.2953
 1324W        W 5375   4.116   9.405  11.818  0.1428  0.1579  0.0324
 1325W        W 5376   8.293   0.884   1.016 -0.3065  0.2348  0.1685
 1326W        W 5377   9.317   1.696   2.358 -0.1061 -0.1651 -0.2866
 1327W        W 5378   3.891   0.291  10.796 -0.0260 -0.1694  0.2002
 1328W        W 5379  10.102   3.250   2.679  0.1839  0.1989  0.0153
 1329W        W 5380   9.316   6.850   4.153 -0.0239 -0.2627  0.0531
 1330W        W 5381   7.128   7.746  10.234 -0.1844 -0.1332 -0.0157
 1331W        W 5382   3.869   8.200   9.813  0.3733 -0.4045 -0.1669
 1332W        W 5383   6.334   7.670  10.857 -0.0248  0.0503  0.0200
 1333W        W 5384   3.369   5.162   3.566 -0.2303 -0.0241 -0.2554
 1334W        W 5385   0.051   2.314   2.160 -0.2141  0.0573  0.1375
 1335W        W 5386   0.733   2.654   2.734  0.0388 -0.4612 -0.1646
 1336W        W 5387   2.780   9.257   4.719 -0.1712 -0.0986  0.0126
 1337W        W 5388   8.362   3.349  12.162  0.3095  0.0317 -0.4192
 1338W        W 5389   4.782   9.076   1.197  0.1763  0.1404  0.1179
 1339W        W 5390   0.864   7.088  13.293 -0.1623  0.3983 -0.0029
 1340W        W 5391   8.823   4.184   0.772  0.0454 -0.0821 -0.0078
 1341W        W 5392   6.699   5.553  10.721  0.1437  0.0032 -0.2148
 1342W        W 5393   5.508   2.147   9.906 -0.0759  0.0943  0.1496
 1343W        W 5394   9.747   4.693  10.672 -0.1613  0.2259  0.2259
 1344W        W 5395   4.162   9.381  13.804  0.0347  0.0743 -0.0081
 1345W        W 5396   4.946   2.708  13.479  0.1355  0.2532 -0.0825
 1346W        W 5397   5.801   3.992  11.588 -0.0726  0.1660  0.0233
 1347W        W 5398   5.065   5.883  13.165  0.1072  0.0585  0.0237
 1348W        W 5399   8.760   8.630  11.835  0.0913  0.5265  0.2233
 1349W        W 5400   0.096   1.969  13.196  0.2524  0.0779  0.0054
 1350W        W 5401   1.835   6.909  10.971  0.0615  0.1845  0.0975
 1351W        W 5402   7.337   5.480   0.003  0.0295 -0.0655 -0.1393
 1352W        W 5403   4.457   9.599   0.087 -0.2032 -0.1153  0.1436
 1353W        W 5404   0.937   1.529   0.124  0.2072 -0.1982  0.0799
 1354W        W 5405   4.175   0.020  14.013  0.2360 -0.2282 -0.2003
 1355W        W 5406   8.675   3.646   2.835 -0.3351 -0.0300 -0.1533
 1356W        W 5407   7.123   1.342  13.284  0.0049  0.3432  0.0299
 1357W        W 5408   1.800   4.792   0.511  0.2108  0.2146  0.2578
 1358W        W 5409   1.582   4.737   2.382 -0.2214  0.3249 -0.0024
 1359W        W 5410   5.365   4.520  12.923  0.0611  0.1081 -0.0241
 1360W        W 5411   1.641   2.695   5.556 -0.1636  0.0013 -0.0996
 1361W        W 5412   8.918   0.948  12.053  0.0915  0.0234  0.0446
 1362W        W 5413   0.858   8.396  12.507 -0.1779  0.2359 -0.0966
 1363W        W 5414   6.599   8.251   2.425  0.2090 -0.2112 -0.2984
 1364W        W 5415   5.708   0.776   0.412  0.0560 -0.2650  0.0563
 1365W        W 5416   3.987   5.530   3.049 -0.1731  0.0900  0.2014
 1366W        W 5417   5.439   7.550   0.559  0.0753  0.1868 -0.0161
 1367W        W 5418  10.081   0.452  10.717 -0.2178 -0.1024 -0.1223
 1368W        W 5419   4.331   0.595   9.613 -0.1952  0.2365  0.0985
 1369W        W 5420   6.697   3.661   2.395  0.2124  0.1319 -0.1095
 1370W        W 5421   8.819   2.548   8.578 -0.1039 -0.1287  0.2852
 1371W        W 5422   5.503   1.898  13.683 -0.0745  0.0712  0.0976
 1372W        W 5423   9.534   2.280   9.676 -0.2786  0.1501  0.3945
 1373W        W 5424   5.809   0.150   1.044  0.0401  0.2789 -0.1945
 1374W        W 5425   4.530   2.798   2.882 -0.1011 -0.2095  0.1409
 1375W        W 5426   8.521   8.767  10.372  0.1286 -0.3195 -0.3156
 1376W        W 5427   6.541   5.719  12.029  0.0409 -0.0319  0.0107
 1377W        W 5428   8.699   3.939  13.300 -0.3476  0.1791 -0.0836
 1378W        W 5429   9.669   4.680  12.662 -0.0548 -0.2308  0.0936
 1379W        W 5430   5.315   3.391  12.863  0.2820  0.0688 -0.0150
 1380W        W 5431   9.329   6.855   9.601  0.4891 -0.1120 -0.0421
 1381W        W 5432   9.012   7.432  10.844 -0.0004  0.1673  0.1061
 1382W        W 5433   5.953   9.560   0.308 -0.1622 -0.1713 -0.2725
 1383W        W 5434   9.284   2.444   3.118 -0.2029 -0.0869 -0.0934
 1384W        W 5435   7.562   6.783  10.052 -0.1921  0.1032 -0.0286
 1385W        W 5436   0.966   7.740   3.042  0.0616 -0.0983 -0.0786
 1386W        W 5437   0.593   5.649   4.098 -0.0414  0.0242 -0.2233
 1387W        W 5438   1.424   2.802  12.172 -0.0050  0.2604 -0.0094
 1388W        W 5439   3.678   0.813   3.518 -0.0612  0.1647  0.0542
 1389W        W 5440   8.013   3.148   8.750 -0.7165  0.0552  0.1915
 1390W        W 5441   9.251   4.338   5.064  0.2879 -0.3080  0.0807
 1391W        W 5442   8.046   6.031  12.800  0.2042 -0.0466  0.0158
 1392W        W 5443   0.274   4.010   4.088  0.1982  0.4992 -0.0341
 1393W        W 5444   3.316   3.570  10.767 -0.0823  0.0722  0.0505
 1394W        W 5445   7.806   9.325   1.095  0.0065  0.1509 -0.2475
 1395W        W 5446   5.508   1.076   3.760  0.0451 -0.3486  0.0487
 1396W        W 5447   2.613   7.364   3.129 -0.0509  0.0796  0.1685
 1397W        W 5448   4.013   0.566   5.739  0.2009 -0.0348  0.0097
 1398W        W 5449  10.033   2.676   1.368  0.0783  0.2136 -0.1128
 1399W        W 5450   5.514   2.627  11.710  0.1482 -0.1878 -0.2068
 1400W        W 5451   8.879   7.158   2.030 -0.3829  0.0126 -0.0495
 1401W        W 5452   6.604   8.686   4.273 -0.2475  0.0430  0.2043
 1402W        W 5453   3.176   1.718   2.038 -0.1420 -0.2115 -0.1491
 1403W        W 5454   3.947   6.899  12.511 -0.1433  0.0122 -0.1178
 1404W        W 5455   9.287   9.801   1.874  0.1739  0.3597  0.4098
 1405W        W 5456   4.017   8.478   0.035 -0.2308  0.2120 -0.0493
 1406W        W 5457   8.788   6.528  12.484 -0.1330  0.1662  0.0062
 1407W        W 5458   4.146   7.381   1.222 -0.2068 -0.0369 -0.0737
 1408W        W 5459   5.330   0.321   0.049  0.1774 -0.0778  0.1028
 1409W        W 5460   1.961   4.367  13.820  0.0120 -0.0876  0.1036
 1410W        W 5461  10.157   3.894   2.353 -0.0773 -0.1977 -0.0204
 1411W        W 5462   4.681   3.261  13.070  0.0142  0.2083  0.1234
 1412W        W 5463   8.866   9.499   2.063 -0.3920  0.1247  0.1055
 1413W        W 5464   0.158   3.216  11.616 -0.0711 -0.2419  0.2395
 1414W        W 5465   3.683   9.034  11.172 -0.1605  0.0138  0.1919
 1415W        W 5466   2.954   8.811  12.406  0.1491 -0.3340 -0.0295
 1416W        W 5467   7.818   2.290  13.887  0.1548 -0.1179  0.1287
 1417W        W 5468   6.771   7.101  11.541  0.2360 -0.1925 -0.1015
 1418W        W 5469   2.204   0.352   9.963 -0.1100 -0.0245  0.1106
 1419W        W 5470   3.163   6.789   1.608  0.1023 -0.0076 -0.0964
 1420W        W 5471   4.694   8.890   1.735  0.2196 -0.1411 -0.2315
 1421W        W 5472   5.363   6.181  11.124  0.0025  0.1865  0.1251
 1422W        W 5473   6.046   7.325   3.762 -0.0957  0.3963  0.3839
 1423W        W 5474  10.082   6.123  12.218 -0.1177  0.3769  0.0474
 1424W        W 5475   3.317   2.093   4.533 -0.1716  0.1428 -0.1007
 1425W        W 5476   8.616   5.807  13.519  0.6536 -0.0853 -0.1267
 1426W        W 5477   8.579   4.453  13.889  0.1396  0.0042 -0.0448
 1427W        W 5478   3.510   5.272  13.844 -0.2054  0.0020  0.2951
 1428W        W 5479   2.653   3.483   1.202  0.0167  0.0364  0.1327
 1429W        W 5480   7.032   8.393  11.265 -0.2248 -0.0758  0.1260
 1430W        W 5481   9.067   6.216  13.921 -0.1224 -0.1788 -0.0520
 1431W        W 5482   3.608   3.205  12.894  0.0708  0.1196 -0.0387
 1432W        W 5483   0.278   7.016   0.498 -0.1037 -0.1928 -0.1477
 1433W        W 5484   0.311   7.645   4.914 -0.0478 -0.0037  0.1759
 1434W        W 5485   9.253   2.583   1.865  0.0452  0.0084 -0.0338
 1435W        W 5486   5.896   8.569   1.668 -0.0476  0.0503  0.1317
 1436W        W 5487   2.008   7.637  11.285  0.1510 -0.0929  0.0371
 1437W        W 5488   5.721   9.483   5.116  0.1533  0.2543 -0.2125
 1438W        W 5489   4.757   6.285   2.210  0.2171 -0.1720 -0.3624
 1439W        W 5490   7.617   7.307   9.257  0.0692  0.0304 -0.0294
 1440W        W 5491   1.206   0.483   5.116  0.0041 -0.1998  0.1940
 1441W        W 5492   5.898   0.356   0.162 -0.0099  0.1490  0.1759
 1442W        W 5493   9.925   9.640   9.352  0.0945 -0.0236 -0.3198
 1443W        W 5494  10.042   9.768  13.561 -0.0972  0.2900  0.0719
 1444W        W 5495   3.474   3.998   9.799 -0.1219 -0.0441  0.0991
 1445W        W 5496   7.449   5.061   9.777 -0.0236  0.0116  0.3456
 1446W        W 5497   2.434   2.806  12.090 -0.1705 -0.2461  0.0896
 1447W        W 5498   4.713   5.674   2.735  0.0499  0.3163 -0.3951
 1448W        W 5499   7.785   7.596  12.454 -0.3664  0.0233 -0.2985
 1449W        W 5500   5.153   4.750   0.042 -0.2119  0.1939  0.1452
 1450W        W 5501   7.767   0.637  11.243  0.0147 -0.0203  0.2596
 1451W        W 5502   3.601   8.455   2.741 -0.2305 -0.0687 -0.3414
 1452W        W 5503   1.584   1.710  10.659 -0.4700 -0.0238 -0.0163
 1453W        W 5504   0.487   8.627   3.801 -0.1100 -0.1530 -0.1387
 1454W        W 5505   7.859   4.567   0.644  0.1688  0.2775  0.1347
 1455W        W 5506   5.669   9.520   3.447 -0.0301  0.0584  0.3531
 1456W        W 5507   2.938   6.877   2.082  0.0134  0.0093 -0.1705
 1457W        W 5508   3.565   5.061   3.086  0.2301  0.0888 -0.0781
 1458W        W 5509   3.108   7.980   3.595  0.1994 -0.0490  0.1112
 1459W        W 5510   0.604   4.536  10.903  0.0948 -0.1708  0.2257
 1460W        W 5511   4.749   5.388   3.664  0.2378 -0.2707 -0.2097
 1461W        W 5512   8.969   5.176  13.994 -0.0779 -0.1023  0.3191
 1462W        W 5513   4.371   8.591  12.843  0.0758 -0.2039  0.2597
 1463W        W 5514   8.869   1.776   2.068  0.2069  0.0352 -0.0603
 1464W        W 5515   2.971   5.007   0.776  0.3481  0.0063  0.0234
 1465W        W 5516   6.936   0.960   0.491  0.1403 -0.0596  0.0041
 1466W        W 5517   5.678   3.794  13.826 -0.1052  0.1906 -0.1017
 1467W        W 5518   5.254   6.389  12.004  0.2814 -0.1367 -0.1194
 1468W        W 5519   0.844   5.545   3.279 -0.0608 -0.3250 -0.1195
 1469W        W 5520   5.425   4.297  13.970 -0.2573 -0.3706 -0.1205
 1470W        W 5521   0.402   6.792  11.687  0.0141 -0.0778  0.2368
 1471W        W 5522   8.719   9.451  13.309 -0.2061  0.0805 -0.2199
 1472W        W 5523   9.958   0.248   4.815 -0.0857  0.1936 -0.0924
 1473W        W 5524   3.551   2.914   2.193 -0.5220  0.1240 -0.0582
 1474W        W 5525   2.420   8.139  13.931  0.1082 -0.0545  0.0049
 1475W        W 5526   2.601   9.226  10.236 -0.0621 -0.0043  0.2020
 1476W        W 5527   9.322   9.303  11.855  0.0435  0.0087 -0.2482
 1477W        W 5528   7.064   7.569  12.434 -0.3951 -0.0424  0.0427
 1478W        W 5529   7.847   9.855   4.995 -0.1497  0.2054 -0.0333
 1479W        W 5530   1.651   8.859   1.431 -0.3630 -0.0671  0.3629
 1480W        W 5531   1.284   2.183   1.378  0.0401  0.2192  0.2123
 1481W        W 5532   0.606   0.313   3.205 -0.2233 -0.2100  0.1140
 1482W        W 5533   5.334   8.859  11.716 -0.1408  0.2230 -0.0285
 1483W        W 5534   5.473   6.261   0.880 -0.0475 -0.0167 -0.3866
 1484W        W 5535   2.567   2.920   3.313 -0.3120  0.1025  0.2756
 1485W        W 5536   5.483   0.870   2.184 -0.1689  0.0370  0.1230
 1486W        W 5537   7.161   6.932  11.935 -0.2748  0.0230  0.3601
 1487W        W 5538   7.022   5.087   0.130  0.1038 -0.1931  0.0254
 1488W        W 5539   0.245   6.308   4.621  0.0510  0.2962 -0.0629
 1489W        W 5540   4.241   2.492   3.866 -0.3426 -0.2481  0.4203
 1490W        W 5541   4.911   4.732   1.240 -0.0602  0.1351  0.0180
 1491W        W 5542   5.969   9.574  11.732 -0.1704 -0.1563  0.0817
 1492W        W 5543   9.171   1.651   2.860  0.0602 -0.0365 -0.2510
 1493W        W 5544   2.036   6.573  11.621  0.3706  0.1989 -0.1216
 1494W        W 5545   2.597   0.851  10.245  0.1492  0.0265 -0.2475
 1495W        W 5546   3.239   6.989   2.542  0.1247  0.4060 -0.2032
 1496W        W 5547   9.352   9.574  10.541 -0.1053  0.0042  0.2413
 1497W        W 5548   0.713   5.978  13.389 -0.3481  0.0448 -0.0626
 1498W        W 5549   8.050   3.007  11.903 -0.1017  0.2960  0.0287
 1499W        W 5550   2.934   7.036   0.947 -0.2060  0.1542  0.2272
 1500W        W 5551   3.687   2.625  10.185 -0.1299  0.0147 -0.0441
 1501W        W 5552   3.206   8.467   0.472 -0.1093  0.1390 -0.0184
 1502W        W 5553   5.579   1.566   4.418  0.1980 -0.1216 -0.0839
 1503W        W 5554   3.182   9.157   4.322  0.1136  0.1753  0.1674
 1504W        W 5555   9.110   6.916   5.131  0.2232  0.3161 -0.1277
 1505W        W 5556   6.365   6.796  11.704  0.1057 -0.0125 -0.1680
 1506W        W 5557   9.814   2.243  12.301  0.0715  0.1374 -0.0734
 1507W        W 5558   4.915   7.619  11.775 -0.0069 -0.3110 -0.0510
 1508W        W 5559   7.936   4.269   9.421  0.0822 -0.0583  0.2373
 1509W        W 5560   5.202  10.065  13.920  0.1223 -0.0818 -0.1183
 1510W        W 5561   3.586   2.716  12.337 -0.1552 -0.0737 -0.2129
 1511W        W 5562   0.830   0.990   1.356  0.1784  0.0140  0.2736
 1512W        W 5563   1.166   3.487   3.190 -0.0545 -0.1724 -0.0257
 1513W        W 5564   6.301   9.846   3.091 -0.0615 -0.0801  0.3271
 1514W        W 5565   3.674   5.561   1.970  0.0301 -0.2559  0.0249
 1515W        W 5566   5.075   7.475  12.233 -0.0388  0.0886  0.0752
 1516W        W 5567   0.285   9.177   1.266 -0.1558 -0.2652 -0.2281
 1517W        W 5568   0.833   4.770   2.988  0.2818  0.1876 -0.2452
 1518W        W 5569   7.934   2.906   1.462 -0.0365  0.1454 -0.1317
 1519W        W 5570   7.478   1.270   0.035  0.0915 -0.0492 -0.1954
 1520W        W 5571   9.226   9.332   1.088 -0.0635  0.1667  0.1948
 1521W        W 5572   7.494   2.561   4.427  0.2472  0.0486  0.1407
 1522W        W 5573   2.816   8.838   9.339 -0.0222  0.0959  0.0242
 1523W        W 5574   2.965   7.043   3.967  0.1089 -0.0676  0.0333
 1524W        W 5575   3.404   4.228   1.386 -0.0500  0.0399 -0.1938
 1525W        W 5576   3.344   6.766   1.075 -0.0847 -0.0725  0.2603
 1526W        W 5577   3.871   8.353  12.727  0.2418  0.0374  0.0256
 1527W        W 5578   9.447   8.144   4.385 -0.0583  0.2223 -0.2335
 1528W        W 5579   2.346   7.039   0.062  0.4159  0.1395  0.2076
 1529W        W 5580   1.531   2.038  13.276  0.3205  0.5000 -0.3395
 1530W        W 5581   4.338   3.426   4.044 -0.0425 -0.0369 -0.1083
 1531W        W 5582   8.943   8.317  10.914  0.1363 -0.1370 -0.3007
 1532W        W 5583   6.785   8.466   2.879  0.0111 -0.5148  0.0650
 1533W        W 5584   5.258   3.874   0.161  0.4373  0.2272 -0.1018
 1534W        W 5585   1.594   3.237  11.986 -0.1760  0.1793 -0.0772
 1535W        W 5586   9.761   2.318   3.121 -0.0663 -0.0902  0.0672
 1536W        W 5587   0.707   8.833  13.836 -0.1678  0.0768  0.1166
 1537W        W 5588   3.489   9.933   0.995  0.0278 -0.0701 -0.1737
 1538W        W 5589   7.768   7.205   4.612 -0.0085 -0.1534 -0.3029
 1539W        W 5590   4.557   7.638   3.438  0.2512 -0.2241 -0.0481
 1540W        W 5591   9.521   9.849   9.788  0.0338 -0.0340 -0.3197
 1541W        W 5592   6.541   3.610   4.952  0.2591 -0.3028  0.2357
 1542W        W 5593   7.025   3.405  12.226  0.1389  0.3345 -0.1118
 1543W        W 5594   2.176   5.656   9.154  0.0174 -0.0606 -0.4565
 1544W        W 5595   3.507   7.151   0.505  0.3538  0.2103 -0.0531
 1545W        W 5596   4.685   2.625   0.488 -0.0267 -0.0180 -0.3249
 1546W        W 5597   2.501   0.398  12.246 -0.2012 -0.1390 -0.2656
 1547W        W 5598   8.616   8.607   1.073  0.0927  0.0343 -0.2090
 1548W        W 5599   4.577   2.159   0.235 -0.3725 -0.1200 -0.1002
 1549W        W 5600   4.782   1.868   5.159 -0.1053 -0.1027  0.0804
 1550W        W 5601   3.915   8.030   2.188  0.0744 -0.1479  0.1132
 1551W        W 5602   1.957   4.477  12.799 -0.3080 -0.0678 -0.1071
 1552W        W 5603   2.795   5.743  10.821 -0.1574 -0.3149 -0.3218
 1553W        W 5604   1.290   0.765   2.137 -0.1719  0.3409 -0.1057
 1554W        W 5605   1.135   5.898   9.778 -0.1242 -0.0044 -0.0779
 1555W        W 5606   8.917   0.193   8.696 -0.0850  0.0215 -0.3703
 1556W        W 5607   4.447   5.864  11.866  0.2422  0.1367  0.0552
 1557W        W 5608   8.360   0.374  10.872  0.4276  0.2406  0.1344
 1558W        W 5609   8.686   4.443   1.963  0.2240  0.0990 -0.0657
 1559W        W 5610   9.414   7.995   5.397  0.1928 -0.0515  0.0288
 1560W        W 5611   0.809   2.221   1.073  0.2624 -0.3102 -0.0129
 1561W        W 5612   2.421   7.534  13.655 -0.1506 -0.2190  0.1636
 1562W        W 5613   3.357   1.862  12.519 -0.0351 -0.0682 -0.1522
 1563W        W 5614   4.087   5.909  11.284 -0.1525  0.0262  0.1291
 1564W        W 5615   9.684   3.380   0.032  0.2281 -0.1800  0.0300
 1565W        W 5616   5.880   7.450  12.727 -0.0666  0.2054 -0.1257
 1566W        W 5617   9.224   0.587   4.069 -0.2651 -0.0975 -0.2287
 1567W        W 5618   5.104   8.132   2.727  0.1083  0.3597  0.2755
 1568W        W 5619   4.480   8.523   3.776 -0.1340 -0.1488  0.0410
 1569W        W 5620   7.731   1.494  12.731  0.3058 -0.0051  0.0650
 1570W        W 5621   7.151   7.523  10.684  0.2427 -0.1360  0.0769
 1571W        W 5622   3.083   5.408   1.952  0.0072 -0.1196  0.0719
 1572W        W 5623   4.576   7.684  10.841  0.0921  0.2367 -0.2383
 1573W        W 5624   6.865   4.585   3.010  0.0815  0.0930 -0.1600
 1574W        W 5625   5.939   2.141   3.081 -0.2048 -0.0724  0.4328
 1575W        W 5626   2.840   7.353  10.867 -0.1874 -0.0563 -0.1589
 1576W        W 5627   6.104   2.007   2.027 -0.0779 -0.3353 -0.4100
 1577W        W 5628   8.897   0.389  12.372 -0.0285  0.4278 -0.1201
 1578W        W 5629   0.829   1.777   9.307 -0.1201 -0.1351 -0.1159
 1579W        W 5630   9.814   2.865  10.115  0.0456  0.0207 -0.1585
 1580W        W 5631   5.300   9.416  11.518  0.1692 -0.0050  0.3164
 1581W        W 5632   8.370   8.662   9.443 -0.0509  0.0782 -0.2359
 1582W        W 5633   0.228   3.979   1.934  0.1168  0.2535  0.2416
 1583W        W 5634   6.898   3.331   3.574  0.0913 -0.1664 -0.2809
 1584W        W 5635   4.656   0.548   2.833  0.2202  0.0463 -0.2873
 1585W        W 5636   2.800   6.190  12.763  0.3744  0.2282 -0.1067
 1586W        W 5637   7.275   2.414   2.607  0.3184  0.0256  0.0159
 1587W        W 5638   0.857   2.710   0.864  0.1295  0.2968 -0.2303
 1588W        W 5639   7.405   7.075   9.637 -0.1440  0.1303 -0.2374
 1589W        W 5640   9.765   8.305   3.972 -0.2663 -0.0187  0.0578
 1590W        W 5641   2.823   7.190  13.577 -0.0720 -0.1813 -0.2506
 1591W        W 5642   1.753   5.075   3.293  0.1527 -0.1450 -0.2225
 1592W        W 5643   8.829   5.688  13.931 -0.4354  0.0094 -0.2033
 1593W        W 5644   9.981   8.774   9.087 -0.1327 -0.1650  0.1949
 1594W        W 5645   9.449   1.041   9.784 -0.1556  0.0182  0.0700
 1595W        W 5646   2.359   9.531   2.878 -0.0253 -0.1672 -0.1254
 1596W        W 5647   6.468   7.829  13.472  0.1276  0.0722 -0.2775
 1597W        W 5648   7.571   9.297   1.532  0.0931 -0.0425  0.1163
 1598W        W 5649   5.241   3.780  12.388 -0.1298  0.0692 -0.0700
 1599W        W 5650   1.923   2.253   1.178  0.1399 -0.0224 -0.1170
 1600W        W 5651   8.058   8.564   1.086 -0.4834 -0.0213  0.0645
 1601W        W 5652   8.994   9.263   4.589 -0.3513 -0.3635  0.0963
 1602W        W 5653   0.544   4.217  13.505 -0.1706  0.1766 -0.0384
 1603W        W 5654   5.860  10.074  10.685 -0.1303  0.0931  0.2639
 1604W        W 5655   2.908   9.525   0.334 -0.0454  0.2285 -0.0926
 1605W        W 5656   0.347   5.809  12.072 -0.0784  0.1748  0.1258
 1606W        W 5657   1.551   4.718  12.938  0.1552 -0.0597 -0.0263
 1607W        W 5658   6.644   4.771  12.357 -0.0605  0.4050 -0.0933
 1608W        W 5659   5.513   4.164   3.953 -0.3314 -0.1333 -0.1031
 1609W        W 5660   2.385   4.075   3.827 -0.0542 -0.0905 -0.1108
 1610W        W 5661   9.003   8.129  13.086  0.3348 -0.0975 -0.1186
 1611W        W 5662   8.036   6.253   4.234 -0.1024 -0.0003 -0.0045
 1612W        W 5663   6.958   4.179  11.480  0.1290  0.0291 -0.1799
 1613W        W 5664   7.895   6.251   9.497  0.0359 -0.1357  0.1810
 1614W        W 5665   7.074   7.132   3.711 -0.0029  0.4485  0.0904
 1615W        W 5666   9.079   8.290  12.157 -0.2632  0.0309  0.0370
 1616W        W 5667   6.085   3.906  13.488  0.0542 -0.2382 -0.0548
 1617W        W 5668   3.204   2.511  10.181  0.2071  0.0642 -0.0926
 1618W        W 5669   2.216   5.769   2.160 -0.2070  0.0180 -0.0421
 1619W        W 5670   1.064   2.255   9.997  0.0885  0.0184  0.1181
 1620W        W 5671   2.061   1.176   3.273 -0.3779 -0.0631 -0.0452
 1621W        W 5672   5.744   1.344  10.425  0.2274  0.3578  0.1156
 1622W        W 5673   4.020   0.847   1.749  0.1815  0.0843  0.1104
 1623W        W 5674   1.222   1.097  13.286  0.0393  0.0758 -0.1179
 1624W        W 5675   5.109  10.105   2.013 -0.0104  0.3013 -0.1971
 1625W        W 5676   8.381   0.311   0.768  0.2422  0.2993 -0.5496
 1626W        W 5677   3.113   2.165   1.041 -0.1064  0.1051 -0.3424
 1627W        W 5678   4.201   2.409  10.002 -0.1262  0.0136 -0.2063
 1628W        W 5679   4.362   8.496   2.532 -0.3193 -0.1543  0.1270
 1629W        W 5680   6.624   5.394   2.695  0.0869 -0.2161  0.1429
 1630W        W 5681   3.240   7.393  13.813 -0.0784  0.2144 -0.1767
 1631W        W 5682   9.534   7.342   0.503 -0.0040  0.1161 -0.0040
 1632W        W 5683   1.872   0.703   4.421 -0.0466  0.1198  0.2329
 1633W        W 5684   0.903   1.496  11.972 -0.3760 -0.0273  0.1069
 1634W        W 5685   1.901   2.224   9.696  0.5624  0.1083  0.0194
 1635W        W 5686   5.285   6.122   2.066 -0.2644 -0.0337  0.2022
 1636W        W 5687   2.952   5.667   2.838 -0.0894 -0.1885  0.1141
 1637W        W 5688   9.734   0.670   0.903  0.2701  0.2714  0.0109
 1638W        W 5689   2.978   7.723  10.051  0.1761  0.2957 -0.0289
 1639W        W 5690   7.518   1.932   5.244 -0.1177  0.0868 -0.2771
 1640W        W 5691   6.207   3.338   0.179 -0.0543 -0.1577  0.0138
 1641W        W 5692   4.006   1.965  10.646 -0.1529  0.1698 -0.1107
 1642W        W 5693   2.297   6.284   5.356 -0.0109  0.0754  0.0028
 1643W        W 5694   3.410   9.711  10.698  0.2430 -0.0393 -0.0909
 1644W        W 5695   1.692   4.766   4.334  0.0863  0.1244  0.1030
 1645W        W 5696   4.758   3.515   0.060 -0.2064 -0.1681  0.0591
 1646W        W 5697   9.280   8.957   3.716 -0.0331 -0.2646  0.1884
 1647W        W 5698  10.044   0.401  11.424 -0.3833 -0.1112 -0.3333
 1648W        W 5699   1.322   8.342   2.693 -0.1496  0.0702  0.2392
 1649W        W 5700   1.190   9.743  12.714 -0.0057 -0.0383  0.1694
 1650W        W 5701   4.276   8.938   3.420 -0.3180 -0.0980  0.0762
 1651W        W 5702   2.521   3.988   1.227  0.3180 -0.2988  0.1336
 1652W        W 5703   8.376   8.924   3.756  0.0573 -0.3111  0.2390
 1653W        W 5704   5.551   8.895   1.505  0.0897 -0.3100 -0.3296
 1654W        W 5705   1.528   9.062   5.399 -0.4128  0.3316  0.1493
 1655W        W 5706   6.748   1.628  10.936  0.2886  0.3033  0.0011
 1656W        W 5707   0.167   9.112  11.086 -0.0003  0.2622 -0.1423
 1657W        W 5708   3.512   6.609   0.334  0.2214  0.2875  0.0257
 1658W        W 5709   1.035   5.393  12.228 -0.0573  0.1096  0.1417
 1659W        W 5710   8.765   9.019  13.062 -0.0708  0.0872  0.1223
 1660W        W 5711   2.622   2.319   2.662 -0.0371 -0.0071 -0.0299
 1661W        W 5712   1.214   6.401   4.238 -0.0024  0.3958 -0.1909
 1662W        W 5713   3.378  10.007  11.970  0.1554  0.0427 -0.1374
 1663W        W 5714   7.707   2.779   0.452  0.6495  0.0290  0.3359
 1664W        W 5715   8.824   1.449  11.919 -0.0413  0.0404  0.2902
 1665W        W 5716   6.209   8.714   2.072  0.2447  0.1319  0.0360
 1666W        W 5717   6.367   9.722   0.574  0.1198 -0.2330  0.0198
 1667W        W 5718   8.921   0.252   1.363 -0.1915 -0.0563  0.0429
 1668W        W 5719   7.450   6.472  10.444  0.1217 -0.3689  0.2809
 1669W        W 5720   1.717   3.447   3.449  0.0508 -0.3494  0.0157
 1670W        W 5721   8.413   9.240  10.146  0.0648 -0.1075  0.1304
 1671W        W 5722   7.552  10.066   9.880 -0.0086  0.3870 -0.2944
 1672W        W 5723   1.800   9.301  12.365 -0.2950  0.2984 -0.1750
 1673W        W 5724   3.257   5.886   0.023  0.2800 -0.1043  0.1033
 1674W        W 5725   4.952   4.674   2.437 -0.1325 -0.1379  0.2739
 1675W        W 5726   3.151   2.255   2.746  0.0502  0.0332 -0.0592
 1676W        W 5727   0.963   0.556  12.697 -0.1145 -0.0139  0.0698
 1677W        W 5728   5.567   6.668  11.072  0.0477 -0.0870 -0.0792
 1678W        W 5729   7.122   7.543   3.418 -0.2466 -0.1361 -0.1457
 1679W        W 5730   4.599   0.088   5.085 -0.1981 -0.1080 -0.0242
 1680W        W 5731   9.343   3.335   3.005  0.0474  0.3033 -0.1519
 1681W        W 5732   4.615   0.345   4.674 -0.0655  0.2248  0.1725
 1682W        W 5733   5.604   1.820   1.875  0.0648  0.0222 -0.1031
 1683W        W 5734   5.001   7.703  13.339  0.0153 -0.2769 -0.0345
 1684W        W 5735   8.766   1.836   5.628  0.0686 -0.2074  0.0774
 1685W        W 5736   8.186   4.159  13.161  0.0468 -0.1726 -0.0154
 1686W        W 5737   5.345   9.302   2.879 -0.4538 -0.0572 -0.1137
 1687W        W 5738   9.932   6.048   4.397 -0.1232 -0.0304  0.1229
 1688W        W 5739   4.999   9.770   3.337 -0.2190  0.1232  0.0124
 1689W        W 5740   4.637   8.655  11.078  0.0533  0.2788 -0.0474
 1690W        W 5741   4.850   4.152   1.120 -0.3541  0.0895 -0.1745
 1691W        W 5742   1.037   0.988   4.828  0.3212 -0.2398  0.1131
 1692W        W 5743   5.200   5.826   1.258 -0.2742 -0.0964 -0.4764
 1693W        W 5744   7.475   0.379   9.167  0.1368 -0.0059 -0.2425
 1694W        W 5745   3.398   9.492   0.775 -0.2791 -0.3025  0.0851
 1695W        W 5746   0.651   4.815  10.510 -0.0072 -0.1282  0.2744
 1696W        W 5747   7.469   1.059   3.413  0.0385 -0.2017 -0.2475
 1697W        W 5748   6.138   3.728  10.790  0.1822 -0.1883  0.1441
 1698W        W 5749   4.175   0.141   4.758  0.0577  0.1302  0.2078
 1699W        W 5750   6.321   6.054   1.966 -0.2297 -0.1324  0.1088
 1700W        W 5751   3.665   6.522  10.345 -0.3904 -0.3303  0.0451
 1701W        W 5752   6.336   0.939   4.454 -0.0315  0.2630 -0.1982
 1702W        W 5753   3.178   1.737   4.135  0.2018  0.1552  0.1520
 1703W        W 5754   8.650   0.787   4.306  0.0382  0.1824  0.0047
 1704W        W 5755   8.524   0.063   1.621 -0.1446  0.0453 -0.0016
 1705W        W 5756   0.320   5.261   9.386 -0.3434  0.1553 -0.2329
 1706W        W 5757   9.168   6.934   1.059 -0.1476 -0.2076  0.0738
 1707W        W 5758   7.730   8.403  10.899  0.1167 -0.2149  0.2458
 1708W        W 5759   9.552   5.010  13.985  0.0843  0.0067  0.1990
 1709W        W 5760   3.939   1.065   2.586 -0.1103  0.1458 -0.2876
 1710W        W 5761   4.703   4.638   0.285 -0.1964  0.3900 -0.1374
 1711W        W 5762   5.952   8.139   3.387 -0.4041 -0.1684 -0.1996
 1712W        W 5763   3.886   3.068  10.126 -0.1008  0.2446  0.0059
 1713W        W 5764   4.780   3.711  11.061  0.2112  0.2187 -0.0498
 1714W        W 5765  10.019   1.961  11.855 -0.0700 -0.2061 -0.0048
 1715W        W 5766   7.896   0.776   1.273 -0.0384  0.3524 -0.0415
 1716W        W 5767   0.026   3.688  11.368  0.1925  0.1217 -0.0157
 1717W        W 5768   5.855   0.360   9.107  0.0522 -0.0914 -0.3148
 1718W        W 5769   0.538  10.035   3.467 -0.0243 -0.0916  0.0668
 1719W        W 5770   5.780   4.586   0.272 -0.1945 -0.3542  0.0016
 1720W        W 5771   0.180   9.883   2.493  0.2586 -0.4511 -0.2234
 1721W        W 5772   0.787   9.874  11.697  0.0597 -0.1870 -0.1727
 1722W        W 5773   2.238   8.669   4.111  0.2480  0.1268 -0.4072
 1723W        W 5774   7.917   0.338   9.769 -0.1114  0.0460  0.1307
 1724W        W 5775   3.885   2.672  13.694  0.4077  0.0162 -0.0199
 1725W        W 5776   1.540   8.199  13.730  0.3840 -0.2366  0.1274
 1726W        W 5777   4.897   7.774   2.416 -0.0017 -0.0709  0.1849
 1727W        W 5778   1.385   6.181  10.997  0.0796  0.0239 -0.0956
 1728W        W 5779   9.600   9.219   0.222 -0.0973 -0.0321  0.1842
 1729W        W 5780   3.630   2.235   3.589 -0.1567 -0.1857  0.1405
 1730W        W 5781   1.790   8.210   9.958 -0.0739 -0.2301  0.4598
 1731W        W 5782   6.519   3.126  11.745 -0.0071 -0.1505  0.2253
 1732W        W 5783   5.058   2.019   3.457 -0.1805 -0.0254 -0.0445
 1733W        W 5784   5.726   5.343  10.570  0.2079 -0.0370 -0.0682
 1734W        W 5785   9.396   9.302   1.947 -0.0771  0.4857  0.0199
 1735W        W 5786   2.155   4.068   1.563 -0.0332 -0.1474 -0.1861
 1736W        W 5787   7.771   0.960  10.464 -0.3178 -0.0257  0.0416
 1737W        W 5788   9.028   7.909  11.801  0.0395 -0.0112 -0.0589
 1738W        W 5789   8.385   1.928  12.107 -0.2736  0.3453  0.3674
 1739W        W 5790   2.654   0.306  13.802  0.1056 -0.0757 -0.1417
 1740W        W 5791   9.533   4.934   4.447 -0.2293  0.0613  0.2262
 1741W        W 5792   9.424   4.215  13.831 -0.0468 -0.2291 -0.2262
 1742W        W 5793   0.471   5.616   9.093  0.0000  0.1247 -0.2953
 1743W        W 5794   5.243   3.827   4.233  0.0936 -0.1032  0.0083
 1744W        W 5795   5.942   1.037   3.064 -0.1043 -0.1570  0.2559
 1745W        W 5796   7.619   7.490   3.371 -0.3110 -0.0688  0.1354
 1746W        W 5797   4.549   5.476   2.284 -0.1408 -0.3423 -0.0620
 1747W        W 5798   4.453   5.172   1.237  0.2468 -0.1505 -0.3455
 1748W        W 5799   4.947   9.223  13.502 -0.1610  0.0685  0.0327
 1749W        W 5800   0.185   5.373   1.559  0.0596 -0.0586 -0.2637
 1750W        W 5801   5.021   1.923   2.865 -0.1258 -0.2668  0.0075
 1751W        W 5802   9.339   2.637   0.373  0.1081 -0.1174 -0.1318
 1752W        W 5803   3.181   9.964   1.846  0.1852 -0.1811  0.0479
 1753W        W 5804   7.320   8.748  13.715 -0.1557 -0.3268 -0.0238
 1754W        W 5805   7.133   4.499   4.772  0.1442  0.3765  0.2279
 1755W        W 5806   7.540   8.527   3.777 -0.1378 -0.1308  0.1859
 1756W        W 5807   2.508   9.245   1.459  0.4023 -0.0721  0.0224
 1757W        W 5808   5.229   1.583  11.913  0.1575  0.0953 -0.0371
 1758W        W 5809   5.435   2.897   2.555  0.1869 -0.3124  0.2857
 1759W        W 5810   8.372   3.838   1.527 -0.0797  0.1333  0.0770
 1760W        W 5811   6.835   6.523   1.903 -0.0838 -0.1078  0.1468
 1761W        W 5812   7.072   6.143  12.478 -0.1798 -0.1800 -0.0642
 1762W        W 5813   0.634   0.327   4.323 -0.1320  0.0874  0.1786
 1763W        W 5814   4.405   0.049   1.433  0.0978 -0.1330  0.1537
 1764W        W 5815   9.380   0.042   1.472  0.2552 -0.0703 -0.1839
 1765W        W 5816   4.946   2.098  11.691  0.2278 -0.2168  0.2961
 1766W        W 5817   2.024   2.076   4.384  0.0462 -0.5860 -0.2098
 1767W        W 5818   0.010   1.829  10.104  0.2277 -0.0616 -0.2955
 1768W        W 5819   2.113   2.053  10.346 -0.1797 -0.0814  0.0576
 1769W        W 5820   1.082   9.457  10.931  0.1119  0.2433  0.0515
 1770W        W 5821   1.958   1.600  11.457 -0.2266 -0.1540 -0.1874
 1771W        W 5822   5.766   8.672  10.395 -0.1620  0.2339 -0.0308
 1772W        W 5823   8.574   7.545   0.537  0.0451 -0.0038  0.0260
 1773W        W 5824   7.528   8.895  11.927 -0.0856 -0.1562  0.0222
 1774W        W 5825   9.263   2.697  13.899  0.0820 -0.0547 -0.2451
 1775W        W 5826   5.696   4.066   1.095 -0.1592 -0.2152 -0.0648
 1776W        W 5827   2.892   2.705   4.546  0.2795 -0.0728 -0.0203
 1777W        W 5828   5.323   5.362   0.533  0.1039 -0.2032  0.0046
 1778W        W 5829   3.534   1.363   4.996 -0.2912  0.2200 -0.0863
 1779W        W 5830   7.057   7.668   1.267 -0.4076  0.3065 -0.4681
 1780W        W 5831   8.500   3.216   0.207 -0.2996 -0.0150 -0.1310
 1781W        W 5832   6.522   8.773   9.363  0.0461 -0.1041  0.1320
 1782W        W 5833   7.798   5.774   0.300  0.0465 -0.0235  0.2774
 1783W        W 5834   6.972   7.248   4.405  0.0484  0.0449 -0.0340
 1784W        W 5835   9.608   4.176  10.321 -0.2395 -0.1400  0.0737
 1785W        W 5836   8.974   6.934  10.000 -0.1715  0.0464  0.1272
 1786W        W 5837   9.192   5.333   3.716  0.2879 -0.0014  0.3698
 1787W        W 5838   7.232   5.976   4.491 -0.2140  0.0791 -0.2920
 1788W        W 5839   2.494   6.129   1.469 -0.1706 -0.0796  0.0138
 1789W        W 5840   5.205   1.021   1.397  0.3293 -0.0506  0.3839
 1790W        W 5841   5.808   5.830   3.514 -0.5313 -0.2820  0.0521
 1791W        W 5842   6.511   5.049  12.742 -0.2423  0.0891 -0.3774
 1792W        W 5843   1.183   0.107   1.617  0.3194 -0.0236  0.1370
 1793W        W 5844   1.533   3.291   9.681  0.2383  0.2702 -0.1284
 1794W        W 5845   6.310   1.427   2.192 -0.2024 -0.0560 -0.0034
 1795W        W 5846   7.273   6.508  13.847 -0.3294  0.0975  0.0806
 1796W        W 5847   6.852   6.431   0.174 -0.2001 -0.0704 -0.2391
 1797W        W 5848   3.040   4.312  14.027  0.2260  0.5023  0.2839
 1798W        W 5849   3.650   1.184   1.529  0.0990 -0.2368  0.0286
 1799W        W 5850   9.853   3.357   9.940 -0.0975  0.0886 -0.2037
 1800W        W 5851   2.503   8.920   5.011  0.2789  0.0465 -0.1518
 1801W        W 5852   5.479   8.782   4.504 -0.1867  0.3631 -0.1190
 1802W        W 5853   2.020   4.033   2.222  0.2046  0.1461  0.1860
 1803W        W 5854   7.058   7.270  13.554 -0.1891  0.3526 -0.0468
 1804W        W 5855   0.823   0.270  12.334 -0.0170 -0.0307 -0.0673
 1805W        W 5856   8.629   9.998  13.493 -0.3471 -0.2377  0.4409
 1806W        W 5857   1.537   2.292  11.490 -0.3454  0.0176  0.1444
 1807W        W 5858   8.053   9.381   1.535 -0.2188 -0.1883 -0.0481
 1808W        W 5859   3.955   0.304   2.231  0.0449  0.0156 -0.1885
 1809W        W 5860   6.089   3.306   1.879  0.1078  0.1116  0.2594
 1810W        W 5861   1.343   4.939   1.234  0.1648  0.3549  0.2104
 1811W        W 5862   4.634   0.037   1.864  0.0859 -0.2572 -0.0674
 1812W        W 5863   7.329   3.178  11.298  0.1774 -0.0300 -0.0869
 1813W        W 5864  10.112   4.015  11.721  0.0984  0.0122  0.2652
 1814W        W 5865   1.275   1.607   2.017  0.3606  0.0107  0.0325
 1815W        W 5866   1.425   2.885  10.784  0.0865 -0.0960  0.1741
 1816W        W 5867   0.647   2.871   5.146 -0.1311 -0.2879  0.0123
 1817W        W 5868   3.488   2.140  12.980 -0.2136  0.0477 -0.1463
 1818W        W 5869   3.920   6.470  11.281 -0.0282 -0.1530  0.2401
 1819W        W 5870   5.138   0.287  12.499 -0.1108 -0.3444 -0.2586
 1820W        W 5871   7.614   6.691   2.005 -0.1067 -0.1251  0.1335
 1821W        W 5872   8.758   1.239   3.677 -0.3009  0.1633  0.2373
 1822W        W 5873   2.105   7.087   2.023 -0.1056 -0.0010 -0.1890
 1823W        W 5874   2.498   0.550   0.282  0.0716  0.2197  0.2862
 1824W        W 5875   1.812   8.788  13.566  0.1175 -0.1395 -0.1612
 1825W        W 5876   7.286   7.010   0.661 -0.2352 -0.2132  0.0444
 1826W        W 5877   1.477   0.453   1.295  0.1534  0.1090  0.0239
 1827W        W 5878   9.548   4.045   9.162  0.5016 -0.1001  0.2959
 1828W        W 5879   8.132   5.675  10.596  0.2888 -0.1847  0.4337
 1829W        W 5880   2.606   2.029   1.116  0.0238  0.0585 -0.2323
 1830W        W 5881   0.351   6.168  12.435  0.1749 -0.3855  0.2700
 1831W        W 5882   2.162   4.898   2.475 -0.0151  0.0805  0.2169
 1832W        W 5883   8.515   6.202   1.029  0.3125  0.2147 -0.2125
 1833W        W 5884   2.817   9.842   1.425  0.0319  0.0360  0.1625
 1834W        W 5885   4.180   4.972  11.256  0.0995  0.1873  0.1115
 1835W        W 5886   9.671   5.546   9.956 -0.0820 -0.1059  0.1194
 1836W        W 5887   2.171   5.624  11.959 -0.1073 -0.2968 -0.0746
 1837W        W 5888   2.058   1.886  13.153  0.0155  0.0061  0.0723
 1838W        W 5889   0.292   3.546  12.394  0.1293  0.0939 -0.2768
 1839W        W 5890   7.498   3.702   2.201 -0.1277  0.1951  0.1832
 1840W        W 5891   5.866   7.656  13.755 -0.1080 -0.0002  0.0624
 1841W        W 5892   9.456   4.698   2.016 -0.1216  0.0951 -0.1744
 1842W        W 5893   9.787   5.658   0.256 -0.0517  0.1020 -0.1089
 1843W        W 5894   5.985   2.504   1.821  0.1789  0.0546 -0.0891
 1844W        W 5895   5.616   0.954  10.901  0.1603 -0.0574 -0.3049
 1845W        W 5896   5.575   9.677  11.990  0.0573  0.0170  0.5150
 1846W        W 5897   6.587   7.765   0.950  0.3101  0.2096  0.4238
 1847W        W 5898   8.828   2.212   3.028  0.1927 -0.2696  0.2808
 1848W        W 5899   9.620   8.513   1.584  0.1458  0.0999  0.1592
 1849W        W 5900   6.636   9.836  14.013 -0.0189  0.4476  0.0821
 1850W        W 5901   3.349   5.070  10.494  0.0947  0.2105 -0.3274
 1851W        W 5902   0.972   2.187   4.506 -0.0322  0.1154  0.2049
 1852W        W 5903   6.795   8.009   9.670  0.0739 -0.2495  0.1165
 1853W        W 5904   2.045   9.910   3.551 -0.4583 -0.0598 -0.3045
 1854W        W 5905   2.029   4.305   4.292  0.0773  0.2163  0.3405
 1855W        W 5906   6.961   8.912   0.508  0.1245  0.2630  0.1087
 1856W        W 5907   7.798   8.046  13.835 -0.2343  0.0091 -0.1677
 1857W        W 5908   5.855   0.323   1.540  0.5870 -0.0820  0.0116
 1858W        W 5909   7.757   7.133   0.849 -0.0560  0.1665 -0.0138
 1859W        W 5910   1.624   5.102  13.429 -0.1578  0.1210  0.0499
 1860W        W 5911   1.020   1.992   4.984 -0.0392  0.2082  0.0192
 1861W        W 5912   9.161   9.046   3.149 -0.0590 -0.5128 -0.1544
 1862W        W 5913   3.162   7.203   1.361  0.3334 -0.3354 -0.0578
 1863W        W 5914   1.116   6.644   4.680  0.0488  0.1575  0.3112
 1864W        W 5915   2.886   2.148  12.839 -0.0212 -0.1338 -0.0854
 1865W        W 5916   7.816   4.602   1.752 -0.2288 -0.0852  0.0146
 1866W        W 5917   7.915   5.321  14.021 -0.0318 -0.0329 -0.0085
 1867W        W 5918   2.098   6.590   2.024 -0.3027 -0.4680  0.1238
 1868W        W 5919   0.739   9.579   9.451 -0.0261 -0.0555  0.0179
 1869W        W 5920   8.433   9.314   2.575  0.2113  0.2547 -0.1914
 1870W        W 5921   2.376   8.287  10.586 -0.1136  0.1348  0.2558
 1871W        W 5922   7.537   7.928   3.729  0.2707  0.1998  0.1809
 1872W        W 5923   1.553   2.152   1.816 -0.0745  0.2574 -0.0347
 1873W        W 5924   1.143   1.759  13.583 -0.2772  0.1905  0.4244
 1874W        W 5925   9.321   2.088  10.698 -0.1579 -0.1798 -0.1437
 1875W        W 5926   4.372   8.226   0.846  0.1011 -0.1547 -0.3591
 1876W        W 5927   7.511   3.865   3.439  0.0160 -0.1290 -0.1592
 1877W        W 5928   5.303   6.033  11.633  0.1860  0.0659 -0.2318
 1878W        W 5929   3.092   7.578   4.245 -0.1155  0.1580 -0.0153
 1879W        W 5930   9.898   6.791   2.426  0.2134  0.3606 -0.1867
 1880W        W 5931   7.540   3.926   4.337 -0.1769  0.1496  0.1348
 1881W        W 5932   4.482   0.225   2.375 -0.3931  0.1101 -0.1856
 1882W        W 5933   3.680  10.044  10.380 -0.1935  0.3388 -0.3604
 1883W        W 5934   6.065   8.941  10.614 -0.3229  0.2923 -0.0692
 1884W        W 5935   3.238   0.225   4.716 -0.0823  0.0442 -0.1334
 1885W        W 5936   8.047   0.387  10.322 -0.3518 -0.1648 -0.1621
 1886W        W 5937   0.093   0.510   0.064  0.2183 -0.1969  0.0959
 1887W        W 5938   9.155   7.204  11.262 -0.1945 -0.0525  0.2399
 1888W        W 5939   9.778   3.351   1.266  0.1812 -0.4197  0.1076
 1889W        W 5940   5.645   0.310   0.592 -0.0206  0.0285  0.0559
 1890W        W 5941   0.291   0.174   4.685  0.2102 -0.0876 -0.0487
 1891W        W 5942   6.538   1.731   5.304 -0.0738 -0.3625  0.2943
 1892W        W 5943   9.891  10.106   1.672  0.5077  0.0356  0.3149
 1893W        W 5944   7.717   3.371  10.342  0.2437 -0.1506 -0.2016
 1894W        W 5945   2.537   6.825   4.069  0.1017 -0.2967 -0.0029
 1895W        W 5946   1.737   3.065  13.593 -0.0888  0.0504 -0.0361
 1896W        W 5947   6.333   2.850   1.995 -0.1797  0.1050  0.0600
 1897W        W 5948   3.560   8.322   1.245  0.2220 -0.0123 -0.3062
 1898W        W 5949   8.579   2.373   0.738 -0.2072  0.0218  0.0002
 1899W        W 5950   3.576   6.530   1.530  0.2345 -0.3603  0.0578
 1900W        W 5951   1.249   9.107   2.754 -0.0387 -0.0195 -0.2274
 1901W        W 5952   9.718   8.814   3.981 -0.1500 -0.0752  0.0132
 1902W        W 5953   8.699   9.520   0.361  0.0137 -0.2123 -0.2977
 1903W        W 5954   4.993   7.836   3.760  0.0904  0.1360  0.1263
 1904W        W 5955   7.006   0.217   0.429  0.0309  0.1186  0.0178
 1905W        W 5956   6.902   7.921   3.194 -0.0052  0.0172  0.1995
 1906W        W 5957   1.166   3.461   2.236 -0.1636 -0.1857  0.3586
 1907W        W 5958   5.778   7.122   9.847  0.1091 -0.2116  0.1990
 1908W        W 5959   8.335   7.056   2.383 -0.1635  0.4623  0.0387
 1909W        W 5960   7.550   6.151  12.390  0.1630  0.0043 -0.1718
 1910W        W 5961   0.623   0.959   3.856  0.2717 -0.0284 -0.2030
 1911W        W 5962   7.886   3.992  11.448 -0.0471  0.2329 -0.2080
 1912W        W 5963   5.248   4.570   3.651 -0.4059 -0.0425 -0.1189
 1913W        W 5964   1.947   0.394   3.964  0.0285 -0.2702  0.0632
 1914W        W 5965   2.095   3.187  12.876  0.2236 -0.0743 -0.1362
 1915W        W 5966   3.880   4.866   9.657 -0.1012 -0.0722 -0.0456
 1916W        W 5967   7.766   6.788  11.620  0.2933  0.0362 -0.2774
 1917W        W 5968   3.231   6.242   1.158  0.2605  0.1618 -0.3552
 1918W        W 5969   3.214   7.669   3.195 -0.0660  0.1288  0.0423
 1919W        W 5970   5.262   1.314  10.540 -0.0451 -0.3061 -0.0637
 1920W        W 5971   1.247   8.827   1.871 -0.2732  0.2849 -0.1580
 1921W        W 5972   7.285   6.009  13.749 -0.1873  0.1092  0.1429
 1922W        W 5973  10.159   3.079   0.391 -0.1478  0.0275  0.2803
 1923W        W 5974   2.915   2.321   1.485  0.0375 -0.0820 -0.1611
 1924W        W 5975   0.977   8.328   4.510  0.0666  0.3519 -0.2177
 1925W        W 5976   2.843   3.760  10.871  0.1592 -0.1714 -0.4543
 1926W        W 5977   0.102   0.008  12.793  0.0579 -0.4345  0.2055
 1927W        W 5978   5.096   6.632  10.981  0.1389 -0.0288 -0.0244
 1928W        W 5979   2.660   6.647   0.132 -0.0608 -0.2128 -0.3275
 1929W        W 5980   3.369   9.068   4.773 -0.3750 -0.3980  0.0776
 1930W        W 5981   4.929   6.609   0.293  0.1815 -0.0212  0.0189
 1931W        W 5982   1.716   3.819   1.785 -0.0135  0.2078  0.2036
 1932W        W 5983   1.974   0.256   3.418 -0.2120  0.1792 -0.1853
 1933W        W 5984   0.022  10.127  10.018 -0.3650 -0.1557  0.0596
 1934W        W 5985   2.251   8.450  10.093  0.2018 -0.1649 -0.2361
 1935W        W 5986   2.651   1.578   3.979  0.1644  0.0509 -0.2372
 1936W        W 5987   4.086   7.197  11.691  0.0699 -0.0353 -0.1538
 1937W        W 5988   6.911   2.760  11.549 -0.3284 -0.0573 -0.0926
 1938W        W 5989   4.961   1.421  11.490  0.1568 -0.0911  0.0713
 1939W        W 5990   8.044   4.878   0.280  0.1277  0.2038  0.3433
 1940W        W 5991   5.228   5.663   1.760 -0.0306 -0.0455  0.0454
 1941W        W 5992   7.742   4.071  12.637 -0.1533  0.0873 -0.1504
 1942W        W 5993   4.277   2.509  13.359  0.1054  0.0201 -0.0384
 1943W        W 5994   0.980   5.152  11.721  0.2221  0.0294  0.3697
 1944W        W 5995   4.894   1.851  13.080  0.0313  0.2452 -0.0381
 1945W        W 5996   2.786   1.184   9.847  0.1101  0.0759 -0.1305
 1946W        W 5997   0.073   4.490   1.720 -0.1458  0.2099  0.1538
 1947W        W 5998   8.116   7.249   9.948 -0.2406  0.1513  0.1651
 1948W        W 5999   1.870   3.190   1.090 -0.1266  0.2247 -0.1810
 1949W        W 6000   4.711   3.342  11.930  0.2867 -0.1003  0.0910
 1950W        W 6001  10.058   7.854  10.513  0.0774 -0.1259 -0.3737
 1951W        W 6002   7.196   5.714   1.724  0.2693  0.0260 -0.0717
 1952W        W 6003   5.061   0.335   3.903 -0.1965 -0.0164 -0.0862
 1953W        W 6004   3.162   0.447   1.259  0.0382 -0.1158  0.2871
 1954W        W 6005   5.358   8.758  10.150  0.0890  0.3716 -0.1224
 1955W        W 6006   1.889   7.358  13.957  0.1857 -0.0160 -0.0730
 1956W        W 6007   8.640   4.655   4.456  0.0987  0.1507  0.1607
 1957W        W 6008   6.231   1.011   0.440 -0.0911  0.2277 -0.0299
 1958W        W 6009   9.209   9.931   0.536  0.1706  0.1827 -0.1027
 1959W        W 6010   2.868   8.608  11.421  0.1683  0.1230  0.0601
 1960W        W 6011   1.033   7.427  13.677 -0.1375  0.0626 -0.3213
 1961W        W 6012   8.950   9.854   1.474  0.1744 -0.1357  0.1272
 1962W        W 6013   6.286   1.859   1.154 -0.0621 -0.0659 -0.0540
 1963W        W 6014   1.936   9.754   3.077  0.2255 -0.0447 -0.0652
 1964W        W 6015   0.796   8.797  13.242  0.1722 -0.0414  0.2125
 1965W        W 6016   6.711   9.395   9.311 -0.0510  0.0345  0.2008
 1966W        W 6017   3.792   0.317   4.266 -0.2524  0.1104 -0.3951
 1967W        W 6018   6.821   0.526   0.916 -0.2540  0.4087  0.1899
 1968W        W 6019   5.350   0.051   1.208  0.2160  0.0086  0.0567
 1969W        W 6020   0.932   2.214   1.900 -0.4545 -0.1144  0.0474
 1970W        W 6021   1.906   1.961  11.838 -0.0673  0.1979 -0.0327
 1971W        W 6022   2.535   3.845   0.640  0.1063 -0.1076  0.1922
 1972W        W 6023   0.548   2.464  12.149  0.0670 -0.0135  0.2172
 1973W        W 6024   4.930   9.148  11.778 -0.2163 -0.2303 -0.1165
 1974W        W 6025   2.194   0.567  13.477  0.2583 -0.0286  0.0735
 1975W        W 6026   6.239   8.384   4.526 -0.1998 -0.1736 -0.2082
 1976W        W 6027   6.108  10.009   4.340  0.1166  0.0468 -0.4187
 1977W        W 6028  10.056   9.138  10.663 -0.1926 -0.2041 -0.2264
 1978W        W 6029   8.275   6.673  13.336 -0.0282  0.2658  0.2588
 1979W        W 6030   9.101   2.312  13.566 -0.1400  0.0106 -0.0616
 1980W        W 6031   4.508  10.021   0.972 -0.0833 -0.0867  0.1308
 1981W        W 6032   9.443   5.234   0.857  0.0148 -0.0010 -0.0203
 1982W        W 6033   3.816  10.094  12.934 -0.0301 -0.4004  0.2920
 1983W        W 6034   3.355   8.021   0.816 -0.0346 -0.4064  0.0397
 1984W        W 6035   0.586   7.918   0.648 -0.1268 -0.1737  0.1570
 1985W        W 6036   5.544   3.019  10.000  0.1724  0.0134 -0.1618
 1986W        W 6037   1.036   8.410  11.656 -0.3466  0.4792  0.3645
 1987W        W 6038   2.700   8.160  10.162  0.2131 -0.1827 -0.1070
 1988W        W 6039   0.141   2.753  10.281  0.0035  0.5946  0.1126
 1989W        W 6040   2.664   9.895   0.580  0.2052 -0.0413  0.0300
 1990W        W 6041   9.389   7.626   0.020 -0.5545 -0.0889 -0.0203
 1991W        W 6042  10.145   5.452   0.611 -0.0896  0.0881 -0.1051
 1992W        W 6043   8.990   9.569  11.531  0.3268  0.0724 -0.0016
 1993W        W 6044   9.679   3.368   1.750 -0.0843 -0.0180 -0.1792
 1994W        W 6045   3.642   3.649  11.187  0.0894  0.0154 -0.1222
 1995W        W 6046   8.097   6.492   1.663  0.0453  0.0021 -0.1890
 1996W        W 6047   3.787   5.999  14.013  0.0868  0.0483  0.3419
 1997W        W 6048   2.195   1.879   0.884  0.0111 -0.0232  0.6120
 1998W        W 6049   5.528   5.845  10.755  0.1198 -0.0082  0.0091
 1999W        W 6050   7.198   8.107  13.022 -0.2515 -0.3015 -0.1879
 2000W        W 6051   4.810   6.160  11.960 -0.1071 -0.0761  0.3517
 2001W        W 6052   4.031   0.827   0.365  0.1394  0.1495  0.2523
 2002W        W 6053   0.353   5.592   2.347 -0.2873 -0.0188  0.2808
 2003W        W 6054   8.942   9.067   6.107  0.2233 -0.2344  0.1566
 2004W        W 6055   5.687   1.894   5.547 -0.1084 -0.3677 -0.0555
 2005W        W 6056   5.574   4.937  11.077 -0.0968 -0.1911  0.2232
 2006W        W 6057   0.458   2.636  10.747 -0.0016  0.2206 -0.0658
 2007W        W 6058   8.255   2.347   0.084 -0.0524 -0.1904  0.4779
 2008W        W 6059   8.160   6.920  12.925  0.1640 -0.4550 -0.1550
 2009W        W 6060   5.393   4.879   0.950 -0.0998 -0.2687  0.0462
 2010W        W 6061   9.068   8.638  10.100 -0.0322  0.2167 -0.1068
 2011W        W 6062   2.668   3.976   3.388  0.0433  0.1010  0.0458
 2012W        W 6063   5.863   0.173  10.167  0.1619  0.1332 -0.0115
 2013W        W 6064   8.428   1.474  11.387  0.0992 -0.0688  0.1050
 2014W        W 6065   6.108   8.217   1.993 -0.0655 -0.0563  0.1840
 2015W        W 6066   4.373   7.009   4.166 -0.0331  0.0002 -0.0680
 2016W        W 6067   7.376   4.212  10.142  0.1031 -0.1711 -0.1187
 2017W        W 6068   0.518   8.526  12.888 -0.0701 -0.2508  0.3939
 2018W        W 6069   0.385   9.829   9.692  0.0315  0.0294  0.0995
 2019W        W 6070   6.560   8.688  13.148  0.1132  0.0632  0.1614
 2020W        W 6071   7.799   9.344  13.319 -0.0279 -0.3086 -0.1010
 2021W        W 6072   9.566  10.078   4.631 -0.1078 -0.1952  0.1614
 2022W        W 6073   2.307   2.901   9.147  0.3686 -0.0046  0.0525
 2023W        W 6074   9.651   2.840  12.811  0.2244 -0.0613  0.0166
 2024W        W 6075   3.553   1.939  13.455 -0.2144 -0.0955 -0.0778
 2025W        W 6076   5.616   9.091   0.102 -0.0750 -0.0136  0.0694
 2026W        W 6077   1.472   2.199   0.313  0.0633 -0.0240 -0.0277
 2027W        W 6078   3.492   1.842  10.686  0.1664 -0.0094 -0.2895
 2028W        W 6079   1.838   1.900   0.144  0.0243 -0.0401  0.0485
 2029W        W 6080   8.597   9.491   1.293 -0.0168  0.1361  0.2245
 2030W        W 6081   0.163   4.483   4.922 -0.0600 -0.0383 -0.3318
 2031W        W 6082   6.726   2.424   4.701 -0.0898 -0.1636 -0.1301
 2032W        W 6083   7.182   8.916   1.262 -0.2947  0.0836  0.0285
 2033W        W 6084   7.153   4.469   1.243  0.0449 -0.0117  0.0180
 2034W        W 6085   6.680   5.204  11.075  0.2121 -0.0117  0.2031
 2035W        W 6086   9.888   1.722   0.163 -0.1151 -0.2725  0.0335
 2036W        W 6087   9.438   8.368  10.858 -0.1436 -0.2936  0.0727
 2037W        W 6088   0.970   1.635  11.457  0.1420 -0.1798  0.1111
 2038W        W 6089   0.503   7.251   9.710  0.2568  0.0408 -0.3468
 2039W        W 6090   5.235  10.049   0.396  0.0322  0.3378  0.3828
 2040W        W 6091   1.226   8.738   9.315 -0.1004  0.0039 -0.1025
 2041W        W 6092   6.886   4.974  10.627  0.3671  0.0397 -0.0809
 2042W        W 6093   3.367   7.528   3.694 -0.2167 -0.0683 -0.0919
 2043W        W 6094   0.552   1.401  11.547  0.0052 -0.3215 -0.2537
 2044W        W 6095   9.004   0.046   3.394 -0.3052 -0.0919 -0.2216
 2045W        W 6096   4.570   1.157   2.605 -0.2738  0.1552 -0.1021
 2046W        W 6097   0.595   8.839   3.280 -0.0759 -0.2920 -0.4367
 2047W        W 6098   3.878   3.705   2.607 -0.1280 -0.1117 -0.1263
 2048W        W 6099   2.159   1.242  13.044  0.0382  0.2101 -0.0436
 2049W        W 6100   0.451   9.504   4.118  0.1162  0.3148 -0.0720
 2050W        W 6101   9.760   9.902   2.374  0.0494 -0.3853 -0.0388
 2051W        W 6102   2.765   5.042  10.229 -0.1525  0.0765 -0.0017
 2052W        W 6103   2.553   2.589   1.754 -0.0224  0.0824  0.1653
 2053W        W 6104   3.026   1.582  12.861 -0.3371  0.3579  0.1291
 2054W        W 6105   4.152  10.008   2.255 -0.0504 -0.2512  0.0259
 2055W        W 6106   6.981   3.111   1.255  0.1397  0.2217  0.0962
 2056W        W 6107   2.269   7.867  13.295 -0.0867  0.1020  0.1154
 2057W        W 6108   5.803   7.751   3.687 -0.0476 -0.2068  0.2916
 2058W        W 6109   1.225   4.805  13.293 -0.4492  0.1364 -0.2777
 2059W        W 6110   4.884   5.246  11.020  0.0654  0.0188  0.1688
 2060W        W 6111   7.778   9.992  11.033  0.1250 -0.0383 -0.3020
 2061W        W 6112   4.015  10.010   3.630 -0.3506 -0.3294 -0.1045
 2062W        W 6113   0.423   1.403  13.952  0.0788  0.0573  0.0124
 2063W        W 6114   4.764   3.849  12.015 -0.2745 -0.2125 -0.1550
 2064W        W 6115   0.216   1.498  13.274 -0.0585  0.0029 -0.2352
 2065W        W 6116   5.444   3.895   0.696 -0.3454 -0.1667  0.0086
 2066W        W 6117   0.839   9.078   2.458 -0.0733  0.0770 -0.1372
 2067W        W 6118   7.280   2.156  13.691  0.4243  0.0172 -0.1514
 2068W        W 6119   7.813   8.292   9.312  0.0365  0.2520  0.0533
 2069W        W 6120   7.139   9.287   2.666 -0.1670 -0.2220  0.3595
 2070W        W 6121   1.957   3.132   0.579 -0.0402 -0.2804 -0.2085
 2071W        W 6122   3.283   9.981  13.767 -0.1545  0.1754 -0.1964
 2072W        W 6123   0.540   9.979   4.037 -0.0255  0.1346  0.0560
 2073W        W 6124   4.599   5.949  12.952  0.1516 -0.1005  0.2884
 2074W        W 6125   9.875   3.858   1.954 -0.0782 -0.0463  0.0398
 2075W        W 6126   3.039   8.049   4.077 -0.0826 -0.0663 -0.0321
 2076W        W 6127   9.684   5.529   2.685 -0.1585  0.1535  0.0153
 2077W        W 6128   3.970   2.369  12.464  0.0435 -0.1490 -0.0133
 2078W        W 6129   5.149   9.763   2.832 -0.1956  0.1793 -0.3229
 2079W        W 6130   6.070   9.775   1.784  0.1973 -0.1741 -0.1784
 2080W        W 6131   7.987   7.384  10.539  0.0492  0.2026  0.0045
 2081W        W 6132   7.884   0.436  10.826 -0.1241 -0.2705  0.0948
 2082W        W 6133   1.603   6.780   1.837 -0.0659  0.0622 -0.4828
 2083W        W 6134   0.712   6.370  12.063  0.1539 -0.2127 -0.0818
 2084W        W 6135   4.871   7.040   0.843 -0.0393 -0.2452 -0.2320
 2085W        W 6136   1.362   6.276   9.992 -0.0745  0.2435 -0.2097
 2086W        W 6137   3.525   9.104  13.813  0.1499  0.0840 -0.2089
 2087W        W 6138   5.737   4.762  12.650  0.0970 -0.0140  0.0421
 2088W        W 6139   0.973   8.570  10.698 -0.4685 -0.1420  0.3536
 2089W        W 6140   8.058   5.503   1.951  0.0346 -0.2363  0.1140
 2090W        W 6141   1.970   7.231  12.237 -0.0735 -0.1073 -0.4317
 2091W        W 6142   0.492   3.647  13.024 -0.1852  0.1655  0.1843
 2092W        W 6143   0.375   2.688   1.072 -0.0943  0.0161  0.3843
 2093W        W 6144   6.528   8.314  13.545 -0.1728 -0.2985 -0.0021
 2094W        W 6145   8.468   2.204   3.479 -0.0189  0.0767 -0.0864
 2095W        W 6146   9.701   1.026   3.785  0.3464  0.1120  0.3638
 2096W        W 6147   1.679   8.340   3.229  0.3207  0.1569 -0.1738
 2097W        W 6148   7.752  10.122  13.898 -0.2580  0.3425  0.0515
 2098W        W 6149   1.565   6.155   8.985  0.1042 -0.0232  0.1590
 2099W        W 6150   2.220   0.209  10.408  0.0540  0.2465 -0.0887
 2100W        W 6151   5.075   9.786  12.827 -0.0217 -0.0422  0.0551
 2101W        W 6152   9.147   2.816   0.851  0.1416 -0.1218 -0.0390
 2102W        W 6153   8.730   7.680  13.269  0.0259  0.0082 -0.1292
 2103W        W 6154   9.757   0.112  12.863 -0.1140 -0.4141  0.0483
 2104W        W 6155   1.903  10.103   0.109 -0.0819 -0.1337 -0.0436
 2105W        W 6156   8.966   2.985  10.724  0.1268 -0.2094  0.3104
 2106W        W 6157   7.918   9.942   5.516  0.0424 -0.1101  0.2650
 2107W        W 6158   2.255   8.004   0.400 -0.1111 -0.2515  0.1016
 2108W        W 6159   9.149   8.304   0.319  0.0010  0.0368 -0.0817
 2109W        W 6160   8.097   3.812   1.075  0.2490 -0.0319 -0.1597
 2110W        W 6161   5.202   2.379   2.524  0.2018 -0.2363  0.1996
 2111W        W 6162   4.732   8.104  11.712 -0.3194  0.0967  0.0420
 2112W        W 6163   7.124   3.165   2.312 -0.3683 -0.0874 -0.0158
 2113W        W 6164  10.049   2.883   1.857  0.0186 -0.4504 -0.2795
 2114W        W 6165   0.266   9.013   4.105 -0.2200  0.0671  0.0008
 2115W        W 6166   0.775   7.887  12.368  0.2544  0.3054  0.3760
 2116W        W 6167   5.150   8.332  13.514  0.0943 -0.0040 -0.1814
 2117W        W 6168   9.548   8.274  14.030 -0.4440 -0.0778 -0.0507
 2118W        W 6169   8.798   9.268   0.826  0.5516  0.0657 -0.1923
 2119W        W 6170   7.281   7.539   3.948 -0.1784  0.2492 -0.1594
 2120W        W 6171   9.681   7.404   4.146 -0.3361 -0.0632  0.1050
 2121W        W 6172   5.326   1.487   1.104 -0.2037  0.0943  0.0464
 2122W        W 6173   0.607   9.198   2.923  0.2297  0.0079  0.1256
 2123W        W 6174   5.327   0.967  13.173 -0.1059 -0.1477  0.0845
 2124W        W 6175   2.210   4.319  10.784 -0.0266  0.1622 -0.2632
 2125W        W 6176   0.719   1.407   3.983 -0.0118  0.1629 -0.2144
 2126W        W 6177   1.499   2.529   9.420 -0.2077 -0.0404 -0.1200
 2127W        W 6178   9.760   7.155  10.387  0.1062 -0.4290  0.0196
 2128W        W 6179   4.049   1.029   4.210  0.0527  0.0966 -0.1116
 2129W        W 6180   6.905   7.294   2.054 -0.1169 -0.0815  0.0531
 2130W        W 6181   0.861   8.225   0.350 -0.1135 -0.2513  0.0031
 2131W        W 6182   9.727   5.230   0.472  0.1286 -0.1542 -0.0414
 2132W        W 6183   1.783   2.877   3.549  0.1623 -0.0743  0.1276
 2133W        W 6184   4.649   7.334  13.124  0.1215  0.1595  0.1159
 2134W        W 6185   9.032   5.619   1.844  0.1685  0.4448 -0.1906
 2135W        W 6186   0.304   7.383   1.494  0.1099 -0.1266 -0.1585
 2136W        W 6187   2.121   2.469  10.112  0.1000  0.0735 -0.2713
 2137W        W 6188   5.841   7.551   2.227 -0.0649  0.1203  0.1396
 2138W        W 6189   9.236   3.469   3.467  0.0248  0.0829  0.0246
 2139W        W 6190   3.156   9.086  11.507 -0.0696  0.0750 -0.2455
 2140W        W 6191   4.472   8.960  11.411  0.0841 -0.3512 -0.1448
 2141W        W 6192   8.089   6.149  10.399  0.1793 -0.1044  0.1403
 2142W        W 6193   5.705   7.143  13.164 -0.1063 -0.0365  0.2561
 2143W        W 6194   1.465   8.840  13.223  0.2075  0.0436 -0.1498
 2144W        W 6195   7.904   4.435  10.791  0.1724  0.1045 -0.0039
 2145W        W 6196   7.542   4.355  11.137 -0.2119  0.1259 -0.0493
 2146W        W 6197   3.354   1.565   4.565 -0.1902  0.1370  0.0733
 2147W        W 6198   9.811   5.276   1.628 -0.2272  0.2330  0.0582
 2148W        W 6199   2.369   8.665  13.458 -0.1080  0.1326 -0.3744
 2149W        W 6200   0.594   7.390  12.342 -0.0058  0.1548  0.0057
 2150W        W 6201   2.817   1.627   2.732 -0.0842 -0.3459 -0.0102
 2151W        W 6202   0.834   1.391   2.904 -0.0280 -0.1488  0.1664
 2152W        W 6203   1.363   4.014  13.552 -0.0140  0.1387 -0.0944
 2153W        W 6204   9.346   1.749   3.743  0.0551  0.4321  0.2803
 2154W        W 6205   9.482   7.518  12.141 -0.1012 -0.3416  0.0454
 2155W        W 6206   2.282   9.927  13.322 -0.1120 -0.0851 -0.0258
 2156W        W 6207   5.974   8.085   0.199  0.0214  0.1437  0.1072
 2157W        W 6208   8.452   6.509  11.048 -0.0489  0.1759 -0.0663
 2158W        W 6209   3.210   5.171  10.012  0.0186 -0.0244  0.0734
 2159W        W 6210   6.008   9.216   3.664  0.0059 -0.2335  0.1131
 2160W        W 6211   8.917  10.044  12.471  0.4761 -0.1815 -0.1905
 2161W        W 6212   8.750   3.642  11.242 -0.3638  0.0216  0.0922
 2162W        W 6213   0.782   3.253  11.473  0.1359  0.2425  0.0234
 2163W        W 6214   2.710   8.521   1.527 -0.3350 -0.2858 -0.0352
 2164W        W 6215   4.522   2.461  11.934  0.3560 -0.2615 -0.0582
 2165W        W 6216   9.420   5.027  10.312  0.0956 -0.1294 -0.0086
 2166W        W 6217   2.552   5.608   3.701  0.0531  0.1216 -0.2830
 2167W        W 6218   7.724   9.844   4.488  0.2158  0.2242 -0.1720
 2168W        W 6219   7.312   1.910   0.110 -0.0834  0.2177 -0.0666
 2169W        W 6220   6.569   2.194  10.090  0.3177  0.3984 -0.0290
 2170W        W 6221  10.059   0.319   5.632 -0.1691 -0.0134  0.4250
 2171W        W 6222   6.927   0.602  10.920 -0.1027  0.0856  0.1770
 2172W        W 6223   1.373   2.850   3.870 -0.1418  0.2248  0.1491
 2173W        W 6224   6.103   1.163  10.724 -0.2773  0.0078 -0.2345
 2174W        W 6225   2.181   6.103   0.681  0.0411  0.2869 -0.0618
 2175W        W 6226   3.031   3.475   4.608  0.0086  0.2462  0.1005
 2176W        W 6227   9.789   3.921   0.592 -0.1669  0.0456  0.1699
 2177W        W 6228   6.282   2.710  12.121  0.1649 -0.1916 -0.1835
 2178W        W 6229   1.708   9.199  13.869  0.1332  0.4918 -0.0146
 2179W        W 6230   4.238   5.679   0.408  0.2801  0.1786  0.1082
 2180W        W 6231   9.142   3.912   3.633 -0.1694 -0.3088 -0.1548
 2181W        W 6232   9.470   3.738   0.957  0.2642  0.1814  0.3463
 2182W        W 6233   7.487   6.956   4.301  0.1232 -0.0126  0.0002
 2183W        W 6234   2.258   2.661   3.605 -0.0405  0.0761  0.2619
 2184W        W 6235   4.813   6.894  11.345 -0.1045  0.0143  0.0437
 2185W        W 6236   8.255   9.440  13.582  0.0668  0.3913  0.0255
 2186W        W 6237   5.366   8.976   2.485 -0.0669  0.2276 -0.0666
 2187W        W 6238   3.199   2.004  11.713 -0.2357  0.0321 -0.0916
 2188W        W 6239   2.053   1.674   3.449  0.2352 -0.0342 -0.1473
 2189W        W 6240   1.210   5.852   2.109 -0.0573  0.2168 -0.1936
 2190W        W 6241   2.818   8.009   5.364 -0.0917  0.0416 -0.3174
 2191W        W 6242   3.809   0.595   3.077 -0.0847  0.0957 -0.0624
 2192W        W 6243   5.627   5.754  12.284 -0.0094 -0.1420  0.0543
 2193W        W 6244   5.730   1.797  11.791  0.2255 -0.1817  0.2479
 2194W        W 6245   4.267   9.792   1.749 -0.1328 -0.0091  0.0588
 2195W        W 6246   5.465   8.254   0.426 -0.0081  0.0862 -0.0930
 2196W        W 6247   8.135   8.152   2.498 -0.2565  0.0962  0.0555
 2197W        W 6248   7.549   9.778   0.726  0.1235 -0.3555  0.2068
 2198W        W 6249   1.446   7.842   2.854  0.0100  0.2254 -0.0048
 2199W        W 6250   6.643   4.112   0.255 -0.1300  0.0631  0.2976
 2200W        W 6251   4.154   1.794  11.785 -0.5915  0.1441  0.1184
 2201W        W 6252   7.305   2.353   9.629  0.0310 -0.0590  0.4383
 2202W        W 6253   2.002   6.306   3.676  0.0884 -0.1705 -0.0812
 2203W        W 6254   9.100   5.061   9.843  0.0161  0.1576 -0.0581
 2204W        W 6255   0.349   8.821   9.359  0.1747 -0.3192 -0.1488
 2205W        W 6256   0.542   8.900  11.433  0.3759  0.1385  0.1639
 2206W        W 6257   7.707   9.466  11.572  0.5920 -0.0767 -0.0639
 2207W        W 6258   6.846   9.635   4.797  0.0938  0.0329 -0.0611
 2208W        W 6259   8.365   8.365  10.673  0.1174 -0.1225 -0.0985
 2209W        W 6260   5.129   2.865  12.933  0.3106  0.2114  0.1841
 2210W        W 6261   8.965   4.868   1.970 -0.0243  0.2233 -0.4960
 2211W        W 6262   2.717   0.830   4.322 -0.1756 -0.1347 -0.0111
 2212W        W 6263   2.435   9.548   1.075 -0.0637  0.0590  0.2035
 2213W        W 6264   6.089   8.253  11.862  0.1469 -0.2213 -0.0505
 2214W        W 6265   8.276   4.138   1.893  0.0517 -0.0709  0.0081
 2215W        W 6266   1.424   1.454   0.898 -0.1861  0.1785  0.1601
 2216W        W 6267   4.273   3.524  13.861 -0.0780 -0.2561  0.0366
 2217W        W 6268   0.079   0.425   3.107  0.2647 -0.0354 -0.3249
 2218W        W 6269   2.905   2.740   5.060  0.0278 -0.4325 -0.1268
 2219W        W 6270   5.305   4.329   0.443  0.1082 -0.0175  0.1533
 2220W        W 6271   3.684   7.284   2.480  0.1570  0.1850 -0.3251
 2221W        W 6272   1.610   4.670  10.463 -0.0267 -0.0066  0.3423
 2222W        W 6273   4.965   6.857   3.043  0.1072 -0.3522 -0.0131
 2223W        W 6274   9.003   4.166   9.178  0.0693  0.1356  0.4072
 2224W        W 6275   9.569   1.007   1.797  0.0084 -0.3045 -0.0716
 2225W        W 6276   8.130   4.520   2.213 -0.0708  0.0233  0.1306
 2226W        W 6277   7.473   4.543  12.675  0.1225  0.2045 -0.0261
 2227W        W 6278   0.730   0.890   0.254  0.1738  0.0549  0.1253
 2228W        W 6279   5.132   6.477   1.745 -0.1181 -0.0537  0.2280
 2229W        W 6280   7.137   0.672   0.083 -0.1132  0.2456  0.0624
 2230W        W 6281   7.329   3.415   9.926 -0.1809  0.1871 -0.2301
 2231W        W 6282   8.503   3.994   3.168  0.1495 -0.2155 -0.2217
 2232W        W 6283   8.366   9.785   9.909  0.1391  0.1060 -0.0420
 2233W        W 6284   9.888   9.142  11.756 -0.1163 -0.0975  0.0598
 2234W        W 6285   8.972   3.214   0.486 -0.4114  0.1349 -0.0617
 2235W        W 6286   8.363   7.668   0.968 -0.1217 -0.0392 -0.0272
 2236W        W 6287   0.332   7.872   4.344  0.2565  0.1664 -0.0624
 2237W        W 6288   2.159   8.917   9.968 -0.3802  0.0577 -0.0968
 2238W        W 6289   3.756   4.713  11.869  0.0757 -0.3161  0.4256
 2239W        W 6290   5.892   8.825   2.560 -0.2745 -0.1786  0.1285
 2240W        W 6291   7.710   0.405   2.035 -0.1813  0.0697  0.2969
 2241W        W 6292   3.168   2.536  13.085  0.1086  0.0968 -0.4169
 2242W        W 6293   5.735   7.576  11.424 -0.1269  0.0882 -0.1474
 2243W        W 6294   3.300   9.741   1.397 -0.2060 -0.0606 -0.0180
 2244W        W 6295   6.049   8.994   0.385 -0.0432 -0.3106 -0.1970
 2245W        W 6296   5.301   1.020   0.807  0.1369 -0.0502 -0.1066
 2246W        W 6297   2.475   6.359   3.182 -0.1767  0.1200  0.0873
 2247W        W 6298   1.894   8.697   4.598  0.2206  0.0275  0.1836
 2248W        W 6299   1.240   9.189   9.548 -0.5099 -0.1278  0.3812
 2249W        W 6300   0.810   9.386   5.423  0.1049 -0.1470  0.0327
 2250W        W 6301   2.294   9.897  10.228  0.2388  0.3945 -0.0628
 2251W        W 6302   6.062   8.933   3.051 -0.1656  0.4056 -0.1373
 2252W        W 6303   8.433   3.128   3.358  0.1398 -0.1648 -0.1369
 2253W        W 6304   6.540   3.047  10.815 -0.1173 -0.2048  0.1485
 2254W        W 6305   3.635   9.670   9.904  0.1072  0.0799  0.4236
 2255W        W 6306   4.902   7.035  13.967 -0.2528 -0.1248  0.0755
 2256W        W 6307   8.116   0.134   3.195  0.1127 -0.1169  0.1348
 2257W        W 6308   2.364   2.063   5.363  0.0411 -0.0312  0.3204
 2258W        W 6309   3.091   2.511   2.312 -0.0213 -0.1467  0.0793
 2259W        W 6310   9.338   2.908  11.832  0.1468 -0.1126  0.1052
 2260W        W 6311   9.369   2.713   9.780  0.1137 -0.3415  0.1439
 2261W        W 6312   2.348   0.837   4.664  0.2696 -0.1688  0.1638
 2262W        W 6313   4.027   5.220   2.252 -0.1123 -0.3241  0.2824
 2263W        W 6314   8.702   7.093   0.935 -0.1600 -0.0287 -0.2928
 2264W        W 6315   5.117   6.280  12.866 -0.0025  0.1007 -0.3646
 2265W        W 6316   4.860   1.222   4.511  0.0504  0.0019  0.0511
 2266W        W 6317   8.226   3.901  12.741  0.1267  0.4034 -0.0239
 2267W        W 6318   4.329   8.923  13.986  0.0092  0.2239  0.2958
 2268W        W 6319   4.810   8.396   0.938 -0.3616 -0.0115  0.0486
 2269W        W 6320  10.125   0.684   2.590 -0.0728 -0.2495  0.0481
 2270W        W 6321   2.395   6.106   3.883  0.2345  0.0168  0.5890
 2271W        W 6322   7.428   2.150  12.152  0.0580  0.2011  0.0820
 2272W        W 6323   1.221   2.532   3.394 -0.2293 -0.7147  0.1207
 2273W        W 6324   7.951   2.646  10.100 -0.2242 -0.0587 -0.3700
 2274W        W 6325   5.099   0.347   4.428 -0.2341 -0.2578  0.2318
 2275W        W 6326   4.387   0.364  10.030  0.0346 -0.3087 -0.3378
 2276W        W 6327   4.134   2.339   3.379  0.0927  0.1589 -0.1536
 2277W        W 6328   0.689   7.183   3.968 -0.1081  0.1574 -0.1838
 2278W        W 6329   5.433   4.611   3.217 -0.2340  0.2217 -0.0555
 2279W        W 6330   0.160   9.393   2.646  0.2275  0.1379  0.0863
 2280W        W 6331   6.035   3.748   1.589 -0.0578 -0.1637  0.1780
 2281W        W 6332  10.066   9.198   0.452 -0.0647 -0.0460  0.1941
 2282W        W 6333   8.430   6.562   2.174 -0.4512 -0.1619 -0.0958
 2283W        W 6334   7.636   2.432   2.204  0.3322 -0.0021 -0.0540
 2284W        W 6335   6.518   7.179   0.145 -0.0785 -0.5480  0.0278
 2285W        W 6336   6.098   7.057   1.055 -0.2255 -0.4605  0.0485
 2286W        W 6337   4.990   9.469   4.872  0.2777  0.2439 -0.3232
 2287W        W 6338   3.544   5.847   0.410  0.0815  0.1003 -0.1977
 2288W        W 6339   6.201   1.669   1.663  0.1077  0.1819  0.0774
 2289W        W 6340   3.275   0.105   4.230  0.1245  0.3608 -0.1432
 2290W        W 6341   4.117   9.364  11.257  0.2294 -0.0991  0.0838
 2291W        W 6342   7.545   7.838   1.429  0.3496  0.0834 -0.1139
 2292W        W 6343   3.946   7.619  11.941 -0.1579  0.2822  0.1867
 2293W        W 6344   2.010   8.884  13.141 -0.0013  0.5408  0.2847
 2294W        W 6345   6.842   7.527  11.256 -0.3048 -0.0456  0.2561
 2295W        W 6346   1.346   3.945  11.725  0.2420 -0.1529  0.0307
 2296W        W 6347   5.950   6.300   3.835 -0.3230  0.1160  0.0308
 2297W        W 6348   6.864   1.215  12.764 -0.0321  0.0316 -0.0904
 2298W        W 6349   6.217   1.626   3.871  0.0620 -0.1081  0.4366
 2299W        W 6350   5.525   6.119   1.598  0.3513 -0.0212  0.2208
 2300W        W 6351   4.685   2.451   1.940 -0.0643 -0.3153  0.2047
 2301W        W 6352   0.892   6.416  12.556  0.1188  0.2918 -0.4089
 2302W        W 6353   6.592   6.290   1.576  0.0025  0.1456  0.0336
 2303W        W 6354   4.089   6.911   9.522 -0.1593 -0.0510  0.0263
 2304W        W 6355   4.076   1.889   1.063  0.1966  0.1317 -0.0322
 2305W        W 6356   5.942   4.071   0.693 -0.2937  0.0018 -0.2959
 2306W        W 6357   7.553   8.391   0.102  0.1755  0.0962  0.3121
 2307W        W 6358   1.092   2.468   9.111 -0.4608 -0.1273  0.1161
 2308W        W 6359   7.194   4.251   3.363 -0.3157  0.0200  0.0850
 2309W        W 6360   7.517   0.313  12.522  0.0452  0.0440  0.3218
 2310W        W 6361   6.094   2.062   3.541  0.1913  0.4668 -0.1511
 2311W        W 6362   5.714   1.594  12.764  0.0600  0.2447 -0.2093
 2312W        W 6363   2.480   6.570  12.834  0.1158 -0.0553  0.2287
 2313W        W 6364   7.292   2.965   9.555 -0.3552 -0.2856 -0.0341
 2314W        W 6365   6.216   3.680   3.922  0.0907 -0.0143 -0.2606
 2315W        W 6366   1.864   4.167  11.121 -0.0939  0.1860  0.1004
 2316W        W 6367   7.590   0.777   0.243 -0.1353 -0.0429  0.2518
 2317W        W 6368   7.376   6.140   1.941 -0.0108 -0.0626 -0.0016
 2318W        W 6369   8.008   6.843   3.621  0.0274  0.0505 -0.1717
 2319W        W 6370   5.988   8.681   3.480  0.0901  0.0157  0.0510
 2320W        W 6371   2.443   0.962  11.221 -0.4038  0.4243  0.0916
 2321W        W 6372   9.580   7.692  10.402 -0.0048 -0.0255 -0.2068
 2322W        W 6373   4.350   9.664   0.585 -0.1972  0.0200  0.0371
 2323W        W 6374   5.194   9.558   0.709  0.1469  0.3181  0.3898
 2324W        W 6375   4.459   7.199   2.999 -0.3507 -0.0449 -0.1035
 2325W        W 6376   2.537   3.106  13.782  0.0473  0.1009 -0.0897
 2326W        W 6377   5.925   1.966   0.459 -0.1513 -0.1735  0.0979
 2327W        W 6378   3.077   2.068   3.792  0.2135 -0.1563 -0.2797
 2328W        W 6379   1.315   7.766   4.651 -0.3364  0.3889 -0.3279
 2329W        W 6380   2.986  10.137   3.532  0.3054  0.0094 -0.0194
 2330W        W 6381   9.334   4.235  13.009 -0.4329  0.1016  0.1305
 2331W        W 6382   8.030   2.704  10.958  0.1336 -0.0446 -0.0470
 2332W        W 6383   3.223   9.096   9.187  0.2080  0.0004  0.0742
 2333W        W 6384   8.492   7.385  10.719 -0.0645 -0.2251  0.0267
 2334W        W 6385   9.645   7.591   5.611  0.3535  0.2583 -0.0117
 2335W        W 6386   7.775   1.388  10.137 -0.2866  0.1415  0.1239
 2336W        W 6387   1.921   0.565  12.426 -0.0194 -0.0841 -0.2332
 2337W        W 6388   1.334   3.407  11.607 -0.2423 -0.0252 -0.0956
 2338W        W 6389   1.748   6.248   0.219  0.0770 -0.0130 -0.0378
 2339W        W 6390   3.180   9.368   2.631  0.1743 -0.0702 -0.2876
 2340W        W 6391   3.883   7.083  13.707  0.2264 -0.3963  0.1402
 2341W        W 6392   7.861   3.421   4.287 -0.2386  0.2222  0.0428
 2342W        W 6393   5.440   0.713   4.347  0.2455 -0.0442 -0.0458
 2343W        W 6394   8.518   4.808   2.216 -0.0551  0.1745 -0.1141
 2344W        W 6395   2.366   7.365  13.186 -0.2328 -0.2082 -0.2725
 2345W        W 6396   4.265   1.924   1.527  0.0641  0.1242 -0.2036
 2346W        W 6397   9.274   3.897  12.041  0.1784 -0.1761  0.1134
 2347W        W 6398   0.679   3.837   3.032 -0.0853 -0.0534 -0.0731
 2348W        W 6399   9.889   5.719  12.860  0.5259 -0.3869  0.0260
 2349W        W 6400   3.711   3.751   0.096  0.0441 -0.0533 -0.1970
 2350W        W 6401   7.728   3.755   1.373 -0.1058  0.0921 -0.4225
 2351W        W 6402   9.977   1.110   4.195 -0.0734 -0.0112  0.1503
 2352W        W 6403   3.254   6.407  10.807 -0.2342  0.1459  0.1881
 2353W        W 6404   8.941   4.821  11.571  0.0444 -0.1687  0.0224
 2354W        W 6405   0.933   7.596  12.707 -0.2500  0.0512  0.1854
 2355W        W 6406   0.593   1.877  10.203  0.2115  0.2299  0.1759
 2356W        W 6407   2.293   9.877  11.162  0.3903  0.2251 -0.0190
 2357W        W 6408   9.869   9.954   0.036  0.2825  0.1630 -0.1750
 2358W        W 6409  10.071   6.988  11.933  0.1482 -0.1024 -0.1447
 2359W        W 6410   5.992   0.691   3.399  0.4058  0.1079  0.2951
 2360W        W 6411   1.588   0.338   2.358 -0.1388  0.1073  0.1238
 2361W        W 6412   3.799   2.382   4.352 -0.0904 -0.3546  0.0683
 2362W        W 6413   7.439   0.859   2.953 -0.0579 -0.1148  0.1770
 2363W        W 6414   8.879   4.756   2.567 -0.1379  0.4386 -0.0370
 2364W        W 6415   2.991   4.147  11.564 -0.1548  0.2826 -0.0928
 2365W        W 6416   0.084   1.990   0.903  0.1210  0.1227  0.2433
 2366W        W 6417   0.933   3.903   3.454  0.0405  0.2110  0.1571
 2367W        W 6418   4.626   2.412   5.296 -0.2462 -0.1247 -0.1263
 2368W        W 6419   1.677  10.156  12.153 -0.1529  0.2250  0.2353
 2369W        W 6420   3.723   8.911   1.807  0.1003 -0.2774 -0.0202
 2370W        W 6421   3.031   3.508  12.343  0.0749  0.0627  0.1837
 2371W        W 6422   2.106   4.175   2.758 -0.4781  0.0159  0.0272
 2372W        W 6423   0.925   1.284  12.389  0.2537  0.1629  0.1261
 2373W        W 6424   4.660   6.466  12.930 -0.3119 -0.1719 -0.3837
 2374W        W 6425   2.257   6.064   0.188 -0.1121 -0.1526  0.1219
 2375W        W 6426   8.367   0.804   2.077  0.1123  0.0191  0.0932
 2376W        W 6427   5.534   1.467  11.459  0.2298 -0.1565 -0.0242
 2377W        W 6428   0.500   0.180  14.012 -0.2403  0.1613  0.2061
 2378W        W 6429   2.742   8.230   0.630  0.1491 -0.1744  0.0261
 2379W        W 6430  10.009   0.524  13.044 -0.0292  0.1660  0.0254
 2380W        W 6431   6.859   3.892  12.461  0.1963 -0.1549 -0.1943
 2381W        W 6432   3.171   0.936   1.390  0.0331 -0.1008  0.2251
 2382W        W 6433   8.735   4.773   1.542  0.0322  0.1321 -0.0588
 2383W        W 6434   7.106   4.072  11.010 -0.0890 -0.0617  0.0729
 2384W        W 6435   4.208   9.095   1.315  0.3086 -0.3116 -0.1169
 2385W        W 6436   2.872   8.564   3.460  0.0082  0.1641 -0.0978
 2386W        W 6437   4.391   4.134   1.353 -0.1356 -0.2928 -0.0330
 2387W        W 6438   0.179   0.437   8.899 -0.2441  0.1357  0.2304
 2388W        W 6439   6.579   9.422   3.879  0.1917 -0.2679  0.1546
 2389W        W 6440   6.881   3.580   1.415 -0.1174  0.1452  0.0543
 2390W        W 6441   6.016   0.627  13.602 -0.1363 -0.3960 -0.1391
 2391W        W 6442   0.760   3.748   2.222 -0.3099  0.1989 -0.0624
 2392W        W 6443   9.624  10.062   9.349 -0.3085  0.1492 -0.0501
 2393W        W 6444   3.498   2.462   1.197 -0.1036  0.3674  0.0191
 2394W        W 6445   1.150   8.177   0.991 -0.0013 -0.0241 -0.3549
 2395W        W 6446   0.885   9.741   3.710  0.0482 -0.1043  0.0026
 2396W        W 6447   5.037   0.960  11.242 -0.0957 -0.1720  0.1124
 2397W        W 6448   4.871   8.784   0.142  0.2541  0.0214 -0.0532
 2398W        W 6449   0.250   5.586  10.520 -0.1229 -0.1248  0.0728
 2399W        W 6450   2.702   4.238  10.856 -0.0833 -0.0562 -0.2032
 2400W        W 6451   1.292   2.345  12.372 -0.0513 -0.0764  0.2375
 2401W        W 6452   0.694   8.199   1.244  0.0693 -0.1639  0.3630
 2402W        W 6453   6.874   7.331   0.722  0.2115  0.0717  0.4187
 2403W        W 6454   7.821   5.141  13.472 -0.0076  0.0344  0.0580
 2404W        W 6455   2.066   1.019   2.595  0.0967 -0.0295 -0.0687
 2405W        W 6456   3.948   5.038  13.870  0.2672 -0.2377  0.2720
 2406W        W 6457   2.817   5.005  11.897 -0.2856 -0.2696  0.0170
 2407W        W 6458   2.237   9.230   1.914 -0.0394  0.3711 -0.1619
 2408W        W 6459   0.735   5.076   4.914  0.2412  0.1075  0.2206
 2409W        W 6460   0.394   8.325   0.445  0.0912  0.2027 -0.0052
 2410W        W 6461   1.141   0.713  10.922  0.1715 -0.0230  0.0522
 2411W        W 6462   5.864   3.376   3.696  0.3128  0.0085  0.1117
 2412W        W 6463   2.659   6.957  11.636 -0.0962  0.0942 -0.1359
 2413W        W 6464   6.831   5.982   1.910 -0.0797  0.1109 -0.2803
 2414W        W 6465   4.881   4.182   0.073  0.1605  0.2795 -0.1310
 2415W        W 6466   0.974   5.077   1.470 -0.0662  0.0917 -0.3714
 2416W        W 6467   5.053   4.834  13.226 -0.0368 -0.1378 -0.0858
 2417W        W 6468   7.150   8.959   2.169 -0.0646  0.3051 -0.0070
 2418W        W 6469   5.627   3.160  10.454 -0.2296  0.2379 -0.0670
 2419W        W 6470   8.257   2.412   4.981  0.0764  0.2337  0.1919
 2420W        W 6471   0.088   3.279  13.229  0.1674  0.4003  0.1426
 2421W        W 6472   5.312   6.301  13.389  0.1468 -0.1385  0.2758
 2422W        W 6473   5.735   0.597  11.841 -0.1329 -0.3301 -0.2372
 2423W        W 6474   0.913   6.541  13.465  0.1291 -0.0550 -0.1816
 2424W        W 6475   5.865   8.488   1.117  0.1754  0.2414  0.2184
 2425W        W 6476   7.659   2.768   8.983  0.0796  0.2515  0.1720
 2426W        W 6477   8.398   0.888  13.807 -0.1450 -0.3257 -0.0328
 2427W        W 6478   0.669   4.698   4.039 -0.0273  0.2291 -0.2523
 2428W        W 6479   3.982   5.909   1.693 -0.2677 -0.1581  0.0247
 2429W        W 6480   8.938   7.427   5.062  0.1633 -0.1877 -0.0115
 2430W        W 6481   8.992   3.889   3.141  0.1234  0.1394 -0.1943
 2431W        W 6482   5.277   4.965  12.583  0.0365 -0.3687  0.3440
 2432W        W 6483   9.911   7.778   2.165 -0.0082  0.1087  0.1149
 2433W        W 6484   5.633   8.126  12.051 -0.0124 -0.3039  0.0265
 2434W        W 6485   9.597   9.271   4.709  0.1619  0.2958 -0.0609
 2435W        W 6486   6.577   8.035   4.951 -0.1056 -0.0403  0.2364
 2436W        W 6487   2.735   0.551   8.679 -0.0478  0.0032  0.1337
 2437W        W 6488   1.023   0.249  11.033 -0.1511  0.2624 -0.0132
 2438W        W 6489   2.047   7.014  11.395  0.4398 -0.1059 -0.1759
 2439W        W 6490   2.475   2.605  11.610  0.1067 -0.2030  0.3313
 2440W        W 6491   7.153   9.073   0.027  0.1518  0.2467  0.0977
 2441W        W 6492   5.464   8.015  13.320 -0.0544  0.0794  0.2189
 2442W        W 6493   2.585  10.121   5.678  0.0407 -0.1293 -0.0368
 2443W        W 6494   0.274   3.450   0.031  0.1967  0.3617 -0.0223
 2444W        W 6495   8.258   5.434   9.220 -0.1613  0.0699  0.0352
 2445W        W 6496   0.661   6.119   5.439 -0.0423 -0.0402 -0.1908
 2446W        W 6497   6.732   2.367   2.609  0.0694  0.0059  0.1240
 2447W        W 6498   1.543   8.591   1.016  0.0148  0.1428 -0.2659
 2448W        W 6499   9.625   6.816   2.965  0.2808 -0.0888 -0.0757
 2449W        W 6500   7.231   4.843  10.214 -0.0025  0.0096  0.1502
 2450W        W 6501  10.036   4.243  10.096 -0.2040 -0.1587  0.0695
 2451W        W 6502   1.417   5.799   0.015 -0.0501 -0.1658 -0.0709
 2452W        W 6503   2.151   5.171   2.950 -0.2095  0.2682 -0.2528
 2453W        W 6504   5.705   6.650  12.107  0.0467  0.0065  0.1714
 2454W        W 6505   2.858   9.344   3.948  0.0289  0.0676  0.2023
 2455W        W 6506   5.012   1.602   4.103  0.0982 -0.1240 -0.1861
 2456W        W 6507   1.747   3.606   0.806  0.2262  0.2464 -0.2341
 2457W        W 6508   8.237   4.942  10.989  0.3001  0.0999 -0.0604
 2458W        W 6509   2.546   3.473   9.920  0.0927 -0.0288 -0.2309
 2459W        W 6510   2.013   5.978  10.592 -0.0988 -0.2550  0.0056
 2460W        W 6511   0.223   0.497  10.253  0.0765  0.0975 -0.0139
 2461W        W 6512   0.853   9.993   2.109 -0.0305 -0.3284  0.2178
 2462W        W 6513   4.863   0.253   0.334 -0.3216  0.2683 -0.3357
 2463W        W 6514   6.363   3.682   1.135  0.3389 -0.1713  0.1045
 2464W        W 6515   2.137   9.939   1.299  0.4001  0.0106 -0.4943
 2465W        W 6516   8.368   0.960   1.560 -0.0674  0.0551 -0.1906
 2466W        W 6517   8.573   4.197   4.275 -0.1258  0.2321 -0.2427
 2467W        W 6518   6.296   9.519  12.831  0.0008 -0.0531  0.1513
 2468W        W 6519   1.945  10.096  10.690 -0.0529  0.1325 -0.1103
 2469W        W 6520   4.367   7.478   9.950 -0.1194  0.0873  0.0993
 2470W        W 6521   1.277   3.908   3.033 -0.0146 -0.1650  0.2116
 2471W        W 6522   6.273   0.745   2.354 -0.0192  0.2029  0.2061
 2472W        W 6523   6.009   0.074  12.475 -0.0878 -0.1882 -0.2065
 2473W        W 6524   5.019   9.933   0.964  0.1664  0.2905 -0.2049
 2474W        W 6525   7.299   7.515   2.366 -0.1529 -0.1388 -0.2797
 2475W        W 6526   8.781   8.831   2.381  0.1536 -0.0801  0.3379
 2476W        W 6527   2.557   4.867  11.485 -0.1762  0.1239  0.1298
 2477W        W 6528   9.527   2.645   9.323 -0.2310 -0.2984 -0.1098
 2478W        W 6529   1.168   8.657  12.078 -0.1430  0.1759  0.0145
 2479W        W 6530   6.982   1.164  10.908 -0.0136 -0.3302  0.0584
 2480W        W 6531   5.737   6.211  13.967  0.3059 -0.1932 -0.4599
 2481W        W 6532   7.760   4.672   1.178 -0.0861  0.0903 -0.1359
 2482W        W 6533   7.076  10.080   5.535  0.1407  0.2300 -0.3181
 2483W        W 6534   4.353   0.241   5.525 -0.4768  0.0060 -0.0882
 2484W        W 6535   6.168   5.170  13.814  0.0079 -0.3324 -0.0358
 2485W        W 6536   6.929   9.304  11.712  0.2756 -0.1112 -0.2288
 2486W        W 6537   2.321   9.366  11.259 -0.1359  0.1838  0.2276
 2487W        W 6538   8.315   8.691   0.655  0.5296  0.1479  0.0432
 2488W        W 6539   1.454   7.606   3.799  0.2194  0.0041  0.1761
 2489W        W 6540  10.070   8.682   3.627  0.0294  0.3489 -0.1981
 2490W        W 6541   1.694   1.732  12.855 -0.0816  0.3723 -0.0063
 2491W        W 6542   5.552   3.885   2.657  0.3570  0.0430  0.1065
 2492W        W 6543   8.413   3.249  12.716 -0.2460  0.0615  0.1546
 2493W        W 6544   2.579   8.387  11.776  0.1659 -0.1251  0.1763
 2494W        W 6545   8.218   2.801  12.487 -0.1239 -0.3266 -0.5694
 2495W        W 6546   9.334   0.388  13.778 -0.0695  0.0042 -0.1497
 2496W        W 6547   1.360   2.677   0.532 -0.1256 -0.3625 -0.1474
 2497W        W 6548   3.767   4.011   2.198 -0.1281  0.0496 -0.1554
 2498W        W 6549   2.414   8.442   3.639  0.1453 -0.1051 -0.3721
 2499W        W 6550   9.849   3.328  12.856 -0.0401  0.4040  0.1915
 2500W        W 6551   9.910   8.500  13.732  0.2446  0.1580  0.2865
 2501W        W 6552   7.626   4.700  10.452 -0.0343  0.1158 -0.1154
 2502W        W 6553   6.730   7.111   9.849 -0.0107  0.1022  0.1347
 2503W        W 6554   0.420   6.718   0.930 -0.0103  0.4423 -0.0111
 2504W        W 6555   8.255   7.646   3.106  0.0355 -0.1476  0.1997
 2505W        W 6556   2.605   4.367   0.226 -0.0627  0.0570 -0.0226
 2506W        W 6557   6.539   2.670   4.064 -0.0214  0.1093 -0.1217
 2507W        W 6558   0.347   0.836   4.723  0.0931  0.0481  0.1041
 2508W        W 6559   0.497   1.126   8.869 -0.2510 -0.0243 -0.0173
 2509W        W 6560   3.621   0.276  13.374  0.1529  0.1496 -0.3614
 2510W        W 6561   8.854   5.767   3.715 -0.0874 -0.0023 -0.1354
 2511W        W 6562   5.310   9.449   4.428 -0.0197 -0.3143 -0.0411
 2512W        W 6563   0.300   8.885   9.889  0.0404  0.1357 -0.1153
 2513W        W 6564   7.497   4.984   0.893 -0.0852  0.1380  0.2104
 2514W        W 6565   4.269   5.470  10.430 -0.1437  0.2467  0.1295
 2515W        W 6566   6.350   7.639  12.955 -0.0696 -0.2484  0.2574
 2516W        W 6567   1.748   1.452   0.480 -0.2885  0.0155 -0.2612
 2517W        W 6568   8.721   7.668   2.902  0.0306 -0.0314 -0.0735
 2518W        W 6569   5.820   9.448   2.173 -0.0755 -0.2978  0.2465
 2519W        W 6570   3.443   8.035   2.974  0.2726 -0.1125  0.0387
 2520W        W 6571   1.832   8.294   2.622 -0.2588 -0.0298  0.0576
 2521W        W 6572   8.306   5.023  13.296 -0.0429 -0.0973  0.2270
 2522W        W 6573   2.547  10.048  10.769  0.4396 -0.1306 -0.0806
 2523W        W 6574   9.380   3.474  13.202  0.1394  0.1797  0.1836
 2524W        W 6575   8.516   6.335   4.399  0.0519  0.0109  0.4012
 2525W        W 6576   4.935   3.684  12.780  0.0490 -0.0556  0.1905
 2526W        W 6577   8.139   4.348  12.225 -0.2257  0.0816  0.0241
 2527W        W 6578   4.693   2.289   3.134  0.3298 -0.0037 -0.0653
 2528W        W 6579  10.107   0.488   9.774  0.1507  0.1620 -0.0700
 2529W        W 6580   8.705   7.884  10.992 -0.1370 -0.2833  0.1368
 2530W        W 6581   9.597   1.499   3.205 -0.0910  0.1829 -0.1874
 2531W        W 6582   0.591   0.134  11.899  0.1507  0.0334 -0.1660
 2532W        W 6583   9.863   9.577   8.608  0.1161  0.0539  0.1481
 2533W        W 6584   2.080   9.648  13.732  0.4885  0.2138  0.2303
 2534W        W 6585   6.541   3.503  12.610 -0.1158 -0.2047 -0.1401
 2535W        W 6586   1.016   9.071  11.211  0.2197 -0.0243 -0.0642
 2536W        W 6587   8.843   7.642   1.666 -0.1231  0.0436 -0.2319
 2537W        W 6588   3.429   8.261  12.025 -0.1785 -0.0536 -0.0485
 2538W        W 6589   4.847   3.333   2.171 -0.3082  0.0285 -0.1138
 2539W        W 6590   0.702   9.224   3.686  0.0119 -0.0794 -0.0812
 2540W        W 6591   1.133   4.478   2.209 -0.1153 -0.1391 -0.2209
 2541W        W 6592   6.215   1.126   4.032 -0.1294 -0.1273  0.2295
 2542W        W 6593   3.666   0.751   0.730 -0.0030  0.3890  0.2636
 2543W        W 6594   2.883   0.252   3.968 -0.0704  0.0554  0.1762
 2544W        W 6595   9.065   4.282   2.824 -0.0662  0.1259 -0.0052
 2545W        W 6596   6.618   5.392  10.262 -0.0659  0.0069  0.0687
 2546W        W 6597   1.762   9.475   8.856  0.0661 -0.0581 -0.1639
 2547W        W 6598   3.696   7.726   0.505  0.1260  0.2575 -0.3142
 2548W        W 6599   6.072   5.512  10.237 -0.0714 -0.2396  0.2000
 2549W        W 6600   0.879   2.675   2.175  0.0907 -0.1425 -0.1603
 2550W        W 6601   7.246   5.974   0.228 -0.1122 -0.0311  0.1546
 2551W        W 6602   7.071   5.013   0.616 -0.1055 -0.1298 -0.0280
 2552W        W 6603   0.107   0.902  13.335 -0.0328  0.0258  0.2413
 2553W        W 6604   4.738   6.055   0.093  0.3951 -0.0117  0.2076
 2554W        W 6605   0.495   1.733   0.959  0.4555 -0.5362  0.1817
 2555W        W 6606   8.273   1.153   3.630  0.2093 -0.0617 -0.4265
 2556W        W 6607   3.590  10.156   9.866  0.3226  0.2843 -0.1144
 2557W        W 6608   7.299   5.567  12.371  0.2119 -0.0718 -0.0523
 2558W        W 6609   3.981   8.232  12.268  0.2237  0.2273  0.0097
 2559W        W 6610   0.375   8.802   2.665 -0.0039  0.1230  0.3162
 2560W        W 6611   5.201   3.435   0.466  0.3480  0.0622 -0.1458
 2561W        W 6612   8.753   6.135   1.944 -0.1020 -0.2023 -0.0227
 2562W        W 6613   8.025   1.385   1.286  0.1990 -0.0634 -0.2829
 2563W        W 6614   0.056   8.359   1.415 -0.2328 -0.1741 -0.1904
 2564W        W 6615   8.782   5.219   0.951  0.1607  0.0045 -0.0807
 2565W        W 6616   3.037   1.821   8.657 -0.2273  0.0306 -0.0084
 2566W        W 6617   1.152   4.071  12.149 -0.3368 -0.1384  0.0981
 2567W        W 6618   8.661   5.216  11.804  0.2045 -0.1436  0.0143
 2568W        W 6619   6.615   5.861   0.341 -0.0814  0.0169 -0.1763
 2569W        W 6620   0.227   1.117   1.397  0.4228 -0.0231 -0.2130
 2570W        W 6621   7.046   2.841  11.063 -0.1063 -0.2042  0.2480
 2571W        W 6622   3.033   6.176   4.434  0.3391  0.0206  0.0045
 2572W        W 6623   8.198   3.808   2.825 -0.2339  0.0283  0.0919
 2573W        W 6624   2.663   1.325  10.305  0.2430 -0.2316  0.3613
 2574W        W 6625   7.332   0.237  13.446 -0.0804 -0.0757 -0.1288
 2575W        W 6626   1.543   5.644   1.715 -0.1008 -0.2133  0.0882
 2576W        W 6627   7.606   7.196   3.744  0.0382 -0.2756 -0.0918
 2577W        W 6628   1.754   6.823  11.964 -0.2721 -0.1725 -0.1779
 2578W        W 6629   0.036   2.129   0.426 -0.2104 -0.0783 -0.1654
 2579W        W 6630   3.057   6.721  13.866  0.1756  0.2345  0.3059
 2580W        W 6631   7.219   9.959  10.373  0.1743  0.0108 -0.0167
 2581W        W 6632   7.860   6.480  12.589  0.0315 -0.0790 -0.1870
 2582W        W 6633   8.718   0.824  11.321  0.1483 -0.2888  0.0911
 2583W        W 6634   2.990   4.461  13.535  0.1008  0.0868  0.2012
 2584W        W 6635   0.729   4.377  10.226 -0.1289  0.2298 -0.1141
 2585W        W 6636   2.352   0.482   1.817 -0.3961 -0.0458  0.0146
 2586W        W 6637   4.226   1.130  11.330  0.0687 -0.2028  0.0438
 2587W        W 6638   9.049   1.898   0.544  0.1205  0.0140  0.1319
 2588W        W 6639   4.309   2.363   9.529  0.1500 -0.1793 -0.4548
 2589W        W 6640   0.106   6.512   3.099 -0.0237 -0.1091  0.0743
 2590W        W 6641   5.841   9.065  11.704  0.1968 -0.1998  0.2508
 2591W        W 6642   1.582   0.612   0.244  0.1289  0.0732  0.3047
 2592W        W 6643   1.699   8.379  12.254 -0.0625 -0.2732  0.0097
 2593W        W 6644   5.829   6.174  10.971  0.2943  0.0513  0.0006
 2594W        W 6645   1.379   6.587  10.354  0.2840 -0.2667 -0.0088
 2595W        W 6646   5.664   8.479  13.311  0.2956  0.0498 -0.1520
 2596W        W 6647   5.196   5.264   1.386 -0.1838  0.0897  0.1155
 2597W        W 6648   8.351   8.461   3.912  0.0345  0.2292 -0.2113
 2598W        W 6649   8.695   1.866  11.684  0.0074  0.2970  0.0057
 2599W        W 6650   6.707   5.002  13.753  0.1250  0.2266 -0.3019
 2600W        W 6651   0.465   1.965   8.827 -0.3005  0.2749 -0.0523
 2601W        W 6652   4.447   5.735   9.877 -0.0952 -0.0075 -0.1226
 2602W        W 6653   2.007   4.964  12.437 -0.0773  0.1875 -0.0818
 2603W        W 6654   0.220   5.049   2.279 -0.1409 -0.3994  0.2320
 2604W        W 6655   5.690   5.161  11.539  0.0687  0.2526 -0.3967
 2605W        W 6656   3.695   0.347   1.781 -0.2453  0.2697 -0.0591
 2606W        W 6657   3.104   6.036  11.510  0.1396  0.3818  0.1262
 2607W        W 6658   6.854   5.927  13.900  0.1518 -0.2369  0.1613
 2608W        W 6659   5.801   1.172  11.894  0.1569 -0.1581 -0.0313
 2609W        W 6660   9.944   0.331  12.376 -0.1952  0.0296 -0.0719
 2610W        W 6661   5.847   6.710   0.830 -0.0893 -0.0767 -0.0130
 2611W        W 6662   9.894   4.404   2.152 -0.0572 -0.1355 -0.2616
 2612W        W 6663   9.258   7.890  10.746  0.1092  0.3576 -0.1882
 2613W        W 6664   3.043   5.490  10.368 -0.2897  0.0043  0.0567
 2614W        W 6665   6.350   0.693   3.779 -0.0698  0.1029 -0.0330
 2615W        W 6666   2.820   9.652  12.016 -0.1011 -0.2275 -0.0140
 2616W        W 6667   9.450   1.211   2.276  0.2401 -0.1395  0.2237
 2617W        W 6668   7.548   8.210  12.092 -0.0943 -0.0063 -0.1422
 2618W        W 6669   6.696   8.177   1.909  0.1786 -0.0441  0.1333
 2619W        W 6670   7.287   0.841   9.150  0.2197 -0.3009 -0.0930
 2620W        W 6671   8.795   9.309  11.907  0.1484 -0.0258 -0.3236
 2621W        W 6672   0.082   3.703   4.538  0.1889 -0.3212 -0.0981
 2622W        W 6673   6.636   7.425  13.758  0.2235  0.2502 -0.3034
 2623W        W 6674   6.321   7.894  10.108 -0.1010  0.0878  0.1659
 2624W        W 6675   5.221   8.218   2.216  0.1198 -0.1583  0.2825
 2625W        W 6676   2.158   8.222   9.187 -0.0858 -0.0330  0.0140
 2626W        W 6677   9.749   3.637   2.599  0.1931 -0.1654  0.0639
 2627W        W 6678   1.785   7.788   0.209  0.1887 -0.1177 -0.4300
 2628W        W 6679   9.218   0.290  12.876 -0.1331  0.0954 -0.1334
 2629W        W 6680   3.647   6.827   2.804  0.2658  0.0838  0.0306
 2630W        W 6681   2.143   7.037   3.792  0.0096 -0.0685  0.0978
 2631W        W 6682   0.461   6.753   1.429  0.0221  0.2913 -0.3725
 2632W        W 6683   2.354   5.372  10.096  0.0603  0.0358  0.0840
 2633W        W 6684   2.421   4.667   2.863  0.2252 -0.0150  0.2489
 2634W        W 6685   9.514   2.722   3.528  0.0127  0.1110  0.1609
 2635W        W 6686   4.852   6.937  12.850  0.0873 -0.1669 -0.0145
 2636W        W 6687   6.296   5.546   0.139 -0.0304  0.2262 -0.1392
 2637W        W 6688   8.028   2.449   3.728 -0.1002  0.0660  0.0139
 2638W        W 6689   9.792   4.098  13.530 -0.0097 -0.1577  0.0504
 2639W        W 6690   7.193   3.553   4.408  0.1579 -0.1262  0.0336
 2640W        W 6691   4.010   8.613   0.953 -0.0172  0.0561 -0.0662
 2641W        W 6692   6.366   8.736   2.778 -0.3043  0.1335  0.0679
 2642W        W 6693   8.885   0.928   1.425  0.1035 -0.1380  0.1394
 2643W        W 6694   7.611   3.315   1.631  0.0372  0.1616 -0.1311
 2644W        W 6695   4.769   5.440   1.787 -0.3579 -0.1463  0.0342
 2645W        W 6696   3.511   6.769   9.927  0.1382  0.0650 -0.0631
 2646W        W 6697   9.345   4.910   0.358  0.1935 -0.2795 -0.1989
 2647W        W 6698   6.841   1.249   5.269 -0.0126  0.2035 -0.1231
 2648W        W 6699   8.016   4.448  12.751 -0.2482  0.0520 -0.1593
 2649W        W 6700   6.919   3.207   9.802 -0.1105  0.3396  0.1063
 2650W        W 6701   4.886   8.495  10.336  0.1501 -0.2045  0.0079
 2651W        W 6702   3.837  10.156   2.597  0.1718 -0.1227  0.0860
 2652W        W 6703   1.906   4.099   3.586 -0.0650 -0.1379 -0.3003
 2653W        W 6704   7.799   8.397   3.325 -0.0563  0.1106 -0.3047
 2654W        W 6705   8.837   3.510  12.605 -0.2363 -0.1149 -0.0100
 2655W        W 6706   3.201   2.906   1.252  0.2016  0.3955 -0.2076
 2656W        W 6707   4.378   8.457  11.639  0.1181  0.0738  0.2687
 2657W        W 6708   4.805   1.614   2.515 -0.4147 -0.2309  0.1553
 2658W        W 6709   9.639   6.088   1.797 -0.3025  0.1611  0.2809
 2659W        W 6710   7.467   1.586   3.945  0.4587 -0.2471 -0.1410
 2660W        W 6711   4.921   8.912   3.724 -0.0060  0.2257  0.1668
 2661W        W 6712   5.773   0.654   9.945 -0.0908 -0.0002 -0.1170
 2662W        W 6713   5.588   1.792   2.968  0.1038  0.0812  0.1096
 2663W        W 6714   4.294   1.896   3.199  0.1021 -0.1073 -0.3909
 2664W        W 6715   6.513   4.769   9.840  0.1020  0.2378  0.0129
 2665W        W 6716   9.890   1.364   1.617 -0.1987  0.1821  0.0525
 2666W        W 6717   5.355   5.096  11.930  0.0604 -0.0378 -0.2087
 2667W        W 6718   6.684   8.921   1.436 -0.0349 -0.1099 -0.0920
 2668W        W 6719   0.130   4.167  11.165  0.1525  0.0231 -0.0177
 2669W        W 6720   4.938   4.083   0.582  0.0129  0.2658  0.3202
 2670W        W 6721   7.977   1.636  10.970  0.2190 -0.2278 -0.0643
 2671W        W 6722   2.232   2.133  12.731  0.5772  0.1915 -0.1513
 2672W        W 6723   9.376   8.896   5.340 -0.2728 -0.1448 -0.1567
 2673W        W 6724   2.289   3.802  13.565  0.0425  0.2677 -0.0668
 2674W        W 6725   5.347   8.237  10.247 -0.2100  0.2225  0.3711
 2675W        W 6726   6.790   9.324  13.790  0.0858  0.3316  0.2440
 2676W        W 6727   2.036   7.810  13.791 -0.2274  0.2009  0.0131
 2677W        W 6728   2.220   6.937   3.302 -0.1069 -0.4818 -0.0982
 2678W        W 6729   6.632   1.799   1.555 -0.1949 -0.0191 -0.0596
 2679W        W 6730   0.095   0.204   0.879 -0.0241  0.1146 -0.0418
 2680W        W 6731   0.347   5.830   1.087 -0.1812 -0.0179 -0.2278
 2681W        W 6732   9.405   0.273   4.985 -0.1455 -0.2334  0.5504
 2682W        W 6733   3.903   0.232   5.314  0.1467 -0.1415  0.0738
 2683W        W 6734   8.635   7.383   3.367  0.1103  0.0703  0.0332
 2684W        W 6735   6.075   5.384   2.130 -0.1893 -0.1934  0.2181
 2685W        W 6736   0.245   2.219   9.948 -0.1868  0.0887 -0.0515
 2686W        W 6737   1.704   1.325   2.327 -0.0047  0.2747 -0.1420
 2687W        W 6738   0.543   6.362  13.196 -0.1874 -0.1058  0.3029
 2688W        W 6739   9.038   1.351  13.869 -0.0844 -0.0723  0.3470
 2689W        W 6740   4.500   2.798  13.014  0.1902 -0.0104 -0.1375
 2690W        W 6741   0.473   4.996   1.297  0.1887 -0.1746 -0.0259
 2691W        W 6742   3.327   8.825  13.349  0.2103 -0.1585 -0.1000
 2692W        W 6743   2.472   6.630  11.324  0.1444 -0.1082  0.0414
 2693W        W 6744   6.050   3.265   1.371  0.1693 -0.1423 -0.1861
 2694W        W 6745   5.698   5.757  11.425  0.1254 -0.3429 -0.0517
 2695W        W 6746   6.217   2.908  12.701  0.2172 -0.0264 -0.1652
 2696W        W 6747   3.925   2.762   3.093  0.1136 -0.0243 -0.2486
 2697W        W 6748   8.246   2.565  13.676 -0.0286  0.0746  0.0516
 2698W        W 6749   0.492   2.392  11.640 -0.1905 -0.3058  0.0911
 2699W        W 6750   0.401   5.929  10.208  0.1363 -0.0743 -0.1666
 2700W        W 6751   6.018   8.381   2.475 -0.1167 -0.0743  0.1061
 2701W        W 6752   9.045   0.037  11.482  0.0239  0.0365  0.1826
 2702W        W 6753   4.012   3.282   3.455 -0.2374 -0.0376  0.3077
 2703W        W 6754   2.848   8.731  13.044 -0.0386 -0.1006 -0.1691
 2704W        W 6755   5.327   7.268   2.310 -0.0764  0.1104  0.1484
 2705W        W 6756   1.352   8.428  12.587 -0.2996 -0.0339  0.0883
 2706W        W 6757   4.676   2.961  11.639 -0.1430  0.0281  0.2789
 2707W        W 6758   3.072   8.179  13.832  0.1014 -0.1966 -0.3350
 2708W        W 6759   5.034   9.735  13.350  0.2148  0.2105  0.0310
 2709W        W 6760   2.599   9.051   0.315 -0.0450  0.0781 -0.0270
 2710W        W 6761   7.788   6.563  12.056  0.1060  0.0977 -0.0755
 2711W        W 6762   8.449   4.460   3.505 -0.0695 -0.2143  0.3182
 2712W        W 6763   1.985   0.750  12.926  0.2511 -0.1514  0.0198
 2713W        W 6764   2.104   0.476  13.991  0.0823  0.0142 -0.0585
 2714W        W 6765   4.775   5.992   1.040 -0.0424 -0.3532  0.1658
 2715W        W 6766   2.647   6.858  13.175 -0.2038 -0.3572  0.3558
 2716W        W 6767   4.050   6.452   3.447  0.1506  0.0918 -0.0599
 2717W        W 6768   1.751   6.829   0.121  0.2407 -0.3273 -0.0520
 2718W        W 6769   8.374   4.631  10.364 -0.1831  0.0278 -0.1879
 2719W        W 6770   8.920   0.843   5.732  0.4598 -0.0129  0.1714
 2720W        W 6771   4.349  10.076   2.804 -0.1996 -0.1616  0.0296
 2721W        W 6772   9.238   6.024   0.864 -0.1315 -0.1522  0.1938
 2722W        W 6773   3.050   4.594   9.421  0.1247 -0.1794  0.0212
 2723W        W 6774   2.232   3.295   2.314  0.0266  0.0552 -0.1374
 2724W        W 6775   0.652   6.177   4.310 -0.0726  0.0695 -0.1365
 2725W        W 6776   5.872   7.549   0.916 -0.1291  0.1270 -0.2993
 2726W        W 6777   4.584   8.761   0.688 -0.4092 -0.1296  0.1086
 2727W        W 6778   8.555   0.687  12.515 -0.1820  0.1237 -0.2046
 2728W        W 6779   2.273   6.658  10.903 -0.0086  0.3581 -0.0382
 2729W        W 6780   3.060   7.718  11.524 -0.1405  0.0150  0.1406
 2730W        W 6781   4.004   4.583  10.134  0.3688  0.0557 -0.1096
 2731W        W 6782   8.537   9.951   3.248 -0.4234  0.0750 -0.2048
 2732W        W 6783   1.259   9.378   3.710  0.2597 -0.3057 -0.0489
 2733W        W 6784   4.889   4.628  12.620  0.3041  0.0192  0.2285
 2734W        W 6785   9.491   5.681  10.373 -0.2009 -0.2669 -0.0507
 2735W        W 6786   6.570   8.929  10.876 -0.3522 -0.2174  0.0882
 2736W        W 6787   0.869   1.082  11.740 -0.2334  0.2727 -0.3691
 2737W        W 6788   1.542   2.234   4.592 -0.0140 -0.0879  0.1338
 2738W        W 6789   0.453   2.883  13.179 -0.0782 -0.0362  0.0383
 2739W        W 6790   0.927   4.236   0.281 -0.0172  0.0904 -0.1729
 2740W        W 6791   3.346   9.950  13.221 -0.0003  0.1076 -0.1533
 2741W        W 6792   7.530   6.617   9.546 -0.2650 -0.0091  0.0399
 2742W        W 6793   4.408   4.283  12.444 -0.0810 -0.3322  0.7092
 2743W        W 6794   0.494   2.477   8.305  0.1040  0.1625  0.1378
 2744W        W 6795   7.477   2.735  11.609  0.1513  0.0337  0.0946
 2745W        W 6796   9.993   6.339   2.709  0.1523 -0.0586  0.0623
 2746W        W 6797   5.367   9.137   3.595 -0.1308  0.0866  0.1662
 2747W        W 6798   6.805   7.794   2.350 -0.1708  0.0444  0.2695
 2748W        W 6799   6.239   6.071   3.251 -0.1924  0.1094  0.0139
 2749W        W 6800   9.338   7.191  13.642 -0.0461 -0.0641 -0.2205
 2750W        W 6801   9.655   2.584   2.714 -0.0038 -0.1238  0.2642
 2751W        W 6802   9.625   1.411  12.750  0.0371  0.3211 -0.4580
 2752W        W 6803   8.779   4.030   1.716  0.1372  0.1199  0.1238
 2753W        W 6804   0.249   6.298  11.867  0.0289 -0.1425  0.0731
 2754W        W 6805   0.656   1.781  13.764 -0.2189  0.1583  0.0356
 2755W        W 6806   6.090   7.227  13.900  0.1748 -0.1120 -0.0855
 2756W        W 6807   8.255   0.810  11.114  0.1601 -0.1080  0.2090
 2757W        W 6808   7.026   5.812  12.821  0.1817  0.3008 -0.2003
 2758W        W 6809   9.804   9.920  12.362 -0.2140  0.2488  0.1022
 2759W        W 6810   2.245   1.580  10.377  0.2462 -0.4879 -0.1633
 2760W        W 6811   0.261   7.055  12.566  0.1739  0.2757 -0.1948
 2761W        W 6812   1.881   6.864   2.537  0.1576  0.0719 -0.2656
 2762W        W 6813   2.833   0.173   0.416 -0.1501 -0.2068  0.1259
 2763W        W 6814   8.635   9.887  11.433 -0.0318 -0.0430 -0.0019
 2764W        W 6815   0.387   7.217  10.844 -0.0954 -0.1417 -0.1596
 2765W        W 6816   0.636   7.785   9.105  0.1431  0.0956  0.0809
 2766W        W 6817   1.076   5.862   2.937  0.3039  0.1170  0.3200
 2767W        W 6818   8.392   3.670   0.205 -0.1914 -0.2150 -0.4880
 2768W        W 6819   7.937   5.371  13.012 -0.0906 -0.1065 -0.1217
 2769W        W 6820   8.718   6.285   3.054  0.0122  0.1879  0.1575
 2770W        W 6821   1.507   6.090  10.525  0.0683  0.0446 -0.1489
 2771W        W 6822   8.262   1.345   0.756  0.1818 -0.0019  0.0687
 2772W        W 6823   4.792   8.729   2.263 -0.3056 -0.0029 -0.2094
 2773W        W 6824   3.924   4.970   2.714 -0.0496  0.3415 -0.0911
 2774W        W 6825   7.414   8.751   3.294 -0.3043 -0.2633 -0.3361
 2775W        W 6826   6.366   1.934  13.164 -0.0584  0.0057 -0.1030
 2776W        W 6827   0.585   5.140   3.229 -0.0465  0.0847  0.0923
 2777W        W 6828   2.763   9.836  12.621  0.5586 -0.0173 -0.0939
 2778W        W 6829   6.571   8.155  11.598 -0.0014  0.1456 -0.1334
 2779W        W 6830   8.804   2.679  11.600  0.2434  0.0343 -0.0227
 2780W        W 6831   7.931   5.043   1.529 -0.3113 -0.0133  0.0815
 2781W        W 6832   6.656   0.745   5.255  0.1297 -0.2646  0.0609
 2782W        W 6833   0.817   2.373   3.145 -0.1254  0.0655  0.0052
 2783W        W 6834   8.948   9.555   9.101 -0.1912  0.2219 -0.1324
 2784W        W 6835   3.530   8.612   9.976 -0.4125  0.3101  0.1914
 2785W        W 6836   1.458   2.670  13.451  0.1664  0.1114 -0.2266
 2786W        W 6837   7.182   3.417   0.494 -0.1055 -0.0592 -0.1415
 2787W        W 6838   0.052   2.392  12.012 -0.2047  0.2088 -0.2468
 2788W        W 6839   6.976   1.888   3.384 -0.3198  0.0861  0.1001
 2789W        W 6840   9.904   3.586  10.856 -0.2714  0.1001  0.2282
 2790W        W 6841   5.611   9.425   3.953 -0.2801  0.3302 -0.0701
 2791W        W 6842   8.424   2.782   0.070  0.2147 -0.0278  0.0945
 2792W        W 6843   2.800   8.718   0.653  0.3742  0.3829 -0.0997
 2793W        W 6844   0.675   3.163  12.736 -0.0614  0.2194 -0.2726
 2794W        W 6845   6.013   1.233  12.457  0.3622  0.0396 -0.1408
 2795W        W 6846   8.513   3.835  12.353  0.2286 -0.1380  0.3011
 2796W        W 6847   0.676   2.661   4.528 -0.1587  0.1067  0.2464
 2797W        W 6848   5.883   7.743  13.239  0.2829  0.2470  0.1396
 2798W        W 6849   9.448   7.745   3.057  0.0098 -0.2151  0.1289
 2799W        W 6850   6.762   1.688   2.004  0.0522 -0.0287  0.1923
 2800W        W 6851   3.088   8.441  10.210 -0.1278 -0.0561  0.0630
 2801W        W 6852   6.306   1.175  13.851 -0.1710  0.1209 -0.0268
 2802W        W 6853   3.474   0.866  10.239 -0.3688  0.4009 -0.1606
 2803W        W 6854   6.241   0.225   3.198 -0.0082 -0.2841  0.0022
 2804W        W 6855   3.826   5.530   0.165 -0.0287  0.3673 -0.4775
 2805W        W 6856   9.724   6.758   1.921 -0.1495  0.1390 -0.1784
 2806W        W 6857   4.792   2.384   4.285 -0.2164  0.2821  0.0675
 2807W        W 6858   1.230   2.622   4.403  0.0525 -0.1882 -0.2616
 2808W        W 6859   0.153   1.145   3.834  0.2766  0.0275  0.0476
 2809W        W 6860   6.162   1.493  11.612 -0.0105  0.1476 -0.0050
 2810W        W 6861   9.098   6.892  12.613 -0.4003 -0.2907  0.4562
 2811W        W 6862   1.173   8.494  13.509  0.0359 -0.1448  0.1994
 2812W        W 6863   9.960   7.804  11.366  0.0720  0.1248  0.2555
 2813W        W 6864   7.974   8.752   4.066  0.1428 -0.1268  0.1150
 2814W        W 6865   4.281   1.368   3.657 -0.2476 -0.0623  0.1806
 2815W        W 6866   8.905   0.080   0.364 -0.0750 -0.3031  0.2015
 2816W        W 6867   9.776   2.247  11.010  0.1606 -0.2479  0.5951
 2817W        W 6868   5.080   4.232  13.226  0.1122  0.1898 -0.0106
 2818W        W 6869   3.491   3.241  11.700  0.1527 -0.2024 -0.1681
 2819W        W 6870   2.500   8.481   1.108  0.1111  0.3843 -0.0340
 2820W        W 6871   6.091   4.002  12.077 -0.0292 -0.0369 -0.0312
 2821W        W 6872   1.998   9.939  11.702  0.2075  0.1769 -0.2509
 2822W        W 6873   0.493   0.375  12.775 -0.0968 -0.2445 -0.1331
 2823W        W 6874   4.858   7.263  10.907  0.2835 -0.0335  0.0262
 2824W        W 6875   1.746   8.758  10.110 -0.0879 -0.1220 -0.1931
 2825W        W 6876   5.120   3.169  13.408 -0.2366  0.0427 -0.2601
 2826W        W 6877   8.514   1.000   5.465 -0.2362  0.0603 -0.2365
 2827W        W 6878   7.234   0.915   2.037 -0.0613 -0.0962 -0.0357
 2828W        W 6879   1.429   0.148   0.382 -0.0982  0.1302 -0.1996
 2829W        W 6880   9.690   7.358  11.352  0.1131  0.0628  0.0502
 2830W        W 6881   6.464   9.308   0.999 -0.2445  0.0875 -0.0208
 2831W        W 6882  10.094   3.413   9.518  0.1236  0.1902  0.1382
 2832W        W 6883   5.392   4.120   3.448  0.2250  0.3862 -0.0241
 2833W        W 6884   6.297   2.020  13.645  0.2232 -0.4739  0.0991
 2834W        W 6885   6.610   1.313   3.656  0.2797 -0.1049 -0.3110
 2835W        W 6886   4.009   3.986  12.495  0.1506 -0.2047 -0.0016
 2836W        W 6887   2.486   1.467   3.239 -0.1604  0.0530 -0.1992
 2837W        W 6888   8.555   0.169   3.499 -0.0429 -0.2169 -0.3120
 2838W        W 6889   7.243   4.727   2.491  0.1749 -0.0024 -0.2155
 2839W        W 6890   5.650   3.620   1.316 -0.1837 -0.0082  0.2456
 2840W        W 6891   6.231   2.338   2.759  0.0516 -0.0685  0.2036
 2841W        W 6892   1.209  10.009  11.411 -0.2462  0.0271 -0.2719
 2842W        W 6893   7.475   8.652  10.438 -0.3782  0.0791 -0.0949
 2843W        W 6894   1.677   5.020  11.330  0.0912 -0.2431  0.2194
 2844W        W 6895   7.586   5.373   1.794 -0.0030  0.1072 -0.1468
 2845W        W 6896   0.971   6.279   2.105  0.0937 -0.2967  0.0974
 2846W        W 6897   4.821   2.027   1.450 -0.0462  0.0856  0.0239
 2847W        W 6898   7.944   9.656   2.013 -0.0253 -0.3740  0.1560
 2848W        W 6899   5.999   4.412  11.808 -0.2572  0.0007 -0.0332
 2849W        W 6900   1.805   1.273   9.397  0.0126  0.2137  0.3787
 2850W        W 6901   0.589   3.300   4.865 -0.2563  0.2531 -0.0705
 2851W        W 6902   7.809   2.331  10.716 -0.1748  0.0872  0.0419
 2852W        W 6903   6.387   0.136   0.208 -0.3623 -0.1606 -0.0592
 2853W        W 6904   7.908   7.087  13.395 -0.2868  0.0587 -0.0975
 2854W        W 6905   0.010   2.078   3.713  0.4054 -0.0954  0.3488
 2855W        W 6906   8.555   1.738   0.642  0.0910 -0.1372  0.4372
 2856W        W 6907   9.153   1.507  12.302 -0.1943  0.1326 -0.2419
 2857W        W 6908   5.747   1.234   0.583  0.0776 -0.1580 -0.2606
 2858W        W 6909   1.106   3.245  11.073 -0.2198 -0.1475  0.1389
 2859W        W 6910   1.690   7.046  13.568  0.0686  0.1242 -0.0071
 2860W        W 6911   4.825   3.868  10.572 -0.0513 -0.2050  0.2244
 2861W        W 6912   3.768   6.034  12.572  0.2250  0.2904  0.0765
 2862W        W 6913   3.964   1.935   2.638 -0.0202 -0.2304 -0.1046
 2863W        W 6914   1.568   7.700  12.964 -0.0068  0.1600  0.0011
 2864W        W 6915   8.491   6.354   0.549  0.1560  0.2228  0.0062
 2865W        W 6916   0.919   4.509  11.331 -0.0313  0.1275  0.2780
 2866W        W 6917   8.933   4.024  12.474 -0.0522  0.0868 -0.0310
 2867W        W 6918   6.331   4.987  10.277 -0.1539  0.0526 -0.1703
 2868W        W 6919   4.302   1.377   2.939  0.0483  0.0858 -0.1469
 2869W        W 6920   2.095   5.065   0.152  0.0490 -0.0586  0.1768
 2870W        W 6921   2.832   0.040   4.476  0.1562 -0.1604  0.0068
 2871W        W 6922   8.194   9.616   3.790  0.0305 -0.2500  0.0173
 2872W        W 6923   1.680   3.459   4.343 -0.2259  0.2189  0.1068
 2873W        W 6924   0.182   3.498   0.674  0.1906  0.2296 -0.3905
 2874W        W 6925   7.923   4.947   3.155  0.2203 -0.0632 -0.1465
 2875W        W 6926   1.010   8.404  13.010  0.0590 -0.0302  0.0267
 2876W        W 6927   5.426   0.043   9.933  0.2561 -0.0844 -0.2365
 2877W        W 6928   6.281   0.846   9.309 -0.0818 -0.1796 -0.0138
 2878W        W 6929   0.783   7.604  13.227  0.4770 -0.0892 -0.0929
 2879W        W 6930   2.004   3.811   4.067 -0.1214 -0.2959  0.1364
 2880W        W 6931   6.745   3.007  10.197 -0.1041  0.1783 -0.2205
 2881W        W 6932   1.363   4.603   9.943 -0.2288  0.4611  0.2517
 2882W        W 6933   0.037   9.049   5.014 -0.5457  0.1170  0.1570
 2883W        W 6934   3.133   0.674   5.754  0.0934 -0.1743 -0.1068
 2884W        W 6935   8.952   6.626   4.356  0.1362  0.1601 -0.1560
 2885W        W 6936   0.728   6.881  12.326  0.2106 -0.1564 -0.0304
 2886W        W 6937   8.348   3.979  13.653 -0.2490 -0.2730  0.1101
 2887W        W 6938   6.872   2.700   2.204  0.1448 -0.0207  0.1597
 2888W        W 6939   8.883   4.291   4.677  0.3237  0.1788  0.1937
 2889W        W 6940   3.310   0.579   4.410 -0.1821  0.1075 -0.2160
 2890W        W 6941   6.607   0.944  10.179 -0.0030  0.0057  0.1441
 2891W        W 6942   7.953   7.411  12.954  0.2016  0.0508 -0.0222
 2892W        W 6943   2.112   2.890  13.310 -0.1329  0.0652  0.1350
 2893W        W 6944   6.425   0.363  12.389  0.0985  0.1284  0.0106
 2894W        W 6945   6.252   7.286   1.790 -0.2523 -0.0019  0.2415
 2895W        W 6946   3.020   8.967   2.907 -0.0529  0.3405 -0.1834
 2896W        W 6947   8.857   2.175   4.045 -0.3190  0.4895  0.0656
 2897W        W 6948   8.851   9.663  11.062 -0.1543 -0.2301  0.0097
 2898W        W 6949   2.222   3.042  11.691 -0.2116  0.2789  0.0451
 2899W        W 6950   2.847   6.276  11.154 -0.0874 -0.1656 -0.0103
 2900W        W 6951   0.352   4.514   1.195  0.1717 -0.0045  0.3812
 2901W        W 6952  10.078   5.724  13.701  0.1255 -0.0801 -0.2129
 2902W        W 6953   7.593   2.281   3.705 -0.2095 -0.4229  0.0435
 2903W        W 6954   4.293   4.244   3.133 -0.1193 -0.0674  0.0183
 2904W        W 6955   9.252   5.629   1.184  0.3002  0.2097 -0.1738
 2905W        W 6956   1.257   4.540   4.732  0.1029 -0.0254 -0.2254
 2906W        W 6957   9.392   9.868  11.657  0.0770 -0.2136  0.0316
 2907W        W 6958   5.166   0.653   0.442 -0.2059  0.3945 -0.0792
 2908W        W 6959   2.652   7.859  10.718  0.2393 -0.0421 -0.1445
 2909W        W 6960   2.452   5.353   1.928  0.0425  0.0514 -0.0465
 2910W        W 6961   8.171   1.762   2.247 -0.1816  0.2578 -0.1014
 2911W        W 6962   0.272   5.823   1.781  0.3079  0.1296 -0.2011
 2912W        W 6963   6.106   8.082  13.730  0.0453  0.0314 -0.0368
 2913W        W 6964   4.770   5.224  13.452 -0.1155 -0.3993  0.1644
 2914W        W 6965   1.247   8.984   0.150 -0.0527 -0.1622 -0.0623
 2915W        W 6966   4.069   7.847  10.781  0.0711  0.0293 -0.2470
 2916W        W 6967   0.093   2.275   3.156  0.2842  0.1404  0.0984
 2917W        W 6968   6.683   3.171   2.109 -0.0778  0.1270 -0.1196
 2918W        W 6969   2.650   8.855   5.519 -0.0763  0.1468  0.4692
 2919W        W 6970   9.419   3.171  13.618 -0.0467  0.1981 -0.3773
 2920W        W 6971   8.927   0.392   2.251  0.1503  0.2818  0.0453
 2921W        W 6972   2.511   4.406   1.569  0.0520 -0.0352 -0.2024
 2922W        W 6973   3.370   9.338   3.159 -0.2574 -0.2813  0.4288
 2923W        W 6974   4.571   1.258  12.106  0.1361 -0.0455  0.0782
 2924W        W 6975   9.121   8.753  11.089 -0.2065 -0.4518 -0.1474
 2925W        W 6976   3.276   9.605  12.797 -0.1328 -0.0922 -0.0663
 2926W        W 6977   6.258   7.914   3.731 -0.1154 -0.1310 -0.0089
 2927W        W 6978   3.530   3.569   2.049 -0.2819  0.0435  0.3282
 2928W        W 6979   1.385   4.026   0.088  0.4317  0.2519 -0.1082
 2929W        W 6980   1.228   6.948  13.880 -0.1244  0.0367  0.0220
 2930W        W 6981   4.406   1.156   0.542  0.0343  0.1846  0.1125
 2931W        W 6982   6.852   6.813  13.344 -0.1687 -0.1356 -0.1162
 2932W        W 6983   0.550   1.746   2.731  0.1851  0.0487  0.1482
 2933W        W 6984   8.860   4.606   0.381 -0.0335 -0.0339  0.1629
 2934W        W 6985   7.386   4.742  12.234 -0.0883  0.0269  0.1741
 2935W        W 6986   7.466   0.543  10.530  0.1588  0.1401 -0.3015
 2936W        W 6987   1.533   9.125   0.646 -0.1791 -0.2024 -0.1299
 2937W        W 6988   2.941   2.085   9.994  0.0844 -0.0695  0.2605
 2938W        W 6989   7.074   0.979   1.586 -0.0581  0.0045 -0.2165
 2939W        W 6990   4.394   1.937   5.442  0.0236  0.1251  0.0086
 2940W        W 6991   5.453   5.409  11.033  0.0592 -0.1159 -0.0762
 2941W        W 6992   1.055   6.974  11.373 -0.1219  0.4109 -0.1848
 2942W        W 6993   0.304   5.787   4.467  0.2392 -0.1164 -0.2644
 2943W        W 6994   8.547   5.390   3.532  0.2818 -0.0662 -0.3337
 2944W        W 6995   9.608   0.753   0.418  0.0981 -0.0156 -0.0466
 2945W        W 6996   3.074   4.530   0.398 -0.0174  0.4726 -0.0034
 2946W        W 6997   4.836   9.986   2.496  0.0016 -0.2382  0.1133
 2947W        W 6998   0.266   4.170   4.546 -0.0954  0.0578  0.1135
 2948W        W 6999   1.015   6.075  12.886 -0.2289  0.1254 -0.0885
 2949W        W 7000  10.123   7.935   9.538 -0.1432 -0.1251 -0.0622
 2950W        W 7001   6.273   7.691   0.015 -0.3372 -0.0736 -0.0645
 2951W        W 7002   4.224   7.205  12.226  0.1724  0.1673 -0.1003
 2952W        W 7003   2.378   0.063   2.881  0.1439 -0.0928 -0.2086
 2953W        W 7004   8.765   6.932   3.044 -0.0774 -0.1317 -0.1095
 2954W        W 7005   4.408   4.238   0.365  0.2931  0.1850 -0.1213
 2955W        W 7006   4.953   0.667   0.016 -0.1919  0.1453 -0.5276
 2956W        W 7007   9.975   2.687   9.630  0.0069 -0.1751 -0.2237
 2957W        W 7008   2.984   9.332   1.330 -0.0935 -0.2122  0.2225
 2958W        W 7009   2.673   8.384   2.423 -0.1970  0.0546  0.0016
 2959W        W 7010   7.837   1.058   0.887  0.0344 -0.0261  0.1387
 2960W        W 7011   7.567   9.549  11.073 -0.2979 -0.0489 -0.2100
 2961W        W 7012   9.164   0.960   0.611  0.0295  0.0985  0.0352
 2962W        W 7013   4.503   3.919   0.727  0.2972  0.1325 -0.0420
 2963W        W 7014   7.261   7.936  14.013 -0.1304  0.1748  0.1953
 2964W        W 7015   7.043   4.897   1.112  0.1559 -0.0703  0.0543
 2965W        W 7016   4.745   9.597   4.390  0.0327  0.0440  0.1612
 2966W        W 7017   7.235   6.780  11.430  0.3472  0.0771 -0.0230
 2967W        W 7018   4.239   4.066  12.037 -0.0708  0.1784 -0.0214
 2968W        W 7019   1.468   8.962  10.984 -0.0021  0.1733 -0.0486
 2969W        W 7020   3.782   1.388   0.313 -0.2123  0.0266  0.0673
 2970W        W 7021   2.817   9.189   0.793 -0.1779 -0.0358  0.0987
 2971W        W 7022   7.516   5.911   9.247 -0.0154 -0.1988 -0.1655
 2972W        W 7023   2.987  10.068  11.673 -0.0975 -0.1992  0.2304
 2973W        W 7024   3.209   4.159  11.116 -0.1424  0.2371 -0.2068
 2974W        W 7025   6.271   3.364   0.724  0.5017 -0.3625  0.1233
 2975W        W 7026   2.110   9.006   8.666 -0.2733  0.0796  0.0471
 2976W        W 7027   1.410   3.271   4.752  0.0993  0.0484 -0.0686
 2977W        W 7028   2.584   0.094  12.707 -0.1168 -0.1107 -0.0252
 2978W        W 7029   3.543   6.332   0.782 -0.1967 -0.1241 -0.1930
 2979W        W 7030   1.858   3.831   3.089 -0.0216  0.0837  0.0499
 2980W        W 7031   2.663   2.911  13.275  0.2515  0.1009  0.1281
 2981W        W 7032   6.802   9.985  10.634  0.0878  0.1986 -0.1659
 2982W        W 7033   7.049   3.210   1.729  0.1931 -0.0471 -0.0538
 2983W        W 7034   9.892   6.900  12.738  0.1361  0.0626 -0.3577
 2984W        W 7035   5.463   0.817   3.252 -0.1958  0.3860 -0.0213
 2985W        W 7036   1.846   3.823  13.003 -0.1950 -0.0895 -0.3021
 2986W        W 7037   6.038   3.284   9.291 -0.2518  0.2555 -0.3167
 2987W        W 7038   6.718   3.638   9.544  0.1331  0.0752 -0.0823
 2988W        W 7039   7.444   0.814  12.206  0.1146 -0.2245  0.2867
 2989W        W 7040   8.227   5.809  11.169  0.0577 -0.0014 -0.1156
 2990W        W 7041   0.175   6.703   2.652  0.0817  0.5175  0.1468
 2991W        W 7042   1.200   3.268   4.239 -0.1599 -0.2174  0.1018
 2992W        W 7043   6.713   9.779  11.066 -0.2206 -0.2066 -0.1564
 2993W        W 7044   6.765   0.326   9.794 -0.0033  0.1457 -0.2145
 2994W        W 7045   9.277   1.503   9.964 -0.0947  0.0379  0.0762
 2995W        W 7046   9.362   5.720  12.342 -0.1775 -0.0951 -0.0652
 2996W        W 7047   9.561   5.774   9.527 -0.3186 -0.1311  0.0146
 2997W        W 7048   0.530   0.200   8.534  0.0276  0.0092 -0.1506
 2998W        W 7049   7.388   1.106  12.910 -0.2703  0.3641  0.0544
 2999W        W 7050   0.764   8.132  13.422  0.3520 -0.0176 -0.0444
 3000W        W 7051   7.418   9.975  12.151  0.1669  0.0424  0.0552
 3001W        W 7052   0.718   4.231   4.293  0.0494 -0.1842  0.0655
 3002W        W 7053   4.166   2.334   2.357  0.3275 -0.0013  0.2532
 3003W        W 7054   4.556   2.824   4.235  0.1114 -0.0839 -0.2138
 3004W        W 7055   6.996   6.617  12.540  0.2020  0.1632  0.0267
 3005W        W 7056   9.441   6.364   5.083 -0.1586  0.0275  0.0043
 3006W        W 7057   1.690   8.482   2.071 -0.0109 -0.1689 -0.2817
 3007W        W 7058   1.902   2.763  12.081 -0.1258 -0.2853 -0.0626
 3008W        W 7059   2.594   5.677  12.609  0.0241  0.1847 -0.1584
 3009W        W 7060   1.990   4.985  10.269  0.3234 -0.1461  0.3127
 3010W        W 7061   8.544   5.817  10.338  0.1616  0.3664  0.1046
 3011W        W 7062   8.106   4.919   9.978  0.1607  0.1507 -0.1833
 3012W        W 7063   8.076   0.193  11.262  0.1168  0.1200 -0.0778
 3013W        W 7064   5.417   5.530  11.791 -0.1055  0.0092 -0.2136
 3014W        W 7065   2.709   0.380  10.219 -0.1773  0.3807  0.2511
 3015W        W 7066   5.611   0.696  13.960  0.2502  0.3334  0.2116
 3016W        W 7067   0.357   9.821   4.634  0.1461 -0.1036  0.0260
 3017W        W 7068   2.798   7.300   9.924  0.3078  0.0438  0.0527
 3018W        W 7069   0.894   2.255  13.673 -0.0068 -0.0758  0.3828
 3019W        W 7070   8.427   3.923   0.639  0.0749  0.0818 -0.2149
 3020W        W 7071   7.523   7.288  13.208  0.0820 -0.0855  0.1380
 3021W        W 7072   4.185   7.543  11.300 -0.0737  0.1363  0.1330
 3022W        W 7073   8.719   3.473  10.756  0.1490 -0.0744  0.2088
 3023W        W 7074   7.985   0.897   3.264 -0.1620  0.3105  0.1180
 3024W        W 7075   2.323   9.935   4.570  0.0400 -0.1501  0.0423
 3025W        W 7076   8.009   3.729  12.294 -0.0394 -0.3035  0.0435
 3026W        W 7077   2.454   1.517   1.214 -0.0693 -0.0622  0.1743
 3027W        W 7078   7.101   2.883  10.557 -0.1990  0.2234 -0.0392
 3028W        W 7079   7.263   2.833   1.903  0.1537  0.1193  0.2445
 3029W        W 7080   8.782   9.699  10.160 -0.1216  0.2263 -0.1547
 3030W        W 7081   1.210   9.395  10.097 -0.0899 -0.2677 -0.2131
 3031W        W 7082   1.442   3.794  12.699 -0.0435 -0.1775 -0.1167
 3032W        W 7083   9.751   3.113   5.642 -0.1337  0.0929  0.1763
 3033W        W 7084   2.407   2.934  10.343  0.0727  0.0467  0.3917
 3034W        W 7085   5.618   7.183   1.914 -0.1752  0.0052  0.3225
 3035W        W 7086   1.857   9.059   4.256 -0.1446 -0.1328 -0.0936
 3036W        W 7087   2.693   6.364  13.368 -0.1660  0.0651  0.1933
 3037W        W 7088   0.403   5.806  13.833  0.0158  0.0890 -0.3772
 3038W        W 7089   3.216   4.366   2.270 -0.1850 -0.2243 -0.1396
 3039W        W 7090   7.059   9.296  10.080 -0.0432 -0.0224  0.1950
 3040W        W 7091   7.165   0.025  13.879  0.0359 -0.3419  0.0713
 3041W        W 7092   0.229   0.258   3.514  0.0609 -0.1712 -0.1431
 3042W        W 7093   4.447   1.285  13.613 -0.0609 -0.0020  0.1674
 3043W        W 7094   4.629   1.035  11.668  0.0856 -0.2326  0.2945
 3044W        W 7095   1.243   1.298   2.490  0.0427  0.1493 -0.2294
 3045W        W 7096   2.136   8.999  11.799 -0.0712  0.0919  0.3038
 3046W        W 7097   1.056   5.264   2.868 -0.0025  0.1497  0.4892
 3047W        W 7098   0.491   3.630  11.294  0.0219 -0.3731 -0.1451
 3048W        W 7099   5.500   8.229  11.173  0.2321  0.3377 -0.0574
 3049W        W 7100   7.450   8.009   2.472 -0.0006  0.0705 -0.0335
 3050W        W 7101   8.945   2.170   2.474  0.1470  0.0643 -0.2854
 3051W        W 7102   0.133   3.159  12.680  0.3884 -0.1137  0.3944
 3052W        W 7103   5.113   6.313   1.257  0.0328  0.1192  0.2498
 3053W        W 7104   6.988   7.912  13.456  0.3004 -0.2131  0.0190
 3054W        W 7105   0.908   5.914  13.849 -0.0298  0.2453 -0.3906
 3055W        W 7106   8.542   0.677   4.810  0.1059  0.1109 -0.1562
 3056W        W 7107   3.100   7.931  10.468 -0.0667 -0.2194 -0.1266
 3057W        W 7108   0.455   0.187   9.748  0.1046  0.1740 -0.1159
 3058W        W 7109   9.311   0.435   1.112  0.2368 -0.4543 -0.0450
 3059W        W 7110   7.694   8.907   1.262  0.0616  0.3062 -0.1001
 3060W        W 7111   4.731   3.528   9.594 -0.0107  0.3935  0.2353
 3061W        W 7112   1.326   9.859   8.752 -0.0005  0.0012 -0.0751
 3062W        W 7113   8.635   1.624  10.764 -0.2827  0.1581 -0.0225
 3063W        W 7114   5.762   7.711   3.174  0.2049 -0.0009 -0.2947
 3064W        W 7115   3.406   5.331  11.382 -0.1472 -0.0133  0.2230
 3065W        W 7116   9.809   9.694   4.867  0.2084 -0.1431 -0.2263
 3066W        W 7117   7.046   4.134   9.351  0.0381  0.1637 -0.0221
 3067W        W 7118   1.192   9.304  12.546 -0.2455 -0.0894  0.3085
 3068W        W 7119   6.053   3.010  13.763 -0.3053 -0.0987 -0.1141
 3069W        W 7120   7.045   2.442  12.420  0.1392  0.1163  0.0125
 3070W        W 7121  10.079   3.673   1.064 -0.1123 -0.0739  0.0312
 3071W        W 7122   0.928   2.436  10.859 -0.0703 -0.0038  0.4564
 3072W        W 7123   3.685   4.672  10.590 -0.0945  0.0670 -0.2238
 3073W        W 7124   5.680   2.765  10.736  0.1491  0.1797 -0.0452
 3074W        W 7125   8.944   0.285   2.748  0.1237  0.3556 -0.2548
 3075W        W 7126   9.706   1.734  10.929  0.2181 -0.0334  0.3546
 3076W        W 7127  10.087   0.007   9.548  0.3721 -0.1757 -0.0060
 3077W        W 7128   4.624   7.120   0.388 -0.2146  0.5387 -0.2116
 3078W        W 7129   4.989   2.486   0.882 -0.1064 -0.1979 -0.0903
 3079W        W 7130   7.144   6.011  11.812 -0.2378 -0.0599  0.2155
 3080W        W 7131   8.551   4.785  12.051 -0.2740  0.2882  0.0889
 3081W        W 7132   2.277   6.184  13.025 -0.1362  0.0101  0.1151
 3082W        W 7133   7.203   1.483   3.514  0.1047  0.0995  0.0087
 3083W        W 7134   5.326   8.507   4.024  0.1477 -0.0852 -0.2339
 3084W        W 7135   2.158   0.196  13.056  0.1795 -0.1923 -0.1729
 3085W        W 7136   9.651   0.769   2.565 -0.4231 -0.0867 -0.0446
 3086W        W 7137   2.272   7.479   3.576 -0.1802  0.2900  0.1174
 3087W        W 7138   2.288   1.595  13.467 -0.0525  0.2539  0.0779
 3088W        W 7139   7.872   7.782   2.250  0.0048 -0.2753 -0.2054
 3089W        W 7140   7.039   9.562  10.674 -0.0392  0.0622  0.2016
 3090W        W 7141   7.770   2.502   1.715 -0.0618 -0.2854 -0.0759
 3091W        W 7142   4.999   8.902  12.210  0.0609 -0.3276  0.0966
 3092W        W 7143   7.961   8.685  12.424 -0.0347 -0.0156  0.0355
 3093W        W 7144   4.490   9.335   4.722  0.0068 -0.0635 -0.0176
 3094W        W 7145   1.261   8.739   0.557  0.0112  0.0801 -0.0256
 3095W        W 7146   7.559   7.171  13.746 -0.1044  0.0887  0.0872
 3096W        W 7147   1.505   8.257   4.594 -0.5603  0.0775  0.0676
 3097W        W 7148   4.448   9.028   2.590  0.1045 -0.2267 -0.1315
 3098W        W 7149   3.822   1.931  12.661 -0.1414  0.1047 -0.2870
 3099W        W 7150   8.192   0.676  12.864 -0.1625 -0.1750 -0.0350
 3100W        W 7151   8.283   9.832   2.792  0.1500  0.0752  0.0559
 3101W        W 7152   6.535   9.289   4.901 -0.1582  0.1079  0.0368
 3102W        W 7153   6.056   8.078   9.694 -0.1491 -0.2527  0.1502
 3103W        W 7154   0.474   4.539   2.762 -0.0292  0.3174  0.1644
 3104W        W 7155   8.021   3.084  10.585  0.1144  0.2000  0.1398
 3105W        W 7156  10.096   6.467  12.564  0.0354 -0.0223 -0.1415
 3106W        W 7157   4.983   6.834   1.398  0.1249 -0.4502 -0.2283
 3107W        W 7158   7.931   8.590   1.676 -0.4352 -0.0447 -0.0422
 3108W        W 7159   9.554   7.973   0.358  0.1371  0.1221  0.0959
 3109W        W 7160   0.631   6.634   2.987  0.3341  0.3633  0.2909
 3110W        W 7161   8.580   2.302  11.370 -0.2404  0.1403 -0.1170
 3111W        W 7162   9.494   1.092  10.280  0.0439 -0.4686  0.1015
 3112W        W 7163   0.070   0.607   3.851  0.0294 -0.0338  0.0045
 3113W        W 7164   3.791   5.332   3.457  0.1136  0.2289  0.1521
 3114W        W 7165   4.891   9.335   2.638 -0.2777  0.0064  0.2763
 3115W        W 7166   3.949   9.651   9.274 -0.0464  0.1676  0.1275
 3116W        W 7167   9.138   0.209  11.973 -0.2365  0.2143  0.1089
 3117W        W 7168   4.717   2.366  13.127  0.2628 -0.1836  0.0692
 3118W        W 7169   0.609   5.511  12.470  0.1091  0.2389 -0.0203
 3119W        W 7170   0.961   9.465   4.112  0.1000 -0.0501  0.2733
 3120W        W 7171   6.544   0.966  12.482 -0.2251 -0.2945 -0.0189
 3121W        W 7172   7.260   1.611  10.196  0.0932 -0.1761 -0.0162
 3122W        W 7173   1.431   3.076   1.536 -0.1209  0.2307 -0.0480
 3123W        W 7174   8.357   7.854   1.467  0.0056 -0.0900 -0.1952
 3124W        W 7175   9.491   8.032  13.138  0.0392 -0.3113 -0.2233
 3125W        W 7176   5.487  10.094  12.830 -0.0588  0.2257  0.3246
 3126W        W 7177   7.210   2.639   3.529 -0.1231  0.0584 -0.1661
 3127W        W 7178   7.312   9.109  11.466 -0.2260 -0.0001 -0.0026
 3128W        W 7179   4.805   0.188  11.760  0.1203  0.1078 -0.1853
 3129W        W 7180  10.105   5.576  11.294  0.2264  0.0312 -0.0141
 3130W        W 7181   7.361   9.524   1.102 -0.0844  0.0876  0.2723
 3131W        W 7182   4.536   2.515  11.326  0.1936  0.0044 -0.1728
 3132W        W 7183   3.066   3.534   3.496  0.1376 -0.2244  0.1478
 3133W        W 7184   9.843   8.413   1.082 -0.0711  0.0082  0.1600
 3134W        W 7185   0.377   4.058   2.639  0.1456  0.1424  0.2876
 3135W        W 7186   5.812   6.964  12.435  0.2004 -0.0712  0.1181
 3136W        W 7187   6.986   2.251   0.278 -0.0913  0.0061  0.3769
 3137W        W 7188   1.137   4.955  13.787  0.0611  0.2431  0.3952
 3138W        W 7189   4.348   7.123   2.196 -0.0184  0.0415  0.0834
 3139W        W 7190   3.336   7.007  11.219 -0.4160  0.0903 -0.2030
 3140W        W 7191   2.003   6.112  11.943 -0.2702 -0.2859  0.0056
 3141W        W 7192   7.448   2.863   1.412  0.1532 -0.1601 -0.0054
 3142W        W 7193   0.664   2.944   1.362  0.2238 -0.2750  0.2036
 3143W        W 7194   7.666   4.173   1.050 -0.2401 -0.0629 -0.0937
 3144W        W 7195   1.582   0.842   2.517 -0.2346 -0.0125 -0.1440
 3145W        W 7196   9.083   1.262   0.960 -0.1315  0.3205  0.2785
 3146W        W 7197   7.102   6.366  13.387  0.2118  0.1159 -0.3781
 3147W        W 7198   5.417   7.558  11.839  0.0131 -0.0227 -0.1426
 3148W        W 7199   7.712   3.107  13.699 -0.0247 -0.1410 -0.2044
 3149W        W 7200   7.380   5.355  13.208 -0.0850  0.0633 -0.0032
 3150W        W 7201   0.788   7.034   9.299  0.0576  0.2259 -0.0316
 3151W        W 7202   6.528   9.671  13.523 -0.1128  0.0359  0.0461
 3152W        W 7203   2.800   0.343   0.872  0.1009  0.0205  0.1951
 3153W        W 7204   3.763   7.404   0.130 -0.1711 -0.1495 -0.1154
 3154W        W 7205   1.999   6.692   0.911  0.1780  0.2902  0.1822
 3155W        W 7206   9.140   7.323   4.154  0.1385 -0.0182  0.0639
 3156W        W 7207   1.889   8.436  11.380  0.0846 -0.1542 -0.3164
 3157W        W 7208   2.692   4.387   0.769  0.1575  0.2545  0.1307
 3158W        W 7209   2.687   1.166   1.465 -0.0509  0.1637  0.0703
 3159W        W 7210   0.121   5.064   3.333  0.4284 -0.0376 -0.1690
 3160W        W 7211   7.795   5.684  12.366  0.1583 -0.3300  0.0413
 3161W        W 7212   5.539   1.087   4.651 -0.5647  0.2091 -0.1746
 3162W        W 7213   6.566   1.058  13.132 -0.3660 -0.1713 -0.0213
 3163W        W 7214   5.126   4.173   3.044  0.0300 -0.0283 -0.0572
 3164W        W 7215   7.356   6.830  13.366 -0.0600 -0.2041  0.1625
 3165W        W 7216   9.989   3.788   3.981  0.0708 -0.0017 -0.3141
 3166W        W 7217   0.108   4.507  13.366 -0.5548  0.0265 -0.0499
 3167W        W 7218   7.254   4.698  14.027 -0.0216 -0.2458  0.1062
 3168W        W 7219   1.203   8.133  12.219  0.2899 -0.0594  0.0528
 3169W        W 7220   9.821   3.642   4.887 -0.0810  0.0026 -0.0486
 3170W        W 7221   4.826   8.040   3.265  0.0671 -0.2903 -0.1412
 3171W        W 7222   1.722   3.651   1.307  0.3286 -0.0127 -0.0097
 3172W        W 7223   4.472   4.311  10.753 -0.2536 -0.1652 -0.3132
 3173W        W 7224  10.106   9.273  13.524 -0.8452  0.5104  0.5300
 3174W        W 7225   5.957   5.446  13.275 -0.2694 -0.0787  0.0967
 3175W        W 7226   5.661   0.128  13.724 -0.0407 -0.0042  0.0052
 3176W        W 7227   6.457   8.298   9.479  0.0397  0.2553  0.1683
 3177W        W 7228   2.868   0.972   4.800  0.0787 -0.0918 -0.0514
 3178W        W 7229   1.473   0.970  11.209  0.0430  0.1507 -0.5781
 3179W        W 7230   1.238   3.597  12.098  0.0706 -0.1628 -0.1025
 3180W        W 7231   9.595   0.922  13.010  0.0927  0.0607  0.0788
 3181W        W 7232   2.045   9.368   3.443 -0.3755  0.2063 -0.1412
 3182W        W 7233   1.766   7.477  10.882 -0.0294 -0.2779 -0.3660
 3183W        W 7234   5.995   8.455   2.974 -0.0503  0.1525  0.1248
 3184W        W 7235   5.580   3.426   1.797 -0.0559  0.1056  0.3536
 3185W        W 7236   5.422  10.028   3.530  0.2589 -0.0032 -0.0441
 3186W        W 7237   6.944   4.003   0.669 -0.2894 -0.2502  0.3685
 3187W        W 7238   6.433   8.644  11.724  0.2312 -0.0323 -0.2939
 3188W        W 7239   0.610   6.753   2.192 -0.1657 -0.1003 -0.2162
 3189W        W 7240   9.628   2.010  11.560 -0.1560  0.2135 -0.3749
 3190W        W 7241   1.700   0.028   1.479 -0.0335  0.0942 -0.0426
 3191W        W 7242   3.614   0.486   2.611 -0.1231  0.3422  0.2202
 3192W        W 7243   2.321   3.154   0.272  0.2761 -0.0537  0.0531
 3193W        W 7244   3.280   7.418  12.251 -0.0482 -0.0382 -0.1165
 3194W        W 7245   4.839   5.077  11.902  0.2965  0.2128  0.1497
 3195W        W 7246   2.429   2.064   0.314  0.2526  0.2620  0.0132
 3196W        W 7247   2.904   8.061   1.500  0.3597 -0.2434 -0.1163
 3197W        W 7248   9.991   6.818   3.344 -0.0867 -0.1772  0.1356
 3198W        W 7249   5.546   2.128   2.279 -0.1239  0.4761 -0.2487
 3199W        W 7250   8.403   1.071   2.531 -0.0195  0.0544  0.2121
 3200W        W 7251   8.515   8.161  12.071  0.0576 -0.1351  0.1916
 3201W        W 7252   9.534   6.212  10.283  0.1077  0.0333 -0.2020
 3202W        W 7253   9.517   8.907  10.924  0.0006 -0.0963 -0.1108
 3203W        W 7254   9.355   3.592   4.003 -0.0713 -0.1809  0.1442
 3204W        W 7255   7.006   8.541  12.815  0.0525 -0.3380 -0.2181
 3205W        W 7256   5.725   3.249   2.787 -0.0213  0.2911  0.3282
 3206W        W 7257   8.069   7.210  12.513  0.0523 -0.0528  0.0337
 3207W        W 7258   8.523   7.907  10.521 -0.0273  0.2002  0.3737
 3208W        W 7259   4.776   3.062  13.830 -0.2947  0.2787 -0.3478
 3209W        W 7260  10.144   9.229  12.976  0.2384 -0.3241  0.1042
 3210W        W 7261   9.564   9.053  12.319 -0.1127 -0.4007 -0.2618
 3211W        W 7262   6.351   7.491  10.399 -0.1774 -0.0434 -0.1740
 3212W        W 7263   7.505   2.493  10.088  0.0601  0.1130 -0.1036
 3213W        W 7264   5.162   8.896  11.228  0.0232 -0.1852 -0.2827
 3214W        W 7265   8.712   6.513   3.878  0.1339 -0.1465 -0.0192
 3215W        W 7266   5.180   5.040   3.345 -0.3791  0.1142  0.1205
 3216W        W 7267   9.180   8.704   2.770 -0.2015  0.0302  0.0372
 3217W        W 7268   8.671   9.438  13.907  0.4552  0.1665  0.2293
 3218W        W 7269   1.907   9.565   0.197 -0.1132 -0.2300  0.1294
 3219W        W 7270   3.636   2.906   4.206 -0.2101 -0.0660  0.2820
 3220W        W 7271   0.821   1.294   8.166 -0.0012 -0.4919 -0.2740
 3221W        W 7272   7.422   0.662   1.130 -0.1934 -0.0456  0.1602
 3222W        W 7273   0.655   2.260   9.229  0.2903 -0.0963  0.1968
 3223W        W 7274   6.692   4.436  10.943  0.1142 -0.1099  0.0396
 3224W        W 7275   0.529   1.132   9.400 -0.0027 -0.0649 -0.0010
 3225W        W 7276   7.943   4.067   0.603  0.3357 -0.2741  0.2212
 3226W        W 7277   0.118   5.002   9.837 -0.0144 -0.3729 -0.2574
 3227W        W 7278   6.964   0.084   2.547  0.1520 -0.2118  0.1378
 3228W        W 7279   0.463   1.805   0.284 -0.0959  0.2567  0.3248
 3229W        W 7280   3.138   0.515   2.795 -0.2346  0.2173  0.1113
 3230W        W 7281   8.869   4.275  10.588  0.2771 -0.1036  0.0365
 3231W        W 7282   1.608   0.400  12.880 -0.2621 -0.4958 -0.0174
 3232W        W 7283   8.502   3.874   2.355  0.1190  0.1812  0.0701
 3233W        W 7284   0.664   3.049  10.993  0.1705  0.4625  0.0384
 3234W        W 7285   3.042   9.051  14.036  0.3247 -0.1929  0.0433
 3235W        W 7286   5.661   4.700   2.779  0.1810  0.0416 -0.1685
 3236W        W 7287   7.997   9.504   9.969 -0.0659  0.0589  0.1590
 3237W        W 7288   0.496   6.367  13.677  0.1004 -0.1063 -0.0523
 3238W        W 7289  10.051   6.554   4.197 -0.3653  0.0823 -0.2781
 3239W        W 7290   3.664   2.421   2.766  0.2819  0.0447  0.0153
 3240W        W 7291   4.409   6.218  12.284  0.3676  0.0443 -0.1115
 3241W        W 7292   1.654   7.320   0.409  0.1025 -0.4760 -0.2219
 3242W        W 7293   0.521   0.968  11.373 -0.0622 -0.0276  0.0212
 3243W        W 7294   4.266   7.216  12.728  0.2654 -0.3136 -0.3569
 3244W        W 7295   3.150   3.953  12.952 -0.0364  0.1722  0.1527
 3245W        W 7296   0.005   3.728  12.906  0.2090  0.0509 -0.2543
 3246W        W 7297   3.624   6.490  12.307 -0.0428 -0.1325 -0.0675
 3247W        W 7298   0.187   6.667   1.881  0.3331  0.1877 -0.0549
 3248W        W 7299   5.152   1.442  10.980  0.2432 -0.0647  0.1738
 3249W        W 7300   6.622   0.552   3.303  0.1788 -0.0351  0.2073
 3250W        W 7301   3.476   7.136   4.187  0.0415 -0.0269  0.0359
 3251W        W 7302   1.328   5.499   2.524  0.1814  0.0374 -0.3180
 3252W        W 7303   5.365   3.704   3.743  0.1614 -0.3685  0.0829
 3253W        W 7304   9.525   4.051   4.103 -0.3698 -0.0820 -0.0781
 3254W        W 7305   2.214   3.594   0.420  0.0612 -0.1840 -0.2526
 3255W        W 7306   3.415   2.279   4.073 -0.0829 -0.0705  0.1790
 3256W        W 7307   1.780   7.042   4.890 -0.1701 -0.0795 -0.0727
 3257W        W 7308   9.788   4.476  13.091 -0.3549  0.1663 -0.1362
 3258W        W 7309   0.401   3.092  13.691 -0.2027  0.0903 -0.2426
 3259W        W 7310   4.429   6.011   1.438 -0.0286 -0.0570  0.3418
 3260W        W 7311   9.205   0.700  11.224 -0.1516  0.0619  0.2373
 3261W        W 7312   3.622   9.076  12.944 -0.0332 -0.0154 -0.1750
 3262W        W 7313   5.535   2.579  13.412 -0.0952  0.0387 -0.0641
 3263W        W 7314   0.672   5.375  10.293 -0.0286 -0.1548 -0.1422
 3264W        W 7315   6.147   5.414  11.761 -0.1830  0.3806  0.1479
 3265W        W 7316   1.674   7.802   4.222 -0.1507  0.2575  0.2097
 3266W        W 7317   9.604   1.812  12.089 -0.1294  0.0153  0.2429
 3267W        W 7318   9.900   5.006  11.831 -0.0544 -0.0509 -0.0121
 3268W        W 7319   1.384   7.082  10.044  0.2967  0.1033  0.3789
 3269W        W 7320   8.809   5.369   2.180  0.3649 -0.1366  0.1833
 3270W        W 7321   5.624   3.242  11.812 -0.0409  0.0317  0.2709
 3271W        W 7322   7.884   0.181   5.206 -0.1184  0.1486 -0.1150
 3272W        W 7323   7.523   4.318   1.520  0.3553  0.0855  0.3393
 3273W        W 7324   2.490   6.121  10.801 -0.1622  0.0565 -0.0354
 3274W        W 7325   6.419   6.471  11.282  0.2130 -0.0190  0.1185
 3275W        W 7326   7.882   8.403  11.373  0.1761  0.2190  0.0975
 3276W        W 7327   4.351   3.205  12.267 -0.1706  0.0760 -0.0274
 3277W        W 7328   9.034   4.365  11.034  0.0532 -0.1890  0.0501
 3278W        W 7329   9.814   2.734  11.875 -0.5160 -0.2860 -0.1018
 3279W        W 7330   8.151   3.300   1.686  0.3172  0.0501 -0.1971
 3280W        W 7331   1.475   3.841   3.511  0.2683  0.1031 -0.0869
 3281W        W 7332   5.532   0.408   2.592 -0.0652  0.2584  0.0703
 3282W        W 7333   5.515   6.643  12.640 -0.0945 -0.0635 -0.2843
 3283W        W 7334   2.367   3.823  13.066 -0.4229 -0.0890  0.2502
 3284W        W 7335   4.139   6.277  12.708 -0.0606 -0.2790 -0.0292
 3285W        W 7336   9.469   5.900   4.415  0.0019  0.0434  0.0559
 3286W        W 7337   9.290   3.897   1.776  0.0457 -0.0359 -0.0235
 3287W        W 7338   4.950   8.960   9.891 -0.2185  0.1203 -0.1391
 3288W        W 7339   4.245   6.798  12.965 -0.0802  0.0562 -0.0415
 3289W        W 7340   6.763   0.068  12.678 -0.0878 -0.0453  0.0922
 3290W        W 7341   4.808   1.613  12.663 -0.0845 -0.3321  0.2151
 3291W        W 7342   2.126   7.918  10.746  0.1429  0.0736 -0.3255
 3292W        W 7343   5.299   3.691   3.032 -0.0180 -0.0460  0.0265
 3293W        W 7344   5.753   2.464   3.447 -0.0295 -0.1999  0.1213
 3294W        W 7345   3.944   2.877  13.117 -0.0235 -0.0936 -0.3415
 3295W        W 7346   5.216   8.652   9.639  0.0949  0.3443  0.0782
 3296W        W 7347   9.948   7.744   3.008 -0.0624  0.0163  0.1600
 3297W        W 7348   3.192   8.638   2.515  0.1865 -0.2224  0.0499
 3298W        W 7349   4.400   7.777   1.297 -0.3912 -0.0762 -0.2140
 3299W        W 7350   9.572   2.879   2.077  0.1920  0.1541 -0.0978
 3300W        W 7351   2.437   4.687  12.816 -0.1037  0.0921  0.3596
 3301W        W 7352   4.029   3.262   4.462 -0.0563  0.2159 -0.0093
 3302W        W 7353   3.673   1.855  11.738  0.0761 -0.2289 -0.1063
 3303W        W 7354   6.001   5.768  10.723  0.1477  0.2302  0.0992
 3304W        W 7355   8.831   5.754   0.918 -0.0993  0.2712  0.2007
 3305W        W 7356   3.175   0.242   9.403  0.2662  0.0775 -0.0721
 3306W        W 7357   2.106   0.767  10.338 -0.2890 -0.2206 -0.1775
 3307W        W 7358   3.028   8.758   4.658 -0.0582  0.1897  0.1594
 3308W        W 7359   6.485   1.817  10.549 -0.0881 -0.0221 -0.1126
 3309W        W 7360   4.829   2.903  12.117 -0.2197  0.0964 -0.0979
 3310W        W 7361   9.501   6.173  13.657  0.2127 -0.2837 -0.0896
 3311W        W 7362   6.647   4.158   2.127  0.0470  0.0471 -0.1294
 3312W        W 7363   4.492   0.364  13.233  0.1887  0.1873  0.1786
 3313W        W 7364   2.937   6.032   2.475  0.0199 -0.1349 -0.0775
 3314W        W 7365   0.534   2.039   3.576  0.1404  0.2907 -0.1379
 3315W        W 7366   3.330   9.359  10.286  0.1382 -0.2951  0.0893
 3316W        W 7367   1.311   2.013  12.682  0.1133  0.0192 -0.3792
 3317W        W 7368   5.725   3.495   2.352  0.0427 -0.0749  0.0589
 3318W        W 7369   8.469   8.643   1.862  0.0085  0.0886 -0.1846
 3319W        W 7370   0.840   5.365   2.309  0.1737  0.0792 -0.0888
 3320W        W 7371   6.943   5.428  11.956 -0.1759 -0.4642 -0.1805
 3321W        W 7372   0.420   8.326  11.436 -0.1300 -0.1295  0.0803
 3322W        W 7373   7.469   6.304  11.560 -0.2233  0.0530 -0.1097
 3323W        W 7374   1.031   5.937   1.115 -0.0736  0.2275  0.1270
 3324W        W 7375   0.938   1.223  13.738 -0.0667 -0.0461  0.2201
 3325W        W 7376   7.553   3.777  10.112 -0.1414 -0.2105  0.1233
 3326W        W 7377   1.493   9.872   0.110  0.1130  0.1337 -0.1338
 3327W        W 7378   1.498   1.152  13.699 -0.2058  0.0350 -0.0010
 3328W        W 7379   6.258   2.240   4.602 -0.1953 -0.0756  0.2586
 3329W        W 7380   4.060   3.087  13.977 -0.0635  0.2675  0.2034
 3330W        W 7381   1.318   3.897   1.398  0.2065 -0.0279  0.2096
 3331W        W 7382   2.748   7.144   2.690 -0.0430 -0.1500  0.1181
 3332W        W 7383   8.412   6.929   1.728  0.1676 -0.2487  0.0837
 3333W        W 7384   6.299   0.879   4.944  0.2420  0.2255  0.1558
 3334W        W 7385   9.866   5.096  12.355  0.1756 -0.1998 -0.1636
 3335W        W 7386   2.076   8.903  12.271  0.1190 -0.0536 -0.4211
 3336W        W 7387   0.229   6.880   9.474 -0.0168 -0.1460 -0.0001
 3337W        W 7388   5.033   0.671  11.663  0.2345  0.1285  0.1962
 3338W        W 7389   6.471   6.889  10.334  0.2657  0.1273  0.0755
 3339W        W 7390   1.780   2.361  12.958 -0.1093  0.1263  0.0370
 3340W        W 7391   6.045   1.206   3.515 -0.2740 -0.0230  0.1444
 3341W        W 7392   6.525   0.087   0.712  0.2205  0.2788 -0.0074
 3342W        W 7393   7.168   5.766   2.213 -0.0369  0.0888  0.2986
 3343W        W 7394   5.932   0.545   2.005 -0.0902 -0.0995  0.0800
 3344W        W 7395   9.101   9.859   3.764 -0.1339  0.2320 -0.2200
 3345W        W 7396   8.705   0.750  10.852 -0.1449  0.1709  0.0410
 3346W        W 7397   1.425   0.816  12.671  0.1047  0.2260 -0.1346
 3347W        W 7398   8.131   2.163   9.785  0.2881 -0.1379 -0.2722
 3348W        W 7399   5.586   3.457   3.292 -0.0900 -0.2822 -0.0603
 3349W        W 7400   5.044   5.646  11.328 -0.2784  0.0023 -0.1562
 3350W        W 7401   3.501   5.946  12.089 -0.0870 -0.1056 -0.2942
 3351W        W 7402   8.789   0.698   3.746  0.0713 -0.1308 -0.0434
 3352W        W 7403   6.752   1.223  13.614  0.0322  0.2839  0.1727
 3353W        W 7404   3.313   2.561   3.206 -0.0072 -0.1453  0.1825
 3354W        W 7405   4.371   3.196   2.502  0.0460 -0.0032  0.1478
 3355W        W 7406   7.782   2.864  12.825  0.0196  0.0291  0.1165
 3356W        W 7407   1.180   8.495  10.275  0.1305 -0.0852 -0.1728
 3357W        W 7408   0.225   1.978   5.168  0.0556 -0.2928 -0.0119
 3358W        W 7409   8.329   6.932  10.743 -0.2166  0.2674 -0.0803
 3359W        W 7410   8.473   1.023  11.720 -0.2242  0.1010 -0.1402
 3360W        W 7411   1.675   9.729   1.100  0.2332  0.3515  0.0867
 3361W        W 7412   6.742   9.086   2.402  0.1184  0.1322 -0.0221
 3362W        W 7413   9.343   9.574   2.368  0.2451  0.1843  0.0837
 3363W        W 7414   1.535   5.045   2.777  0.2948 -0.0003 -0.1319
 3364W        W 7415   8.014   5.209   9.609 -0.2469  0.2472 -0.0471
 3365W        W 7416   1.524   0.395   4.329 -0.0781  0.0450  0.0030
 3366W        W 7417   2.382   6.789   4.555  0.1465 -0.1997 -0.2713
 3367W        W 7418   6.008   9.968  12.035 -0.4448 -0.1169 -0.0024
 3368W        W 7419   0.575   1.906   1.504 -0.1376  0.2059 -0.0919
 3369W        W 7420   3.764   8.696  13.648  0.0022  0.0316  0.0791
 3370W        W 7421   2.119   3.621  12.573 -0.1621 -0.0632  0.0713
 3371W        W 7422   6.137   3.508  13.731  0.2386  0.0143  0.1264
 3372W        W 7423   3.163   2.535   9.567  0.1617  0.0505  0.1832
 3373W        W 7424   1.043   5.558   3.818 -0.1019  0.0629 -0.0547
 3374W        W 7425   2.239   1.172  10.073  0.0184  0.2304  0.0771
 3375W        W 7426   1.316   6.888   4.342  0.0408  0.2261 -0.0378
 3376W        W 7427   9.522   2.819   4.342 -0.2656  0.4747  0.1576
 3377W        W 7428   4.320   3.183   3.104 -0.3002 -0.1160  0.0055
 3378W        W 7429   1.374   9.026   4.077  0.3732 -0.2426 -0.1240
 3379W        W 7430   9.544   4.450   4.607 -0.0711  0.3510  0.0430
 3380W        W 7431   3.790   3.218  13.488 -0.0048 -0.0908 -0.0425
 3381W        W 7432   8.091   5.474   1.430 -0.0484 -0.0763 -0.1463
 3382W        W 7433   9.774   6.711   3.798  0.1090 -0.0183 -0.4473
 3383W        W 7434   5.832   4.328  12.786 -0.2209  0.1705 -0.2155
 3384W        W 7435   1.099   5.822  10.889  0.3128  0.0737  0.1842
 3385W        W 7436   6.115   6.751   2.978 -0.2372  0.1165 -0.0454
 3386W        W 7437   8.636   8.075   3.963  0.1079  0.1519 -0.0437
 3387W        W 7438   4.465   1.926   2.226 -0.0895 -0.0232 -0.1256
 3388W        W 7439   5.618   5.400  12.640 -0.1272 -0.1818  0.4003
 3389W        W 7440   8.920   5.145   0.479  0.3263 -0.1586  0.3146
 3390W        W 7441   7.456   7.889   3.176 -0.1068 -0.2207 -0.2796
 3391W        W 7442   4.592   6.190   4.066  0.1741  0.0176  0.3559
 3392W        W 7443  10.155   3.333   4.192 -0.2029 -0.1360 -0.2488
 3393W        W 7444   6.982   6.257   2.358  0.0863 -0.0698 -0.2552
 3394W        W 7445   8.577   8.365   0.362  0.1771 -0.0195  0.0738
 3395W        W 7446   2.197   0.421   1.324 -0.1108 -0.0491 -0.2038
 3396W        W 7447   7.637   9.148   0.229  0.3287 -0.1922  0.0040
 3397W        W 7448   2.169   7.570   1.953  0.2612  0.0523  0.1026
 3398W        W 7449   0.314   8.407  10.049 -0.2529 -0.0201  0.1081
 3399W        W 7450   7.179   8.246   9.966  0.0010  0.2769 -0.0600
 3400W        W 7451   8.565   4.410  13.378  0.1588  0.3161  0.0464
 3401W        W 7452   4.851   7.387   2.111  0.2975 -0.0711 -0.4595
 3402W        W 7453   6.687   5.528  12.506  0.1092  0.1882  0.0282
 3403W        W 7454   0.927   8.828   4.631 -0.0146 -0.0268  0.0988
 3404W        W 7455   0.004   4.797  12.739  0.1052 -0.1008 -0.0257
 3405W        W 7456   6.560   0.924  10.699 -0.0012  0.0718  0.2680
 3406W        W 7457   4.525   9.936   3.391  0.1399 -0.0182 -0.1480
 3407W        W 7458   6.619   7.243   1.111 -0.1164  0.1413 -0.3688
 3408W        W 7459   2.055   9.606   9.242 -0.0782  0.0850 -0.0943
 3409W        W 7460   5.646   8.910  13.019 -0.1652  0.2439  0.1966
 3410W        W 7461   9.667   2.951   3.039  0.1369 -0.2367  0.2509
 3411W        W 7462   2.854   6.100  10.468 -0.2204  0.0302 -0.1584
 3412W        W 7463   2.662   2.405  10.269 -0.0912  0.1158  0.0549
 3413W        W 7464   9.189   3.029   1.278 -0.0411  0.2473  0.2662
 3414W        W 7465   9.246   3.453  11.761 -0.1090  0.1451 -0.0216
 3415W        W 7466   1.950   6.176   2.460 -0.2580 -0.0003  0.0063
 3416W        W 7467   5.926   5.360  11.090 -0.1061  0.1116  0.0518
 3417W        W 7468   0.713   5.854  10.592 -0.1479 -0.4689  0.0491
 3418W        W 7469   3.244   2.250  11.116  0.1636  0.2703  0.4247
 3419W        W 7470   9.277   5.780   3.492 -0.1291 -0.0861  0.1268
 3420W        W 7471   8.205   3.601   4.649 -0.0563 -0.5204  0.2391
 3421W        W 7472   0.352   5.062  12.487 -0.1989  0.0972 -0.0103
 3422W        W 7473   1.311   8.515   1.475 -0.0248  0.2596 -0.0617
 3423W        W 7474   5.478   8.385   1.470 -0.0894  0.0345  0.0506
 3424W        W 7475   9.823   7.184  12.317 -0.0527  0.1206  0.2026
 3425W        W 7476   9.530   4.502   0.179 -0.1375  0.0509  0.0655
 3426W        W 7477   1.455   5.510   4.536 -0.4280  0.1782 -0.1445
 3427W        W 7478   1.736   1.027  12.328  0.0844 -0.2973 -0.1561
 3428W        W 7479   2.512   5.293  11.165 -0.1214 -0.4541 -0.1281
 3429W        W 7480   8.202   3.577   3.318  0.0590 -0.0833 -0.0666
 3430W        W 7481   2.560   1.665   9.941  0.3886 -0.0684  0.2763
 3431W        W 7482   9.648   5.986   4.860 -0.2123 -0.0532  0.2236
 3432W        W 7483   1.268   3.085  13.257 -0.2945  0.0779 -0.0750
 3433W        W 7484   9.794   6.821   4.522  0.2759  0.0765 -0.2781
 3434W        W 7485   4.858   0.251   1.131  0.0431 -0.0874 -0.1128
 3435W        W 7486   7.707   1.596   2.053 -0.0813  0.2958 -0.2349
 3436W        W 7487  10.069   7.958   4.786  0.1324  0.0736  0.0283
 3437W        W 7488   3.094   1.867   0.551  0.0706 -0.2464  0.0014
 3438W        W 7489   9.936   1.483   3.680 -0.1288  0.3294 -0.2370
 3439W        W 7490   5.046   3.795   9.903 -0.0176  0.1325  0.1041
 3440W        W 7491   7.070  10.032  13.118  0.2212 -0.0798  0.0256
 3441W        W 7492   7.073   8.604   4.891 -0.1815  0.2719 -0.1437
 3442W        W 7493   3.390   9.144   1.534 -0.2189 -0.0597 -0.1631
 3443W        W 7494   1.419   7.715  12.464 -0.3014  0.2153  0.1373
 3444W        W 7495   6.105   1.596   2.983 -0.0273  0.1279  0.3051
 3445W        W 7496   6.344   0.196  12.926  0.1285  0.1498  0.1484
 3446W        W 7497   2.149   5.768  11.461  0.1006 -0.1876  0.1750
 3447W        W 7498   1.885   9.446  11.855  0.1264 -0.2253  0.4479
 3448W        W 7499   9.501   8.554  12.178 -0.2369  0.0990  0.1886
 3449W        W 7500   5.490   6.006   3.018  0.2501  0.1949 -0.2029
 3450W        W 7501   9.377   5.554  11.175  0.0663  0.1727 -0.1622
 3451W        W 7502   8.841   5.682  11.711 -0.2094 -0.2187 -0.0819
 3452W        W 7503   0.259   6.773  13.551  0.4716  0.0987  0.3676
 3453W        W 7504   2.711   3.736  11.365 -0.1022  0.0409  0.3468
 3454W        W 7505   4.149   6.790   1.877 -0.0736  0.3518 -0.4193
 3455W        W 7506   7.632   3.718   0.379 -0.0635 -0.0437  0.2529
 3456W        W 7507   9.085   1.074   3.199  0.2171  0.0460  0.1827
 3457W        W 7508   6.405   6.698   0.049  0.2647 -0.1557 -0.0017
 3458W        W 7509   1.629   0.799  10.136 -0.0818  0.0591  0.2955
 3459W        W 7510   3.808   8.831  10.673 -0.0158 -0.3073  0.1596
 3460W        W 7511   3.964   6.229  12.048  0.2145 -0.0589 -0.3265
 3461W        W 7512   9.839   6.168   3.953  0.0811 -0.1969  0.0116
 3462W        W 7513   6.236   7.146  10.725  0.2754  0.1334  0.2542
 3463W        W 7514   9.902   8.021   5.307 -0.1971  0.2685 -0.2177
 3464W        W 7515   8.286   6.706   4.056  0.0857  0.1203 -0.1427
 3465W        W 7516   4.099   2.645  11.105  0.0363  0.0265 -0.1678
 3466W        W 7517   7.206   1.565   2.787 -0.0118 -0.0224  0.0982
 3467W        W 7518   9.691   2.395   2.188 -0.3031 -0.4194 -0.2692
 3468W        W 7519   5.686   5.947  13.381 -0.1898  0.1868  0.0895
 3469W        W 7520   3.886   4.062   1.470 -0.2712 -0.0938 -0.1144
 3470W        W 7521   8.906   0.153   0.876  0.0989  0.4210 -0.0504
 3471W        W 7522   5.866   5.646  13.721 -0.0059  0.0136  0.1483
 3472W        W 7523   4.207   1.456  10.406 -0.2300  0.2600  0.1436
 3473W        W 7524   3.016   8.978   5.090  0.0837 -0.3492  0.1274
 3474W        W 7525   8.734   9.938   1.958 -0.0390 -0.1645  0.0598
 3475W        W 7526   5.227   1.421  12.991 -0.1137 -0.1071 -0.3418
 3476W        W 7527   5.800   0.996   4.217 -0.4776  0.2135  0.1395
 3477W        W 7528   6.650   3.521   0.428 -0.0819  0.2496 -0.0418
 3478W        W 7529   6.310   0.322  11.362  0.2591 -0.1158  0.0638
 3479W        W 7530   9.660   9.857  10.821  0.0784 -0.0838 -0.2271
 3480W        W 7531   7.739   7.949   5.252  0.1390  0.1149 -0.1566
 3481W        W 7532   7.748   3.273   3.795 -0.0556 -0.1319  0.0888
 3482W        W 7533   6.996   8.465  13.317 -0.5436  0.1038  0.1019
 3483W        W 7534   1.760   0.416  10.428 -0.0417 -0.1306 -0.1797
 3484W        W 7535   1.893   0.247   0.519 -0.0950  0.0021 -0.2213
 3485W        W 7536   3.887   1.744   8.702 -0.0130  0.1496 -0.2905
 3486W        W 7537   2.569   1.909  13.128  0.1111 -0.0853  0.3143
 3487W        W 7538   7.684   4.436   0.201 -0.0721  0.1177  0.2901
 3488W        W 7539   0.514   1.676  12.385  0.0612 -0.3195  0.3638
 3489W        W 7540   5.937   3.617   4.605 -0.1346 -0.0933  0.2326
 3490W        W 7541   5.691   1.148   1.272 -0.3088 -0.0064 -0.4137
 3491W        W 7542   3.378   3.530  13.184  0.1684 -0.4339 -0.1723
 3492W        W 7543   7.015   2.834  13.451 -0.0201 -0.4306 -0.0675
 3493W        W 7544   2.027   7.943   3.574  0.4551 -0.2740 -0.0320
 3494W        W 7545   8.462   3.556  10.067  0.0537 -0.2516 -0.0761
 3495W        W 7546   4.142   9.366   3.791 -0.1831 -0.0543 -0.0300
 3496W        W 7547   5.021   0.345  13.570  0.1581  0.1165 -0.1273
 3497W        W 7548   7.567   4.174   2.513 -0.1408 -0.0637 -0.1315
 3498W        W 7549   4.580   0.851   1.844 -0.2599 -0.0664  0.1820
 3499W        W 7550   8.504   3.576   1.936  0.5540 -0.1303 -0.2644
 3500W        W 7551   1.614   6.596   4.026  0.0310  0.0080 -0.1846
 3501W        W 7552   7.806   6.664   0.187 -0.0971  0.1846  0.1306
 3502W        W 7553   8.611   1.352   2.090  0.0291 -0.1706  0.2926
 3503W        W 7554   7.784   8.901   2.972  0.0224 -0.1635 -0.2338
 3504W        W 7555   7.014   0.920  11.398 -0.3221  0.0955  0.1705
 3505W        W 7556   1.296   5.324  11.059 -0.0053 -0.0385 -0.1213
 3506W        W 7557   4.795   4.391   3.361 -0.3507 -0.0742  0.0609
 3507W        W 7558  10.034   2.709   3.347  0.2950 -0.2438  0.0176
 3508W        W 7559   0.303   8.504   2.222  0.2754  0.0993  0.0188
 3509W        W 7560   5.369   0.040  13.328  0.0903 -0.1080 -0.1387
 3510W        W 7561   1.604   4.269   3.053 -0.2549 -0.3639 -0.0439
 3511W        W 7562   3.382   8.571  11.362  0.4087 -0.0139 -0.0243
 3512W        W 7563   3.740   0.854  13.347 -0.0726  0.2139  0.0300
 3513W        W 7564   9.944   5.744   1.614  0.1080 -0.1122  0.1193
 3514W        W 7565   8.353   5.487   0.885 -0.0868 -0.0765 -0.0531
 3515W        W 7566   4.327   0.486   0.019  0.4336  0.2623  0.0692
 3516W        W 7567   4.926   4.650  11.612  0.3492 -0.1381  0.0138
 3517W        W 7568   7.070   5.417  11.415 -0.2022  0.1638 -0.3385
 3518W        W 7569   0.558  10.065  10.199  0.3884  0.1842 -0.2165
 3519W        W 7570   9.496   4.210  10.854 -0.1410  0.0261  0.0962
 3520W        W 7571   2.626   3.374  10.460 -0.0125 -0.0170 -0.2428
 3521W        W 7572  10.122   6.209   1.931  0.3376  0.1973  0.0161
 3522W        W 7573   8.111   8.360  10.097 -0.1007  0.1000 -0.2327
 3523W        W 7574   8.976   0.483   4.692 -0.0760  0.2083 -0.1591
 3524W        W 7575   1.593   0.123   4.724 -0.0630 -0.3330  0.4175
 3525W        W 7576   6.821   9.021  12.709  0.3918 -0.1399  0.2641
 3526W        W 7577   3.422   7.011   0.013 -0.1469 -0.2723 -0.2375
 3527W        W 7578   5.155   7.485  10.613  0.2026 -0.3215  0.0581
 3528W        W 7579   9.808   0.403   2.878 -0.0416 -0.0802 -0.0802
 3529W        W 7580   0.000   4.919   5.253 -0.0911 -0.1348  0.0503
 3530W        W 7581   1.575   7.723   0.754 -0.1892  0.0203  0.0869
 3531W        W 7582   2.707   4.369   9.155 -0.0789  0.0834 -0.0800
 3532W        W 7583   0.133   0.027   0.334  0.0974  0.2885 -0.1050
 3533W        W 7584   7.170   7.947   4.183  0.2056 -0.0009 -0.0791
 3534W        W 7585   7.225   6.543  12.968 -0.2386 -0.1983  0.1565
 3535W        W 7586   8.232   4.219   0.161 -0.0150  0.0441 -0.2272
 3536W        W 7587   8.307   5.354   2.373 -0.0532  0.0084  0.2464
 3537W        W 7588   4.633   3.410  13.509  0.0865 -0.2299 -0.2886
 3538W        W 7589   7.051   9.774  12.559 -0.2692  0.1666 -0.1014
 3539W        W 7590   8.552   2.611   3.748  0.2610 -0.0472 -0.3610
 3540W        W 7591   0.921   0.542   1.038  0.1441  0.2159 -0.0460
 3541W        W 7592   3.527   8.986   2.723 -0.0903  0.2873  0.0348
 3542W        W 7593   2.004   9.700   9.840  0.1614 -0.1657 -0.2024
 3543W        W 7594   2.929   4.037   2.547  0.4511 -0.0594 -0.1057
 3544W        W 7595   4.281   8.183   3.371 -0.0008 -0.0237  0.0126
 3545W        W 7596   6.913   1.484   6.169 -0.2675 -0.1047  0.2140
 3546W        W 7597   8.517   9.390   1.762 -0.1453  0.0549  0.0229
 3547W        W 7598   7.681   2.781   3.999 -0.2695 -0.0835  0.2502
 3548W        W 7599   0.696   4.688  13.326 -0.0390  0.1472  0.0124
 3549W        W 7600   3.789   4.350   9.758  0.1968  0.0613  0.1053
 3550W        W 7601   8.355   5.658   9.666 -0.0660  0.0979 -0.2745
 3551W        W 7602   4.629   8.146   2.229  0.1472 -0.2663 -0.2117
 3552W        W 7603   9.727   6.981   1.457 -0.0801 -0.1652  0.0375
 3553W        W 7604   9.085  10.128   4.688 -0.2083  0.0067  0.3819
 3554W        W 7605   7.411   4.877   1.916  0.0568  0.2779  0.1958
 3555W        W 7606   0.830   2.774  10.014 -0.2966  0.4785 -0.0586
 3556W        W 7607   6.108   4.305   1.912 -0.1565  0.3765  0.1688
 3557W        W 7608   1.834   5.242   4.459 -0.3382  0.0709 -0.0526
 3558W        W 7609   0.220   6.108   4.019 -0.1472  0.3191  0.1074
 3559W        W 7610   9.373   3.929   5.684 -0.4749 -0.0623  0.3441
 3560W        W 7611   2.563   3.444   3.398  0.1859 -0.3368 -0.0947
 3561W        W 7612   0.691   5.036  13.692 -0.1425 -0.0652 -0.1231
 3562W        W 7613  10.042   5.829   5.358  0.2444  0.1771 -0.0299
 3563W        W 7614   0.851   6.573  11.665  0.1441  0.2729  0.0397
 3564W        W 7615   9.673   6.349   2.233  0.0494 -0.1197 -0.0293
 3565W        W 7616   0.026   5.101  10.777 -0.3125 -0.2068  0.1176
 3566W        W 7617   0.063   8.660   0.440  0.1199  0.1419  0.0534
 3567W        W 7618   0.759   4.667   5.764 -0.0019  0.0560 -0.0736
 3568W        W 7619   0.855   2.909  10.552  0.1000 -0.0598  0.0581
 3569W        W 7620   1.544   5.978   4.669  0.2351  0.0956 -0.0276
 3570W        W 7621   6.487  10.117   2.728 -0.0084 -0.1759 -0.0391
 3571W        W 7622   4.990   7.360   3.307 -0.1465 -0.0580 -0.3595
 3572W        W 7623   2.838   0.927  11.483  0.1925 -0.2695  0.1684
 3573W        W 7624   2.241   4.996   1.584  0.2686 -0.0025 -0.0178
 3574W        W 7625   2.595   6.061  11.671  0.0432 -0.1797 -0.0509
 3575W        W 7626   2.060   8.485  11.895  0.0177 -0.1177 -0.0326
 3576W        W 7627   9.158   0.938  10.648  0.4083 -0.2406 -0.0233
 3577W        W 7628   9.572   2.094   0.395  0.1735 -0.1631 -0.2102
 3578W        W 7629   3.549   5.064  10.971 -0.3503 -0.2957  0.0670
 3579W        W 7630   3.161   0.738   0.874  0.0979  0.2907 -0.0374
 3580W        W 7631   9.563   5.320   3.389  0.5809  0.0355  0.2684
 3581W        W 7632   0.866   6.702  12.996 -0.3501  0.2228 -0.3643
 3582W        W 7633   3.975   7.364   2.934 -0.0054  0.0476  0.1204
 3583W        W 7634   6.269   7.736  11.357 -0.0429  0.0309 -0.2965
 3584W        W 7635   6.577   8.163  13.066 -0.0120 -0.0420  0.0828
 3585W        W 7636   4.438   4.693   1.526 -0.0323 -0.1617  0.0449
 3586W        W 7637   9.139   9.292   0.479 -0.2032 -0.0391 -0.0600
 3587W        W 7638   7.498   1.458   5.146  0.2996  0.2952  0.0667
 3588W        W 7639   1.451   0.557   3.345  0.0157  0.2088 -0.1854
 3589W        W 7640   3.196   9.588  11.659 -0.2735  0.0695  0.2369
 3590W        W 7641   5.477   2.443   1.653 -0.1468  0.1158  0.0793
 3591W        W 7642   6.641   1.344   0.254 -0.1710  0.1388  0.2350
 3592W        W 7643   9.158   1.444   4.499 -0.0159 -0.0113 -0.1105
 3593W        W 7644   9.773   2.051  10.494  0.4195  0.3375  0.0305
 3594W        W 7645   2.596   2.107  11.436  0.0792  0.0782 -0.1754
 3595W        W 7646   6.418   1.377   1.237 -0.0905  0.1057 -0.3421
 3596W        W 7647   8.392   8.876  12.680 -0.0347  0.0103 -0.1430
 3597W        W 7648   9.496   9.196   4.272  0.0655 -0.0574  0.0282
 3598W        W 7649   3.945   7.791   1.681 -0.2798  0.1348 -0.1477
 3599W        W 7650   7.130   5.255   3.717 -0.1040  0.0188 -0.1010
 3600W        W 7651   1.601   5.685   4.079 -0.2180  0.0895 -0.1904
 3601W        W 7652   1.663   8.965   9.527 -0.2490 -0.1713 -0.1304
 3602W        W 7653   4.193   2.369   2.829 -0.3327 -0.3960  0.1008
 3603W        W 7654   6.147   4.101  11.281  0.1357 -0.0201 -0.0764
 3604W        W 7655   7.405   3.401   3.347 -0.0049 -0.0031 -0.1287
 3605W        W 7656   9.280   9.680  13.173  0.0479  0.1326  0.2211
 3606W        W 7657   4.662   3.135   3.836  0.2260  0.0632  0.4099
 3607W        W 7658   6.492   4.103   4.067 -0.0572  0.1585 -0.0017
 3608W        W 7659   5.777   8.030  12.805  0.3149 -0.0003 -0.2540
 3609W        W 7660   6.066   8.172  13.231  0.0255 -0.2678 -0.1544
 3610W        W 7661   0.378   8.464  13.334  0.2356  0.3862 -0.0904
 3611W        W 7662   7.666  10.030  12.972  0.0596 -0.0622  0.0127
 3612W        W 7663   6.600   9.106   1.896 -0.0218  0.0926 -0.1273
 3613W        W 7664   9.094   4.411   2.189 -0.2884 -0.2153 -0.3617
 3614W        W 7665   2.113   8.301   4.470 -0.4108 -0.1127 -0.4918
 3615W        W 7666   3.920   8.351  10.622  0.0598 -0.2597 -0.3261
 3616W        W 7667   9.825   9.039  11.251 -0.3370  0.0174  0.1263
 3617W        W 7668   2.373   7.627  12.570  0.1654  0.0014  0.0480
 3618W        W 7669   7.187   9.906   1.351 -0.1118 -0.4162 -0.2262
 3619W        W 7670   4.837   3.455   2.993 -0.0123  0.2348 -0.3478
 3620W        W 7671   4.081   6.894   3.152  0.1365 -0.1923  0.0146
 3621W        W 7672   8.521   3.088   1.946 -0.1220 -0.0327  0.0834
 3622W        W 7673   6.488   5.521   1.831 -0.1988 -0.1170  0.0474
 3623W        W 7674   2.404   0.063   0.292 -0.0692  0.1011  0.1828
 3624W        W 7675   3.829   2.308  13.303 -0.0569  0.2496 -0.1204
 3625W        W 7676   5.682   3.319  13.990  0.3325  0.1391 -0.0537
 3626W        W 7677   9.186   2.697  10.335 -0.0834 -0.1541 -0.0747
 3627W        W 7678   5.329   4.795   1.518 -0.0368  0.0195 -0.1124
 3628W        W 7679   4.591   8.264   1.398  0.0910 -0.0560  0.1006
 3629W        W 7680   5.711   1.505   2.261 -0.2711 -0.0344  0.0458
 3630W        W 7681   8.837   3.162  11.903  0.1752 -0.1313  0.3208
 3631W        W 7682   8.620   4.039   3.721 -0.0249 -0.4045  0.0665
 3632W        W 7683   1.348   4.218  11.214 -0.1162  0.0775  0.0643
 3633W        W 7684   7.036   0.731   9.977 -0.0997 -0.1703  0.5473
 3634W        W 7685   2.043   2.217   3.494 -0.2171 -0.1828  0.0947
 3635W        W 7686   9.372   8.749  11.640  0.2645 -0.5391  0.2417
 3636W        W 7687   0.435   6.335   3.405 -0.1139  0.0165  0.1040
 3637W        W 7688   9.381   7.573   5.066 -0.4196 -0.0460 -0.1139
 3638W        W 7689   3.853   1.641   2.975 -0.1614 -0.4612 -0.0487
 3639W        W 7690   1.605   5.177  10.714  0.0515  0.1082  0.1812
 3640W        W 7691   6.609   8.650   9.880 -0.1929  0.3821  0.0960
 3641W        W 7692   3.238   8.988   0.482  0.0445 -0.1242 -0.1474
 3642W        W 7693   7.160   3.874   0.210 -0.0413  0.1486  0.2752
 3643W        W 7694   6.057   9.813   0.935  0.1868  0.1302 -0.2473
 3644W        W 7695   5.353   2.366   3.757  0.0269 -0.0388 -0.1820
 3645W        W 7696   1.135   6.560   2.957  0.3064 -0.0619  0.0696
 3646W        W 7697   9.572   8.277  11.683  0.1993  0.2448 -0.0538
 3647W        W 7698   1.912   4.917   1.975 -0.0024 -0.0178  0.0780
 3648W        W 7699  10.083   0.050  13.248 -0.1508  0.0800 -0.3302
 3649W        W 7700   7.763   6.304  10.037  0.5261  0.0535 -0.1281
 3650W        W 7701   0.320   3.037   3.569  0.3505 -0.0504  0.0013
 3651W        W 7702   0.493   8.041   0.026 -0.0948 -0.2183 -0.0092
 3652W        W 7703   9.968   4.485  13.864  0.1589 -0.0787 -0.0104
 3653W        W 7704   2.313   1.922   3.015 -0.2921 -0.1689  0.2176
 3654W        W 7705   9.116   7.369  12.470 -0.2049  0.0716 -0.0312
 3655W        W 7706   0.855   8.364   8.680  0.1238 -0.1869  0.1905
 3656W        W 7707   7.848   1.049  10.926  0.0258  0.3522 -0.0699
 3657W        W 7708   1.985   7.366  10.318 -0.2397  0.0652 -0.0027
 3658W        W 7709   2.070   2.714  12.732  0.0531 -0.2827 -0.3753
 3659W        W 7710   0.902   2.720  13.412 -0.4392 -0.1116 -0.2046
 3660W        W 7711   6.771   0.483   2.834 -0.2116 -0.2651  0.0906
 3661W        W 7712   8.905   5.752  13.081  0.2767  0.2473 -0.0541
 3662W        W 7713   7.001   8.301  13.785  0.0838 -0.0529  0.0130
 3663W        W 7714   1.687   5.397   0.080 -0.2703  0.0226 -0.4973
 3664W        W 7715   9.210   4.559   8.998  0.2560 -0.1704 -0.0491
 3665W        W 7716   0.847   4.546  13.892  0.0650 -0.2358 -0.4184
 3666W        W 7717   5.262   3.112   3.052 -0.1009  0.0878 -0.0525
 3667W        W 7718   5.990   1.914   4.354  0.1405  0.0508  0.0540
 3668W        W 7719   8.449   5.162   1.857 -0.0001 -0.3354 -0.1151
 3669W        W 7720   4.935   3.753   3.458 -0.4378  0.0409  0.0214
 3670W        W 7721   5.631   6.820   2.365 -0.1957 -0.1895  0.2958
 3671W        W 7722   0.031   1.792  12.281 -0.0837  0.0313 -0.2555
 3672W        W 7723   3.667   2.385   9.722 -0.1146  0.1287  0.1179
 3673W        W 7724   4.210   3.726   2.226 -0.0803  0.1810  0.1457
 3674W        W 7725   8.516   0.289   3.982 -0.0255 -0.3467  0.2010
 3675W        W 7726   0.235   9.718  10.246 -0.3725  0.0639  0.3874
 3676W        W 7727   8.879   5.566   4.311 -0.1479 -0.3037  0.1673
 3677W        W 7728   8.765   1.618   1.582 -0.2083  0.2560 -0.2117
 3678W        W 7729   8.207   3.607  11.175  0.2272 -0.1616 -0.1041
 3679W        W 7730   4.147   0.417   2.748  0.0090 -0.1024 -0.2714
 3680W        W 7731   7.150   2.373  13.273 -0.1657  0.1285  0.2751
 3681W        W 7732   3.935   1.175   0.697  0.1254  0.2996  0.0136
 3682W        W 7733   8.586   6.992  11.583  0.0033 -0.3134 -0.0751
 3683W        W 7734   3.336   2.035  10.258 -0.2923 -0.1784 -0.1418
 3684W        W 7735   9.392   1.622   8.535  0.1059  0.2015  0.2572
 3685W        W 7736   8.414   1.888  11.115 -0.3555 -0.3199 -0.1458
 3686W        W 7737   0.121   2.717  11.664 -0.2289  0.0320 -0.3728
 3687W        W 7738   5.207   4.505   2.017 -0.1611 -0.0328 -0.0362
 3688W        W 7739   9.762   1.887   2.292  0.2645 -0.0911  0.3277
 3689W        W 7740   0.139   9.694  13.069 -0.0055  0.3117 -0.2374
 3690W        W 7741   1.473   1.190   0.144 -0.1114 -0.2119 -0.1817
 3691W        W 7742   8.018   8.609  12.902 -0.2204 -0.1257  0.0065
 3692W        W 7743   5.165   7.536   4.204 -0.1838 -0.2305 -0.4072
 3693W        W 7744   8.184   6.492  11.730  0.0982 -0.2923  0.0831
 3694W        W 7745   3.553   0.025   3.457  0.2114 -0.0888 -0.3944
 3695W        W 7746   8.030   1.983   1.480 -0.0153 -0.2301 -0.0548
 3696W        W 7747   8.072   2.438  12.785 -0.0722 -0.2144 -0.0312
 3697W        W 7748   9.967   8.329   2.222 -0.2632 -0.4278  0.2893
 3698W        W 7749   3.530   0.419  11.724 -0.1043 -0.1609  0.2199
 3699W        W 7750   1.461   0.452   1.796 -0.1826  0.0616  0.0867
 3700W        W 7751   7.893   7.561   1.767 -0.0985 -0.2238  0.1783
 3701W        W 7752   4.288   0.779  13.617  0.1563 -0.2169 -0.2872
 3702W        W 7753   7.949   1.038   2.789 -0.0969  0.0932  0.2387
 3703W        W 7754   6.463   9.932  12.369  0.0559  0.1787  0.1836
 3704W        W 7755   5.583   9.431   1.613  0.2051 -0.1110 -0.0935
 3705W        W 7756   7.720   9.796   1.539 -0.2723 -0.0928 -0.3184
 3706W        W 7757   7.939   3.222  13.203  0.0690  0.2640 -0.0128
 3707W        W 7758   1.373   7.577   9.716  0.2418  0.0920  0.1361
 3708W        W 7759   5.543   2.662  12.260  0.0839 -0.0431 -0.2911
 3709W        W 7760   8.340   9.790   1.617 -0.0605  0.3407 -0.2668
 3710W        W 7761   0.152   2.036   9.232 -0.0579 -0.0151  0.0469
 3711W        W 7762   4.446   3.579   1.072  0.1841 -0.0248 -0.1764
 3712W        W 7763   5.131   8.563   0.573  0.1736  0.2792 -0.2567
 3713W        W 7764   1.507   0.460   0.746  0.4298 -0.0974 -0.1146
 3714W        W 7765   4.463   0.153   3.683 -0.2673 -0.0318 -0.2044
 3715W        W 7766   3.068   4.934  13.672  0.0003  0.1609  0.2379
 3716W        W 7767   0.476   6.457  10.219  0.2287 -0.1891  0.3176
 3717W        W 7768   1.481   1.041   3.545  0.1850 -0.1341 -0.0021
 3718W        W 7769   9.875   6.411   4.808 -0.0704 -0.0912 -0.3491
 3719W        W 7770   9.299   2.114   4.756 -0.5277  0.1091  0.1002
 3720W        W 7771   7.229   1.549   0.424 -0.2242 -0.0683 -0.0722
 3721W        W 7772   9.368   5.952  10.742 -0.0501 -0.2939  0.1552
 3722W        W 7773   4.910   1.076   0.381  0.0027 -0.2716  0.0463
 3723W        W 7774   9.186   4.410  11.962 -0.1617  0.1767 -0.1063
 3724W        W 7775   5.920   1.893  13.938  0.0572  0.0522  0.3038
 3725W        W 7776   4.413   5.948  10.409 -0.1020 -0.2581  0.0414
 3726W        W 7777   7.669   4.653   2.276 -0.3107  0.0728  0.4201
 3727W        W 7778   1.531   1.957   8.727  0.3076  0.0233  0.1687
 3728W        W 7779   2.173   4.896  13.722  0.1556 -0.0458 -0.0947
 3729W        W 7780   3.826   7.861  12.714  0.1548 -0.0088  0.2722
 3730W        W 7781   7.846   9.576  12.131  0.0957  0.0481  0.0091
 3731W        W 7782   3.554   8.187  10.264  0.2892  0.3725 -0.0345
 3732W        W 7783   8.675   6.543  11.549  0.0567 -0.0753 -0.0420
 3733W        W 7784   9.930   5.649   3.137  0.2146 -0.0152 -0.0541
 3734W        W 7785   5.117   2.193  10.269  0.0328 -0.0498 -0.2947
 3735W        W 7786   3.129   0.039  12.555  0.0202  0.1303 -0.0303
 3736W        W 7787   0.238   0.184   4.030  0.2039 -0.0561  0.1381
 3737W        W 7788   1.528   6.149   3.781  0.0045  0.4369 -0.2750
 3738W        W 7789   1.856   5.946  11.075  0.1064  0.1745 -0.0488
 3739W        W 7790  10.025   8.443   9.671 -0.1632  0.2395  0.2484
 3740W        W 7791   0.040   3.423   3.671  0.1031  0.3426 -0.2098
 3741W        W 7792   6.209   9.313  10.974 -0.1052  0.1470  0.1257
 3742W        W 7793   4.653   4.506  13.030 -0.0705 -0.2772 -0.1246
 3743W        W 7794   1.135   0.500  11.870 -0.0201 -0.2177 -0.1297
 3744W        W 7795   1.844   4.819   1.376  0.1428 -0.1612  0.0656
 3745W        W 7796   2.186   3.323   4.158  0.0235  0.1353 -0.0323
 3746W        W 7797   8.791   8.406   5.378  0.0205 -0.0973  0.2479
 3747W        W 7798   5.879   1.035   9.674 -0.0319  0.1109  0.1659
 3748W        W 7799   6.627   1.679  11.450  0.0190 -0.0561 -0.4442
 3749W        W 7800   1.712   8.033  11.004 -0.0774  0.0126  0.2235
 3750W        W 7801   5.168   7.173   0.353 -0.1203  0.3239 -0.0410
 3751W        W 7802   2.588   5.850  11.270  0.3468 -0.2980  0.1118
 3752W        W 7803   0.628   1.027   5.188 -0.1848  0.1422 -0.3842
 3753W        W 7804   1.855   6.455  10.725  0.4822  0.1810  0.5723
 3754W        W 7805   3.390   3.920   2.563  0.0455 -0.3243  0.4091
 3755W        W 7806   9.126   9.243  10.940  0.2033 -0.0766  0.1237
 3756W        W 7807   2.062   2.844   4.035  0.0215 -0.4230  0.2128
 3757W        W 7808   3.370   8.797  10.386  0.3668 -0.1598 -0.4472
 3758W        W 7809   0.765   1.020  10.780 -0.2459  0.0473 -0.0512
 3759W        W 7810   2.495   6.043   4.876 -0.0004  0.0887 -0.0841
 3760W        W 7811   1.073   7.769   0.691  0.0670 -0.2425 -0.0447
 3761W        W 7812   0.182   1.551   1.855 -0.3633 -0.1116  0.0993
 3762W        W 7813   6.211   8.879  11.345  0.2432 -0.2121  0.1941
 3763W        W 7814   4.058   5.772   1.132 -0.3035 -0.1990 -0.0022
 3764W        W 7815   9.265   8.922   1.536 -0.0731 -0.1875 -0.1206
 3765W        W 7816   4.197   2.610   0.313  0.0453  0.1429 -0.1022
 3766W        W 7817   2.646   9.385  13.924  0.0200 -0.0215  0.2229
 3767W        W 7818   2.075   1.720  10.961  0.0500  0.2823 -0.2486
 3768W        W 7819   3.256   2.758   0.341  0.2930 -0.3767 -0.1197
 3769W        W 7820   1.731   1.955   3.942  0.0030 -0.1968  0.3498
 3770W        W 7821   2.998   0.662  10.492  0.1302  0.0739  0.5299
 3771W        W 7822   1.111  10.079   2.618 -0.1156  0.2116 -0.2427
 3772W        W 7823   7.043   1.759   5.355 -0.0412 -0.2417 -0.0726
 3773W        W 7824   2.217   8.569   2.222  0.0354 -0.4219  0.0588
 3774W        W 7825   9.239   1.217   3.721  0.1872  0.2833  0.1487
 3775W        W 7826   2.753   2.093   4.174 -0.2035 -0.1705  0.2622
 3776W        W 7827   6.999   2.539  10.248  0.1027 -0.0437 -0.2963
 3777W        W 7828   9.979   7.535  10.091 -0.3137 -0.1339  0.0628
 3778W        W 7829   6.286   7.593   1.349  0.3995 -0.4499 -0.1772
 3779W        W 7830   4.639   5.691  13.433 -0.1838  0.0366  0.0536
 3780W        W 7831   2.427   2.612  13.575  0.3499  0.4431 -0.3174
 3781W        W 7832   2.021   6.077   2.962 -0.4787 -0.0871 -0.2779
 3782W        W 7833   5.317   1.520   3.587 -0.2074 -0.3598  0.2391
 3783W        W 7834   6.369   1.503  13.452  0.0515 -0.3261 -0.0176
 3784W        W 7835   9.436   6.880   3.511  0.1174  0.0038  0.1183
 3785W        W 7836   5.159   6.808  13.541 -0.0363  0.2832  0.1759
 3786W        W 7837   0.611   4.897   0.140 -0.0617 -0.0889 -0.1421
 3787W        W 7838   3.409   7.856  12.992  0.0379 -0.0146  0.0578
 3788W        W 7839   9.926   7.015   9.552  0.1056  0.2086 -0.3621
 3789W        W 7840   4.131   0.257  13.534  0.1472  0.2183 -0.1087
 3790W        W 7841   2.488   2.085  10.810  0.1800 -0.4324  0.0504
 3791W        W 7842   4.691   1.743  12.058  0.0091 -0.1178  0.0187
 3792W        W 7843   3.690   4.164  12.089 -0.0417 -0.2152  0.2174
 3793W        W 7844  10.078   7.453  12.760 -0.0019 -0.2185 -0.1610
 3794W        W 7845   9.873   2.236   9.264 -0.1967 -0.4218 -0.2947
 3795W        W 7846   5.737   8.332   3.819 -0.2332  0.3900 -0.0755
 3796W        W 7847   7.453   3.414  13.027 -0.3107  0.0125  0.1032
 3797W        W 7848   1.929   0.318   1.955  0.4682  0.2470 -0.0746
 3798W        W 7849   7.544   9.330   2.084 -0.1180 -0.5513  0.1076
 3799W        W 7850   1.725   1.304   9.954 -0.2025 -0.1494 -0.0596
 3800W        W 7851   8.566   7.874   3.463  0.0323 -0.0441 -0.0957
 3801W        W 7852   3.904   9.359   1.623 -0.2283  0.0904 -0.2671
 3802W        W 7853   1.522   9.663   5.734 -0.0720  0.1371  0.1350
 3803W        W 7854   5.451   2.345   1.140 -0.1092  0.1916  0.0991
 3804W        W 7855   4.488   0.227   3.187  0.0222 -0.3399 -0.2773
 3805W        W 7856   9.600   8.493   2.519 -0.0784 -0.2767 -0.0026
 3806W        W 7857   4.912   5.594  13.976  0.0969 -0.1516  0.0637
 3807W        W 7858   4.998   9.999   3.795  0.0463  0.1960 -0.0556
 3808W        W 7859   6.773   5.092   3.119  0.0659 -0.1811  0.3853
 3809W        W 7860   6.792   3.659  11.762  0.0750  0.3195 -0.0548
 3810W        W 7861   1.282   7.346  13.239 -0.0132  0.3120 -0.2371
 3811W        W 7862   7.709   6.279   3.009 -0.1298  0.0542 -0.0962
 3812W        W 7863   3.445   3.287   0.869  0.2396  0.1352  0.0344
 3813W        W 7864   9.606   7.150  11.798  0.0806  0.1041  0.2862
 3814W        W 7865   1.918   5.618   3.162  0.2073 -0.4231  0.2926
 3815W        W 7866   7.856   1.883   3.828 -0.1295 -0.0357  0.0059
 3816W        W 7867   8.727   0.347   9.485  0.3949 -0.2666 -0.1696
 3817W        W 7868   9.131   0.727  13.210  0.1547 -0.1822 -0.0814
 3818W        W 7869   2.815   4.652   3.160 -0.0988 -0.1068  0.1846
 3819W        W 7870   6.951   4.230   1.692 -0.0092 -0.0922  0.1152
 3820W        W 7871   4.352   1.782   4.956 -0.2624  0.1593 -0.0324
 3821W        W 7872   3.363   1.504  11.523 -0.0223  0.2711  0.2297
 3822W        W 7873   6.804   3.628   3.910  0.0380  0.0553  0.1729
 3823W        W 7874   4.013   5.702  11.702 -0.2457 -0.0117  0.0092
 3824W        W 7875   0.662   5.698   9.857 -0.0053 -0.0724  0.3160
 3825W        W 7876   2.534   1.288   2.502  0.2701 -0.0136 -0.1968
 3826W        W 7877   2.708   9.966   1.990 -0.2252 -0.0105 -0.1246
 3827W        W 7878   6.289   9.756  10.152 -0.2442  0.2339 -0.2631
 3828W        W 7879   2.901   2.642  12.038  0.0534 -0.0639  0.1012
 3829W        W 7880   0.236   7.176   1.004 -0.1049  0.1355  0.0601
 3830W        W 7881   6.281   1.716  11.037 -0.2613  0.0364  0.0497
 3831W        W 7882   0.270   2.603   1.781 -0.1836 -0.0528  0.1570
 3832W        W 7883   8.925   9.983   2.914  0.0325 -0.1219 -0.1221
 3833W        W 7884   9.936   0.175   3.717 -0.1636 -0.2075 -0.3098
 3834W        W 7885   2.130   6.148   9.667  0.2452  0.0532 -0.0277
 3835W        W 7886   7.496   1.415  11.037  0.0277 -0.2183 -0.2001
 3836W        W 7887   0.485   5.275   3.727  0.4926 -0.0184 -0.1000
 3837W        W 7888   5.330   4.024  12.898 -0.1169  0.0854  0.1831
 3838W        W 7889   0.998   9.261   4.968  0.0227  0.1012 -0.0421
 3839W        W 7890   8.007   9.411   2.859  0.1369  0.1684 -0.1473
 3840W        W 7891   3.251   2.030   9.633  0.1218  0.1787  0.1536
 3841W        W 7892   0.421   8.892   6.188  0.0726 -0.1221  0.1001
 3842W        W 7893   8.705   3.638   3.479 -0.4719  0.0547 -0.1064
 3843W        W 7894   4.233   9.051   1.947  0.0455 -0.2410  0.0265
 3844W        W 7895   8.164   7.568   2.583 -0.0092  0.1886  0.0956
 3845W        W 7896   3.615   5.994  11.580  0.0181 -0.1970 -0.0161
 3846W        W 7897   1.622   2.647   1.999 -0.1296  0.0203  0.1549
 3847W        W 7898   1.321   6.686   9.665  0.0601  0.0616 -0.2801
 3848W        W 7899   4.525   9.269  10.429 -0.0642 -0.0432 -0.1703
 3849W        W 7900   2.322   0.074   3.807  0.1813 -0.4009  0.0956
 3850W        W 7901   1.032   7.318   4.340 -0.2644  0.3387 -0.0546
 3851W        W 7902   6.626   0.421   4.827  0.0779 -0.0778 -0.2287
 3852W        W 7903   4.990   1.416   9.471 -0.0158 -0.1799  0.0367
 3853W        W 7904   9.009   8.674  10.579 -0.0311  0.2935 -0.0364
 3854W        W 7905   6.707   4.508  13.868 -0.2758  0.0769 -0.4508
 3855W        W 7906   0.147   0.187   1.669 -0.2165  0.0678 -0.2479
 3856W        W 7907   4.027   1.148   5.802 -0.2885 -0.0120 -0.4032
 3857W        W 7908   3.766   6.177   1.252  0.2162 -0.5035  0.1640
 3858W        W 7909   6.134   8.397  11.383 -0.0871 -0.0314 -0.2452
 3859W        W 7910   3.579   7.901  11.639 -0.1639  0.2351  0.0502
 3860W        W 7911   3.069   5.089   3.082 -0.1677 -0.0602 -0.0343
 3861W        W 7912   5.867   2.521   1.318 -0.2235 -0.2680 -0.0475
 3862W        W 7913   0.970   0.020  13.991  0.0594  0.0677 -0.0466
 3863W        W 7914   6.205   5.261  10.708 -0.0415  0.1900 -0.0916
 3864W        W 7915   9.155   9.445  12.314 -0.2267  0.4048  0.1929
 3865W        W 7916   9.080   8.273   2.462 -0.2793 -0.1188 -0.1507
 3866W        W 7917   7.711   4.892  13.915 -0.0287  0.0734  0.2899
 3867W        W 7918   2.909   9.416  13.156 -0.0886 -0.2248  0.2553
 3868W        W 7919   6.649  10.127  11.500 -0.3221 -0.1058 -0.0662
 3869W        W 7920   9.140  10.080   2.454 -0.0704 -0.1940  0.1232
 3870W        W 7921   3.720   3.186  12.302 -0.4868 -0.0190  0.1157
 3871W        W 7922   5.431   8.920  12.479 -0.0490 -0.1416  0.1579
 3872W        W 7923   5.681   8.900   3.871  0.4586 -0.1905 -0.2615
 3873W        W 7924   6.854   6.857  10.620  0.0779 -0.1877 -0.0359
 3874W        W 7925   1.463   5.050  12.518  0.0161 -0.0545 -0.1032
 3875W        W 7926   4.522   7.836   0.581  0.1175  0.2403  0.3299
 3876W        W 7927   5.830   2.354  10.970 -0.1774 -0.0284 -0.4385
 3877W        W 7928   6.714   7.883  13.923 -0.2276 -0.2564 -0.0949
 3878W        W 7929   8.287   9.713   5.108  0.0305 -0.1437  0.0604
 3879W        W 7930   4.644   4.677  12.133  0.3465 -0.0387  0.0078
 3880W        W 7931   0.207   3.915  13.332  0.0759  0.0463 -0.0266
 3881W        W 7932   9.805   3.419   3.023 -0.0191 -0.0569  0.0188
 3882W        W 7933   9.751   3.367  10.418  0.4108 -0.2169 -0.1968
 3883W        W 7934   1.265   7.451  10.713 -0.1943  0.0018 -0.3049
 3884W        W 7935   3.497   2.841  13.374 -0.0557  0.2935  0.2784
 3885W        W 7936   0.445   2.732   3.191 -0.1358 -0.3698  0.2490
 3886W        W 7937   9.298   2.546  10.889  0.0289 -0.2137  0.0890
 3887W        W 7938   3.171   3.920  12.014 -0.3522  0.1916  0.0135
 3888W        W 7939   0.358   9.311  13.793 -0.1064 -0.2499  0.1394
 3889W        W 7940   0.491   9.282  13.163 -0.1846 -0.0642 -0.3012
 3890W        W 7941   7.498   1.175   1.232  0.2333 -0.1054  0.0157
 3891W        W 7942   0.048   7.830  13.923 -0.0406  0.2151  0.0576
 3892W        W 7943   3.811   6.382   2.543 -0.1209  0.0916 -0.3112
 3893W        W 7944   6.288   2.211  10.889 -0.0763  0.0862 -0.1026
 3894W        W 7945   5.065   9.654  11.903 -0.1015 -0.1411  0.0576
 3895W        W 7946   1.191   7.903  11.718 -0.1467 -0.1691  0.0322
 3896W        W 7947   4.582   1.358   2.148 -0.3300  0.1337 -0.2262
 3897W        W 7948   9.230   0.192  11.030 -0.1321 -0.1447  0.0857
 3898W        W 7949   1.859   2.704   0.866 -0.2088  0.0254 -0.0255
 3899W        W 7950   5.171   2.431   0.347 -0.2308 -0.0325  0.4904
 3900W        W 7951   1.275   2.103   3.137  0.3015  0.2012 -0.0126
 3901W        W 7952   2.245   7.063   2.817  0.2438  0.1479  0.1280
 3902W        W 7953   9.671   3.826   3.608  0.0002  0.1665 -0.0624
 3903W        W 7954   2.270   1.290   9.617  0.0714  0.2159  0.0400
 3904W        W 7955   7.089   6.863   2.300 -0.1746 -0.0121 -0.0283
 3905W        W 7956   0.790   2.180  12.510 -0.3098 -0.0786 -0.0336
 3906W        W 7957   2.677   9.294   5.231 -0.0147 -0.0724 -0.1773
 3907W        W 7958   7.401   8.593   9.397  0.1741 -0.1831 -0.4306
 3908W        W 7959   3.267   8.383  13.439 -0.0118 -0.0243  0.2353
 3909W        W 7960   5.140   3.195  10.265  0.1298 -0.0724 -0.2852
 3910W        W 7961   5.344   2.489  11.150  0.1458  0.3933 -0.1688
 3911W        W 7962   9.331   3.783   4.973 -0.0423  0.1140 -0.5309
 3912W        W 7963   3.018   3.888   1.177  0.0025  0.3525  0.1740
 3913W        W 7964   7.918   3.062   2.540 -0.0078  0.0502  0.0086
 3914W        W 7965   7.942   1.520   9.634 -0.1770  0.1325  0.1847
 3915W        W 7966   3.721   0.646  12.558  0.2606  0.1505 -0.0622
 3916W        W 7967   0.849   8.950   4.151 -0.1310  0.2974 -0.0292
 3917W        W 7968   1.659   1.436   3.283 -0.1965  0.2287 -0.2853
 3918W        W 7969   8.634   8.762   4.253  0.2403  0.0673  0.3265
 3919W        W 7970   5.088   1.168   3.318  0.2060  0.1314 -0.0181
 3920W        W 7971   2.368   9.459  11.900 -0.3288 -0.1966  0.0317
 3921W        W 7972   5.242   1.867  12.749  0.1824 -0.0677 -0.0193
 3922W        W 7973   4.496   3.035   0.249 -0.0237  0.2482 -0.1709
 3923W        W 7974   8.658   7.043   4.221  0.0590 -0.1506 -0.0125
 3924W        W 7975   3.659   2.904   4.695 -0.1916 -0.1171 -0.2415
 3925W        W 7976   0.713   8.480   5.034  0.1270  0.1966  0.3022
 3926W        W 7977   0.632   9.195  10.246 -0.0706  0.0089  0.3459
 3927W        W 7978   8.257   1.332   3.082 -0.3225 -0.0012 -0.4209
 3928W        W 7979   4.242   4.578   1.073 -0.2751 -0.0058  0.2250
 3929W        W 7980   1.809   9.874   4.411  0.1145  0.0816 -0.1401
 3930W        W 7981   9.636   7.674  12.592  0.0079  0.4835 -0.1819
 3931W        W 7982   6.291   0.008   1.929 -0.2302  0.3140 -0.1579
 3932W        W 7983   1.436   9.407   0.221 -0.2083 -0.0917  0.1452
 3933W        W 7984   6.413   1.435  10.222 -0.0703  0.3258  0.1363
 3934W        W 7985   0.672   7.907   3.462  0.1842  0.0264  0.0423
 3935W        W 7986   6.232   6.025  13.361  0.0520 -0.1413 -0.4099
 3936W        W 7987   3.815   0.397  10.258 -0.0123  0.0659 -0.0162
 3937W        W 7988   2.946   9.472   9.976  0.2988 -0.1749 -0.4153
 3938W        W 7989   2.518   3.625   3.956 -0.4417 -0.1026  0.3306
 3939W        W 7990   7.693   7.510   2.816  0.0735  0.1719 -0.0533
 3940W        W 7991   2.297   0.953   1.777 -0.3827  0.2339  0.1796
 3941W        W 7992   3.993   0.032  12.410  0.0418  0.0819 -0.1651
 3942W        W 7993   8.901   3.356  13.073  0.1674  0.0686  0.0408
 3943W        W 7994   4.908   0.744   2.408 -0.0669 -0.1853 -0.0598
 3944W        W 7995   5.448   0.654   1.704 -0.3524  0.2875  0.0677
 3945W        W 7996   9.199   6.208   4.620  0.1739 -0.1301  0.0849
 3946W        W 7997   5.639   6.516   1.848 -0.1527  0.0634  0.2418
 3947W        W 7998   5.476   7.547  13.422  0.1275  0.3544  0.1869
 3948W        W 7999   1.199   0.875  12.218  0.2917 -0.2274 -0.1520
 3949W        W 8000   9.286   5.173   4.841 -0.2091 -0.3097 -0.0272
 3950W        W 8001   4.763   0.486   9.390  0.1500 -0.0136  0.1479
 3951W        W 8002   7.186   4.938  11.191 -0.2250 -0.2384 -0.2102
 3952W        W 8003   9.957   1.675   0.629 -0.2261  0.3117 -0.0402
 3953W        W 8004   7.645   0.623  10.083 -0.2210  0.2952 -0.2258
 3954W        W 8005   6.604   6.312   1.050  0.1306  0.0553  0.3864
 3955W        W 8006   3.949   8.804  12.520 -0.1862  0.1081  0.0177
 3956W        W 8007   8.147   7.417   3.532  0.1144 -0.1673 -0.0945
 3957W        W 8008   9.076   9.921  13.677 -0.1935 -0.1888  0.2160
 3958W        W 8009   1.604   1.196   4.310  0.1553 -0.2446 -0.0749
 3959W        W 8010   9.644   9.707   0.451  0.0591  0.0418  0.0832
 3960W        W 8011   1.811   1.962  13.734 -0.2039 -0.1049  0.0832
 3961W        W 8012   0.929   1.377   1.015  0.0612  0.1253 -0.0521
 3962W        W 8013   4.043   9.783   4.765 -0.1155  0.1726 -0.3576
 3963W        W 8014   2.640   5.088   2.284  0.0032  0.1092 -0.1563
 3964W        W 8015   2.186   7.298   4.437  0.0739 -0.0529  0.1176
 3965W        W 8016   0.136   5.721  12.525 -0.0283 -0.0775  0.1654
 3966W        W 8017   1.728   1.515   8.739  0.0766  0.3778  0.0854
 3967W        W 8018   4.400   2.107  12.353 -0.0908  0.1524  0.0560
 3968W        W 8019   3.024   8.384   1.069  0.0149 -0.0349  0.0774
 3969W        W 8020   1.012   9.568  11.945  0.1487  0.1595  0.1637
 3970W        W 8021   3.193   3.747  14.005  0.1004  0.1635 -0.0568
 3971W        W 8022   3.821   8.589   9.537  0.3134 -0.0886 -0.2721
 3972W        W 8023   8.730   2.417  13.909 -0.1011 -0.1654  0.1715
 3973W        W 8024   6.531   9.934  13.041 -0.2535  0.2663 -0.1503
 3974W        W 8025   2.672   3.845  10.359  0.3354  0.1332  0.0068
 3975W        W 8026   0.348   1.307   2.859 -0.0935  0.0514 -0.1146
 3976W        W 8027   8.967   2.003  13.222 -0.2389 -0.2071 -0.1604
 3977W        W 8028   4.176   6.636  13.669 -0.3846 -0.0488 -0.1141
 3978W        W 8029   2.067   0.358  11.975  0.0925  0.1788  0.1193
 3979W        W 8030   9.228   5.472   9.657 -0.2179  0.0037  0.1541
 3980W        W 8031   1.996   0.132  13.581  0.1537 -0.3026  0.2122
 3981W        W 8032   1.534   5.384   3.634  0.1656  0.2614  0.3264
 3982W        W 8033   5.195   2.343  13.054  0.3901  0.1326  0.0498
 3983W        W 8034   5.908   3.254   4.206 -0.0993 -0.2625  0.0873
 3984W        W 8035   2.896   3.949   3.815  0.3398  0.0192  0.2884
 3985W        W 8036   7.736   1.011   5.058  0.0010 -0.1005  0.0237
 3986W        W 8037   1.396   7.165  12.213  0.2463 -0.0773 -0.2518
 3987W        W 8038   7.358   0.809  10.953 -0.2082 -0.0493  0.1342
 3988W        W 8039   2.372   0.503  12.736  0.2059 -0.2110 -0.1883
 3989W        W 8040  10.156   6.840  10.495  0.0924 -0.1042 -0.2281
 3990W        W 8041   8.695   2.519   1.186  0.2348  0.0021 -0.0623
 3991W        W 8042   4.201   6.743  12.093 -0.1530 -0.3933  0.2403
 3992W        W 8043   6.635   8.233   3.565  0.1242 -0.0528 -0.0042
 3993W        W 8044   7.844   2.110  10.277 -0.0388  0.0322 -0.0043
 3994W        W 8045   0.134   0.710  12.681 -0.1880 -0.2185 -0.0557
 3995W        W 8046   3.338   5.131  11.855 -0.1459 -0.0292  0.0269
 3996W        W 8047  10.058   3.864   2.871  0.1552  0.3773 -0.0161
 3997W        W 8048   4.330   5.289  13.665  0.1359 -0.0186 -0.2235
 3998W        W 8049   2.510   0.764   0.779 -0.1359 -0.0249 -0.1314
 3999W        W 8050   4.709   9.639  13.711 -0.2314  0.0239  0.0765
 4000W        W 8051   0.397   9.105   2.233  0.0009 -0.0301  0.2394
 4001W        W 8052   7.289   0.529  11.417 -0.0283 -0.0924  0.0036
 4002W        W 8053   5.636   7.290   0.083 -0.1118 -0.1574 -0.2259
 4003W        W 8054   2.365   4.761  10.483 -0.2270 -0.3055 -0.1673
 4004W        W 8055   0.549   7.009  10.157 -0.1196 -0.1350 -0.0405
 4005W        W 8056   7.668   5.804   2.181 -0.0134  0.1972  0.0522
 4006W        W 8057   0.745   8.114   3.961 -0.2706  0.1025  0.2289
 4007W        W 8058   4.719   4.915  13.873 -0.1201 -0.1837 -0.0567
 4008W        W 8059   3.091   5.206   2.614  0.1416  0.0405 -0.1490
 4009W        W 8060   7.215   0.348  12.927 -0.0553 -0.0227  0.3316
 4010W        W 8061   1.805   6.218  13.168  0.1331 -0.2183  0.1986
 4011W        W 8062   3.721   8.866   0.253  0.2560 -0.2869  0.1149
 4012W        W 8063   1.348   6.119   0.678 -0.0715 -0.0346  0.0056
 4013W        W 8064   7.541   3.545  12.356 -0.1103  0.0006  0.0155
 4014W        W 8065   5.809   2.317   3.941  0.2241 -0.0855 -0.0798
 4015W        W 8066   0.052   5.362  12.139 -0.1881  0.1038  0.0707
 4016W        W 8067   2.227   1.116  12.506 -0.1047  0.0507  0.1023
 4017W        W 8068   5.363   2.760   0.668  0.1405 -0.1828  0.0573
 4018W        W 8069   9.619   5.095   3.809 -0.0181  0.0220 -0.2198
 4019W        W 8070   2.292   4.982  12.034  0.0933  0.4234  0.0404
 4020W        W 8071   3.046   9.084   2.159 -0.0075  0.0859 -0.0562
 4021W        W 8072   5.282   9.224   2.061  0.2594 -0.0690 -0.1630
 4022W        W 8073   2.658   0.878  12.429 -0.2529  0.2454 -0.1415
 4023W        W 8074   7.573   1.985  11.129 -0.0747  0.2885  0.0574
 4024W        W 8075   6.320   3.964  12.562  0.5522  0.0598 -0.5735
 4025W        W 8076   4.557   0.804   4.440  0.2583 -0.3441 -0.0034
 4026W        W 8077   5.970   9.958  12.927 -0.2908  0.0352  0.1752
 4027W        W 8078   6.519   2.519  12.546  0.0685  0.3463 -0.1783
 4028W        W 8079   4.531   1.472  13.124  0.2941 -0.0153  0.2017
 4029W        W 8080   9.924   2.675   4.842  0.2824  0.1516  0.1455
 4030W        W 8081   3.710   9.583  11.077  0.0430 -0.1717 -0.0026
 4031W        W 8082   2.333   7.570   2.829  0.1291 -0.1776  0.2024
 4032W        W 8083   3.562   5.475  10.290  0.3958 -0.0519 -0.2225
 4033W        W 8084   2.093   1.146   0.700  0.0310  0.1971  0.0822
 4034W        W 8085   4.935   4.278  12.237  0.1783 -0.0712 -0.1511
 4035W        W 8086   2.662   4.244   2.976 -0.0493  0.1390 -0.1660
 4036W        W 8087   8.712   7.658  12.279 -0.0492  0.0162  0.2080
 4037W        W 8088   0.677   0.439   2.700 -0.1193 -0.0217  0.2362
 4038W        W 8089  10.068   6.349  10.229  0.1240  0.1061  0.0356
 4039W        W 8090   9.322   6.896  10.402  0.0979  0.2117 -0.1491
 4040W        W 8091   8.696   2.659  13.447  0.0005 -0.0997  0.0424
 4041W        W 8092   9.138   4.521   1.152 -0.0487  0.1939  0.0941
 4042W        W 8093   0.922   8.700   2.903 -0.1013 -0.1169  0.1375
 4043W        W 8094   7.479   8.666  11.197 -0.3358 -0.1810  0.1778
 4044W        W 8095   9.779   1.473  11.612  0.4359 -0.0530  0.1250
 4045W        W 8096  10.007   0.464   0.495 -0.2791  0.0473 -0.2305
 4046W        W 8097   4.324   3.079  10.901  0.1900 -0.3392  0.0580
 4047W        W 8098   7.589   6.293  13.524  0.0372  0.2777 -0.1800
 4048W        W 8099  10.120   6.082  11.521 -0.0777 -0.3191  0.3418
 4049W        W 8100   1.541   7.525   1.211 -0.0767  0.0032  0.1460
 4050W        W 8101   6.536   9.167  10.047  0.3827  0.0946  0.1863
 4051W        W 8102   5.911   6.431  13.246 -0.0621 -0.2682  0.1690
 4052W        W 8103   0.538   9.570   2.343 -0.1577 -0.2798  0.0589
 4053W        W 8104   7.818   0.331  12.969 -0.2209 -0.2176  0.1030
 4054W        W 8105   4.089   4.627  13.641  0.1625 -0.3333 -0.0897
 4055W        W 8106   6.653   3.889  12.933 -0.1074 -0.1842 -0.1457
 4056W        W 8107   9.652   8.573  11.250 -0.2389 -0.2388  0.1088
 4057W        W 8108   6.265   5.964  13.932  0.2501 -0.0330 -0.3356
 4058W        W 8109   6.513   3.255   1.642  0.0410 -0.2116  0.0597
 4059W        W 8110   1.726   3.607  12.309  0.2414  0.0040 -0.0270
 4060W        W 8111   8.767   3.047  13.851 -0.2093 -0.0594  0.1476
 4061W        W 8112   0.472   0.674   3.481 -0.0446 -0.1418  0.2394
 4062W        W 8113   4.174   8.624   1.581 -0.2091  0.0664 -0.2467
 4063W        W 8114   2.221   9.833   4.062 -0.1216 -0.2143  0.0219
 4064W        W 8115   4.654   1.816   4.505  0.0023 -0.0389 -0.0649
 4065W        W 8116   0.502   5.294   1.934  0.3498 -0.2367 -0.1720
 4066W        W 8117   6.337   8.086  10.554 -0.2294  0.0978  0.1504
 4067W        W 8118   3.505   5.065   0.768 -0.0962 -0.2507  0.1402
 4068W        W 8119   9.794   6.232   0.680 -0.1672  0.1222  0.1210
 4069W        W 8120   4.095   7.239  10.794 -0.0543  0.1468 -0.2075
 4070W        W 8121   2.057   0.987  14.023 -0.0634  0.3052 -0.2109
 4071W        W 8122   2.694   1.923  10.385  0.2386  0.0328 -0.1823
 4072W        W 8123   3.414   0.801   1.821 -0.0773  0.1570  0.2647
 4073W        W 8124   0.712   7.958   4.843 -0.2679  0.3017  0.2062
 4074W        W 8125   1.023   3.580   4.879 -0.1546 -0.0149 -0.3314
 4075W        W 8126   9.883   9.313   3.962  0.1612  0.3603 -0.3524
 4076W        W 8127   7.707   2.008  13.509  0.0028 -0.4416  0.4877
 4077W        W 8128   1.454   5.402  11.644 -0.0584  0.2913  0.0986
 4078W        W 8129   7.291   2.890   5.301 -0.0018  0.0628  0.3303
 4079W        W 8130   2.948   8.949   1.646  0.0943 -0.1949 -0.1187
 4080W        W 8131   5.304   6.786  11.499 -0.2049  0.3783 -0.0247
 4081W        W 8132   9.679   7.253   2.099  0.1110 -0.3881  0.2843
 4082W        W 8133   8.811   9.927   4.219 -0.0267 -0.0226  0.3876
 4083W        W 8134   5.431   4.864   0.426  0.4062  0.0878 -0.4639
 4084W        W 8135   8.884   3.592  12.125  0.0056 -0.0955 -0.0655
 4085W        W 8136   9.836   5.236  10.340 -0.4383  0.0850  0.0095
 4086W        W 8137   9.966   2.386  11.512 -0.0268  0.0677  0.1915
 4087W        W 8138   8.426   1.145  12.747  0.3898 -0.3252 -0.3028
 4088W        W 8139   0.689   2.760   9.256 -0.0725 -0.0222 -0.1968
 4089W        W 8140   3.923   4.197  13.416 -0.0073 -0.1197  0.1045
 4090W        W 8141   1.131   6.095  11.961  0.0875  0.2729 -0.0188
 4091W        W 8142   5.256   5.496  13.465 -0.0764  0.1312 -0.1804
 4092W        W 8143   6.268   6.576   1.243 -0.1823  0.1752  0.1246
 4093W        W 8144   5.453   4.885   2.331  0.0365  0.3529 -0.2104
 4094W        W 8145  10.111   0.576   1.361 -0.0766  0.0821  0.1417
 4095W        W 8146   6.472   4.671  11.844  0.0956 -0.1588  0.0140
 4096W        W 8147   6.336   2.166  12.176 -0.5175 -0.0920  0.0883
 4097W        W 8148   2.468   0.639   5.122 -0.0452 -0.1521 -0.2602
 4098W        W 8149   9.976   8.173  10.975 -0.1422  0.0029 -0.0691
 4099W        W 8150   9.575   2.654  13.501  0.3225  0.0506 -0.1414
 4100W        W 8151   6.576   1.949   2.929 -0.2269 -0.1162 -0.3244
 4101W        W 8152   0.994   3.173   0.848 -0.1897  0.1629 -0.0904
 4102W        W 8153   1.059   5.892  10.255  0.0443 -0.0810 -0.0804
 4103W        W 8154   2.133   8.109   4.009 -0.1952  0.0039 -0.0749
 4104W        W 8155   0.845   6.049  11.571 -0.1981 -0.1121  0.1477
 4105W        W 8156   5.332   3.166   2.085 -0.1339  0.2787 -0.2801
 4106W        W 8157   2.163   4.801   4.222 -0.0463 -0.0078  0.1231
 4107W        W 8158   3.048   3.019   2.414  0.0348 -0.1683 -0.3949
 4108W        W 8159   1.351   2.210  10.757  0.2322 -0.2599 -0.2748
 4109W        W 8160   5.346   8.571  14.006 -0.1148  0.1350  0.3994
 4110W        W 8161   4.151   8.121  13.124  0.1703  0.1625 -0.2845
 4111W        W 8162   9.228   5.040   2.355 -0.0704 -0.2328 -0.2930
 4112W        W 8163   9.260   1.380   9.376  0.1271 -0.0185 -0.0273
 4113W        W 8164   7.421   0.631   1.664  0.1077  0.2546 -0.2071
 4114W        W 8165   2.205   8.693   2.718 -0.2876  0.0400 -0.2879
 4115W        W 8166   9.007   3.879   2.241 -0.0305 -0.0176 -0.0610
 4116W        W 8167   3.393   8.355  10.701 -0.0046  0.1908  0.0932
 4117W        W 8168   9.383   5.918  12.979 -0.1788  0.0055 -0.0763
 4118W        W 8169   1.049   1.991  13.120  0.2394 -0.0850  0.1895
 4119W        W 8170   4.707   3.210  10.511  0.1025  0.2017  0.0729
 4120W        W 8171   1.105   0.333  13.655  0.1221 -0.1017 -0.2453
 4121W        W 8172   9.461   4.120   2.187 -0.2516  0.0807  0.0460
 4122W        W 8173   7.012   5.090  12.303  0.4314  0.2301  0.2308
 4123W        W 8174   6.116   1.545   4.775  0.2110 -0.4577 -0.2124
 4124W        W 8175   6.978   9.425   2.124  0.0823  0.1280 -0.1177
 4125W        W 8176   4.416   5.060   1.858 -0.0776  0.1282 -0.3204
 4126W        W 8177   1.520   8.506   9.719  0.3041 -0.3102 -0.0497
 4127W        W 8178   5.571   7.075  11.858  0.2449 -0.5138 -0.3708
 4128W        W 8179   7.536   1.859   6.097 -0.2864  0.3317  0.0502
 4129W        W 8180   9.302   8.414   3.897  0.0985 -0.3316 -0.4184
 4130W        W 8181   9.059   1.375  10.423  0.0665  0.1531  0.0840
 4131W        W 8182   3.719   5.344   1.233  0.3346  0.0854  0.0487
 4132W        W 8183   6.898   8.132  12.383  0.2543 -0.2356  0.2051
 4133W        W 8184   9.579   3.681   9.522 -0.1503 -0.0716  0.0127
 4134W        W 8185   2.611   2.401  12.488  0.0922 -0.1548  0.1106
 4135W        W 8186   3.799   7.429   3.926  0.2549  0.0632  0.1769
 4136W        W 8187   2.511   9.478  13.420  0.1752 -0.0862 -0.1320
 4137W        W 8188   4.618   9.676  13.070 -0.0650 -0.0240 -0.1535
 4138W        W 8189   6.979   9.215   4.053 -0.2442 -0.1279  0.0429
 4139W        W 8190   0.616   1.546   8.584  0.2936 -0.0382 -0.0020
 4140W        W 8191   0.274   2.542   8.745  0.1881  0.1726  0.0411
 4141W        W 8192   3.930   1.142   3.204  0.4252 -0.0489  0.0033
 4142W        W 8193   0.014   6.475   3.639  0.0337  0.1066 -0.0193
 4143W        W 8194   2.530   4.824   1.163  0.4082  0.0027 -0.0306
 4144W        W 8195   6.045   3.594  12.463 -0.0142  0.0231  0.4365
 4145W        W 8196   8.338   8.899  13.773  0.1260 -0.0337  0.1800
 4146W        W 8197   6.747   5.466  14.000  0.0451  0.3118  0.3281
 4147W        W 8198   8.287   4.819  11.582  0.0361 -0.2716  0.1335
 4148W        W 8199   1.301   4.477   2.684  0.2574 -0.0004  0.4796
 4149W        W 8200   5.755   7.099   0.527  0.0571 -0.0245 -0.0283
 4150W        W 8201   1.054   6.032   3.821 -0.1812  0.2144 -0.1117
 4151W        W 8202   7.488   2.612  13.634 -0.0636  0.1168 -0.3626
 4152W        W 8203   2.764   9.124  11.125  0.0822  0.3977  0.1663
 4153W        W 8204   7.254   8.465   2.427  0.2042 -0.2377  0.0346
 4154W        W 8205   3.208   5.449   0.820 -0.2289 -0.1220 -0.1778
 4155W        W 8206   8.459   1.738   4.271 -0.2311 -0.0140 -0.3522
 4156W        W 8207   8.823   8.872   5.218  0.0937 -0.0838  0.1393
 4157W        W 8208   9.378   6.232   3.256  0.3331  0.0458  0.0766
 4158W        W 8209   9.334   1.864   4.264  0.1362 -0.0167 -0.1156
 4159W        W 8210   8.637  10.151   2.422 -0.1843 -0.0188  0.0459
 4160W        W 8211   0.011   2.807  13.514 -0.2992  0.1660 -0.0371
 4161W        W 8212   3.029   9.177  10.634  0.1465  0.1101 -0.3127
 4162W        W 8213   6.841   5.838  11.166  0.1738  0.2128 -0.2452
 4163W        W 8214   4.728   6.673  11.940 -0.0419  0.0506  0.1133
 4164W        W 8215   2.149   3.344   3.077  0.1568 -0.3824  0.1452
 4165W        W 8216   1.306   9.667  10.499 -0.0782  0.0716 -0.0802
 4166W        W 8217   7.849   8.049   2.911  0.0878 -0.0576  0.2324
 4167W        W 8218   8.615   8.351   2.242 -0.2885 -0.2660  0.1213
 4168W        W 8219   0.500   1.190  13.488  0.2765 -0.0685 -0.2201
 4169W        W 8220   2.264   8.633   0.195  0.1094 -0.3775  0.1387
 4170W        W 8221   7.714   9.751  10.474 -0.0479 -0.2514 -0.0561
 4171W        W 8222   2.184   4.328   3.235  0.1953 -0.2142  0.2428
 4172W        W 8223   7.086   1.716  12.350 -0.3604 -0.1560 -0.0135
 4173W        W 8224   1.681   8.589   5.019  0.1591  0.2496 -0.0463
 4174W        W 8225   9.596   2.783   1.495  0.2058  0.0732  0.0675
 4175W        W 8226   6.346   4.444   0.965 -0.2296 -0.0235 -0.2081
 4176W        W 8227   3.372   6.004   2.796  0.0312  0.1570  0.0472
 4177W        W 8228   1.446   7.210  11.129 -0.0348 -0.0019  0.0863
 4178W        W 8229   3.111   2.715  10.908 -0.0458  0.2488 -0.1079
 4179W        W 8230   9.520   7.873   1.346 -0.3033 -0.3661  0.4122
 4180W        W 8231   1.996   0.204   4.446  0.0965 -0.1517  0.1811
 4181W        W 8232   7.849   4.765  12.385  0.0915 -0.0327 -0.1572
 4182W        W 8233  10.048   5.403   9.614  0.1001  0.2281 -0.0834
 4183W        W 8234   5.259   0.424  12.038  0.0424  0.2321  0.1234
 4184W        W 8235   8.126   9.841  11.343  0.4054 -0.0561  0.3172
 4185W        W 8236   3.323   1.904   4.957 -0.1467  0.2753 -0.1626
 4186W        W 8237   7.109   1.862   1.567 -0.3673  0.1387 -0.2754
 4187W        W 8238   3.052   0.024   1.103 -0.0804  0.4199  0.1194
 4188W        W 8239   4.061   2.271  11.888 -0.4652  0.0800 -0.0125
 4189W        W 8240   0.180   8.051   2.083 -0.0029  0.2080 -0.4992
 4190W        W 8241  10.111   4.569  11.620 -0.1844  0.0784 -0.2174
 4191W        W 8242   2.528   7.009   9.617 -0.1542  0.0005 -0.1838
 4192W        W 8243   5.781   2.548   0.776 -0.1203 -0.0533  0.1119
 4193W        W 8244   8.406   8.367  12.600 -0.0341  0.0574 -0.1949
 4194W        W 8245   2.781   7.689   2.758 -0.1601  0.0671  0.1199
 4195W        W 8246   5.854   3.878   3.599  0.3547 -0.1263  0.0786
 4196W        W 8247   7.005   3.837   3.494  0.0492 -0.0910  0.1067
 4197W        W 8248   4.951   1.785  13.563  0.1928  0.2457  0.1704
 4198W        W 8249   1.644   0.189  11.679  0.2854  0.0157  0.1900
 4199W        W 8250   5.742   2.297  13.039  0.0447 -0.1916  0.1786
 4200W        W 8251   3.590   7.047  10.369 -0.1911 -0.1810 -0.0715
 4201W        W 8252   0.669   5.926   1.533 -0.2512 -0.0669  0.0945
 4202W        W 8253  10.056   4.190  10.725  0.0579 -0.0856  0.0579
 4203W        W 8254   1.803   5.332   9.955 -0.0974 -0.0755  0.2303
 4204W        W 8255   7.977   4.863   4.812 -0.4018 -0.1311 -0.0933
 4205W        W 8256   1.707   6.955  12.538  0.2578 -0.2821 -0.2556
 4206W        W 8257   4.177   1.145   2.159  0.0710 -0.2853  0.0698
 4207W        W 8258   2.463   8.593  12.238 -0.0199 -0.2817  0.0264
 4208W        W 8259   1.936   5.022   0.913 -0.0898  0.2230  0.3913
 4209W        W 8260   3.794   9.821   2.993  0.2398 -0.0390  0.0326
 4210W        W 8261   4.100   4.588  10.931 -0.1916 -0.0957 -0.2446
 4211W        W 8262   8.974   2.941   2.215  0.0389  0.0007 -0.1369
 4212W        W 8263   5.017   4.652   2.896 -0.1823 -0.0395  0.0433
 4213W        W 8264   2.288   8.549   0.664  0.0485  0.3518 -0.3329
 4214W        W 8265   4.581   7.163  11.785 -0.4623 -0.1210 -0.1146
 4215W        W 8266   1.596   0.281  13.385  0.2723 -0.0383 -0.1076
 4216W        W 8267   3.260   0.496   3.313 -0.0409 -0.1160 -0.2397
 4217W        W 8268   7.370  10.055   3.938 -0.2751  0.0299  0.2745
 4218W        W 8269   6.553   2.743   3.006  0.0705  0.0574 -0.0501
 4219W        W 8270   0.524   6.664   9.783 -0.5074 -0.0377  0.2979
 4220W        W 8271   1.878   8.942   2.317 -0.1822  0.1671 -0.2758
 4221W        W 8272   8.803   8.745   0.493  0.2709 -0.2294 -0.0503
 4222W        W 8273   2.808   3.101   1.588 -0.0814  0.1362  0.5946
 4223W        W 8274   4.224   2.332   1.833  0.3605 -0.0192 -0.1503
 4224W        W 8275   9.467   1.365  11.992  0.1128  0.3848  0.2941
 4225W        W 8276   4.225   8.359  11.144  0.1026  0.2853  0.3570
 4226W        W 8277   2.960   1.013   2.777  0.0210 -0.1024  0.1234
 4227W        W 8278   3.471   9.834   0.167  0.1299  0.0163  0.0643
 4228W        W 8279   4.983   0.151  12.937  0.2924  0.0997 -0.2635
 4229W        W 8280   7.400   0.419   9.689  0.0886  0.1534  0.2254
 4230W        W 8281   2.026   3.656   2.682  0.0918  0.1902 -0.3316
 4231W        W 8282   6.026   6.602   4.315 -0.2675 -0.0107  0.2201
 4232W        W 8283   1.196   2.972  13.798 -0.1987  0.1838 -0.1761
 4233W        W 8284  10.154   5.060  11.328  0.1490 -0.0631  0.1613
 4234W        W 8285   1.968   0.703   0.915  0.0532 -0.0616  0.1508
 4235W        W 8286   4.476   0.893  13.183  0.2049  0.1084  0.2249
 4236W        W 8287   7.047   2.116   4.947 -0.3514 -0.2917  0.0518
 4237W        W 8288   9.438  10.142  13.342  0.1265  0.1650 -0.0695
 4238W        W 8289   9.107   4.517  13.445 -0.1218  0.0855  0.2466
 4239W        W 8290   7.503   6.242  11.045  0.0690 -0.3310  0.0677
 4240W        W 8291   0.564   4.199   9.746  0.0062 -0.0911  0.0361
 4241W        W 8292   3.330   4.073   4.148  0.2898 -0.0993 -0.0153
 4242W        W 8293   9.600   9.307   0.719  0.5454 -0.1709 -0.1737
 4243W        W 8294   4.472   3.006   0.774  0.5043 -0.3171  0.1061
 4244W        W 8295   6.275   8.739  12.164 -0.2802 -0.2388  0.1635
 4245W        W 8296   1.520   0.869  10.646 -0.1091  0.2401  0.2933
 4246W        W 8297   8.128   8.671   2.211 -0.1801  0.1827  0.0703
 4247W        W 8298   2.880   0.837   0.460  0.0986  0.0502 -0.0644
 4248W        W 8299   6.203   4.386   0.402  0.0060  0.0775  0.2000
 4249W        W 8300   0.315   8.914  13.489 -0.0816  0.0255  0.0414
 4250W        W 8301   5.330   1.061   0.167  0.0105  0.0793  0.1404
 4251W        W 8302   6.727   1.985  12.490  0.1158 -0.0280  0.0692
 4252W        W 8303   6.936   1.387   1.370 -0.1100  0.0649  0.1540
 4253W        W 8304   1.498   1.617   9.585 -0.1280 -0.0672 -0.0320
 4254W        W 8305   2.474   1.740   4.426 -0.1876  0.3013  0.3399
 4255W        W 8306   2.553   7.144   0.536 -0.1437  0.1566 -0.0430
 4256W        W 8307   8.321   6.783   0.691  0.0522  0.1693 -0.0615
 4257W        W 8308   2.633   3.628   0.080 -0.2832  0.2438  0.4623
 4258W        W 8309   7.127   2.020   3.847 -0.0483 -0.1159  0.2142
 4259W        W 8310   1.309   9.940   4.444 -0.0923  0.2363  0.0847
 4260W        W 8311   9.828   6.116  10.697 -0.0245 -0.1696 -0.1657
 4261W        W 8312   8.716   9.027   2.965  0.0492  0.0470 -0.0384
 4262W        W 8313   7.758   1.176   4.083 -0.0064  0.1596  0.3392
 4263W        W 8314   8.732   4.612   3.934  0.0486  0.3254  0.0760
 4264W        W 8315   4.028   0.487  13.117 -0.3924 -0.2742 -0.1039
 4265W        W 8316   8.245   1.916  13.849 -0.0231 -0.1216  0.0570
 4266W        W 8317   2.986   1.710   1.100 -0.0909  0.3911 -0.2667
 4267W        W 8318   5.671   7.118  11.244 -0.1493 -0.0307 -0.3566
 4268W        W 8319   3.044   1.591  10.066  0.0475 -0.1917  0.0933
 4269W        W 8320   6.157   8.850   0.852 -0.0726 -0.1677  0.1406
 4270W        W 8321   8.637   6.365   1.519 -0.0058  0.2913  0.1524
 4271W        W 8322   7.263   5.931  10.223  0.0857 -0.1780 -0.1063
 4272W        W 8323   1.875   3.186   2.660 -0.2229 -0.0336 -0.2903
 4273W        W 8324   6.407   6.469   3.557 -0.1001  0.2356  0.3241
 4274W        W 8325   9.650   4.329  11.742 -0.2351  0.2730  0.0304
 4275W        W 8326   1.137   9.039  10.475  0.1859 -0.0342 -0.0626
 4276W        W 8327   1.138   4.641  12.250  0.2112 -0.2218 -0.0270
 4277W        W 8328   1.363   4.496  13.727 -0.1484 -0.1964  0.0218
 4278W        W 8329   2.414   1.826   2.485 -0.0512 -0.0575 -0.0303
 4279W        W 8330   7.668   3.570   4.689 -0.2185 -0.0022  0.0343
 4280W        W 8331   4.819   8.271   9.352 -0.1173  0.2091  0.1143
 4281W        W 8332   7.915   3.189   3.348 -0.2230  0.0701 -0.1094
 4282W        W 8333   1.573   3.332  12.862 -0.0750 -0.0593  0.0092
 4283W        W 8334   8.667   3.080  10.329  0.0592 -0.2908  0.3289
 4284W        W 8335   6.506   3.203   1.145 -0.0708  0.3204 -0.1148
 4285W        W 8336   9.155   0.793   2.483 -0.1084  0.2500  0.1213
 4286W        W 8337   6.515   8.662  10.411 -0.0705  0.1559 -0.1670
 4287W        W 8338   5.919   3.911   2.130  0.0164 -0.0015 -0.0939
 4288W        W 8339   5.161   0.704   3.609 -0.0453  0.1782 -0.1879
 4289W        W 8340   8.519   1.275   1.202  0.2425  0.2002  0.0724
 4290W        W 8341   7.578   1.509  13.180  0.1068  0.0948 -0.1217
 4291W        W 8342   8.639   6.751  12.043 -0.2079 -0.2674  0.0220
 4292W        W 8343   9.655   6.654  10.033 -0.0422 -0.2568 -0.3484
 4293W        W 8344   9.579   2.051   8.730 -0.0387 -0.1017  0.0995
 4294W        W 8345   9.917   1.871   3.262  0.3128  0.2716 -0.0041
 4295W        W 8346   8.517   1.391  13.806 -0.0752 -0.0199  0.3405
 4296W        W 8347   5.860   0.203  13.209 -0.0886  0.2129 -0.0916
 4297W        W 8348   0.267   5.325   0.984  0.0782  0.2071 -0.0052
 4298W        W 8349   0.333   1.132  10.251  0.1983  0.3339 -0.0224
 4299W        W 8350   5.348   2.447   4.278  0.1548  0.2219 -0.1427
 4300W        W 8351   8.037   4.939  10.543 -0.1670  0.0988 -0.2662
 4301W        W 8352   8.302   1.534   4.804  0.2466 -0.0625 -0.2584
 4302W        W 8353   8.285   8.310   3.496  0.2186 -0.0901  0.1474
 4303W        W 8354   1.899   1.436  13.938 -0.1352 -0.0394 -0.3562
 4304W        W 8355   0.296   6.805   3.446  0.1295  0.0529  0.1339
 4305W        W 8356   8.260   7.147   4.501  0.1053 -0.1639 -0.2384
 4306W        W 8357   4.059   5.879   3.374  0.0071  0.0559 -0.0957
 4307W        W 8358   2.364   3.169   1.860 -0.1740  0.2213 -0.0778
 4308W        W 8359   0.398   7.554  10.059 -0.0991 -0.0086  0.0203
 4309W        W 8360   7.923   8.146  10.461 -0.0955  0.0180 -0.0880
 4310W        W 8361   7.003   2.824   2.680 -0.0339  0.1738 -0.1256
 4311W        W 8362   0.466   6.232   2.062 -0.1082 -0.0918  0.0077
 4312W        W 8363   1.232   5.458   1.220  0.1912  0.3371 -0.1518
 4313W        W 8364   8.826   8.587   3.801 -0.4941  0.0537  0.3234
 4314W        W 8365   6.191   3.790   0.313 -0.1828 -0.3819 -0.1484
 4315W        W 8366   9.717   4.180   9.698 -0.2169  0.2712  0.1239
 4316W        W 8367   9.914   3.600  13.336 -0.2691 -0.2072 -0.0275
 4317W        W 8368   8.862   3.506   3.953  0.1471 -0.1684  0.0151
 4318W        W 8369   9.443   4.556   2.504  0.0690  0.0571 -0.2076
 4319W        W 8370   8.483   1.921   1.830  0.1664 -0.0938  0.2201
 4320W        W 8371   4.331   5.218  10.900  0.1295 -0.0540  0.0467
 4321W        W 8372   6.748   9.218  11.214  0.1169 -0.0083  0.2950
 4322W        W 8373   4.876   1.128  12.854  0.2993  0.1546  0.2049
 4323W        W 8374   0.222   3.108   1.503 -0.1450  0.1348  0.0121
 4324W        W 8375   2.265   1.176  10.721 -0.0602  0.1266 -0.1456
 4325W        W 8376   3.155   2.352   0.034 -0.0346  0.1023  0.0536
 4326W        W 8377   3.109   5.924  12.435 -0.2847 -0.0429  0.1120
 4327W        W 8378   5.585   1.301   3.231 -0.0566 -0.0728  0.0373
 4328W        W 8379   5.469   2.147   0.650 -0.3316 -0.0610 -0.2457
 4329W        W 8380   1.384   1.881   2.380 -0.0724 -0.0348  0.1723
 4330W        W 8381   6.039   0.287   2.431 -0.2877  0.2195 -0.1654
 4331W        W 8382   6.914   9.200   3.567 -0.2493 -0.0670  0.1864
 4332W        W 8383   4.493   8.014   3.841 -0.1053  0.2228 -0.4981
 4333W        W 8384   0.870   7.821   4.412 -0.0066  0.1126  0.3430
 4334W        W 8385   9.037   1.962  12.123 -0.3270  0.2435 -0.1821
 4335W        W 8386   7.500   5.144   3.384  0.1735 -0.1199 -0.3573
 4336W        W 8387   8.806   7.901   0.776 -0.0138 -0.2399 -0.1309
 4337W        W 8388   4.770   3.052   3.286 -0.1049  0.0982  0.3320
 4338W        W 8389   0.787   2.436  13.052 -0.1525  0.0540 -0.0258
 4339W        W 8390   2.983   0.434  11.533 -0.0652 -0.0518  0.0689
 4340W        W 8391   3.638   6.700  10.861  0.1124 -0.0408  0.2748
 4341W        W 8392   5.105   2.003   4.391  0.0895 -0.1583 -0.0846
 4342W        W 8393   2.947   6.505  11.601  0.0534  0.3044  0.0960
 4343W        W 8394   7.360   2.648   3.056 -0.3844  0.1305  0.1063
 4344W        W 8395   9.894   4.855   2.419 -0.0419 -0.0347 -0.0302
 4345W        W 8396   0.949   1.695  12.744  0.1221  0.0940  0.3821
 4346W        W 8397   1.866   0.689   1.602 -0.1399  0.1099 -0.2521
 4347W        W 8398   9.571   8.190   9.600 -0.0087 -0.0542  0.0094
 4348W        W 8399   8.920   1.916   3.554 -0.1916 -0.0572 -0.2495
 4349W        W 8400   7.762   3.287   1.097  0.2689  0.2329  0.1450
 4350W        W 8401  10.158   7.277   3.256 -0.1631 -0.0339 -0.2777
 4351W        W 8402   9.956   6.548  11.684  0.1017  0.3628 -0.3259
 4352W        W 8403   0.044   3.297  10.304  0.0232  0.0932 -0.2345
 4353W        W 8404   8.057   2.976   4.285  0.1213 -0.0204 -0.1684
 4354W        W 8405   3.352   5.300   4.056 -0.2186 -0.1089 -0.0031
 4355W        W 8406   0.173   3.515   5.019 -0.0992  0.1110  0.0502
 4356W        W 8407   4.170   1.682   1.940  0.0054  0.5002 -0.3490
 4357W        W 8408   6.069   8.873   4.584 -0.0029 -0.2053  0.0129
 4358W        W 8409   0.922   7.906  10.456 -0.2123  0.0184  0.3451
 4359W        W 8410   6.823   2.959  12.616 -0.0921  0.0289  0.0454
 4360W        W 8411   3.053   3.033   3.372 -0.3210  0.2813  0.3357
 4361W        W 8412   1.709   6.062  13.640  0.1675 -0.0751 -0.1099
 4362W        W 8413   1.967   8.070   2.078 -0.1545  0.1620  0.1106
 4363W        W 8414   9.667   3.516  12.113  0.2087 -0.3503 -0.1223
 4364W        W 8415   5.247   7.355  13.821 -0.1572 -0.3904  0.3080
 4365W        W 8416   1.401   9.222  11.542  0.0218  0.2962 -0.1270
 4366W        W 8417   1.566   2.504  10.007 -0.2599 -0.2061 -0.0981
 4367W        W 8418   5.067   0.175   3.434  0.0328 -0.1671 -0.0320
 4368W        W 8419   6.049   9.378   0.763  0.2011 -0.2689  0.0789
 4369W        W 8420   2.575   3.229   9.496  0.3585 -0.2459 -0.1587
 4370W        W 8421   4.422   8.017   1.781 -0.1005  0.1011 -0.0671
 4371W        W 8422   5.314   7.606  10.182 -0.1920  0.3765  0.0098
 4372W        W 8423   2.507   7.491   0.946 -0.2059 -0.0613 -0.0769
 4373W        W 8424   0.239   6.850  11.252  0.0105  0.1731  0.2597
 4374W        W 8425   4.239   9.134  12.355 -0.1656 -0.1938 -0.0056
 4375W        W 8426   7.550   4.518  13.635 -0.2073 -0.1038  0.2110
 4376W        W 8427   6.427   6.371   0.565 -0.1473 -0.0936 -0.1788
 4377W        W 8428   2.648   1.793   0.701 -0.3394  0.0232  0.0709
 4378W        W 8429   0.126   1.746   1.386 -0.1859 -0.4198  0.1374
 4379W        W 8430   9.054   9.385   1.564 -0.1204  0.4879  0.1020
 4380W        W 8431   2.010   9.093  10.856 -0.1850  0.0036 -0.0294
 4381W        W 8432   4.314   8.681  10.634 -0.0376  0.3109  0.3465
 4382W        W 8433   1.218   0.611  13.142 -0.1992  0.1300  0.0693
 4383W        W 8434   2.490   3.927   9.906 -0.1669  0.3316 -0.0530
 4384W        W 8435   0.321   0.384  13.304  0.1983  0.0959 -0.1702
 4385W        W 8436   7.928   5.634   0.767 -0.0030  0.0214  0.0243
 4386W        W 8437   2.098   9.870   2.635 -0.1305 -0.1611  0.2375
 4387W        W 8438   0.668   4.061  11.230 -0.1873  0.0355 -0.2330
 4388W        W 8439   8.957   5.642  10.724 -0.0879  0.1535 -0.3067
 4389W        W 8440   1.921   3.429  10.990 -0.1700 -0.2337  0.4725
 4390W        W 8441   7.070   6.235   9.496  0.2820 -0.3434 -0.2606
 4391W        W 8442   7.992   4.649  13.395 -0.3271  0.0557  0.3142
 4392W        W 8443   1.864   0.985  11.839 -0.0545  0.4538  0.0840
 4393W        W 8444   4.236   7.744   3.074  0.1230 -0.1025 -0.0363
 4394W        W 8445   5.269   1.976  11.056 -0.2302  0.0248  0.1747
 4395W        W 8446   7.085   8.887  12.344  0.0483 -0.1119  0.1775
 4396W        W 8447   6.019   1.575   5.882  0.0624  0.2108 -0.2428
 4397W        W 8448   7.563   4.064  13.938  0.0275  0.1321 -0.2135
 4398W        W 8449   5.630   5.498   1.507 -0.1755  0.0711  0.2931
 4399W        W 8450   9.172   6.917   0.445  0.1018 -0.0850  0.0979
 4400W        W 8451   6.125   8.876  10.103  0.0786 -0.1442  0.2153
 4401W        W 8452   3.897   5.150  10.589  0.1152  0.0446 -0.0107
 4402W        W 8453   2.780   0.139   9.035  0.2680 -0.1461  0.2141
 4403W        W 8454   3.152   5.380  10.906 -0.1644  0.0257 -0.0831
 4404W        W 8455   2.963   8.382   2.007  0.1120 -0.1905 -0.3294
 4405W        W 8456   2.846   3.760   2.957  0.0491 -0.1916 -0.1762
 4406W        W 8457   8.142   2.513   0.555  0.2084 -0.1296  0.1859
 4407W        W 8458   3.790   9.719  11.915 -0.1780 -0.0132  0.0598
 4408W        W 8459   8.913   3.721   9.684  0.0426  0.0524 -0.0094
 4409W        W 8460   8.615  10.150  10.314  0.3987 -0.1105 -0.0003
 4410W        W 8461   9.245   1.707  11.658  0.0579 -0.0855  0.0008
 4411W        W 8462   1.933   2.227   0.565 -0.0147  0.0543  0.2534
 4412W        W 8463   7.421   1.633  13.641 -0.0002 -0.0606  0.0042
 4413W        W 8464   9.901   9.536   3.523 -0.0931  0.0342 -0.2060
 4414W        W 8465   5.474   8.423  12.801 -0.0419 -0.2204 -0.2412
 4415W        W 8466   8.978   8.321   4.279  0.0901 -0.1450 -0.1958
 4416W        W 8467   6.021   1.215   1.683  0.0092  0.0300 -0.2267
 4417W        W 8468   1.732   9.644  12.742 -0.2541 -0.1540 -0.0483
 4418W        W 8469   1.431   4.745   1.848  0.0498  0.2699  0.2913
 4419W        W 8470   9.010   0.800   5.132  0.0124  0.3410 -0.0135
 4420W        W 8471   6.744   2.122   9.617 -0.2502 -0.2874 -0.0555
 4421W        W 8472   4.215   0.401   1.818 -0.0445  0.3313  0.0360
 4422W        W 8473   4.630   0.244  12.321 -0.3382  0.1595 -0.0953
 4423W        W 8474   3.791   4.595   1.585 -0.3517 -0.1596  0.3106
 4424W        W 8475   7.378   5.994   2.606  0.3155  0.1768  0.0542
 4425W        W 8476   8.552   0.554   2.502 -0.0051 -0.1310  0.2108
 4426W        W 8477   9.999   4.612   4.603  0.1233  0.0218 -0.2365
 4427W        W 8478   6.977  10.124   4.943 -0.1255  0.0432 -0.2592
 4428W        W 8479   6.786   4.376   3.736  0.3498  0.0540 -0.4158
 4429W        W 8480   7.401   8.565  12.468 -0.3261  0.0316 -0.0055
 4430W        W 8481   7.567   2.654  11.089 -0.5592 -0.0932 -0.0996
 4431W        W 8482   8.828   3.314   9.170  0.0416  0.0373 -0.0132
 4432W        W 8483   1.323   4.684  11.078 -0.2303 -0.0360  0.0431
 4433W        W 8484   6.769   6.785   3.749  0.5473 -0.0829  0.0693
 4434W        W 8485   7.619   3.245   2.118 -0.1115  0.3068  0.0068
 4435W        W 8486   7.974   2.674  11.433  0.3187  0.1223 -0.1073
 4436W        W 8487   9.724   8.258  12.743  0.1086 -0.1603  0.1664
 4437W        W 8488   0.121   9.231  10.181 -0.1851  0.2008 -0.1030
 4438W        W 8489   2.064   5.756  12.834 -0.0696 -0.1780 -0.0783
 4439W        W 8490   3.680   8.349   4.203  0.1423 -0.2690 -0.1729
 4440W        W 8491   8.954   3.928   4.207  0.0802 -0.0042 -0.1215
 4441W        W 8492   0.235   7.876   1.468  0.2329 -0.1105 -0.0059
 4442W        W 8493   8.199   9.321  11.381  0.2663  0.1033 -0.1921
 4443W        W 8494   4.876   4.164  11.214 -0.0665 -0.0333 -0.1167
 4444W        W 8495   5.183   3.048  11.730  0.1071 -0.2434 -0.1184
 4445W        W 8496   6.747   7.785  10.515  0.0242  0.1636  0.0554
 4446W        W 8497   5.060   7.392   2.746  0.0389  0.1476 -0.1514
 4447W        W 8498   0.465   2.199   4.561 -0.1164 -0.2576 -0.0856
 4448W        W 8499   9.641   3.269  11.256 -0.0300  0.2750 -0.1006
 4449W        W 8500   9.716   8.725  12.789  0.0772 -0.1314 -0.1069
 4450W        W 8501   7.711   1.922   2.936 -0.0710 -0.3913  0.0373
 4451W        W 8502   0.941   0.656  11.397  0.0789 -0.2856 -0.2788
 4452W        W 8503   2.665   6.248   0.410  0.1406  0.1136 -0.0056
 4453W        W 8504   1.971   7.600  11.850  0.0610 -0.1992 -0.2758
 4454W        W 8505   1.361   0.859   1.556  0.2738  0.1834  0.2921
 4455W        W 8506   1.331   7.376   3.080  0.2650  0.1102 -0.0922
 4456W        W 8507   9.729   4.033  12.124  0.1076 -0.2401  0.1077
 4457W        W 8508   8.050   5.290  11.351  0.0764 -0.1601  0.1533
 4458W        W 8509   6.933   2.757   4.363  0.0718  0.0587  0.0130
 4459W        W 8510   0.072   3.578  11.967  0.3117 -0.1828 -0.1684
 4460W        W 8511   7.075   1.024   0.978  0.0064  0.3474 -0.1449
 4461W        W 8512   1.681   4.351   2.023  0.1018  0.2243  0.0609
 4462W        W 8513   0.317   3.227  10.684 -0.3214 -0.0005 -0.0339
 4463W        W 8514   9.279   5.908  10.004 -0.0636 -0.0913  0.1046
 4464W        W 8515   4.514   2.040  11.511  0.2013  0.1003  0.2280
 4465W        W 8516   2.757   2.938   0.443 -0.1303 -0.1117 -0.0300
 4466W        W 8517   3.150   0.808   4.039 -0.1709  0.1630 -0.0020
 4467W        W 8518   5.182   2.758   3.425 -0.1612  0.3490  0.2772
 4468W        W 8519   0.917   9.913  12.316 -0.2927 -0.1249  0.0700
 4469W        W 8520   6.284   0.017   9.837 -0.1681 -0.0882  0.1240
 4470W        W 8521   1.141   2.696  11.762 -0.0029 -0.2790 -0.2539
 4471W        W 8522   3.165   3.415   1.311 -0.0635  0.3880 -0.1032
 4472W        W 8523   1.875   4.819  11.792 -0.0517 -0.4206 -0.2155
 4473W        W 8524   0.376   0.234  10.798  0.0463 -0.4638  0.1306
 4474W        W 8525   3.113   1.157  10.308  0.0029  0.0936 -0.1860
 4475W        W 8526   4.929   3.277   1.165 -0.0639 -0.0890 -0.2806
 4476W        W 8527   2.720   1.650   2.118  0.0529  0.1159  0.1453
 4477W        W 8528   9.788   7.530  13.759  0.1531  0.1502  0.0157
 4478W        W 8529   4.246   6.807   1.261 -0.1924 -0.2031  0.0211
 4479W        W 8530   4.582   1.134  10.355  0.0554  0.0796 -0.1443
 4480W        W 8531   6.673   6.621   2.555 -0.1158 -0.0873 -0.1155
 4481W        W 8532   6.272   5.835   1.387  0.0415  0.1562 -0.1423
 4482W        W 8533   5.571   7.150   3.554 -0.0182  0.1180  0.1000
 4483W        W 8534   5.702   9.018   1.008 -0.2969  0.0300 -0.2066
 4484W        W 8535   0.050   0.847  11.586 -0.2197  0.2077  0.0635
 4485W        W 8536   5.806   9.728  10.339 -0.3066  0.1564 -0.0871
 4486W        W 8537   2.871   1.321  11.145 -0.1249  0.1095 -0.0027
 4487W        W 8538   7.698   8.036   1.865 -0.0542 -0.0313 -0.0835
 4488W        W 8539   3.151   9.855  11.204 -0.2815 -0.2305  0.2711
 4489W        W 8540   3.781   3.275   3.860  0.4272 -0.0391 -0.0001
 4490W        W 8541   9.823   1.798  13.047  0.1614 -0.0274  0.1388
 4491W        W 8542   4.018   6.078   3.836  0.1565  0.2603  0.1553
 4492W        W 8543   8.021   0.434  12.480 -0.1330 -0.1952 -0.1867
 4493W        W 8544   4.125   1.957   0.131 -0.0198 -0.0834 -0.2758
 4494W        W 8545   1.276   0.369  10.534  0.0562  0.5306  0.0728
 4495W        W 8546   9.814   1.815  13.578 -0.1203 -0.0773 -0.2657
 4496W        W 8547   9.432   4.751  11.621  0.2789  0.2944 -0.2979
 4497W        W 8548   8.363   5.888   0.601 -0.0731 -0.1718 -0.1800
 4498W        W 8549   9.362   5.395   4.175 -0.1137 -0.2854  0.0045
 4499W        W 8550   5.897   1.463  13.682 -0.5658 -0.0062 -0.0203
 4500W        W 8551   0.471   5.134   5.307 -0.1739 -0.1522 -0.1368
 4501W        W 8552   0.665   6.328   3.809 -0.3378 -0.0525 -0.0851
 4502W        W 8553   6.247   1.187   2.623 -0.1086 -0.1851 -0.0815
 4503W        W 8554   1.413   8.276   0.549  0.1344 -0.0861  0.0669
 4504W        W 8555   3.904   4.504   0.124 -0.1138  0.2589 -0.1267
 4505W        W 8556   8.708   2.295  11.986  0.4116  0.0014 -0.2502
 4506W        W 8557   9.761   0.100  13.655 -0.4356 -0.1161 -0.1617
 4507W        W 8558   3.691   2.062  12.188 -0.3257 -0.1203 -0.2260
 4508W        W 8559   3.796   7.394  12.446  0.0338  0.1091 -0.0393
 4509W        W 8560   1.595   6.039  12.771 -0.0648 -0.0039 -0.3693
 4510W        W 8561   4.595   9.989   4.667  0.1186  0.0631  0.0744
 4511W        W 8562   4.977   2.500   1.411  0.0651 -0.2539  0.3899
 4512W        W 8563   7.319   5.488   4.535 -0.1418 -0.1178  0.1304
 4513W        W 8564   4.519   4.508  11.309  0.2079 -0.0902  0.2336
 4514W        W 8565   0.636   4.005  12.160  0.0282  0.2484 -0.2139
 4515W        W 8566   9.655   4.986   9.864 -0.2465  0.1225  0.1290
 4516W        W 8567   7.810   1.409   3.583 -0.2139 -0.0089 -0.1516
 4517W        W 8568   8.286   2.677  10.520  0.0190 -0.0083 -0.1036
 4518W        W 8569   3.650   0.803   4.042  0.0023  0.1488  0.0656
 4519W        W 8570   1.811   9.713   1.740 -0.1555  0.1580  0.2498
 4520W        W 8571   3.130   6.011   0.626  0.0468  0.1895 -0.0618
 4521W        W 8572   2.624   8.997  11.671 -0.3119  0.1790 -0.1458
 4522W        W 8573   0.512   7.803  13.647 -0.0263 -0.0165  0.0211
 4523W        W 8574   0.113   0.903  12.105 -0.0745  0.0121 -0.0527
 4524W        W 8575   4.648   2.410   2.591 -0.1055 -0.0926 -0.4238
 4525W        W 8576   5.208   2.859   1.147  0.3248  0.1695 -0.0182
 4526W        W 8577   3.676   9.535   2.581  0.4774  0.1433 -0.1558
 4527W        W 8578   1.436   5.046   0.286 -0.1903  0.1572  0.2605
 4528W        W 8579   9.618   4.689  13.605  0.1376  0.0337 -0.1610
 4529W        W 8580   3.587   4.186  12.854 -0.1846 -0.0011 -0.1433
 4530W        W 8581   3.388   1.221  12.008 -0.3994  0.0802 -0.3116
 4531W        W 8582   8.895   1.202  10.990  0.0888  0.3368  0.0011
 4532W        W 8583   1.243   7.335  11.670 -0.1179 -0.0666  0.0615
 4533W        W 8584   7.136   1.427  11.377  0.2142 -0.0071  0.2888
 4534W        W 8585   1.613   9.668   3.482 -0.0294 -0.0355 -0.0054
 4535W        W 8586   8.886   6.604  10.602 -0.2776 -0.0583 -0.2016
 4536W        W 8587   7.413   5.812   1.277  0.1613 -0.0903 -0.1718
 4537W        W 8588   5.702   4.774  13.859 -0.2253  0.1030 -0.0183
 4538W        W 8589   5.802   8.609   0.093 -0.0779 -0.0290 -0.1822
 4539W        W 8590   1.000   0.030   3.473  0.0862  0.0566 -0.3873
 4540W        W 8591   8.661   3.252   4.624  0.1020  0.0012  0.1348
 4541W        W 8592   9.424   4.537   9.945 -0.0557  0.3048 -0.2061
 4542W        W 8593   7.807   9.148   4.383 -0.3988  0.2793  0.1459
 4543W        W 8594   1.012   5.230   0.357  0.1900 -0.0096  0.0519
 4544W        W 8595   3.506   5.115   1.695 -0.1546  0.2977  0.3729
 4545W        W 8596   1.692   5.605  13.121  0.2380 -0.1192  0.2369
 4546W        W 8597   0.071   2.301   4.219 -0.0112  0.0033 -0.0484
 4547W        W 8598   7.255   2.917  10.060 -0.1882  0.0861 -0.2779
 4548W        W 8599   8.660   7.831   0.050 -0.1533 -0.1535  0.0681
 4549W        W 8600   0.615   1.414   1.379  0.0850 -0.0671 -0.0636
 4550W        W 8601   3.426   0.988   2.548 -0.1681 -0.0619  0.0041
 4551W        W 8602   1.888   4.721   2.935  0.2268 -0.0215  0.1182
 4552W        W 8603   6.807  10.132   3.167  0.0163 -0.1737  0.0811
 4553W        W 8604   3.193   1.485  13.679 -0.5779 -0.0475 -0.0255
 4554W        W 8605   1.121   2.729   1.301 -0.1191  0.0335 -0.1204
 4555W        W 8606   7.304   1.610   0.940  0.2175 -0.2962 -0.2384
 4556W        W 8607   1.546   5.902   3.018  0.1633 -0.1697  0.2468
 4557W        W 8608   0.491   0.585  13.715  0.2157 -0.1825 -0.1178
 4558W        W 8609   9.952   7.885  13.037 -0.0847  0.1875 -0.0660
 4559W        W 8610   6.435   9.358   1.498  0.1294 -0.1129  0.0213
 4560W        W 8611   4.122  10.116   4.141  0.0209 -0.2826  0.1484
 4561W        W 8612   2.273   3.187  12.336 -0.1657  0.0151  0.1051
 4562W        W 8613   4.926   1.135   3.784 -0.1575 -0.2145 -0.1982
 4563W        W 8614   3.191   5.098   1.230  0.1090  0.2387 -0.0996
 4564W        W 8615   5.743   8.404  10.780  0.0225  0.0541 -0.1712
 4565W        W 8616   5.767   8.028  11.584  0.2159  0.1577  0.0893
 4566W        W 8617   0.409   3.789   3.513 -0.3238  0.1576  0.0835
 4567W        W 8618   9.077   6.041  13.459  0.0422 -0.0598 -0.3861
 4568W        W 8619   1.987   2.603   4.562  0.1557  0.0513  0.0209
 4569W        W 8620   7.096   5.468   0.467 -0.3510  0.0361 -0.6610
 4570W        W 8621   5.942   1.874  10.676  0.2209 -0.0579 -0.2988
 4571W        W 8622   0.367   6.385  11.316 -0.3772  0.1975  0.2116
 4572W        W 8623   2.216   6.166  13.677 -0.0509 -0.0115 -0.0833
 4573W        W 8624   5.064   9.748  11.138  0.0625  0.0306 -0.2129
 4574W        W 8625   6.670   0.597   4.375  0.2626 -0.0469 -0.0046
 4575W        W 8626   6.450   3.951   0.688  0.2263 -0.2106 -0.1381
 4576W        W 8627   3.125   7.876  12.063  0.3021  0.2005 -0.1310
 4577W        W 8628   5.938   2.082   1.509 -0.0503 -0.0209  0.3389
 4578W        W 8629   4.918   3.632   0.857 -0.0222  0.1500  0.0040
 4579W        W 8630   0.023   6.289  13.886 -0.3703 -0.1809  0.3770
 4580W        W 8631   8.304   6.497  12.848  0.2075  0.2431 -0.2229
 4581W        W 8632   9.582   0.857   8.673  0.1435  0.0207 -0.1867
 4582W        W 8633   1.457   5.536   9.635  0.2444  0.2822 -0.1846
 4583W        W 8634   9.009   8.154   3.629 -0.0835 -0.0966  0.3016
 4584W        W 8635   4.948   5.183   0.267  0.3722 -0.0090  0.1648
 4585W        W 8636   9.931   4.592   9.709 -0.0921 -0.0526  0.2523
 4586W        W 8637   5.219   4.645  12.052 -0.0643 -0.2233 -0.1166
 4587W        W 8638   8.690   4.865  13.640  0.4336  0.2285  0.2704
 4588W        W 8639   3.763   4.138   2.811 -0.1895  0.3910 -0.4921
 4589W        W 8640   9.658   0.596   1.507 -0.1844  0.0206 -0.2340
 4590W        W 8641   4.503   3.443   3.461  0.0015 -0.0733 -0.0541
 4591W        W 8642   4.861   8.458  12.062  0.0910 -0.0499  0.3949
 4592W        W 8643   0.714   8.178   3.018  0.1291 -0.1419  0.1425
 4593W        W 8644   8.279   7.423  12.141  0.0633 -0.3231 -0.0023
 4594W        W 8645   5.336   9.311  10.995 -0.0599  0.4865 -0.2649
 4595W        W 8646   6.834   0.938   4.829  0.0867  0.1483  0.1608
 4596W        W 8647   3.846   0.375   0.214 -0.0309  0.3280 -0.0135
 4597W        W 8648   1.777   8.617   0.599 -0.0417 -0.2340  0.0727
 4598W        W 8649   1.563   6.821  11.419  0.0803 -0.0430 -0.1096
 4599W        W 8650   2.345   4.516  12.332  0.2096 -0.0893 -0.1172
 4600W        W 8651   5.070   4.708  11.158  0.2548 -0.3372  0.1624
 4601W        W 8652   1.828   1.255  10.417 -0.3096  0.1417  0.2188
 4602W        W 8653   8.803   2.415   4.833 -0.0586  0.0195 -0.1975
 4603W        W 8654   6.585   3.575  13.952 -0.1527  0.0857  0.0022
 4604W        W 8655   2.911  10.059  13.060 -0.1064 -0.0192  0.1875
 4605W        W 8656   8.707   8.532  11.346  0.1750 -0.0893 -0.1758
 4606W        W 8657   3.808   5.986   2.929 -0.4168 -0.1672  0.0681
 4607W        W 8658   0.100   7.035   9.970 -0.1012  0.0914 -0.1343
 4608W        W 8659   8.778   9.076  12.454 -0.2215 -0.0190 -0.0942
 4609W        W 8660   6.243   8.361  10.082  0.4050  0.0260  0.1063
 4610W        W 8661   9.097   8.943  12.033 -0.2294 -0.1185 -0.1873
 4611W        W 8662   3.277   5.663   2.425 -0.3275  0.3106 -0.0378
 4612W        W 8663   9.293   5.518   2.332 -0.1493  0.0164 -0.0725
 4613W        W 8664   0.869   3.018   3.137 -0.4966 -0.0503 -0.2065
 4614W        W 8665   4.137   8.139   0.379  0.0652 -0.0021 -0.1149
 4615W        W 8666   9.434   3.181   4.748 -0.1598 -0.1366  0.0133
 4616W        W 8667   1.432   9.551   4.223  0.1547  0.1997 -0.5423
 4617W        W 8668   0.140   2.561   9.274 -0.0218  0.2359 -0.0328
 4618W        W 8669   3.862   7.209   1.993  0.0620  0.1071  0.0943
 4619W        W 8670   3.276   1.454   1.385  0.0821  0.0858 -0.1321
 4620W        W 8671   7.463   1.910   2.391 -0.1062 -0.3147 -0.1301
 4621W        W 8672   8.247   1.063   4.953  0.1073  0.1934 -0.0785
 4622W        W 8673   0.052   6.305   1.053  0.0381  0.0729 -0.0141
 4623W        W 8674   3.753   8.429  11.679  0.0645  0.2057  0.0774
 4624W        W 8675   6.749   7.319  12.164 -0.3836 -0.2271  0.1632
 4625W        W 8676   4.785   5.624   0.433 -0.2610 -0.1461 -0.0036
 4626W        W 8677   0.927   9.037  11.719 -0.0927  0.0850 -0.1224
 4627W        W 8678   2.651   7.713   0.524  0.1020  0.1504  0.1601
 4628W        W 8679   3.625   8.165   0.306 -0.0432  0.2659  0.0596
 4629W        W 8680   1.930   5.779   3.663  0.3219  0.0841  0.0868
 4630W        W 8681   8.516   2.685   9.992  0.0331  0.2914  0.1821
 4631W        W 8682   4.866   0.048   2.945 -0.1909  0.0363  0.2531
 4632W        W 8683   4.254   3.986   2.682  0.1314  0.2004 -0.1195
 4633W        W 8684   2.303   8.151   2.715 -0.3971 -0.2533 -0.0025
 4634W        W 8685   0.319   6.748  12.148 -0.0798  0.0192 -0.2411
 4635W        W 8686   2.537   2.744   4.003 -0.2007 -0.1488 -0.0745
 4636W        W 8687   2.566   6.647   1.805 -0.1828 -0.0286  0.2574
 4637W        W 8688   3.906   1.167  12.411  0.0638 -0.1128 -0.0624
 4638W        W 8689   1.649   2.135   9.193 -0.1977  0.0460 -0.0597
 4639W        W 8690   7.300   2.101   1.148  0.0734 -0.3906 -0.0218
 4640W        W 8691   7.497   5.654  12.816 -0.0203  0.0458  0.3193
 4641W        W 8692   8.594   5.167   2.754  0.0396  0.1229 -0.1006
 4642W        W 8693  10.131   7.106  13.163  0.0639 -0.1079 -0.2445
 4643W        W 8694   7.956   5.769   2.587 -0.1024  0.3249 -0.2074
 4644W        W 8695   1.275   8.483   0.061  0.1611 -0.3122 -0.1650
 4645W        W 8696   2.175   0.523   3.039 -0.2504  0.1780  0.2590
 4646W        W 8697   9.049   9.949  10.560  0.2588 -0.0779 -0.2329
 4647W        W 8698   7.190   7.500  11.679 -0.1157  0.0197  0.2158
 4648W        W 8699   9.650   2.582  10.561 -0.0797 -0.0452  0.0693
 4649W        W 8700   1.908   0.780   3.638  0.1020 -0.3387 -0.0834
 4650W        W 8701   1.643   3.593  13.809 -0.0009  0.2665 -0.0889
 4651W        W 8702   6.222   9.656   9.585  0.0460 -0.0669  0.1682
 4652W        W 8703   0.365   4.354  11.908 -0.1180  0.0224 -0.3165
 4653W        W 8704   0.893   3.672   1.170  0.2062 -0.0915 -0.1453
 4654W        W 8705   3.738   5.039   0.304  0.0363  0.4001 -0.3836
 4655W        W 8706   8.048   2.134   1.960 -0.0130 -0.0627 -0.1250
 4656W        W 8707   4.485   5.548  11.244  0.1585  0.1548  0.1900
 4657W        W 8708   4.495   1.553  11.497  0.1551  0.1683 -0.0388
 4658W        W 8709   8.450   7.117   3.784  0.1468  0.1413  0.1544
 4659W        W 8710   3.664   2.466  11.475  0.1477 -0.0232  0.0071
 4660W        W 8711   7.341   9.588  13.064 -0.3691  0.1096  0.2298
 4661W        W 8712   4.152   9.607  13.304 -0.2579  0.0180  0.0579
 4662W        W 8713  10.019   3.770  10.354 -0.3954 -0.0508  0.2935
 4663W        W 8714   6.065   0.228   3.689 -0.1234  0.0428  0.1434
 4664W        W 8715   0.347   9.856  12.028  0.1128 -0.2339 -0.1401
 4665W        W 8716   0.934   6.627  10.167  0.0151 -0.1708 -0.4266
 4666W        W 8717   3.296   3.491   0.377 -0.0174  0.1297  0.1689
 4667W        W 8718   4.547   1.734  13.916  0.1098 -0.3555  0.2301
 4668W        W 8719   0.280   4.897   4.777  0.1542  0.0198  0.2682
 4669W        W 8720   5.548   8.841   2.998  0.0707 -0.1010 -0.1487
 4670W        W 8721   8.053   6.078  12.254 -0.2321 -0.1654 -0.0599
 4671W        W 8722   6.505   9.634  11.526 -0.0998  0.0784 -0.3401
 4672W        W 8723   6.445   9.892   3.980  0.0324 -0.3492  0.3500
 4673W        W 8724   2.296   1.322   3.737  0.0133  0.1073 -0.2943
 4674W        W 8725   8.772   3.142   2.791 -0.3075  0.0471  0.1111
 4675W        W 8726   1.581   3.778  11.300 -0.0233 -0.1030  0.2317
 4676W        W 8727   3.729   5.902   9.529  0.0372 -0.2013  0.0285
 4677W        W 8728   6.486   5.225  12.117 -0.1517 -0.2481 -0.0435
 4678W        W 8729   3.962   1.184  13.736  0.0074 -0.3374  0.1947
 4679W        W 8730   8.919   0.505   3.300 -0.3101 -0.2442  0.0112
 4680W        W 8731   5.123   7.587  12.916 -0.0890  0.2608  0.4073
 4681W        W 8732   2.786   0.609   3.110 -0.0416  0.1157  0.2230
 4682W        W 8733   9.582   7.933  13.670  0.1889  0.1668  0.0315
 4683W        W 8734   6.846   1.867   1.088 -0.0378 -0.2563  0.1215
 4684W        W 8735   5.448   1.949   4.060  0.1633 -0.1035 -0.1730
 4685W        W 8736   6.089   5.479   0.573  0.2054 -0.0028  0.0124
 4686W        W 8737   3.387   9.324  13.215  0.1741  0.0091 -0.3021
 4687W        W 8738   3.590   5.571  10.828 -0.2098  0.3355  0.0284
 4688W        W 8739   8.408   3.143  11.605 -0.2499 -0.2638 -0.1152
 4689W        W 8740   8.168   5.421  10.169 -0.0785  0.1665 -0.2945
 4690W        W 8741   2.639   9.078   9.718  0.1601 -0.0716  0.2317
 4691W        W 8742   1.247   9.631   2.471 -0.0488  0.1387 -0.1116
 4692W        W 8743   4.005   5.028  13.318 -0.2649  0.1677  0.0200
 4693W        W 8744   9.591   2.316  12.803  0.2187  0.2968  0.1175
 4694W        W 8745   8.394   8.812  12.143  0.0531  0.2103 -0.3030
 4695W        W 8746   8.041   3.544   0.616 -0.1290 -0.1705  0.2658
 4696W        W 8747   4.239   6.015   2.296  0.0514 -0.1246 -0.0291
 4697W        W 8748   1.834   2.823   9.750 -0.0786  0.1910 -0.1603
 4698W        W 8749   8.159   0.635   4.540 -0.1154 -0.0743  0.0346
 4699W        W 8750   9.482   0.651  12.142  0.0335  0.0003 -0.0222
 4700W        W 8751   5.140   7.202  13.230  0.0101 -0.0559  0.1939
 4701W        W 8752   5.780   6.262  11.469 -0.0147  0.2943 -0.1360
 4702W        W 8753   1.035   4.133   3.912 -0.0581  0.0939 -0.0828
 4703W        W 8754   1.875   0.628  11.409 -0.0784  0.0807  0.0447
 4704W        W 8755   8.714   1.363   2.899 -0.1372 -0.0333 -0.1737
 4705W        W 8756   9.135   4.193  10.163  0.1061  0.3610  0.0860
 4706W        W 8757   4.617   4.282  11.773  0.3038 -0.0163  0.1343
 4707W        W 8758   9.351   5.443  13.170 -0.1221 -0.1939 -0.2338
 4708W        W 8759   6.610   3.832  11.267 -0.0566  0.0213 -0.1649
 4709W        W 8760   8.569   9.819  12.830 -0.2597  0.0726  0.3211
 4710W        W 8761   7.307   6.467   0.380 -0.2513 -0.0574 -0.0597
 4711W        W 8762   0.448   5.165   4.330  0.1547 -0.0339 -0.1005
 4712W        W 8763   8.901   4.333   3.348  0.4074 -0.0527  0.0274
 4713W        W 8764   4.860   4.952   1.696 -0.1727 -0.1446 -0.4122
 4714W        W 8765   2.706   9.617  10.995  0.0867 -0.0127  0.2835
 4715W        W 8766   6.389   6.358  10.369 -0.1949 -0.3349 -0.0564
 4716W        W 8767   4.124   3.612  11.345 -0.1974 -0.3117 -0.2779
 4717W        W 8768   6.939   8.125   0.296 -0.2486 -0.1249 -0.0569
 4718W        W 8769   0.019   8.932  13.912  0.2830  0.0205  0.3502
 4719W        W 8770   0.721   9.141   0.963 -0.0675  0.1045 -0.2336
 4720W        W 8771   7.230   0.272  10.161  0.0555 -0.2288 -0.1629
 4721W        W 8772  10.150   9.519   1.550 -0.1885 -0.0483 -0.1699
 4722W        W 8773   6.660   3.236  13.471 -0.0227  0.2185 -0.3549
 4723W        W 8774   1.158   0.416   2.642 -0.0193 -0.1974 -0.1296
 4724W        W 8775   5.459   9.584  10.021  0.0662 -0.1552 -0.3525
 4725W        W 8776   7.416   4.056  11.569 -0.4076  0.1510 -0.0214
 4726W        W 8777   2.840   5.926   4.009 -0.0071  0.0710  0.3446
 4727W        W 8778   0.818   3.922  10.404  0.0493  0.2385  0.2822
 4728W        W 8779   3.101   0.849  12.263 -0.0006 -0.0534  0.3566
 4729W        W 8780   8.612   6.436  13.606 -0.0420 -0.1975 -0.0238
 4730W        W 8781   3.897   1.215  10.091 -0.1063 -0.0483 -0.3804
 4731W        W 8782   2.964   1.812  11.117 -0.2052  0.2430  0.0069
 4732W        W 8783   2.802   3.559  13.671  0.0913 -0.0833  0.5254
 4733W        W 8784   1.170   8.315   2.162  0.0828 -0.0413  0.1379
 4734W        W 8785   8.655   4.312  10.036 -0.3522 -0.3236 -0.1802
 4735W        W 8786   0.939   6.710   1.267  0.0310 -0.1768  0.1293
 4736W        W 8787   3.005   9.605   2.268 -0.2548 -0.0044  0.3755
 4737W        W 8788   1.152   7.859   1.389 -0.1642 -0.1577  0.0470
 4738W        W 8789   3.037   2.615   0.820 -0.2433 -0.0963  0.4059
 4739W        W 8790   5.683   1.887  12.358  0.4578 -0.5178  0.0069
 4740W        W 8791   1.884   9.470   3.862  0.2053 -0.3647 -0.0280
 4741W        W 8792   4.682   8.287   0.392 -0.2430 -0.0463 -0.0906
 4742W        W 8793   7.821  10.061   2.885  0.0466  0.1108  0.0183
 4743W        W 8794   8.172   3.412   2.274 -0.0250  0.2038 -0.0379
 4744W        W 8795   4.993   3.080   0.737 -0.1195 -0.1420  0.0210
 4745W        W 8796   4.010   0.908   5.348 -0.0368 -0.1207  0.3824
 4746W        W 8797   1.700   1.705   4.582  0.1523 -0.1908  0.2425
 4747W        W 8798   2.815   6.611   2.633 -0.1858  0.0365  0.1870
 4748W        W 8799   0.855   6.695   4.071  0.2236 -0.0726 -0.2221
 4749W        W 8800   9.210   0.052   9.564  0.1139 -0.0107 -0.0604
 4750W        W 8801   8.070   3.512  11.659  0.3011  0.0910 -0.1061
 4751W        W 8802   6.914   3.801   9.037  0.0561 -0.2175  0.1228
 4752W        W 8803   2.724   8.541   2.933  0.1059  0.0461 -0.2040
 4753W        W 8804   6.657   0.089  12.028  0.1233 -0.0471  0.0380
 4754W        W 8805   5.006   2.702   2.913  0.1075 -0.0793 -0.1131
 4755W        W 8806   1.106   3.081   1.901  0.0534 -0.1121 -0.1114
 4756W        W 8807   4.136   7.081   0.142 -0.1006  0.2214  0.0307
 4757W        W 8808   7.621   0.615   5.400 -0.0036  0.0172 -0.4644
 4758W        W 8809   7.974   8.586  11.930 -0.4121  0.1844 -0.3708
 4759W        W 8810   8.174   9.175  12.361  0.0965 -0.1969 -0.2434
 4760W        W 8811   7.547   7.594   0.879  0.3199 -0.2581 -0.2442
 4761W        W 8812  10.063   7.090   0.197 -0.1719 -0.0056 -0.2919
 4762W        W 8813   9.236   0.574   9.656  0.3190  0.2335 -0.2676
 4763W        W 8814   6.218   3.340   2.431 -0.3333  0.0097  0.1123
 4764W        W 8815   8.894   6.937   2.494 -0.0925  0.1958  0.2103
 4765W        W 8816   3.252   9.390  11.103  0.0263  0.3656  0.3427
 4766W        W 8817   8.105   9.585   4.249  0.2156 -0.0957  0.1585
 4767W        W 8818   3.487   5.912  13.637  0.1203 -0.1057  0.1498
 4768W        W 8819   2.540   8.914  13.871 -0.0074  0.0012 -0.0396
 4769W        W 8820   1.353   3.474   1.060 -0.2380 -0.0049  0.0117
 4770W        W 8821   0.029   8.736  12.645  0.0604 -0.2199  0.0767
 4771W        W 8822   9.755   4.451   0.706 -0.0675 -0.1112  0.2303
 4772W        W 8823   0.500   4.249   1.562  0.0947 -0.0054 -0.2043
 4773W        W 8824   2.728   8.936   4.312 -0.3497 -0.1934 -0.4692
 4774W        W 8825   7.831   4.076   9.849 -0.1058 -0.0519  0.2344
 4775W        W 8826   6.334   7.333   0.637 -0.2898 -0.1955  0.0711
 4776W        W 8827   9.313   5.839  11.788 -0.0527  0.0251 -0.1560
 4777W        W 8828   3.385   1.159   0.514  0.0024  0.0870 -0.0802
 4778W        W 8829   4.363   3.928  10.436  0.3330  0.2022 -0.0289
 4779W        W 8830   6.172   0.143  13.828  0.2533 -0.1722  0.0242
 4780W        W 8831   2.187   3.558   1.462  0.0349 -0.3029 -0.0462
 4781W        W 8832   0.041   1.894  10.829 -0.0239  0.1906  0.1993
 4782W        W 8833   9.181   2.426   1.371  0.1992 -0.1216  0.2338
 4783W        W 8834   2.894   0.079   3.000 -0.4425 -0.1979  0.1290
 4784W        W 8835   5.758   4.619   3.951  0.0831  0.3039 -0.4101
 4785W        W 8836   2.115   1.839   1.428  0.0875  0.4476 -0.1161
 4786W        W 8837   7.596   6.689   2.856  0.1549  0.1742 -0.2640
 4787W        W 8838   2.642   7.250   1.903 -0.0041  0.0970 -0.1422
 4788W        W 8839   5.353   3.834  11.457 -0.3235 -0.0008  0.2289
 4789W        W 8840   6.866   4.638  11.408  0.2092 -0.0380  0.2006
 4790W        W 8841   7.498   0.104   0.653  0.0748  0.1954  0.0490
 4791W        W 8842   4.054  10.095   9.576  0.0961  0.1073  0.0507
 4792W        W 8843   8.771   6.751  12.956  0.0777 -0.0977 -0.0966
 4793W        W 8844   1.645   2.698   2.529  0.1988  0.2115  0.1083
 4794W        W 8845  10.115   6.761   0.748  0.0905 -0.0994  0.0513
 4795W        W 8846   3.715   4.449   2.413 -0.0945 -0.0108  0.0608
 4796W        W 8847   8.631   9.508   4.411  0.1323 -0.2579 -0.2033
 4797W        W 8848   3.841   6.702   1.047 -0.0429  0.3843 -0.3198
 4798W        W 8849   3.742   8.533  11.047  0.2280 -0.1816 -0.0420
 4799W        W 8850   2.426   9.987   5.174  0.0919 -0.2157 -0.0867
 4800W        W 8851  10.037   6.480   9.661  0.2416  0.2557 -0.2088
 4801W        W 8852   0.934   4.449   5.186  0.1600 -0.3447  0.0204
 4802W        W 8853   1.976   7.823   2.557  0.0445  0.0260 -0.1321
 4803W        W 8854   1.507   8.973   3.644  0.0538  0.0657 -0.1329
 4804W        W 8855   8.756   0.560   0.478 -0.0713  0.3472 -0.1560
 4805W        W 8856   9.874   0.997   1.285  0.0100  0.2962  0.1718
 4806W        W 8857  10.136   1.393  13.703  0.1159 -0.0215 -0.0703
 4807W        W 8858   6.489   9.829   5.108 -0.1058 -0.1707  0.2918
 4808W        W 8859   8.130   2.285   1.096 -0.1663 -0.0563  0.0795
 4809W        W 8860   2.770   9.895  13.588 -0.0593 -0.0377 -0.3015
 4810W        W 8861   6.817   9.924   0.429 -0.0700  0.1568 -0.1121
 4811W        W 8862   5.819   9.010   9.686 -0.2518  0.0852 -0.2034
 4812W        W 8863   1.788   7.991  13.316 -0.2186 -0.2538  0.1180
 4813W        W 8864   1.802   2.198   2.276 -0.0206 -0.0089 -0.0049
 4814W        W 8865   2.559   5.527   9.455  0.2502 -0.1843 -0.1299
 4815W        W 8866   8.333   7.741   4.673 -0.0521 -0.0923 -0.3017
 4816W        W 8867   9.713   4.289   1.709 -0.0306 -0.3066  0.1649
 4817W        W 8868   1.601   7.863  12.017  0.0654  0.0548 -0.0224
 4818W        W 8869   4.608   8.235  10.727  0.0864  0.0760  0.2412
 4819W        W 8870   9.739   8.829   0.636 -0.0517  0.2199 -0.0289
 4820W        W 8871   4.664   9.400   3.473 -0.0807 -0.3016 -0.1168
 4821W        W 8872   3.268   9.893   4.767  0.3938  0.2453  0.3109
 4822W        W 8873   9.366   6.477   0.228 -0.0486 -0.1645  0.3465
 4823W        W 8874   5.139   9.980   4.507  0.0776  0.2309 -0.0350
 4824W        W 8875   4.259   8.669   9.175  0.1807  0.0907 -0.0986
 4825W        W 8876   7.481   7.342   1.384  0.0146 -0.0535  0.1769
 4826W        W 8877   5.505   8.505   2.550  0.3593  0.0431 -0.2816
 4827W        W 8878   9.023   4.583   9.563  0.0503 -0.0616 -0.0094
 4828W        W 8879   4.145   2.669  11.625 -0.1761  0.0473 -0.0982
 4829W        W 8880   5.116   5.812   0.773 -0.1475  0.2629 -0.0557
 4830W        W 8881   5.966   8.551  12.947 -0.3398  0.2626  0.4361
 4831W        W 8882   5.313   5.800  12.691  0.3113 -0.0070  0.1166
 4832W        W 8883   9.911   9.320  12.551 -0.1090 -0.1001 -0.0874
 4833W        W 8884   1.305   8.944   9.959  0.1555  0.2697 -0.5000
 4834W        W 8885   5.596   2.908   3.557  0.2186  0.0270  0.3792
 4835W        W 8886   8.840   2.770   1.643 -0.1285  0.1813 -0.3476
 4836W        W 8887   4.270   7.635  12.952  0.1607  0.0411  0.3801
 4837W        W 8888   5.451   7.299   3.088  0.1810 -0.1945  0.2869
 4838W        W 8889   8.625   3.812   1.086  0.2866  0.1623 -0.4130
 4839W        W 8890   0.909  10.101  10.570 -0.0608 -0.1633 -0.1295
 4840W        W 8891   1.743   6.160   4.260 -0.2227  0.0369 -0.1575
 4841W        W 8892   1.718   4.567   3.409  0.2846  0.1499  0.2032
 4842W        W 8893  10.003   2.977  10.671 -0.1036  0.1979 -0.0253
 4843W        W 8894   6.023   3.225  10.791 -0.3108 -0.4737 -0.1867
 4844W        W 8895   1.232   8.169   3.158  0.2106  0.0560 -0.3388
 4845W        W 8896   4.076   0.423   1.237 -0.0150  0.5515  0.1602
 4846W        W 8897   2.659   1.436  13.217  0.0212 -0.2379  0.1251
 4847W        W 8898   5.775   6.322   3.370  0.1346  0.2391 -0.0132
 4848W        W 8899   0.319   5.844   0.599  0.0929  0.1982  0.4700
 4849W        W 8900   6.510   3.159  12.283 -0.1368  0.0531  0.1709
 4850W        W 8901   2.837   6.598   1.221  0.2631 -0.2607  0.1710
 4851W        W 8902   5.335   2.933  13.781 -0.1005  0.2267  0.3289
 4852W        W 8903   8.050   6.600   3.180  0.0324 -0.1971  0.3583
 4853W        W 8904   6.219   6.207  12.882  0.1363 -0.0779  0.0355
 4854W        W 8905   3.255   4.203  12.410 -0.0327  0.2438 -0.0165
 4855W        W 8906   7.635   7.576  13.980 -0.1173 -0.1412  0.1123
 4856W        W 8907   6.795   9.639  10.254  0.0420 -0.0811  0.1450
 4857W        W 8908   3.970   2.059   3.900  0.0399 -0.3396  0.0970
 4858W        W 8909   9.345   2.181   9.248  0.2904 -0.1512  0.1005
 4859W        W 8910   4.649   5.988  11.440  0.1400  0.1371  0.1253
 4860W        W 8911   1.694   8.785   0.117  0.1648  0.1099 -0.0706
 4861W        W 8912   3.721   4.924  11.407  0.3084  0.0309 -0.2752
 4862W        W 8913   8.918   7.522  13.727 -0.2186 -0.0335  0.0213
 4863W        W 8914   9.354   9.868  12.707 -0.2529  0.2868  0.0233
 4864W        W 8915   2.558   8.196   4.252 -0.0844  0.0553  0.0747
 4865W        W 8916   0.965   4.121   4.691  0.0564 -0.1805 -0.2219
 4866W        W 8917   1.231   2.626   2.834 -0.0128  0.1012  0.2813
 4867W        W 8918   9.896   7.837   0.706  0.2337  0.2721 -0.1536
 4868W        W 8919   6.575   6.910   2.181 -0.1315  0.0882  0.0100
 4869W        W 8920   5.953   2.440   2.307 -0.1841 -0.0510  0.0056
 4870W        W 8921   1.641   0.280   5.243  0.0253 -0.2016  0.1527
 4871W        W 8922   7.452   4.165   0.618 -0.1629  0.2893  0.1672
 4872W        W 8923   0.756   7.712   1.169 -0.0051  0.0672  0.1999
 4873W        W 8924   0.280   2.138  12.470 -0.3336 -0.1751 -0.0480
 4874W        W 8925   0.418   3.022  12.313 -0.1121 -0.1430 -0.0406
 4875W        W 8926   0.238   5.490   9.966  0.0453  0.0965 -0.5703
 4876W        W 8927   8.702   0.541   1.716  0.0899 -0.0575 -0.1378
 4877W        W 8928   5.487   6.606   3.678  0.0762 -0.0547  0.0852
 4878W        W 8929   5.139   5.905  12.204 -0.0069 -0.4372  0.3158
 4879W        W 8930   8.692   9.240  11.157 -0.1297 -0.2032 -0.3229
 4880W        W 8931   0.366   6.081   2.571  0.0807 -0.0128 -0.1009
 4881W        W 8932   3.180   5.971   3.242 -0.0413 -0.1568 -0.2094
 4882W        W 8933   3.872   7.673  13.353 -0.0493  0.1871 -0.2421
 4883W        W 8934   5.814   1.890  11.296 -0.0207  0.0497 -0.0174
 4884W        W 8935   0.437   0.908   2.507  0.0807  0.1039 -0.0797
 4885W        W 8936   8.426   4.398  11.755  0.0420 -0.0321  0.2763
 4886W        W 8937   8.055   7.229  11.017 -0.2225 -0.0159  0.1389
 4887W        W 8938   8.808   9.016   3.478 -0.2057  0.0028  0.0317
 4888W        W 8939   8.482   1.213   4.077 -0.1496  0.0819  0.2683
 4889W        W 8940   4.620   9.248   4.017  0.1810 -0.0747 -0.0836
 4890W        W 8941   5.804   0.640  12.664  0.1820  0.4272  0.0666
 4891W        W 8942   4.915   1.974  10.732  0.0177  0.0737  0.0955
 4892W        W 8943   8.572   3.415   0.660  0.3308 -0.0812 -0.0624
 4893W        W 8944   4.994   9.025   0.781 -0.0489 -0.3626  0.2031
 4894W        W 8945   1.100   4.143  12.909  0.1310  0.0279  0.2617
 4895W        W 8946   4.365   6.766   0.772  0.0555  0.2003 -0.2476
 4896W        W 8947   0.172   7.706   3.441 -0.1406  0.2409 -0.1460
 4897W        W 8948   0.930   1.095  12.900 -0.1070 -0.2008 -0.0847
 4898W        W 8949   0.514   9.842   9.076 -0.0235  0.0399  0.1724
 4899W        W 8950   9.027   6.467   1.202  0.0914  0.2037  0.0285
 4900W        W 8951   5.438   5.235   0.005  0.0683 -0.2038  0.0013
 4901W        W 8952   3.073   0.323  11.984 -0.0170 -0.2454 -0.1078
 4902W        W 8953   1.125   1.037   3.927 -0.0453  0.3090 -0.2946
 4903W        W 8954   8.411   2.977   2.458 -0.0108 -0.0251  0.2375
 4904W        W 8955   9.079   6.532  11.297 -0.0780  0.2752  0.0556
 4905W        W 8956   6.106   0.514   0.618 -0.0128 -0.1345 -0.2315
 4906W        W 8957   2.220   1.772   2.044  0.3524  0.0524 -0.0816
 4907W        W 8958   0.482   7.138   1.923  0.1203 -0.0403 -0.0954
 4908W        W 8959   8.008   8.074  12.821 -0.0712  0.0381  0.2038
 4909W        W 8960  10.081   8.310  11.471  0.1946 -0.2138  0.2901
 4910W        W 8961   5.586   4.316  10.703 -0.1524 -0.1928  0.2578
 4911W        W 8962   7.183   9.210   3.137 -0.0051  0.4496 -0.0691
 4912W        W 8963   2.488   0.892  13.139 -0.2879 -0.0378  0.0463
 4913W        W 8964   3.812   8.760   3.106 -0.3937 -0.0261  0.0099
 4914W        W 8965   2.702   9.953   9.971  0.0969  0.1107 -0.2900
 4915W        W 8966   4.767   4.430   9.793  0.5999 -0.2323  0.1359
 4916W        W 8967   4.647   3.812   1.980 -0.1624 -0.0442  0.1253
 4917W        W 8968   4.127   0.897  12.831  0.1574 -0.1507 -0.0414
 4918W        W 8969  10.011   1.107   0.657 -0.0649 -0.0658 -0.0404
 4919W        W 8970   0.764   8.729   9.571  0.0663  0.0226 -0.1790
 4920W        W 8971   5.335   4.367   2.628 -0.1494 -0.2583  0.2159
 4921W        W 8972   2.970   6.242   1.587 -0.2867 -0.0090  0.0466
 4922W        W 8973   3.848   9.420  12.509 -0.0250  0.2015  0.0723
 4923W        W 8974   9.178   7.000  12.105  0.0274  0.2957 -0.1815
 4924W        W 8975   5.540   3.309  10.949 -0.3495  0.0878  0.0732
 4925W        W 8976   4.628   1.292   1.627  0.0881 -0.5598  0.1092
 4926W        W 8977   4.184   7.258  13.310 -0.3592  0.0198 -0.3871
 4927W        W 8978   2.647   6.061   1.958 -0.3307 -0.1348  0.0798
 4928W        W 8979   4.766   0.770  13.616 -0.2594 -0.0026  0.1125
 4929W        W 8980  10.081   7.386   0.634  0.0383  0.0433  0.0785
 4930W        W 8981   6.388   4.543  11.327  0.2928  0.1728  0.1488
 4931W        W 8982   5.199   9.578   2.405 -0.1809 -0.1444 -0.1969
 4932W        W 8983   4.279   0.094   0.451  0.0130 -0.0053  0.2265
 4933W        W 8984   8.668   0.621  10.358 -0.1937 -0.2345 -0.2284
 4934W        W 8985   5.326   1.936   1.422  0.3898  0.0169  0.1248
 4935W        W 8986   5.320   3.048  12.473 -0.4491  0.1223  0.3262
 4936W        W 8987   8.360   8.180   1.002 -0.0080  0.1504  0.0423
 4937W        W 8988   0.650   0.043   0.936  0.0676 -0.2861  0.1177
 4938W        W 8989   2.314   0.275   0.849  0.0667  0.1153 -0.0242
 4939W        W 8990   3.711   8.907   4.383  0.1651  0.3297 -0.0015
 4940W        W 8991   8.003   3.674  10.033 -0.1063  0.0274 -0.3100
 4941W        W 8992   5.869   9.378  13.791 -0.0177 -0.1042  0.0488
 4942W        W 8993   5.877   1.095   0.060 -0.0451 -0.1044 -0.1662
 4943W        W 8994   4.148   1.540   2.425 -0.0108  0.2485 -0.3798
 4944W        W 8995   1.090   0.692   0.573  0.2583 -0.1736  0.0353
 4945W        W 8996   7.465   8.226  13.472  0.0140  0.0728 -0.0499
 4946W        W 8997   8.869   2.013   9.343 -0.4035  0.2656 -0.0666
 4947W        W 8998   6.054  10.101   0.529  0.5035 -0.2483  0.0166
 4948W        W 8999   9.412   7.405   1.254 -0.0319  0.2179 -0.1653
 4949W        W 9000   0.990   2.246  12.006  0.1627  0.0689 -0.1639
 4950W        W 9001   1.897   0.765  10.946  0.0014  0.2164 -0.0346
 4951W        W 9002   5.163   7.288  11.354 -0.0655 -0.4121  0.1273
 4952W        W 9003   4.455   4.363  10.176  0.0568  0.2148 -0.1062
 4953W        W 9004   0.902   9.429   2.060 -0.0841  0.0095 -0.0117
 4954W        W 9005   7.023   3.669  13.695  0.0167  0.1518 -0.0934
 4955W        W 9006   7.117   8.070   1.619  0.1790  0.2943  0.4042
 4956W        W 9007   8.001   1.578  13.457 -0.1111  0.0524 -0.1224
 4957W        W 9008   8.710   1.596  12.916  0.0371 -0.1593  0.1999
 4958W        W 9009   6.573   0.923   0.806  0.0677  0.2995 -0.1026
 4959W        W 9010   8.768   5.234   3.961 -0.0039 -0.0269 -0.0270
 4960W        W 9011   3.385   9.960   2.690 -0.0788  0.3949 -0.0139
 4961W        W 9012   1.268   4.830  11.563  0.1354  0.2641 -0.1342
 4962W        W 9013   2.001   3.472  10.016  0.0860 -0.1268 -0.2481
 4963W        W 9014   6.515   6.014  12.572 -0.1668  0.2131  0.2126
 4964W        W 9015   5.016   8.990   5.016 -0.1632  0.1546 -0.0918
 4965W        W 9016   3.440   4.686   0.075 -0.5285  0.1492 -0.0738
 4966W        W 9017   7.590   0.810   2.470  0.3218 -0.1345  0.2073
 4967W        W 9018   0.717   2.370  10.371  0.0340  0.0461 -0.1229
 4968W        W 9019   2.190   3.921  14.035 -0.2553 -0.0082 -0.1703
 4969W        W 9020   3.613   9.824  12.405 -0.1081 -0.0978 -0.2315
 4970W        W 9021   2.381   1.259   4.360  0.1022  0.2919  0.1816
 4971W        W 9022   3.116   9.768   4.282  0.1610  0.2666  0.0739
 4972W        W 9023   8.552   0.233   3.024 -0.1002 -0.2674  0.0987
 4973W        W 9024   6.237   7.170  12.051 -0.2530 -0.2530 -0.0238
 4974W        W 9025   1.099   1.343   4.317 -0.1413  0.1001  0.1040
 4975W        W 9026   1.901   1.475   1.016  0.2500 -0.0059 -0.1622
 4976W        W 9027   1.239   4.599   0.160  0.1065 -0.0759  0.2142
 4977W        W 9028   6.840   4.443   0.824 -0.1085 -0.1691 -0.2152
 4978W        W 9029   0.307   3.985   1.047 -0.3179  0.0759  0.2154
 4979W        W 9030   1.109   5.416  13.975 -0.0679  0.2244  0.0100
 4980W        W 9031   5.696   1.030  13.599  0.0996 -0.0299 -0.2626
 4981W        W 9032   3.504   7.029   3.705  0.5366  0.0493  0.0321
 4982W        W 9033   5.718   5.726   0.704  0.3370 -0.2509  0.0145
 4983W        W 9034   6.319   4.829   2.802 -0.0594  0.1420  0.0845
 4984W        W 9035   3.128   6.932  12.174 -0.1403 -0.0604 -0.1872
 4985W        W 9036   8.390   6.072  10.797  0.0042 -0.0471  0.1123
 4986W        W 9037   7.327   3.957  12.343 -0.2348  0.1278 -0.2016
 4987W        W 9038   1.743   8.275   0.148  0.0065 -0.0182  0.0086
 4988W        W 9039   3.841   1.403   4.583 -0.0004  0.0227 -0.0352
 4989W        W 9040   3.569   9.138   2.268  0.1302  0.3759  0.0911
 4990W        W 9041   7.849   7.001   1.525  0.3173 -0.1098  0.1861
 4991W        W 9042   3.101   8.887   3.882  0.0004 -0.1698  0.1726
 4992W        W 9043   2.788  10.021   9.510 -0.0181  0.2144 -0.0078
 4993W        W 9044   2.478   4.249  11.353 -0.2317 -0.2204  0.0563
 4994W        W 9045   8.703   6.248  13.125 -0.0416 -0.0093  0.0512
 4995W        W 9046   8.491   6.284   5.046  0.0423 -0.0242 -0.1345
 4996W        W 9047   6.576   3.210  12.959 -0.1456 -0.1070 -0.0847
 4997W        W 9048   4.361   2.179   4.182  0.1811 -0.0111  0.0474
 4998W        W 9049   9.704   6.564   1.111 -0.1074  0.3053 -0.0979
 4999W        W 9050   2.358   2.228   2.189 -0.2415  0.3739 -0.1133
 5000W        W 9051   9.283   2.003   1.121  0.2055  0.0980 -0.1065
 5001W        W 9052   8.768   8.448   9.447 -0.2630 -0.2197  0.2011
 5002W        W 9053   8.978   7.041   3.663  0.0472 -0.0810 -0.0584
 5003W        W 9054   8.742   7.577   3.863 -0.1112 -0.1867  0.0265
 5004W        W 9055   5.529   9.734  13.133 -0.1444  0.3419  0.0395
 5005W        W 9056   0.410   5.469  11.094 -0.1316 -0.2844 -0.2450
 5006W        W 9057   1.504   4.010   0.953  0.0314 -0.1835 -0.0062
 5007W        W 9058   4.621   6.215   2.663 -0.0238  0.2023  0.0220
 5008W        W 9059   0.876   3.886   1.696  0.0920 -0.1257  0.1087
 5009W        W 9060   4.305   9.918  13.660 -0.1820  0.0310  0.5901
 5010W        W 9061   9.708   9.327  10.192  0.0046  0.1464  0.2031
 5011W        W 9062   9.153   7.201   3.207 -0.0735 -0.0565  0.3866
 5012W        W 9063   8.221   9.830  13.969 -0.1222 -0.0738 -0.2396
 5013W        W 9064   3.494   2.780   0.840  0.0456 -0.1799 -0.0259
 5014W        W 9065   2.365   9.428   0.576  0.0332 -0.1904  0.2012
 5015W        W 9066   7.732   0.912   4.567 -0.1011 -0.1597  0.3834
 5016W        W 9067  10.078   4.933   9.373 -0.1681 -0.2169  0.2932
 5017W        W 9068   4.518   3.939   9.874  0.0014 -0.0161 -0.1253
 5018W        W 9069   1.483   8.390  13.127 -0.1096 -0.0978  0.0498
 5019W        W 9070   2.448   7.101  12.660 -0.0397 -0.1352  0.1352
 5020W        W 9071   0.398   4.830   0.674 -0.1472 -0.1933 -0.0005
 5021W        W 9072   6.257   0.624  13.161 -0.0630  0.2184 -0.1390
 5022W        W 9073   9.206   9.024  12.948  0.0216 -0.0411  0.0223
 5023W        W 9074   5.069   1.369  12.374  0.1897  0.3491 -0.0242
 5024W        W 9075   5.976   8.718   5.888 -0.3178  0.1406  0.4210
 5025W        W 9076   2.197   0.442   9.453  0.1119  0.1257 -0.1259
 5026W        W 9077   7.042   7.300   0.071  0.1803 -0.0513 -0.2034
 5027W        W 9078   2.011   5.353   3.976  0.0538 -0.1969 -0.1023
 5028W        W 9079   4.973   6.587  12.380  0.0640 -0.2498 -0.3010
 5029W        W 9080   2.201   9.310   2.482 -0.0276 -0.1246  0.0061
 5030W        W 9081   4.876   7.958  12.577 -0.0573  0.1760 -0.0671
 5031W        W 9082   3.344   6.916  13.008 -0.1718  0.2453 -0.0931
 5032W        W 9083   3.524   7.595  10.149  0.3799 -0.0825 -0.4170
 5033W        W 9084   6.673   0.941   2.789 -0.2391  0.1129 -0.2211
 5034W        W 9085   8.853   5.997   0.443  0.2834 -0.2408  0.3530
 5035W        W 9086   7.525   0.635  13.251  0.2853 -0.1890 -0.2350
 5036W        W 9087   0.062   9.622  10.988  0.0055  0.1837  0.2322
 5037W        W 9088   0.803   2.784  11.379  0.1390  0.0523  0.0630
 5038W        W 9089   8.122   6.967  11.883 -0.1253  0.0129 -0.0388
 5039W        W 9090   1.810  10.028  13.188  0.0722  0.0620  0.0021
 5040W        W 9091   4.499   7.274  10.533 -0.0609 -0.0174 -0.0493
 5041W        W 9092   7.595   1.655   9.184  0.0062 -0.0009  0.1476
 5042W        W 9093   1.396   4.301  12.574 -0.0678  0.0228 -0.2683
 5043W        W 9094   4.033   3.171   1.626  0.2942  0.0765 -0.0753
 5044W        W 9095   5.387   7.143  12.786  0.0737 -0.0959 -0.0304
 5045W        W 9096   8.537   6.760   4.637  0.0164 -0.0301 -0.0183
 5046W        W 9097   5.066   7.086  11.847 -0.0882 -0.1474  0.1920
 5047W        W 9098   1.008   8.845   3.655 -0.0275  0.3570 -0.2059
 5048W        W 9099   3.662   9.648   3.553 -0.0300  0.0793  0.1476
 5049W        W 9100   1.815   7.309   1.615 -0.0287  0.0260 -0.2365
 5050W        W 9101   0.637  10.129   2.534  0.0155 -0.0992  0.4341
 5051W        W 9102   5.007   2.966   0.212  0.2020  0.1542 -0.2528
 5052W        W 9103   9.325   6.724   4.672  0.3825 -0.2529 -0.0775
 5053W        W 9104   5.749   5.280  12.111 -0.1134 -0.1531  0.2764
 5054W        W 9105   3.670   0.014   3.917  0.0752  0.3139 -0.0262
 5055W        W 9106   9.905   8.372   4.490 -0.0631 -0.0261  0.0985
 5056W        W 9107   0.682   3.409   3.470 -0.0051  0.2164  0.1773
 5057W        W 9108   0.702   7.698   5.273 -0.0928  0.0309  0.0014
 5058W        W 9109   6.349   9.534  12.085 -0.0940  0.0487 -0.0661
 5059W        W 9110   0.874   8.359   3.472 -0.0271 -0.0219  0.0287
 5060W        W 9111   1.614   4.170  10.193  0.0471  0.0543  0.0803
 5061W        W 9112   7.565   5.288  11.360 -0.0661  0.1674  0.0877
 5062W        W 9113   9.493   1.380   4.146  0.3445 -0.1086  0.2633
 5063W        W 9114   3.391   2.340   0.610  0.3428 -0.0777  0.4156
 5064W        W 9115   3.797   1.448  11.924  0.0813  0.1097  0.0221
 5065W        W 9116   7.423   6.704  12.372 -0.2343  0.0801 -0.2689
 5066W        W 9117   4.786   2.164  12.675  0.0873  0.0457 -0.1218
 5067W        W 9118   2.079   7.335   2.413  0.1089 -0.3067  0.1144
 5068W        W 9119   0.393   5.852  11.566 -0.0243  0.1298  0.0612
 5069W        W 9120   3.438   2.978  10.563  0.1270  0.2092  0.0136
 5070W        W 9121   4.699   6.735   2.034  0.0194 -0.0504 -0.2508
 5071W        W 9122   1.040   2.898   5.701  0.0058 -0.1875 -0.2502
 5072W        W 9123   5.742   3.620   0.350  0.1083 -0.0816  0.0222
 5073W        W 9124   0.809   1.746   0.601  0.0233 -0.1544  0.2546
 5074W        W 9125   3.478   1.377  12.537  0.1977 -0.0889  0.0908
 5075W        W 9126   3.018   3.183   0.040 -0.1887  0.0866  0.1838
 5076W        W 9127   5.948   1.058   2.153 -0.1227 -0.1989 -0.2925
 5077W        W 9128   4.474   2.057   3.668  0.2106 -0.2399 -0.1714
 5078W        W 9129   8.787   5.660  12.582  0.1045 -0.1588 -0.0756
 5079W        W 9130   2.232   2.617   1.129  0.2806  0.2012  0.2587
 5080W        W 9131   6.313   0.454   1.043  0.0084  0.0529 -0.1449
 5081W        W 9132   4.009   0.430   0.659 -0.3518 -0.0291  0.0391
 5082W        W 9133   5.380   9.857   9.581 -0.1816 -0.0476 -0.0081
 5083W        W 9134   2.265   2.511   9.585  0.2324  0.0199  0.1472
 5084W        W 9135   2.442   3.370  13.271 -0.2490  0.1629  0.0896
 5085W        W 9136   3.418   3.194  11.112 -0.1687  0.0730  0.2083
 5086W        W 9137   1.501   8.012   1.817  0.3059 -0.1570  0.2236
 5087W        W 9138   8.027   1.614   2.716  0.2114 -0.2585  0.4519
 5088W        W 9139   8.488   2.161   2.349 -0.0580 -0.1653  0.1471
 5089W        W 9140   9.741   9.720   1.915 -0.0271 -0.2159  0.0917
 5090W        W 9141   8.069   6.210   0.776 -0.2451  0.0404 -0.1339
 5091W        W 9142   3.370   8.077  11.120 -0.0769 -0.0633 -0.1008
 5092W        W 9143   7.353   3.847   1.733  0.2289  0.1152  0.1291
 5093W        W 9144   3.704   7.902   9.400  0.3330 -0.0819  0.1235
 5094W        W 9145   7.181   3.538   9.431  0.2229 -0.1307 -0.1311
 5095W        W 9146   2.462   0.505   6.090 -0.0546 -0.0062 -0.2199
 5096W        W 9147   6.776   4.568   9.433  0.0720  0.5346  0.2472
 5097W        W 9148   4.383   0.431   4.162 -0.1022  0.0663  0.2058
 5098W        W 9149   6.624   4.911   0.752  0.1471  0.4080 -0.0137
 5099W        W 9150   9.622   9.356  10.858  0.2464  0.0278  0.1458
 5100W        W 9151   8.964   7.771  10.317 -0.1287  0.1818 -0.1574
 5101W        W 9152   6.966   4.808  12.824 -0.0533 -0.0910  0.0888
 5102W        W 9153   4.852   9.508  10.741 -0.2025  0.0044  0.0569
 5103W        W 9154   9.821   7.687   3.474  0.0365 -0.2895 -0.0332
 5104W        W 9155   5.935   7.230   3.239 -0.1095 -0.2292  0.1265
 5105W        W 9156   3.635   4.722  13.609  0.2483 -0.2364  0.2137
 5106W        W 9157   6.698   0.346  13.230  0.2173 -0.4174 -0.1049
 5107W        W 9158   1.331   1.991   4.232 -0.0708  0.3971 -0.1048
 5108W        W 9159   2.964   8.691  11.868  0.1273 -0.1489 -0.0971
 5109W        W 9160   2.472   0.765   9.743 -0.1328 -0.4116 -0.1212
 5110W        W 9161   4.076   7.583   2.348  0.0322 -0.0158 -0.3497
 5111W        W 9162   1.623   2.350  11.989  0.1094  0.2517  0.3012
 5112W        W 9163   3.155   1.683   5.482  0.0137 -0.0435  0.1196
 5113W        W 9164   0.825   0.340  13.222  0.0297  0.2289 -0.0236
 5114W        W 9165   3.657   6.097   3.433  0.1324  0.2317 -0.0849
 5115W        W 9166   9.137   1.641  10.801 -0.2864  0.1465 -0.0483
 5116W        W 9167   7.038   3.411  10.371 -0.1562  0.0220  0.3226
 5117W        W 9168   8.783   3.101  11.299  0.1980 -0.1122 -0.0169
 5118W        W 9169   7.185   2.713  12.877 -0.1172  0.2002  0.0640
 5119W        W 9170   7.517   8.059  12.591 -0.2183  0.0992  0.1909
 5120W        W 9171   8.310   3.577  13.118  0.4933 -0.1872  0.1710
 5121W        W 9172   5.116   4.194  11.747 -0.2056 -0.0270  0.0446
 5122W        W 9173   1.776   1.323  10.956 -0.0084 -0.0483  0.0918
 5123W        W 9174   6.680  10.124   4.568  0.0595  0.1866  0.1394
 5124W        W 9175   8.889   6.891  13.439 -0.1528  0.1177 -0.0429
 5125W        W 9176   8.188   4.294   2.668 -0.2078  0.2451  0.1905
 5126W        W 9177   9.180   7.900   5.803  0.4991  0.2335 -0.0779
 5127W        W 9178   4.103   1.209  13.241 -0.0545  0.0856  0.0616
 5128W        W 9179   9.253   5.024  13.393 -0.0253  0.1290 -0.2716
 5129W        W 9180   2.302   2.528  11.102  0.0956  0.2389 -0.0274
 5130W        W 9181   1.145   3.322   9.348  0.0227  0.4057  0.3032
 5131W        W 9182   6.392   7.739   1.919 -0.3492 -0.0129 -0.2038
 5132W        W 9183   1.039   4.150  10.831  0.0583  0.3272  0.3258
 5133W        W 9184   5.934   7.681   1.747 -0.0912 -0.2248  0.4791
 5134W        W 9185   0.707   8.128  11.898 -0.4250  0.1263 -0.1158
 5135W        W 9186   4.785   7.128   3.822 -0.0768  0.0568  0.4478
 5136W        W 9187   5.863   5.082   0.202  0.0388  0.0395  0.3419
 5137W        W 9188   1.178   2.103   9.386 -0.0070 -0.1137  0.0960
 5138W        W 9189   3.320   0.733  13.004  0.1029  0.1045 -0.2753
 5139W        W 9190   5.973   3.720   2.776  0.2399  0.0318 -0.2542
 5140W        W 9191   6.815   2.307  12.864  0.2267  0.1699  0.0223
 5141W        W 9192   3.122   1.210   1.773  0.0411 -0.0831  0.0250
 5142W        W 9193   6.911   6.149   2.809 -0.2963 -0.0138 -0.2856
 5143W        W 9194   4.197   9.637  12.227  0.1094  0.0407 -0.6186
 5144W        W 9195   1.127   8.876   1.084 -0.0331  0.0102 -0.3847
 5145W        W 9196   9.685   7.700  10.970 -0.0940 -0.2480 -0.0415
 5146W        W 9197   2.935   6.850  12.693 -0.0977 -0.0582 -0.1618
 5147W        W 9198   0.666  10.139  13.628  0.1368  0.1757 -0.3650
 5148W        W 9199   5.946   9.347   1.253 -0.1227 -0.3008  0.3041
 5149W        W 9200   9.400   6.672   5.580 -0.1081  0.0915 -0.4812
 5150W        W 9201   6.691   7.288  10.817 -0.4509  0.1477  0.3181
 5151W        W 9202   8.084  10.036   0.819 -0.0797  0.1581 -0.2879
 5152W        W 9203   0.403   0.684   1.610  0.3329  0.2490  0.1919
 5153W        W 9204   4.200   5.074  12.223  0.1929  0.0385  0.1271
 5154W        W 9205   2.182   6.944  13.031  0.1808 -0.1486 -0.2217
 5155W        W 9206   4.642   7.952  13.034  0.1992 -0.1697  0.2900
 5156W        W 9207   4.797   1.464  10.615  0.2494 -0.2267  0.3710
 5157W        W 9208   0.209   5.054  10.319  0.0220  0.1620 -0.1952
 5158W        W 9209   8.857   1.124  12.498 -0.0001  0.0730 -0.0153
 5159W        W 9210   4.457   8.659   1.153  0.0827 -0.3675  0.1398
 5160W        W 9211   5.774   9.324  11.260 -0.1347  0.0607 -0.1180
 5161W        W 9212   5.247   5.094   2.732 -0.2687  0.2682 -0.1354
 5162W        W 9213   1.590   1.792   1.211 -0.3379 -0.0322  0.1740
 5163W        W 9214   0.326   6.267  10.670  0.1632  0.1801  0.0316
 5164W        W 9215   9.126   9.169  13.986  0.1466 -0.2169  0.0584
 5165W        W 9216   6.808   7.836  12.768  0.1162 -0.1078 -0.2820
 5166W        W 9217   5.139   8.106  12.984  0.3997 -0.0270  0.1083
 5167W        W 9218   6.643   8.818   3.811  0.0926 -0.1717  0.0549
 5168W        W 9219   4.940   0.624   1.455 -0.1198 -0.2654 -0.0290
 5169W        W 9220   1.686   8.753   2.789  0.0026  0.0451  0.0621
 5170W        W 9221   5.692   7.163  13.636  0.0604  0.0845 -0.2362
 5171W        W 9222   0.063   3.086   9.850  0.0322  0.1097 -0.0812
 5172W        W 9223   0.054   3.244  11.109  0.0194  0.0458 -0.1259
 5173W        W 9224   9.398   3.668  13.748 -0.0857 -0.2664 -0.0221
 5174W        W 9225   0.751   9.590   9.951  0.0149 -0.1738  0.0085
 5175W        W 9226   2.842   5.273  13.122  0.2181 -0.0510 -0.1163
 5176W        W 9227   8.313   4.862  12.492 -0.1149  0.3045 -0.0469
 5177W        W 9228   8.139   2.715   3.279  0.1210  0.1125 -0.3358
 5178W        W 9229   2.630   0.249   1.458  0.2492 -0.2694 -0.3195
 5179W        W 9230   5.971   4.016  10.452 -0.1453  0.0359 -0.0661
 5180W        W 9231   1.832   8.805   3.309 -0.0339 -0.1734  0.1345
 5181W        W 9232   0.475   3.029   0.631 -0.1368 -0.3527 -0.0104
 5182W        W 9233   3.479   4.329   3.695 -0.0852  0.0191 -0.0461
 5183W        W 9234   1.952   6.509   3.209  0.0691  0.3143  0.0847
 5184W        W 9235   3.118   5.907   2.047 -0.3439 -0.0321 -0.0859
 5185W        W 9236   6.349   9.418   0.090  0.0272 -0.1790 -0.3029
 5186W        W 9237   7.717   4.143   1.935  0.2375  0.0277 -0.0480
 5187W        W 9238   3.097   0.241  13.431 -0.0488  0.1437 -0.1558
 5188W        W 9239   2.984   1.982   2.413 -0.2202 -0.0886  0.0012
 5189W        W 9240   8.843   7.046   1.499 -0.0775  0.1693 -0.1073
 5190W        W 9241   8.459   1.301   9.536  0.0461  0.0349  0.1967
 5191W        W 9242   3.373   0.188   0.144 -0.0299  0.3511 -0.0167
 5192W        W 9243   6.242   2.413   0.505 -0.1008  0.2348  0.0666
 5193W        W 9244   8.525   5.909   4.072 -0.3823 -0.1699 -0.0019
 5194W        W 9245   7.665   4.295  13.112  0.0820 -0.2217 -0.0900
 5195W        W 9246   1.495   6.396   3.329 -0.0680  0.1774 -0.3338
 5196W        W 9247   8.020   0.080   2.481 -0.1063  0.4168 -0.1957
 5197W        W 9248   9.739   3.143  12.383 -0.0444 -0.2048  0.1727
 5198W        W 9249   6.119   4.888   3.686  0.0912 -0.0923 -0.6067
 5199W        W 9250   6.874  10.077   4.003 -0.0145 -0.0758  0.1778
 5200W        W 9251   8.312   7.981   0.499  0.0531 -0.2088 -0.1723
 5201W        W 9252   8.513   0.821   9.216  0.0784 -0.3845  0.3444
 5202W        W 9253   0.580   5.937  11.087  0.0111  0.1062 -0.1469
 5203W        W 9254   1.560   7.809   3.337 -0.2621 -0.1592 -0.1094
 5204W        W 9255   7.992   8.729  10.564  0.2129 -0.1834 -0.0830
 5205W        W 9256   5.131   4.453  10.715 -0.1469 -0.1433 -0.0810
 5206W        W 9257   2.432   3.346  10.937 -0.0804  0.0088 -0.4583
 5207W        W 9258   6.227   7.613   3.296 -0.3483  0.2357 -0.1241
 5208W        W 9259   1.434   6.496   1.084  0.0196  0.2019 -0.2872
 5209W        W 9260   8.985   0.180   3.903 -0.0037 -0.1072  0.1017
 5210W        W 9261   8.300   1.498   5.762  0.0782  0.1380 -0.0277
 5211W        W 9262   0.811   7.201  11.910 -0.0046 -0.0668 -0.0552
 5212W        W 9263   2.636   5.123   2.813 -0.0064  0.0772  0.0510
 5213W        W 9264   4.958   2.065  13.992 -0.1060  0.5967  0.0201
 5214W        W 9265   8.813   7.078   5.530 -0.0760  0.4114  0.0527
 5215W        W 9266   6.368   4.101  13.834  0.1282 -0.0363 -0.1397
 5216W        W 9267   3.632  10.141  11.050 -0.0371 -0.2455  0.1452
 5217W        W 9268   8.232   1.909  10.552 -0.0164  0.0336 -0.3178
 5218W        W 9269   8.265   5.879   2.194 -0.0643 -0.3728  0.0737
 5219W        W 9270   0.806   3.267  13.906  0.1508  0.0658 -0.1092
 5220W        W 9271   0.372   7.825  12.079 -0.2434 -0.1111 -0.1410
 5221W        W 9272   3.080   1.370   2.380 -0.0446 -0.0773  0.0696
 5222W        W 9273   3.620   7.859  12.224 -0.1682  0.3366  0.0767
 5223W        W 9274   2.643   5.345   1.101  0.0031  0.0296 -0.0415
 5224W        W 9275   0.309   6.327   0.593  0.2393 -0.2351 -0.1714
 5225W        W 9276   3.972   6.005   0.650  0.0426  0.3050  0.2903
 5226W        W 9277   9.705   6.796   0.517 -0.0093 -0.0694  0.2088
 5227W        W 9278   1.309   0.009  13.064 -0.0005 -0.1330 -0.0559
 5228W        W 9279   3.304   1.024  11.258 -0.3656  0.1055 -0.2677
 5229W        W 9280   9.359   5.625   3.008  0.1085 -0.0866 -0.1527
 5230W        W 9281   5.282   7.707   1.021  0.1091  0.0286 -0.2591
 5231W        W 9282   6.438   9.669   4.557  0.1647  0.0340  0.1255
 5232W        W 9283   6.436   4.803  10.823  0.4188  0.2004 -0.1244
 5233W        W 9284   9.907   5.199   2.974  0.0431  0.0744 -0.1165
 5234W        W 9285   2.557  10.078   1.055 -0.4227  0.0920 -0.1081
 5235W        W 9286   2.242   6.227  11.275  0.0091  0.0212 -0.2319
 5236W        W 9287   7.344   1.253  12.412 -0.3022 -0.3802 -0.0840
 5237W        W 9288   9.782   3.052  13.274  0.0212  0.2294  0.1439
 5238W        W 9289   3.133   1.076  12.746  0.3613  0.2195  0.1464
 5239W        W 9290   6.362   7.237  11.194 -0.0463  0.0214  0.1599
 5240W        W 9291   1.107   6.869   2.144 -0.0823 -0.2003  0.0673
 5241W        W 9292   7.854   1.108  13.072 -0.2171 -0.1378  0.1494
 5242W        W 9293   8.396   4.011  11.409 -0.0768  0.0796  0.1177
 5243W        W 9294   0.324   7.910  13.176 -0.3480 -0.0438 -0.1928
 5244W        W 9295   6.750   7.253  12.726  0.0062 -0.0316  0.0004
 5245W        W 9296   6.568   0.726  12.014  0.0620  0.3435 -0.1750
 5246W        W 9297   8.901   6.519   4.867 -0.0266 -0.2341  0.0427
 5247W        W 9298   7.664   5.065   2.733 -0.1477  0.0544  0.2562
 5248W        W 9299   9.711   4.554   5.649 -0.0781 -0.2808  0.0232
 5249W        W 9300   6.087   9.563  13.334  0.1325  0.1153 -0.1462
 5250W        W 9301   3.708   3.720   3.169  0.0907 -0.3516  0.1842
 5251W        W 9302   8.192   6.184  13.338  0.1609 -0.1649 -0.1846
 5252W        W 9303   9.662   9.368   9.707  0.0067  0.2897  0.2268
 5253W        W 9304   4.665   2.829   1.249 -0.0653 -0.0533 -0.3116
 5254W        W 9305   5.736   8.032   2.302  0.0483  0.0556 -0.1129
 5255W        W 9306   1.613   0.473   2.909 -0.1471 -0.0653  0.0915
 5256W        W 9307   4.953   3.364  12.365  0.0358  0.0207  0.1952
 5257W        W 9308   2.688   6.824   3.070  0.0486  0.0184 -0.0552
 5258W        W 9309   7.772   2.445   2.743  0.0087 -0.0400  0.1364
 5259W        W 9310   0.797   3.387   0.452  0.0275  0.1606 -0.0821
 5260W        W 9311   3.325   6.483  11.292 -0.3615 -0.1205 -0.3450
 5261W        W 9312   7.157   0.659   5.120  0.1799  0.0041 -0.2261
 5262W        W 9313   0.640   8.644  11.871  0.1842  0.0277  0.3751
 5263W        W 9314   5.689   8.806  11.096 -0.0270 -0.2061  0.0753
 5264W        W 9315   7.363   1.065  10.131 -0.1766 -0.2285 -0.0357
 5265W        W 9316   4.740   6.503   0.960  0.1797 -0.2842  0.2321
 5266W        W 9317   0.362   8.300   4.613  0.1491 -0.0644  0.0342
 5267W        W 9318   9.997   7.517   5.167  0.0886 -0.0608  0.2749
 5268W        W 9319   2.522   4.085   1.950 -0.2773  0.0029 -0.1476
 5269W        W 9320   5.853   9.862   3.854 -0.0101 -0.1138  0.0853
 5270W        W 9321   0.485   1.338  12.865  0.2624  0.3097  0.0397
 5271W        W 9322   9.519   2.687  12.264  0.2220  0.2154 -0.4193
 5272W        W 9323   8.503   7.471  10.239 -0.0976 -0.0747  0.2952
 5273W        W 9324   7.779   2.275   3.239  0.3654 -0.1763 -0.2978
 5274W        W 9325   3.952   8.528   4.637  0.1428  0.1146 -0.0208
 5275W        W 9326   0.858   9.767   5.104  0.0193 -0.0704  0.2151
 5276W        W 9327   4.139   1.630   0.574  0.0475 -0.1317  0.0467
 5277W        W 9328   7.133   8.911  10.996  0.0531 -0.2122 -0.0412
 5278W        W 9329   7.195   8.782   2.849  0.0482 -0.3537 -0.1343
 5279W        W 9330   6.726   2.311   1.267 -0.0565 -0.0924  0.1852
 5280W        W 9331   5.883  10.123   2.845  0.0169  0.2102  0.2134
 5281W        W 9332   5.686   2.372   2.696  0.2455  0.2061 -0.1867
 5282W        W 9333   1.980   7.415   3.184  0.0330 -0.2987  0.2976
 5283W        W 9334   8.232   9.675  13.159 -0.1123  0.0709  0.2986
 5284W        W 9335   6.818   9.688   1.631 -0.3074  0.1446 -0.1538
 5285W        W 9336   4.775   9.907  11.495  0.0926  0.0249 -0.0775
 5286W        W 9337   9.423   5.325  10.735 -0.3189 -0.0153  0.1647
 5287W        W 9338   8.057   6.367  13.797  0.0423 -0.1779 -0.1319
 5288W        W 9339   6.791   9.414  12.343  0.2893  0.0844  0.1304
 5289W        W 9340   5.035   8.690   1.433 -0.1920 -0.0713  0.0906
 5290W        W 9341   6.371   2.957   9.016 -0.1539 -0.1970 -0.1130
 5291W        W 9342   4.434   7.390   0.790  0.0558  0.1784  0.0162
 5292W        W 9343   2.491   6.044   9.342 -0.2428  0.3118 -0.0269
 5293W        W 9344   2.805   3.011   9.986  0.1535  0.0778  0.0974
 5294W        W 9345   6.364  10.099  11.028 -0.0776 -0.0789 -0.2281
 5295W        W 9346   6.818   1.398  10.493  0.2051 -0.1073  0.1715
 5296W        W 9347   1.384   2.176  13.726 -0.2465  0.0136 -0.0759
 5297W        W 9348   9.575   7.178   9.901  0.3322 -0.0041 -0.0216
 5298W        W 9349   5.170   0.266   0.754 -0.2808 -0.0858 -0.3200
 5299W        W 9350   6.952   8.989   4.500  0.2902 -0.3068 -0.3137
 5300W        W 9351   2.297   5.660  10.896  0.1996  0.0260  0.0733
 5301W        W 9352   6.633   8.004   1.387 -0.3025 -0.4258 -0.0891
 5302W        W 9353   6.053   4.548   3.126 -0.3933  0.1432 -0.2185
 5303W        W 9354   2.490   8.291  13.071  0.1859  0.1780 -0.2032
 5304W        W 9355   9.039   0.713  12.730  0.1605 -0.2974  0.3759
 5305W        W 9356   5.913   7.546   0.379 -0.1405 -0.2953  0.1673
 5306W        W 9357  10.153   8.781   3.144 -0.0277 -0.0377  0.0381
 5307W        W 9358   7.802   4.977  11.698  0.0471  0.2848  0.1577
 5308W        W 9359   2.111   9.231  12.766 -0.0693  0.3381 -0.4066
 5309W        W 9360   3.251   2.859  11.530 -0.0285 -0.5092  0.1598
 5310W        W 9361   1.886   6.924   4.402  0.1368 -0.1169 -0.3273
 5311W        W 9362   8.169   0.813  10.080 -0.1288  0.2455  0.1748
 5312W        W 9363   7.974   7.911   3.434  0.0787  0.0481 -0.0053
 5313W        W 9364   7.024   7.895   0.747 -0.0273  0.0038  0.2257
 5314W        W 9365   1.112   3.513  10.041  0.1184 -0.1103 -0.1346
 5315W        W 9366   3.980   0.692  11.137 -0.2075  0.1246  0.1488
 5316W        W 9367   9.183   9.439  13.586  0.3887 -0.3035 -0.1224
 5317W        W 9368   2.392   1.708  11.772  0.1825 -0.1804 -0.4056
 5318W        W 9369   9.992   4.517   1.138 -0.1079  0.1870 -0.0645
 5319W        W 9370   9.278   9.996   4.184  0.0355  0.2910 -0.1292
 5320W        W 9371   8.862   1.709   4.972  0.2897 -0.1870  0.1040
 5321W        W 9372   1.647   2.460   4.175  0.0972 -0.0370  0.1154
 5322W        W 9373   1.654   9.477   2.651 -0.2290  0.4234 -0.0457
 5323W        W 9374   2.910   1.813   4.665 -0.4635  0.1320  0.0727
 5324W        W 9375   5.967   6.113   2.740  0.2057 -0.1984 -0.0838
 5325W        W 9376   4.397   6.336   1.862 -0.0525 -0.0623 -0.1309
 5326W        W 9377   6.801   0.451  11.495  0.3334  0.2124 -0.0718
 5327W        W 9378   8.206   1.586   9.104  0.1682 -0.2634 -0.0532
 5328W        W 9379   1.063   9.166   3.279 -0.4172  0.2385  0.2045
 5329W        W 9380   9.661   3.880  12.960 -0.1715  0.0754 -0.1052
 5330W        W 9381   0.386   4.137  10.600 -0.2838 -0.2681 -0.1513
 5331W        W 9382   9.280   8.834   0.339  0.0699  0.0121  0.5775
 5332W        W 9383   3.311   6.410   2.549 -0.1288  0.1429 -0.2563
 5333W        W 9384   6.802   3.330   4.666  0.0700  0.0760  0.0305
 5334W        W 9385   2.519   2.255   3.764  0.0628  0.2766  0.1406
 5335W        W 9386   8.135   0.732  13.364  0.3494  0.0467  0.1893
 5336W        W 9387   0.588   5.242  12.034  0.3441 -0.0247 -0.3734
 5337W        W 9388   2.891   9.080  13.523 -0.0208  0.0421 -0.2382
 5338W        W 9389   1.100   9.994  10.111  0.3254 -0.0014  0.1378
 5339W        W 9390   0.853   0.345  10.021  0.0489 -0.2683 -0.0856
 5340W        W 9391   4.926   2.782   2.226 -0.4858 -0.0443 -0.0118
 5341W        W 9392   9.964   5.276  13.954  0.2978  0.1321 -0.1687
 5342W        W 9393   9.223   8.101   1.642  0.1867  0.1120 -0.0308
 5343W        W 9394   4.643   6.483   1.442 -0.1357 -0.3104  0.1346
 5344W        W 9395  10.060   8.108  11.961 -0.0860 -0.0554  0.0144
 5345W        W 9396   0.984   7.035   9.745  0.4560 -0.0942 -0.4819
 5346W        W 9397   9.831   1.410   9.912 -0.1365  0.1291 -0.0025
 5347W        W 9398   0.123   9.686  12.564  0.2605  0.3822 -0.2444
 5348W        W 9399   5.227   5.003   3.900  0.0022 -0.3015 -0.0038
 5349W        W 9400   2.652   1.249  12.757 -0.0466 -0.0826  0.3308
 5350W        W 9401   8.942   6.179   4.142 -0.2775  0.0476  0.1110
 5351W        W 9402   3.873   6.707  13.236  0.0111 -0.1186  0.3365
 5352W        W 9403   6.397   9.165  13.556 -0.0352  0.3151  0.2108
 5353W        W 9404   4.962   4.810   0.663 -0.1580  0.2067  0.1107
 5354W        W 9405   0.287   0.848   4.199  0.3233  0.1310  0.0813
 5355W        W 9406   2.027   7.485   4.007 -0.5864  0.0820 -0.0985
 5356W        W 9407   5.860   1.896   2.551 -0.2405  0.0485  0.2642
 5357W        W 9408   7.311   7.337  10.009  0.5414 -0.0741  0.0772
 5358W        W 9409  10.060   7.753   3.868  0.0965  0.4418  0.1597
 5359W        W 9410   4.215   6.158   0.155 -0.0307  0.4378 -0.1164
 5360W        W 9411   5.930   2.694  10.134  0.1008 -0.1152 -0.2786
 5361W        W 9412   2.708   9.325   2.446 -0.1169  0.1671  0.0509
 5362W        W 9413   4.157   6.863  10.442  0.0207 -0.0998 -0.1678
 5363W        W 9414   5.948   4.800  10.808 -0.1566 -0.0531  0.2299
 5364W        W 9415   1.329   8.728   3.161 -0.0006  0.2069  0.0095
 5365W        W 9416   8.148   8.252   0.088 -0.3575  0.2179  0.0519
 5366W        W 9417   7.288   0.489   2.670  0.2432  0.0905  0.0205
 5367W        W 9418   0.313   9.016  11.935 -0.0396 -0.2821 -0.1233
 5368W        W 9419   4.606   9.909  11.995  0.0279 -0.0808 -0.2429
 5369W        W 9420   5.748   6.524   1.268  0.1781 -0.3252 -0.0974
 5370W        W 9421   0.137   4.619  10.521 -0.0049  0.0546 -0.3117
 5371W        W 9422   3.858   0.827  10.586 -0.2228 -0.1590  0.1518
 5372W        W 9423   7.485   8.860   1.774  0.1952  0.2842 -0.1253
 5373W        W 9424   8.888   6.780   9.041 -0.1142 -0.1320 -0.0964
 5374W        W 9425   7.490   4.200  10.658  0.1097 -0.2287  0.2220
 5375W        W 9426   1.821   2.612  11.156  0.1964  0.1141 -0.1394
 5376W        W 9427   9.884   9.944   0.839  0.1199  0.1948  0.1037
 5377W        W 9428   7.920   5.152   3.978 -0.1478  0.0777  0.1011
 5378W        W 9429   8.263   4.280   0.954 -0.2613  0.1183  0.2006
 5379W        W 9430   8.410   2.775  11.285  0.4119  0.0467  0.2100
 5380W        W 9431   0.996   2.525   9.563  0.0802  0.0591 -0.0741
 5381W        W 9432   5.225   5.775   0.258 -0.0442 -0.1149  0.0588
 5382W        W 9433   2.494   2.796   5.320 -0.1257 -0.0379 -0.0798
 5383W        W 9434   0.763   7.210   0.196 -0.0831  0.1294 -0.1173
 5384W        W 9435   5.899   1.865  13.323  0.3385 -0.2475 -0.3014
 5385W        W 9436   5.796   9.322   2.635  0.2623  0.0058 -0.2546
 5386W        W 9437   7.471   3.096  10.855 -0.2566  0.0668  0.0858
 5387W        W 9438   6.812   1.714  13.496 -0.0718 -0.1645 -0.0056
 5388W        W 9439   0.578   5.359  14.031 -0.1743 -0.1720 -0.3057
 5389W        W 9440   3.412   8.265  12.589 -0.0229  0.4765 -0.3900
 5390W        W 9441   7.669   0.228  11.579 -0.2471  0.1801 -0.1004
 5391W        W 9442   4.310   2.851  10.233  0.2738  0.0539 -0.0344
 5392W        W 9443   8.261   2.717   2.803 -0.1602  0.0158  0.1441
 5393W        W 9444   8.447   2.709  12.033 -0.0611  0.2817  0.0994
 5394W        W 9445   6.511   1.230  11.217 -0.1206 -0.3106 -0.1136
 5395W        W 9446   1.996   4.034   1.017  0.3259 -0.2405 -0.0988
 5396W        W 9447   6.873   3.195   4.126  0.0903 -0.0667 -0.0934
 5397W        W 9448   4.394   2.792   1.650  0.2362  0.2856  0.0561
 5398W        W 9449   7.253   2.586   0.620 -0.1972 -0.1716  0.0957
 5399W        W 9450   3.089   3.660   0.789  0.0526 -0.0266  0.1842
 5400W        W 9451   8.945   0.078   5.139 -0.3074  0.0626 -0.0367
 5401W        W 9452   7.076   9.897   9.907 -0.1980 -0.2206  0.2655
 5402W        W 9453   1.468   2.052   9.794  0.0128 -0.1492  0.0143
 5403W        W 9454   6.905   3.599  13.218  0.1533  0.2930  0.0136
 5404W        W 9455   1.255   5.662  12.591 -0.0484  0.2895 -0.0627
 5405W        W 9456   1.576   3.454  10.423 -0.1416 -0.0768  0.3402
 5406W        W 9457   9.948   0.499  11.916 -0.0347 -0.3623  0.0170
 5407W        W 9458   8.882   2.106  10.948  0.0234 -0.4262 -0.0262
 5408W        W 9459   0.647   8.358  10.458 -0.1260  0.0397 -0.0698
 5409W        W 9460   0.310   4.807   3.741  0.3597  0.0168  0.1276
 5410W        W 9461   5.384   2.115  11.563  0.3204  0.1487  0.0896
 5411W        W 9462   9.350   5.137   2.886 -0.2495  0.0545  0.1358
 5412W        W 9463   1.339   9.897   3.836  0.0982  0.0810  0.1560
 5413W        W 9464   3.031   6.495  13.011 -0.3410  0.2392 -0.0642
 5414W        W 9465   3.968   1.881  13.155  0.1191  0.0289 -0.0409
 5415W        W 9466   6.951   7.816  11.998  0.0933  0.2285 -0.0161
 5416W        W 9467   6.602   4.313  12.158  0.2169  0.0297 -0.2518
 5417W        W 9468   9.206   4.925   4.005  0.3433  0.0453  0.1177
 5418W        W 9469   0.581   9.599   1.209 -0.3564  0.3116 -0.2236
 5419W        W 9470   4.171   0.817  10.174 -0.2181 -0.2079  0.3248
 5420W        W 9471   0.393   2.648   2.291 -0.5693  0.0756  0.1327
 5421W        W 9472   5.518   3.023  13.164 -0.0135 -0.4676 -0.1702
 5422W        W 9473   8.648   0.658   9.859  0.2330 -0.1093 -0.2958
 5423W        W 9474   6.843   0.617   1.899  0.0542  0.2037  0.1295
 5424W        W 9475   0.387   8.270   9.568  0.0115  0.3096  0.1118
 5425W        W 9476   9.908   2.360  10.071 -0.0735 -0.0480  0.5501
 5426W        W 9477   0.324   2.296   1.327  0.1241  0.1131 -0.1072
 5427W        W 9478   9.528   7.154   0.049  0.0531 -0.1502  0.1529
 5428W        W 9479   6.089   2.672   3.130 -0.0151  0.1702  0.1507
 5429W        W 9480   4.759   7.566  11.325 -0.0582 -0.1130 -0.0746
 5430W        W 9481   9.303   6.745   2.176  0.0603 -0.1824  0.2656
 5431W        W 9482   0.235   5.763   9.523 -0.6567  0.0330  0.3519
 5432W        W 9483   0.905   1.737   2.347  0.2515  0.3063 -0.0363
 5433W        W 9484   8.494   7.382   1.429 -0.3285  0.0223 -0.1901
 5434W        W 9485   3.106   8.902   9.951 -0.1023 -0.2186 -0.0146
 5435W        W 9486   8.017   7.228  13.926  0.2188 -0.0395 -0.1988
 5436W        W 9487   5.912   3.044  12.327  0.0405 -0.0742  0.0616
 5437W        W 9488   3.710   2.674   0.287 -0.4904  0.4973 -0.1413
 5438W        W 9489   9.726   9.866   3.813  0.0966 -0.2473  0.3128
 5439W        W 9490   6.808   8.751  13.685 -0.0878 -0.0743 -0.2906
 5440W        W 9491   9.015   7.724   3.348 -0.0319  0.0644  0.0186
 5441W        W 9492   6.725   2.188  13.384  0.0977 -0.1636 -0.0450
 5442W        W 9493   5.981   0.594  10.476  0.0394 -0.0789 -0.1879
 5443W        W 9494   8.539   3.693   4.248  0.3735  0.0704 -0.2168
 5444W        W 9495   5.853   8.157  10.359 -0.1779  0.0684 -0.0749
 5445W        W 9496   5.500   9.565   0.149  0.1078  0.1199 -0.0756
 5446W        W 9497   6.366   0.360   1.520 -0.4054 -0.1813 -0.1216
 5447W        W 9498   2.583   5.957  12.232 -0.0221 -0.0143 -0.0663
 5448W        W 9499   4.860   0.966  10.748 -0.0934  0.2446  0.0971
 5449W        W 9500   7.339   7.138   4.773 -0.0701  0.0352  0.1306
 5450W        W 9501   9.018   2.674  12.126  0.2346  0.2015 -0.1789
 5451W        W 9502   4.148   1.660  12.285  0.2019  0.0640 -0.0981
 5452W        W 9503   0.723   1.370   5.609 -0.1446 -0.0064  0.0322
 5453W        W 9504   1.821   4.647  10.942  0.0182  0.0536  0.0303
 5454W        W 9505   6.598   7.802   2.779 -0.1922  0.1013  0.0249
 5455W        W 9506   1.063   0.693   3.054 -0.1213  0.2371  0.2858
 5456W        W 9507   3.788   2.299  10.949  0.2501 -0.0465  0.2696
 5457W        W 9508   2.280   8.771   1.428 -0.0612  0.1218 -0.0478
 5458W        W 9509   8.488   9.332  12.827  0.0871 -0.2970 -0.0891
 5459W        W 9510   8.978   5.595   5.361  0.1692  0.2837 -0.4020
 5460W        W 9511   5.382   7.592   3.529 -0.4012  0.0213 -0.2709
 5461W        W 9512   3.322   5.636  12.777  0.1096 -0.1693  0.2590
 5462W        W 9513   9.659   0.592   5.254 -0.3295 -0.1371 -0.3030
 5463W        W 9514   8.201   2.339  12.280 -0.1557  0.1078  0.1141
 5464W        W 9515   5.604   1.099  12.752  0.0491 -0.1879 -0.0226
 5465W        W 9516   8.145   3.079   0.585 -0.1381 -0.1012 -0.1326
 5466W        W 9517   2.563   2.144  11.924 -0.0108 -0.2788  0.1361
 5467W        W 9518   7.140   8.824   3.778 -0.1956  0.0248 -0.0459
 5468W        W 9519   9.337   5.954   0.351  0.2102  0.0427 -0.1452
 5469W        W 9520   1.344   4.830   3.596 -0.1402  0.0062  0.0018
 5470W        W 9521   1.258   9.499  13.696  0.0362 -0.3512 -0.2359
 5471W        W 9522   8.063   1.826  11.570  0.3812 -0.0132 -0.4282
 5472W        W 9523   9.922   4.817   0.190  0.2438 -0.1520 -0.1031
 5473W        W 9524   8.590   1.648  10.256 -0.1062 -0.0306 -0.4234
 5474W        W 9525   6.740   2.508   0.657  0.4066  0.0262 -0.0980
 5475W        W 9526   6.236   4.736   0.055 -0.1569  0.1356  0.0467
 5476W        W 9527   2.995   0.619   5.267 -0.4006  0.1146  0.2898
 5477W        W 9528   4.062   4.090  13.863  0.1292 -0.0070  0.2890
 5478W        W 9529   9.868   5.676  12.310 -0.1701 -0.0181  0.0161
 5479W        W 9530  10.041   3.588   0.253  0.3591  0.0743 -0.0542
 5480W        W 9531   2.760   1.186  13.635  0.2143  0.3917  0.0960
 5481W        W 9532   1.155   1.199   9.984  0.1011  0.0394 -0.0468
 5482W        W 9533   9.968   6.967  10.987  0.1860  0.0458 -0.0944
 5483W        W 9534   7.812   8.953  11.410 -0.0271 -0.1144  0.1054
 5484W        W 9535   3.314   8.654  13.984 -0.1556  0.0944  0.1868
 5485W        W 9536   2.533   8.558   4.616  0.3334 -0.2402  0.0301
 5486W        W 9537   0.265   9.839  14.002 -0.1490  0.2203  0.0117
 5487W        W 9538   0.020   2.766   2.864  0.0267 -0.2137  0.0737
 5488W        W 9539   3.103   6.307   0.210 -0.0297 -0.1110  0.0552
 5489W        W 9540   0.536   2.086  13.341 -0.1081 -0.1437 -0.3450
 5490W        W 9541   4.898   2.950   1.721 -0.0645  0.3161 -0.0377
 5491W        W 9542   3.484   4.237   1.857 -0.1025 -0.0866 -0.0959
 5492W        W 9543   6.341   7.902   0.527  0.1431 -0.0808  0.1636
 5493W        W 9544   1.431   0.121   9.044  0.0945  0.2832 -0.0400
 5494W        W 9545   1.198   1.586   3.838 -0.1104  0.0864  0.2926
 5495W        W 9546   3.601   4.580  11.105 -0.1969  0.0706  0.2593
 5496W        W 9547   9.274   5.068   8.910 -0.2282 -0.1233 -0.2714
 5497W        W 9548   5.002   1.978   0.431  0.1166  0.1725  0.0154
 5498W        W 9549   6.571   9.351  10.591 -0.0401 -0.1346  0.1840
 5499W        W 9550   5.551   7.786   0.147 -0.3031 -0.3502  0.0808
 5500W        W 9551   8.250   1.938  12.625 -0.2918  0.0697  0.2667
 5501W        W 9552   6.546   0.751  11.219 -0.1169 -0.1214 -0.1594
 5502W        W 9553   3.475   7.230   3.137 -0.2209 -0.1563 -0.3518
 5503W        W 9554   7.511   5.547  11.837 -0.1327  0.0344 -0.3063
 5504W        W 9555   9.520   0.010   2.034  0.1386  0.0490 -0.0939
 5505W        W 9556   2.397   6.962   1.065 -0.1962 -0.1734 -0.0761
 5506W        W 9557   2.520   0.822  13.923 -0.1472 -0.0482  0.0829
 5507W        W 9558   0.747   5.807   2.004  0.1943 -0.2124  0.0478
 5508W        W 9559   8.757   9.933   0.060 -0.0963  0.2831  0.3028
 5509W        W 9560   3.355   5.347   0.327  0.3317 -0.1129  0.1464
 5510W        W 9561   6.568   2.710  11.151 -0.0961 -0.0202 -0.0288
 5511W        W 9562   6.260   4.916   1.993 -0.0808 -0.0358  0.2593
 5512W        W 9563   9.579   4.698  12.135 -0.3445 -0.0671 -0.0730
 5513W        W 9564   8.441   0.137  11.645  0.2040 -0.2316  0.2977
 5514W        W 9565   4.074   4.507  12.175  0.2023  0.0906 -0.0127
 5515W        W 9566   7.972   8.109  11.811 -0.0292  0.1061  0.2173
 5516W        W 9567   5.720   1.624   1.449 -0.3122 -0.2448  0.0923
 5517W        W 9568   7.466   8.158  11.237  0.2663 -0.1365  0.2117
 5518W        W 9569   4.259   3.076  11.371 -0.1677  0.4633 -0.0467
 5519W        W 9570   5.412   5.880  13.803  0.1603  0.3796 -0.2036
 5520W        W 9571   9.879   7.868   4.347  0.0891 -0.1419  0.1219
 5521W        W 9572   5.688   3.155   0.622 -0.2991  0.0835  0.3821
 5522W        W 9573   0.310   8.783   4.647  0.1411  0.0386 -0.0420
 5523W        W 9574   4.544   9.526  12.589  0.0191 -0.3978  0.0207
 5524W        W 9575   5.584   6.842   3.208  0.0835 -0.0677  0.0783
 5525W        W 9576   7.041   8.447  10.407  0.2165  0.0333  0.0345
 5526W        W 9577   4.523   4.010   3.609  0.3340 -0.2979  0.0718
 5527W        W 9578   3.180   7.832  12.561 -0.1102  0.1070  0.2140
 5528W        W 9579   6.125   7.346  13.385 -0.1916 -0.1866  0.0577
 5529W        W 9580   9.652   7.101   0.937  0.4650 -0.0484 -0.3170
 5530W        W 9581   2.766   2.099   9.496  0.0836  0.0866 -0.1074
 5531W        W 9582   9.007   9.202   5.543 -0.0948 -0.0125  0.2597
 5532W        W 9583   1.765   5.873   9.290 -0.4738  0.1275 -0.2820
 5533W        W 9584   3.260   9.576  12.219  0.1094  0.0260 -0.0055
 5534W        W 9585   1.681   6.427   2.237 -0.1406 -0.3928 -0.0648
 5535W        W 9586   4.326   4.841  11.722 -0.2243  0.0358  0.1288
 5536W        W 9587   8.686   2.523  12.501 -0.2184 -0.2033 -0.1433
 5537W        W 9588   3.556   8.664   0.675 -0.0137 -0.0289  0.0163
 5538W        W 9589   1.470   5.260   0.815  0.1866  0.1591  0.1278
 5539W        W 9590   2.428   0.687  10.743 -0.1238 -0.5140  0.2335
 5540W        W 9591   1.020   3.238   1.346 -0.1775 -0.1781  0.0067
 5541W        W 9592   2.875   9.372  12.443 -0.1704  0.3415 -0.1333
 5542W        W 9593   4.215   1.380   0.094  0.0317 -0.2326 -0.2913
 5543W        W 9594   7.543   9.102   2.487  0.3137  0.1781 -0.1014
 5544W        W 9595   3.164   7.388  10.453 -0.0548 -0.0528 -0.0913
 5545W        W 9596   2.193   7.787   4.468  0.1015 -0.0606  0.0879
 5546W        W 9597   7.554   8.844   4.763 -0.0075 -0.2026  0.1566
 5547W        W 9598   9.206   8.468   5.155  0.0001 -0.2296 -0.1444
 5548W        W 9599   3.720  10.125   0.551  0.1766 -0.0024 -0.0829
 5549W        W 9600   3.555   4.857  10.090  0.2408  0.1184 -0.0174
 5550W        W 9601   0.575   0.800  13.089  0.2542 -0.0896 -0.1687
 5551W        W 9602   6.411   5.892   0.842  0.2827  0.1235  0.0659
 5552W        W 9603   8.687   5.531   0.340 -0.0644  0.2873 -0.0481
 5553W        W 9604   8.159   7.194   0.390 -0.0576  0.1133  0.2485
 5554W        W 9605   2.820   2.294  13.380  0.0239  0.0528 -0.3268
 5555W        W 9606   3.542   7.407  11.561  0.3043 -0.1691  0.0015
 5556W        W 9607   8.476   2.267   4.446 -0.2661  0.1299 -0.4082
 5557W        W 9608   5.096   7.312   1.247 -0.1655 -0.2467  0.1991
 5558W        W 9609   9.622   6.041   2.850 -0.3938  0.2025  0.2240
 5559W        W 9610   8.063   0.035   1.353 -0.0785  0.0057  0.0849
 5560W        W 9611   0.737   8.022  12.907  0.1501 -0.0921  0.1067
 5561W        W 9612   5.430   1.996   0.125  0.1406  0.2706  0.0563
 5562W        W 9613   2.633   5.799   0.677  0.0487  0.0445  0.4636
 5563W        W 9614   8.304   5.677   0.076 -0.2240 -0.1871  0.0183
 5564W        W 9615   2.122   4.683  11.363 -0.0580  0.0232  0.3115
 5565W        W 9616   9.093   4.675  13.962  0.2172  0.1333  0.1457
 5566W        W 9617   9.218   4.426   1.663  0.3439  0.1471  0.2148
 5567W        W 9618   4.246   6.815  10.937 -0.1519  0.2195  0.0929
 5568W        W 9619   1.588   0.224  13.899 -0.2190  0.0402 -0.0760
 5569W        W 9620   7.095   9.990   0.815  0.1084 -0.3362 -0.1693
 5570W        W 9621   8.086   7.778  10.218  0.2802  0.1126  0.0470
 5571W        W 9622   2.896   4.492   1.315  0.1562  0.0241 -0.1474
 5572W        W 9623   6.984   5.307   1.387  0.0007 -0.1286 -0.2218
 5573W        W 9624   3.466   5.968   1.585  0.0451 -0.0690 -0.2372
 5574W        W 9625   9.320   2.108   2.102 -0.1463 -0.2057  0.1545
 5575W        W 9626   2.166   7.215   9.315 -0.2742  0.0984  0.4435
 5576W        W 9627   7.213   5.368   0.967 -0.3453  0.1420  0.2619
 5577W        W 9628   6.764   5.981   3.262  0.0407  0.0654 -0.1537
 5578W        W 9629   3.450   5.590   3.113 -0.3731  0.0398 -0.1854
 5579W        W 9630   3.531   0.156   3.020 -0.2197 -0.3408  0.5181
 5580W        W 9631  10.027   2.781   2.373  0.0003  0.3703  0.0462
 5581W        W 9632   7.821   8.415   4.618 -0.1134 -0.1170 -0.1836
 5582W        W 9633   0.703   3.335   4.389 -0.0817  0.2043 -0.0232
 5583W        W 9634   7.651   8.937  12.824 -0.1036 -0.2960  0.2801
 5584W        W 9635   8.966   1.299   2.450  0.1256 -0.2244 -0.1889
 5585W        W 9636   7.441   7.690  12.054 -0.0646 -0.1113  0.0859
 5586W        W 9637   4.554   9.235   9.842 -0.1209 -0.1264 -0.0725
 5587W        W 9638   0.148   1.699   4.578  0.1888 -0.0282 -0.0308
 5588W        W 9639   7.999   4.099   3.465  0.0715 -0.1708 -0.1517
 5589W        W 9640   1.357   9.662   4.820  0.3871  0.1422  0.0160
 5590W        W 9641   4.795   4.151  12.756  0.3112  0.0480 -0.0258
 5591W        W 9642   0.317   8.463  13.867 -0.0716 -0.1939  0.0259
 5592W        W 9643   1.118   3.576  13.599 -0.0680  0.3830 -0.0626
 5593W        W 9644   3.321   7.343   4.656 -0.3348 -0.0803 -0.3039
 5594W        W 9645   9.265   6.475   0.738 -0.1614 -0.0003  0.1828
 5595W        W 9646   4.183   3.787  13.394 -0.4350  0.1834 -0.0194
 5596W        W 9647   4.684   3.879  13.147 -0.0716  0.1472 -0.1597
 5597W        W 9648   8.696   8.031  11.467 -0.2810  0.2929 -0.1473
 5598W        W 9649   3.165   8.193  11.633 -0.0480 -0.3599 -0.0562
 5599W        W 9650   2.593   7.804   1.818 -0.0345 -0.1947  0.1699
 5600W        W 9651   9.334   1.676   0.183 -0.1654  0.1381 -0.1223
 5601W        W 9652   0.436  10.063  12.443 -0.0956  0.0178 -0.0837
 5602W        W 9653   1.539   9.781   9.986  0.4862  0.2240 -0.5017
 5603W        W 9654   4.259   1.361   1.006 -0.1650  0.2282 -0.0663
 5604W        W 9655   9.421   0.048   0.086  0.0306 -0.0639  0.0082
 5605W        W 9656   8.648   7.929   9.452 -0.0700 -0.3415 -0.2294
 5606W        W 9657   4.096   4.577  13.105 -0.0316 -0.1425 -0.0881
 5607W        W 9658   4.849   7.190   9.809 -0.0097 -0.1344 -0.0895
 5608W        W 9659   1.751   0.402   9.651 -0.0584 -0.1239  0.1565
 5609W        W 9660   8.697   2.605   2.559 -0.0803 -0.1580  0.4074
 5610W        W 9661   4.432   4.011  11.370 -0.0260 -0.2405  0.0815
 5611W        W 9662   4.373   9.505   5.610  0.2208  0.0933 -0.3555
 5612W        W 9663   8.559   8.134   4.986  0.2489  0.1602  0.1889
 5613W        W 9664   9.780   8.265  10.525  0.2139 -0.1484  0.1836
 5614W        W 9665   9.152   2.707   3.859 -0.0917  0.2611 -0.2274
 5615W        W 9666  10.024   2.308  13.922 -0.4551 -0.1349 -0.2058
 5616W        W 9667   4.499   7.999  11.262  0.2907  0.0070 -0.0630
 5617W        W 9668   6.706   2.736  13.118  0.1666 -0.1888  0.2101
 5618W        W 9669   5.568   6.142   0.406  0.1930 -0.1082 -0.1263
 5619W        W 9670   2.174   0.899   9.224 -0.2573  0.1271  0.2136
 5620W        W 9671   1.974   0.879   9.744 -0.1405 -0.0055 -0.1839
 5621W        W 9672   8.673   8.932   0.043 -0.0931 -0.1455 -0.1680
 5622W        W 9673   9.381   0.298   8.516 -0.0703 -0.1542 -0.0774
 5623W        W 9674   1.198   1.705   4.629  0.3428  0.0155  0.1226
 5624W        W 9675   2.470   4.693  10.987 -0.1635  0.3606  0.2019
 5625W        W 9676   2.153   9.961   0.694  0.0505 -0.2304 -0.3574
 5626W        W 9677   7.638   8.433   9.831 -0.0297  0.0958  0.1879
 5627W        W 9678   7.579   0.573  13.807 -0.1063  0.1966  0.1913
 5628W        W 9679   7.506   7.974  11.664 -0.1027  0.1412  0.3804
 5629W        W 9680   9.104   5.462  10.174 -0.0017 -0.4300  0.1064
 5630W        W 9681   8.851   6.655   1.861 -0.1760  0.0564 -0.1588
 5631W        W 9682   2.219   3.956  12.137 -0.3045 -0.2756  0.1155
 5632W        W 9683   9.815   5.849   2.190  0.1566 -0.1514 -0.0430
 5633W        W 9684   9.705   0.953  13.572 -0.2625  0.0686 -0.1686
 5634W        W 9685  10.092   9.496  14.030  0.4072  0.0327 -0.0163
 5635W        W 9686   7.183   7.107  11.046  0.0893 -0.0085 -0.0514
 5636W        W 9687   3.070   3.398   1.912 -0.5500  0.0830 -0.2616
 5637W        W 9688  10.125   4.177   3.674 -0.3198 -0.0783 -0.0977
 5638W        W 9689   1.945   1.075  11.359 -0.2165 -0.1574  0.0410
 5639W        W 9690   1.518   3.530   2.787 -0.2750 -0.1028  0.3774
 5640W        W 9691   0.597   7.187  11.373  0.3666 -0.0640 -0.0298
 5641W        W 9692   8.802   6.625   0.738  0.2592 -0.0619  0.0301
 5642W        W 9693   3.686   6.796   2.234 -0.1658  0.0804  0.0259
 5643W        W 9694   7.120   8.079   2.114 -0.1508 -0.2793  0.0709
 5644W        W 9695   1.848   8.635  12.743 -0.1793  0.1512  0.1416
 5645W        W 9696   8.948   5.521   2.720 -0.1634  0.0756 -0.1364
 5646W        W 9697   3.285   2.982  12.047  0.0635  0.0189  0.1132
 5647W        W 9698   6.341   1.605   0.657 -0.1118 -0.2950 -0.4201
 5648W        W 9699   2.010   9.757  12.327 -0.0512 -0.4739  0.0180
 5649W        W 9700   0.359   9.387  10.635 -0.0751 -0.1333  0.1719
 5650W        W 9701   4.057   2.951  12.658 -0.1196  0.0404 -0.0087
 5651W        W 9702   4.482   3.708  12.361  0.3648 -0.0694 -0.1147
 5652W        W 9703   0.102   4.845   2.716  0.1441 -0.0575 -0.0745
 5653W        W 9704   2.596   9.911   2.490  0.0497  0.1066 -0.1489
 5654W        W 9705   8.337  10.013   4.158  0.0617  0.0327  0.0486
 5655W        W 9706   5.336   6.949  12.265  0.0303 -0.0476  0.0315
 5656W        W 9707   0.378   7.347   9.248 -0.4400 -0.0093 -0.0350
 5657W        W 9708   2.498   9.892   3.256  0.0071  0.0194  0.1262
 5658W        W 9709   9.982   7.591  11.819 -0.2638  0.2037  0.2190
 5659W        W 9710   0.150   7.975  10.055  0.0189 -0.2442  0.0908
 5660W        W 9711   5.314   2.290   3.100 -0.0189 -0.0145  0.1680
 5661W        W 9712   9.015   3.465  10.185 -0.2319 -0.0181  0.0171
 5662W        W 9713   6.457   3.689  12.140 -0.1022  0.3431  0.2308
 5663W        W 9714   6.342   2.345   1.552  0.0906  0.0166 -0.1198
 5664W        W 9715   1.268   1.677   0.478 -0.0259 -0.1803 -0.0603
 5665W        W 9716   8.810   8.091  13.568  0.1030 -0.2760  0.0295
 5666W        W 9717   1.013   8.372   9.814  0.1246  0.0245 -0.0880
 5667W        W 9718   8.711   2.139   1.467  0.2495  0.2169  0.1876
 5668W        W 9719   5.830   1.889  10.170 -0.2265  0.5848 -0.1384
 5669W        W 9720   0.263   3.593   3.067 -0.1722  0.1322  0.1130
 5670W        W 9721   0.849   2.798   4.072  0.3925  0.3208 -0.1358
 5671W        W 9722   9.341   9.023   9.906 -0.0962 -0.0456  0.0442
 5672W        W 9723   9.250   7.652  13.352  0.1545 -0.0654  0.1718
 5673W        W 9724   3.194   1.234  13.178 -0.2075 -0.1134 -0.2317
 5674W        W 9725   1.332   7.264  12.702 -0.0057 -0.2424 -0.0823
 5675W        W 9726   2.614   5.817  13.148  0.1744 -0.0456 -0.1604
 5676W        W 9727   7.633   6.240   0.020 -0.2758  0.5069  0.4135
 5677W        W 9728   9.839   4.074  11.289 -0.2386 -0.0435  0.0962
 5678W        W 9729   1.909   7.911   3.025 -0.0195 -0.2278  0.1924
 5679W        W 9730   8.722   7.505   5.825  0.0437  0.0525 -0.0122
 5680W        W 9731   0.193   9.991   1.325  0.0288  0.1281 -0.2308
 5681W        W 9732   5.601   9.233   0.600 -0.2599 -0.1898  0.1540
 5682W        W 9733   2.383   1.153  11.694  0.0138  0.1626  0.0976
 5683W        W 9734   7.707   7.507   9.827 -0.2554 -0.3235 -0.3918
 5684W        W 9735   4.234   5.710  13.909  0.2196 -0.1610  0.0408
 5685W        W 9736   0.451   4.982  11.070  0.0960  0.2010  0.0688
 5686W        W 9737   0.359   3.156   9.384 -0.1042  0.0717  0.0594
 5687W        W 9738   3.077   9.574   3.479  0.1299 -0.1092  0.1183
 5688W        W 9739   3.450   4.832   2.670  0.1531 -0.1969 -0.0070
 5689W        W 9740   9.591   3.143   9.530 -0.4862 -0.0314 -0.1540
 5690W        W 9741   0.065   8.267  12.886 -0.1361 -0.0599  0.1903
 5691W        W 9742   7.014   7.973  11.506 -0.2347  0.0683 -0.1768
 5692W        W 9743   1.644   9.454   9.535 -0.0141 -0.1234 -0.1369
 5693W        W 9744   1.687   9.911   0.573 -0.2403 -0.0212  0.2667
 5694W        W 9745   1.095   7.368   1.038 -0.0937 -0.1541 -0.2638
 5695W        W 9746   9.249   8.966  13.437  0.0636 -0.1942 -0.1946
 5696W        W 9747   6.277   2.219   3.967 -0.1737  0.3664  0.0813
 5697W        W 9748   6.144   1.091   0.932 -0.3383 -0.1476  0.0052
 5698W        W 9749   8.425   5.197  12.868 -0.2662  0.2483 -0.0860
 5699W        W 9750   7.736   2.083   0.314 -0.0623 -0.1622 -0.0735
 5700W        W 9751   0.406   1.701  11.131 -0.1916 -0.0391 -0.3143
 5701W        W 9752   3.414   7.832  13.587  0.4676 -0.1479  0.1673
 5702W        W 9753   1.450   0.259  10.062  0.1331 -0.0499  0.0405
 5703W        W 9754   5.364   3.185   1.466  0.2003  0.0541  0.3567
 5704W        W 9755   9.091   7.327   2.724 -0.2890 -0.4848 -0.1227
 5705W        W 9756   3.026   2.593  12.529 -0.3574  0.1944 -0.1571
 5706W        W 9757   9.709   4.846   9.048 -0.0873  0.0187 -0.3182
 5707W        W 9758   8.046   1.326  13.967 -0.1260  0.1187  0.3522
 5708W        W 9759   7.393   7.051   2.652 -0.1555 -0.1102 -0.0899
 5709W        W 9760   6.034   7.080   2.208 -0.1439 -0.3110 -0.0959
 5710W        W 9761   1.702   4.065  12.083 -0.2381  0.1302 -0.0418
 5711W        W 9762   9.148   2.361   0.782  0.2457 -0.1098  0.0030
 5712W        W 9763   1.623   2.060  10.278  0.1430 -0.2369  0.2445
 5713W        W 9764   3.539   8.688  12.292 -0.1847  0.0044 -0.1318
 5714W        W 9765   9.282   9.277   9.441 -0.1064 -0.4649  0.0889
 5715W        W 9766   8.428   4.922   3.232  0.1412  0.0049  0.0963
 5716W        W 9767   2.313   7.809  10.311 -0.0008 -0.2036 -0.0280
 5717W        W 9768   3.854   3.296  10.848  0.1649 -0.1097 -0.1115
 5718W        W 9769   7.094   0.121  11.778 -0.1662 -0.0549  0.2945
 5719W        W 9770   9.854   0.443   8.693 -0.0545 -0.0065 -0.4443
 5720W        W 9771   3.339   9.308   9.747 -0.1183  0.2505  0.2620
 5721W        W 9772   8.299  10.138   9.442 -0.1354  0.1156  0.4821
 5722W        W 9773   2.401   2.951   2.794  0.1245  0.0460 -0.4825
 5723W        W 9774   0.029   1.526  11.879  0.0650 -0.0244 -0.2131
 5724W        W 9775   0.622   2.004  10.739 -0.3513  0.1181  0.0272
 5725W        W 9776   9.807   3.262  11.744  0.0307  0.5144 -0.1010
 5726W        W 9777   7.989   2.544   4.545  0.0334 -0.1212 -0.0250
 5727W        W 9778   4.066   9.926  11.161  0.0987  0.0531  0.1839
 5728W        W 9779   8.413   7.530  13.671  0.2620  0.2586  0.0737
 5729W        W 9780   1.936   1.783   2.446 -0.2128 -0.0871 -0.2006
 5730W        W 9781   1.434   5.435   3.077 -0.0520 -0.1564  0.1783
 5731W        W 9782   6.371   9.323   2.773 -0.0424  0.1035  0.0505
 5732W        W 9783   0.981   7.449   1.558 -0.0809 -0.0851 -0.0559
 5733W        W 9784  10.039   2.725  12.491 -0.0427  0.0880 -0.3776
 5734W        W 9785   5.970   1.520   0.284 -0.2138 -0.0645  0.3093
 5735W        W 9786   3.407   4.331  13.301 -0.3843  0.1025 -0.1031
 5736W        W 9787   0.284   3.950   0.366  0.3445  0.2467 -0.0131
 5737W        W 9788   3.307   7.396  12.742  0.1586  0.3344 -0.1586
 5738W        W 9789   4.238   5.381   2.669  0.1825  0.0918  0.1936
 5739W        W 9790   4.654   4.445   0.783  0.1691  0.1598  0.2132
 5740W        W 9791   9.837   9.791  12.842 -0.1065 -0.1171  0.2266
 5741W        W 9792   3.957   3.489  12.650 -0.1704  0.0377  0.2716
 5742W        W 9793   9.917   4.225  12.548  0.0115  0.2489  0.1836
 5743W        W 9794   2.265   4.619   0.739  0.0588 -0.3034  0.0793
 5744W        W 9795  10.100   7.101   1.766 -0.2436  0.0264 -0.1738
 5745W        W 9796   8.903   1.720  11.242 -0.0497  0.0905 -0.3070
 5746W        W 9797   4.933   9.617   1.889 -0.1449 -0.1683 -0.1927
 5747W        W 9798   8.773   2.689   4.194  0.3150  0.1912 -0.1925
 5748W        W 9799   1.596   9.255  10.423 -0.2902 -0.0145  0.2921
 5749W        W 9800   1.004   0.003   4.120  0.1761 -0.0573 -0.4957
 5750W        W 9801   4.410   5.367  11.764  0.0450 -0.2198  0.1670
 5751W        W 9802   6.201   0.762  11.595  0.1846 -0.0642 -0.0222
 5752W        W 9803   7.150   0.418   4.685 -0.5025  0.4160  0.1919
 5753W        W 9804   6.228   0.088   5.202  0.3157  0.0273  0.1607
 5754W        W 9805   0.329   2.767  11.218  0.0458 -0.2503 -0.1205
 5755W        W 9806   3.690   5.248  13.061 -0.1002  0.0749  0.1568
 5756W        W 9807   9.495   8.651   4.430  0.4453 -0.0542  0.1071
 5757W        W 9808   2.010   8.407  13.216  0.3496  0.2335 -0.0522
 5758W        W 9809   5.697   3.725  12.803  0.4771  0.2512  0.1741
 5759W        W 9810   8.578   2.284  12.996  0.1873 -0.0271 -0.0547
 5760W        W 9811   5.124   2.561   9.879  0.0183 -0.0270 -0.2491
 5761W        W 9812  10.150   7.229   2.320 -0.0262  0.0828 -0.0600
 5762W        W 9813   4.684   9.962  10.787 -0.0137 -0.2621 -0.0953
 5763W        W 9814   2.502   4.192   9.526  0.3677  0.1724 -0.1588
 5764W        W 9815   2.896   1.614   9.559  0.1840  0.0696 -0.0651
 5765W        W 9816   7.110   5.492  13.615  0.1794 -0.3055 -0.2837
 5766W        W 9817   8.150   5.537  13.467  0.0557  0.2615  0.0969
 5767W        W 9818   8.183   8.787   4.556 -0.1842  0.0752 -0.1818
 5768W        W 9819   6.586   4.754   1.282 -0.0109 -0.0156  0.1773
 5769W        W 9820   8.865   4.912   3.564 -0.1751  0.3922 -0.1035
 5770W        W 9821   7.826   7.555  11.689  0.0619 -0.2145 -0.1605
 5771W        W 9822   9.916   1.320  13.280 -0.0355 -0.2405 -0.2181
 5772W        W 9823   1.276   1.346  10.496  0.1428  0.0356 -0.1207
 5773W        W 9824   9.736   3.741  11.641  0.2551  0.3840 -0.3085
 5774W        W 9825   8.884   6.182  10.959  0.0052  0.0511  0.0636
 5775W        W 9826   2.785   2.394  11.098  0.0030 -0.0406  0.0283
 5776W        W 9827   9.702   9.358  13.721 -0.0973  0.0615 -0.0022
 5777W        W 9828   8.765   3.076   1.036  0.2937  0.0997  0.0919
 5778W        W 9829   3.618   0.799  12.070 -0.2484 -0.0196 -0.1834
 5779W        W 9830   1.749   1.624   1.900  0.0481 -0.0220  0.1737
 5780W        W 9831   6.035   6.120  12.361  0.1228  0.0740 -0.1638
 5781W        W 9832   9.347   5.150   1.805 -0.6337  0.0975 -0.0023
 5782W        W 9833   2.616   3.594   2.171  0.1126 -0.2239 -0.0156
 5783W        W 9834   0.418   3.685   1.433  0.2823  0.2509 -0.2739
 5784W        W 9835   6.964   0.665   9.493 -0.2312  0.0836  0.0704
 5785W        W 9836   0.049   8.540   4.071 -0.1651 -0.1479 -0.0963
 5786W        W 9837   4.769   1.752  11.174 -0.1102 -0.0680 -0.1067
 5787W        W 9838   6.884   6.316  10.373  0.2147  0.1206  0.2697
 5788W        W 9839   8.001   4.961   2.053 -0.4347 -0.0394  0.1870
 5789W        W 9840   9.467   2.145  13.321 -0.4152  0.2526  0.0028
 5790W        W 9841   2.131   3.010  11.186 -0.0644 -0.1144  0.0186
 5791W        W 9842   5.404  10.101   2.433 -0.0845  0.0773 -0.1071
 5792W        W 9843   2.384   5.861   1.090 -0.0046  0.0726  0.0671
 5793W        W 9844   7.266   5.828  13.277  0.1059 -0.2652 -0.0099
 5794W        W 9845   6.451   5.575   3.344 -0.2386  0.1902  0.0509
 5795W        W 9846   3.333   6.095   4.040 -0.1013 -0.1077  0.0828
 5796W        W 9847   2.698   2.177  13.923  0.1331  0.0791  0.2269
 5797W        W 9848   2.771   2.391   0.351  0.1081 -0.1422 -0.0304
 5798W        W 9849   9.546   0.610  10.591 -0.1011 -0.1152 -0.1198
 5799W        W 9850   8.914   8.965  11.530 -0.0767 -0.0781 -0.0973
 5800W        W 9851   7.916   2.241   5.271  0.0811 -0.1088  0.2953
 5801W        W 9852   7.339   4.589  11.562  0.3015  0.0381 -0.0306
 5802W        W 9853   8.897   4.004  13.756 -0.0028 -0.1153  0.2353
 5803W        W 9854   6.114   3.375  11.969 -0.3094  0.4831 -0.3146
 5804W        W 9855   0.380   7.095   4.846  0.0172 -0.0780 -0.1933
 5805W        W 9856   8.788   3.052   3.711 -0.0610  0.2097 -0.0250
 5806W        W 9857   6.486   7.905  12.073 -0.0002  0.1522 -0.0967
 5807W        W 9858   1.366   6.111   2.556 -0.1464 -0.3155 -0.2387
 5808W        W 9859   3.951   1.470   9.570  0.1475  0.2699  0.0384
 5809W        W 9860   4.825   2.733  10.316 -0.0263  0.2727  0.0721
 5810W        W 9861   0.600   1.983  11.981 -0.1080  0.3556  0.2265
 5811W        W 9862   3.079   1.504   3.700  0.0708 -0.0927  0.1470
 5812W        W 9863   5.211   5.259  12.976 -0.1483 -0.2051 -0.2880
 5813W        W 9864   2.150   4.224  13.203  0.1162 -0.0980 -0.2025
 5814W        W 9865   2.923   4.739   2.683 -0.0841 -0.1613 -0.2667
 5815W        W 9866   0.458   6.567  12.699  0.0654 -0.1497 -0.0482
 5816W        W 9867   6.462   5.321   1.265  0.1894  0.1337 -0.2366
 5817W        W 9868   9.496   0.591   2.087  0.1409 -0.1333 -0.0302
 5818W        W 9869  10.036   2.784   4.302 -0.2567 -0.0849 -0.1209
 5819W        W 9870   4.011   8.551   3.537  0.0475  0.2255 -0.5650
 5820W        W 9871   2.961   0.704  11.005 -0.0234  0.0561  0.3343
 5821W        W 9872   2.005   8.531   9.627  0.2224 -0.1107  0.0020
 5822W        W 9873   8.697   6.982  11.117 -0.2023 -0.1338 -0.0158
 5823W        W 9874   1.290   1.538  13.060 -0.1778 -0.0977  0.0908
 5824W        W 9875   1.227   8.006   4.122 -0.1102 -0.1040  0.0155
 5825W        W 9876   6.059   7.438   4.650 -0.0040 -0.1126  0.2398
 5826W        W 9877   7.819   1.617   0.507 -0.1165 -0.3080 -0.5501
 5827W        W 9878   1.289   0.829   4.391  0.1780  0.0449 -0.0806
 5828W        W 9879   3.309   2.667   3.697 -0.0908 -0.0815 -0.0472
 5829W        W 9880   8.341   1.778   9.509  0.1118 -0.0987 -0.1477
 5830W        W 9881   9.154   8.287  11.437  0.2152  0.2350 -0.3107
 5831W        W 9882   1.737  10.156  12.692  0.2217 -0.0330 -0.2571
 5832W        W 9883   0.322   4.484   0.277 -0.0822  0.0715 -0.2413
 5833W        W 9884   6.544   2.904  13.832  0.1065  0.1751 -0.1560
 5834W        W 9885   0.872   9.139   9.146 -0.1792 -0.1017 -0.2080
 5835W        W 9886   3.266   1.570   0.201  0.1265  0.0636  0.2031
 5836W        W 9887   6.399   1.859   2.486 -0.1789  0.1718 -0.2575
 5837W        W 9888   2.873   1.737  12.023  0.1464 -0.3921 -0.1055
 5838W        W 9889   8.439   7.872   2.209  0.0929  0.2844  0.2185
 5839W        W 9890   0.669   2.681  13.853  0.3246  0.1109  0.0568
 5840W        W 9891   4.999   8.343  11.270  0.1170  0.3030 -0.1035
 5841W        W 9892   7.676   9.631   3.648  0.1702  0.0128 -0.4763
 5842W        W 9893   2.273   7.421   1.456 -0.0561  0.4307  0.1424
 5843W        W 9894   2.378   4.820   9.990  0.3394 -0.1999  0.0071
 5844W        W 9895   0.695   0.686   8.489  0.0398 -0.0981  0.0030
 5845W        W 9896   9.380   4.323   3.249 -0.2458  0.2496  0.1120
 5846W        W 9897   0.667   5.113   9.813  0.3774 -0.1673 -0.0114
 5847W        W 9898   4.827   3.632   3.934 -0.2721  0.2186  0.4346
 5848W        W 9899   2.764   1.846   5.158  0.1716 -0.1569  0.0957
 5849W        W 9900   0.611   0.248   2.092  0.1542 -0.0985 -0.0069
 5850W        W 9901   3.799   8.594  13.164  0.0103  0.1424  0.1337
 5851W        W 9902   8.773   3.803   4.728 -0.0158  0.0639 -0.1621
 5852W        W 9903   2.077   6.330   4.663  0.0755 -0.1651  0.1429
 5853W        W 9904   8.624   2.696   3.247  0.2182  0.2502  0.2649
 5854W        W 9905   3.705   3.660   0.661  0.1685 -0.0210 -0.1776
 5855W        W 9906  10.036   1.399  10.928 -0.0828  0.2803 -0.0744
 5856W        W 9907   7.673   0.266   1.496  0.2842  0.1542  0.2387
 5857W        W 9908   7.299   6.867   0.137 -0.0895 -0.0354 -0.1234
 5858W        W 9909   0.927   1.195   3.500 -0.0964 -0.2679 -0.0442
 5859W        W 9910   4.784   9.247  12.994 -0.0139  0.2320  0.0242
 5860W        W 9911   7.923   8.530  13.744  0.2745  0.0759  0.3829
 5861W        W 9912   4.472   7.182  11.145 -0.4656 -0.2271 -0.3216
 5862W        W 9913   0.581   3.767   4.677 -0.1648  0.0421 -0.0625
 5863W        W 9914   0.794   9.949  11.145  0.0166  0.1123  0.0789
 5864W        W 9915   4.870   0.166  10.407  0.0484  0.0329  0.0538
 5865W        W 9916   8.090   7.692   0.052 -0.1494 -0.0960 -0.1274
 5866W        W 9917   1.079   1.190   0.516  0.0645 -0.0944  0.0147
 5867W        W 9918   4.305   3.623  10.893 -0.0719 -0.3047 -0.1235
 5868W        W 9919   4.739   2.954  11.152 -0.3615  0.1397  0.2951
 5869W        W 9920   8.170   1.170   4.416  0.0562  0.0316  0.0930
 5870W        W 9921   0.717   0.686   9.628  0.1445 -0.1262  0.3325
 5871W        W 9922   8.382   7.465   1.913  0.2818  0.1326 -0.1121
 5872W        W 9923   4.974   6.535   2.618  0.0967 -0.0823 -0.1799
 5873W        W 9924   0.834   8.378  13.874  0.2213  0.1317 -0.2395
 5874W        W 9925   9.358  10.100   1.000  0.1718  0.1904  0.0356
 5875W        W 9926   3.957   5.679  10.007 -0.1249  0.0504 -0.0393
 5876W        W 9927   0.186   5.469   2.894 -0.0194 -0.0582  0.2906
 5877W        W 9928   2.124   6.501   4.171 -0.1139 -0.0310 -0.0127
 5878W        W 9929   8.171   1.548  12.930  0.0215 -0.1003  0.0532
 5879W        W 9930   5.707   3.042   1.122 -0.3895 -0.0487 -0.0215
 5880W        W 9931   3.568   9.486   4.914 -0.1904  0.0768 -0.2284
 5881W        W 9932   3.451   2.465  10.594 -0.0234  0.0742  0.1161
 5882W        W 9933  10.046   1.479   1.091 -0.1356  0.1604  0.0468
 5883W        W 9934   7.160   3.183  13.746 -0.2324  0.0172  0.0891
 5884W        W 9935   0.900   4.288   3.118  0.3582 -0.0965 -0.0470
 5885W        W 9936   3.950   9.569   5.319 -0.1124  0.2860  0.0658
 5886W        W 9937   0.051   9.140   8.877  0.0438  0.1761  0.1867
 5887W        W 9938   3.737   9.619  13.061 -0.0960 -0.1582 -0.0984
 5888W        W 9939   0.138   6.203   5.226 -0.1117  0.1590 -0.0518
 5889W        W 9940   5.696   9.902   1.332  0.3115  0.1908 -0.1542
 5890W        W 9941   6.719   9.530   8.765 -0.2799  0.0596 -0.2274
 5891W        W 9942   9.098   3.836  10.914  0.1337 -0.1442 -0.0305
 5892W        W 9943   8.249   3.429   3.780 -0.0268 -0.2318  0.1248
 5893W        W 9944   4.916   1.220  13.380 -0.2928  0.1938  0.3362
 5894W        W 9945   7.997   5.345   3.466 -0.1254 -0.1621  0.1746
 5895W        W 9946   8.263   7.750   9.734 -0.1843  0.4725 -0.0530
 5896W        W 9947   7.610   7.638  10.372 -0.0524 -0.1314 -0.0690
 5897W        W 9948   8.847   1.786   1.049 -0.4748 -0.1495  0.1822
 5898W        W 9949   6.783   9.452  12.935  0.2636  0.0437 -0.1845
 5899W        W 9950   1.870   5.454  11.202  0.1008 -0.2722  0.0865
 5900W        W 9951   3.167   2.634   5.612 -0.0732 -0.1269 -0.2045
 5901W        W 9952   6.718   8.639   2.141 -0.1768 -0.0388  0.2977
 5902W        W 9953   9.132   7.851   4.061  0.1762  0.0111 -0.0635
 5903W        W 9954   2.775   1.109   3.860  0.0129 -0.0355  0.1578
 5904W        W 9955   2.112   2.749   2.314  0.2489  0.1495 -0.2557
 5905W        W 9956   9.803   8.678   0.136  0.1430  0.2905 -0.1007
 5906W        W 9957   8.387   2.337  10.868 -0.1753  0.2218 -0.1471
 5907W        W 9958   2.411   2.154   9.868 -0.1806 -0.1143 -0.1303
 5908W        W 9959   6.600   0.755  13.547 -0.1716  0.0551 -0.0581
 5909W        W 9960   7.807   1.392   4.743  0.0222 -0.0042  0.1430
 5910W        W 9961   6.016   3.541  10.280 -0.0973  0.1812 -0.2771
 5911W        W 9962   1.349   1.466  12.542 -0.0601  0.6292 -0.3082
 5912W        W 9963   2.941   0.482  12.535  0.2410 -0.0458 -0.1525
 5913W        W 9964   2.413   7.133   4.945 -0.7328 -0.1369 -0.1503
 5914W        W 9965   9.916   8.011   1.700  0.0851  0.1080  0.4001
 5915W        W 9966   9.519   0.433   4.490 -0.1833  0.3644 -0.3405
 5916W        W 9967   8.388   4.514   0.492 -0.0548  0.0976 -0.0795
 5917W        W 9968   3.384   2.248   5.836 -0.0785  0.2854  0.2288
 5918W        W 9969   1.175   3.617   3.807 -0.0250 -0.0145  0.1061
 5919W        W 9970   2.897   7.924   2.307  0.1631 -0.5162 -0.1804
 5920W        W 9971   8.136   9.732   1.183  0.1639  0.0600  0.2289
 5921W        W 9972   2.739   3.168   3.779 -0.0476 -0.0500  0.4102
 5922W        W 9973   6.087   5.590  12.473 -0.1995  0.0766  0.1371
 5923W        W 9974   3.134   4.621  10.227  0.1290 -0.2370  0.1236
 5924W        W 9975   6.859   7.269  10.310  0.1238  0.0164  0.1588
 5925W        W 9976   3.036   4.873   2.111 -0.1629 -0.0833  0.0757
 5926W        W 9977   3.137   4.041  10.543  0.0635 -0.1514  0.1638
 5927W        W 9978   4.432   9.182  13.480 -0.4544  0.1612 -0.1619
 5928W        W 9979   1.130   2.398   3.959  0.0536 -0.0371  0.1703
 5929W        W 9980   0.009   3.109  12.052  0.2648  0.3477 -0.0838
 5930W        W 9981   6.457   3.929  10.108  0.0773  0.2141  0.2206
 5931W        W 9982   1.719   7.587   2.143 -0.0103 -0.1738 -0.1194
 5932W        W 9983   9.065   2.429  12.972  0.0256  0.2625 -0.3264
 5933W        W 9984   5.834   1.490   9.904 -0.0079 -0.2573  0.0350
 5934W        W 9985   6.134   4.515  12.398  0.3337  0.2748 -0.2663
 5935W        W 9986   6.148   3.154  13.334  0.4274 -0.0716  0.3561
 5936W        W 9987   1.237   6.258  13.702  0.1339  0.5521  0.2717
 5937W        W 9988   4.272   3.028  13.540 -0.1310  0.1438  0.1131
 5938W        W 9989   8.208   9.030  13.173  0.2209 -0.4264 -0.1087
 5939W        W 9990   5.083   7.931  10.988  0.1774  0.0152  0.1928
 5940W        W 9991   9.185   3.353  11.054 -0.0153 -0.0329  0.1369
 5941W        W 9992   9.854   8.104  10.032 -0.1486 -0.0793  0.1685
 5942W        W 9993   3.126   0.157  10.356  0.0592  0.2888  0.0006
 5943W        W 9994   4.483   8.847  11.929 -0.4869  0.0278 -0.1237
 5944W        W 9995   2.856   3.776   8.984 -0.0050  0.0953 -0.0888
 5945W        W 9996   7.952   8.311  13.285  0.0376 -0.2088  0.0854
 5946W        W 9997   6.056   9.200   1.819  0.1551  0.3457  0.0798
 5947W        W 9998   2.142   0.120  12.485 -0.1747 -0.4604 -0.1500
 5948W        W 9999   4.782   7.486   1.553 -0.1727 -0.2599  0.0366
 5949W        W10000   3.711   7.607  11.140 -0.1292  0.1629 -0.1373
 5950W        W10001   5.986   5.946   9.970  0.3539  0.0767  0.1080
 5951W        W10002   2.148   4.723  13.222  0.3639  0.0117  0.0457
 5952W        W10003   5.969   5.397   1.138 -0.1592 -0.0743  0.0815
 5953W        W10004   6.032   9.386   4.737  0.0617  0.1299  0.1268
 5954W        W10005   3.236   1.013   3.592  0.0358  0.2236  0.2013
 5955W        W10006   0.605   2.345   4.027 -0.3428  0.0867 -0.0533
 5956W        W10007   9.083   6.026   2.692 -0.3055 -0.1558  0.1513
 5957W        W10008   3.766   6.102  10.920  0.2359 -0.3337  0.3166
 5958W        W10009   2.638   7.449  10.403 -0.0723 -0.0845  0.1589
 5959W        W10010   5.618   0.420  10.818 -0.0893  0.1501  0.2963
 5960W        W10011   0.553   2.198   2.215 -0.2045  0.0353 -0.1613
 5961W        W10012   5.276   6.761   0.993  0.0850 -0.2262 -0.2020
 5962W        W10013   1.034   1.987   0.064  0.0611  0.1407  0.1802
 5963W        W10014   9.116   7.530   5.511  0.3072 -0.3860  0.3307
 5964W        W10015   3.686  10.068   5.010  0.0267  0.3744 -0.2543
 5965W        W10016   6.816   2.254   4.294  0.0827  0.2048 -0.0589
 5966W        W10017   9.693   7.452   2.577  0.0429  0.2419  0.0095
 5967W        W10018   9.634   1.248   5.909 -0.0862  0.0778 -0.1660
 5968W        W10019   9.113   2.933   3.317 -0.1167  0.2039  0.0603
 5969W        W10020   8.687   2.054  10.523  0.0364  0.0322 -0.0974
 5970W        W10021   2.552   9.878  11.659 -0.1683 -0.1724 -0.1576
 5971W        W10022   8.593   3.980  10.876  0.1239  0.2486  0.0104
 5972W        W10023   1.523   3.938   4.039  0.3428 -0.0793 -0.0138
 5973W        W10024   0.127   8.820   5.797 -0.2743 -0.1456  0.0393
 5974W        W10025   6.901   6.955   2.938  0.3605  0.0439  0.2200
 5975W        W10026   0.417   7.084   3.032  0.0251 -0.0653  0.2227
 5976W        W10027   4.420   4.766  12.638  0.2087  0.0687 -0.1443
 5977W        W10028   1.396   1.384  12.060  0.0638 -0.1247 -0.1894
 5978W        W10029   8.196   8.800  11.193  0.1920  0.2706 -0.0861
 5979W        W10030   7.350   4.694   3.822  0.4212  0.1921 -0.1194
 5980W        W10031   1.768   3.085  12.474  0.0914  0.1537 -0.0283
 5981W        W10032   6.582   1.424   3.004  0.1132  0.4134  0.0204
 5982W        W10033   6.762   3.244   2.711  0.1271 -0.0973  0.1357
 5983W        W10034   8.275   1.315  10.026 -0.0648 -0.1630  0.3138
 5984W        W10035   3.088   9.508   5.016 -0.3647 -0.0034  0.2209
 5985W        W10036   2.644   9.582   4.337 -0.1867  0.0114  0.1465
 5986W        W10037   3.859   5.441  13.498 -0.0967 -0.2216 -0.1447
 5987W        W10038   9.374   0.933  13.998 -0.0916  0.0565 -0.3680
 5988W        W10039   5.187   0.496   2.964 -0.1377  0.0256  0.0727
 5989W        W10040   4.473   7.682   2.124  0.0212  0.2315  0.1585
 5990W        W10041   2.762   6.534  10.679 -0.1361 -0.1107  0.1537
 5991W        W10042   8.607   0.571  13.531 -0.2146  0.2044  0.1781
 5992W        W10043   8.561   6.705   1.231  0.0465 -0.0975  0.1301
 5993W        W10044   8.944   8.143   3.054 -0.2993  0.1235 -0.0660
 5994W        W10045   0.869   9.715  13.253 -0.0363 -0.3364 -0.1515
 5995W        W10046   8.559   3.566  13.797  0.1838 -0.3371  0.0804
 5996W        W10047   5.567   8.760   0.539  0.1744  0.1388  0.0808
 5997W        W10048  10.116   5.382  13.240  0.1223 -0.0278 -0.1472
 5998W        W10049   3.568   3.469   4.874  0.3205  0.2514 -0.0119
 5999W        W10050   3.589   5.704  13.200  0.2273 -0.2379  0.0680
 6000W        W10051   9.706   6.160   0.058  0.0135  0.2024 -0.1024
 6001W        W10052   6.683   4.172   3.313  0.1528 -0.0355  0.1939
 6002W        W10053   7.764   9.581  13.725 -0.0265  0.0509  0.1036
 6003W        W10054   7.750   6.718  13.698 -0.0864 -0.1249  0.0239
 6004W        W10055   3.209   4.885  13.183 -0.1126 -0.0282 -0.3270
 6005W        W10056   7.608   5.344   0.547  0.0768  0.0443 -0.0447
 6006W        W10057   4.079   1.949   9.835 -0.0857  0.1068 -0.0737
 6007W        W10058   7.031   8.806  11.817  0.0712 -0.2059  0.2774
 6008W        W10059   1.952   1.243   1.588 -0.0324  0.1423 -0.0105
 6009W        W10060   7.773   4.126   2.989  0.0191  0.0826 -0.2179
 6010W        W10061   8.119   9.539  10.880  0.0874  0.4424  0.1425
 6011W        W10062   5.500   7.224   0.971 -0.1878  0.1524  0.0799
 6012W        W10063   0.777   5.364  10.788 -0.0411 -0.2746 -0.3393
 6013W        W10064   3.641   1.782   9.941  0.0341  0.3137 -0.0058
 6014W        W10065   4.470   8.385  13.969  0.0645  0.0750 -0.0052
 6015W        W10066   1.903   4.000  11.599  0.0031  0.0680 -0.1652
 6016W        W10067   0.425   2.625  12.599 -0.0143 -0.1134  0.1518
 6017W        W10068   9.510   5.621   1.870 -0.0140 -0.0843 -0.0808
 6018W        W10069   7.941  10.028  10.139  0.0224  0.0127  0.0680
 6019W        W10070   3.364   0.395   3.836  0.0061 -0.1175  0.0495
 6020W        W10071   7.612   2.743  10.504 -0.1240  0.2731  0.2174
 6021W        W10072   8.124   2.235  13.270  0.2178 -0.1492 -0.1544
 6022W        W10073   3.580   1.918   0.325 -0.1231 -0.1873  0.2845
 6023W        W10074   1.080   6.101   0.257 -0.2142 -0.0674  0.0769
 6024W        W10075   1.492   1.321   4.787  0.0838 -0.2045  0.2077
 6025W        W10076   1.623   2.539   1.414  0.1061  0.0599 -0.2866
 6026W        W10077   5.016   9.630   0.205  0.2210 -0.0361  0.0869
 6027W        W10078   2.379   5.705  13.834 -0.4619 -0.0471 -0.2919
 6028W        W10079   6.583   5.573  11.566  0.0319 -0.0752  0.3546
 6029W        W10080   0.085   5.219   8.887  0.0866 -0.1328 -0.1481
 6030W        W10081   4.428   2.522  12.557 -0.1310 -0.1286 -0.0692
 6031W        W10082   6.037   2.931  11.739 -0.0822  0.1447 -0.1366
 6032W        W10083   8.074   8.781   0.143 -0.0660 -0.0642 -0.1987
 6033W        W10084   1.219   7.988  12.795 -0.0646  0.0573 -0.3058
 6034W        W10085   4.279   7.397   1.679 -0.4478 -0.0374 -0.3262
 6035W        W10086   0.169   6.831   4.498 -0.0772 -0.0754  0.0989
 6036W        W10087   2.897   9.982   0.069 -0.2510 -0.3783  0.2797
 6037W        W10088   2.097   3.439  10.488  0.1113  0.1338  0.0920
 6038W        W10089   6.932   1.880   2.423 -0.0288 -0.2441 -0.0346
 6039W        W10090   5.406   7.174   9.516  0.1588  0.2794 -0.1288
 6040W        W10091   2.559   0.148  13.348 -0.1054 -0.2779  0.0499
 6041W        W10092   0.450   7.741   9.610 -0.0562 -0.0053 -0.0110
 6042W        W10093   1.322   9.961  10.916  0.0656 -0.0523  0.0010
 6043W        W10094   1.362   1.131   9.082 -0.1778 -0.1680 -0.1674
 6044W        W10095   5.681   2.137   4.651  0.4029  0.0804  0.0466
 6045W        W10096   1.161   5.312  13.432 -0.0726  0.0961  0.0802
 6046W        W10097  10.007   7.084   4.894  0.4369 -0.2041  0.1325
 6047W        W10098   5.896   4.571  11.349 -0.0510 -0.2152 -0.0552
 6048W        W10099   4.646   0.628  10.401  0.3099 -0.1740  0.2467
 6049W        W10100   7.454   8.747   0.459  0.2036 -0.1076  0.2110
 6050W        W10101   9.722   6.701  14.015  0.0459 -0.0337  0.0785
 6051W        W10102   9.106   8.549   3.304 -0.1497 -0.0576 -0.1641
 6052W        W10103   7.522   4.914   0.353  0.0624  0.1323 -0.0188
 6053W        W10104   8.972   6.033  12.141  0.1641  0.0609 -0.0711
 6054W        W10105   3.355   5.543   9.661 -0.0651  0.0136 -0.0170
 6055W        W10106   7.196   2.390  10.809 -0.1502 -0.2697  0.1155
 6056W        W10107   0.828   1.918   3.994  0.2237 -0.0762  0.2578
 6057W        W10108   0.224   1.658   3.722 -0.1017  0.1245  0.0211
 6058W        W10109   7.135   6.605   2.752  0.1431  0.3171 -0.0283
 6059W        W10110   7.203   0.371   2.183 -0.0608  0.2145  0.3114
 6060W        W10111   6.890   5.745   0.962 -0.0749 -0.0003  0.0891
 6061W        W10112   2.875   1.499   9.059 -0.0907 -0.0977  0.0583
 6062W        W10113   0.903   4.884   4.475 -0.1650  0.0875 -0.1760
 6063W        W10114   4.049   6.407   1.528 -0.2496 -0.0033 -0.1611
 6064W        W10115   1.395   9.764   1.493  0.1751  0.2724  0.0035
 6065W        W10116   0.489   3.056   2.776  0.1746 -0.0531  0.2757
 6066W        W10117   2.197   8.399   3.138 -0.0542 -0.0901 -0.2021
 6067W        W10118   5.155   6.784   2.204  0.0123 -0.4491  0.2989
 6068W        W10119   6.736   6.851  11.121 -0.3485 -0.3677 -0.0051
 6069W        W10120   8.834   8.105   1.275  0.0705  0.1247  0.3612
 6070W        W10121   1.051   4.653  12.851 -0.1484 -0.1488 -0.2522
 6071W        W10122   0.060   8.780  11.491 -0.1073 -0.1147  0.0037
 6072W        W10123   1.444   0.832   9.560  0.1720 -0.1941 -0.1335
 6073W        W10124   9.198   4.982   1.335 -0.2806  0.0042 -0.2586
 6074W        W10125   3.144   4.466  12.013 -0.0485  0.0780 -0.2418
 6075W        W10126   8.642   2.150   0.315  0.2198  0.2446 -0.3302
 6076W        W10127   1.633   1.186  12.891  0.2084 -0.0658 -0.1861
 6077W        W10128   7.403   6.047   3.542 -0.0232 -0.0354  0.3403
 6078W        W10129   5.744   9.166   4.339  0.4317 -0.1384 -0.1395
 6079W        W10130   9.756   0.513   3.397  0.1597 -0.0900 -0.0401
 6080W        W10131   1.549   4.438   3.895  0.1891 -0.1275  0.2018
 6081W        W10132   8.429   5.139   1.317 -0.1996 -0.3060  0.3847
 6082W        W10133   8.084   5.353   2.829  0.1889 -0.0851  0.0435
 6083W        W10134   1.346   4.426  11.821 -0.4710 -0.0963 -0.0975
 6084W        W10135   8.088   4.027  10.946 -0.1134 -0.0025 -0.1962
 6085W        W10136   6.841   1.454   0.762  0.0890 -0.2708 -0.1183
 6086W        W10137   8.319   2.099   3.987  0.1372 -0.0692  0.0166
 6087W        W10138   6.218   4.659  12.938  0.2179 -0.1349  0.2143
 6088W        W10139   9.380   1.445  11.253 -0.2320  0.3374  0.3087
 6089W        W10140   3.200   4.454  12.855 -0.4256  0.1012 -0.0094
 6090W        W10141   9.073   7.312   0.174 -0.0475  0.1210  0.2542
 6091W        W10142   3.606   5.539  11.863 -0.1279 -0.2874 -0.1202
 6092W        W10143   6.266   0.513  10.058  0.0072 -0.0761  0.1955
 6093W        W10144  10.006   7.942   1.162 -0.0494 -0.4129  0.2185
 6094W        W10145   4.468   4.778   9.987 -0.0264  0.4047  0.0569
 6095W        W10146   8.163   0.753  12.158  0.1458 -0.2068  0.2291
 6096W        W10147   6.767   2.062  13.895  0.1535 -0.2531  0.1208
 6097W        W10148   7.412   8.129   0.579 -0.1594  0.1164 -0.0256
 6098W        W10149   6.303   9.173  11.707  0.1831  0.1550 -0.0133
 6099W        W10150   4.820   7.864  13.741  0.1133  0.0878 -0.0608
 6100W        W10151   3.972   3.279   2.218  0.0954  0.1486  0.0570
 6101W        W10152  10.069   9.178   9.380  0.1663  0.0645 -0.1478
 6102W        W10153   2.825   2.044   3.051 -0.1198 -0.4777 -0.2624
 6103W        W10154   0.041   8.441   2.657  0.0002 -0.2168  0.1382
 6104W        W10155   5.623   4.932   3.593  0.0567 -0.0922  0.0573
 6105W        W10156   5.440   9.302  13.429  0.4254  0.1317 -0.0461
 6106W        W10157   6.104   2.373  11.376 -0.1914 -0.0079 -0.1939
 6107W        W10158   0.697   1.593  13.246  0.1380 -0.0333  0.0739
 6108W        W10159   3.165   4.520  10.744  0.0387 -0.0769  0.0617
 6109W        W10160   9.826   3.169   5.105 -0.2972  0.0766 -0.0010
 6110W        W10161   4.301   4.838  10.484  0.1599  0.1452  0.0374
 6111W        W10162   5.826   8.501   4.276  0.3800  0.2342  0.1200
 6112W        W10163   4.653   5.053  11.428  0.0499  0.1674  0.0216
 6113W        W10164  10.101   0.021  10.991 -0.2116  0.1468  0.1444
 6114W        W10165   8.992   0.705  13.768  0.2852 -0.2339 -0.2766
 6115W        W10166   5.019   2.807   4.429  0.1083  0.2362  0.0402
 6116W        W10167   5.572   6.765  10.273  0.2645  0.0872 -0.1738
 6117W        W10168   1.315   3.918   2.117 -0.3063 -0.5379  0.0120
 6118W        W10169   4.863   1.799  10.240  0.1277  0.2424 -0.0230
 6119W        W10170   8.184   3.108  10.114  0.1998 -0.0603  0.0146
 6120W        W10171   7.195   6.611  10.913 -0.0486 -0.0083  0.1985
 6121W        W10172   0.195   8.006   2.971 -0.1282 -0.3580  0.0973
 6122W        W10173   8.973   9.454  12.881 -0.2744  0.2274 -0.0164
 6123W        W10174   3.404   1.033   4.507  0.2260 -0.0976 -0.4116
 6124W        W10175   1.922   2.434  13.576 -0.1740 -0.0818  0.1050
 6125W        W10176   6.228   3.147   2.909 -0.0622 -0.2083  0.0761
 6126W        W10177   6.523   6.100   9.972  0.0733 -0.2640  0.0722
 6127W        W10178   8.352   9.545   0.797 -0.1058  0.0693  0.1373
 6128W        W10179   7.079   0.660  11.896 -0.0762 -0.0580 -0.1521
 6129W        W10180   2.456   3.352  11.446  0.0202 -0.1448  0.2795
 6130W        W10181   8.678   4.696   0.915  0.1072 -0.0677  0.0196
 6131W        W10182   9.655   4.333   3.672  0.2875  0.0699  0.3749
 6132W        W10183   5.765   7.415  12.227  0.0921 -0.2612 -0.2942
 6133W        W10184   1.530   9.272   1.272  0.1416 -0.2011 -0.1174
 6134W        W10185   8.532   5.261  12.325 -0.0365  0.1585  0.1496
 6135W        W10186   0.793   1.355  10.307  0.2057 -0.1455 -0.1662
 6136W        W10187   5.598   9.837  11.248 -0.0118 -0.0936  0.2328
 6137W        W10188   2.285   6.399   1.141 -0.0149  0.1112  0.2013
 6138W        W10189   9.309   9.649   4.715 -0.0059  0.1414  0.2142
 6139W        W10190   8.565   1.589  12.423 -0.2624 -0.0576 -0.1226
 6140W        W10191   2.253   0.822  12.095 -0.1111  0.0056 -0.3650
 6141W        W10192   2.244   1.051   1.207 -0.0481 -0.2753 -0.1806
 6142W        W10193   0.875   6.893   2.603  0.0356  0.0095  0.0345
 6143W        W10194   1.425   9.668  12.197 -0.1229  0.3876  0.0761
 6144W        W10195  10.070   8.288   0.098  0.1540  0.1516 -0.1428
 6145W        W10196   9.000   3.422   1.986  0.1953 -0.0655  0.1240
 6146W        W10197   1.296   2.392  13.020 -0.0893 -0.0438 -0.1201
 6147W        W10198   3.544   3.840   1.111  0.1932  0.3807 -0.0444
 6148W        W10199   1.924   5.768  13.979  0.1623 -0.2035 -0.2579
 6149W        W10200   2.892   4.866  12.810  0.0997  0.3180 -0.0779
 6150W        W10201   7.993   7.602   0.668 -0.1550 -0.2901 -0.2714
 6151W        W10202   3.012   0.931   2.259  0.0476 -0.0515  0.0857
 6152W        W10203   6.471   2.248   5.080  0.1676  0.3098  0.0645
 6153W        W10204   9.598   0.625  10.061  0.0508  0.2488 -0.2254
 6154W        W10205   2.872   1.366   0.503 -0.2771 -0.3023 -0.0015
 6155W        W10206   5.953   6.864   1.640  0.2088  0.1810  0.1290
 6156W        W10207   0.567   8.576   4.266  0.2270  0.1163 -0.2439
 6157W        W10208   9.473   9.400  12.750 -0.0511 -0.2995 -0.1384
 6158W        W10209   4.130   7.783   0.857 -0.2062 -0.1013  0.1218
 6159W        W10210   6.459   9.131   3.347  0.3735  0.4785  0.0014
 6160W        W10211   8.977   3.311   5.000 -0.0934 -0.1094 -0.1452
 6161W        W10212   2.875   0.752   1.777  0.0436 -0.1392  0.0185
 6162W        W10213   8.432   3.095  10.886  0.1307  0.0238 -0.4663
 6163W        W10214   4.681  10.150   4.209 -0.1791 -0.1713  0.1895
 6164W        W10215   2.923   6.264   2.952 -0.0686  0.1126  0.2043
 6165W        W10216   2.876   4.468   1.928  0.2519 -0.0022  0.4714
 6166W        W10217   3.968   4.982   1.002 -0.0767 -0.3848  0.4123
 6167W        W10218   9.206   0.576   1.615 -0.2410 -0.0688 -0.3824
 6168W        W10219   6.066   0.669  11.060  0.2284 -0.2537 -0.0639
 6169W        W10220   7.400   7.072  10.442  0.1394 -0.3750 -0.0599
 6170W        W10221   5.626   8.571   9.376  0.2313 -0.0711 -0.0028
 6171W        W10222   9.116   1.864  10.263  0.0854  0.0582 -0.1274
 6172W        W10223   5.070   8.796  12.808 -0.3211  0.0588  0.1282
 6173W        W10224   9.165   4.737   4.725  0.0912 -0.0341  0.0432
 6174W        W10225   1.813   6.797  10.009 -0.1842  0.0573  0.0657
 6175W        W10226   6.025   4.334  10.873  0.0473 -0.0251  0.2732
 6176W        W10227   1.253   3.140  12.488  0.0555 -0.1837  0.0997
 6177W        W10228   4.653   1.272  11.112  0.1996 -0.4217 -0.0552
 6178W        W10229   7.979   6.459  10.863  0.0099 -0.0809  0.2137
 6179W        W10230   8.091   9.173   9.018  0.0140 -0.1878  0.2254
 6180W        W10231   2.092   5.774  13.348 -0.0283 -0.2598 -0.1045
 6181W        W10232   5.758   4.522   1.286  0.1634 -0.2844 -0.1703
 6182W        W10233   5.291   9.505   9.183 -0.0227 -0.1011  0.0042
 6183W        W10234   2.242   8.016   9.794  0.2405 -0.1108 -0.2250
 6184W        W10235   3.256   0.368   0.564 -0.1172  0.3090  0.0300
 6185W        W10236   5.056   0.218   4.904  0.1476 -0.1382  0.2841
 6186W        W10237   6.916   8.758   3.321 -0.3323  0.1890 -0.1930
 6187W        W10238   1.717   7.245  11.683  0.1121 -0.0271 -0.0603
 6188W        W10239   7.518   9.861  13.462  0.2292  0.0949 -0.0559
 6189W        W10240   1.590   8.119   3.820 -0.0194  0.0903 -0.1052
 6190W        W10241   0.307   6.205   9.710  0.4507 -0.0566  0.2385
 6191W        W10242   1.761   6.776   3.578 -0.1577 -0.0898 -0.2220
 6192W        W10243   9.078   8.911   4.161 -0.1485  0.0255  0.0190
 6193W        W10244   1.609   9.979   2.443  0.1263  0.1833 -0.2335
 6194W        W10245   8.139   8.911   9.945  0.1298 -0.3166 -0.1198
 6195W        W10246   1.991   7.333  12.776 -0.1679 -0.0720  0.0770
 6196W        W10247   9.665   6.251  12.027 -0.1515  0.1332  0.1858
 6197W        W10248   8.087   1.848   3.322 -0.0199 -0.1215 -0.4609
 6198W        W10249   4.273   0.640  10.750 -0.0053 -0.1990  0.1129
 6199W        W10250   3.787   0.906   9.713 -0.2055 -0.5805 -0.0263
 6200W        W10251   8.912   2.922   9.916  0.1891  0.0641  0.2033
 6201W        W10252   0.824   3.437   2.808 -0.0869 -0.0196  0.2724
 6202W        W10253   9.748   8.977  13.231  0.0929  0.0332  0.0649
 6203W        W10254   9.793   1.131   5.167  0.0392 -0.1075 -0.0715
 6204W        W10255   2.904   7.286  11.369  0.1946 -0.4010 -0.0425
 6205W        W10256   5.116   4.004  13.690  0.1217 -0.3604 -0.4049
 6206W        W10257   0.841   4.171   1.252  0.1924  0.2644  0.1446
 6207W        W10258   6.254   4.765  13.559 -0.1792  0.1858  0.3075
 6208W        W10259   6.390   0.978   3.274 -0.0976  0.1197 -0.2189
 6209W        W10260   5.248  10.097  11.917  0.1313 -0.1801  0.2766
 6210W        W10261   4.447   9.761   3.870 -0.2707 -0.0969 -0.0669
 6211W        W10262   7.225   0.146   1.671 -0.1671 -0.1675  0.0397
 6212W        W10263   9.274   9.616   2.904 -0.2562  0.1741 -0.0211
 6213W        W10264   1.425   2.469   0.981 -0.2014 -0.0646 -0.0106
 6214W        W10265   8.585   4.670  11.236  0.1227  0.1192 -0.0165
 6215W        W10266   6.552   7.408   3.656 -0.0938  0.0624 -0.0966
 6216W        W10267   2.717   0.639   2.604  0.2251  0.2909 -0.2553
 6217W        W10268   0.881   7.050   3.081  0.1483 -0.0587 -0.0551
 6218W        W10269   1.851   8.133   0.725 -0.2058 -0.1956  0.0464
 6219W        W10270   6.633   1.129  11.665 -0.0802  0.0281 -0.2252
 6220W        W10271   5.911   1.508   0.994 -0.1142 -0.0344 -0.1205
 6221W        W10272   0.920   8.564  11.184  0.0198 -0.1723 -0.0242
 6222W        W10273   3.399   0.505  13.799 -0.1222 -0.1751  0.0716
 6223W        W10274   4.177   7.559   0.342  0.3039 -0.1566  0.2661
 6224W        W10275   4.691   6.268  10.592 -0.0292  0.3426  0.1816
 6225W        W10276   6.157   2.205  10.366 -0.2045  0.0608 -0.0799
 6226W        W10277  10.041   5.314   2.501 -0.2351  0.1847 -0.2448
 6227W        W10278   6.428   7.388   2.267 -0.0505 -0.0312 -0.2820
 6228W        W10279   0.358   7.320  11.789  0.4887  0.3785  0.2055
 6229W        W10280   2.865   8.571  13.677  0.1001  0.1119  0.0850
 6230W        W10281   1.071   7.850   2.062  0.1621 -0.1047 -0.1757
 6231W        W10282   7.185   1.598  12.829  0.0341  0.3290  0.1959
 6232W        W10283   3.876   1.771   4.857  0.1741  0.0328  0.2408
 6233W        W10284  10.151   9.940   8.943  0.1451  0.0189  0.0908
 6234W        W10285   2.569   5.490  11.638 -0.0363 -0.0023 -0.0911
 6235W        W10286   3.378   6.487   1.964  0.0337 -0.0896  0.1131
 6236W        W10287   5.766   5.897   1.215  0.2815  0.1791 -0.0824
 6237W        W10288   2.680   2.773   1.089  0.2500  0.1929 -0.3637
 6238W        W10289   9.670   5.806  13.369 -0.3075  0.0688  0.2487
 6239W        W10290   3.673   5.382   2.727  0.3193 -0.1497  0.0129
 6240W        W10291   4.903   0.874  12.341 -0.0130 -0.1630 -0.2150
 6241W        W10292   9.169   6.514  10.089  0.3405 -0.0613 -0.0390
 6242W        W10293   8.907   7.548   1.167 -0.1676  0.0688  0.0132
 6243W        W10294   7.693   4.590   2.847 -0.0072  0.1119 -0.2436
 6244W        W10295   8.150   2.008   0.574  0.2675  0.0009 -0.0288
 6245W        W10296   1.004   2.984   4.719 -0.0241  0.0869  0.0819
 6246W        W10297   7.323   9.254  13.569 -0.1398 -0.1051  0.0210
 6247W        W10298   4.112   2.723   4.601 -0.1369 -0.0181 -0.1801
 6248W        W10299   0.952   3.822  12.540 -0.0630 -0.0013 -0.0380
 6249W        W10300   1.389   8.442  10.943 -0.1423 -0.1104  0.2538
 6250W        W10301   2.115   0.220  11.441  0.0230  0.1906  0.0819
 6251W        W10302   1.858   7.433  13.283 -0.1362  0.0413  0.0092
 6252W        W10303   1.158   5.381  10.480 -0.4107 -0.4236  0.2764
 6253W        W10304   8.106   2.945   3.744 -0.0643 -0.1567 -0.0588
 6254W        W10305   9.452   1.661   4.936 -0.1434 -0.0988  0.3215
 6255W        W10306   5.282   7.098  10.077 -0.0689 -0.1166  0.1798
 6256W        W10307   9.203   1.285   5.037  0.1005  0.0358  0.1772
 6257W        W10308   8.903   0.192  13.898 -0.3952  0.2738 -0.0187
 6258W        W10309   3.682   1.885   4.301 -0.0887  0.1710  0.2736
 6259W        W10310   3.051   1.809  13.313 -0.1140 -0.1589  0.3602
 6260W        W10311   6.648   4.354  12.780 -0.3639 -0.1619 -0.3208
 6261W        W10312   8.246   6.003   1.601  0.4152 -0.2951  0.1436
 6262W        W10313   5.171   6.355  13.984  0.0234  0.1077 -0.1968
 6263W        W10314   4.831   6.358  13.360 -0.0273 -0.3343  0.0107
 6264W        W10315   3.344   7.642   2.623 -0.0565 -0.0191  0.1509
 6265W        W10316   9.309   2.225   3.853 -0.0552 -0.0485  0.0668
 6266W        W10317   9.687   3.243   4.181  0.0796 -0.1170 -0.0500
 6267W        W10318   9.877   8.253   3.044 -0.2214 -0.0217  0.2022
 6268W        W10319   5.440   9.719   2.013  0.0070 -0.3089  0.3382
 6269W        W10320   5.990   9.425   9.926  0.1214  0.0089 -0.6002
 6270W        W10321   5.050   9.319  12.444  0.1829 -0.1177 -0.1432
 6271W        W10322   7.454   2.868   2.458  0.1572  0.1276 -0.0088
 6272W        W10323   9.682   9.211   1.469 -0.1051 -0.3291  0.4302
 6273W        W10324   7.301   7.686  11.219 -0.0120 -0.1460  0.3248
 6274W        W10325   9.430   0.827   4.826 -0.2150  0.1384 -0.4120
 6275W        W10326   8.728   8.504   2.737  0.0552  0.4024 -0.1509
 6276W        W10327   9.162   6.300   1.717 -0.0825 -0.1982  0.0267
 6277W        W10328   4.177   5.450   1.601  0.1124 -0.1753  0.2328
 6278W        W10329   0.286   2.401  13.665  0.2631 -0.3102  0.1665
 6279W        W10330   5.769   0.791  13.142 -0.0939 -0.0405 -0.1024
 6280W        W10331   9.556   6.291   9.626 -0.0225 -0.1081  0.0843
 6281W        W10332   3.050   8.173   2.702  0.0147  0.1480 -0.1365
 6282W        W10333   2.729   3.042  11.748 -0.1085 -0.3371  0.1474
 6283W        W10334   6.170   9.308  10.378  0.2773 -0.3042 -0.0678
 6284W        W10335   4.363   8.524   2.049 -0.0129  0.1230 -0.0921
 6285W        W10336   1.278   1.646   2.812  0.4061 -0.1080 -0.3327
 6286W        W10337   1.183   4.685   4.112  0.1263  0.2520 -0.1559
 6287W        W10338   4.091   3.313   0.413 -0.0431  0.1262 -0.1163
 6288W        W10339   6.694   0.648  12.809  0.1607 -0.1272 -0.2819
 6289W        W10340   5.449   0.422  12.989 -0.4939  0.3131 -0.2341
 6290W        W10341   0.285   0.700   9.361 -0.1599  0.0970  0.0979
 6291W        W10342   1.579   5.590   4.996 -0.0343  0.2120 -0.0976
 6292W        W10343   5.864   3.629   0.872  0.0790  0.3617 -0.2400
 6293W        W10344   7.700   1.406   3.060 -0.1289 -0.2461  0.0624
 6294W        W10345   7.926   3.681   1.955 -0.0142  0.1376 -0.4222
 6295W        W10346   6.447   5.807   2.829 -0.1528  0.1520  0.0829
 6296W        W10347   8.092   1.367  10.491 -0.0873  0.1448 -0.0079
 6297W        W10348   4.689   2.296   9.933  0.0351 -0.1607  0.0066
 6298W        W10349  10.070   3.261  13.711  0.0955 -0.0683  0.0510
 6299W        W10350   9.475   2.494  11.490  0.3020  0.0364  0.0945
 6300W        W10351   0.777   1.808   3.176  0.1007 -0.1422 -0.0373
 6301W        W10352   2.458   9.611   2.156 -0.0703  0.0899  0.2036
 6302W        W10353   5.250   3.940  10.878  0.1708  0.6389 -0.3236
 6303W        W10354   1.802   9.624   4.825 -0.1251 -0.2298  0.0621
 6304W        W10355   7.960  10.125  12.343  0.1559  0.0309  0.0766
 6305W        W10356   5.621   3.017  11.347  0.3215  0.4459  0.2138
 6306W        W10357   0.817   5.638   0.804 -0.1714  0.2257 -0.0542
 6307W        W10358   8.171   6.098   2.945 -0.0652  0.1850  0.2206
 6308W        W10359   1.586   5.623  10.819 -0.0507 -0.3947  0.1792
 6309W        W10360   4.825   6.087  12.493  0.1675 -0.3216 -0.2160
 6310W        W10361   2.788   5.348   0.475  0.0215 -0.0407  0.1832
 6311W        W10362   8.800   5.345   4.796  0.2419  0.2199  0.4472
 6312W        W10363   9.175   5.316  11.613  0.0599  0.0152  0.0642
 6313W        W10364   4.757   5.109  12.441  0.3341 -0.2600 -0.0796
 6314W        W10365   8.291   6.090   9.857 -0.0953 -0.1202  0.1439
 6315W        W10366   2.196   1.492   2.810  0.0210 -0.2266 -0.1083
 6316W        W10367   9.714   2.817   0.951  0.2669  0.0985 -0.2179
 6317W        W10368   9.286   2.812  13.165 -0.3262 -0.1332 -0.0774
 6318W        W10369   0.942   0.562   1.762 -0.0880 -0.1555 -0.0441
 6319W        W10370   0.248   2.096   1.776 -0.2719  0.0189 -0.0467
 6320W        W10371   9.569   8.571   3.506 -0.1975 -0.1751 -0.1129
 6321W        W10372   6.126   8.659  13.513 -0.1367 -0.3128 -0.0073
 6322W        W10373   5.478   2.965   4.460  0.1821  0.3170 -0.3464
 6323W        W10374   7.049   9.602  11.361 -0.2628 -0.0121 -0.0394
 6324W        W10375   4.037   4.679   0.640 -0.0325  0.0032 -0.0896
 6325W        W10376   1.964   1.038   4.062 -0.0643 -0.3630  0.2389
 6326W        W10377   6.466   9.215   0.522  0.0640  0.0607  0.0476
 6327W        W10378   9.956   6.465  11.086  0.5871  0.1573 -0.0727
 6328W        W10379   3.409   0.902   3.087  0.0540 -0.2854 -0.2323
 6329W        W10380   4.552   8.830  10.189  0.0714  0.0788  0.0053
 6330W        W10381   4.445   5.794   1.924  0.0390  0.0569  0.1773
 6331W        W10382   4.449   9.618  11.004 -0.2200  0.2345 -0.1527
 6332W        W10383   3.851   5.519   0.747 -0.3057 -0.0620  0.2015
 6333W        W10384   3.206   8.902   5.589 -0.3829  0.2192  0.3066
 6334W        W10385   0.387   9.824  11.391 -0.2689 -0.1168 -0.1031
 6335W        W10386  10.133   5.471   2.014 -0.1251 -0.2286 -0.0652
 6336W        W10387   2.100   2.465   2.730 -0.0564 -0.0526  0.1136
 6337W        W10388   0.094   4.043  12.259 -0.0713 -0.2682  0.2850
 6338W        W10389   1.510   2.022   0.801  0.3472  0.2055  0.1242
 6339W        W10390   9.260   8.176  12.614 -0.0101  0.0102  0.1140
 6340W        W10391   1.625   4.032   2.508  0.0687 -0.2712  0.0069
 6341W        W10392   2.745   4.347  10.366  0.4522 -0.4175  0.1713
 6342W        W10393   7.355   1.295   1.770 -0.2235  0.3118  0.0922
 6343W        W10394   5.981   6.209   0.853 -0.1496  0.0672  0.1801
 6344W        W10395   9.543   6.388  11.481  0.2007 -0.2071 -0.0313
 6345W        W10396   6.973   3.522   3.116 -0.0051 -0.2917 -0.0235
 6346W        W10397   2.787   9.453   1.835 -0.0882  0.1713  0.0799
 6347W        W10398   0.887   4.179  11.735  0.0778  0.0697  0.2372
 6348W        W10399   1.105   9.469   1.144 -0.1044  0.2285  0.0748
 6349W        W10400   9.730   8.811  10.437  0.1141  0.0759  0.0444
 6350W        W10401   4.034   7.323   4.344 -0.0319 -0.1829  0.1430
 6351W        W10402   0.642   0.368   0.484 -0.2121  0.2870 -0.3079
 6352W        W10403   1.895   6.573  12.749  0.3625 -0.0152 -0.6108
 6353W        W10404   1.228   0.941   0.973 -0.2943 -0.2444 -0.2364
 6354W        W10405   8.741   9.856   8.593 -0.1540 -0.0729  0.2968
 6355W        W10406   8.877   8.586   1.535 -0.2102 -0.0949 -0.1027
 6356W        W10407   9.623   5.727   0.756  0.1770 -0.3065  0.4370
 6357W        W10408   9.693   0.509   9.499  0.5068  0.1702 -0.0162
 6358W        W10409   3.323   3.781   1.632 -0.1684  0.0618  0.4395
 6359W        W10410   3.523   7.672   2.132  0.0782 -0.2687 -0.1188
 6360W        W10411   2.448   6.278   2.409 -0.1330 -0.1031 -0.2213
 6361W        W10412   0.490   9.722   2.841  0.1712  0.0307 -0.0520
 6362W        W10413   5.752   3.710  11.956  0.1840 -0.0586  0.0939
 6363W        W10414   9.980   1.845   1.808  0.1318 -0.2746  0.4523
 6364W        W10415   6.206   8.512  10.823 -0.2165 -0.2941 -0.2588
 6365W        W10416   1.459   9.649  13.231  0.0124 -0.0541 -0.0850
 6366W        W10417   8.467   6.101   3.493  0.0321  0.0374 -0.0317
 6367W        W10418   9.791   3.684  12.528 -0.1338 -0.1128  0.1499
 6368W        W10419   6.187  10.080  11.642  0.0724  0.2297  0.0890
 6369W        W10420   8.012   6.780   9.495  0.1250  0.1486  0.1687
 6370W        W10421   8.617   8.950   4.754  0.0293 -0.3626 -0.0899
 6371W        W10422   3.233   7.575  11.076  0.0642 -0.2919 -0.1043
 6372W        W10423   2.886   9.740   2.831 -0.1235 -0.0192 -0.2518
 6373W        W10424   2.714   1.696  13.670  0.5698  0.2065 -0.1076
 6374W        W10425   6.837   9.629   4.294  0.0952  0.0279 -0.0353
 6375W        W10426   9.634   5.445   4.599 -0.0344  0.0554  0.2845
 6376W        W10427   6.578   2.517   0.108 -0.1666  0.2056 -0.1951
 6377W        W10428   8.440   1.144  12.245 -0.0668 -0.5289  0.1308
 6378W        W10429   7.596   0.547   4.920 -0.2523  0.1198 -0.1870
 6379W        W10430   5.629   0.021   4.605  0.1889 -0.2240  0.2857
 6380W        W10431   2.870   2.828  10.455 -0.3187 -0.0196  0.4854
 6381W        W10432   3.825   9.981  13.440 -0.0289 -0.1307  0.2214
 6382W        W10433   3.203   9.817   9.713  0.1592  0.0863  0.0874
 6383W        W10434   8.994   0.995   4.621  0.0417  0.2284  0.1227
 6384W        W10435   3.066   0.088   9.862 -0.0734  0.2840  0.0068
 6385W        W10436   3.304   6.975  11.712  0.1085 -0.2062  0.3103
 6386W        W10437   8.540   8.036  10.027  0.1832 -0.0488 -0.3315
 6387W        W10438   8.345   9.209   9.634 -0.2771 -0.1661 -0.2583
 6388W        W10439   7.565   6.167  12.884 -0.3824 -0.2957  0.1609
 6389W        W10440  10.062   7.420  10.771  0.2140 -0.0385 -0.1982
 6390W        W10441   7.556  10.036   1.953  0.3691 -0.0569  0.0082
 6391W        W10442   5.985   8.000   4.168  0.1186 -0.1223  0.1656
 6392W        W10443   5.211   3.676   2.210  0.0776  0.0985 -0.1632
 6393W        W10444   6.118   2.500   0.027  0.3196 -0.1182  0.0597
 6394W        W10445   4.585   9.467  11.626 -0.2651 -0.0528  0.0147
 6395W        W10446   0.205   5.969   3.108  0.4645  0.0723  0.1314
 6396W        W10447   6.192   3.107  10.352  0.1111  0.1099 -0.2866
 6397W        W10448   5.439   4.541  13.522  0.0936 -0.1070  0.3301
 6398W        W10449   0.351   2.747   4.160 -0.2291  0.3367  0.1055
 6399W        W10450   1.322   3.071   3.440 -0.3230 -0.1873 -0.2468
 6400W        W10451   6.752   2.675  12.063 -0.1068 -0.2723 -0.0719
 6401W        W10452   4.766   9.218  13.976  0.1244  0.0545 -0.2848
 6402W        W10453   5.201   3.556  11.935 -0.0862 -0.1984 -0.0363
 6403W        W10454   5.179   5.003  13.678  0.2734 -0.2409  0.0072
 6404W        W10455   1.087   1.854   1.037  0.1631  0.1175 -0.3307
 6405W        W10456   4.181   1.678  11.073  0.0839  0.1818  0.2558
 6406W        W10457   8.991   6.061  10.420 -0.2662 -0.1572 -0.2343
 6407W        W10458   1.796   3.824  10.686 -0.0865 -0.4287 -0.1668
 6408W        W10459   7.039   5.308  12.816  0.1101  0.0567 -0.0086
 6409W        W10460   0.447   2.753   9.727 -0.2375  0.1796 -0.0729
 6410W        W10461   3.533   5.857   0.960  0.0298  0.2374 -0.0112
 6411W        W10462   2.024   9.130   2.944  0.2850  0.2690 -0.2476
 6412W        W10463   8.783   9.038   1.351  0.3139 -0.2016 -0.0815
 6413W        W10464   2.758   0.716  11.927  0.1753  0.0234 -0.2733
 6414W        W10465   9.214   4.071   0.235  0.1274  0.2132 -0.2705
 6415W        W10466   5.135   5.170  11.455  0.1546  0.3080  0.3189
 6416W        W10467   4.143   9.816  12.725  0.0372  0.1630 -0.1860
 6417W        W10468   4.196   9.154  12.844 -0.0683 -0.0893  0.2749
 6418W        W10469   9.733   0.105   4.165 -0.1784 -0.2074 -0.0445
 6419W        W10470   6.751   9.805   3.571 -0.2060  0.0639 -0.4121
 6420W        W10471   9.783   4.624   5.059 -0.1445 -0.2301 -0.0949
 6421W        W10472   1.507   6.059   1.330  0.1001 -0.0872  0.2544
 6422W        W10473   6.613   2.589   9.336  0.2965 -0.0248  0.1282
 6423W        W10474   5.470   6.196  12.440 -0.0261 -0.1630  0.0571
 6424W        W10475   9.730   6.870  13.477 -0.3361  0.1366  0.3478
 6425W        W10476   8.858   4.301  11.516 -0.1272 -0.1684 -0.3996
 6426W        W10477   0.675   6.803  10.588  0.4827 -0.2436  0.1693
 6427W        W10478   3.056   4.258   3.475  0.0722  0.1635 -0.2042
 6428W        W10479   5.727   0.665   3.818  0.0354  0.1203 -0.0634
 6429W        W10480   5.508   2.178  12.004 -0.1643 -0.0141 -0.0248
 6430W        W10481   2.186   6.524   0.464 -0.0879  0.0070 -0.1749
 6431W        W10482   3.099   8.024   0.315 -0.3121  0.0603  0.0840
 6432W        W10483   6.091   5.046  12.404 -0.0237  0.0443  0.0521
 6433W        W10484   6.749   9.540   3.092 -0.2061  0.0510  0.0156
 6434W        W10485   8.298   9.964  11.944  0.3764  0.0012  0.0516
 6435W        W10486   6.964   5.008   9.688  0.1013 -0.0366 -0.0602
 6436W        W10487   9.987   5.815  10.300  0.0040 -0.2631  0.1244
 6437W        W10488   5.149   9.228  10.383  0.0005 -0.2832  0.2331
 6438W        W10489   1.591   3.086  11.217 -0.0173  0.0906  0.0303
 6439W        W10490   5.358   4.333  12.454 -0.0631 -0.0411 -0.0099
 6440W        W10491   3.052   3.326  11.382 -0.0274 -0.2322  0.3932
 6441W        W10492   3.394   6.903  13.539  0.0628 -0.1496 -0.1201
 6442W        W10493   8.514   0.211   4.534 -0.1806 -0.2805  0.0060
 6443W        W10494   1.131   8.539   4.081  0.1053  0.0615 -0.1713
 6444W        W10495   9.932   2.608   8.920 -0.3388  0.1023  0.0596
 6445W        W10496   5.412   7.532  11.002  0.0385  0.2760  0.1453
 6446W        W10497   9.194   2.782  12.573 -0.1154 -0.0555 -0.1066
 6447W        W10498   2.227   6.994  11.843  0.0269 -0.2935 -0.0786
 6448W        W10499   5.333   0.072  11.415  0.1969 -0.0351  0.1042
 6449W        W10500   0.886   6.949   1.718 -0.3248 -0.1287 -0.0908
 6450W        W10501   4.863   0.534   5.236  0.1325 -0.3926 -0.1665
 6451W        W10502   5.682   8.816  13.683 -0.1650  0.1716 -0.0569
 6452W        W10503   0.549   7.392   4.415  0.2839 -0.0272 -0.2897
 6453W        W10504   5.777   4.405  10.146 -0.3054 -0.4510  0.1215
 6454W        W10505   8.562   8.435  13.837 -0.0405 -0.0486 -0.1068
 6455W        W10506   6.245   7.861   2.364 -0.0658  0.3882 -0.0324
 6456W        W10507  10.096   9.456   4.440 -0.0625 -0.0066 -0.0846
 6457W        W10508   9.668   3.886   0.064  0.1021 -0.1376  0.1770
 6458W        W10509   1.736   1.823   2.986 -0.0944  0.2596  0.0115
 6459W        W10510   1.251   5.779   3.411  0.0428 -0.0450 -0.1861
 6460W        W10511   1.396   5.271   2.075 -0.1518 -0.3656  0.0825
 6461W        W10512   3.255   9.503   8.797 -0.0452 -0.0066  0.2016
 6462W        W10513   0.308   7.481   0.338 -0.0863  0.0450 -0.2103
 6463W        W10514   0.286   2.413  13.071  0.0852 -0.1430  0.4846
 6464W        W10515   9.328   1.637  13.184  0.0395 -0.0478  0.2284
 6465W        W10516   5.373   8.123   3.485  0.0867  0.3901 -0.0122
 6466W        W10517   7.448   5.056   1.402  0.2119 -0.2195  0.1163
 6467W        W10518   8.145   2.411   5.788  0.1988 -0.1529 -0.2301
 6468W        W10519   3.603   1.535   2.464 -0.1189  0.0232 -0.0373
 6469W        W10520   9.366   0.867   9.274  0.1121  0.1156 -0.0147
 6470W        W10521   1.534   7.035   0.794  0.0982  0.0597 -0.3234
 6471W        W10522   4.252   5.113   3.718  0.1040 -0.2170  0.1399
 6472W        W10523   7.193   8.278   3.515 -0.3637  0.1752 -0.0280
 6473W        W10524   1.762   6.907   3.081  0.3108  0.0259  0.2973
 6474W        W10525   3.569   8.269  13.831  0.0331 -0.0691 -0.0458
 6475W        W10526   4.143   6.372   2.931 -0.2302  0.0944  0.0037
 6476W        W10527   7.560   2.081   1.874 -0.0589 -0.1009 -0.1565
 6477W        W10528   3.420   1.292   4.052 -0.2486  0.1253 -0.1153
 6478W        W10529   3.725   1.649  13.895  0.1253 -0.0169  0.0870
 6479W        W10530   4.886   2.269  11.170  0.0043 -0.1643  0.3714
 6480W        W10531   0.402   6.918   8.950  0.2556 -0.0036  0.2252
 6481W        W10532   9.007   2.582   9.112 -0.0637  0.1715  0.0068
 6482W        W10533   6.615   8.379  12.074  0.2944 -0.1851 -0.0151
 6483W        W10534   0.053   7.350  11.355  0.0951  0.2890  0.0930
 6484W        W10535   2.032   2.825   1.698 -0.3540 -0.0368  0.2309
 6485W        W10536   8.949   0.993   9.557 -0.0585 -0.0694  0.0981
 6486W        W10537   3.295   4.393   2.841 -0.0892 -0.2372 -0.1523
 6487W        W10538   7.201   9.764   3.365 -0.1386 -0.0921  0.1973
 6488W        W10539   3.776   2.988  11.423  0.2415  0.3916  0.1014
 6489W        W10540   4.483   2.297   9.074 -0.0902  0.0223  0.1073
 6490W        W10541   9.378   9.885  12.138  0.1655  0.0638  0.0078
 6491W        W10542   4.927   6.391  11.546  0.0712  0.0306 -0.0853
 6492W        W10543   6.262   6.882   0.473  0.3485 -0.1728 -0.0038
 6493W        W10544   2.084   8.956   3.699 -0.1648  0.2619  0.1557
 6494W        W10545  10.018   9.986   4.544  0.2306  0.0599 -0.0290
 6495W        W10546   9.975   0.983  10.120  0.0378 -0.2504 -0.1604
 6496W        W10547   3.573   6.014   2.132  0.1533  0.2564 -0.0291
 6497W        W10548   6.771  10.000   9.522  0.3770  0.2366 -0.0553
 6498W        W10549   7.537   7.868  10.822  0.0886 -0.0106 -0.4046
 6499W        W10550   8.526   5.129  10.350 -0.0624 -0.1700 -0.1197
 6500W        W10551   7.194   9.961   4.461 -0.0205  0.3203 -0.0364
 6501W        W10552   2.505   1.403  12.200  0.1225  0.0652 -0.0845
 6502W        W10553   1.825   0.073   2.846  0.2432  0.0819  0.2052
 6503W        W10554   0.735   0.910  10.073  0.2713 -0.0678  0.1483
 6504W        W10555   4.178   6.148  10.014 -0.0356 -0.0322  0.0430
 6505W        W10556   3.502   0.100   2.242 -0.0447  0.1456 -0.2726
 6506W        W10557   1.692   9.225   1.780  0.0070  0.1805  0.1017
 6507W        W10558   3.156   9.457  13.730  0.1513 -0.0311 -0.1759
 6508W        W10559  10.046   4.919  13.588 -0.1188 -0.0965  0.0408
 6509W        W10560   9.741   2.747  11.119  0.0520  0.3594 -0.1474
 6510W        W10561   2.552   4.554   4.112  0.3636  0.1290 -0.2003
 6511W        W10562   6.393   7.521  12.454  0.0134 -0.4021 -0.1568
 6512W        W10563  10.055   7.032   2.826 -0.2837 -0.1932 -0.0339
 6513W        W10564   2.612   7.048   3.603  0.2008 -0.2562 -0.1856
 6514W        W10565   0.330   9.361   9.753 -0.0132 -0.0951  0.2099
 6515W        W10566   2.864   1.187  11.949 -0.0431  0.0339  0.2346
 6516W        W10567   1.112   4.110   9.986  0.1385  0.1313  0.2585
 6517W        W10568   0.284   8.137   3.810  0.2650 -0.1533 -0.4431
 6518W        W10569   4.573   6.987   1.639 -0.0745 -0.3562  0.0088
 6519W        W10570   0.252   8.255  12.411 -0.1726  0.1263 -0.0304
 6520W        W10571   1.088   2.272   0.660 -0.0244 -0.0197 -0.1705
 6521W        W10572   3.972   7.926  10.270  0.1242 -0.0421 -0.4112
 6522W        W10573   1.258   8.983  13.671  0.2660 -0.1325  0.1528
 6523W        W10574   7.572   7.330  10.824  0.0290  0.2236  0.1248
 6524W        W10575   5.492   0.443   4.746  0.1614  0.1446 -0.1641
 6525W        W10576   1.990   5.896   1.420  0.0614 -0.3120  0.0671
 6526W        W10577   1.565   6.352  11.881  0.0826 -0.2367 -0.1735
 6527W        W10578   1.625   8.516   4.141  0.0121 -0.2411 -0.0112
 6528W        W10579   8.320   9.087   0.970  0.3572  0.0897 -0.0630
 6529W        W10580   6.142   1.106  13.376 -0.2377  0.1840 -0.1428
 6530W        W10581   4.316   7.979   2.564 -0.1073  0.1239 -0.0933
 6531W        W10582   7.883   3.755   3.833  0.2055  0.1065  0.2698
 6532W        W10583   1.056   3.026   0.275 -0.0179  0.0508  0.1888
 6533W        W10584   7.051   3.389  10.887 -0.0783  0.1944  0.0602
 6534W        W10585   7.279   5.535  10.925 -0.1163  0.3773  0.1362
 6535W        W10586   7.310   0.065   2.937 -0.1501 -0.2845 -0.2587
 6536W        W10587   0.131   6.095  12.843 -0.0166  0.2232  0.2165
 6537W        W10588   3.739   7.189  12.941  0.0902  0.1076  0.2827
 6538W        W10589   1.052   9.715   0.286 -0.3681  0.1119 -0.0308
 6539W        W10590   5.023   1.110  11.934 -0.0229  0.0338  0.0939
 6540W        W10591   6.010   3.052   9.826 -0.5674  0.0194 -0.0040
 6541W        W10592   8.914   3.799   0.515 -0.0560 -0.0312  0.3110
 6542W        W10593   1.993   2.526  11.671  0.2262  0.2154  0.0368
 6543W        W10594   2.878   2.422   3.396 -0.0857 -0.0862 -0.3453
 6544W        W10595   2.928   4.258   4.415  0.1478  0.2131  0.0383
 6545W        W10596   1.193   3.531   0.137  0.0783 -0.3588 -0.3226
 6546W        W10597   3.795   9.519  10.393 -0.0210 -0.0893  0.0511
 6547W        W10598   2.060   5.562   0.858 -0.0616 -0.0429  0.1331
 6548W        W10599   7.446   5.771   0.768  0.1431  0.0496 -0.2525
 6549W        W10600   4.677   9.298   0.423  0.0780 -0.1691  0.0633
 6550W        W10601   9.129   7.830   2.688  0.1822 -0.4674 -0.2558
 6551W        W10602   0.717   0.748  12.106 -0.0975  0.1265  0.4307
 6552W        W10603   0.788   6.431   1.664  0.2355 -0.0061  0.0108
 6553W        W10604   5.268   7.762   3.059  0.1620  0.1322  0.3161
 6554W        W10605   5.247   8.294  11.723 -0.4782 -0.1740 -0.1274
 6555W        W10606   1.505   1.363  11.453 -0.3012 -0.1020 -0.0948
 6556W        W10607   0.504   1.093   1.944 -0.2293  0.2654  0.0307
 6557W        W10608   1.112   6.571   0.693  0.0600 -0.1086  0.0223
 6558W        W10609   8.983   0.257  13.382 -0.2090 -0.1412  0.1811
 6559W        W10610   6.772   6.593   3.211  0.0531  0.2735  0.2201
 6560W        W10611   1.014   0.455   4.612 -0.2882 -0.0943 -0.0900
 6561W        W10612   2.382   1.423  11.282  0.0254 -0.3166 -0.2217
 6562W        W10613   3.572   4.562  12.380  0.2912 -0.1762  0.2177
 6563W        W10614   7.408   8.365   2.929  0.1554  0.0966 -0.4534
 6564W        W10615   6.248   4.217  13.120  0.0603  0.1867  0.1733
 6565W        W10616   8.072   0.615   0.049  0.3042  0.0240  0.1383
 6566W        W10617   4.271   4.298   9.665  0.0855  0.2100 -0.0473
 6567W        W10618   3.020   0.600   0.056 -0.0213  0.0996  0.0456
 6568W        W10619   9.768   8.057   9.197 -0.1311  0.0385  0.0729
 6569W        W10620   6.166   6.592   2.503  0.0752 -0.3632 -0.0567
 6570W        W10621   2.648   6.438  12.391 -0.3653 -0.0162 -0.0325
 6571W        W10622   4.345   1.836  12.776 -0.1314  0.0806 -0.1019
 6572W        W10623   2.429   6.892   2.339 -0.0285  0.0702  0.0181
 6573W        W10624   4.994   4.128   3.770  0.2243 -0.0801  0.3462
 6574W        W10625   3.551   3.167   3.398  0.0182  0.2612 -0.2202
 6575W        W10626   3.511   1.171  13.965  0.2476  0.0314 -0.0013
 6576W        W10627   0.262   9.170  12.431  0.0021 -0.0792  0.1064
 6577W        W10628   5.642   1.645   4.927 -0.0536  0.1563  0.0393
 6578W        W10629   2.617   3.358  12.742 -0.0138  0.0020  0.0308
 6579W        W10630   7.835   7.296   2.354 -0.0313 -0.0237  0.3276
 6580W        W10631   2.651   6.252  13.946 -0.0069 -0.1832 -0.0183
 6581W        W10632   4.216   9.611   1.181 -0.1393  0.2766 -0.1635
 6582W        W10633   9.674   8.698   3.011  0.2366  0.1024 -0.0122
 6583W        W10634   7.037   7.724   4.662 -0.0164 -0.0023 -0.3165
 6584W        W10635  10.155   6.085   0.282  0.2658  0.1989 -0.2033
 6585W        W10636   6.888   8.328   4.034 -0.0302 -0.0843 -0.0021
 6586W        W10637   0.009   9.901   4.074 -0.2052 -0.2125 -0.1390
 6587W        W10638   4.201   9.884  11.641 -0.0606  0.0886 -0.2777
 6588W        W10639   8.804   9.378   3.907 -0.0855  0.0420  0.1785
 6589W        W10640   4.144   9.244   0.377 -0.0803  0.1212  0.1429
 6590W        W10641   8.078   1.991   4.623 -0.2182  0.0617  0.0445
 6591W        W10642   8.166   3.365   9.693  0.0322  0.0583  0.0363
 6592W        W10643   2.383   7.410  12.124  0.1785 -0.2302  0.0669
 6593W        W10644   1.220   6.991   3.776  0.0517  0.1175 -0.1582
 6594W        W10645   7.932   4.706   3.618 -0.4178  0.1172 -0.3409
 6595W        W10646   8.543   5.662   1.824  0.4226 -0.0918  0.1741
 6596W        W10647   0.122   8.382  10.639  0.2316  0.2672 -0.0035
 6597W        W10648   1.522   8.748  10.569 -0.0519 -0.0549 -0.0605
 6598W        W10649   5.702   0.130  11.790  0.0809  0.2054 -0.0341
 6599W        W10650   6.383   8.541   1.139 -0.1638 -0.0640 -0.0726
 6600W        W10651   8.022   3.109  11.279 -0.0138 -0.1525  0.0366
 6601W        W10652   0.223   7.667   0.953  0.1796 -0.0517 -0.2160
 6602W        W10653   7.422   8.134  10.361  0.1647 -0.2294 -0.2092
 6603W        W10654   7.205   7.631   1.793 -0.1222  0.3533 -0.0067
 6604W        W10655   9.409   0.248   3.194  0.0159 -0.1655  0.0162
 6605W        W10656   0.354   0.261  11.368 -0.5852  0.1842 -0.0373
 6606W        W10657   6.508   6.352   4.091 -0.2455 -0.3094 -0.1429
 6607W        W10658   3.388   5.083  12.715  0.0611  0.2103 -0.2480
 6608W        W10659   4.106   4.066  11.003 -0.2758  0.0196 -0.0284
 6609W        W10660   3.420   4.686   1.102  0.1875  0.0082  0.1420
 6610W        W10661   3.825   8.187   0.813  0.1296 -0.0044  0.0087
 6611W        W10662   7.021   9.791   9.107 -0.1122  0.1429 -0.0133
 6612W        W10663   7.859   9.988   4.052  0.3391  0.2451 -0.2023
 6613W        W10664   5.213   8.788  13.312 -0.0764  0.2158 -0.0135
 6614W        W10665   6.288   9.169   9.588 -0.0714  0.2239 -0.3723
 6615W        W10666   4.016   3.217  11.785 -0.1339  0.1262  0.1357
 6616W        W10667   8.221   0.829  10.620 -0.0090  0.2081 -0.0051
 6617W        W10668   3.485   6.974  12.542  0.2171 -0.1792 -0.0673
 6618W        W10669   8.052   1.184   2.232  0.0309  0.2066 -0.1016
 6619W        W10670   0.841   9.262   0.029 -0.1829  0.1351  0.0234
 6620W        W10671   8.381   1.250  10.939  0.2242  0.0251 -0.5932
 6621W        W10672   2.305   3.051   1.335  0.0579 -0.1587 -0.0672
 6622W        W10673   2.369   8.844   3.280  0.1375 -0.0212  0.0279
 6623W        W10674   0.344   3.056   4.546 -0.0441  0.3572  0.1287
 6624W        W10675   2.556   7.001  10.625 -0.0149 -0.4204 -0.1654
 6625W        W10676   9.748   0.586   3.965  0.2486  0.0207  0.0945
 6626W        W10677   4.000   9.756   0.162 -0.1879 -0.3011  0.0542
 6627W        W10678   3.186   3.878  13.561 -0.0102 -0.1024 -0.0073
 6628W        W10679   6.114   9.450   4.085 -0.3298  0.4290 -0.0247
 6629W        W10680   8.964   5.413  12.130 -0.0856 -0.1414 -0.0459
 6630W        W10681   9.825   9.406   2.298  0.0251  0.2415 -0.1486
 6631W        W10682   7.254   2.363  11.309  0.1498  0.0573  0.1268
 6632W        W10683   2.991   8.150  12.991  0.3537 -0.1758  0.0589
 6633W        W10684   1.233   5.868  13.372 -0.0286  0.3438 -0.0371
 6634W        W10685   3.063   6.950   0.463  0.2985  0.2126 -0.0960
 6635W        W10686   7.471   6.039   9.726 -0.2379 -0.0707 -0.0236
 6636W        W10687   3.261   3.060  12.544 -0.0676  0.3012 -0.0744
 6637W        W10688   6.186   6.594   2.028 -0.0833  0.0989  0.1858
 6638W        W10689   4.604   1.656   0.365  0.1179  0.1662  0.2982
 6639W        W10690   0.533   6.046   4.963 -0.1649 -0.1751 -0.1572
 6640W        W10691   7.364   5.877   3.080  0.1388  0.2133  0.3150
 6641W        W10692   2.949   2.743   2.845  0.0260 -0.0148 -0.2159
 6642W        W10693   7.860   5.266  10.864  0.0617 -0.2895  0.0680
 6643W        W10694   5.760   7.967   0.682  0.1121  0.2275 -0.0332
 6644W        W10695   5.920   2.412  12.418 -0.1289  0.0720  0.1676
 6645W        W10696   9.811   3.470   9.059 -0.0105 -0.0462 -0.2834
 6646W        W10697   7.263   5.054  11.803 -0.1926  0.0387 -0.1973
 6647W        W10698   1.183   4.413  10.374 -0.0928  0.0076 -0.0413
 6648W        W10699   6.493   6.810   1.663 -0.4353 -0.1346  0.0991
 6649W        W10700   6.234   9.169   2.323 -0.2008 -0.2390 -0.0447
 6650W        W10701   6.799   3.607   0.908 -0.0944  0.1107 -0.0806
 6651W        W10702   0.612   9.565   3.303 -0.2199 -0.1703  0.0762
 6652W        W10703   4.530   4.916   0.787 -0.2221  0.0169  0.2002
 6653W        W10704   8.742   3.045  12.397 -0.0410  0.0690  0.0160
 6654W        W10705   0.940   8.179   1.682  0.0021 -0.0209  0.1390
 6655W        W10706   4.979   2.632  12.507 -0.2778 -0.1441 -0.0155
 6656W        W10707   1.463   7.693  11.301  0.2321 -0.0097 -0.0573
 6657W        W10708   3.498   1.515  10.309 -0.3016  0.1805 -0.0214
 6658W        W10709   0.007   9.702   0.454 -0.0626 -0.1386 -0.1474
 6659W        W10710   1.798  10.088   3.940 -0.1401 -0.0793 -0.1257
 6660W        W10711   8.041   9.092  11.898 -0.1817 -0.0416  0.0921
 6661W        W10712   3.215   3.276  13.596 -0.0430  0.1296  0.1840
 6662W        W10713   9.977   2.215   2.627  0.1296  0.0740  0.2906
 6663W        W10714   3.196   0.975  13.610  0.0084  0.1612  0.0484
 6664W        W10715   5.739   2.836   4.040 -0.0230 -0.1742  0.2141
 6665W        W10716   2.160   9.862  12.868 -0.2008 -0.1667 -0.0713
 6666W        W10717   4.632   3.871   3.003  0.1340  0.0215 -0.0620
 6667W        W10718   2.192   3.656   1.969  0.2395  0.1222 -0.1097
 6668W        W10719   1.814   7.672   9.905 -0.5068  0.2346  0.3264
 6669W        W10720   5.377   2.311  12.540  0.1791 -0.2020 -0.4321
 6670W        W10721   1.522   1.147   1.913 -0.1278  0.2079 -0.0858
 6671W        W10722   7.778   2.896   2.972 -0.0289 -0.2473  0.0735
 6672W        W10723   4.951   0.640  13.166 -0.0141 -0.1964  0.3309
 6673W        W10724   9.284   0.751   3.594 -0.3558  0.1807  0.0665
 6674W        W10725   0.152   9.261   3.163  0.0534 -0.3291 -0.0351
 6675W        W10726   3.322   9.843   3.180 -0.2579  0.3114 -0.2259
 6676W        W10727   5.090   0.755   4.716  0.0267  0.0463 -0.1889
 6677W        W10728   3.701   9.379  11.531  0.0046  0.0770  0.1677
 6678W        W10729   1.430   1.121   8.539 -0.1057  0.0915 -0.0023
 6679W        W10730   7.510   6.249   1.041 -0.0119 -0.1814  0.1418
 6680W        W10731   1.431   2.963   0.971  0.2045 -0.0195 -0.1395
 6681W        W10732   1.808   9.541  11.347  0.3454  0.0136  0.0222
 6682W        W10733   5.126   3.483  10.666  0.0851  0.4280 -0.1681
 6683W        W10734   2.676   1.183   1.998 -0.4710  0.0433  0.0456
 6684W        W10735   9.801   0.219   1.146  0.0621  0.1536 -0.3202
 6685W        W10736   3.993   7.308   3.443 -0.0196 -0.1377  0.0896
 6686W        W10737   4.027   0.474  12.180  0.1693 -0.4556 -0.0882
 6687W        W10738   7.420   7.662  13.519 -0.1248  0.0762 -0.0850
 6688W        W10739   3.428   7.784   0.052 -0.4070  0.0526 -0.1941
 6689W        W10740   7.602   1.558  11.540  0.1248 -0.0438  0.2989
 6690W        W10741   9.017   0.868   1.958 -0.0669  0.2927 -0.4701
 6691W        W10742   9.126   5.572   0.601  0.0970 -0.1803 -0.1261
 6692W        W10743   4.760   1.743   1.895 -0.1285 -0.3364 -0.0907
 6693W        W10744   3.521   4.734   2.024  0.0169  0.0554 -0.1094
 6694W        W10745   5.635   1.401  13.247  0.0750  0.1054  0.1196
 6695W        W10746   8.826   4.361  12.901 -0.2664  0.0855 -0.1629
 6696W        W10747   4.199   4.117   1.839 -0.2000  0.0267  0.2399
 6697W        W10748   6.037   5.823  11.982 -0.0405  0.0412  0.2679
 6698W        W10749   0.666   0.973   0.776  0.2126 -0.2529  0.0818
 6699W        W10750   7.831   7.826  11.259 -0.0015  0.2314 -0.1744
 6700W        W10751   0.043   7.486   4.561  0.0029 -0.4320  0.1011
 6701W        W10752   5.871   6.801  14.022  0.4417 -0.0731  0.0607
 6702W        W10753   7.177   6.433  12.044  0.1318  0.0585 -0.0050
 6703W        W10754   8.805   1.247  10.029 -0.1240  0.2826 -0.0061
 6704W        W10755   8.950   1.241  11.497  0.0756  0.1378 -0.2375
 6705W        W10756   5.728   7.045   2.785 -0.2408 -0.2492  0.0755
 6706W        W10757   7.714   5.168  10.175 -0.2431  0.0539 -0.2335
 6707W        W10758  10.036   8.564  10.178  0.1443  0.1776  0.2212
 6708W        W10759   4.441   1.846   2.739 -0.0600 -0.0561 -0.2708
 6709W        W10760   3.243   6.312   3.597 -0.0481 -0.2123  0.1651
 6710W        W10761   0.207   2.561   3.685  0.1020 -0.1945 -0.1859
 6711W        W10762   8.500   9.389   3.497  0.1713  0.0343  0.1097
 6712W        W10763   1.476   2.720  12.651 -0.0939  0.2129  0.0657
 6713W        W10764   7.667   3.734   0.852 -0.0244  0.2227  0.3164
 6714W        W10765   3.264   9.859   3.845 -0.0195  0.1819 -0.1488
 6715W        W10766  10.030   4.328   4.185 -0.0654  0.0263 -0.0092
 6716W        W10767   0.832   7.137  12.742 -0.1304 -0.1138 -0.3077
 6717W        W10768   3.737   0.419   4.880  0.0836  0.1429 -0.1505
 6718W        W10769   9.218   3.933  13.377 -0.1666  0.1424 -0.2810
 6719W        W10770   1.889   0.832   2.109  0.0676 -0.0328 -0.0387
 6720W        W10771   6.038   7.868  12.377  0.2354 -0.2239 -0.4448
 6721W        W10772   1.251   4.835   0.751  0.2072  0.2719 -0.0677
 6722W        W10773   8.573   3.619  11.730  0.0255 -0.1238  0.0908
 6723W        W10774   5.327   6.859   2.723 -0.2468  0.0640  0.0913
 6724W        W10775   3.672   6.522  12.801 -0.2785  0.0503  0.3816
 6725W        W10776   9.368   3.999   4.549 -0.2950  0.0269  0.0584
 6726W        W10777   8.458   6.974  10.273 -0.0414 -0.2090 -0.0522
 6727W        W10778   5.569   4.269  11.917 -0.1891  0.1658  0.0080
 6728W        W10779   1.839   3.008  10.213 -0.0065  0.1800  0.0904
 6729W        W10780   9.451   3.589   2.206  0.0373  0.0379  0.1270
 6730W        W10781   8.490   8.151  13.027  0.0904  0.2096 -0.1143
 6731W        W10782   6.757   5.787   1.472  0.0129  0.3571 -0.2109
 6732W        W10783   9.959   8.457  12.299  0.0693  0.0671  0.2042
 6733W        W10784   1.359   9.706   2.002  0.1685  0.3131 -0.0186
 6734W        W10785   7.140   7.040  12.930 -0.2465  0.2076 -0.1996
 6735W        W10786   4.757   2.590   3.671  0.1363 -0.1555 -0.0157
 6736W        W10787   7.572   6.700   1.196 -0.1164 -0.1194 -0.1610
 6737W        W10788   2.526   9.065  12.196 -0.2255  0.0754  0.0145
 6738W        W10789   1.184   7.912  10.940  0.0146 -0.0286 -0.0706
 6739W        W10790   3.513   5.158   2.300 -0.2869  0.0185 -0.2310
 6740W        W10791   9.511   6.685  11.884  0.2462  0.2197 -0.3868
 6741W        W10792   9.074   8.616  13.906 -0.2623 -0.0377 -0.0775
 6742W        W10793   7.475   7.178   2.033 -0.0792 -0.2188  0.0083
 6743W        W10794   7.644   2.175   4.764 -0.2925 -0.3286  0.1243
 6744W        W10795   0.651   3.754   3.906  0.2274  0.0266 -0.1185
 6745W        W10796   1.142  10.010  13.534 -0.1650  0.1028  0.1055
 6746W        W10797   5.180   9.666   1.390  0.2759 -0.1552 -0.0576
 6747W        W10798   0.761   4.373  12.535 -0.4724  0.1063 -0.1573
 6748W        W10799   0.196   7.574   1.920  0.2356 -0.0043  0.3121
 6749W        W10800   4.687   0.334  10.800 -0.0646 -0.1250  0.1980
 6750W        W10801   4.613   5.537  12.207  0.0927 -0.1188  0.0484
 6751W        W10802   6.831   0.952   4.010  0.2547 -0.0001  0.1116
 6752W        W10803   6.733   2.107  11.862 -0.2415  0.0982 -0.1387
 6753W        W10804   2.948   5.766   1.091  0.1227 -0.2228 -0.2474
 6754W        W10805   9.296   3.500   1.436  0.4570  0.0646  0.0292
 6755W        W10806   6.044   1.214  11.246  0.1854  0.2556  0.1220
 6756W        W10807   1.687   4.909  13.914  0.1687 -0.1232  0.2336
 6757W        W10808   4.134   2.744  12.175 -0.0267 -0.0435  0.0860
 6758W        W10809   8.410   9.158  10.725  0.2380  0.2214 -0.0524
 6759W        W10810   3.093   7.151   3.450  0.1100 -0.1768  0.1800
 6760W        W10811   8.530   4.935   0.177  0.0614 -0.0903 -0.0834
 6761W        W10812   7.021   4.393  12.441  0.2135 -0.2014  0.0440
 6762W        W10813   4.469   4.869   2.453 -0.0598  0.1733  0.0150
 6763W        W10814   8.211   6.827  11.316  0.2545  0.2147  0.1446
 6764W        W10815   9.313   9.068  10.455  0.1358  0.1385 -0.1291
 6765W        W10816  10.032   4.495  12.100  0.0687  0.1727  0.0462
 6766W        W10817   5.677   1.520  10.947  0.1216 -0.1827  0.1041
 6767W        W10818   0.226   4.842  11.945  0.1592 -0.2266 -0.3360
 6768W        W10819   2.220   3.595   0.955 -0.0044  0.3060  0.2451
 6769W        W10820   9.719   5.117  11.063  0.0232  0.0294  0.1337
 6770W        W10821   4.883   5.555  12.661 -0.1162  0.0891  0.3592
 6771W        W10822   0.897   0.204  11.563  0.1557 -0.0079  0.0108
 6772W        W10823   1.042   7.378   3.445 -0.1129  0.1714  0.0043
 6773W        W10824   0.867   3.832  13.254  0.1450  0.4608  0.1577
 6774W        W10825   0.012   2.170   4.739 -0.0929 -0.0683 -0.2259
 6775W        W10826   6.515   0.289   2.231 -0.1193 -0.1604  0.1005
 6776W        W10827   7.261   9.792   2.358 -0.1403  0.0060 -0.0338
 6777W        W10828   3.178   6.418  10.271 -0.0113  0.1037  0.2228
 6778W        W10829   9.876   8.317   0.539  0.0801 -0.2578 -0.0905
 6779W        W10830   1.514   0.700   3.976 -0.1498 -0.1222  0.2708
 6780W        W10831   1.679   4.290   1.402  0.3452  0.0264  0.4330
 6781W        W10832   0.236   7.161   3.826  0.3369  0.0213  0.0544
 6782W        W10833   7.033   8.306  11.915 -0.1404  0.4507 -0.2032
 6783W        W10834   0.262   3.493   9.909 -0.0542  0.1501 -0.1417
 6784W        W10835   7.861   9.253   9.493  0.1834 -0.1196 -0.2786
 6785W        W10836   4.531   9.607   2.328  0.0568  0.0737  0.0040
 6786W        W10837   5.126   0.084  10.869 -0.0096  0.0392 -0.0312
 6787W        W10838   7.687   2.354   1.256 -0.1530 -0.2752 -0.0995
 6788W        W10839   1.381   0.268   3.736  0.1492  0.0810 -0.1650
 6789W        W10840   0.442   0.601  11.753  0.2201  0.0478  0.0384
 6790W        W10841   3.026   4.389   3.966 -0.4797  0.1495 -0.0370
 6791W        W10842   5.175   6.452   3.298 -0.0264  0.1943 -0.3929
 6792W        W10843   2.360   0.659   3.920 -0.0404 -0.0057 -0.0678
 6793W        W10844   2.329  10.041  12.084  0.3480 -0.0535  0.3857
 6794W        W10845   0.239   9.673   3.683  0.0562  0.2852 -0.1940
 6795W        W10846   9.513   3.743   9.992 -0.1980  0.3604 -0.4688
 6796W        W10847   1.677   6.021  11.544 -0.0882  0.0506 -0.0137
 6797W        W10848   4.685   5.167   2.749 -0.0232  0.0560 -0.0792
 6798W        W10849   8.967   5.898   1.436  0.0183  0.2766  0.1175
 6799W        W10850   2.761   5.783   0.103 -0.1049  0.1315 -0.0723
 6800W        W10851   9.068   0.144   1.859 -0.1016 -0.2583  0.1980
 6801W        W10852   2.100   3.448  11.983 -0.0066  0.0613  0.2932
 6802W        W10853   4.611   3.634   2.531 -0.0995 -0.1833 -0.0962
 6803W        W10854   6.732   9.024   2.919 -0.1056  0.0085 -0.0669
 6804W        W10855   9.543   0.519  11.601 -0.1759  0.0474  0.3015
 6805W        W10856   9.774   1.803  12.560  0.0397  0.0043  0.0173
 6806W        W10857   1.303   3.050  10.222 -0.2770  0.2325  0.1353
 6807W        W10858   1.283   6.631  11.007  0.0069 -0.0353  0.0671
 6808W        W10859   9.581   6.863  11.332 -0.0525  0.0088  0.1959
 6809W        W10860   1.681   3.611   2.231  0.3086  0.1240  0.2825
 6810W        W10861   1.541   3.732   9.974  0.0781 -0.0586  0.0760
 6811W        W10862   3.544   7.796  10.648 -0.1708  0.0643  0.1662
 6812W        W10863   9.199   2.454   4.346 -0.3012  0.4953  0.1751
 6813W        W10864   0.074   4.649  11.046  0.1139 -0.0324  0.0724
 6814W        W10865   7.959   1.107   0.357  0.1462 -0.2264 -0.0389
 6815W        W10866   0.387   7.259  13.443 -0.0212 -0.0491  0.1877
 6816W        W10867   9.100   3.083   4.227 -0.0679 -0.2982 -0.0009
 6817W        W10868   3.734   2.809  11.891  0.1025 -0.0491  0.0274
 6818W        W10869   3.969   2.170   0.594 -0.2973 -0.0676  0.0123
 6819W        W10870   2.271   9.446   8.805 -0.1114 -0.1579 -0.0819
 6820W        W10871   1.363   7.111   5.274  0.1365  0.1634  0.0063
 6821W        W10872   4.069   4.742   2.171  0.0524  0.0863  0.1359
 6822W        W10873   2.318   1.548   0.344  0.0105 -0.0001  0.1969
 6823W        W10874   4.789   0.273  11.291  0.2247  0.2393  0.3320
 6824W        W10875   6.703   2.226   1.845  0.0367 -0.2281 -0.0029
 6825W        W10876   9.313   5.990   2.216  0.2322  0.1379 -0.0602
 6826W        W10877   4.611   6.827  13.333 -0.2427  0.3792  0.4038
 6827W        W10878   7.842   5.770  11.530 -0.0523  0.1750  0.1565
 6828W        W10879   3.303   5.505   1.503  0.0599  0.1797  0.1176
 6829W        W10880   2.642   6.640   0.749  0.0345  0.4107  0.0995
 6830W        W10881   3.651   5.016  12.222 -0.0033 -0.1732 -0.3669
 6831W        W10882   4.186   5.017   3.173  0.0200 -0.2174  0.2608
 6832W        W10883   0.053   7.434   9.634 -0.1273  0.0224  0.1564
 6833W        W10884   1.482   3.581  13.291  0.0479 -0.0739  0.1140
 6834W        W10885   9.537   0.570  12.652 -0.0523  0.2357  0.0407
 6835W        W10886   0.434   6.959  13.067  0.0254 -0.0239 -0.0063
 6836W        W10887   1.272   3.854  10.402 -0.2338 -0.3582  0.1127
 6837W        W10888   0.077   1.328   0.245  0.2737 -0.2589  0.0043
 6838W        W10889   8.348   0.239   9.953  0.1009  0.1854 -0.0580
 6839W        W10890   2.953   7.684  13.342 -0.0594 -0.3053  0.2520
 6840W        W10891   0.342   2.256   2.648  0.0388 -0.4303 -0.0513
 6841W        W10892   9.973   9.614  10.446  0.3145 -0.0967 -0.0740
 6842W        W10893   7.137   1.461   2.163  0.1554  0.1853 -0.0385
 6843W        W10894  10.137   3.550   1.594  0.1353 -0.4116  0.0547
 6844W        W10895   2.004   4.025   9.863 -0.2034  0.3142  0.0430
 6845W        W10896   9.648   9.715   1.282  0.0226 -0.1520  0.0829
 6846W        W10897   8.028   9.754   3.256  0.1885 -0.3043  0.0460
 6847W        W10898   1.995   9.058   0.457  0.0974 -0.0599 -0.4006
 6848W        W10899   2.256   7.476   5.643 -0.0858  0.0998 -0.1884
 6849W        W10900   4.839   3.105   2.649  0.3363  0.0529  0.2959
 6850W        W10901   7.803   0.864   3.708 -0.1883  0.0531 -0.1697
 6851W        W10902   8.994   3.531   0.959 -0.4807 -0.4406  0.0943
 6852W        W10903   2.250   2.505  10.590  0.3475  0.0731 -0.1971
 6853W        W10904   3.645   7.964   3.892 -0.3059  0.1879 -0.0369
 6854W        W10905   9.102   5.113  11.111  0.2096  0.0942 -0.1892
 6855W        W10906   1.436   9.789   2.900  0.3172 -0.4188  0.1292
 6856W        W10907   0.830   9.169   9.743  0.3668 -0.0560 -0.1710
 6857W        W10908   4.536   3.294   1.570  0.0331  0.1485  0.1681
 6858W        W10909   0.951   5.051   3.839 -0.2329 -0.0394  0.5370
 6859W        W10910   7.676   2.458  12.544  0.2845 -0.0523 -0.2318
 6860W        W10911   8.306   2.006   5.520  0.2443  0.1367  0.0623
 6861W        W10912   9.352   2.315   5.276  0.1137 -0.2057 -0.1556
 6862W        W10913   1.351   6.176  12.368  0.0467 -0.2426 -0.0739
 6863W        W10914   9.333   8.575  13.038 -0.0443 -0.3536 -0.1988
 6864W        W10915   5.135   3.250   3.546 -0.2334  0.3388  0.4017
 6865W        W10916   7.055   0.611  13.628  0.2575  0.0123  0.0165
 6866W        W10917   1.764   2.338  12.471 -0.1050 -0.1305 -0.0322
 6867W        W10918   5.967   6.512   0.357 -0.1437  0.0543  0.2655
 6868W        W10919   8.572   9.968   0.633  0.0723 -0.0381 -0.1583
 6869W        W10920   0.733   9.728  13.926 -0.2157 -0.1329  0.1883
 6870W        W10921   3.003   9.061   3.417 -0.0711 -0.0603 -0.1954
 6871W        W10922   2.965   3.166  10.833  0.1154 -0.1845  0.1703
 6872W        W10923   4.929   8.290  13.971 -0.0723 -0.0969  0.1428
 6873W        W10924   2.725   8.337  12.630 -0.0376  0.1195 -0.0912
 6874W        W10925   3.591   6.411   3.026 -0.2050  0.4071  0.4287
 6875W        W10926   4.917   8.857  10.692  0.0123 -0.0255  0.0252
 6876W        W10927   3.400   0.325   5.199 -0.0783 -0.1146 -0.0365
 6877W        W10928   1.775   5.378   1.250 -0.1812  0.0302  0.1775
 6878W        W10929   8.860   6.265   9.727  0.2973 -0.5286 -0.0389
 6879W        W10930   0.766   0.922   4.371  0.1080  0.0369 -0.0361
 6880W        W10931   8.228   2.565   4.120 -0.2323  0.1874  0.1860
 6881W        W10932   1.103   5.424   9.983 -0.0819  0.1589  0.0866
 6882W        W10933   3.869   8.060  11.246 -0.0709 -0.2111  0.3934
 6883W        W10934   2.709   2.849  12.780  0.0670 -0.0859 -0.0358
 6884W        W10935   9.467   7.001   2.557  0.0086  0.1327  0.0510
 6885W        W10936   8.675   1.724   2.545 -0.2537  0.0275 -0.2662
 6886W        W10937   1.083   9.200  13.188 -0.0688 -0.0185 -0.1453
 6887W        W10938   5.830  10.039   2.071 -0.1075 -0.1022 -0.2701
 6888W        W10939   4.171  10.033   5.181  0.2255  0.0868 -0.2162
 6889W        W10940   5.101   9.904  10.413 -0.2200  0.3226 -0.0987
 6890W        W10941   2.802   3.855  13.285  0.1164 -0.3496  0.0152
 6891W        W10942   1.707   3.676   0.316 -0.0805 -0.0915  0.0358
 6892W        W10943   2.122   2.251   1.768  0.0218  0.2925  0.0491
 6893W        W10944   2.275   5.208  13.291 -0.2910  0.2457 -0.0512
 6894W        W10945   3.340   8.724   1.998 -0.0708  0.2118  0.0890
 6895W        W10946   9.235   9.474  10.028 -0.0091 -0.1120 -0.2536
 6896W        W10947   0.384   2.241  11.109 -0.0909 -0.0836  0.1123
 6897W        W10948   9.129   9.527   4.227  0.1401 -0.2089  0.2203
 6898W        W10949   6.136   9.801  13.896 -0.1606  0.2434  0.0950
 6899W        W10950   1.064   3.488  12.942 -0.1944 -0.2307  0.5053
 6900W        W10951   9.405   9.964   5.105  0.1636  0.3166  0.0902
 6901W        W10952   1.362   8.206  11.340 -0.0544 -0.0322  0.1826
 6902W        W10953   6.846   9.972   2.118  0.0674  0.2330 -0.2732
 6903W        W10954   6.934   4.826   4.035 -0.2099 -0.3959  0.1937
 6904W        W10955   0.318   8.160   5.113  0.0387 -0.1135 -0.3015
 6905W        W10956   8.585   9.883   3.754 -0.0988  0.2596  0.3483
 6906W        W10957   5.411   9.229  11.984  0.2728  0.0186  0.0671
 6907W        W10958   4.720   3.040  12.627  0.1405 -0.4999 -0.2078
 6908W        W10959   8.115   6.209   0.224 -0.1532 -0.1052 -0.2711
 6909W        W10960   1.210   4.309   3.474 -0.1728 -0.1642  0.2935
 6910W        W10961   7.808   7.577   4.101  0.5364  0.2687 -0.3276
 6911W        W10962   8.778   1.043  13.448 -0.1912  0.1458  0.2311
 6912W        W10963   4.848   9.719   9.549  0.2839  0.0141  0.0248
 6913W        W10964   0.674   8.045   9.965  0.0531  0.0732  0.0059
 6914W        W10965   6.372   9.190  12.467  0.1929 -0.2709  0.2139
 6915W        W10966   3.306   7.368  13.251  0.1489 -0.1209 -0.0348
 6916W        W10967   6.147   8.939  13.910  0.3951  0.0781  0.0793
 6917W        W10968   5.812   9.406  12.905 -0.3148 -0.1313  0.1830
 6918W        W10969   7.861   3.855  10.526 -0.0259 -0.0369  0.2173
 6919W        W10970   1.299   0.160  12.493  0.1596 -0.0164  0.0294
 6920W        W10971   1.755   6.389  12.336 -0.2356  0.1945 -0.0771
 6921W        W10972   3.065   3.566   9.924  0.1552 -0.0367 -0.0749
 6922W        W10973   8.877   0.955   0.170  0.0916  0.4208 -0.0557
 6923W        W10974   2.815   7.404  12.407  0.1407 -0.0876  0.1546
 6924W        W10975   3.341   6.490  11.882  0.1011 -0.1487 -0.0162
 6925W        W10976   8.482   2.003   4.922 -0.0071 -0.3918  0.0364
 6926W        W10977   1.515  10.145   1.921 -0.0396 -0.1100 -0.1269
 6927W        W10978   4.409   5.314   0.122  0.0087  0.3557  0.2292
 6928W        W10979   2.934   4.577  11.194  0.0251 -0.2733  0.1048
 6929W        W10980   8.881   5.327   3.163  0.1383 -0.0608 -0.0917
 6930W        W10981   0.333   0.794  10.641  0.0186  0.1856  0.0298
 6931W        W10982   7.050   5.310   2.403 -0.2706 -0.0712 -0.3395
 6932W        W10983   0.641   7.802   1.738  0.0619  0.0399 -0.0683
 6933W        W10984   3.003   2.198  12.215 -0.0183  0.0492 -0.0706
 6934W        W10985   9.515   6.570  12.735 -0.0357 -0.0256  0.0372
 6935W        W10986   0.963   5.348   4.319  0.0266  0.1017  0.3887
 6936W        W10987   2.174   6.891   1.545 -0.0745 -0.1470  0.1401
 6937W        W10988   0.599   0.517   4.974  0.0155  0.1130 -0.0426
 6938W        W10989   6.695   8.835   0.929 -0.0923 -0.1043  0.1819
 6939W        W10990   4.969   2.009   2.305  0.1855  0.1784 -0.0384
 6940W        W10991   8.241   3.514  10.531 -0.3989  0.2555 -0.2187
 6941W        W10992   4.997   2.612  11.554 -0.5651  0.3109 -0.2364
 6942W        W10993   6.767   7.628   4.170  0.0477 -0.0793  0.0425
 6943W        W10994   7.252   9.591  13.904  0.3300 -0.1036  0.0581
 6944W        W10995   4.608   3.418  11.427  0.1617 -0.0302  0.1595
 6945W        W10996   9.731   5.388  11.552  0.0700 -0.1826  0.0780
 6946W        W10997   8.889   2.333  10.093  0.0310 -0.0028  0.0653
 6947W        W10998   4.857   8.662   2.808 -0.2114  0.2297 -0.0887
 6948W        W10999   0.131   6.670   4.990  0.0802  0.3004  0.0241
 6949W        W11000   8.303   0.629   2.959  0.0479  0.0130  0.0503
 6950W        W11001   6.952   4.651  11.977 -0.1217  0.2383 -0.0071
 6951W        W11002   5.106   1.554   0.176  0.1254 -0.2110  0.2741
 6952W        W11003   3.847   9.105   0.819 -0.2869 -0.2303 -0.2817
 6953W        W11004   2.561   4.478   3.579 -0.2079  0.0967  0.0303
 6954W        W11005   0.345   7.828  11.519  0.2490 -0.0054 -0.1288
 6955W        W11006   7.734   9.045  13.767  0.2041 -0.1040  0.0821
 6956W        W11007   8.617   1.273   4.564 -0.0443  0.1219  0.4982
 6957W        W11008  10.076   0.902   1.753  0.1217 -0.0796  0.0500
 6958W        W11009   8.798   8.287  10.415 -0.1039  0.2523 -0.1488
 6959W        W11010   8.036   5.554  11.979 -0.0865  0.1072 -0.3459
 6960W        W11011   5.056   3.872   2.663  0.0112 -0.1908 -0.1251
 6961W        W11012   4.423   3.183   2.006  0.4123  0.1125  0.1707
 6962W        W11013   3.691   1.440  13.411  0.1745  0.0616 -0.0618
 6963W        W11014   2.368   9.676   1.649 -0.1861  0.2006 -0.1755
 6964W        W11015   4.945   2.578  13.959  0.2389  0.1947 -0.0311
 6965W        W11016   1.307   2.673  11.209  0.0394  0.3395  0.0224
 6966W        W11017   9.552   5.734  13.877  0.0260 -0.0520 -0.0882
 6967W        W11018   1.774   1.514  13.434 -0.0422 -0.1224  0.1009
 6968W        W11019   3.726   8.213   4.949 -0.0305 -0.1572 -0.0347
 6969W        W11020   4.893   1.249  13.904 -0.0515  0.0967  0.0851
 6970W        W11021   6.948   0.139  11.168  0.0063 -0.3212 -0.2240
 6971W        W11022   0.287   4.572   9.983 -0.1375  0.1057 -0.0009
 6972W        W11023   1.122   4.939   2.474  0.1668 -0.2454  0.0092
 6973W        W11024   8.439   4.425  10.809  0.0891  0.2903 -0.1158
 6974W        W11025   3.432   3.137   1.673  0.0851 -0.3853 -0.1293
 6975W        W11026   5.895   1.638   3.402  0.1649  0.0519 -0.0110
 6976W        W11027   0.770   3.658  10.838 -0.0393 -0.1139 -0.2565
 6977W        W11028   2.435   1.310  13.970  0.3615  0.0642  0.2109
 6978W        W11029   2.857   7.326  12.958  0.4144 -0.0307  0.0612
 6979W        W11030   4.595   3.040   5.127 -0.0502  0.1339  0.0733
 6980W        W11031   6.788   7.667   0.391 -0.3183  0.2113  0.1191
 6981W        W11032   6.122   4.227   1.421 -0.0189  0.2388  0.1602
 6982W        W11033   2.220   3.800  11.235 -0.2909  0.1625 -0.3174
 6983W        W11034   7.764   3.112  12.275 -0.0601 -0.2087  0.1297
 6984W        W11035   7.625  10.033   1.149  0.2403 -0.2712  0.1113
 6985W        W11036   2.150   8.418   5.012  0.1136 -0.1962 -0.0816
 6986W        W11037   1.590   2.995   3.076 -0.1354  0.2345  0.2978
 6987W        W11038   0.512  10.086  13.160  0.0766 -0.1055  0.3504
 6988W        W11039   8.780   9.690   4.856 -0.5288 -0.1401  0.2285
 6989W        W11040   0.737   3.291   9.688  0.1578  0.1232 -0.1206
 6990W        W11041   2.999   6.170  11.983  0.0188 -0.1574 -0.0637
 6991W        W11042   7.063   9.780   2.822 -0.1422 -0.1177  0.1995
 6992W        W11043   9.620   1.883  10.018 -0.0072 -0.0569  0.0234
 6993W        W11044   0.021   6.860   1.285  0.1985  0.1525 -0.0573
 6994W        W11045   9.567   8.863   1.104  0.0597  0.0667 -0.4022
 6995W        W11046   2.410   9.758   0.139 -0.0098 -0.0058  0.0120
 6996W        W11047   9.748   9.187   5.153 -0.2336 -0.3783  0.0954
 6997W        W11048   5.572   7.653   2.671  0.2168  0.1914  0.1681
 6998W        W11049   7.810   0.322   0.980 -0.1315  0.1538 -0.0054
 6999W        W11050   4.343   8.128  12.648  0.0741  0.3570  0.4562
 7000W        W11051   0.333   4.610   3.240  0.2305  0.4988 -0.1292
 7001W        W11052   8.605   6.036  11.445  0.2952  0.2654 -0.1637
 7002W        W11053   2.619   4.826   0.448 -0.1542 -0.0356  0.2167
 7003W        W11054   2.385   7.849   3.257  0.1336 -0.1880 -0.0902
 7004W        W11055   4.672   9.778   1.414  0.0567 -0.0489  0.0369
 7005W        W11056   8.032   2.201  11.225  0.1760 -0.0644  0.0730
 7006W        W11057   0.019   1.626  12.749 -0.0461  0.1385 -0.2068
 7007W        W11058   6.503   6.516  12.540  0.1217 -0.1148  0.3802
 7008W        W11059   4.588   9.986  10.285  0.1432  0.0077  0.2727
 7009W        W11060   1.664   1.318   2.801  0.0465 -0.1356 -0.4043
 7010W        W11061   3.379   7.103   1.942  0.0931  0.0196  0.1754
 7011W        W11062   2.514   2.329   0.757  0.1151 -0.2639  0.0036
 7012W        W11063   8.268   5.624  12.536 -0.1042 -0.0916  0.0940
 7013W        W11064   3.576   3.319  13.957  0.2720 -0.0986 -0.3311
 7014W        W11065   6.871   6.851   0.404 -0.0609 -0.4048 -0.1082
 7015W        W11066   9.137   1.937   1.662 -0.0114  0.2799  0.3059
 7016W        W11067   5.223   5.505   2.493 -0.2172  0.0397 -0.1576
 7017W        W11068   1.345   6.922   3.290  0.0659  0.4374  0.0078
 7018W        W11069   7.949   3.914   2.396 -0.0934  0.0965  0.1899
 7019W        W11070   5.339   1.693   5.306  0.2358  0.3058 -0.2158
 7020W        W11071   9.347   0.922   1.278  0.0141  0.0010  0.2558
 7021W        W11072   5.716   3.975  12.420 -0.2509  0.1013  0.1482
 7022W        W11073   1.639   9.151  12.877  0.0729  0.0983 -0.2723
 7023W        W11074   1.681   4.496  11.494 -0.0707 -0.1000  0.0243
 7024W        W11075   0.383   9.346   9.184  0.0838  0.4056 -0.1501
 7025W        W11076   0.524   8.092  10.910  0.0891 -0.3570 -0.3119
 7026W        W11077   4.856   6.990   2.527 -0.1912  0.3398  0.0039
 7027W        W11078   7.096   6.061  10.737  0.0469 -0.0128  0.0805
 7028W        W11079   9.196   9.313   5.103 -0.0092 -0.0136 -0.0618
 7029W        W11080   2.835   1.134   0.919  0.1569 -0.0762 -0.2242
 7030W        W11081   5.461   0.902  11.498  0.1637 -0.0924  0.3431
 7031W        W11082   6.221   4.386   9.960  0.1708 -0.1780 -0.2406
 7032W        W11083   4.506   3.119   4.643  0.1124 -0.0399 -0.0061
 7033W        W11084   3.693   7.174  12.048  0.0008  0.0059  0.2739
 7034W        W11085   6.484   3.633   2.904 -0.0596 -0.0850  0.1522
 7035W        W11086   4.943   5.272   0.836 -0.3302 -0.2090  0.2216
 7036W        W11087   3.924   5.175  11.753 -0.0973  0.0951  0.1276
 7037W        W11088   9.369   3.107  10.163  0.0864  0.2951 -0.0478
 7038W        W11089   7.915   7.565  13.577  0.0238  0.2976 -0.1077
 7039W        W11090  10.060   5.006   4.153 -0.2548 -0.0193  0.1284
 7040W        W11091   7.645   4.430   3.377  0.0771 -0.0292  0.1669
 7041W        W11092   1.556   3.121   2.200  0.0362  0.0309  0.2650
 7042W        W11093   0.982   3.773   4.262 -0.2183 -0.2853 -0.1260
 7043W        W11094   0.282   0.650   0.869  0.0138 -0.1828  0.1468
 7044W        W11095   1.907   9.089   9.102 -0.1465  0.1204  0.1858
 7045W        W11096   5.663   4.173   3.062 -0.0337  0.2571 -0.0020
 7046W        W11097   0.721   6.713  11.109  0.2049  0.1300  0.1364
 7047W        W11098   3.627   3.385  10.394 -0.2269 -0.3109 -0.0390
 7048W        W11099   2.477   9.052  13.187 -0.0707 -0.1330 -0.4399
 7049W        W11100   7.283   3.075   3.771  0.1988 -0.1627 -0.3291
 7050W        W11101   3.373   2.474   1.673  0.4316 -0.0575 -0.1762
 7051W        W11102   7.686   0.735  12.705 -0.2446 -0.1274 -0.2149
 7052W        W11103   2.634   7.889  12.244 -0.1598  0.0933 -0.0103
 7053W        W11104   8.876   7.642   9.839  0.0806 -0.1862  0.2074
 7054W        W11105   8.841   1.558  13.424  0.0684 -0.1682 -0.5470
 7055W        W11106   7.508   8.437   5.041 -0.2257 -0.0868 -0.0496
 7056W        W11107   3.862   9.117  13.419 -0.3175  0.1661  0.0442
 7057W        W11108   5.740   3.495  11.392  0.2562  0.0251  0.1047
 7058W        W11109   0.291   1.585  10.513 -0.0356  0.0006  0.1866
 7059W        W11110   7.604   1.402   2.557 -0.0593 -0.1856 -0.2535
 7060W        W11111   4.343   2.625  13.818 -0.0993 -0.0049  0.0487
 7061W        W11112   8.910   2.727   0.236 -0.0612 -0.1915  0.1540
 7062W        W11113   6.587   2.034   0.699 -0.2269 -0.0131  0.0902
 7063W        W11114   1.571   7.149   2.256 -0.0345 -0.0135  0.0521
 7064W        W11115   8.097   0.610   5.049  0.1176 -0.0277 -0.0608
 7065W        W11116   6.659   5.684   2.292  0.0527 -0.0916 -0.2472
 7066W        W11117   4.035   7.430  10.305 -0.1740  0.2159  0.0203
 7067W        W11118   2.312   0.442   8.937  0.0277 -0.1021 -0.3796
 7068W        W11119   9.136   0.790  10.142  0.0857 -0.1155  0.1088
 7069W        W11120   2.172   0.285  10.941  0.1694  0.1354  0.1539
 7070W        W11121   5.804   3.015   2.182 -0.0994 -0.0997  0.0436
 7071W        W11122   0.814   5.948  12.388  0.2526 -0.1100  0.0026
 7072W        W11123   9.696   2.234   3.559 -0.3045 -0.1727  0.2499
 7073W        W11124   2.923   6.418   2.158  0.1077  0.0193  0.0773
 7074W        W11125   7.252   8.982  13.101 -0.0691  0.0692  0.1108
 7075W        W11126   1.210   0.024  11.953 -0.0561  0.1920 -0.0329
 7076W        W11127   5.413   6.747  13.125  0.1819  0.1801 -0.1199
 7077W        W11128   2.179   6.574  14.028 -0.1546 -0.1216  0.2669
 7078W        W11129   1.585   0.594   8.666  0.0662  0.2696  0.1592
 7079W        W11130   6.783   1.733  10.081  0.1429  0.1550 -0.1085
 7080W        W11131   2.931   3.145   0.905  0.2086 -0.2932 -0.1997
 7081W        W11132   6.992   9.809  12.012 -0.0505 -0.1175  0.0939
 7082W        W11133   3.375   1.245   9.873 -0.0583 -0.1555  0.2759
 7083W        W11134   7.761   5.812   1.677 -0.1217  0.0800 -0.0589
 7084W        W11135   5.963   2.737  13.194  0.0808  0.2261  0.0291
 7085W        W11136   7.086   6.277  11.311  0.0034  0.0748  0.0750
 7086W        W11137   0.053   8.905   0.931  0.1876  0.0085  0.1924
 7087W        W11138   3.578   9.931  11.528  0.1865  0.2795 -0.2294
 7088W        W11139   2.813   7.593   3.685  0.1870 -0.0827  0.1623
 7089W        W11140   0.371   6.640   4.036  0.0168 -0.4876 -0.1981
 7090W        W11141   9.442   9.909   3.304 -0.3286  0.1064  0.0050
 7091W        W11142   4.426   9.705   9.818 -0.4482 -0.3201  0.0045
 7092W        W11143   1.570   0.572  11.973 -0.1086 -0.0129 -0.2242
 7093W        W11144   9.395   7.336   3.670 -0.0076 -0.1761 -0.0071
 7094W        W11145   1.517   4.382   0.492 -0.0803  0.2219 -0.3741
 7095W        W11146   9.383   8.272   2.916 -0.0558  0.3300  0.1868
 7096W        W11147   9.246   3.166  12.217 -0.2899  0.2366 -0.0088
 7097W        W11148   5.425   1.654   9.474  0.0710 -0.0530 -0.0469
 7098W        W11149   5.177   7.015  10.586  0.2034 -0.0224 -0.0854
 7099W        W11150   5.704   9.172  10.247  0.2413 -0.0483 -0.1661
 7100W        W11151   6.788   5.385   9.439  0.0107 -0.0535  0.2179
 7101W        W11152   6.737   0.090   1.732  0.0591 -0.1966  0.2846
 7102W        W11153   5.982   4.929   2.455  0.1262 -0.0331  0.0249
 7103W        W11154   6.149   8.098   1.493 -0.0832  0.1535  0.0352
 7104W        W11155   9.226   3.072   1.748 -0.2976 -0.1663 -0.0797
 7105W        W11156   9.250   3.182  12.797  0.3779  0.0894 -0.0036
 7106W        W11157   5.163   1.378   2.885  0.2042 -0.0748 -0.2035
 7107W        W11158   9.397   4.843   3.466 -0.0261  0.1685  0.0649
 7108W        W11159   0.168   7.287  10.381  0.1914 -0.0684  0.3438
 7109W        W11160   7.638   2.213   9.089 -0.0552 -0.0818  0.3796
 7110W        W11161   4.451   1.597   9.989  0.0106 -0.0120  0.1457
 7111W        W11162   6.913   3.245   0.084  0.1514 -0.0611 -0.2359
 7112W        W11163  10.116   7.544  13.349  0.1364 -0.0717 -0.2774
 7113W        W11164   2.775   3.842  12.655 -0.0303 -0.2150 -0.1014
 7114W        W11165   8.690   8.107   1.764  0.0542 -0.0178  0.1174
 7115W        W11166   9.264   2.868  11.257  0.0739 -0.5200 -0.1564
 7116W        W11167   9.682   5.242  13.539  0.1681 -0.4523  0.4213
 7117W        W11168   0.588   9.465  11.108 -0.1231 -0.1403 -0.1205
 7118W        W11169   1.656   2.952   4.317 -0.2051  0.0500 -0.1928
 7119W        W11170   8.520   3.462   5.069  0.0110  0.3283 -0.3430
 7120W        W11171   4.437   7.940   0.069  0.2085 -0.1096  0.1052
 7121W        W11172   6.875   1.164  12.147 -0.1369  0.3001 -0.0574
 7122W        W11173   8.634   5.255   9.890  0.0415 -0.3827 -0.2561
 7123W        W11174   6.973   2.770   0.246 -0.2180 -0.4746 -0.2665
 7124W        W11175   7.021   0.848  13.190  0.2430 -0.0489 -0.1598
 7125W        W11176   7.827   6.793   2.433 -0.1829 -0.0744  0.1033
 7126W        W11177   0.047   3.068   0.931  0.1192  0.3264  0.4563
 7127W        W11178   2.813   7.172   0.054  0.0146 -0.0029  0.0259
 7128W        W11179   2.929   6.620   3.439  0.2170 -0.0206  0.2726
 7129W        W11180   4.397   2.372   1.369 -0.1507  0.2339  0.0827
 7130W        W11181   2.347   2.111  13.527 -0.2664 -0.2372 -0.0306
 7131W        W11182   9.444   5.302   5.541  0.1618  0.1558  0.0041
 7132W        W11183   7.986   1.027  12.545 -0.0339 -0.2537 -0.1787
 7133W        W11184   5.878   4.289  13.770 -0.0728 -0.0290 -0.0565
 7134W        W11185   6.535   4.030  10.685 -0.0671 -0.0391  0.2631
 7135W        W11186   7.511   5.066  12.700 -0.1120 -0.1089 -0.0772
 7136W        W11187   3.589   4.255  10.245  0.1794  0.2238  0.0130
 7137W        W11188   8.191   0.059  12.770 -0.0923 -0.0046 -0.1084
 7138W        W11189   7.497   9.600  10.085 -0.0483  0.1600  0.0692
 7139W        W11190   4.298   6.771  11.482  0.0032  0.2307 -0.0766
 7140W        W11191   2.416   2.513   4.879 -0.1505 -0.0551 -0.1044
 7141W        W11192   7.783   7.979   0.287  0.0745  0.1605 -0.1356
 7142W        W11193   7.305   1.530   5.735  0.2627 -0.2469 -0.2645
 7143W        W11194   1.612   9.953  13.693  0.0708 -0.1337  0.1937
 7144W        W11195   6.160   5.950  11.388  0.0633 -0.1853  0.1029
 7145W        W11196   6.954   0.498   1.442 -0.0614 -0.0016  0.0897
 7146W        W11197   4.660   3.568  10.154  0.0288 -0.0186  0.1943
 7147W        W11198   1.668   1.444   3.804 -0.0106 -0.1054  0.0506
 7148W        W11199   3.986   1.566   4.055 -0.0908  0.0824 -0.1759
 7149W        W11200  10.119   7.912   2.545 -0.0085  0.1731  0.1761
 7150W        W11201   2.438   1.726   9.473 -0.0217  0.0786  0.0386
 7151W        W11202  10.036   8.705  10.939  0.0124  0.0354  0.1085
 7152W        W11203   7.577   0.133   4.333 -0.1423  0.0587  0.2234
 7153W        W11204   7.019   5.674   2.714 -0.0482 -0.2353  0.0190
 7154W        W11205   4.337   3.626  11.801 -0.1195 -0.2444 -0.1459
 7155W        W11206   2.280   9.529   4.996  0.2482 -0.3140  0.2288
 7156W        W11207   0.659   4.758   2.272  0.1082  0.1189  0.1779
 7157W        W11208   5.393   2.683  10.316 -0.0078  0.0792 -0.0371
 7158W        W11209   5.412   6.361   2.446 -0.0130 -0.2452 -0.1451
 7159W        W11210   5.178   2.980  10.697 -0.0031  0.1003 -0.0559
 7160W        W11211   8.990   9.202   2.628 -0.4750 -0.0693 -0.0207
 7161W        W11212   6.620   5.420   0.736  0.2955 -0.0259 -0.0647
 7162W        W11213   9.665   7.452  13.194  0.0361  0.0075 -0.1050
 7163W        W11214   9.813   6.696  12.267 -0.3112 -0.0467  0.0283
 7164W        W11215   2.427   3.106   0.852  0.0018  0.0795  0.0200
 7165W        W11216   0.966   1.173  11.208  0.0468 -0.1561 -0.0232
 7166W        W11217   5.045   1.945   9.781 -0.0828  0.2039 -0.1662
 7167W        W11218   2.151   2.354  12.156  0.2653 -0.0286  0.1610
 7168W        W11219   2.822  10.103  12.203 -0.1156  0.2880  0.0117
 7169W        W11220   0.231   0.862   0.369  0.1454 -0.2521  0.1063
 7170W        W11221   3.880   4.230   3.439  0.1197 -0.1448  0.2920
 7171W        W11222   3.961   8.555  10.177  0.0409 -0.2910  0.1915
 7172W        W11223   7.999   9.993  13.403 -0.2237  0.1313 -0.1317
 7173W        W11224   8.904   9.115  10.243 -0.0905  0.0909 -0.0564
 7174W        W11225   4.572   0.676   0.396 -0.4174  0.2801 -0.2815
 7175W        W11226   7.331   9.429   0.454 -0.1308 -0.2150  0.1919
 7176W        W11227   7.582   1.655   1.522  0.0362 -0.1609 -0.0317
 7177W        W11228   5.260   3.400   2.575  0.2223  0.0601 -0.1823
 7178W        W11229   1.474   5.744  12.099  0.1002 -0.0154  0.1625
 7179W        W11230   4.583   3.451   0.545 -0.1506 -0.1404 -0.1937
 7180W        W11231   4.859   6.755   4.161 -0.1674 -0.2909 -0.2566
 7181W        W11232   3.500   0.566  11.263 -0.3897 -0.1023  0.1218
 7182W        W11233   0.788   9.326  13.571 -0.2057 -0.2819  0.4631
 7183W        W11234   1.865   8.301  10.430  0.0538 -0.3668 -0.1085
 7184W        W11235   7.907   6.314   2.539 -0.2503  0.0170  0.3102
 7185W        W11236  10.034   5.769   1.035 -0.4020  0.0091 -0.0387
 7186W        W11237   5.242   7.856  11.453  0.0616  0.1830 -0.2528
 7187W        W11238   0.325   1.790   9.642 -0.1469  0.0260  0.1898
 7188W        W11239   8.071   6.710   9.973  0.2170  0.2373 -0.3511
 7189W        W11240   9.683   6.657  10.620  0.2136 -0.0154  0.1015
 7190W        W11241   5.956   7.977  11.044 -0.2614 -0.1208 -0.1336
 7191W        W11242   3.478   3.779  12.590 -0.3880 -0.2284  0.0517
 7192W        W11243   4.582   7.579  12.170  0.1493  0.0383 -0.1621
 7193W        W11244   2.317   1.813  13.952  0.0103 -0.2108 -0.0508
 7194W        W11245   0.867   5.139   0.855  0.1188  0.2168 -0.0650
 7195W        W11246   9.084   6.013  11.412 -0.0338 -0.0200  0.3970
 7196W        W11247   8.525   6.285  12.024  0.0647 -0.2406 -0.0202
 7197W        W11248  10.117   6.569   0.290 -0.0411 -0.0695  0.0323
 7198W        W11249   3.007   5.405  13.972 -0.2663  0.3614  0.0909
 7199W        W11250   2.752   6.032   3.431  0.1914 -0.0876 -0.2084
 7200W        W11251   6.531   7.560  11.702  0.0519  0.0428  0.1683
 7201W        W11252   9.653   9.710   4.325  0.0164  0.0849  0.1768
 7202W        W11253   1.304   5.640   0.488 -0.0299 -0.1533  0.1327
 7203W        W11254   6.655   1.830   3.969  0.0147  0.2268  0.1108
 7204W        W11255   6.996   2.515  13.839 -0.0968  0.0939 -0.0217
 7205W        W11256   7.394   3.062   0.157 -0.1528  0.0994  0.1767
 7206W        W11257   9.043   2.689   5.139  0.1040  0.4100  0.0188
 7207W        W11258  10.014   5.948   9.773  0.0468  0.1766 -0.0796
 7208W        W11259   8.992   6.152  12.729  0.0558 -0.1449  0.1619
 7209W        W11260   0.571   6.289   1.071 -0.0510 -0.0152 -0.3939
 7210W        W11261   4.821   6.100   1.745  0.1461  0.1608  0.0635
 7211W        W11262   5.935   9.106  13.345  0.0701 -0.2927 -0.3595
 7212W        W11263  10.065   7.125  13.675  0.4266 -0.1111  0.2863
 7213W        W11264   4.470   4.253   2.289  0.2162 -0.0393 -0.2141
 7214W        W11265   1.450   3.241   0.570  0.1174  0.0246  0.1010
 7215W        W11266   2.325   2.908   9.837 -0.2671 -0.1319 -0.0520
 7216W        W11267   6.796   2.757   1.616 -0.0798 -0.1920 -0.0551
 7217W        W11268   4.173   3.277  10.465  0.1939 -0.0087  0.0721
 7218W        W11269   7.617   3.183  11.779  0.0950 -0.0130 -0.2453
 7219W        W11270   9.138   2.827   2.799  0.0250  0.1623  0.2315
 7220W        W11271   4.949   8.657   4.572 -0.2030  0.5173  0.0257
 7221W        W11272   6.778   0.494   3.828 -0.2864  0.1442 -0.1681
 7222W        W11273   8.320   9.725  10.448 -0.1310 -0.0514 -0.0725
 7223W        W11274   9.864   2.662   0.401  0.0527  0.0600  0.0950
 7224W        W11275   3.274   8.773   9.531 -0.2207 -0.5395 -0.2224
 7225W        W11276   7.659   1.686  10.588 -0.2355 -0.1214  0.0438
 7226W        W11277   5.880   5.809   1.778  0.0140 -0.0184  0.1810
 7227W        W11278   1.848   0.103   1.007  0.2037 -0.0555 -0.1398
 7228W        W11279   3.126   3.066  13.040 -0.2972 -0.1411 -0.4240
 7229W        W11280   7.654  10.144   3.376 -0.1549  0.1995  0.1534
 7230W        W11281   8.355   7.505   4.167  0.1203 -0.0176 -0.1164
 7231W        W11282   0.323   9.824   0.847  0.2982  0.0425 -0.2486
 7232W        W11283   5.125   7.874   9.246  0.0174 -0.0996 -0.1902
 7233W        W11284   3.964   3.395   1.041 -0.0671  0.1629  0.0424
 7234W        W11285   0.258   1.998  11.507 -0.1502 -0.2579 -0.0251
 7235W        W11286   2.772   4.540   9.881 -0.1596 -0.2170 -0.1089
 7236W        W11287   6.123   7.144   4.307  0.0475 -0.0192  0.0336
 7237W        W11288   1.132   7.000  10.454  0.2901 -0.2559 -0.2952
 7238W        W11289   6.727   1.656  12.967  0.0936  0.2046 -0.2964
 7239W        W11290   5.741   3.500  13.368  0.0897  0.0768  0.0036
 7240W        W11291   5.768   4.118   0.234  0.0558  0.0854 -0.1953
 7241W        W11292   9.425   2.130   2.717 -0.0828 -0.2044  0.1130
 7242W        W11293   8.986   9.549   3.343 -0.1369 -0.1391 -0.1299
 7243W        W11294  10.007   8.853   1.435 -0.1086  0.3163  0.0395
 7244W        W11295   7.625   8.976  10.042  0.1510 -0.0576  0.2735
 7245W        W11296   5.629   1.291   2.739  0.0522 -0.1375 -0.0658
 7246W        W11297   9.097   7.779  11.299 -0.2249  0.0004  0.1490
 7247W        W11298   8.935   7.261   9.171 -0.1188  0.1292  0.2813
 7248W        W11299   0.241   0.632   2.101  0.3307  0.3299  0.0253
 7249W        W11300   2.643   4.714  13.871 -0.1158 -0.0680 -0.2753
 7250W        W11301   7.639   6.995  12.796  0.0322  0.3389 -0.0536
 7251W        W11302   3.977   0.382   3.759 -0.1257 -0.0859 -0.1598
 7252W        W11303   7.852   0.522   2.840 -0.3048  0.4416  0.2656
 7253W        W11304   0.881   7.405   2.093  0.1545 -0.0215 -0.1058
 7254W        W11305   4.182   5.186   0.579 -0.0660 -0.1537  0.2473
 7255W        W11306   6.523   0.717   9.708  0.1165 -0.1706 -0.2083
 7256W        W11307   5.379   0.013   3.003  0.1879 -0.2695 -0.0185
 7257W        W11308   9.627   6.110  12.520  0.1869  0.1387  0.0800
 7258W        W11309   2.455   3.977   2.496  0.2335 -0.0324 -0.0071
 7259W        W11310   1.617   0.274  10.900  0.3758  0.1425  0.1716
 7260W        W11311   8.144   0.761   4.067 -0.2268  0.1014  0.0490
 7261W        W11312   9.810   9.048   3.407  0.1245  0.1099 -0.1166
 7262W        W11313   7.349   9.942   0.191  0.2396 -0.2603  0.1283
 7263W        W11314   5.914   7.454  10.982 -0.0439 -0.0879  0.0493
 7264W        W11315   7.824   2.602  12.044  0.2145 -0.1701 -0.0201
 7265W        W11316   1.384   6.523   0.070  0.2076 -0.0520 -0.1461
 7266W        W11317   9.622   5.190   9.432  0.2380 -0.0638  0.1305
 7267W        W11318   6.904   9.411   1.216  0.0078  0.2467 -0.0476
 7268W        W11319   4.552   0.613  11.943 -0.0728  0.0199 -0.1162
 7269W        W11320   9.352   0.334   0.555 -0.0672  0.0640 -0.1201
 7270W        W11321   4.699   7.424  12.655 -0.2105 -0.2423 -0.0799
 7271W        W11322   6.455   2.401   2.183  0.2130  0.2328  0.1928
 7272W        W11323   0.961   2.258  11.407 -0.1292  0.2220  0.0205
 7273W        W11324   0.411   3.559   2.606  0.2244 -0.3205 -0.2830
 7274W        W11325   1.029   2.098   3.576 -0.3430  0.4305 -0.0541
 7275W        W11326   7.886   4.312  10.270 -0.1818 -0.3327  0.0948
 7276W        W11327   4.202   2.188   4.791  0.3932  0.1429 -0.0626
 7277W        W11328   2.427   9.032   0.975 -0.1073 -0.1373 -0.1259
 7278W        W11329   7.148   1.801   9.478 -0.1015  0.1876 -0.0915
 7279W        W11330   2.659   4.818  13.335 -0.1963  0.0561  0.1716
 7280W        W11331   8.954   6.235   3.440  0.0811  0.4146 -0.2545
 7281W        W11332   8.347   3.937   9.709 -0.0366  0.1487  0.0478
 7282W        W11333   6.529   4.690   3.371 -0.0332 -0.0550  0.3161
 7283W        W11334   6.023   2.793  11.133  0.0821 -0.3502 -0.0361
 7284W        W11335   5.221   0.520  11.065  0.3116 -0.0416  0.0346
 7285W        W11336   8.881   5.628  11.219 -0.3464 -0.0740 -0.0184
 7286W        W11337   5.802   2.957   1.706 -0.1279 -0.2104  0.3654
 7287W        W11338   4.299   0.203  10.565 -0.0216 -0.0575  0.1108
 7288W        W11339   0.449   9.861  10.716 -0.2180 -0.0291  0.1048
 7289W        W11340   1.285   7.167   4.771  0.1791 -0.0774 -0.1938
 7290W        W11341   6.967   2.962   3.177  0.1878 -0.4264  0.3787
 7291W        W11342   9.396   3.752  10.484 -0.1851 -0.0830  0.0964
 7292W        W11343   9.200   6.496  13.294 -0.3313 -0.0292  0.0411
 7293W        W11344   0.676   3.843   0.637 -0.1162  0.2346 -0.1345
 7294W        W11345   0.478   2.236   0.652 -0.0416  0.1655  0.2166
 7295W        W11346   7.756   1.764   1.041 -0.1310  0.1388 -0.2072
 7296W        W11347   4.099   7.832   3.627  0.0672 -0.1065  0.0545
 7297W        W11348   9.552   4.255   1.235  0.0503  0.0028 -0.0515
 7298W        W11349   6.611   8.224   0.850 -0.0598 -0.0300  0.0444
 7299W        W11350   7.102   0.753  12.612 -0.4044 -0.0306  0.2384
 7300W        W11351   7.197   2.522   4.043 -0.0020  0.3403  0.2302
 7301W        W11352   1.971   1.209   4.682  0.1006 -0.0969 -0.2502
 7302W        W11353   0.895   7.431   2.683 -0.0963 -0.1622  0.0043
 7303W        W11354   8.739   1.960  13.682 -0.1295  0.1852 -0.3043
 7304W        W11355   8.250   4.915   4.314  0.1027  0.1378  0.2720
 7305W        W11356   1.236   4.303   1.695  0.1906 -0.0566 -0.1221
 7306W        W11357   7.437   7.499  12.767  0.0232  0.1297 -0.2190
 7307W        W11358   6.402   8.522   1.645  0.1727  0.3142 -0.1726
 7308W        W11359   5.874   9.263  12.195  0.0248  0.0119  0.1385
 7309W        W11360   2.009   0.551   2.499  0.2416 -0.0082 -0.1278
 7310W        W11361   8.579   0.859   3.323 -0.1576 -0.2505  0.2157
 7311W        W11362   1.872  10.154  10.058  0.0389  0.0260 -0.2133
 7312W        W11363   7.956   3.442  12.732 -0.1484 -0.0533  0.0535
 7313W        W11364   8.921   5.817   3.187 -0.0351  0.1375  0.2143
 7314W        W11365   9.883   0.885   5.578  0.2348 -0.1025 -0.0555
 7315W        W11366   6.241   3.696  11.652 -0.1673 -0.3616 -0.0776
 7316W        W11367   5.312   1.395  13.580  0.0603 -0.1234 -0.1056
 7317W        W11368   6.149   1.854  12.576  0.0933  0.1116  0.1171
 7318W        W11369   2.169   5.905   4.318 -0.1217 -0.3544 -0.1568
 7319W        W11370   2.387   0.752   2.197 -0.1324  0.2269 -0.1149
 7320W        W11371   5.600   9.554   0.973 -0.0154 -0.0777  0.1267
 7321W        W11372   1.571   5.726   0.910  0.4988 -0.0826 -0.2563
 7322W        W11373   7.054   5.210   1.930  0.3476 -0.2701  0.1783
 7323W        W11374   8.457   5.387  10.881 -0.1495  0.0560 -0.1777
 7324W        W11375   7.114   5.492  10.442  0.1642  0.0700 -0.0997
 7325W        W11376   3.749   1.333   3.661  0.5107  0.0601 -0.5205
 7326W        W11377   7.531   9.319  10.582 -0.2729  0.0222 -0.0639
 7327W        W11378   0.185   0.251   2.469  0.2026  0.1653  0.2424
 7328W        W11379   4.132   5.820  13.412  0.0279 -0.1804  0.0674
 7329W        W11380   4.942  10.015   9.953  0.2509  0.1872 -0.1464
 7330W        W11381   4.206   3.651   3.127  0.2963  0.0136  0.2225
 7331W        W11382   7.610   7.126  12.179 -0.1059 -0.0947 -0.1490
 7332W        W11383   8.566   7.319   0.075 -0.1531  0.3726  0.0069
 7333W        W11384   0.065   0.805  11.110 -0.1532  0.1175 -0.0327
 7334W        W11385   7.199   0.233   1.101  0.1103  0.0128 -0.1126
 7335W        W11386   3.617   6.739   3.369 -0.0042  0.2427 -0.0252
 7336W        W11387   9.406   5.964   3.968 -0.0780 -0.1329 -0.0353
 7337W        W11388   9.177   3.221   0.050 -0.1577  0.0036  0.1622
 7338W        W11389   8.981   5.147  10.581 -0.0095  0.1436  0.2213
 7339W        W11390   9.759   1.291   9.328  0.0839  0.2104  0.2669
 7340W        W11391   3.867   9.204   3.402  0.3577  0.1274 -0.1131
 7341W        W11392   5.004   7.757   0.158 -0.2484 -0.0336  0.0109
 7342W        W11393   6.955   8.627   0.118  0.1232 -0.1403  0.0458
 7343W        W11394   0.979   8.179   5.435  0.0807 -0.3670  0.0925
 7344W        W11395   7.112   4.348   0.314  0.0364 -0.0922 -0.2505
 7345W        W11396   4.913   5.676  11.802 -0.0864 -0.0812  0.1806
 7346W        W11397   1.160   8.815  12.833 -0.1792  0.0339 -0.0561
 7347W        W11398   8.149   9.674  12.495 -0.2130  0.1171  0.1595
 7348W        W11399   3.119   5.950  13.173  0.2521 -0.0632 -0.2123
 7349W        W11400   1.163   0.694   9.895  0.1174 -0.1688 -0.2412
 7350W        W11401   2.018   8.397  13.752  0.3009  0.0189 -0.3315
 7351W        W11402   0.012  10.089  11.507 -0.3118 -0.0053 -0.1020
 7352W        W11403   2.716   9.975   4.018  0.0417  0.2722 -0.4446
 7353W        W11404   0.630   8.951   5.058  0.1811  0.0314  0.2917
 7354W        W11405   7.650   3.266   0.570 -0.0663 -0.0351  0.2396
 7355W        W11406   3.475   1.493   3.294 -0.3733 -0.0071  0.2171
 7356W        W11407   6.108   9.741  11.240 -0.0259 -0.0237  0.3349
 7357W        W11408   3.672   1.652   1.744  0.0495 -0.0609  0.1741
 7358W        W11409   2.663   4.126  13.793  0.0005  0.2744 -0.1121
 7359W        W11410   6.939   2.426   3.179 -0.0890  0.0551  0.0383
 7360W        W11411   7.059   0.828  10.491  0.1584  0.0132  0.4014
 7361W        W11412   0.802   4.677   3.482  0.1498  0.1568  0.3577
 7362W        W11413   6.985   5.392   9.976  0.0370 -0.0119  0.1781
 7363W        W11414   1.767   6.446  11.220 -0.0442 -0.1287  0.0881
 7364W        W11415   9.937   0.958  10.591  0.0566 -0.0245 -0.0807
 7365W        W11416   7.916   2.777  14.022 -0.0741 -0.3658 -0.1435
 7366W        W11417   9.893   7.193   3.651  0.0745 -0.0809 -0.2153
 7367W        W11418   6.289   2.419   1.007 -0.0635  0.2664 -0.2142
 7368W        W11419   4.129  10.122  10.131 -0.0565 -0.0829 -0.1189
 7369W        W11420   6.743   4.528  10.366 -0.1606 -0.0394  0.1858
 7370W        W11421   7.753   1.729   0.010 -0.3337  0.0285  0.3357
 7371W        W11422   2.345   8.055   0.887  0.1865 -0.0674 -0.3355
 7372W        W11423   7.797   3.068   9.393  0.1845  0.1539 -0.1320
 7373W        W11424   4.299   2.814   3.475 -0.1187 -0.1323 -0.0152
 7374W        W11425   7.336   1.165  11.857 -0.3386  0.3330 -0.0659
 7375W        W11426   5.438   0.075  10.453 -0.0296  0.0670  0.0271
 7376W        W11427   5.296   7.820  13.744 -0.0052  0.1368 -0.1909
 7377W        W11428   1.886   3.375  11.508 -0.0678 -0.1534 -0.0130
 7378W        W11429   8.404   6.650   0.044  0.1135 -0.3905 -0.0355
 7379W        W11430   1.588   5.696  10.251 -0.2734  0.0967 -0.2111
 7380W        W11431   5.898  10.020   3.373  0.0543 -0.0887  0.0843
 7381W        W11432  10.033   5.342   3.693  0.1674  0.1194  0.1188
 7382W        W11433   0.655   2.609   0.342 -0.3888 -0.1565  0.0892
 7383W        W11434   3.340   4.473   9.839 -0.2288 -0.0708 -0.0200
 7384W        W11435   9.760   5.797   3.600 -0.2434  0.2005  0.0234
 7385W        W11436   1.521   7.678  13.736 -0.1474  0.0718 -0.1012
 7386W        W11437   8.367   5.551  11.602  0.0127 -0.1154 -0.1365
 7387W        W11438   9.432   6.377  10.968  0.0671  0.2218 -0.0128
 7388W        W11439   8.250   3.330   1.095 -0.1088 -0.0158  0.2117
 7389W        W11440   9.636   1.248   4.720  0.2552 -0.4306  0.0893
 7390W        W11441   1.336   4.760   3.103  0.1983  0.2948 -0.0102
 7391W        W11442   8.675   7.414  11.303 -0.0825 -0.0914  0.1691
 7392W        W11443   7.260   8.330  10.811 -0.0440  0.0049  0.1342
 7393W        W11444   5.546   1.483   0.006  0.0861  0.3330  0.2407
 7394W        W11445   5.307   9.282   5.305 -0.1410  0.1973 -0.1358
 7395W        W11446   5.350   1.703  10.093  0.1020 -0.1504 -0.0657
 7396W        W11447   5.531   0.164   4.036 -0.5460 -0.1139 -0.2578
 7397W        W11448   3.517   1.568  12.963  0.3051 -0.4020 -0.1477
 7398W        W11449   3.055   3.524   2.563 -0.0807 -0.0193 -0.2227
 7399W        W11450   2.081   2.144  11.413  0.3019  0.3267 -0.5121
 7400W        W11451   1.927   7.823   1.586 -0.0568 -0.1179  0.0113
 7401W        W11452   1.054   0.530   4.064  0.0787  0.1122 -0.3252
 7402W        W11453   9.223   7.455   2.269 -0.2089  0.0055 -0.1010
 7403W        W11454   5.846   0.487   2.988  0.1083  0.0583  0.0776
 7404W        W11455   6.443   8.630   3.285  0.0784 -0.1455  0.1598
 7405W        W11456   0.968   3.172   3.774 -0.0877 -0.1006 -0.0308
 7406W        W11457   0.627   0.933  12.562 -0.1423 -0.2322 -0.0467
 7407W        W11458   4.097   9.079  10.293  0.2609  0.0890 -0.1932
 7408W        W11459   6.589   1.305   1.691 -0.0686  0.1254  0.0729
 7409W        W11460   0.461   9.933   5.461  0.1488  0.1608 -0.1922
 7410W        W11461   9.228   9.647   0.090 -0.1397  0.1340  0.0931
 7411W        W11462   0.199   2.640   0.533 -0.1500 -0.1425 -0.0586
 7412W        W11463  10.109   1.599   9.405 -0.0145 -0.2596  0.0048
 7413W        W11464   5.136   2.857   3.936  0.0582 -0.1598  0.0584
 7414W        W11465   0.900   0.804  13.507  0.1301  0.0533  0.1160
 7415W        W11466   8.437   1.811  13.266 -0.0225  0.0266 -0.2767
 7416W        W11467   8.255   8.918   1.465 -0.0263 -0.1217  0.0103
 7417W        W11468   6.253   1.443  13.002 -0.3706 -0.2334  0.1529
 7418W        W11469   8.318   0.078   0.286 -0.1388  0.2623  0.1901
 7419W        W11470   6.420   2.576  11.709  0.2472 -0.0328 -0.0322
 7420W        W11471   6.488   1.681  12.025 -0.2260 -0.0266  0.1114
 7421W        W11472   9.657   1.746   1.333 -0.1069  0.2505 -0.0778
 7422W        W11473   0.782  10.033   3.014 -0.0230 -0.1109 -0.2159
 7423W        W11474   4.536  10.058  12.681 -0.6299  0.0894  0.1217
 7424W        W11475   6.553   3.434  10.004  0.1227  0.1826 -0.0507
 7425W        W11476   1.999   5.459  10.543  0.0421 -0.2474  0.2909
 7426W        W11477   0.666   8.152   2.109  0.2971  0.1096 -0.0946
 7427W        W11478   8.675   1.092   0.720 -0.2767 -0.0288 -0.3688
 7428W        W11479   0.727   5.466   1.285  0.0919 -0.0745  0.0805
 7429W        W11480   5.370   9.850   4.085 -0.0566 -0.1222 -0.0225
 7430W        W11481   3.277   5.952  11.060 -0.1537 -0.3857  0.2679
 7431W        W11482   2.110  10.008   2.155 -0.3012 -0.1054 -0.0673
 7432W        W11483   2.549   7.439   2.342 -0.3535 -0.1230  0.1626
 7433W        W11484   0.716   9.157  12.748 -0.0093  0.1177 -0.1927
 7434W        W11485   3.249   4.747  11.559 -0.0488  0.1614 -0.1710
 7435W        W11486   1.158   7.990   3.599  0.1792  0.2887 -0.0036
 7436W        W11487  10.089   9.645   9.862  0.1316  0.0117  0.1972
 7437W        W11488   3.606   9.337   0.263 -0.3090  0.1429 -0.0896
 7438W        W11489   2.427   8.300   1.872 -0.0467 -0.0764 -0.1644
 7439W        W11490   1.286   8.735   2.361 -0.0395  0.1874  0.0002
 7440W        W11491   1.286   1.429  10.983  0.0230  0.0801 -0.0299
 7441W        W11492   4.323   0.842  12.353  0.1266  0.0628 -0.1108
 7442W        W11493   7.652   1.968   9.527 -0.2432  0.0194 -0.1945
 7443W        W11494   5.472   4.279  11.335 -0.0120  0.0238 -0.2657
 7444W        W11495   0.826   5.649   4.660 -0.0204 -0.2445 -0.4547
 7445W        W11496   8.855   5.299   1.554  0.1272 -0.2795  0.2225
 7446W        W11497   9.937   0.749   9.144  0.2460 -0.0630 -0.0819
 7447W        W11498   6.462   1.767   3.491 -0.1332 -0.1085  0.0432
 7448W        W11499   3.456   1.631   0.778  0.1245  0.0562  0.2100
 7449W        W11500   2.595   8.911   3.780  0.0226 -0.1267  0.1000
 7450W        W11501   7.724   2.281  11.616  0.1498  0.3704  0.0316
 7451W        W11502   2.711   4.036  12.157  0.0289 -0.0268  0.0802
 7452W        W11503   4.737   1.550   3.085  0.1802  0.0546  0.2378
 7453W        W11504   2.532   9.093   2.894 -0.0120  0.0191 -0.0395
 7454W        W11505   7.407   1.073   0.628  0.1636  0.0448  0.0583
 7455W        W11506   7.252   9.950  10.897  0.0114 -0.1067  0.1915
 7456W        W11507   5.834   0.836   2.594 -0.0378  0.0222 -0.0827
 7457W        W11508   2.816   3.220   2.930 -0.0449  0.1617  0.4210
 7458W        W11509   7.573   5.600   3.574 -0.3392 -0.0528  0.0783
 7459W        W11510   5.399   4.741  11.572 -0.2636 -0.2631 -0.2569
 7460W        W11511   7.779   0.960   1.842  0.0134 -0.1253  0.0218
 7461W        W11512   6.787   6.585  11.618 -0.1069  0.0786 -0.3599
 7462W        W11513   2.835   8.623   0.200  0.1169 -0.2690 -0.1795
 7463W        W11514   9.795   2.466   3.979  0.1078  0.1831 -0.0261
 7464W        W11515   9.802   0.041   0.452  0.1088  0.1746  0.1622
 7465W        W11516   1.125   3.797   9.074 -0.2290 -0.0645  0.2133
 7466W        W11517   8.799   7.292   4.609 -0.1333 -0.2048  0.1331
 7467W        W11518   1.448   8.891  12.479  0.3075  0.2327  0.0110
 7468W        W11519   7.625   6.704  11.142  0.1319 -0.2077  0.2881
 7469W        W11520   4.372   2.166  10.923 -0.1435  0.0696  0.3143
 7470W        W11521   5.607   8.196  13.833  0.1407  0.1216  0.1780
 7471W        W11522   9.025   5.196  12.828  0.2155  0.0833  0.0867
 7472W        W11523   1.797   5.642   2.616  0.0721 -0.0528  0.1313
 7473W        W11524   7.277   9.678   1.778  0.2309 -0.0156  0.0163
 7474W        W11525   0.279  10.146   2.947  0.1550 -0.1258 -0.1033
 7475W        W11526   7.160   4.053   3.946  0.0912 -0.2661  0.1838
 7476W        W11527   1.576   6.480   4.613  0.2469  0.1171 -0.2744
 7477W        W11528   3.401   2.786  13.885  0.0237  0.1883 -0.0707
 7478W        W11529   8.047   0.610   2.425  0.0238  0.0073  0.2111
 7479W        W11530   9.553   8.539  10.012  0.0609 -0.1125  0.2314
 7480W        W11531   3.069   7.541   1.840 -0.2228 -0.2741  0.0604
 7481W        W11532   3.816   4.077   4.104  0.1681  0.1708 -0.0149
 7482W        W11533   4.665   0.669  12.741  0.0254 -0.0248  0.1305
 7483W        W11534   7.566   5.216  12.203  0.1981  0.0710 -0.0968
 7484W        W11535   5.491  10.124   1.720 -0.2308 -0.1140  0.3314
 7485W        W11536   7.971   5.232  12.496 -0.0729 -0.1892 -0.2950
 7486W        W11537   5.745   0.145   9.540  0.1329 -0.0180  0.0520
 7487W        W11538   4.054   8.100  11.804 -0.0502 -0.2086  0.0643
 7488W        W11539   1.691   7.009  13.037  0.0069 -0.1659  0.0732
 7489W        W11540   0.820   4.688   1.102 -0.0975  0.1102  0.1408
 7490W        W11541   6.381   3.647   1.955 -0.0035 -0.0896 -0.0886
 7491W        W11542   7.817   2.228   4.175  0.1257  0.2415  0.0541
 7492W        W11543   5.525   3.578  10.091  0.1592 -0.0981 -0.0503
 7493W        W11544   3.065   5.653  11.921  0.5708  0.4126 -0.1374
 7494W        W11545   7.934   0.435   0.549  0.1530 -0.1666 -0.2405
 7495W        W11546   5.925   8.989  12.596 -0.0264  0.0991  0.1699
 7496W        W11547   4.080   5.715  10.817  0.1839 -0.2496  0.2673
 7497W        W11548   5.176   8.407  10.833 -0.2926 -0.0382  0.1543
 7498W        W11549   2.473   5.827   9.937 -0.1017  0.0743  0.1450
 7499W        W11550   3.195   6.767   3.033  0.2652 -0.2161 -0.0694
 7500W        W11551   2.783   2.879  11.270  0.0744 -0.0908 -0.1160
 7501W        W11552   0.579   4.308   3.703  0.0486  0.1254  0.0761
 7502W        W11553   3.755   8.371   1.732  0.0894 -0.0761 -0.1657
 7503W        W11554   8.848   2.309   1.976  0.1185 -0.1947 -0.2209
 7504W        W11555   8.989   3.435  13.563  0.3587  0.1151 -0.0762
 7505W        W11556   6.513   0.379   9.309 -0.1416  0.1357 -0.1160
 7506W        W11557   3.839   6.051  10.365 -0.0689  0.0424  0.0218
 7507W        W11558   9.213   1.806   5.370  0.1914  0.3272 -0.2577
 7508W        W11559   1.086   1.390   9.502  0.1641 -0.0352 -0.1529
 7509W        W11560   9.289   0.215  10.422  0.0438 -0.0746 -0.0183
 7510W        W11561   7.128   2.564   1.193 -0.0613  0.2628 -0.1123
 7511W        W11562   6.410   3.463   4.322  0.3177  0.1326  0.0702
 7512W        W11563   3.978   8.721  12.011 -0.2120  0.0193  0.0963
 7513W        W11564   6.161   4.028   3.169  0.0925 -0.0457 -0.0915
 7514W        W11565   4.589   4.813  10.914 -0.0510  0.1449  0.2303
 7515W        W11566   6.575   0.137   3.584  0.0571  0.1566  0.2618
 7516W        W11567   5.024   0.094   1.559  0.2699 -0.0026 -0.0805
 7517W        W11568   0.871   6.474   0.007  0.0609 -0.1726 -0.2191
 7518W        W11569   1.382   3.637  10.859 -0.1487 -0.2223  0.1054
 7519W        W11570   1.818   5.245   2.346 -0.2088  0.3636  0.0633
 7520W        W11571   2.047   9.515  13.234 -0.1983  0.0640 -0.3178
 7521W        W11572   7.503   8.478  11.682  0.3081 -0.0233  0.0556
 7522W        W11573  10.158  10.126  10.487  0.0972  0.0120 -0.3953
 7523W        W11574   5.635   9.805  13.677  0.1489 -0.2344  0.3820
 7524W        W11575   3.490   4.302  11.639 -0.0950 -0.2196 -0.3120
 7525W        W11576   6.981   1.540  13.916  0.0193 -0.2103  0.0950
 7526W        W11577   8.278   8.945   3.189 -0.3775 -0.1224 -0.2266
 7527W        W11578   8.549   2.847   0.569 -0.5041 -0.3856  0.0234
 7528W        W11579   3.827   9.682   4.041  0.1091  0.0755 -0.0101
 7529W        W11580   5.401   8.240   0.962 -0.2109  0.2052  0.2529
 7530W        W11581   3.642   0.611   1.395 -0.0697 -0.2656  0.2087
 7531W        W11582   4.154   3.304  13.146 -0.0587  0.3960 -0.1440
 7532W        W11583   3.145   9.982   0.606  0.1331  0.1816  0.2943
 7533W        W11584   6.351   6.145  10.875 -0.2522 -0.3626 -0.1642
 7534W        W11585   1.250   6.903   0.385  0.0216  0.0503  0.1571
 7535W        W11586   0.111   7.467   2.753 -0.0282 -0.0378 -0.1140
 7536W        W11587   3.856   6.113  13.074  0.0790 -0.0325  0.0061
 7537W        W11588   2.562   0.473  11.207  0.0611 -0.0075 -0.1274
 7538W        W11589   1.330   2.389   2.271  0.0382  0.2728  0.0288
 7539W        W11590   6.270   4.276   3.599  0.0038 -0.0650  0.4932
 7540W        W11591   7.332   0.985   9.627  0.0695  0.1921 -0.2796
 7541W        W11592   0.787   2.673   3.598 -0.1074 -0.0044  0.0928
 7542W        W11593   5.997   1.578  12.125 -0.1594  0.2101 -0.1364
 7543W        W11594   0.062   0.094  13.796  0.2753 -0.1738 -0.0093
 7544W        W11595   7.411   1.233  10.601  0.0191  0.0103 -0.0010
 7545W        W11596   6.751   0.489  10.351  0.0235 -0.2050 -0.1191
 7546W        W11597   9.420   1.620   0.709 -0.1288 -0.2380 -0.2573
 7547W        W11598   3.306   3.454   2.995  0.1971 -0.0368  0.1487
 7548W        W11599   6.803   0.692   2.401 -0.1589 -0.3022  0.3338
 7549W        W11600   0.680   6.130   2.981  0.0282 -0.1649  0.1544
 7550W        W11601   8.814   8.543  12.831 -0.0345 -0.0428  0.1444
 7551W        W11602   3.918   6.265  13.576 -0.2125 -0.0634 -0.1580
 7552W        W11603   7.659   9.134  12.338 -0.2692 -0.1527 -0.3686
 7553W        W11604   3.117   6.476   0.684  0.2103 -0.2544 -0.1344
 7554W        W11605   5.634   6.232  12.917 -0.0665  0.0896 -0.1034
 7555W        W11606   9.408   2.284  10.166  0.3625  0.0870  0.2213
 7556W        W11607   2.606   4.469   2.423 -0.1076 -0.2006 -0.1169
 7557W        W11608   0.218   4.545   2.274  0.2350 -0.0327  0.0643
 7558W        W11609   1.694   1.014   1.202  0.1321 -0.1228 -0.0400
 7559W        W11610   7.556   9.524   4.114 -0.1713 -0.1436 -0.0362
 7560W        W11611   6.283   0.078  10.448 -0.0198  0.1155 -0.0503
 7561W        W11612   7.698   2.772   3.490 -0.2174  0.0748  0.0152
 7562W        W11613   6.491   9.196   4.342 -0.1090 -0.1634  0.0065
 7563W        W11614   5.780   5.095   0.734 -0.0180 -0.0707  0.1664
 7564W        W11615   0.408   7.119   2.557 -0.2637  0.2041 -0.0036
 7565W        W11616   5.469   7.921  10.637 -0.0154  0.1644  0.0942
 7566W        W11617   5.734   8.012   1.249  0.0581 -0.0138 -0.3173
 7567W        W11618   5.236   1.226   5.004 -0.1723 -0.0225  0.0926
 7568W        W11619   5.215   3.845   1.254 -0.1347  0.0191 -0.3186
 7569W        W11620   2.387   0.815   3.446  0.0069 -0.4175  0.4813
 7570W        W11621   5.155   5.424  12.278 -0.3399 -0.2206  0.2657
 7571W        W11622   8.886   8.424   6.094  0.0996  0.1558  0.1387
 7572W        W11623   8.613   1.170  10.440  0.0608  0.0978  0.0174
 7573W        W11624   6.360   2.026   0.207  0.1618  0.0534  0.3416
 7574W        W11625   5.067   6.509  10.349  0.1280  0.4023  0.0281
 7575W        W11626   1.383   5.198   4.109 -0.1628  0.2358  0.0186
 7576W        W11627   7.380   8.119   4.698 -0.2512 -0.0890 -0.2122
 7577W        W11628   3.880   9.888   1.383  0.0808 -0.1458 -0.1222
 7578W        W11629   1.623   2.416   3.677  0.1117 -0.1195 -0.0317
 7579W        W11630   6.759   8.427  10.794 -0.2390 -0.3868  0.0075
 7580W        W11631   0.291   3.961  10.111 -0.1579 -0.1017  0.1943
 7581W        W11632   0.840   8.294   9.274  0.1476  0.2943  0.6354
 7582W        W11633   3.559   9.231  10.709  0.1987  0.0080 -0.1906
 7583W        W11634   1.914   4.086  12.521 -0.0314 -0.0607 -0.2012
 7584W        W11635   0.614   1.384   9.840 -0.2497  0.2345  0.2052
 7585W        W11636   8.646   4.330   2.472  0.2826 -0.3438 -0.3298
 7586W        W11637   5.830   9.954   9.809 -0.0462  0.1533  0.2883
 7587W        W11638   7.557   1.014  11.392  0.0868 -0.1944 -0.5244
 7588W        W11639   0.538   8.106   5.581 -0.1296 -0.0480 -0.1681
 7589W        W11640   1.706   5.924   9.823 -0.0656 -0.0974  0.1316
 7590W        W11641   4.233   6.248   1.043 -0.1028 -0.1431  0.0724
 7591W        W11642   8.793   1.719   0.116  0.0933 -0.0789  0.0595
 7592W        W11643   4.020   0.078   3.225 -0.0898 -0.3288 -0.1849
 7593W        W11644   1.639   7.379   4.446 -0.0348 -0.3109  0.2891
 7594W        W11645   8.752   8.583  12.330 -0.2317 -0.1300  0.1336
 7595W        W11646   9.570   8.893  13.788  0.1899 -0.1064 -0.0837
 7596W        W11647   4.918   5.984  13.661 -0.2436  0.1008  0.2590
 7597W        W11648   1.110   3.779  11.244  0.1391  0.1228 -0.1556
 7598W        W11649   2.111   1.290   2.086  0.1134  0.2556 -0.0527
 7599W        W11650   1.934   9.488   0.750  0.0731 -0.2250 -0.0247
 7600W        W11651   6.186   6.632  12.133 -0.0472 -0.2870  0.0042
 7601W        W11652   9.166  10.026  10.092 -0.0199 -0.0232  0.0911
 7602W        W11653   0.646   0.936   3.084 -0.2628 -0.0323 -0.0549
 7603W        W11654   6.174   5.742   3.902  0.1964  0.1566  0.0091
 7604W        W11655   4.120   9.359  10.746  0.1820  0.1329 -0.1427
 7605W        W11656   0.783   6.096   0.696  0.4429  0.1615  0.1933
 7606W        W11657   9.155   3.546   4.481 -0.3073 -0.2705 -0.1546
 7607W        W11658   5.494   0.860  12.233  0.0351 -0.0389 -0.1410
 7608W        W11659   5.848   6.269   2.238  0.2701 -0.0881  0.1126
 7609W        W11660   3.371   9.135  12.385  0.0987  0.0754  0.2954
 7610W        W11661   0.848   5.511  11.398  0.1034  0.3573  0.0741
 7611W        W11662   6.892   2.125  10.471 -0.3596 -0.1163  0.0755
 7612W        W11663   1.278   5.796  11.336 -0.1448 -0.2856 -0.1720
 7613W        W11664   1.773   2.572  10.505  0.0490  0.2229  0.1822
 7614W        W11665   6.430   4.363   2.878  0.4901 -0.2471 -0.1839
 7615W        W11666   6.697   0.119   1.184  0.1183 -0.0696 -0.0432
 7616W        W11667   2.491   2.033   4.788 -0.0999  0.0163  0.0667
 7617W        W11668   4.382   9.211   0.874 -0.0376  0.0929 -0.0046
 7618W        W11669   4.502   0.946   0.028  0.0265 -0.1515  0.3108
 7619W        W11670   5.088   7.989  12.105 -0.1736  0.1183 -0.0254
 7620W        W11671   7.838   3.804  13.079  0.2254 -0.0243  0.0925
 7621W        W11672   5.668   2.621   9.746  0.0638 -0.1018 -0.1168
 7622W        W11673   2.401   6.254  10.308 -0.2633 -0.0503 -0.0308
 7623W        W11674   4.917   0.975   2.915  0.2701 -0.1426 -0.0929
 7624W        W11675   0.748   6.934   4.542  0.0191 -0.0081  0.1374
 7625W        W11676   7.285   3.686  11.861 -0.0446 -0.2708  0.4291
 7626W        W11677   7.546   4.830  13.149  0.0254 -0.1530 -0.1943
 7627W        W11678   8.474   7.172  13.262 -0.1994 -0.0136 -0.2438
 7628W        W11679   2.667   6.750  10.208  0.0623 -0.1666  0.0911
 7629W        W11680   3.056   2.197  10.676  0.0722  0.3980 -0.0269
 7630W        W11681   8.847   6.497   0.222 -0.0430 -0.0264  0.0007
 7631W        W11682   5.696   2.407   0.295 -0.0862 -0.2978 -0.1309
 7632W        W11683   4.108   5.688  12.213 -0.2281  0.1499  0.1729
 7633W        W11684   1.601   5.160   1.638  0.1115  0.2686 -0.0782
 7634W        W11685   8.929   8.398   0.795  0.0904 -0.1039  0.0251
 7635W        W11686   9.242   8.400   1.196 -0.0955 -0.1756 -0.0966
 7636W        W11687   6.048   7.261  11.577 -0.1474  0.2887 -0.0094
 7637W        W11688   4.953   7.514   0.686 -0.2237 -0.1876 -0.0289
 7638W        W11689   5.504   2.885   0.192  0.2899 -0.1511 -0.3047
 7639W        W11690   5.809   9.378  10.715  0.1828  0.0622  0.0392
 7640W        W11691   0.747   0.493  10.511  0.1101  0.2834 -0.0627
 7641W        W11692   1.429   8.582   5.550 -0.0561  0.0509 -0.0682
 7642W        W11693   0.885   7.121  10.857  0.0696 -0.0632  0.2778
 7643W        W11694   0.770   1.516  10.801 -0.3186  0.1448 -0.1775
 7644W        W11695   1.734   5.481  12.605 -0.1376  0.1248  0.2299
 7645W        W11696   8.283   1.608   0.197  0.1539 -0.3983 -0.2721
 7646W        W11697   8.988   0.598  11.656 -0.2277  0.0106  0.1857
 7647W        W11698   9.658   0.983   3.189 -0.0782  0.4353 -0.2025
 7648W        W11699   8.442   2.583   2.077  0.4452 -0.2792 -0.0460
 7649W        W11700   7.325   9.402  12.008  0.1013 -0.1095  0.3833
 7650W        W11701   6.176   8.883   4.099 -0.3908  0.0471  0.2906
 7651W        W11702   2.314   5.454   2.515  0.2559  0.1995 -0.0907
 7652W        W11703   0.412   5.634  13.243  0.4745  0.0044 -0.3636
 7653W        W11704   7.362   9.270   4.521 -0.1163 -0.1455  0.0232
 7654W        W11705   2.818   7.713  13.965  0.2469  0.0440 -0.1604
 7655W        W11706   3.292   5.399  12.267 -0.0741 -0.1373 -0.0137
 7656W        W11707   1.585   9.443  10.917  0.1942  0.0649  0.1065
 7657W        W11708   1.049   4.253   0.790 -0.2613  0.0104  0.1676
 7658W        W11709   0.349   3.513   1.952  0.0143  0.1891  0.1647
 7659W        W11710   9.986   9.352   1.035 -0.0606  0.0867  0.0534
 7660W        W11711   3.897   1.759   3.486 -0.0877  0.3825  0.1617
 7661W        W11712   7.996   9.316   5.412 -0.1100 -0.2553  0.0564
 7662W        W11713   2.663   7.861  11.765 -0.0356  0.0665  0.3457
 7663W        W11714   4.286   6.552   3.991 -0.0284 -0.4173  0.0263
 7664W        W11715   5.005   9.116   3.170  0.1924  0.1853  0.0611
 7665W        W11716   7.667   5.414   1.146  0.1479 -0.2922  0.1724
 7666W        W11717   1.587   9.331   3.116 -0.0399 -0.0198  0.5282
 7667W        W11718   5.731   2.760  12.776  0.0147 -0.0637 -0.1270
 7668W        W11719   1.675   7.008  10.513 -0.0895  0.0037 -0.0118
 7669W        W11720   5.721   1.477   3.895 -0.1589 -0.1737 -0.0977
 7670W        W11721   5.625   4.058  13.381  0.1015 -0.1195 -0.1163
 7671W        W11722   1.379  10.131   9.663 -0.2426  0.1506  0.0490
 7672W        W11723   1.816   4.064  13.479 -0.1863  0.0792  0.2481
 7673W        W11724   6.063   0.730   1.360 -0.1486 -0.3270  0.0665
 7674W        W11725   8.810   5.744   9.880  0.1478  0.2260  0.0267
 7675W        W11726   7.145   7.090  12.423 -0.1638 -0.0694 -0.3952
 7676W        W11727   9.350   5.450   0.166  0.1115 -0.0096 -0.0631
 7677W        W11728   7.041   3.168  13.088 -0.0436  0.2105  0.2256
 7678W        W11729   9.525   1.475  13.785 -0.2118  0.2241  0.0757
 7679W        W11730   7.128   3.637  11.314 -0.1007  0.1455  0.1635
 7680W        W11731  10.098   3.791   3.359  0.2852 -0.1745 -0.2802
 7681W        W11732   3.839   2.150  10.213 -0.1972  0.0074  0.0491
 7682W        W11733   9.038   4.909  12.098 -0.1314  0.0538 -0.4149
 7683W        W11734   5.109   2.433  12.034  0.2366 -0.1015  0.0242
 7684W        W11735   7.817   8.018   0.864  0.0650 -0.3230 -0.0632
 7685W        W11736   6.950   3.671   1.905 -0.0898  0.2068  0.0993
 7686W        W11737   5.657   2.257  10.416  0.1133 -0.4320 -0.2352
 7687W        W11738   2.626   1.846   3.554  0.0296  0.2721 -0.1905
 7688W        W11739   5.940   5.693   3.066  0.0821 -0.1023  0.2837
 7689W        W11740   1.866   5.138  12.943 -0.0446  0.0594  0.1484
 7690W        W11741   9.886   0.364  10.300  0.2426 -0.1748  0.0810
 7691W        W11742   8.037   1.133  11.465 -0.0926  0.2017 -0.2013
 7692W        W11743   7.980   9.259  10.420 -0.0547  0.0978 -0.1276
 7693W        W11744   5.159   2.241  13.573  0.0842  0.1189 -0.2030
 7694W        W11745   0.811   3.270  13.325  0.1522 -0.0952 -0.1097
 7695W        W11746   0.601   5.897   3.565  0.0346 -0.0519  0.3782
 7696W        W11747   5.732   8.928   2.072  0.2257  0.0443 -0.2299
 7697W        W11748   3.040   9.219  11.982 -0.1300  0.2720  0.0586
 7698W        W11749   3.999   1.467  12.825  0.0786  0.3187  0.1708
 7699W        W11750   0.001   8.597   1.858  0.0022 -0.0468  0.2679
 7700W        W11751   6.898   7.860   3.766 -0.3282  0.0256  0.0514
 7701W        W11752   9.199   5.494  13.669  0.1183 -0.0074  0.2239
 7702W        W11753   4.961   8.353   3.686  0.2519  0.2442 -0.0951
 7703W        W11754   4.443   2.532   0.902 -0.0075  0.3053  0.0253
 7704W        W11755   9.600   4.817   1.010  0.1097  0.0029  0.1833
 7705W        W11756   6.686   2.585  10.663 -0.0058 -0.2839 -0.0637
 7706W        W11757   3.652   4.710  13.035  0.1908  0.0139 -0.0481
 7707W        W11758   6.277   4.004   2.481 -0.1220 -0.0797 -0.0189
 7708W        W11759   8.805   9.963  11.928  0.0609 -0.1078 -0.1738
 7709W        W11760   7.757   3.831  11.882  0.0517 -0.0225  0.0281
 7710W        W11761  10.036   2.037   9.669  0.3992  0.0806 -0.1934
 7711W        W11762   2.900   5.375   4.365  0.0244  0.0835  0.0110
 7712W        W11763   5.593   2.737   3.028  0.2628 -0.0081 -0.1018
 7713W        W11764   3.241   9.840  10.229  0.0833 -0.1194  0.1802
 7714W        W11765   4.166   5.739  12.766 -0.0591 -0.1824 -0.1124
 7715W        W11766   1.232   5.038   9.628  0.0027 -0.0014  0.0619
 7716W        W11767   9.679   0.021  11.293 -0.0502 -0.1268  0.0614
 7717W        W11768   0.887   1.368   9.048  0.0110  0.1994  0.2046
 7718W        W11769   8.722   0.334  11.195  0.2283 -0.2451 -0.0528
 7719W        W11770   4.088   1.468   9.084 -0.0596  0.0291 -0.1830
 7720W        W11771   0.831   4.253   2.537  0.2307  0.2412  0.2240
 7721W        W11772   4.954   5.430   3.167  0.1312 -0.0846 -0.2125
 7722W        W11773   5.798   8.480  12.470 -0.1221 -0.1099  0.2085
 7723W        W11774   1.889   1.448  11.973 -0.2048  0.0791  0.0526
 7724W        W11775   6.082   6.253   1.578 -0.1003  0.2822  0.1362
 7725W        W11776   3.321   0.866   4.962  0.1630 -0.2108 -0.1506
 7726W        W11777   7.711   3.043   9.893  0.1590  0.0866 -0.1659
 7727W        W11778   9.313   3.633  12.424  0.0245  0.0142 -0.6154
 7728W        W11779   3.794   2.128   3.125  0.1957  0.1739 -0.1165
 7729W        W11780   1.034   1.797   9.856  0.1456  0.4272  0.0893
 7730W        W11781   2.318   9.018   4.546  0.2246  0.0557  0.2626
 7731W        W11782   7.350   9.072   9.568 -0.2121  0.1145  0.1820
 7732W        W11783   9.197   1.834  12.702  0.0229 -0.2758 -0.0850
 7733W        W11784   3.832   5.214   3.939 -0.0879  0.2534 -0.0302
 7734W        W11785   8.085   1.514  12.396  0.1651  0.2378 -0.3395
 7735W        W11786   9.481   0.350   9.063  0.0652  0.0169  0.3327
 7736W        W11787  10.048   5.894   2.663 -0.0726  0.0774  0.3424
 7737W        W11788   2.284   2.738   0.573  0.0489  0.0776 -0.0070
 7738W        W11789   8.309   1.208  13.323  0.1411  0.1622 -0.3166
 7739W        W11790   9.258   4.696  10.652  0.1088 -0.1121 -0.1569
 7740W        W11791   6.323   5.044  11.371 -0.4111  0.0626 -0.1294
 7741W        W11792   6.044   6.654  12.798 -0.1098 -0.3412 -0.1242
 7742W        W11793   9.835   1.853   4.653 -0.2789  0.2277 -0.2291
 7743W        W11794   0.393   3.994  12.640  0.0983  0.0115 -0.1653
 7744W        W11795   1.222   9.226   4.513  0.3139 -0.0296  0.0433
 7745W        W11796   3.247   0.514   2.319 -0.1547  0.0957  0.0999
 7746W        W11797   6.669   4.086   1.147  0.0336 -0.1199  0.3259
 7747W        W11798   4.846   0.371   9.952 -0.2636  0.1999 -0.1830
 7748W        W11799   7.854   0.289  13.457 -0.1869 -0.1948  0.0159
 7749W        W11800   7.892   9.207   3.842 -0.0187  0.1215 -0.1837
 7750W        W11801   6.158   4.842   0.542  0.1476 -0.1192  0.0732
 7751W        W11802   0.579   9.714  12.764 -0.1786  0.1822 -0.2367
 7752W        W11803   6.919   9.438   0.757 -0.1007  0.0758  0.0762
 7753W        W11804   0.246   5.357  13.673  0.1226  0.2045 -0.0024
 7754W        W11805   4.930   5.995   3.074  0.2126 -0.0743 -0.0857
 7755W        W11806   5.423   7.983   4.054 -0.0574 -0.0030 -0.1630
 7756W        W11807   3.469   0.069   1.377 -0.2388  0.1600 -0.0335
 7757W        W11808   0.799   8.454   0.782  0.0356 -0.2897 -0.0119
 7758W        W11809   1.834   6.307  10.122 -0.1815  0.0410 -0.2630
 7759W        W11810   7.185   7.042   1.116 -0.1904  0.0975 -0.1984
 7760W        W11811   0.914   2.202   2.601  0.1018  0.0149  0.0572
 7761W        W11812   6.185   8.915   1.333 -0.0660 -0.0570 -0.0331
 7762W        W11813   9.206   2.321  12.458  0.3169  0.2914  0.1147
 7763W        W11814   0.515   1.953  12.869  0.3054  0.0079  0.0624
 7764W        W11815   8.130   4.460  11.260  0.3443 -0.0442 -0.1935
 7765W        W11816   2.168   4.495   1.194  0.2117  0.1932  0.2030
 7766W        W11817   4.143   8.737   0.452 -0.3754 -0.1847 -0.0131
 7767W        W11818   9.000   2.837   4.638 -0.0669 -0.1409  0.2757
 7768W        W11819   8.290   0.795   0.524 -0.1538  0.3963  0.0512
 7769W        W11820   5.742   6.999  10.786 -0.2496 -0.1139 -0.0603
 7770W        W11821   5.941   2.358  11.831 -0.0260 -0.2871  0.1909
 7771W        W11822   8.858   1.615   9.666  0.0327  0.1016  0.0574
 7772W        W11823   5.367   7.899  12.498 -0.3347  0.1911  0.3768
 7773W        W11824   1.346   8.723  11.486 -0.0961  0.0906  0.1280
 7774W        W11825   2.819   8.831   1.158 -0.0690 -0.2239 -0.1892
 7775W        W11826   4.109   6.967   2.606 -0.3016  0.3594 -0.1892
 7776W        W11827   8.530   5.198  11.336  0.0447  0.0302 -0.1078
 7777W        W11828   6.038   4.755   1.595  0.1650 -0.2132  0.1414
 7778W        W11829   2.435   3.897  11.697 -0.2686 -0.1235 -0.2027
 7779W        W11830   3.625   2.633  12.889 -0.5635  0.2873 -0.2306
 7780W        W11831   0.298   4.093  13.924 -0.3643  0.3054 -0.0609
 7781W        W11832   6.126   9.866   2.458  0.0832 -0.1080 -0.0660
 7782W        W11833   4.227   8.664  13.461  0.0598 -0.0297 -0.1810
 7783W        W11834   9.685   5.222   2.166  0.0760  0.3076 -0.0602
 7784W        W11835   9.826   8.453  13.236 -0.4393  0.1685  0.0401
 7785W        W11836   8.922   7.240  12.950 -0.0382 -0.0897  0.1609
 7786W        W11837   6.442   6.970   3.366  0.0514 -0.0562  0.0572
 7787W        W11838   0.804   7.624  11.678 -0.0629 -0.1700 -0.1953
 7788W        W11839   2.345   0.685  11.610  0.1455 -0.1286  0.1584
 7789W        W11840   2.737   5.094   1.572  0.0163 -0.1819 -0.0815
 7790W        W11841   8.366   0.239  13.235  0.0164 -0.0045 -0.1986
 7791W        W11842   9.596   0.179   9.863  0.1343 -0.0538  0.0115
 7792W        W11843   2.534   6.514  11.883  0.3045 -0.1749  0.2065
 7793W        W11844   7.107   4.290  13.067  0.0580 -0.2909  0.2510
 7794W        W11845   4.160   9.667   2.632  0.0105 -0.0624 -0.0487
 7795W        W11846   3.484   9.525   1.857 -0.2126  0.3918  0.2463
 7796W        W11847   7.489   0.361  11.989  0.1335  0.1542 -0.3132
 7797W        W11848   6.516   8.105  11.058  0.0866 -0.1387 -0.0975
 7798W        W11849   9.607   9.968  10.316 -0.2841  0.0980 -0.0741
 7799W        W11850   5.888   3.248  12.867  0.0541 -0.2432 -0.0860
 7800W        W11851   4.222   8.619   5.109 -0.2985 -0.1900 -0.0408
 7801W        W11852   6.830   1.263   4.459  0.2763 -0.1913  0.1053
 7802W        W11853   3.853   3.791  10.599 -0.0146 -0.0081  0.3819
 7803W        W11854   8.966   7.928   2.112 -0.1975  0.1867 -0.0718
 7804W        W11855   3.672   9.905   4.482 -0.0402  0.0313  0.2079
 7805W        W11856   8.005   7.143   4.044 -0.0389  0.2850  0.3312
 7806W        W11857   6.479   8.044   4.173 -0.0910 -0.2097 -0.1461
 7807W        W11858   2.815   4.442  12.504 -0.1133 -0.0221  0.1524
 7808W        W11859   6.146   2.927   0.869  0.5065  0.1431 -0.1284
 7809W        W11860   5.579   3.448  12.379  0.2826 -0.2581  0.2058
 7810W        W11861   6.368   2.880   4.489 -0.2908  0.2281 -0.2389
 7811W        W11862   3.466   4.111   0.332 -0.1509  0.0754  0.0604
 7812W        W11863   8.490   1.626   5.267 -0.2421 -0.1088 -0.0818
 7813W        W11864   8.502   6.105  12.509  0.4838 -0.2486  0.0722
 7814W        W11865   7.262   6.775   3.421 -0.3035  0.3405  0.0606
 7815W        W11866   7.700   7.261   0.331 -0.1849  0.1592 -0.1945
 7816W        W11867   7.897   1.779   4.992 -0.1240  0.2593  0.0700
 7817W        W11868   0.180   8.467   8.296 -0.2093  0.1868  0.0031
 7818W        W11869   3.034  10.016  10.731 -0.0414  0.0864  0.0757
 7819W        W11870   2.673   5.277  13.575 -0.2628 -0.1339 -0.1080
 7820W        W11871   2.713   1.889  12.471  0.0002 -0.1845 -0.1439
 7821W        W11872   7.594   6.145   4.055 -0.1074 -0.0924 -0.0422
 7822W        W11873   0.760   3.433  12.275  0.1189  0.1859 -0.0839
 7823W        W11874   1.346   7.458   1.915  0.0124  0.0704 -0.0913
 7824W        W11875   9.958   4.780  10.170  0.1007 -0.2233 -0.1880
 7825W        W11876   5.336   0.856   2.707  0.2624 -0.3713 -0.2948
 7826W        W11877   3.361   1.682  12.078 -0.0344 -0.1230 -0.0311
 7827W        W11878   6.081   6.840  11.138  0.0713 -0.3572 -0.1833
 7828W        W11879   6.910   3.793  10.015 -0.0493 -0.0771 -0.0403
 7829W        W11880   1.995   0.741   5.302 -0.1979  0.1681  0.0573
 7830W        W11881   1.959   2.957  10.723 -0.0321  0.2044  0.1293
 7831W        W11882   6.743   5.992  13.449  0.0988  0.0736 -0.3992
 7832W        W11883   8.412   6.463   9.539  0.0436  0.0467 -0.1565
 7833W        W11884   9.058   6.891  11.615  0.1708 -0.0355  0.0066
 7834W        W11885   0.665   0.061   1.593  0.0600  0.3124 -0.2626
 7835W        W11886   9.353   9.673  11.156 -0.0704 -0.1156  0.0094
 7836W        W11887   1.432   1.659  10.133 -0.1712  0.0868 -0.0924
 7837W        W11888   9.566   0.493  13.333  0.1040  0.4229 -0.0115
 7838W        W11889   4.479   0.776   1.315  0.0318 -0.5863 -0.0643
 7839W        W11890   5.408   0.584   1.172 -0.0869 -0.2096  0.3284
 7840W        W11891   8.375   4.936   3.741 -0.0894  0.0031 -0.0556
 7841W        W11892   1.139   5.828   4.285 -0.1475  0.1032  0.1488
 7842W        W11893   3.716   0.914  11.602  0.1676  0.1069  0.2094
 7843W        W11894   8.278   3.161   9.229  0.0440 -0.0249 -0.1001
 7844W        W11895   3.545   4.589   0.556 -0.1123 -0.2564  0.3498
 7845W        W11896   1.200   6.492   3.744 -0.0293 -0.0964  0.2580
 7846W        W11897   9.404   1.177   2.784 -0.0692  0.2625  0.0280
 7847W        W11898   9.759   2.512   5.649  0.3971  0.3292  0.1595
 7848W        W11899   8.479   5.728   2.733  0.0162 -0.0476 -0.2386
 7849W        W11900  10.045   2.449   0.832 -0.2437  0.0757 -0.3379
 7850W        W11901   8.578   4.538   2.945 -0.0798  0.2285 -0.2502
 7851W        W11902   0.874   4.653  11.825  0.3392  0.0361  0.1694
 7852W        W11903   8.280   0.189  13.771  0.1028 -0.0435  0.2187
 7853W        W11904   0.038   2.522  10.902  0.0287 -0.2631 -0.1011
 7854W        W11905   0.277   1.794   3.227  0.2565 -0.0766 -0.1612
 7855W        W11906   3.077   4.842  12.345 -0.3023  0.1224 -0.0006
 7856W        W11907   2.384   1.666  12.772  0.2418  0.1500 -0.0515
 7857W        W11908   9.246   4.127   9.639 -0.0089 -0.1164  0.3567
 7858W        W11909   2.619   0.213  11.836  0.2216  0.3205 -0.3071
 7859W        W11910   4.343   8.575  12.325 -0.1357  0.0088 -0.1566
 7860W        W11911   8.109   9.286   0.017  0.1612 -0.2282 -0.0447
 7861W        W11912   0.797   9.598  10.499 -0.1181  0.0876  0.1261
 7862W        W11913   8.257   7.058   1.122  0.0673  0.0971 -0.2172
 7863W        W11914   4.669   8.521   3.317 -0.0250  0.0114 -0.1378
 7864W        W11915   9.910   4.401   9.222 -0.1963 -0.0875  0.1009
 7865W        W11916   9.088   1.532   3.349 -0.0969 -0.0116  0.1241
 7866W        W11917   7.780   1.129  13.614  0.0700  0.0348 -0.2025
 7867W        W11918   1.790   6.215   0.934  0.1200 -0.0714  0.4887
 7868W        W11919   4.917   6.015  11.034 -0.0528 -0.2911 -0.2484
 7869W        W11920   5.484   8.629   8.890  0.2949 -0.1476 -0.2680
 7870W        W11921   9.127   7.734  12.804  0.1046  0.0291 -0.0068
 7871W        W11922   1.257   6.565   2.458 -0.2223  0.3046 -0.1788
 7872W        W11923   4.827   5.665  10.288 -0.1934  0.0980  0.1020
 7873W        W11924  10.001   0.960   9.619 -0.1224  0.0602  0.0960
 7874W        W11925   9.321   1.258   8.907  0.1245 -0.2577 -0.1492
 7875W        W11926   7.782   5.870  13.200 -0.3030 -0.1503 -0.0980
 7876W        W11927   0.973   0.924   9.277 -0.0535 -0.0351  0.4621
 7877W        W11928   1.055   5.574   1.724  0.1434  0.2358 -0.1778
 7878W        W11929   2.601   0.244   3.427  0.1572 -0.3237 -0.2130
 7879W        W11930   7.334   9.679   4.832 -0.0236  0.4986 -0.3913
 7880W        W11931   7.381   3.090  12.665  0.1227 -0.0476 -0.2094
 7881W        W11932   0.994   4.914  10.204  0.1681 -0.1337 -0.1220
 7882W        W11933   7.788   4.548   4.148  0.4466 -0.1721  0.1735
 7883W        W11934   6.843   1.793   0.300  0.2556  0.0010  0.2582
 7884W        W11935   8.535   5.727  12.110  0.1085  0.1542 -0.0534
 7885W        W11936   2.387   4.159  12.736  0.0917  0.1023  0.3875
 7886W        W11937   6.859   6.680   1.319  0.1596  0.0299 -0.1220
 7887W        W11938   8.448   5.028   0.640 -0.2303 -0.2257 -0.2986
 7888W        W11939   6.332   1.234   5.261  0.0167  0.0898  0.0601
 7889W        W11940   7.636   5.495   3.060 -0.2114 -0.1808 -0.0878
 7890W        W11941   0.861   7.248   5.387  0.1392 -0.2255  0.0217
 7891W        W11942   8.582   0.527   0.026 -0.2961  0.1157 -0.0191
 7892W        W11943   8.393   0.318   2.097  0.4274  0.2431  0.1276
 7893W        W11944   0.689   5.592   2.798 -0.2001 -0.3236  0.1143
 7894W        W11945   2.592   6.358   4.353 -0.2089 -0.3054 -0.0392
 7895W        W11946   6.276   9.766  10.667 -0.1282 -0.1798 -0.4036
 7896W        W11947   6.456   4.497   4.473 -0.1037  0.1190  0.0368
 7897W        W11948   8.282   3.968  11.902 -0.1273  0.1187 -0.2528
 7898W        W11949   9.926   4.102   4.612 -0.0572 -0.3099 -0.1313
 7899W        W11950   7.050   8.521   1.742 -0.4042  0.0187  0.1995
 7900W        W11951   4.756   9.549   0.942  0.5575 -0.0281  0.0419
 7901W        W11952  10.055   7.874  12.512  0.0752  0.2962 -0.0237
 7902W        W11953   7.937   8.137   1.340  0.2830  0.1124 -0.0736
 7903W        W11954   4.527   7.391   2.564 -0.0970  0.1085  0.1280
 7904W        W11955   9.206   7.385   9.586  0.0971 -0.0010 -0.0320
 7905W        W11956   0.056   7.434  12.230  0.1270 -0.0270  0.0820
 7906W        W11957   3.887   1.489  11.455 -0.0826  0.2193 -0.0762
 7907W        W11958   6.694   7.450   1.562  0.0057 -0.2585  0.1338
 7908W        W11959   8.279   9.150   4.171  0.0521  0.2807 -0.1731
 7909W        W11960   3.161   0.198  11.090  0.0310 -0.0588  0.2706
 7910W        W11961   0.997   9.507  11.438  0.0061 -0.0811  0.0057
 7911W        W11962   5.377   3.412   0.948  0.0562  0.2824  0.1850
 7912W        W11963   7.774   1.956  12.505  0.1564  0.0597 -0.1128
 7913W        W11964   3.892   0.729  13.928 -0.1814 -0.0908 -0.0044
 7914W        W11965   2.050   2.876   3.122  0.0459 -0.1670  0.0282
 7915W        W11966   2.714   5.113   3.420  0.0810 -0.0283 -0.0803
 7916W        W11967   5.830   5.797  12.898 -0.0446  0.3383 -0.2642
 7917W        W11968   7.907   3.264   0.172  0.1738 -0.0437 -0.0398
 7918W        W11969   3.035   2.153   1.908  0.0728  0.0443  0.0970
 7919W        W11970   2.137   9.441   4.473  0.0598  0.2315  0.4787
 7920W        W11971   2.202   6.718  12.264  0.0999  0.0773  0.0616
 7921W        W11972   0.314   1.296   0.857  0.0357  0.4103  0.1921
 7922W        W11973   3.476   1.905   2.793  0.0149  0.1947 -0.1682
 7923W        W11974   5.450   7.563   1.595  0.0961 -0.0878  0.0949
 7924W        W11975   2.466   0.349   4.341 -0.3863 -0.1030  0.0893
 7925W        W11976   6.878   9.190  13.344  0.1377 -0.0575  0.0743
 7926W        W11977   6.263   2.822   1.430  0.1210  0.0141  0.1245
 7927W        W11978  10.050   7.091   4.181  0.2839 -0.1851 -0.1511
 7928W        W11979   7.400   5.071  10.687 -0.0546  0.1085 -0.1874
 7929W        W11980   8.085   0.456   1.672 -0.1060  0.0381 -0.1772
 7930W        W11981   7.344   3.180   2.887 -0.1269  0.1464  0.0465
 7931W        W11982   8.437   3.013   1.430  0.0857 -0.1952  0.2442
 7932W        W11983  10.142   1.383   5.535  0.1724  0.0860  0.3274
 7933W        W11984   5.572  10.071  12.294 -0.1678  0.1639  0.0835
 7934W        W11985   9.085   7.813   0.374  0.3234 -0.0368  0.2336
 7935W        W11986   3.906   4.218   0.558  0.2709  0.1464  0.0355
 7936W        W11987   4.819   5.563   1.262  0.2724  0.0569 -0.3172
 7937W        W11988   0.849   2.837  12.283 -0.0584 -0.1805  0.4416
 7938W        W11989   1.422   0.173   8.451  0.3461 -0.0334  0.3273
 7939W        W11990   9.851   6.170  13.069  0.0875  0.1764  0.0762
 7940W        W11991   2.418   7.399  11.595 -0.2775  0.0909  0.0748
 7941W        W11992   5.743   8.575  11.599 -0.1742  0.0413 -0.3584
 7942W        W11993   2.051   5.765  10.143 -0.0433 -0.2306 -0.1043
 7943W        W11994   6.148   5.281   2.795  0.0631  0.0013  0.1194
 7944W        W11995   2.213   1.043  13.517 -0.0528 -0.2432  0.0053
 7945W        W11996   0.921   7.652   3.926  0.2880 -0.1937  0.0216
 7946W        W11997   6.353   0.880   1.866 -0.0260  0.1968 -0.3871
 7947W        W11998   0.081   1.301  11.373 -0.1669  0.0356 -0.0938
 7948W        W11999   2.660   0.321   9.647 -0.0106  0.0466 -0.0644
 7949W        W12000   7.728   2.768   0.961 -0.0121 -0.0530 -0.1022
 7950W        W12001   7.946   3.796  14.036 -0.2470 -0.0404  0.0199
 7951W        W12002   7.679   4.225  12.141  0.0784  0.3144  0.1127
 7952W        W12003   0.747   8.751  10.113 -0.1727  0.3851 -0.3414
 7953W        W12004   0.667   2.183   9.698 -0.2055  0.1095  0.0334
 7954W        W12005   5.594   6.622  13.637 -0.2603 -0.5198  0.0851
 7955W        W12006   2.612   2.727   2.350 -0.6260  0.0983  0.1142
 7956W        W12007   0.630   6.573   4.824 -0.1940  0.5878 -0.1756
 7957W        W12008   7.448   2.993  13.261  0.2603 -0.1443 -0.1833
 7958W        W12009   1.285   6.504   1.556 -0.2773 -0.0185  0.0185
 7959W        W12010   9.999   1.383  10.380 -0.0668 -0.0893 -0.3189
 7960W        W12011   0.124   5.520   4.047  0.0879 -0.0341 -0.2287
 7961W        W12012   0.416   9.385   1.808  0.1419 -0.4751  0.1167
 7962W        W12013   2.647   0.719   1.269 -0.0358  0.3196  0.0100
 7963W        W12014   5.319   7.733   2.163 -0.1925  0.1641  0.0497
 7964W        W12015   2.251   7.030  10.081 -0.3055  0.1085  0.0104
 7965W        W12016   9.258   3.930   8.732 -0.1138 -0.0994 -0.1449
 7966W        W12017   6.682   0.008  10.164  0.1282 -0.1937 -0.2741
 7967W        W12018   6.746   9.646   2.489 -0.0272  0.0912  0.1399
 7968W        W12019   1.849   9.711  10.393  0.1606 -0.0613 -0.2478
 7969W        W12020   9.254   2.559   2.390  0.0803 -0.0476 -0.0796
 7970W        W12021   3.797   1.490   1.114 -0.0991 -0.1822 -0.0761
 7971W        W12022   1.230   6.687  12.340  0.0135  0.2113 -0.1047
 7972W        W12023   9.243   1.177  13.436 -0.2393 -0.0875  0.3286
 7973W        W12024   2.305   4.359  10.154 -0.0675  0.1788  0.2894
 7974W        W12025   7.351   1.972  11.645  0.0748 -0.0681  0.0007
 7975W        W12026   2.573   6.733  13.646 -0.0734  0.0666  0.0562
 7976W        W12027   8.924   1.407   0.450  0.0604  0.0326 -0.1813
 7977W        W12028   3.575   0.309   0.952 -0.1548 -0.1622 -0.0451
 7978W        W12029   5.177   0.525  10.564 -0.0004 -0.2720 -0.1840
 7979W        W12030   4.938   1.379   9.957  0.0194 -0.1676 -0.2072
 7980W        W12031   2.202   7.060  13.606  0.1196 -0.0320 -0.2582
 7981W        W12032   1.483   9.209   4.947 -0.4310  0.0198  0.2740
 7982W        W12033   7.817   1.918  12.988 -0.0970 -0.1505  0.1237
 7983W        W12034   6.749   1.401   2.512 -0.3449 -0.0464 -0.2238
 7984W        W12035   6.771   6.244  12.956  0.2387 -0.1346 -0.0041
 7985W        W12036   6.517   1.319   4.783  0.2181  0.2134 -0.1394
 7986W        W12037   3.286   8.578   3.116 -0.2556 -0.1244  0.1503
 7987W        W12038   8.985   9.747   0.982  0.0816 -0.0997  0.0254
 7988W        W12039   9.291   6.687  13.751  0.1577  0.0612  0.0708
 7989W        W12040   4.743   8.659  13.158  0.1203 -0.2229 -0.1530
 7990W        W12041   0.306   0.431  12.263  0.2791 -0.2319  0.0140
 7991W        W12042   8.722   7.460   2.376  0.2993  0.0977 -0.0332
 7992W        W12043   1.150   5.192   3.371 -0.1205  0.1126 -0.2440
 7993W        W12044   6.166   8.044   0.969  0.0639 -0.1367  0.0027
 7994W        W12045   2.637   6.970  12.140  0.0734  0.3480  0.2623
 7995W        W12046   7.634   3.556  11.429 -0.1980  0.2011  0.0344
 7996W        W12047   7.136   2.318   2.128  0.0206  0.0955  0.3040
 7997W        W12048   3.545   1.802   3.796  0.0296  0.0335 -0.3799
 7998W        W12049   6.388   1.178   9.764 -0.1403 -0.3832  0.1017
 7999W        W12050   2.094   9.258  10.326  0.1079 -0.0138  0.1160
 8000W        W12051   7.798   9.928  11.789  0.0947  0.0723 -0.4810
 8001W        W12052   8.181   9.741   0.414 -0.2295 -0.1534  0.2668
 8002W        W12053   0.025   3.169   3.196 -0.1202 -0.0102  0.0626
 8003W        W12054   6.854   7.323   2.576 -0.2628 -0.0837 -0.2294
 8004W        W12055   8.417   8.941  11.601 -0.2273  0.0871 -0.0752
 8005W        W12056   9.681   0.186  10.817  0.0251 -0.0824  0.0843
 8006W        W12057   2.522   5.261   0.010  0.2249  0.1154  0.2896
 8007W        W12058   2.135   8.790  10.477 -0.0782  0.1534  0.3175
 8008W        W12059   4.577   0.776  11.148  0.2801  0.3329 -0.1117
 8009W        W12060   8.243   1.438   1.737  0.0130  0.0518 -0.2045
 8010W        W12061  10.049   2.225   5.430 -0.0816  0.3687 -0.3126
 8011W        W12062   1.204   6.848  11.832 -0.2801 -0.0613  0.0184
 8012W        W12063   8.402   4.663  12.956 -0.0491  0.1524 -0.0373
 8013W        W12064   1.331   6.650  12.841  0.0730  0.0462 -0.3459
 8014W        W12065   4.456   4.411  13.905 -0.2000 -0.1854  0.2413
 8015W        W12066   1.767   5.082   4.922 -0.3506  0.2960 -0.1481
 8016W        W12067   1.257   4.424   1.197 -0.1022  0.0307 -0.1835
 8017W        W12068   5.212   7.593   9.728 -0.0649 -0.0896  0.2583
 8018W        W12069   3.091   3.312  10.376 -0.4003 -0.0410 -0.1186
 8019W        W12070   1.401   0.917  11.683 -0.0193 -0.1980 -0.0626
 8020W        W12071   6.435   6.176   2.455 -0.1055 -0.1859 -0.1198
 8021W        W12072   2.639   3.695   1.656  0.1147  0.2036 -0.1419
 8022W        W12073   3.648   1.832  11.173  0.1719  0.2027  0.1527
 8023W        W12074   9.145   6.623   3.104  0.1426 -0.0412 -0.2576
 8024W        W12075   0.718   7.620  10.812  0.3052 -0.0229  0.2801
 8025W        W12076  10.004   7.010   9.040 -0.2022 -0.2354  0.1087
 8026W        W12077   7.786   1.158  12.107  0.0363  0.1514  0.0683
 8027W        W12078   9.716   0.487   0.019  0.0840 -0.1214 -0.1659
 8028W        W12079   7.959   4.905  12.927 -0.1398  0.7144  0.2707
 8029W        W12080   4.882   3.819  11.526  0.0427  0.0984 -0.5141
 8030W        W12081   7.066   4.103  11.973  0.1788 -0.1326 -0.0321
 8031W        W12082   3.852   4.550   3.070 -0.1561 -0.0074  0.1376
 8032W        W12083   3.810   0.925   4.856  0.1222 -0.0252  0.0593
 8033W        W12084   7.310   3.461   1.200 -0.2187 -0.1248 -0.0326
 8034W        W12085   9.348   1.394   1.459  0.0121  0.2123 -0.1117
 8035W        W12086   4.174   9.912  10.676  0.2717  0.1403  0.2070
 8036W        W12087   3.034   7.759   4.781 -0.1390 -0.0738 -0.0353
 8037W        W12088   2.013   2.164   4.895 -0.0394 -0.0566  0.4592
 8038W        W12089   4.122   6.373  10.629 -0.0771  0.0105 -0.1548
 8039W        W12090   7.690   2.639   4.956  0.1438  0.2030 -0.2530
 8040W        W12091   7.615   9.650  12.570  0.1734 -0.1790 -0.1293
 8041W        W12092   7.345   6.471   4.392 -0.2731 -0.0785 -0.0362
 8042W        W12093   0.886   9.021  12.255  0.0629 -0.2604  0.0428
 8043W        W12094   8.534   2.960   5.020  0.2150  0.3094  0.1749
 8044W        W12095   1.137   3.691   0.672 -0.0875  0.0932 -0.2061
 8045W        W12096   8.017   4.448  13.856 -0.3542  0.3162  0.1105
 8046W        W12097   5.739   0.532  11.398 -0.1090 -0.0034  0.0376
 8047W        W12098   5.542   1.395  12.310 -0.1399 -0.0187 -0.0828
 8048W        W12099   0.060   9.553   2.089 -0.0728  0.0473  0.0008
 8049W        W12100   1.380   8.134  10.502  0.0103 -0.0413 -0.1498
 8050W        W12101   8.523   5.332  13.767  0.0214 -0.1809  0.0876
 8051W        W12102   3.316   8.977   1.061 -0.2259  0.0726 -0.0956
 8052W        W12103   9.732   7.544   4.718  0.0378  0.0648  0.0350
 8053W        W12104   1.115   0.267   2.160 -0.0183 -0.0707 -0.0763
 8054W        W12105   4.499   1.107   4.022  0.0486  0.1477 -0.0886
 8055W        W12106   2.902   1.632   1.636 -0.1953 -0.0421  0.2181
 8056W        W12107   8.128   1.751  10.067  0.2461 -0.0383  0.1679
 8057W        W12108   0.912   9.675   4.581  0.4983 -0.1649  0.0632
 8058W        W12109   7.666   2.275   0.753 -0.0723 -0.1273  0.3223
 8059W        W12110   8.767   3.425   1.505  0.1026  0.3642 -0.0362
 8060W        W12111   1.948   8.789   1.813  0.3633  0.1716  0.3791
 8061W        W12112   0.763   5.133  13.168  0.1499 -0.1204  0.1178
 8062W        W12113   1.276   1.137   3.080 -0.2501 -0.0278 -0.2239
 8063W        W12114   4.322   4.586   3.516  0.2506 -0.1455  0.0820
 8064W        W12115   1.597   2.840  11.700 -0.3462 -0.1654 -0.0818
 8065W        W12116   1.155   3.809   2.596 -0.0375 -0.2794  0.2752
 8066W        W12117   2.701   3.412   0.512 -0.0190  0.0480  0.0966
 8067W        W12118   8.924   9.031   1.912  0.3041 -0.0144  0.3152
 8068W        W12119   7.923   8.157   3.844 -0.3730  0.1284  0.1666
 8069W        W12120   9.098   2.984   8.892  0.4007  0.2771 -0.1222
 8070W        W12121   4.481   6.276   0.597 -0.0709 -0.1332 -0.0453
 8071W        W12122   1.695   9.231  13.382  0.2219  0.0446 -0.1910
 8072W        W12123   0.868   9.743   1.656  0.2904  0.2061 -0.0206
 8073W        W12124   2.612   9.354   3.321 -0.2297  0.1239 -0.0676
 8074W        W12125   8.198   0.741   9.611  0.1054 -0.1433 -0.0236
 8075W        W12126   5.603   0.353   3.389 -0.1094  0.1753  0.1800
 8076W        W12127   9.582   2.407   1.173 -0.0996  0.2635 -0.0661
 8077W        W12128   9.956   0.447   1.883 -0.1567  0.0604 -0.4260
 8078W        W12129   8.163   8.197   1.984  0.0233  0.1311  0.1480
 8079W        W12130   5.179   9.132   0.329 -0.1972 -0.1163  0.2615
 8080W        W12131   6.144   0.982  12.866  0.1708  0.0153 -0.0651
 8081W        W12132   8.334   4.052  10.350 -0.1575  0.1959  0.5254
 8082W        W12133   9.526   8.057  11.236 -0.0713 -0.0886 -0.2542
 8083W        W12134   9.236   6.484   3.815 -0.2209 -0.0607 -0.0828
 8084W        W12135   1.028   9.892   9.153 -0.0813 -0.3041  0.0682
 8085W        W12136  10.062   1.646   4.160  0.0084  0.2310 -0.0184
 8086W        W12137   1.846   5.279   0.519  0.1028  0.1220  0.2395
 8087W        W12138   0.109   2.258  10.452 -0.0533 -0.0629  0.0058
 8088W        W12139   5.570   7.300  10.473 -0.0659  0.1872  0.3079
 8089W        W12140   9.625   8.046  12.228  0.3668  0.1330 -0.2711
 8090W        W12141   8.933   4.861   3.060  0.0093  0.0805 -0.1369
 8091W        W12142   2.884   2.274   4.853 -0.3458 -0.1639  0.0149
 8092W        W12143   7.952   2.066   2.497  0.0915 -0.1709 -0.0344
 8093W        W12144   6.937   8.464   1.262  0.0195 -0.0808  0.1155
 8094W        W12145   7.803   9.101  10.938 -0.2035 -0.0347 -0.2893
 8095W        W12146   1.745   7.787  10.441 -0.1668  0.1620 -0.1745
 8096W        W12147   5.305   1.163   4.255 -0.1364  0.0939  0.1737
 8097W        W12148   6.720   4.214   9.823  0.2365  0.2652  0.0333
 8098W        W12149   7.607   0.480   3.265 -0.3389  0.3390  0.1448
 8099W        W12150   8.003   9.250   2.392  0.2379  0.0349 -0.1358
 8100W        W12151   4.284   4.812   0.126  0.0693 -0.3148 -0.0955
 8101W        W12152   6.412   8.175   3.142 -0.2761  0.1724 -0.1289
 8102W        W12153  10.064   3.779  13.797  0.3064  0.0157  0.2177
 8103W        W12154   7.293   1.055   3.899  0.1784  0.0047 -0.0706
 8104W        W12155   2.985   9.694   0.949 -0.1365  0.0233  0.3070
 8105W        W12156   5.877   4.509  13.265 -0.1815 -0.0743  0.2505
 8106W        W12157   7.090   6.209   1.480  0.0390 -0.1317 -0.2332
 8107W        W12158   6.114   5.268   1.650 -0.1120 -0.0845 -0.2531
 8108W        W12159   1.800   3.111   0.113 -0.1560  0.2980  0.1421
 8109W        W12160   5.013   2.038   0.951 -0.2223  0.1064 -0.4679
 8110W        W12161   0.521   4.793  12.872 -0.1663 -0.3325  0.0121
 8111W        W12162   9.595   1.815   9.523  0.0236  0.0354  0.4278
 8112W        W12163   3.417   0.446  10.715  0.1477  0.3246 -0.0414
 8113W        W12164   2.023   7.740   1.069 -0.1643  0.3409  0.2476
 8114W        W12165   0.763   0.063   5.218 -0.1253  0.0440  0.2513
 8115W        W12166   2.849   5.758  13.656  0.0318  0.1516 -0.1413
 8116W        W12167  10.124   8.094  13.542 -0.0855  0.0169 -0.1017
 8117W        W12168   9.565   6.429   4.320 -0.0828 -0.1617 -0.1381
 8118W        W12169   7.803   1.704   4.292 -0.0805  0.2590 -0.0773
 8119W        W12170   8.457   8.339   4.517  0.1379  0.1332 -0.1082
 8120W        W12171   2.940   0.762   9.553 -0.1151  0.1365  0.0305
 8121W        W12172   9.213   8.759  12.524  0.4524  0.0951 -0.2718
 8122W        W12173   4.284   0.813   0.860  0.1436 -0.0879  0.2038
 8123W        W12174   8.416   6.998  13.707 -0.0397  0.0800 -0.0030
 8124W        W12175   1.476   5.068  10.251 -0.0560 -0.1961 -0.2397
 8125W        W12176   2.499   7.317   4.005 -0.2243 -0.1226 -0.1063
 8126W        W12177   5.137   0.807   9.724  0.2432  0.2781  0.2719
 8127W        W12178   7.663   4.844  11.050 -0.0586 -0.1068 -0.0502
 8128W        W12179   0.522   3.114  10.156 -0.1581 -0.3789 -0.1304
 8129W        W12180   3.273   2.046   3.288 -0.1642 -0.1101  0.0281
 8130W        W12181   1.763  10.047  11.158  0.0624  0.2079  0.1461
 8131W        W12182   1.026   2.487   4.865  0.0054 -0.2464  0.0969
 8132W        W12183   6.627   9.611   9.790  0.1036 -0.0365 -0.0704
 8133W        W12184   8.086   3.952   4.288 -0.0290  0.1447 -0.2459
 8134W        W12185   7.799   0.765  11.785  0.1832 -0.3738  0.1145
 8135W        W12186   9.169   4.490   4.285 -0.3520 -0.0297 -0.2032
 8136W        W12187   8.542   7.535  12.771  0.2126  0.0630 -0.2685
 8137W        W12188   2.181   3.175   3.576  0.2319  0.0521 -0.0935
 8138W        W12189   9.952   2.352  13.249  0.1187  0.0175 -0.0894
 8139W        W12190   0.287   8.849  10.496 -0.4154  0.3139 -0.1969
 8140W        W12191   7.862   3.423  10.912  0.2725 -0.0502  0.3195
 8141W        W12192   1.092   1.827  10.534 -0.0229  0.2230  0.2694
 8142W        W12193   8.093   4.461   4.546  0.1568  0.2228 -0.1684
 8143W        W12194   9.456   8.096   3.416 -0.0224  0.2430 -0.1187
 8144W        W12195   1.302   9.622   0.750  0.0991 -0.0209  0.0116
 8145W        W12196   0.925   4.988  11.200 -0.1338 -0.1366  0.0538
 8146W        W12197   1.576   2.284   2.755 -0.0687  0.1520 -0.2016
 8147W        W12198   6.411   3.192   3.870 -0.4013  0.0680  0.0461
 8148W        W12199   0.288   8.391   3.368  0.1456 -0.2883 -0.0114
 8149W        W12200   5.785   0.764   0.916  0.1809  0.3293 -0.0216
 8150W        W12201   5.469   0.535  13.472  0.0486  0.0679  0.0583
 8151W        W12202   7.952   9.294   3.328  0.1389 -0.2046  0.1444
 8152W        W12203   3.948   9.509   2.184 -0.1792  0.2348 -0.0278
 8153W        W12204   5.553   5.741  10.289 -0.2154  0.4082 -0.2412
 8154W        W12205   3.477   8.914   3.488  0.1053  0.0492  0.0142
 8155W        W12206   6.897   6.840  13.859 -0.0201 -0.3064  0.0770
 8156W        W12207   5.538   5.528   2.125 -0.3393  0.0047  0.1745
 8157W        W12208   5.475   1.240   1.740 -0.3024 -0.3820  0.0536
 8158W        W12209   0.980   1.447   5.165  0.0306 -0.2361 -0.2451
 8159W        W12210   3.833   0.057  11.873 -0.0412 -0.1687 -0.1394
 8160W        W12211   8.996   8.525  13.391 -0.0029  0.1308  0.2849
 8161W        W12212   6.717   2.321   3.727  0.0211 -0.3869 -0.4463
 8162W        W12213   2.040   4.166   0.389 -0.1525  0.2576 -0.5804
 8163W        W12214   9.968   6.491   1.561 -0.0562 -0.1416  0.2451
 8164W        W12215   0.881   4.601   1.702  0.1138 -0.1431  0.0269
 8165W        W12216   2.618   2.709   0.039  0.2061  0.1136 -0.1925
 8166W        W12217   4.767   7.744   2.892 -0.0039  0.3408  0.1983
 8167W        W12218   0.684   6.929  13.804 -0.1236 -0.1809  0.1937
 8168W        W12219   9.253   7.656   4.491  0.1713  0.0897  0.1296
 8169W        W12220   8.086   0.301  11.989 -0.1637 -0.4863  0.2518
 8170W        W12221   5.404   9.759  10.779 -0.0262 -0.0581  0.1145
 8171W        W12222   4.717   4.300   2.713  0.2228 -0.0573 -0.0030
 8172W        W12223   1.735   7.201   9.703 -0.0158  0.2048 -0.1382
 8173W        W12224   9.600   5.982   1.324 -0.0603 -0.1786 -0.2702
 8174W        W12225   4.333   1.097  10.807  0.2196  0.2985  0.0072
 8175W        W12226   3.347   2.979  10.091 -0.1857 -0.4271  0.0994
 8176W        W12227   4.221   0.617   3.355 -0.0376  0.0580  0.0288
 8177W        W12228   9.957   2.385   1.762  0.1710  0.1723 -0.1297
 8178W        W12229   1.745   3.715   9.503 -0.0187 -0.0921  0.4091
 8179W        W12230   6.661   9.039  12.058 -0.2533  0.0196  0.2116
 8180W        W12231   4.763   6.610  13.810  0.1683  0.4002  0.1005
 8181W        W12232   2.757   5.604   1.578 -0.1795 -0.2905 -0.3143
 8182W        W12233   0.970   6.271   3.384  0.1556  0.0400  0.2753
 8183W        W12234   3.921   4.500   3.845 -0.2328  0.3247  0.0466
 8184W        W12235   3.266   8.637   4.239  0.2818  0.1775 -0.2431
 8185W        W12236   6.034   6.865  13.432 -0.2357  0.2152  0.2564
 8186W        W12237   9.380   7.215   4.784  0.0016 -0.0390  0.0727
 8187W        W12238   7.077   7.587   9.652  0.0008  0.0552 -0.5138
 8188W        W12239   0.771   3.408   1.742 -0.2744  0.0831 -0.1236
 8189W        W12240   2.781   9.430  11.482  0.2553  0.1880  0.2117
 8190W        W12241   9.523   7.790  11.633 -0.1949 -0.1846 -0.0489
 8191W        W12242   5.776   4.418   3.534  0.1982 -0.2443  0.2984
 8192W        W12243   8.760   5.846   2.362  0.1323  0.1528  0.1374
 8193W        W12244   0.417   0.341   1.256  0.0283  0.1432  0.2755
 8194W        W12245   4.328   0.200  11.880  0.5444  0.1878  0.2655
 8195W        W12246   2.508   5.565   3.174 -0.2485 -0.2055  0.2049
 8196W        W12247   7.112   2.088   9.994  0.1801 -0.1304 -0.2508
 8197W        W12248   8.517   6.555  10.030 -0.1720  0.0339 -0.2562
 8198W        W12249   9.944   8.938   4.425  0.1022 -0.1932 -0.0722
 8199W        W12250   7.204   1.857  13.266  0.0352 -0.0974 -0.1287
 8200W        W12251   6.480   2.818   2.506  0.0944  0.0920 -0.0523
 8201W        W12252   9.041   7.379   0.664  0.3452 -0.0641  0.1772
 8202W        W12253   6.131   4.904   1.060 -0.1998  0.2479  0.1867
 8203W        W12254   7.070   7.553  13.102  0.2545  0.0212  0.2702
 8204W        W12255   0.810   3.962   9.398 -0.1402  0.0620 -0.1302
 8205W        W12256   0.465   3.009   0.161  0.0782 -0.0841  0.3213
 8206W        W12257   7.300   2.334   5.321  0.2301 -0.4714 -0.0165
 8207W        W12258   4.149   2.138  13.723  0.2120 -0.1012  0.0113
 8208W        W12259   0.626   9.194   4.571 -0.1116  0.0610 -0.2524
 8209W        W12260   8.758   4.765  10.673  0.0501 -0.0962  0.0684
 8210W        W12261   3.884   0.238  11.426  0.1107  0.2220 -0.3569
 8211W        W12262   1.825   8.403   1.509  0.1061  0.3641  0.0569
 8212W        W12263   5.391   4.987   9.951 -0.2239  0.0815  0.1356
 8213W        W12264   4.950   1.519   0.712 -0.3428 -0.0754  0.0527
 8214W        W12265   8.430   6.238   2.572 -0.3502 -0.4184 -0.2009
 8215W        W12266   4.598   7.489   0.040  0.1593  0.0912  0.3124
 8216W        W12267   0.120   7.924   0.384 -0.1052  0.1688 -0.1768
 8217W        W12268   2.747   0.389   2.111 -0.0577 -0.0216  0.1138
 8218W        W12269   1.698   5.787   2.122 -0.0909 -0.3607  0.0285
 8219W        W12270   0.587  10.004   0.362 -0.0034  0.1269 -0.3368
 8220W        W12271   9.783   4.706   2.918  0.1969 -0.0464 -0.1722
 8221W        W12272   0.532   9.419  11.675  0.1734 -0.0334 -0.0740
 8222W        W12273   2.117   1.790   8.760 -0.0738 -0.0466 -0.0240
 8223W        W12274   9.691   9.509  12.169 -0.0974  0.1561  0.0952
 8224W        W12275   0.328   7.299  13.935 -0.1608 -0.3425  0.3877
 8225W        W12276   0.046   4.229  12.961 -0.0893 -0.1488  0.0534
 8226W        W12277   5.202   3.713  13.338  0.1218 -0.0561 -0.2767
 8227W        W12278   5.124   1.241   2.432 -0.1756 -0.1771  0.1456
 8228W        W12279   0.077   9.484  11.521  0.2056 -0.1245 -0.1302
 8229W        W12280   8.472   8.633   5.804 -0.0147  0.2200  0.0346
 8230W        W12281   1.685   2.843  13.061  0.0884 -0.1109 -0.0446
 8231W        W12282   5.757   5.639   0.185 -0.1607  0.2528  0.2535
 8232W        W12283   3.966   4.474  12.656 -0.4069 -0.0102  0.1360
 8233W        W12284  10.000   2.925   3.806 -0.0576  0.1258 -0.2312
 8234W        W12285   6.302   5.106   3.242 -0.0814 -0.1333 -0.1206
 8235W        W12286   4.038   5.011   1.485 -0.1944 -0.0366 -0.1609
 8236W        W12287   6.439   1.570   4.357 -0.1135  0.2196 -0.0606
 8237W        W12288   8.242   2.354  11.732 -0.4014 -0.0013  0.2291
 8238W        W12289   2.786   3.058  12.316 -0.1978  0.1327 -0.0333
 8239W        W12290   7.321   3.010   0.879  0.0986  0.0129 -0.0137
 8240W        W12291   4.784   8.399   9.846 -0.1083 -0.0467  0.2878
 8241W        W12292   9.877   0.005   3.246  0.4019  0.1367  0.0856
 8242W        W12293   8.760   4.817  12.609 -0.0391  0.0935  0.0592
 8243W        W12294   9.380   3.269   0.842  0.1923  0.1701  0.1856
 8244W        W12295   6.389   4.629   3.988 -0.1231 -0.0573  0.1624
 8245W        W12296   7.928   2.021  12.020  0.2120  0.0417  0.1070
 8246W        W12297   6.509   3.769   3.485 -0.1240  0.0224  0.2201
 8247W        W12298   8.350   5.411   4.152  0.1371  0.0142  0.0641
 8248W        W12299   0.384   8.969   0.146  0.1127 -0.0448 -0.0445
 8249W        W12300   5.922   7.715  10.458 -0.1353  0.1727 -0.4205
 8250W        W12301   9.797   9.593  11.282  0.3706  0.1896  0.3725
 8251W        W12302   3.656   8.792   3.918 -0.1790  0.2663  0.4695
 8252W        W12303   6.293   8.384   3.840  0.1754 -0.2074  0.1439
 8253W        W12304  10.141   4.003   5.084  0.2080  0.0931 -0.0142
 8254W        W12305   2.777   7.894   1.064  0.2321 -0.1236 -0.1658
 8255W        W12306   2.710   7.008   1.462 -0.2627  0.0394  0.1245
 8256W        W12307   5.110   2.143   1.863  0.1895 -0.2697  0.1867
 8257W        W12308   3.116   1.204   9.390 -0.0359 -0.0135  0.1452
 8258W        W12309   9.466   3.020  10.754  0.0752  0.1679  0.0526
 8259W        W12310   2.434   9.653   9.608  0.1145  0.3245  0.2547
 8260W        W12311   0.783   8.775   2.050 -0.0698  0.0545  0.3957
 8261W        W12312   7.730   3.486   2.578 -0.0316 -0.3041  0.1207
 8262W        W12313   0.481   8.683  12.347  0.0082 -0.1955 -0.0539
 8263W        W12314   0.454   8.082   2.547 -0.2771 -0.0082  0.0773
 8264W        W12315   8.527   5.367   5.271 -0.1158  0.1035  0.0548
 8265W        W12316   9.806   1.091  11.298 -0.1801  0.3120  0.1276
 8266W        W12317   1.719   0.907   3.051 -0.1018 -0.2475 -0.5799
 8267W        W12318   5.735  10.020   0.091  0.0652 -0.3380  0.1771
 8268W        W12319   2.765   9.677  10.460  0.3064  0.0853 -0.1957
 8269W        W12320   3.977   4.990  12.751 -0.4128  0.1926  0.3614
 8270W        W12321   9.270   6.423  12.293 -0.3580  0.0617  0.0257
 8271W        W12322   8.205   7.758  13.208 -0.0735  0.2063 -0.1011
 8272W        W12323   5.814   4.543   2.179  0.2324 -0.1256 -0.0611
 8273W        W12324   7.504   0.070   2.473 -0.2859  0.1080 -0.2475
 8274W        W12325   8.218   4.341   3.991 -0.0426 -0.0080  0.0238
 8275W        W12326   9.554   9.811  13.678  0.5170  0.0280  0.3726
 8276W        W12327   6.199   3.647  13.018  0.1930  0.0364 -0.2611
 8277W        W12328   5.041   8.740   9.138 -0.1064  0.2171  0.0762
 8278W        W12329   5.392   1.830  13.226  0.4923 -0.4272 -0.1623
 8279W        W12330   6.836   3.076   0.682  0.0454 -0.1675 -0.0171
 8280W        W12331   8.046   0.257   4.146  0.1333 -0.1779 -0.3666
 8281W        W12332   9.683   5.944  11.255  0.0917 -0.5924  0.0945
 8282W        W12333   6.478   5.139   0.238 -0.1554 -0.2699  0.1371
 8283W        W12334   2.644   7.790  12.951 -0.2318 -0.1159  0.2307
 8284W        W12335   5.655   8.770  12.069 -0.1063 -0.3023  0.2004
 8285W        W12336   6.870   8.109   4.471  0.0843 -0.1283 -0.2497
 8286W        W12337   9.124   8.052  13.892 -0.5605  0.0748 -0.0559
 8287W        W12338   4.649   2.291  10.403  0.1410  0.0813  0.0905
 8288W        W12339   8.058   3.593  13.580 -0.2067  0.0138 -0.2192
 8289W        W12340   4.360   6.929  10.016 -0.2301  0.2517 -0.1172
 8290W        W12341   9.691   3.660   4.419  0.1306 -0.2619  0.1026
 8291W        W12342   4.467   5.941   3.046  0.2645 -0.2366  0.1995
 8292W        W12343   8.438   1.179   0.247 -0.0050 -0.0080  0.0977
 8293W        W12344   0.716   0.264   3.802 -0.2357  0.2262  0.0522
 8294W        W12345   1.122   9.909   8.249 -0.4525 -0.0381 -0.0562
 8295W        W12346   9.713   2.026   0.864  0.1308 -0.0282 -0.1576
 8296W        W12347   3.169   6.453  12.433  0.2317  0.1715 -0.0114
 8297W        W12348   3.905   7.065  11.200  0.0402  0.0925  0.2428
 8298W        W12349   1.517   4.293   4.383 -0.0303  0.0065 -0.2052
 8299W        W12350   3.718   1.161  11.078 -0.0255  0.0094  0.0604
 8300W        W12351   5.345   1.740   2.548  0.2423  0.1629  0.1486
 8301W        W12352   0.481   7.602   3.065 -0.1324 -0.1356  0.0962
 8302W        W12353   3.201   7.695   1.296  0.2461 -0.5283  0.1346
 8303W        W12354   4.302   0.246   9.130  0.0738  0.3168  0.2836
 8304W        W12355   6.067   4.899  11.788 -0.0824 -0.0509 -0.0596
 8305W        W12356   6.012   9.713  12.480  0.1652  0.1975  0.2039
 8306W        W12357   8.324   8.414  11.627  0.2821  0.0209  0.0447
 8307W        W12358   2.792   7.516   1.430  0.3690  0.0416 -0.0223
 8308W        W12359   8.874   6.867  13.959 -0.1099  0.2525  0.0084
 8309W        W12360   7.135   3.974   2.388 -0.4090  0.4264 -0.3606
 8310W        W12361   0.564   5.077   2.699 -0.1224  0.0989 -0.2880
 8311W        W12362   2.683   3.267   4.248  0.1003  0.0229 -0.1906
 8312W        W12363   3.540   8.900  11.737  0.0665  0.0684  0.0278
 8313W        W12364   4.241   0.871   2.944  0.2805 -0.1971  0.0347
 8314W        W12365   7.609   7.182  11.343  0.1730  0.0275  0.2171
 8315W        W12366   0.014   5.918   4.868  0.0294  0.1420 -0.0268
 8316W        W12367   3.576   4.138  13.852  0.4539 -0.0282  0.1980
 8317W        W12368   9.427   8.461   0.727  0.2350  0.0047 -0.1416
 8318W        W12369   7.980   9.071   1.943  0.2596  0.0709  0.0981
 8319W        W12370   8.743  10.128   9.804 -0.1569 -0.1223 -0.0720
 8320W        W12371   4.366   5.315  12.653  0.1292  0.0006  0.1170
 8321W        W12372   3.557   0.266  12.221  0.0121 -0.1511  0.3309
 8322W        W12373   9.300   4.207   0.726  0.0659 -0.0721 -0.2275
 8323W        W12374   7.906   5.260   4.501  0.1656 -0.1075  0.2038
 8324W        W12375   2.147   3.443  13.912 -0.1118 -0.0636  0.1897
 8325W        W12376   4.752   8.669  13.657  0.2192  0.2271 -0.0928
 8326W        W12377   3.697   3.016   1.246  0.0698 -0.0978  0.1007
 8327W        W12378   2.426   4.407   4.609 -0.1800 -0.1306  0.2217
 8328W        W12379   1.864   4.617   9.984 -0.1442  0.2910  0.2040
 8329W        W12380   5.626   3.659  10.582  0.1763 -0.0354 -0.0202
 8330W        W12381   2.673   8.670  10.011 -0.0626 -0.1621 -0.1719
 8331W        W12382   9.628   8.429   5.356 -0.0850  0.0519 -0.0717
 8332W        W12383   1.323   7.546   2.429  0.2612 -0.0375 -0.0139
 8333W        W12384   8.314   2.882  13.025  0.1540 -0.1486 -0.1008
 8334W        W12385   7.104   2.440  11.841  0.0029  0.5057  0.1662
 8335W        W12386   7.644   6.210   0.534 -0.0558  0.2520  0.0158
 8336W        W12387   9.187   5.694   4.887  0.0247 -0.1208 -0.2120
 8337W        W12388   3.432   2.150   2.330 -0.3962 -0.2645  0.2140
 8338W        W12389   4.168   4.472   2.645 -0.0954  0.1290 -0.0187
 8339W        W12390   9.321   8.191  10.320 -0.0109 -0.1876 -0.2099
 8340W        W12391   5.494   9.640  12.534 -0.0598 -0.0292 -0.0883
 8341W        W12392   7.518   5.527   2.603 -0.1645  0.0756  0.0836
 8342W        W12393   6.372   6.673  10.794  0.0700 -0.0866 -0.2785
 8343W        W12394   3.718   5.307   9.847  0.0316 -0.1574 -0.0760
 8344W        W12395   1.256   7.377   0.079  0.0476 -0.0191 -0.3296
 8345W        W12396   7.452   3.631  10.633 -0.2124 -0.1513  0.3441
 8346W        W12397   3.326   3.157   3.808  0.5185  0.2050 -0.0823
 8347W        W12398   3.882   2.884  10.599  0.0785  0.3271 -0.2768
 8348W        W12399   8.238   2.759   1.021 -0.2735 -0.2774 -0.1968
 8349W        W12400   9.366   3.601   0.377 -0.0733 -0.1973 -0.2211
 8350W        W12401   2.969   1.592   3.221  0.2681  0.0894  0.1353
 8351W        W12402   9.648   4.719   1.512 -0.0342 -0.0097 -0.0460
 8352W        W12403   6.212  10.056  13.386  0.1524  0.1153 -0.3334
 8353W        W12404   9.354   3.125   3.795 -0.1273  0.1642  0.0507
 8354W        W12405   4.235   9.616   4.286  0.0256  0.0678  0.1722
 8355W        W12406   9.523   3.756  11.151 -0.1657  0.0539  0.1720
 8356W        W12407   2.260   0.031   1.753 -0.1087 -0.0269  0.5157
 8357W        W12408   3.693   7.805   1.130  0.1585  0.3655  0.0261
 8358W        W12409   3.845   6.965   1.520  0.2650 -0.0908  0.0796
 8359W        W12410   8.163   2.846   9.670 -0.0235  0.0076 -0.1905
 8360W        W12411   8.666   6.961   0.426  0.1192 -0.1055 -0.0351
 8361W        W12412   4.654   9.669   2.901 -0.0560  0.1890 -0.1168
 8362W        W12413   4.504   6.675  12.505  0.2158  0.0902  0.0988
 8363W        W12414   6.495   0.414  10.796  0.2089  0.3834  0.2152
 8364W        W12415   6.793   3.835   4.430  0.0970  0.1073 -0.0337
 8365W        W12416   2.023   4.531   1.718  0.0730 -0.1860  0.2037
 8366W        W12417   9.991   3.201   4.627 -0.1096 -0.0917  0.1989
 8367W        W12418   0.114   2.743  14.019 -0.0011 -0.0669  0.2186
 8368W        W12419   3.725   8.811   1.311  0.1373  0.0582 -0.0478
 8369W        W12420   2.849   8.303  10.681 -0.2337  0.1292  0.2999
 8370W        W12421   4.362   0.760   2.390  0.2110  0.0733 -0.0898
 8371W        W12422   9.889   1.453   2.157  0.2615  0.1146  0.3276
 8372W        W12423   9.156   7.832  12.286 -0.1260  0.1600  0.0548
 8373W        W12424  10.124   1.201   4.684  0.3080 -0.0287 -0.0752
 8374W        W12425   6.302   0.580   2.863  0.5241  0.0949  0.0667
 8375W        W12426   6.767   4.954   2.619  0.1085 -0.1577  0.2310
 8376W        W12427   6.201   0.378  11.947  0.2218 -0.0554  0.2657
 8377W        W12428   1.017  10.132   0.615 -0.0718  0.0714  0.0691
 8378W        W12429   7.934   8.817   3.523 -0.1525  0.0625 -0.0290
 8379W        W12430   3.465   1.126   1.019 -0.0677 -0.0124  0.1037
 8380W        W12431   2.919   1.140   0.059  0.0610 -0.0990  0.0945
 8381W        W12432   5.964   4.332   2.702 -0.0777 -0.0550  0.0547
 8382W        W12433   0.323   0.841   9.832  0.1994  0.0271  0.0639
 8383W        W12434   8.219   3.153  13.770  0.2606 -0.0736 -0.0082
 8384W        W12435   4.419   6.189  13.686 -0.0269  0.0280  0.0479
 8385W        W12436   3.874   5.450  11.229  0.3668  0.0614 -0.0783
 8386W        W12437   5.578   2.002   3.420 -0.1273 -0.0172  0.2450
 8387W        W12438   9.432   0.145   3.676 -0.0563 -0.0417  0.2175
 8388W        W12439   0.699   3.748   9.927  0.1748  0.0025  0.2153
 8389W        W12440   3.823   1.928   2.168 -0.3936 -0.0508  0.1818
 8390W        W12441   5.843   7.299   1.400  0.3332  0.1202 -0.0985
 8391W        W12442   3.723   9.486   1.155  0.2637 -0.1680 -0.1277
 8392W        W12443   6.503   3.457   9.134  0.4379  0.1933  0.0107
 8393W        W12444   3.758   9.197  12.079  0.1521 -0.3003  0.0512
 8394W        W12445   9.722   3.211   3.498  0.0445 -0.0741  0.1697
 8395W        W12446   8.942   0.325  10.074  0.2074 -0.1052  0.0642
 8396W        W12447   5.077   8.010   0.668 -0.0286 -0.3793  0.3758
 8397W        W12448   2.373  10.092  13.803 -0.1265  0.1945  0.5531
 8398W        W12449   3.125   7.473   0.333 -0.2177 -0.2975  0.3882
 8399W        W12450   9.109   1.294  12.894  0.0196 -0.0941 -0.1364
 8400W        W12451   4.677   5.670  10.780 -0.0192  0.0150 -0.0025
 8401W        W12452   6.274   0.668   0.024 -0.1610  0.0358  0.0684
 8402W        W12453   4.434   7.008  13.811  0.0826  0.1478  0.0020
 8403W        W12454   7.000   5.527   3.200  0.0557 -0.0076  0.4027
 8404W        W12455   0.165   5.598   0.179  0.2064  0.3610 -0.1106
 8405W        W12456   7.955   6.270  11.326  0.0014  0.0100 -0.0577
 8406W        W12457   9.899   9.790  11.768  0.0658 -0.0423 -0.1870
 8407W        W12458   8.887   1.956   4.517  0.0474  0.1325 -0.1037
 8408W        W12459   4.145   1.474   1.505 -0.0980  0.2341 -0.0904
 8409W        W12460   3.772   8.505   2.239  0.0324 -0.2375  0.0160
 8410W        W12461   2.071   7.675   9.487 -0.0345 -0.3066  0.2251
 8411W        W12462   0.747   9.612   0.732 -0.0210  0.2266 -0.0746
 8412W        W12463   9.314   7.943   0.858  0.1520  0.0085 -0.2242
 8413W        W12464   0.692   6.612   0.435 -0.0480 -0.0358  0.0043
 8414W        W12465   7.082   9.174   1.703  0.0071  0.1012 -0.0512
 8415W        W12466   6.082   3.529   3.262  0.0191 -0.2269 -0.1409
 8416W        W12467   1.194   0.838  13.989  0.0866 -0.2297  0.0477
 8417W        W12468   2.018   8.492   1.076  0.3664  0.1091  0.0724
 8418W        W12469   7.453   1.477   9.770  0.0504 -0.1256  0.1769
 8419W        W12470   8.558   4.366   1.390 -0.0600 -0.1511  0.0959
 8420W        W12471   4.933   4.171  10.163 -0.1746 -0.1558 -0.5713
 8421W        W12472   7.312   4.762   3.107  0.4110  0.1918  0.0203
 8422W        W12473   1.168   7.310   0.565 -0.0244 -0.1394  0.1764
 8423W        W12474   7.615   3.585  13.441 -0.0580  0.1408 -0.0513
 8424W        W12475   0.473   1.229  12.022 -0.0425 -0.0071  0.1066
 8425W        W12476   9.876   5.311   1.141  0.3950 -0.0605 -0.2113
 8426W        W12477   9.658   8.709   2.049  0.2733  0.0037  0.0561
 8427W        W12478   4.291   5.700   3.741  0.0355  0.3895  0.0184
 8428W        W12479   5.687   8.440   2.074  0.2660  0.0313  0.2501
 8429W        W12480   6.270   9.630   3.567 -0.2625 -0.2979  0.2780
 8430W        W12481   0.050   8.756  13.112  0.0204  0.0035 -0.1376
 8431W        W12482   3.295   7.495   0.828 -0.2002  0.2300  0.0935
 8432W        W12483   5.215   3.367  11.241  0.3654 -0.0105  0.1953
 8433W        W12484   3.418   5.962  10.589  0.2308  0.1848  0.2129
 8434W        W12485   9.919   6.407  13.509 -0.0446  0.2533 -0.1849
 8435W        W12486   6.510   2.949   0.335 -0.0820 -0.1210  0.2880
 8436W        W12487   4.074   9.360   9.836  0.2481 -0.1365 -0.0643
 8437W        W12488   1.874   3.286   1.815  0.2482  0.1804  0.1124
 8438W        W12489   1.194   9.321   1.683  0.0970  0.0670  0.0210
 8439W        W12490   0.697   8.943  10.802 -0.0089 -0.1721 -0.0990
 8440W        W12491   2.619   1.893   9.004 -0.1476  0.1435 -0.0269
 8441W        W12492   3.596   1.247   2.038  0.1092 -0.1068  0.1435
 8442W        W12493   2.740  10.154  11.218  0.1063  0.1854 -0.7495
 8443W        W12494   0.666   9.473  12.266 -0.2763  0.3750  0.0032
 8444W        W12495   2.110   3.873  10.303 -0.2088 -0.0292 -0.1447
 8445W        W12496   2.459   7.126  11.123  0.1652  0.0802 -0.2672
 8446W        W12497   3.743   1.144   9.265 -0.1214  0.0564  0.0755
 8447W        W12498   4.430   2.728   2.294  0.1485 -0.0831 -0.2369
 8448ION    NA+12499   1.187   1.607   3.314 -0.2876  0.1228 -0.1342
 8449ION    NA+12500   0.142   5.117   0.271 -0.3797  0.1340 -0.1839
 8450ION    NA+12501   4.675   0.701   3.768 -0.1798 -0.0586 -0.0059
 8451ION    NA+12502   6.150   2.674  10.640  0.3235 -0.1228  0.0229
 8452ION    NA+12503   0.867   9.549   8.814 -0.1338  0.1524 -0.2294
 8453ION    NA+12504   2.918   5.297  12.568  0.2004 -0.0508 -0.1591
 8454ION    NA+12505   8.122   2.620   9.192 -0.0881 -0.1203 -0.1367
 8455ION    NA+12506   1.695   0.698  13.787  0.1516 -0.3770  0.2303
 8456ION    NA+12507   3.244   1.439   2.813 -0.0552  0.2270 -0.0757
 8457ION    NA+12508   4.665   8.930  12.536  0.1370 -0.1419 -0.2902
 8458ION    NA+12509   7.014   5.013  13.296 -0.0878 -0.2890  0.5243
 8459ION    NA+12510   3.792   2.089   1.540  0.1051  0.0269 -0.2676
 8460ION    NA+12511   1.451   3.620   5.148  0.1605  0.1034 -0.0555
 8461ION    NA+12512   3.381   0.144   8.982 -0.1638 -0.0663 -0.1716
 8462ION    NA+12513   1.669   7.273   3.513 -0.0344 -0.0890 -0.0703
 8463ION    NA+12514   2.181   5.401  12.409 -0.1192 -0.2066 -0.0070
 8464ION    NA+12515   6.506   4.042   1.684  0.1393 -0.3104 -0.0926
 8465ION    NA+12516   9.124   3.280   2.527  0.2315 -0.2546 -0.1037
 8466ION    NA+12517   4.911   1.491   5.420 -0.0726 -0.2690 -0.1895
 8467ION    NA+12518   1.156   6.074   1.677  0.0863  0.0873  0.0487
 8468ION    NA+12519   2.232   8.242  12.557  0.1793  0.1209 -0.1964
 8469ION    NA+12520   4.453   5.486   3.246  0.1671  0.4541 -0.1556
 8470ION    NA+12521   8.396   8.378   1.469  0.2920 -0.3933  0.0880
 8471ION    NA+12522   0.281   1.352   4.254 -0.3461  0.1269 -0.0849
 8472ION    NA+12523   3.903   6.532   0.019  0.3230 -0.2208 -0.4027
 8473ION    NA+12524   6.359   5.857  10.405 -0.1397  0.0154 -0.2176
 8474ION    NA+12525   8.453   8.150   3.015  0.0946  0.1643 -0.2182
 8475ION    NA+12526   7.119   3.199  11.758  0.0136 -0.0706 -0.2318
 8476ION    NA+12527   9.718   6.599   9.198 -0.0695 -0.0817  0.2990
 8477ION    NA+12528   5.097   6.372   3.964 -0.0879  0.2004  0.0309
 8478ION    NA+12529   1.694   2.477   3.207 -0.1337 -0.1747 -0.3224
 8479ION    NA+12530   9.054   2.246  11.587 -0.1203 -0.5189 -0.2839
 8480ION    NA+12531   0.999   7.494  11.160  0.3391 -0.0204  0.1149
 8481ION    NA+12532   8.601  10.035  10.789 -0.0700 -0.0060 -0.1497
 8482ION    NA+12533   5.578   0.855  10.350 -0.0765  0.1046 -0.2095
 8483ION    NA+12534   8.168   2.740   5.310 -0.5483  0.1845  0.0979
 8484ION    NA+12535   7.240   6.383   3.148 -0.3230 -0.0077  0.0081
 8485ION    NA+12536   3.530   0.355   5.738 -0.1943  0.0822 -0.0675
 8486ION    NA+12537   4.457   8.119  12.101 -0.0816 -0.1953  0.0206
 8487ION    NA+12538   4.275   8.649   2.996  0.0423 -0.0005 -0.3194
 8488ION    NA+12539   4.051   8.171   1.277  0.0435 -0.2414  0.1881
 8489ION    NA+12540   6.699   2.263  11.383  0.2346 -0.1093 -0.1624
 8490ION    NA+12541   2.297   8.338  11.052  0.1457 -0.0259 -0.1740
 8491ION    NA+12542   1.195   2.600   1.748  0.1086  0.1576 -0.2856
 8492ION    NA+12543   7.519   8.544   0.898 -0.3105  0.0526  0.0716
 8493ION    NA+12544   8.981   6.080   5.125 -0.0202 -0.1893 -0.2222
 8494ION    NA+12545   1.277   6.377  11.468 -0.0005 -0.0658 -0.0466
 8495ION    NA+12546   9.438   8.120   2.106  0.0938  0.0457 -0.0231
 8496ION    NA+12547   9.316   7.243   1.745 -0.0554  0.0633  0.1608
 8497ION    NA+12548   4.422   9.918   9.254 -0.1340 -0.2246 -0.0859
 8498ION    NA+12549   0.115   4.226   9.619 -0.0393 -0.1499 -0.0717
 8499ION    NA+12550   3.691   6.509   3.844  0.3114  0.1737  0.0674
 8500ION    NA+12551   0.350   8.403   5.978 -0.3042 -0.1899 -0.2087
 8501ION    NA+12552   5.059   0.050   5.441 -0.0479  0.0757 -0.1278
 8502ION    NA+12553   3.303   2.365  13.550 -0.2387  0.0171 -0.1270
 8503ION    NA+12554   3.127   3.178   9.569 -0.0829  0.0095  0.0105
 8504ION    NA+12555   8.773   9.030  13.568  0.0798 -0.0439 -0.0842
 8505ION    NA+12556   9.760   1.951   3.998 -0.2649 -0.0589  0.0618
 8506ION    NA+12557   1.156   9.721   3.276 -0.0304  0.1363  0.4577
 8507ION    NA+12558   1.952   8.365   5.540 -0.0585 -0.1757 -0.0091
 8508ION    NA+12559   9.221   8.578   9.647 -0.0037  0.3550 -0.0336
 8509ION    NA+12560   4.886   8.378   1.873 -0.2094  0.0965 -0.0384
 8510ION    NA+12561   7.501   0.296   0.179  0.0052 -0.0207  0.2051
 8511ION    NA+12562   0.314   5.010  13.314 -0.0232  0.0990  0.1227
 8512ION    NA+12563   0.683   7.177   1.271 -0.0761  0.2444  0.2167
 8513ION    NA+12564   1.052   7.951   2.581 -0.2306 -0.2594  0.0675
 8514ION    NA+12565   2.247   1.884   3.923 -0.1773  0.3528  0.3135
 8515ION    NA+12566   6.148   6.415  13.712  0.1760 -0.1188 -0.1534
 8516ION    NA+12567   7.189   1.663  10.712  0.0637 -0.0352  0.2770
 8517ION    NA+12568   3.373   1.078   8.945  0.1409  0.2808 -0.1202
 8518ION    NA+12569   4.769   3.765   1.442 -0.1020 -0.2000 -0.3059
 8519ION    NA+12570   0.566   3.315   1.041 -0.1444 -0.0648 -0.2512
 8520ION    NA+12571   7.078   4.207  13.829 -0.1010 -0.3054  0.0058
 8521ION    NA+12572   6.670   6.807  12.905 -0.1876  0.3087 -0.2488
 8522ION    NA+12573   6.842   4.422   2.505  0.2115 -0.1473 -0.1144
 8523ION    NA+12574   2.420   4.748   1.970 -0.0643 -0.2861  0.0190
 8524ION    NA+12575   4.131   8.128  13.675  0.2604 -0.4806  0.1337
 8525ION    NA+12576   4.388   8.045   9.792  0.2410  0.1313 -0.2329
 8526ION    NA+12577   7.619   0.092  10.500 -0.0257  0.1360 -0.0137
 8527ION    NA+12578   8.740   5.322  13.270 -0.0440 -0.1741  0.2097
 8528ION    NA+12579   9.443   9.662   9.127 -0.3963  0.0216  0.0830
 8529ION    NA+12580   4.713   1.631   3.595  0.1939  0.3457  0.0452
 8530ION    NA+12581   5.244   4.522   9.741  0.2505 -0.1053  0.1065
 8531ION    NA+12582   0.875   4.714   0.509  0.0342  0.4881  0.3891
 8532ION    NA+12583   3.057   1.411   5.028 -0.0789 -0.1317  0.0509
 8533ION    NA+12584   4.875   1.170   1.034 -0.0696  0.0646 -0.1495
 8534ION    NA+12585   9.251   4.774  12.956 -0.2388  0.0021  0.1970
 8535ION    NA+12586   9.919   6.178   3.254  0.1278 -0.2343  0.0946
 8536ION    NA+12587   9.888   0.867  12.407 -0.0793 -0.0377 -0.0766
 8537ION    CL-12588   0.065   5.921   3.607  0.0269 -0.1039  0.1490
 8538ION    CL-12589   1.820   7.935   4.781 -0.1118  0.1125  0.0411
 8539ION    CL-12590   1.501   8.327  11.828 -0.0550 -0.3105 -0.1175
 8540ION    CL-12591   4.485   1.641   4.065 -0.0917 -0.0442  0.0188
 8541ION    CL-12592   2.919   4.927   4.081  0.0119  0.0942  0.1895
 8542ION    CL-12593   6.289   9.054  13.036 -0.0058  0.2274 -0.2480
 8543ION    CL-12594   8.260   8.232   9.631 -0.1129  0.1291 -0.3911
 8544ION    CL-12595   6.360   6.980  12.510 -0.2265 -0.1245  0.0351
 8545ION    CL-12596   7.518   8.466   1.435 -0.0507 -0.0086  0.1753
 8546ION    CL-12597   6.739   8.142  10.160 -0.0145 -0.2716  0.1135
 8547ION    CL-12598   5.063   0.952  10.207 -0.0952  0.2135  0.2561
 8548ION    CL-12599   3.301   6.573   4.141 -0.0634  0.2998 -0.1327
 8549ION    CL-12600   7.895   2.718  13.304 -0.1217 -0.4132 -0.2419
 8550ION    CL-12601   4.593   1.076   3.391  0.3252 -0.0885  0.3934
 8551ION    CL-12602   1.223   9.464   9.138  0.2052  0.1287 -0.5137
 8552ION    CL-12603   7.651   6.476   3.519  0.1681  0.0060  0.1510
 8553ION    CL-12604   7.100   0.205  10.634 -0.1220  0.3594  0.1418
 8554ION    CL-12605   5.855   1.126   5.124 -0.0657 -0.0967 -0.2599
 8555ION    CL-12606   4.184   7.731  12.369 -0.0039 -0.0766 -0.1647
 8556ION    CL-12607   2.600   5.403  12.156 -0.2219  0.0651 -0.1084
 8557ION    CL-12608   0.952   9.552   2.859 -0.0998  0.0909  0.1551
 8558ION    CL-12609   4.023   7.151   0.669  0.1041 -0.0621 -0.2028
 8559ION    CL-12610   7.055   4.587  13.510 -0.0295 -0.4068  0.2671
 8560ION    CL-12611   8.822   0.271  10.670 -0.4353  0.0954 -0.2736
 8561ION    CL-12612   3.409   3.797  10.213  0.0340 -0.0727 -0.1183
 8562ION    CL-12613   4.425   6.055  10.942 -0.0453  0.1079  0.0146
 8563ION    CL-12614   2.735   5.646   2.265 -0.0956  0.2165  0.0917
 8564ION    CL-12615   7.069   1.893  11.235 -0.2961  0.4209 -0.0702
 8565ION    CL-12616   7.252   2.856  12.113 -0.1151 -0.2926  0.2559
 8566ION    CL-12617   9.498   4.596   9.410 -0.1048 -0.2904  0.0060
 8567ION    CL-12618   1.747   8.163  12.734 -0.3051 -0.1945 -0.2493
 8568ION    CL-12619   2.374   0.248   4.800 -0.1041  0.1925  0.1314
 8569ION    CL-12620   1.572   1.938   3.481 -0.1016 -0.1200  0.0465
 8570ION    CL-12621   6.413   2.635  10.259 -0.1193  0.4620  0.0931
 8571ION    CL-12622   8.805   9.468  10.653 -0.2622 -0.0534  0.0078
 8572ION    CL-12623   4.219   4.095  12.965  0.1147  0.0923  0.0237
 8573ION    CL-12624   2.570   1.381   4.789  0.0276 -0.0048  0.0213
 8574ION    CL-12625   1.499   7.987   2.385  0.0068  0.1798 -0.0362
 8575ION    CL-12626   6.264   1.967  11.688 -0.1717 -0.1181  0.2176
 8576ION    CL-12627   9.574   7.878   3.948 -0.0655  0.0131 -0.0107
 8577ION    CL-12628   4.610   6.457  11.117 -0.1226 -0.0528  0.2013
 8578ION    CL-12629   7.948   0.131   4.715 -0.0480 -0.0431 -0.1656
 8579ION    CL-12630   1.647   6.172   1.801  0.1067 -0.2725 -0.2967
 8580ION    CL-12631   4.912   9.124   4.439  0.1597  0.1385 -0.1894
 8581ION    CL-12632   1.985   1.572   4.213  0.1108 -0.2956  0.3265
 8582ION    CL-12633   4.628   4.622   1.983 -0.0311  0.2659 -0.2438
 8583ION    CL-12634   8.403   5.764  13.069  0.2321 -0.2077 -0.2860
 8584ION    CL-12635  10.100   0.494   4.349  0.0499 -0.2042 -0.1140
 8585ION    CL-12636   0.302   4.727  13.762 -0.1320 -0.3747 -0.0513
 8586ION    CL-12637   6.096   1.032  10.183 -0.1658  0.0650 -0.0690
 8587ION    CL-12638   9.723   2.325   4.445 -0.0457 -0.2108 -0.1112
 8588ION    CL-12639   9.808   2.826  13.944  0.2460 -0.0275  0.0198
 8589ION    CL-12640   0.322   1.869   4.146 -0.1414  0.0993  0.1317
 8590ION    CL-12641   2.980   5.541   3.345 -0.0665 -0.0803 -0.0127
 8591ION    CL-12642   3.315   1.981   1.475  0.0210 -0.2325 -0.4260
 8592ION    CL-12643   8.684   3.392   2.355 -0.0982  0.2317  0.2292
 8593ION    CL-12644   2.363   2.923   4.479 -0.2643 -0.1058  0.0957
 8594ION    CL-12645   2.451   9.243  10.721  0.2085  0.2435  0.1514
 8595ION    CL-12646   1.659   7.137   3.998 -0.0734  0.1482 -0.1152
 8596ION    CL-12647   0.320   0.108   9.278  0.1647  0.3686  0.0721
 8597ION    CL-12648   0.523   5.315   0.497  0.2091  0.1937 -0.0151
 8598ION    CL-12649   7.026   6.108   4.012 -0.1633 -0.0841  0.0078
 8599ION    CL-12650   0.757   2.485   1.502 -0.0116 -0.1935 -0.1719
 8600ION    CL-12651   0.139   1.335   9.744 -0.6600  0.2264  0.2607
 8601ION    CL-12652   8.819   4.855  13.153 -0.1100 -0.0548  0.0601
 8602ION    CL-12653   9.469   7.728   1.873  0.1447  0.2552 -0.2542
 8603ION    CL-12654   6.513   4.518   1.739 -0.1573  0.0616  0.0693
 8604ION    CL-12655   1.954   5.891  12.384 -0.0940 -0.0180  0.2733
 8605ION    CL-12656   7.644   4.202   3.827  0.0693 -0.2349  0.2712
 8606ION    CL-12657   8.675   8.013   2.608 -0.1567 -0.1440  0.1199
 8607ION    CL-12658   7.862  10.134   0.389 -0.0803  0.0232  0.0409
 8608ION    CL-12659   8.981  10.061  13.057  0.2648 -0.0780 -0.0132
 8609ION    CL-12660   7.031   8.444   0.703 -0.1130 -0.1638  0.1847
 8610ION    CL-12661   0.474   8.794   0.694  0.0450 -0.1108  0.0646
 8611ION    CL-12662   4.225   3.697   1.576 -0.1702 -0.1142 -0.1027
 8612ION    CL-12663   1.337   8.011   9.956 -0.0089  0.0081  0.0542
 8613ION    CL-12664   9.410   1.107  12.455  0.1622 -0.0632 -0.1292
 8614ION    CL-12665   8.089  10.158  10.638 -0.0052  0.2384  0.1258
 8615ION    CL-12666   7.295   2.068   4.304  0.3151 -0.0560  0.0389
 8616ION    CL-12667   8.150   8.471   2.932  0.1054  0.1278 -0.1955
 8617ION    CL-12668   3.980   8.772   2.612  0.1123  0.3006 -0.4191
 8618ION    CL-12669   5.298   4.549  10.241  0.0764  0.0401  0.1036
 8619ION    CL-12670   6.023   9.918   4.883 -0.1796  0.2347 -0.3188
 8620ION    CL-12671   4.539   8.253   2.915 -0.1869  0.0377  0.2429
 8621ION    CL-12672   4.736   6.580   3.685  0.0011 -0.1907  0.0222
 8622ION    CL-12673   7.113   0.495   3.180 -0.1346  0.0111 -0.1385
 8623ION    CL-12674   3.464   8.120   2.420 -0.4153  0.3653  0.0589
 8624ION    CL-12675   3.925   7.903   0.040  0.1540  0.2023  0.1282
 8625ION    CL-12676   6.408   6.518  13.295  0.2820  0.1987  0.2716
  10.15963  10.15963  14.03643
