[ moleculetype ]
; Name            nrexcl
AU                  1

[ atoms ]
;   nr       type  resnr residue  atom    cgnr     charge       mass
     1        P5     1    AU   AUC        1         0          784
     2        P5     1    AU   AUC        2         0          784
     3        P5     1    AU   AUC        3         0          784
     4        P5     1    AU   AUC        4         0          784
     5        P5     1    AU   AUC        5         0          784
     6        P5     1    AU   AUC        6         0          784
     7        P5     1    AU   AUC        7         0          784
     8        P5     1    AU   AUC        8         0          784
     9        P5     1    AU   AUC        9         0          784
    10        P5     1    AU   AUC       10         0          784
    11        P5     1    AU   AUC       11         0          784
    12        P5     1    AU   AUC       12         0          784
    13        P5     1    AU   AUC       13         0          784
    14        P5     1    AU   AUC       14         0          784
    15        P5     1    AU   AUC       15         0          784
    16        P5     1    AU   AUC       16         0          784
    17        P5     1    AU   AUC       17         0          784
    18        P5     1    AU   AUC       18         0          784
    19        P5     1    AU   AUC       19         0          784
    20        P5     1    AU   AUC       20         0          784
    21        P5     1    AU   AUC       21         0          784
    22        P5     1    AU   AUC       22         0          784
    23        P5     1    AU   AUC       23         0          784
    24        P5     1    AU   AUC       24         0          784
    25        P5     1    AU   AUC       25         0          784
    26        P5     1    AU   AUC       26         0          784
    27        P5     1    AU   AUC       27         0          784
    28        P5     1    AU   AUC       28         0          784
    29        P5     1    AU   AUC       29         0          784
    30        P5     1    AU   AUC       30         0          784
    31        P5     1    AU   AUC       31         0          784
    32        P5     1    AU   AUC       32         0          784
    33        P5     1    AU   AUC       33         0          784
    34        P5     1    AU   AUC       34         0          784
    35        P5     1    AU   AUC       35         0          784
    36        P5     1    AU   AUC       36         0          784
    37        P5     1    AU   AUC       37         0          784
    38        P5     1    AU   AUC       38         0          784
    39        P5     1    AU   AUC       39         0          784
    40        P5     1    AU   AUC       40         0          784
    41        P5     1    AU   AUC       41         0          784
    42        P5     1    AU   AUC       42         0          784
    43        P5     1    AU   AUC       43         0          784
    44        P5     1    AU   AUC       44         0          784
    45        P5     1    AU   AUC       45         0          784
    46        P5     1    AU   AUC       46         0          784
    47        P5     1    AU   AUC       47         0          784
    48        P5     1    AU   AUC       48         0          784
    49        P5     1    AU   AUC       49         0          784
    50        P5     1    AU   AUC       50         0          784
    51        P5     1    AU   AUC       51         0          784
    52        P5     1    AU   AUC       52         0          784
    53        P5     1    AU   AUC       53         0          784
    54        P5     1    AU   AUC       54         0          784
    55        P5     1    AU   AUC       55         0          784
    56        P5     1    AU   AUSL      56         0          784
    57        P5     1    AU   AUSL      57         0          784
    58        P5     1    AU   AUL       58         0          784
    59        N0     1    AU   S         59         0           46
    60        C1     1    AU   LIG       60         0           56
    61        C1     1    AU   LIG       61         0           56
    62        N0     1    AU   S         62         0           46
    63        C1     1    AU   LIG       63         0           56
    64        C1     1    AU   LIG       64         0           56
    65        P5     1    AU   AUSL      65         0          784
    66        P5     1    AU   AUSL      66         0          784
    67        P5     1    AU   AUL       67         0          784
    68        N0     1    AU   S         68         0           46
    69        C1     1    AU   LIG       69         0           56
    70        C1     1    AU   LIG       70         0           56
    71        N0     1    AU   S         71         0           46
    72        C1     1    AU   LIG       72         0           56
    73        C1     1    AU   LIG       73         0           56
    74        P5     1    AU   AUSL      74         0          784
    75        P5     1    AU   AUSL      75         0          784
    76        P5     1    AU   AUL       76         0          784
    77        N0     1    AU   S         77         0           46
    78        C1     1    AU   LIG       78         0           56
    79        C1     1    AU   LIG       79         0           56
    80        N0     1    AU   S         80         0           46
    81        C1     1    AU   LIG       81         0           56
    82        C1     1    AU   LIG       82         0           56
    83        P5     1    AU   AUSL      83         0          784
    84        P5     1    AU   AUSL      84         0          784
    85        P5     1    AU   AUL       85         0          784
    86        N0     1    AU   S         86         0           46
    87        C1     1    AU   LIG       87         0           56
    88        C1     1    AU   LIG       88         0           56
    89        N0     1    AU   S         89         0           46
    90        C1     1    AU   LIG       90         0           56
    91        C1     1    AU   LIG       91         0           56
    92        P5     1    AU   AUSL      92         0          784
    93        P5     1    AU   AUSL      93         0          784
    94        P5     1    AU   AUL       94         0          784
    95        N0     1    AU   S         95         0           46
    96        C1     1    AU   LIG       96         0           56
    97        C1     1    AU   LIG       97         0           56
    98        N0     1    AU   S         98         0           46
    99        C1     1    AU   LIG       99         0           56
   100        C1     1    AU   LIG      100         0           56
   101        P5     1    AU   AUSL     101         0          784
   102        P5     1    AU   AUSL     102         0          784
   103        P5     1    AU   AUL      103         0          784
   104        N0     1    AU   S        104         0           46
   105        C1     1    AU   LIG      105         0           56
   106        C1     1    AU   LIG      106         0           56
   107        N0     1    AU   S        107         0           46
   108        C1     1    AU   LIG      108         0           56
   109        C1     1    AU   LIG      109         0           56
   110        P5     1    AU   AUSL     110         0          784
   111        P5     1    AU   AUSL     111         0          784
   112        P5     1    AU   AUL      112         0          784
   113        N0     1    AU   S        113         0           46
   114        C1     1    AU   LIG      114         0           56
   115        C1     1    AU   LIG      115         0           56
   116        N0     1    AU   S        116         0           46
   117        C1     1    AU   LIG      117         0           56
   118        C1     1    AU   LIG      118         0           56
   119        P5     1    AU   AUSL     119         0          784
   120        P5     1    AU   AUSL     120         0          784
   121        P5     1    AU   AUL      121         0          784
   122        N0     1    AU   S        122         0           46
   123        C1     1    AU   LIG      123         0           56
   124        C1     1    AU   LIG      124         0           56
   125        N0     1    AU   S        125         0           46
   126        C1     1    AU   LIG      126         0           56
   127        C1     1    AU   LIG      127         0           56
   128        P5     1    AU   AUSL     128         0          784
   129        P5     1    AU   AUSL     129         0          784
   130        P5     1    AU   AUL      130         0          784
   131        N0     1    AU   S        131         0           46
   132        C1     1    AU   LIG      132         0           56
   133        C1     1    AU   LIG      133         0           56
   134        N0     1    AU   S        134         0           46
   135        C1     1    AU   LIG      135         0           56
   136        C1     1    AU   LIG      136         0           56
   137        P5     1    AU   AUSL     137         0          784
   138        P5     1    AU   AUSL     138         0          784
   139        P5     1    AU   AUL      139         0          784
   140        N0     1    AU   S        140         0           46
   141        C1     1    AU   LIG      141         0           56
   142        C1     1    AU   LIG      142         0           56
   143        N0     1    AU   S        143         0           46
   144        C1     1    AU   LIG      144         0           56
   145        C1     1    AU   LIG      145         0           56
   146        P5     1    AU   AUSL     146         0          784
   147        P5     1    AU   AUSL     147         0          784
   148        P5     1    AU   AUL      148         0          784
   149        N0     1    AU   S        149         0           46
   150        C1     1    AU   LIG      150         0           56
   151        C1     1    AU   LIG      151         0           56
   152        N0     1    AU   S        152         0           46
   153        C1     1    AU   LIG      153         0           56
   154        C1     1    AU   LIG      154         0           56
   155        P5     1    AU   AUSL     155         0          784
   156        P5     1    AU   AUSL     156         0          784
   157        P5     1    AU   AUL      157         0          784
   158        N0     1    AU   S        158         0           46
   159        C1     1    AU   LIG      159         0           56
   160        C1     1    AU   LIG      160         0           56
   161        N0     1    AU   S        161         0           46
   162        C1     1    AU   LIG      162         0           56
   163        C1     1    AU   LIG      163         0           56
   164        P5     1    AU   AUSL     164         0          784
   165        P5     1    AU   AUSL     165         0          784
   166        P5     1    AU   AUL      166         0          784
   167        N0     1    AU   S        167         0           46
   168        C1     1    AU   LIG      168         0           56
   169        C1     1    AU   LIG      169         0           56
   170        N0     1    AU   S        170         0           46
   171        C1     1    AU   LIG      171         0           56
   172        C1     1    AU   LIG      172         0           56
   173        P5     1    AU   AUSL     173         0          784
   174        P5     1    AU   AUSL     174         0          784
   175        P5     1    AU   AUL      175         0          784
   176        N0     1    AU   S        176         0           46
   177        C1     1    AU   LIG      177         0           56
   178        C1     1    AU   LIG      178         0           56
   179        N0     1    AU   S        179         0           46
   180        C1     1    AU   LIG      180         0           56
   181        C1     1    AU   LIG      181         0           56
   182        P5     1    AU   AUSL     182         0          784
   183        P5     1    AU   AUSL     183         0          784
   184        P5     1    AU   AUL      184         0          784
   185        N0     1    AU   S        185         0           46
   186        C1     1    AU   LIG      186         0           56
   187        C1     1    AU   LIG      187         0           56
   188        N0     1    AU   S        188         0           46
   189        C1     1    AU   LIG      189         0           56
   190        C1     1    AU   LIG      190         0           56
   191        P5     1    AU   AUSL     191         0          784
   192        P5     1    AU   AUSL     192         0          784
   193        P5     1    AU   AUL      193         0          784
   194        N0     1    AU   S        194         0           46
   195        C1     1    AU   LIG      195         0           56
   196        C1     1    AU   LIG      196         0           56
   197        N0     1    AU   S        197         0           46
   198        C1     1    AU   LIG      198         0           56
   199        C1     1    AU   LIG      199         0           56
   200        P5     1    AU   AUSL     200         0          784
   201        P5     1    AU   AUSL     201         0          784
   202        P5     1    AU   AUL      202         0          784
   203        N0     1    AU   S        203         0           46
   204        C1     1    AU   LIG      204         0           56
   205        C1     1    AU   LIG      205         0           56
   206        N0     1    AU   S        206         0           46
   207        C1     1    AU   LIG      207         0           56
   208        C1     1    AU   LIG      208         0           56
   209        P5     1    AU   AUSL     209         0          784
   210        P5     1    AU   AUSL     210         0          784
   211        P5     1    AU   AUL      211         0          784
   212        N0     1    AU   S        212         0           46
   213        C1     1    AU   LIG      213         0           56
   214        C1     1    AU   LIG      214         0           56
   215        N0     1    AU   S        215         0           46
   216        C1     1    AU   LIG      216         0           56
   217        C1     1    AU   LIG      217         0           56
   218        P5     1    AU   AUSL     218         0          784
   219        P5     1    AU   AUSL     219         0          784
   220        P5     1    AU   AUL      220         0          784
   221        N0     1    AU   S        221         0           46
   222        C1     1    AU   LIG      222         0           56
   223        C1     1    AU   LIG      223         0           56
   224        N0     1    AU   S        224         0           46
   225        C1     1    AU   LIG      225         0           56
   226        C1     1    AU   LIG      226         0           56
   227        P5     1    AU   AUSL     227         0          784
   228        P5     1    AU   AUSL     228         0          784
   229        P5     1    AU   AUL      229         0          784
   230        N0     1    AU   S        230         0           46
   231        C1     1    AU   LIG      231         0           56
   232        C1     1    AU   LIG      232         0           56
   233        N0     1    AU   S        233         0           46
   234        C1     1    AU   LIG      234         0           56
   235        C1     1    AU   LIG      235         0           56
   236        P5     1    AU   AUSL     236         0          784
   237        P5     1    AU   AUSL     237         0          784
   238        P5     1    AU   AUL      238         0          784
   239        N0     1    AU   S        239         0           46
   240        C1     1    AU   LIG      240         0           56
   241        C1     1    AU   LIG      241         0           56
   242        N0     1    AU   S        242         0           46
   243        C1     1    AU   LIG      243         0           56
   244        C1     1    AU   LIG      244         0           56
   245        P5     1    AU   AUSL     245         0          784
   246        P5     1    AU   AUSL     246         0          784
   247        P5     1    AU   AUL      247         0          784
   248        N0     1    AU   S        248         0           46
   249        C1     1    AU   LIG      249         0           56
   250        C1     1    AU   LIG      250         0           56
   251        N0     1    AU   S        251         0           46
   252        C1     1    AU   LIG      252         0           56
   253        C1     1    AU   LIG      253         0           56
   254        P5     1    AU   AUSL     254         0          784
   255        P5     1    AU   AUSL     255         0          784
   256        P5     1    AU   AUL      256         0          784
   257        N0     1    AU   S        257         0           46
   258        C1     1    AU   LIG      258         0           56
   259        C1     1    AU   LIG      259         0           56
   260        N0     1    AU   S        260         0           46
   261        C1     1    AU   LIG      261         0           56
   262        C1     1    AU   LIG      262         0           56
   263        P5     1    AU   AUSL     263         0          784
   264        P5     1    AU   AUSL     264         0          784
   265        P5     1    AU   AUL      265         0          784
   266        N0     1    AU   S        266         0           46
   267        C1     1    AU   LIG      267         0           56
   268        C1     1    AU   LIG      268         0           56
   269        N0     1    AU   S        269         0           46
   270        C1     1    AU   LIG      270         0           56
   271        C1     1    AU   LIG      271         0           56
   272        P5     1    AU   AUSL     272         0          784
   273        P5     1    AU   AUSL     273         0          784
   274        P5     1    AU   AUL      274         0          784
   275        N0     1    AU   S        275         0           46
   276        C1     1    AU   LIG      276         0           56
   277        C1     1    AU   LIG      277         0           56
   278        N0     1    AU   S        278         0           46
   279        C1     1    AU   LIG      279         0           56
   280        C1     1    AU   LIG      280         0           56
   281        P5     1    AU   AUSL     281         0          784
   282        P5     1    AU   AUSL     282         0          784
   283        P5     1    AU   AUL      283         0          784
   284        N0     1    AU   S        284         0           46
   285        C1     1    AU   LIG      285         0           56
   286        C1     1    AU   LIG      286         0           56
   287        N0     1    AU   S        287         0           46
   288        C1     1    AU   LIG      288         0           56
   289        C1     1    AU   LIG      289         0           56
   290        P5     1    AU   AUSL     290         0          784
   291        P5     1    AU   AUSL     291         0          784
   292        P5     1    AU   AUL      292         0          784
   293        N0     1    AU   S        293         0           46
   294        C1     1    AU   LIG      294         0           56
   295        C1     1    AU   LIG      295         0           56
   296        N0     1    AU   S        296         0           46
   297        C1     1    AU   LIG      297         0           56
   298        C1     1    AU   LIG      298         0           56
   299        P5     1    AU   AUSL     299         0          784
   300        P5     1    AU   AUSL     300         0          784
   301        P5     1    AU   AUL      301         0          784
   302        N0     1    AU   S        302         0           46
   303        C1     1    AU   LIG      303         0           56
   304        C1     1    AU   LIG      304         0           56
   305        N0     1    AU   S        305         0           46
   306        C1     1    AU   LIG      306         0           56
   307        C1     1    AU   LIG      307         0           56
   308        P5     1    AU   AUSL     308         0          784
   309        P5     1    AU   AUSL     309         0          784
   310        P5     1    AU   AUL      310         0          784
   311        N0     1    AU   S        311         0           46
   312        C1     1    AU   LIG      312         0           56
   313        C1     1    AU   LIG      313         0           56
   314        N0     1    AU   S        314         0           46
   315        C1     1    AU   LIG      315         0           56
   316        C1     1    AU   LIG      316         0           56
   317        P5     1    AU   AUSL     317         0          784
   318        P5     1    AU   AUSL     318         0          784
   319        P5     1    AU   AUL      319         0          784
   320        N0     1    AU   S        320         0           46
   321        C1     1    AU   LIG      321         0           56
   322        C1     1    AU   LIG      322         0           56
   323        N0     1    AU   S        323         0           46
   324        C1     1    AU   LIG      324         0           56
   325        C1     1    AU   LIG      325         0           56

 [ bonds ]
;         i           j    funct      length   force_k
         1          2      1           0.288 3500
         1          3      1           0.288 3500
         1          4      1           0.289 3500
         1          5      1           0.289 3500
         1          6      1           0.288 3500
         1          7      1           0.288 3500
         1          8      1           0.289 3500
         1          9      1           0.289 3500
         1         10      1           0.288 3500
         1         11      1           0.288 3500
         1         12      1           0.289 3500
         1         13      1           0.289 3500
         2          3      1           0.303 3500
         2          7      1           0.303 3500
         2          9      1           0.304 3500
         2         12      1           0.303 3500
         2         13      1           0.303 3500
         2         14      1           0.289 3500
         2         15      1           0.289 3500
         2         34      1           0.289 3500
         2         35      1           0.289 3500
         2         40      1           0.288 3500
         2         44      1           0.289 3500
         3          7      1           0.303 3500
         3          9      1           0.304 3500
         3         10      1           0.303 3500
         3         11      1           0.303 3500
         3         15      1           0.289 3500
         3         16      1           0.289 3500
         3         32      1           0.289 3500
         3         33      1           0.289 3500
         3         41      1           0.288 3500
         3         45      1           0.289 3500
         4          5      1           0.303 3500
         4          6      1           0.303 3500
         4          8      1           0.304 3500
         4         12      1           0.304 3500
         4         13      1           0.304 3500
         4         17      1           0.288 3500
         4         18      1           0.288 3500
         4         38      1           0.289 3500
         4         39      1           0.289 3500
         4         42      1           0.288 3500
         4         46      1           0.289 3500
         5          6      1           0.303 3500
         5          8      1           0.304 3500
         5         10      1           0.304 3500
         5         11      1           0.304 3500
         5         18      1           0.288 3500
         5         19      1           0.288 3500
         5         36      1           0.289 3500
         5         37      1           0.289 3500
         5         43      1           0.288 3500
         5         47      1           0.289 3500
         6          7      1           0.303 3500
         6         11      1           0.303 3500
         6         13      1           0.304 3500
         6         20      1           0.288 3500
         6         21      1           0.288 3500
         6         42      1           0.288 3500
         6         43      1           0.288 3500
         6         48      1           0.288 3500
         6         52      1           0.289 3500
         7         11      1           0.303 3500
         7         13      1           0.304 3500
         7         21      1           0.288 3500
         7         22      1           0.288 3500
         7         40      1           0.289 3500
         7         41      1           0.289 3500
         7         49      1           0.288 3500
         7         53      1           0.289 3500
         8          9      1           0.303 3500
         8         10      1           0.303 3500
         8         12      1           0.304 3500
         8         23      1           0.288 3500
         8         24      1           0.288 3500
         8         46      1           0.288 3500
         8         47      1           0.288 3500
         8         50      1           0.288 3500
         8         54      1           0.289 3500
         9         10      1           0.303 3500
         9         12      1           0.304 3500
         9         24      1           0.288 3500
         9         25      1           0.288 3500
         9         44      1           0.289 3500
         9         45      1           0.289 3500
         9         51      1           0.288 3500
         9         55      1           0.289 3500
        10         11      1           0.303 3500
        10         26      1           0.288 3500
        10         27      1           0.288 3500
        10         32      1           0.288 3500
        10         36      1           0.289 3500
        10         50      1           0.288 3500
        10         51      1           0.288 3500
        11         27      1           0.288 3500
        11         28      1           0.288 3500
        11         33      1           0.288 3500
        11         37      1           0.289 3500
        11         48      1           0.289 3500
        11         49      1           0.289 3500
        12         13      1           0.303 3500
        12         29      1           0.288 3500
        12         30      1           0.288 3500
        12         34      1           0.288 3500
        12         38      1           0.289 3500
        12         54      1           0.288 3500
        12         55      1           0.288 3500
        13         30      1           0.288 3500
        13         31      1           0.288 3500
        13         35      1           0.288 3500
        13         39      1           0.289 3500
        13         52      1           0.289 3500
        13         53      1           0.289 3500
        14         15      1           0.304 3500
        14         34      1           0.304 3500
        14         35      1           0.304 3500
        14         40      1           0.303 3500
        14         44      1           0.304 3500
        14         83      1           0.288 5000
        14         93      1           0.289 5000
        14        147      1           0.288 5000
        14        155      1           0.288 5000
        14        209      1           0.289 5000
        15         16      1           0.303 3500
        15         40      1           0.303 3500
        15         41      1           0.303 3500
        15         44      1           0.304 3500
        15         45      1           0.304 3500
        15        155      1           0.288 5000
        15        156      1           0.288 5000
        15        164      1           0.288 5000
        15        209      1           0.289 5000
        16         32      1           0.304 3500
        16         33      1           0.304 3500
        16         41      1           0.303 3500
        16         45      1           0.304 3500
        16         56      1           0.289 5000
        16         75      1           0.288 5000
        16        156      1           0.289 5000
        16        164      1           0.288 5000
        16        201      1           0.289 5000
        17         18      1           0.304 3500
        17         38      1           0.303 3500
        17         39      1           0.303 3500
        17         42      1           0.303 3500
        17         46      1           0.304 3500
        17        128      1           0.288 5000
        17        138      1           0.288 5000
        17        182      1           0.288 5000
        17        192      1           0.289 5000
        17        219      1           0.289 5000
        18         19      1           0.303 3500
        18         42      1           0.303 3500
        18         43      1           0.303 3500
        18         46      1           0.304 3500
        18         47      1           0.304 3500
        18        182      1           0.288 5000
        18        191      1           0.288 5000
        18        192      1           0.289 5000
        18        227      1           0.288 5000
        19         36      1           0.303 3500
        19         37      1           0.303 3500
        19         43      1           0.303 3500
        19         47      1           0.304 3500
        19        110      1           0.289 5000
        19        120      1           0.289 5000
        19        174      1           0.288 5000
        19        191      1           0.288 5000
        19        227      1           0.289 5000
        20         21      1           0.304 3500
        20         42      1           0.303 3500
        20         43      1           0.302 3500
        20         48      1           0.303 3500
        20         52      1           0.304 3500
        20        173      1           0.288 5000
        20        183      1           0.289 5000
        20        237      1           0.288 5000
        20        245      1           0.288 5000
        20        299      1           0.289 5000
        21         22      1           0.303 3500
        21         48      1           0.303 3500
        21         49      1           0.302 3500
        21         52      1           0.304 3500
        21         53      1           0.303 3500
        21        245      1           0.288 5000
        21        246      1           0.288 5000
        21        254      1           0.288 5000
        21        299      1           0.289 5000
        22         40      1           0.303 3500
        22         41      1           0.303 3500
        22         49      1           0.303 3500
        22         53      1           0.304 3500
        22        146      1           0.289 5000
        22        165      1           0.288 5000
        22        246      1           0.289 5000
        22        254      1           0.288 5000
        22        291      1           0.289 5000
        23         24      1           0.304 3500
        23         46      1           0.303 3500
        23         47      1           0.302 3500
        23         50      1           0.303 3500
        23         54      1           0.304 3500
        23        218      1           0.288 5000
        23        228      1           0.288 5000
        23        272      1           0.288 5000
        23        282      1           0.289 5000
        23        309      1           0.289 5000
        24         25      1           0.303 3500
        24         50      1           0.303 3500
        24         51      1           0.303 3500
        24         54      1           0.304 3500
        24         55      1           0.304 3500
        24        272      1           0.288 5000
        24        281      1           0.288 5000
        24        282      1           0.289 5000
        24        317      1           0.288 5000
        25         44      1           0.303 3500
        25         45      1           0.303 3500
        25         51      1           0.303 3500
        25         55      1           0.304 3500
        25        200      1           0.289 5000
        25        210      1           0.289 5000
        25        264      1           0.288 5000
        25        281      1           0.288 5000
        25        317      1           0.289 5000
        26         27      1           0.304 3500
        26         32      1           0.303 3500
        26         36      1           0.304 3500
        26         50      1           0.303 3500
        26         51      1           0.302 3500
        26         57      1           0.289 5000
        26         65      1           0.288 5000
        26        119      1           0.289 5000
        26        263      1           0.288 5000
        26        273      1           0.289 5000
        27         28      1           0.303 3500
        27         32      1           0.303 3500
        27         33      1           0.302 3500
        27         36      1           0.304 3500
        27         37      1           0.303 3500
        27         65      1           0.288 5000
        27         66      1           0.288 5000
        27         74      1           0.288 5000
        27        119      1           0.289 5000
        28         33      1           0.303 3500
        28         37      1           0.304 3500
        28         48      1           0.303 3500
        28         49      1           0.303 3500
        28         66      1           0.289 5000
        28         74      1           0.288 5000
        28        111      1           0.289 5000
        28        236      1           0.289 5000
        28        255      1           0.289 5000
        29         30      1           0.304 3500
        29         34      1           0.303 3500
        29         38      1           0.304 3500
        29         54      1           0.303 3500
        29         55      1           0.302 3500
        29         92      1           0.288 5000
        29        102      1           0.289 5000
        29        129      1           0.289 5000
        29        308      1           0.288 5000
        29        318      1           0.289 5000
        30         31      1           0.303 3500
        30         34      1           0.303 3500
        30         35      1           0.302 3500
        30         38      1           0.304 3500
        30         39      1           0.303 3500
        30         92      1           0.288 5000
        30        101      1           0.288 5000
        30        102      1           0.289 5000
        30        137      1           0.288 5000
        31         35      1           0.303 3500
        31         39      1           0.304 3500
        31         52      1           0.303 3500
        31         53      1           0.303 3500
        31         84      1           0.289 5000
        31        101      1           0.288 5000
        31        137      1           0.289 5000
        31        290      1           0.289 5000
        31        300      1           0.289 5000
        32         33      1           0.303 3500
        32         45      1           0.304 3500
        32         51      1           0.303 3500
        32         56      1           0.289 5000
        32         57      1           0.289 5000
        32         65      1           0.288 5000
        32        201      1           0.289 5000
        33         41      1           0.304 3500
        33         49      1           0.304 3500
        33         56      1           0.288 5000
        33         74      1           0.288 5000
        33         75      1           0.289 5000
        33        255      1           0.289 5000
        34         35      1           0.303 3500
        34         44      1           0.304 3500
        34         55      1           0.303 3500
        34         83      1           0.288 5000
        34         92      1           0.288 5000
        34         93      1           0.289 5000
        34        318      1           0.289 5000
        35         40      1           0.304 3500
        35         53      1           0.304 3500
        35         83      1           0.288 5000
        35         84      1           0.289 5000
        35        101      1           0.288 5000
        35        147      1           0.289 5000
        36         37      1           0.303 3500
        36         47      1           0.304 3500
        36         50      1           0.303 3500
        36        110      1           0.288 5000
        36        119      1           0.288 5000
        36        120      1           0.288 5000
        36        273      1           0.289 5000
        37         43      1           0.304 3500
        37         48      1           0.304 3500
        37         66      1           0.288 5000
        37        110      1           0.288 5000
        37        111      1           0.289 5000
        37        174      1           0.288 5000
        38         39      1           0.303 3500
        38         46      1           0.304 3500
        38         54      1           0.303 3500
        38        102      1           0.288 5000
        38        128      1           0.288 5000
        38        129      1           0.289 5000
        38        219      1           0.288 5000
        39         42      1           0.304 3500
        39         52      1           0.304 3500
        39        128      1           0.287 5000
        39        137      1           0.288 5000
        39        138      1           0.288 5000
        39        300      1           0.289 5000
        40         41      1           0.303 3500
        40         53      1           0.304 3500
        40        146      1           0.289 5000
        40        147      1           0.289 5000
        40        155      1           0.289 5000
        40        291      1           0.289 5000
        41         49      1           0.304 3500
        41         75      1           0.289 5000
        41        146      1           0.288 5000
        41        164      1           0.289 5000
        41        165      1           0.289 5000
        42         43      1           0.303 3500
        42         52      1           0.303 3500
        42        138      1           0.289 5000
        42        173      1           0.289 5000
        42        182      1           0.289 5000
        42        183      1           0.289 5000
        43         48      1           0.303 3500
        43        173      1           0.288 5000
        43        174      1           0.289 5000
        43        191      1           0.289 5000
        43        237      1           0.289 5000
        44         45      1           0.303 3500
        44         55      1           0.304 3500
        44         93      1           0.289 5000
        44        200      1           0.288 5000
        44        209      1           0.289 5000
        44        210      1           0.289 5000
        45         51      1           0.304 3500
        45        156      1           0.289 5000
        45        200      1           0.288 5000
        45        201      1           0.289 5000
        45        264      1           0.289 5000
        46         47      1           0.303 3500
        46         54      1           0.303 3500
        46        192      1           0.289 5000
        46        218      1           0.288 5000
        46        219      1           0.289 5000
        46        309      1           0.289 5000
        47         50      1           0.303 3500
        47        120      1           0.289 5000
        47        218      1           0.288 5000
        47        227      1           0.289 5000
        47        228      1           0.289 5000
        48         49      1           0.303 3500
        48        111      1           0.289 5000
        48        236      1           0.289 5000
        48        237      1           0.289 5000
        48        245      1           0.288 5000
        49        165      1           0.289 5000
        49        236      1           0.288 5000
        49        254      1           0.288 5000
        49        255      1           0.289 5000
        50         51      1           0.303 3500
        50        228      1           0.289 5000
        50        263      1           0.289 5000
        50        272      1           0.289 5000
        50        273      1           0.289 5000
        51         57      1           0.289 5000
        51        263      1           0.288 5000
        51        264      1           0.289 5000
        51        281      1           0.289 5000
        52         53      1           0.303 3500
        52        183      1           0.289 5000
        52        290      1           0.288 5000
        52        299      1           0.288 5000
        52        300      1           0.289 5000
        53         84      1           0.289 5000
        53        246      1           0.288 5000
        53        290      1           0.288 5000
        53        291      1           0.289 5000
        54         55      1           0.303 3500
        54        129      1           0.289 5000
        54        282      1           0.289 5000
        54        308      1           0.288 5000
        54        309      1           0.289 5000
        55        210      1           0.289 5000
        55        308      1           0.288 5000
        55        317      1           0.289 5000
        55        318      1           0.289 5000
        56         58      1           0.381 5000
        56         62      1           0.276 1250
        56         76      1           0.380 5000
        57         58      1           0.380 5000
        57         59      1           0.273 1250
        57        265      1           0.380 5000
        59        206      1           0.319 1250
        59        269      1           0.313 1250
        59         60      1           0.470 1250
        60         61      1           0.470 1250
        62         68      1           0.321 1250
        62         63      1           0.470 1250
        63         64      1           0.470 1250
        65         67      1           0.380 5000
        65         68      1           0.271 1250
        66         67      1           0.380 5000
        66        112      1           0.380 5000
        68         69      1           0.470 1250
        69         70      1           0.470 1250
        71        113      1           0.326 1250
        71        125      1           0.319 1250
        71         72      1           0.470 1250
        72         73      1           0.470 1250
        74         76      1           0.381 5000
        74         77      1           0.271 1250
        75         76      1           0.380 5000
        75         80      1           0.270 1250
        75        166      1           0.380 5000
        77         78      1           0.470 1250
        78         79      1           0.470 1250
        80        167      1           0.320 1250
        80        257      1           0.317 1250
        80         81      1           0.470 1250
        81         82      1           0.470 1250
        83         85      1           0.380 5000
        83         86      1           0.277 1250
        83         94      1           0.381 5000
        84         85      1           0.380 5000
        84         89      1           0.278 1250
        84        292      1           0.380 5000
        86         98      1           0.321 1250
        86        107      1           0.314 1250
        86         87      1           0.470 1250
        87         88      1           0.470 1250
        89        149      1           0.316 1250
        89        296      1           0.324 1250
        89         90      1           0.470 1250
        90         91      1           0.470 1250
        92         94      1           0.381 5000
        92         98      1           0.271 1250
        92        103      1           0.380 5000
        93         94      1           0.380 5000
        93        211      1           0.380 5000
        95        215      1           0.316 1250
        95        323      1           0.319 1250
        95         96      1           0.470 1250
        96         97      1           0.470 1250
        98        107      1           0.317 1250
        98         99      1           0.470 1250
        99        100      1           0.470 1250
       101        103      1           0.380 5000
       102        103      1           0.381 5000
       102        104      1           0.271 1250
       102        130      1           0.380 5000
       104        131      1           0.309 1250
       104        143      1           0.319 1250
       104        105      1           0.470 1250
       105        106      1           0.470 1250
       107        108      1           0.470 1250
       108        109      1           0.470 1250
       110        112      1           0.380 5000
       110        113      1           0.276 1250
       110        121      1           0.381 5000
       111        112      1           0.380 5000
       111        116      1           0.270 1250
       111        238      1           0.381 5000
       113        125      1           0.310 1250
       113        114      1           0.470 1250
       114        115      1           0.470 1250
       116        176      1           0.322 1250
       116        239      1           0.323 1250
       116        117      1           0.470 1250
       117        118      1           0.470 1250
       119        121      1           0.380 5000
       119        125      1           0.271 1250
       120        121      1           0.380 5000
       120        122      1           0.277 1250
       120        229      1           0.380 5000
       122        230      1           0.294 1250
       122        278      1           0.314 1250
       122        123      1           0.470 1250
       123        124      1           0.470 1250
       125        126      1           0.470 1250
       126        127      1           0.470 1250
       128        130      1           0.381 5000
       128        131      1           0.277 1250
       128        139      1           0.380 5000
       129        130      1           0.380 5000
       129        310      1           0.381 5000
       131        143      1           0.326 1250
       131        132      1           0.470 1250
       132        133      1           0.470 1250
       134        221      1           0.314 1250
       134        311      1           0.315 1250
       134        135      1           0.470 1250
       135        136      1           0.470 1250
       137        139      1           0.380 5000
       138        139      1           0.380 5000
       138        140      1           0.275 1250
       138        184      1           0.380 5000
       140        305      1           0.323 1250
       140        141      1           0.470 1250
       141        142      1           0.470 1250
       143        144      1           0.470 1250
       144        145      1           0.470 1250
       146        148      1           0.380 5000
       146        166      1           0.380 5000
       147        148      1           0.380 5000
       147        149      1           0.270 1250
       149        296      1           0.319 1250
       149        150      1           0.470 1250
       150        151      1           0.470 1250
       152        158      1           0.319 1250
       152        170      1           0.319 1250
       152        153      1           0.470 1250
       153        154      1           0.470 1250
       155        157      1           0.379 5000
       155        158      1           0.273 1250
       156        157      1           0.379 5000
       156        161      1           0.279 1250
       156        202      1           0.380 5000
       158        170      1           0.320 1250
       158        159      1           0.470 1250
       159        160      1           0.470 1250
       161        203      1           0.317 1250
       161        212      1           0.316 1250
       161        162      1           0.470 1250
       162        163      1           0.470 1250
       164        166      1           0.380 5000
       164        170      1           0.273 1250
       165        166      1           0.381 5000
       165        256      1           0.380 5000
       167        257      1           0.323 1250
       167        168      1           0.470 1250
       168        169      1           0.470 1250
       170        171      1           0.470 1250
       171        172      1           0.470 1250
       173        175      1           0.380 5000
       173        179      1           0.269 1250
       173        184      1           0.380 5000
       174        175      1           0.380 5000
       174        176      1           0.276 1250
       176        177      1           0.470 1250
       177        178      1           0.470 1250
       179        180      1           0.470 1250
       180        181      1           0.470 1250
       182        184      1           0.380 5000
       182        185      1           0.273 1250
       182        193      1           0.380 5000
       183        184      1           0.380 5000
       183        188      1           0.280 1250
       183        301      1           0.380 5000
       185        186      1           0.470 1250
       186        187      1           0.470 1250
       188        305      1           0.324 1250
       188        189      1           0.470 1250
       189        190      1           0.470 1250
       191        193      1           0.380 5000
       191        197      1           0.273 1250
       192        193      1           0.381 5000
       192        194      1           0.280 1250
       192        220      1           0.380 5000
       194        224      1           0.283 1250
       194        233      1           0.248 1250
       194        195      1           0.470 1250
       195        196      1           0.470 1250
       197        198      1           0.470 1250
       198        199      1           0.470 1250
       200        202      1           0.380 5000
       200        203      1           0.270 1250
       200        211      1           0.381 5000
       201        202      1           0.380 5000
       203        212      1           0.317 1250
       203        204      1           0.470 1250
       204        205      1           0.470 1250
       206        269      1           0.316 1250
       206        207      1           0.470 1250
       207        208      1           0.470 1250
       209        211      1           0.380 5000
       209        212      1           0.279 1250
       210        211      1           0.381 5000
       210        215      1           0.273 1250
       210        319      1           0.380 5000
       212        213      1           0.470 1250
       213        214      1           0.470 1250
       215        323      1           0.312 1250
       215        216      1           0.470 1250
       216        217      1           0.470 1250
       218        220      1           0.381 5000
       218        229      1           0.380 5000
       219        220      1           0.380 5000
       219        221      1           0.277 1250
       221        311      1           0.295 1250
       221        222      1           0.470 1250
       222        223      1           0.470 1250
       224        233      1           0.284 1250
       224        225      1           0.470 1250
       225        226      1           0.470 1250
       227        229      1           0.380 5000
       227        233      1           0.279 1250
       228        229      1           0.380 5000
       228        230      1           0.273 1250
       228        274      1           0.380 5000
       230        278      1           0.314 1250
       230        231      1           0.470 1250
       231        232      1           0.470 1250
       233        234      1           0.470 1250
       234        235      1           0.470 1250
       236        238      1           0.380 5000
       236        242      1           0.273 1250
       236        256      1           0.380 5000
       237        238      1           0.380 5000
       237        239      1           0.279 1250
       239        240      1           0.470 1250
       240        241      1           0.470 1250
       242        248      1           0.325 1250
       242        260      1           0.327 1250
       242        243      1           0.470 1250
       243        244      1           0.470 1250
       245        247      1           0.380 5000
       246        247      1           0.380 5000
       246        251      1           0.273 1250
       246        292      1           0.380 5000
       248        260      1           0.317 1250
       248        249      1           0.470 1250
       249        250      1           0.470 1250
       251        293      1           0.327 1250
       251        302      1           0.317 1250
       251        252      1           0.470 1250
       252        253      1           0.470 1250
       254        256      1           0.380 5000
       254        260      1           0.272 1250
       255        256      1           0.380 5000
       255        257      1           0.277 1250
       257        258      1           0.470 1250
       258        259      1           0.470 1250
       260        261      1           0.470 1250
       261        262      1           0.470 1250
       263        265      1           0.380 5000
       263        274      1           0.381 5000
       264        265      1           0.380 5000
       264        269      1           0.274 1250
       266        275      1           0.311 1250
       266        287      1           0.306 1250
       266        267      1           0.470 1250
       267        268      1           0.470 1250
       269        270      1           0.470 1250
       270        271      1           0.470 1250
       272        274      1           0.380 5000
       272        275      1           0.270 1250
       272        283      1           0.380 5000
       273        274      1           0.381 5000
       275        287      1           0.317 1250
       275        276      1           0.470 1250
       276        277      1           0.470 1250
       278        279      1           0.470 1250
       279        280      1           0.470 1250
       281        283      1           0.380 5000
       282        283      1           0.381 5000
       282        284      1           0.270 1250
       282        310      1           0.380 5000
       284        314      1           0.311 1250
       284        320      1           0.318 1250
       284        285      1           0.470 1250
       285        286      1           0.470 1250
       287        288      1           0.470 1250
       288        289      1           0.470 1250
       290        292      1           0.380 5000
       290        293      1           0.273 1250
       290        301      1           0.381 5000
       291        292      1           0.380 5000
       293        302      1           0.326 1250
       293        294      1           0.470 1250
       294        295      1           0.470 1250
       296        297      1           0.470 1250
       297        298      1           0.470 1250
       299        301      1           0.380 5000
       300        301      1           0.381 5000
       300        305      1           0.270 1250
       302        303      1           0.470 1250
       303        304      1           0.470 1250
       305        306      1           0.470 1250
       306        307      1           0.470 1250
       308        310      1           0.381 5000
       308        319      1           0.380 5000
       309        310      1           0.380 5000
       309        311      1           0.273 1250
       311        312      1           0.470 1250
       312        313      1           0.470 1250
       314        320      1           0.308 1250
       314        315      1           0.470 1250
       315        316      1           0.470 1250
       317        319      1           0.380 5000
       318        319      1           0.380 5000
       318        323      1           0.274 1250
       320        321      1           0.470 1250
       321        322      1           0.470 1250
       323        324      1           0.470 1250
       324        325      1           0.470 1250

 [ angles ]
;  i j k     funct  angle  force.c.
    59   60   61   2    180.0  25.0
    62   63   64   2    180.0  25.0
    68   69   70   2    180.0  25.0
    71   72   73   2    180.0  25.0
    77   78   79   2    180.0  25.0
    80   81   82   2    180.0  25.0
    86   87   88   2    180.0  25.0
    89   90   91   2    180.0  25.0
    95   96   97   2    180.0  25.0
    98   99  100   2    180.0  25.0
   104  105  106   2    180.0  25.0
   107  108  109   2    180.0  25.0
   113  114  115   2    180.0  25.0
   116  117  118   2    180.0  25.0
   122  123  124   2    180.0  25.0
   125  126  127   2    180.0  25.0
   131  132  133   2    180.0  25.0
   134  135  136   2    180.0  25.0
   140  141  142   2    180.0  25.0
   143  144  145   2    180.0  25.0
   149  150  151   2    180.0  25.0
   152  153  154   2    180.0  25.0
   158  159  160   2    180.0  25.0
   161  162  163   2    180.0  25.0
   167  168  169   2    180.0  25.0
   170  171  172   2    180.0  25.0
   176  177  178   2    180.0  25.0
   179  180  181   2    180.0  25.0
   185  186  187   2    180.0  25.0
   188  189  190   2    180.0  25.0
   194  195  196   2    180.0  25.0
   197  198  199   2    180.0  25.0
   203  204  205   2    180.0  25.0
   206  207  208   2    180.0  25.0
   212  213  214   2    180.0  25.0
   215  216  217   2    180.0  25.0
   221  222  223   2    180.0  25.0
   224  225  226   2    180.0  25.0
   230  231  232   2    180.0  25.0
   233  234  235   2    180.0  25.0
   239  240  241   2    180.0  25.0
   242  243  244   2    180.0  25.0
   248  249  250   2    180.0  25.0
   251  252  253   2    180.0  25.0
   257  258  259   2    180.0  25.0
   260  261  262   2    180.0  25.0
   266  267  268   2    180.0  25.0
   269  270  271   2    180.0  25.0
   275  276  277   2    180.0  25.0
   278  279  280   2    180.0  25.0
   284  285  286   2    180.0  25.0
   287  288  289   2    180.0  25.0
   293  294  295   2    180.0  25.0
   296  297  298   2    180.0  25.0
   302  303  304   2    180.0  25.0
   305  306  307   2    180.0  25.0
   311  312  313   2    180.0  25.0
   314  315  316   2    180.0  25.0
   320  321  322   2    180.0  25.0
   323  324  325   2    180.0  25.0
