Protein in INSANE! Membrane UpperLeaflet>POPC=1.0 LowerLeaflet>POPC=1.0
11125
    1AU     AUC    1   7.958   9.586   6.497  0.0336  0.0054 -0.0022
    1AU     AUC    2   8.042   9.659   6.822  0.0268  0.0501 -0.1097
    1AU     AUC    3   8.056   9.345   6.683 -0.1726 -0.0332 -0.0184
    1AU     AUC    4   7.900   9.849   6.315  0.1011  0.0244  0.0040
    1AU     AUC    5   7.879   9.488   6.200  0.0027  0.0291 -0.0476
    1AU     AUC    6   7.661   9.619   6.427 -0.1346 -0.0141  0.0548
    1AU     AUC    7   7.752   9.509   6.738 -0.0688  0.1070 -0.1157
    1AU     AUC    8   8.179   9.706   6.290 -0.0237 -0.0352  0.0778
    1AU     AUC    9   8.282   9.598   6.608  0.0105  0.0631  0.0391
    1AU     AUC   10   8.119   9.350   6.368  0.0034 -0.0935 -0.1377
    1AU     AUC   11   7.791   9.322   6.456 -0.0798 -0.0476  0.0639
    1AU     AUC   12   8.096   9.868   6.593  0.0052  0.0219 -0.0793
    1AU     AUC   13   7.827   9.827   6.686  0.0723  0.0251 -0.0528
    1AU     AUC   14   8.106   9.724   7.184 -0.0161  0.0096  0.1237
    1AU     AUC   15   8.141   9.397   7.050  0.0251 -0.0281 -0.1237
    1AU     AUC   16   8.150   9.073   6.858  0.0561 -0.0038 -0.0563
    1AU     AUC   17   7.797  10.115   6.093  0.0245  0.0787 -0.0528
    1AU     AUC   18   7.813   9.775   5.955  0.0794 -0.0544 -0.0254
    1AU     AUC   19   7.777   9.421   5.883  0.0828 -0.0317  0.0418
    1AU     AUC   20   7.308   9.684   6.359 -0.0266 -0.0505 -0.0196
    1AU     AUC   21   7.391   9.561   6.713  0.1264 -0.0230  0.0021
    1AU     AUC   22   7.522   9.456   6.972 -0.0671 -0.0432 -0.1057
    1AU     AUC   23   8.393   9.790   6.031 -0.0133 -0.0392 -0.0398
    1AU     AUC   24   8.524   9.691   6.330 -0.0033  0.0664 -0.1145
    1AU     AUC   25   8.635   9.586   6.698  0.0468  0.0234 -0.0714
    1AU     AUC   26   8.312   9.088   6.226  0.0052  0.0529  0.0545
    1AU     AUC   27   7.971   9.023   6.315  0.0105  0.0941  0.0255
    1AU     AUC   28   7.620   9.028   6.406 -0.0816 -0.0635  0.0572
    1AU     AUC   29   8.281  10.135   6.654  0.0125  0.1047 -0.0873
    1AU     AUC   30   7.954  10.182   6.782 -0.0302  0.0088 -0.0972
    1AU     AUC   31   7.655  10.074   6.811  0.1094  0.0125 -0.0744
    1AU     AUC   32   8.287   9.050   6.532  0.0462 -0.0052  0.0326
    1AU     AUC   33   7.905   9.019   6.652  0.0236  0.0511  0.0664
    1AU     AUC   34   8.193   9.955   6.961 -0.0038 -0.0832  0.1000
    1AU     AUC   35   7.871   9.893   7.037 -0.0008 -0.0180 -0.0185
    1AU     AUC   36   8.026   9.230   6.038  0.1023  0.0242  0.0981
    1AU     AUC   37   7.666   9.208   6.153  0.0691 -0.0722  0.0932
    1AU     AUC   38   8.047  10.151   6.374  0.0066  0.0567  0.0606
    1AU     AUC   39   7.749  10.156   6.450  0.0387  0.0584  0.0399
    1AU     AUC   40   7.805   9.547   7.130  0.0273  0.0408 -0.1014
    1AU     AUC   41   7.819   9.225   6.932 -0.0420 -0.0086 -0.0998
    1AU     AUC   42   7.533   9.869   6.183  0.0426  0.0107  0.0177
    1AU     AUC   43   7.504   9.524   6.089 -0.0986  0.0820  0.0250
    1AU     AUC   44   8.388   9.645   6.949 -0.0892  0.0308 -0.0537
    1AU     AUC   45   8.426   9.339   6.756 -0.0045 -0.0366  0.0591
    1AU     AUC   46   8.135   9.963   6.051  0.0510  0.0758  0.0047
    1AU     AUC   47   8.094   9.595   5.963 -0.0416 -0.0639  0.1302
    1AU     AUC   48   7.434   9.328   6.423  0.0375  0.0721 -0.1175
    1AU     AUC   49   7.554   9.220   6.702 -0.0346 -0.0033  0.0852
    1AU     AUC   50   8.375   9.443   6.129 -0.0522  0.0246 -0.0233
    1AU     AUC   51   8.511   9.356   6.398 -0.0132 -0.0209 -0.0670
    1AU     AUC   52   7.493   9.881   6.575 -0.0022 -0.0577  0.0953
    1AU     AUC   53   7.573   9.779   6.924  0.0609  0.0362 -0.0513
    1AU     AUC   54   8.364  10.010   6.336  0.0283  0.1169  0.0045
    1AU     AUC   55   8.460   9.858   6.684 -0.0079 -0.1053 -0.0577
    1AU    AUSL   56   8.226   8.751   6.719  0.0154  0.0151 -0.0318
    1AU    AUSL   57   8.578   8.924   6.433 -0.1458 -0.0578 -0.0571
    1AU     AUL   58   8.569   8.648   6.691 -0.0112  0.0268  0.0230
    1AU       S   59   8.960   8.825   6.625 -0.0755 -0.1888  0.0357
    1AU     LIG   60   9.019   8.408   6.622  0.2780 -0.3739  0.0203
    1AU     LIG   61   8.734   8.108   6.658  0.1029  0.0573 -0.2106
    1AU     LIG   62   8.561   7.860   6.992 -0.0078 -0.0682 -0.0578
    1AU     LIG   63   8.133   8.128   7.070 -0.1661  0.2187 -0.2191
    1AU       S   64   8.261   8.325   6.541 -0.4264  0.2830  0.0215
    1AU     LIG   65   8.206   8.024   6.370  0.1560 -0.0557 -0.0063
    1AU     LIG   66   8.342   7.694   6.539  0.0876  0.0827 -0.4376
    1AU     LIG   67   8.783   7.610   6.642 -0.2914  0.1050  0.1684
    1AU     LIG   68   9.191   7.394   6.753  0.0598  0.1490  0.1914
    1AU    AUSL   69   8.215   8.737   6.278  0.0207 -0.0456 -0.0297
    1AU    AUSL   70   7.757   8.743   6.137  0.0546 -0.0384 -0.0365
    1AU     AUL   71   7.903   8.411   6.243  0.0348 -0.1000  0.0072
    1AU       S   72   8.410   8.511   6.279 -0.0670 -0.2597  0.1760
    1AU     LIG   73   8.602   8.170   6.142 -0.0947 -0.2516  0.2680
    1AU     LIG   74   8.710   7.836   6.210  0.4309  0.2333 -0.1174
    1AU     LIG   75   8.658   7.326   6.229  0.0394 -0.2597 -0.1386
    1AU     LIG   76   8.265   7.189   6.432  0.0964  0.1911  0.1925
    1AU       S   77   7.981   8.576   5.835 -0.5606  0.0443 -0.0011
    1AU     LIG   78   8.102   8.138   5.861  0.0765  0.0453 -0.0622
    1AU     LIG   79   8.487   7.972   5.708 -0.2497  0.2819  0.0948
    1AU     LIG   80   8.758   7.538   5.756 -0.0603 -0.3647  0.0676
    1AU     LIG   81   9.028   7.269   5.873 -0.1451  0.2194 -0.1716
    1AU    AUSL   82   7.869   8.904   6.509 -0.0321  0.0084  0.0290
    1AU    AUSL   83   7.871   8.796   6.961  0.0393 -0.0177 -0.0104
    1AU     AUL   84   7.933   8.562   6.671  0.0582  0.0868  0.1234
    1AU       S   85   7.419   8.516   6.329  0.2610  0.1731 -0.1108
    1AU     LIG   86   7.123   8.457   6.036  0.3160 -0.1326 -0.0504
    1AU     LIG   87   7.145   8.433   5.651  0.1760  0.3086  0.2683
    1AU     LIG   88   7.157   8.641   5.196  0.1110 -0.1457 -0.0886
    1AU     LIG   89   6.963   8.487   4.853  0.4823 -0.4141 -0.0160
    1AU       S   90   7.718   8.459   7.077 -0.1681  0.1185 -0.4132
    1AU     LIG   91   7.811   8.491   7.432 -0.1215 -0.1887 -0.2749
    1AU     LIG   92   7.949   8.164   7.639  0.0717  0.1851  0.0139
    1AU     LIG   93   8.032   7.779   7.460  0.4015 -0.0210  0.1690
    1AU     LIG   94   8.136   7.542   7.013  0.4435  0.2953 -0.0727
    1AU    AUSL   95   8.001  10.033   7.294 -0.0572  0.0578  0.0621
    1AU    AUSL   96   7.571  10.011   7.246 -0.0100 -0.0509  0.0168
    1AU     AUL   97   7.768  10.105   7.610 -0.0208 -0.0604  0.0459
    1AU       S   98   7.772  10.470   7.346  0.2273  0.3170  0.0247
    1AU     LIG   99   7.432  10.842   7.407  0.2082 -0.1842 -0.1559
    1AU     LIG  100   6.882  10.796   7.284 -0.2849 -0.0212 -0.1712
    1AU     LIG  101   6.642  10.599   6.902  0.1474  0.0049  0.2924
    1AU     LIG  102   6.311  10.819   6.686 -0.2915 -0.1047 -0.3599
    1AU       S  103   7.355   9.955   7.577  0.0298  0.1975  0.0136
    1AU     LIG  104   6.870   9.964   7.380  0.0447 -0.2611  0.2260
    1AU     LIG  105   6.470   9.779   7.303 -0.1283 -0.2553  0.0482
    1AU     LIG  106   6.062   9.832   7.128 -0.4538 -0.0766  0.0562
    1AU     LIG  107   6.067   9.930   6.711 -0.3059  0.1593 -0.3220
    1AU    AUSL  108   8.231  10.352   7.094  0.0453 -0.0326  0.0621
    1AU    AUSL  109   8.412   9.965   7.262  0.0441  0.0168 -0.0093
    1AU     AUL  110   8.230  10.291   7.454 -0.0981 -0.0165  0.0394
    1AU       S  111   8.650  10.146   7.388 -0.1861 -0.0565 -0.1401
    1AU     LIG  112   8.636  10.163   7.735  0.2005 -0.1574  0.0101
    1AU     LIG  113   8.867  10.154   8.145  0.3265 -0.0960  0.0145
    1AU     LIG  114   9.053   9.906   8.389  0.1438 -0.1530 -0.0570
    1AU     LIG  115   9.154   9.492   8.659 -0.0926 -0.4217 -0.1012
    1AU       S  116   7.893  10.557   7.374 -0.1644  0.0712  0.3013
    1AU     LIG  117   8.039  10.959   7.254  0.1779  0.2552  0.0087
    1AU     LIG  118   8.105  11.325   6.960  0.1794  0.0443 -0.2772
    1AU     LIG  119   8.261  11.588   6.715 -0.0733 -0.2103 -0.2902
    1AU     LIG  120   8.296  12.004   6.706 -0.1944  0.1882  0.0003
    1AU    AUSL  121   7.814  10.223   6.963  0.0141 -0.0769 -0.0085
    1AU    AUSL  122   8.114  10.393   6.682 -0.0019  0.0167 -0.1246
    1AU     AUL  123   8.116  10.593   6.946 -0.0373 -0.0116 -0.0663
    1AU       S  124   7.984  10.918   6.660 -0.2851  0.1633  0.3087
    1AU     LIG  125   7.854  11.369   6.531  0.2519  0.1737  0.0663
    1AU     LIG  126   7.507  11.736   6.530 -0.0543  0.1257  0.1343
    1AU     LIG  127   7.097  12.021   6.584  0.2217  0.0760 -0.0985
    1AU     LIG  128   6.672  11.873   6.540 -0.0411 -0.2817 -0.2162
    1AU       S  129   7.709  10.452   7.161 -0.0484  0.2210  0.0581
    1AU     LIG  130   7.172  10.392   7.459 -0.0665  0.0031  0.0351
    1AU     LIG  131   7.106  10.452   7.838 -0.2206  0.0455 -0.3573
    1AU     LIG  132   6.673  10.386   7.816  0.0959 -0.2660  0.2770
    1AU     LIG  133   6.481  10.337   7.437  0.2281 -0.2635  0.0955
    1AU    AUSL  134   7.715   9.028   5.801  0.1285 -0.0348 -0.0956
    1AU    AUSL  135   7.433   9.013   6.203  0.0794 -0.0197  0.0917
    1AU     AUL  136   7.519   8.769   5.946 -0.1136 -0.0922 -0.0190
    1AU       S  137   7.904   8.593   5.707 -0.0313 -0.2528 -0.2059
    1AU     LIG  138   7.582   8.267   5.887 -0.3930  0.2260 -0.0041
    1AU     LIG  139   7.518   8.007   6.156 -0.0477 -0.4053 -0.2355
    1AU     LIG  140   7.244   7.903   6.564  0.1518 -0.2001  0.2013
    1AU     LIG  141   7.227   8.099   6.935  0.4002  0.2173  0.3141
    1AU       S  142   7.092   8.943   5.969  0.0301  0.0075  0.2306
    1AU     LIG  143   6.644   8.822   6.081 -0.0174 -0.0884  0.1965
    1AU     LIG  144   6.347   8.508   6.292 -0.3943 -0.3116  0.2624
    1AU     LIG  145   6.022   8.475   6.539 -0.2951 -0.1817 -0.2745
    1AU     LIG  146   5.850   8.660   7.049 -0.1062 -0.1597  0.0814
    1AU    AUSL  147   8.061   9.040   6.035  0.0144 -0.0110  0.0562
    1AU    AUSL  148   8.067   9.260   5.652 -0.0279 -0.0887 -0.0380
    1AU     AUL  149   7.909   9.037   5.571  0.0804  0.0238  0.0149
    1AU       S  150   8.357   9.138   5.455  0.2927 -0.3280  0.1469
    1AU     LIG  151   8.221   8.632   5.333  0.0107 -0.5948 -0.2812
    1AU     LIG  152   8.211   8.133   5.387 -0.1655  0.0290 -0.2064
    1AU     LIG  153   7.972   7.798   5.594 -0.3098 -0.0808 -0.1698
    1AU     LIG  154   8.152   7.613   5.944  0.2291 -0.2662 -0.0273
    1AU       S  155   8.156   8.684   5.850 -0.1015  0.0692 -0.1921
    1AU     LIG  156   8.513   8.462   5.756  0.1449  0.0079 -0.2035
    1AU     LIG  157   8.859   8.283   5.698  0.0909 -0.0762 -0.3907
    1AU     LIG  158   9.177   8.431   5.571  0.0549  0.2135 -0.2225
    1AU     LIG  159   9.567   8.414   5.219 -0.0898 -0.1836  0.4327
    1AU    AUSL  160   7.891  10.470   6.313  0.0064 -0.0023  0.0433
    1AU    AUSL  161   8.308  10.290   6.324 -0.1036 -0.0305  0.0120
    1AU     AUL  162   8.258  10.575   6.480  0.0043  0.0446 -0.0340
    1AU       S  163   7.894  10.863   6.412 -0.1552 -0.1377  0.0117
    1AU     LIG  164   8.309  11.137   6.404  0.0976 -0.1048  0.0701
    1AU     LIG  165   8.709  11.549   6.467 -0.1036  0.4441  0.0059
    1AU     LIG  166   8.793  11.925   6.544 -0.1914 -0.2220 -0.2906
    1AU     LIG  167   8.861  12.334   6.427  0.2193 -0.1788 -0.3362
    1AU       S  168   8.317  10.673   6.044 -0.1981 -0.0267 -0.2497
    1AU     LIG  169   8.707  10.799   6.173 -0.1329  0.2276  0.5019
    1AU     LIG  170   8.906  11.179   6.192 -0.1227 -0.1356 -0.2218
    1AU     LIG  171   9.193  11.487   6.325  0.0992  0.3867  0.2471
    1AU     LIG  172   9.605  11.623   6.344  0.0546  0.3443  0.0759
    1AU    AUSL  173   7.664  10.510   6.697  0.0039 -0.1104  0.0511
    1AU    AUSL  174   7.527  10.325   6.130  0.0557 -0.0319 -0.0241
    1AU     AUL  175   7.495  10.633   6.365  0.0421  0.0186 -0.1003
    1AU       S  176   7.256  10.550   5.999 -0.1381  0.0377  0.0095
    1AU     LIG  177   7.301  10.962   6.008  0.1882  0.0906  0.2567
    1AU     LIG  178   7.591  11.293   6.142 -0.0734 -0.3594  0.0446
    1AU     LIG  179   7.765  11.771   6.071 -0.3095 -0.0856  0.1527
    1AU     LIG  180   7.973  12.071   6.282 -0.5748  0.0379 -0.0500
    1AU       S  181   7.745  10.829   6.740  0.4191 -0.0716 -0.3633
    1AU     LIG  182   7.428  11.084   6.592  0.1246 -0.1330  0.0534
    1AU     LIG  183   7.143  11.304   6.403 -0.2563 -0.0540 -0.0938
    1AU     LIG  184   6.719  11.302   6.373 -0.0830  0.1440  0.1827
    1AU     LIG  185   6.483  11.300   5.928 -0.3389 -0.1513  0.2526
    1AU    AUSL  186   7.684   9.262   7.334  0.0750  0.0425 -0.0205
    1AU    AUSL  187   7.829   9.682   7.439  0.0324  0.0233  0.0143
    1AU     AUL  188   7.702   9.411   7.694 -0.0054  0.0039  0.0167
    1AU       S  189   7.424   9.754   7.635  0.2570  0.1603 -0.1704
    1AU     LIG  190   7.267   9.435   7.919  0.4055 -0.0195  0.0696
    1AU     LIG  191   7.322   9.135   8.157  0.1609  0.1088  0.2395
    1AU     LIG  192   7.240   8.820   8.251 -0.1857  0.2831 -0.2117
    1AU     LIG  193   7.190   8.782   8.663 -0.1959  0.2651 -0.1059
    1AU       S  194   7.895   8.987   7.644 -0.1489 -0.1780  0.4314
    1AU     LIG  195   7.468   8.866   7.770  0.1344 -0.1563 -0.0405
    1AU     LIG  196   7.375   8.521   7.587  0.2180 -0.0644  0.1377
    1AU     LIG  197   7.343   8.174   7.386  0.2765  0.2174 -0.2240
    1AU     LIG  198   7.620   7.866   7.098 -0.1773 -0.2367 -0.0401
    1AU    AUSL  199   8.117   9.373   7.458 -0.0107 -0.0605  0.0373
    1AU    AUSL  200   8.449   9.131   7.193 -0.0158  0.0697  0.0653
    1AU     AUL  201   8.484   9.283   7.524 -0.0685 -0.0484 -0.0774
    1AU       S  202   8.085   9.079   7.607  0.1005  0.1889  0.0058
    1AU     LIG  203   8.399   8.959   7.911 -0.2351 -0.0347 -0.0219
    1AU     LIG  204   8.733   9.150   7.923 -0.0575  0.0658  0.2605
    1AU     LIG  205   9.131   9.054   7.873  0.1523 -0.0662  0.0320
    1AU     LIG  206   9.485   8.878   7.620  0.2473  0.3350  0.0808
    1AU       S  207   8.871   9.084   7.386  0.0665  0.0959 -0.1435
    1AU     LIG  208   9.069   8.805   7.254 -0.1718  0.1951  0.2014
    1AU     LIG  209   9.250   8.509   7.096  0.0561  0.1231 -0.2394
    1AU     LIG  210   9.536   8.512   6.852 -0.0062 -0.1325  0.0880
    1AU     LIG  211   9.817   8.743   6.598 -0.1880 -0.1656  0.0714
    1AU    AUSL  212   8.022   9.158   7.093 -0.0339 -0.0480  0.0170
    1AU    AUSL  213   7.581   9.125   6.947 -0.1069 -0.0199 -0.0216
    1AU     AUL  214   7.681   8.912   7.254 -0.0019  0.0360 -0.0209
    1AU       S  215   7.428   8.578   7.100  0.4544  0.3512  0.1312
    1AU     LIG  216   7.046   8.545   6.711  0.0284 -0.2460 -0.1001
    1AU     LIG  217   6.801   8.373   6.463  0.0180  0.2815  0.2183
    1AU     LIG  218   6.457   8.062   6.523  0.0893 -0.0994  0.0416
    1AU     LIG  219   6.326   7.783   6.779  0.2209 -0.2354  0.5484
    1AU       S  220   8.114   8.915   7.423  0.2622 -0.3526  0.0784
    1AU     LIG  221   8.302   8.670   7.196  0.1251  0.0826  0.0905
    1AU     LIG  222   8.683   8.364   7.102 -0.2661  0.0494 -0.0163
    1AU     LIG  223   9.038   8.100   7.046  0.0502 -0.2320  0.2247
    1AU     LIG  224   9.461   8.004   7.083  0.6286 -0.0491 -0.2116
    1AU    AUSL  225   7.240   9.725   5.999  0.0330 -0.0449  0.0682
    1AU    AUSL  226   7.488   9.358   5.926  0.0179  0.0349 -0.0220
    1AU     AUL  227   7.125   9.510   5.741 -0.0174 -0.0537 -0.0366
    1AU       S  228   7.253   9.094   5.780 -0.2180 -0.2229 -0.2452
    1AU     LIG  229   7.373   8.980   5.447 -0.2589  0.3502  0.0408
    1AU     LIG  230   7.671   8.747   5.241  0.0220  0.0739 -0.0300
    1AU     LIG  231   7.925   8.526   4.957 -0.2459 -0.3984  0.2442
    1AU     LIG  232   8.393   8.506   4.776  0.1432 -0.0234 -0.0193
    1AU       S  233   6.919   9.725   6.090  0.0272 -0.3530 -0.4256
    1AU     LIG  234   6.583   9.950   5.939 -0.0635  0.3132 -0.1985
    1AU     LIG  235   6.774   9.862   5.646  0.1507  0.1126 -0.2260
    1AU     LIG  236   7.082   9.890   5.437  0.0095  0.0065 -0.1630
    1AU     LIG  237   7.086   9.891   4.948  0.1412  0.4178  0.2718
    1AU    AUSL  238   7.613   9.958   5.965  0.0661  0.0070 -0.0803
    1AU    AUSL  239   7.219  10.055   6.246  0.0096  0.0039  0.1416
    1AU     AUL  240   7.276  10.110   5.890 -0.0277  0.0633 -0.0197
    1AU       S  241   7.629  10.436   5.715  0.1032 -0.1945  0.3496
    1AU     LIG  242   7.400  10.780   5.562  0.3832 -0.1092  0.0384
    1AU     LIG  243   6.951  10.831   5.559 -0.1671 -0.0653 -0.0571
    1AU     LIG  244   6.784  10.845   6.020  0.0390 -0.5383  0.2721
    1AU     LIG  245   6.453  10.855   6.176  0.2656 -0.1096 -0.1166
    1AU       S  246   6.942  10.241   6.186  0.1320 -0.0692  0.1653
    1AU     LIG  247   6.657  10.302   6.452  0.0172  0.2007  0.1042
    1AU     LIG  248   6.229  10.386   6.440  0.0821 -0.1713  0.1152
    1AU     LIG  249   5.698  10.328   6.434 -0.2559 -0.1198 -0.3730
    1AU     LIG  250   5.528  10.358   5.974  0.2840 -0.0331  0.0092
    1AU    AUSL  251   7.519   9.680   5.645 -0.1050  0.0541 -0.0771
    1AU    AUSL  252   7.884  10.059   5.659 -0.0866  0.0788 -0.0726
    1AU     AUL  253   7.548   9.986   5.561  0.0100 -0.0521 -0.0265
    1AU       S  254   7.985   9.936   5.333  0.0206 -0.0689  0.0630
    1AU     LIG  255   7.866  10.393   5.284  0.0201  0.2057 -0.0477
    1AU     LIG  256   8.011  10.863   5.486 -0.0720 -0.4782  0.4154
    1AU     LIG  257   8.173  11.064   5.836 -0.0582 -0.0033 -0.1074
    1AU     LIG  258   8.250  11.435   6.035 -0.0239  0.3416 -0.1366
    1AU       S  259   7.505   9.463   5.461 -0.0399 -0.1789  0.1710
    1AU     LIG  260   7.096   9.342   5.278 -0.0345  0.1027  0.2232
    1AU     LIG  261   6.739   9.554   5.177  0.0745  0.0964  0.1502
    1AU     LIG  262   6.360   9.579   5.376 -0.0062 -0.1387 -0.0802
    1AU     LIG  263   6.017   9.588   5.766  0.0715 -0.0140  0.0187
    1AU    AUSL  264   8.709   9.407   6.987 -0.0756  0.0136  0.0170
    1AU    AUSL  265   8.423   9.132   6.775  0.0889  0.0568  0.0790
    1AU     AUL  266   8.649   8.989   6.999 -0.0407 -0.0303  0.0524
    1AU       S  267   8.933   9.362   7.129 -0.3298  0.0835  0.0866
    1AU     LIG  268   9.280   9.544   6.907  0.0574 -0.4386 -0.0536
    1AU     LIG  269   9.579   9.880   6.687 -0.1828 -0.0678 -0.0139
    1AU     LIG  270   9.800  10.098   6.373 -0.2329 -0.2955  0.0852
    1AU     LIG  271   9.851  10.209   5.981  0.2039 -0.0460 -0.2216
    1AU       S  272   9.002   8.918   6.706  0.5205 -0.3659  0.0042
    1AU     LIG  273   9.368   8.983   6.897 -0.1155 -0.0588  0.1845
    1AU     LIG  274   9.770   8.952   7.079 -0.2759  0.0285 -0.3525
    1AU     LIG  275   9.922   8.570   7.233  0.0281 -0.2170 -0.3010
    1AU     LIG  276  10.174   8.311   7.050 -0.5289 -0.3416  0.0067
    1AU    AUSL  277   8.345   9.564   7.155  0.0153  0.0733 -0.0620
    1AU    AUSL  278   8.726   9.833   7.032  0.0263 -0.0075  0.0211
    1AU     AUL  279   8.624   9.672   7.329  0.0291  0.0075  0.0176
    1AU       S  280   8.931   9.311   7.397 -0.3107 -0.0705 -0.0249
    1AU     LIG  281   9.415   9.287   7.311  0.2983 -0.0401 -0.0240
    1AU     LIG  282   9.847   9.467   7.092 -0.0989  0.0329  0.1219
    1AU     LIG  283  10.037   9.650   6.641 -0.0800 -0.1762 -0.1909
    1AU     LIG  284   9.977   9.531   6.306 -0.2276  0.0462  0.1664
    1AU       S  285   8.850  10.104   7.283 -0.0725  0.0997 -0.1774
    1AU     LIG  286   9.130   9.775   7.351 -0.0682  0.1915 -0.0770
    1AU     LIG  287   9.545   9.791   7.343 -0.3162  0.0241  0.5300
    1AU     LIG  288   9.794  10.021   7.074  0.0039  0.0596  0.0240
    1AU     LIG  289  10.006  10.364   6.812 -0.2206 -0.3815 -0.1097
    1AU    AUSL  290   8.292   9.875   5.744  0.0172 -0.0015 -0.0021
    1AU    AUSL  291   8.037  10.240   6.010 -0.0304 -0.0742 -0.0115
    1AU     AUL  292   8.136  10.209   5.636  0.0009 -0.1008 -0.0555
    1AU       S  293   8.149  10.579   5.949  0.0215  0.3913  0.5908
    1AU     LIG  294   7.735  10.786   5.968 -0.0560  0.2590 -0.2479
    1AU     LIG  295   7.628  11.181   5.652  0.1334 -0.3301  0.2749
    1AU     LIG  296   7.252  11.282   5.346 -0.3976  0.0224 -0.3605
    1AU     LIG  297   7.095  11.477   4.960 -0.0975 -0.0716 -0.1883
    1AU       S  298   8.260   9.931   5.250  0.3784 -0.1998 -0.1224
    1AU     LIG  299   8.608  10.135   5.470 -0.0561  0.1858  0.3107
    1AU     LIG  300   8.963  10.306   5.750  0.0424 -0.2132  0.2748
    1AU     LIG  301   9.251  10.413   6.024  0.1243 -0.3653  0.3264
    1AU     LIG  302   9.560  10.488   6.507  0.2446 -0.0035 -0.2238
    1AU    AUSL  303   7.924   9.645   5.751  0.0335  0.0152  0.0996
    1AU    AUSL  304   8.341   9.492   5.895 -0.0513 -0.0998  0.0468
    1AU     AUL  305   8.295   9.573   5.556  0.0303 -0.0416 -0.0157
    1AU       S  306   8.526   9.198   5.401  0.0762  0.3541  0.0133
    1AU     LIG  307   8.796   9.603   5.429 -0.1197 -0.0765  0.2789
    1AU     LIG  308   9.081   9.856   5.513  0.1786  0.4599  0.1786
    1AU     LIG  309   9.385  10.046   5.691 -0.0146  0.1580  0.2069
    1AU     LIG  310   9.837  10.103   5.541 -0.1079 -0.0522 -0.2021
    1AU       S  311   7.930   9.748   5.333  0.3011  0.5887 -0.2838
    1AU     LIG  312   7.885   9.326   5.185 -0.4445  0.1060  0.1276
    1AU     LIG  313   8.092   9.000   5.016 -0.1733 -0.2136 -0.0804
    1AU     LIG  314   8.247   8.947   4.625 -0.1630  0.1423 -0.2326
    1AU     LIG  315   8.188   8.794   4.298 -0.0723  0.2023 -0.4819
    1AU    AUSL  316   7.295   9.143   6.590  0.0910  0.0304 -0.0061
    1AU    AUSL  317   7.193   9.389   6.238  0.0605 -0.0291 -0.1135
    1AU     AUL  318   7.153   8.936   6.401 -0.0346  0.1126 -0.0321
    1AU       S  319   6.914   9.257   6.118  0.1139 -0.0956 -0.0911
    1AU     LIG  320   6.520   9.277   6.239 -0.1226 -0.2495 -0.0981
    1AU     LIG  321   6.183   9.015   6.040 -0.1767  0.1256 -0.1287
    1AU     LIG  322   5.834   8.848   6.158  0.3301  0.4935 -0.0010
    1AU     LIG  323   5.552   8.502   6.459  0.1555 -0.1665  0.1724
    1AU       S  324   6.867   9.036   6.704  0.4575 -0.2989 -0.1604
    1AU     LIG  325   6.558   8.821   6.590  0.0487  0.0792  0.0464
    1AU     LIG  326   6.180   8.938   6.635 -0.1969  0.0460  0.0867
    1AU     LIG  327   5.799   8.946   6.672  0.0888 -0.0651 -0.1118
    1AU     LIG  328   5.516   9.059   7.002  0.0284  0.1803  0.0391
    1AU    AUSL  329   7.022   9.488   6.606  0.1083  0.0626 -0.0685
    1AU    AUSL  330   7.158   9.748   7.000  0.0507 -0.0453 -0.0214
    1AU     AUL  331   6.847   9.623   6.961 -0.0074  0.1121 -0.0270
    1AU       S  332   6.798   9.316   6.629  0.1789 -0.0098  0.2531
    1AU     LIG  333   6.307   9.425   6.673  0.1801 -0.1510 -0.1331
    1AU     LIG  334   5.752   9.456   6.714 -0.1331  0.2331  0.6705
    1AU     LIG  335   5.375   9.404   6.621 -0.0103  0.2189  0.3798
    1AU     LIG  336   5.075   9.560   6.513 -0.1396 -0.0984 -0.4277
    1AU       S  337   6.896  10.058   6.879  0.0711  0.3265 -0.1882
    1AU     LIG  338   6.531  10.062   6.929  0.0735 -0.1161 -0.1326
    1AU     LIG  339   6.216  10.334   6.948  0.2071 -0.2402  0.1921
    1AU     LIG  340   5.872  10.543   6.856 -0.1095 -0.0900  0.2389
    1AU     LIG  341   5.782  10.851   6.576 -0.0510  0.0463 -0.0055
    1AU    AUSL  342   7.213   9.316   6.966 -0.0393 -0.0414 -0.0641
    1AU    AUSL  343   7.505   8.796   6.682  0.0428  0.0338  0.0326
    1AU     AUL  344   7.274   8.938   6.932  0.0168 -0.0641 -0.0871
    1AU       S  345   7.503   8.457   6.822  0.3757 -0.5745  0.1639
    1AU     LIG  346   7.709   8.056   6.675 -0.0163  0.3568  0.2557
    1AU     LIG  347   7.858   7.562   6.434  0.0923 -0.2269 -0.3665
    1AU     LIG  348   7.715   7.033   6.497  0.0162 -0.0931 -0.0732
    1AU     LIG  349   7.399   6.798   6.639 -0.0407 -0.0637  0.1515
    1AU       S  350   6.884   9.139   7.000  0.0258  0.1368 -0.2987
    1AU     LIG  351   6.865   9.454   7.404 -0.1229 -0.2742  0.2238
    1AU     LIG  352   6.755   9.559   7.763  0.3503  0.0246  0.2965
    1AU     LIG  353   6.889   9.369   8.172  0.0322  0.2403  0.2875
    1AU     LIG  354   6.903   9.126   8.471 -0.1083  0.1380 -0.2733
    1AU    AUSL  355   8.625   9.274   6.180  0.0583  0.0144  0.0203
    1AU    AUSL  356   8.777   9.288   6.584 -0.1282  0.0563 -0.0513
    1AU     AUL  357   8.845   9.042   6.213 -0.0296 -0.0060  0.1059
    1AU       S  358   9.146   9.352   6.018  0.3233  0.3589  0.6386
    1AU     LIG  359   9.279   8.986   5.852  0.0420 -0.2149  0.0963
    1AU     LIG  360   9.530   8.752   5.841 -0.0316 -0.2715  0.0550
    1AU     LIG  361   9.693   8.385   5.980 -0.2482  0.0071 -0.1198
    1AU     LIG  362   9.951   7.985   6.120 -0.0039  0.0308 -0.3175
    1AU       S  363   8.994   9.202   6.663  0.2153  0.4432  0.3262
    1AU     LIG  364   9.390   8.996   6.357 -0.0651  0.0669  0.1467
    1AU     LIG  365   9.418   8.635   6.373  0.1163  0.1039  0.1221
    1AU     LIG  366   9.560   8.197   6.402 -0.1698 -0.0833  0.2699
    1AU     LIG  367   9.233   7.901   6.644  0.3943 -0.0512  0.0512
    1AU    AUSL  368   8.716   9.649   5.924  0.0469  0.0407  0.0779
    1AU    AUSL  369   8.436   9.051   5.866  0.0619 -0.1079 -0.0625
    1AU     AUL  370   8.690   9.268   5.824  0.0037  0.0467 -0.0166
    1AU       S  371   9.055   9.522   5.871 -0.0066  0.1277 -0.2776
    1AU     LIG  372   9.613   9.345   6.051  0.0506 -0.2953  0.4467
    1AU     LIG  373   9.916   9.051   6.194 -0.0589 -0.5256  0.2247
    1AU     LIG  374  10.277   8.744   6.454  0.0384  0.0009  0.1060
    1AU     LIG  375  10.353   8.436   6.620  0.3669 -0.0685  0.0406
    1AU       S  376   8.434   8.960   5.600 -0.1745  0.2598 -0.2527
    1AU     LIG  377   8.832   8.817   5.787 -0.0421  0.3906  0.0457
    1AU     LIG  378   8.971   8.528   6.134  0.0428  0.0190  0.2018
    1AU     LIG  379   9.138   8.196   6.177 -0.3845  0.1139 -0.0191
    1AU     LIG  380   9.213   7.762   6.068  0.1685 -0.3387  0.1637
    1AU    AUSL  381   8.892   9.578   6.310  0.0894  0.0274 -0.0236
    1AU    AUSL  382   8.584   9.905   6.242  0.0888  0.0532  0.0905
    1AU     AUL  383   8.877   9.921   6.048  0.0765  0.0250 -0.0281
    1AU       S  384   9.083  10.015   6.414 -0.1601  0.5740  0.2128
    1AU     LIG  385   9.429   9.893   6.186 -0.1749  0.2552 -0.0149
    1AU     LIG  386   9.867   9.703   5.867 -0.1644 -0.2280  0.1127
    1AU     LIG  387  10.286   9.464   5.920 -0.1066 -0.1872 -0.0354
    1AU     LIG  388  10.381   9.221   6.288 -0.1856 -0.0242  0.1018
    1AU       S  389   9.100   9.527   6.238 -0.0500 -0.0207 -0.2814
    1AU     LIG  390   9.393   9.479   6.446  0.0648 -0.0561 -0.3331
    1AU     LIG  391   9.687   9.302   6.646  0.0647  0.1711 -0.0450
    1AU     LIG  392  10.083   9.144   6.749  0.2417 -0.3882 -0.0600
    1AU     LIG  393  10.486   9.038   6.782  0.0693 -0.0621  0.0159
    1AU    AUSL  394   7.373  10.128   6.885  0.0022  0.0494 -0.0027
    1AU    AUSL  395   7.513   9.596   7.160  0.0727  0.0259  0.0288
    1AU     AUL  396   7.282   9.997   7.165  0.0314 -0.0134  0.1190
    1AU       S  397   7.000  10.238   6.938  0.1993  0.0396  0.3293
    1AU     LIG  398   7.246  10.650   6.987 -0.2546  0.1749 -0.2290
    1AU     LIG  399   7.164  11.039   6.999 -0.1343  0.0931 -0.1718
    1AU     LIG  400   7.002  11.459   6.989  0.0285 -0.3537  0.2091
    1AU     LIG  401   6.898  11.853   7.006  0.0060 -0.2222  0.2155
    1AU       S  402   7.329   9.613   7.417 -0.1888 -0.2147  0.1983
    1AU     LIG  403   7.212   9.134   7.431  0.1973  0.0824 -0.1238
    1AU     LIG  404   7.046   8.748   7.345 -0.3805 -0.3982 -0.1242
    1AU     LIG  405   6.838   8.445   7.114 -0.0569 -0.2467 -0.4923
    1AU     LIG  406   6.733   8.134   7.180  0.0780 -0.1671 -0.0567
    1AU    AUSL  407   7.273   9.820   6.593 -0.0933  0.0109  0.0627
    1AU    AUSL  408   7.563  10.149   6.513  0.0160  0.0591  0.0887
    1AU     AUL  409   7.269  10.262   6.565  0.0075 -0.0107 -0.0862
    1AU       S  410   6.953   9.948   6.612 -0.4976  0.1628 -0.1825
    1AU     LIG  411   6.589   9.776   6.434 -0.0344 -0.6364 -0.1435
    1AU     LIG  412   6.255   9.709   6.168 -0.1749  0.2718 -0.2806
    1AU     LIG  413   5.943   9.942   6.203 -0.1067 -0.0566 -0.2523
    1AU     LIG  414   5.585   9.893   6.108 -0.0314 -0.1803  0.1411
    1AU       S  415   7.066  10.481   6.182 -0.0046 -0.0564  0.2679
    1AU     LIG  416   6.989  10.727   6.457  0.2322 -0.0398 -0.1891
    1AU     LIG  417   6.821  10.970   6.675  0.2366  0.0941 -0.3309
    1AU     LIG  418   6.613  11.096   7.010 -0.0947  0.0910 -0.0033
    1AU     LIG  419   6.558  11.121   7.490  0.0928  0.2479 -0.1153
    1AU    AUSL  420   8.678  10.210   6.534  0.0452  0.0042  0.0135
    1AU    AUSL  421   8.485  10.195   5.944  0.0356  0.0158 -0.0081
    1AU     AUL  422   8.667  10.300   6.202 -0.0422  0.0940 -0.0046
    1AU       S  423   8.477  10.463   5.836  0.2852  0.2415 -0.0481
    1AU     LIG  424   8.328  10.535   5.358 -0.3305  0.4939  0.3194
    1AU     LIG  425   8.098  10.727   4.989 -0.0385 -0.0447  0.1668
    1AU     LIG  426   7.663  10.813   5.076 -0.0991 -0.1998 -0.1606
    1AU     LIG  427   7.168  10.799   5.017 -0.0846 -0.2050 -0.2113
    1AU       S  428   9.065  10.170   6.464 -0.0536 -0.5665 -0.0029
    1AU     LIG  429   9.075  10.567   6.650  0.1441 -0.3685  0.0230
    1AU     LIG  430   8.930  10.997   6.726 -0.7333  0.0932 -0.0934
    1AU     LIG  431   9.151  11.329   6.870 -0.1809 -0.0618 -0.2169
    1AU     LIG  432   9.425  11.657   6.796  0.0422  0.0764  0.0264
    1AU    AUSL  433   8.723   9.764   6.627 -0.0209  0.0028 -0.0593
    1AU    AUSL  434   8.414  10.074   6.839  0.0944  0.0014 -0.0085
    1AU     AUL  435   8.811  10.124   6.839  0.0059 -0.0246  0.0441
    1AU       S  436   9.079   9.858   6.586  0.1971 -0.1850 -0.1364
    1AU     LIG  437   9.264  10.056   6.978  0.2092  0.1426 -0.3462
    1AU     LIG  438   9.568  10.464   7.111  0.1485 -0.2439 -0.1214
    1AU     LIG  439   9.788  10.806   6.868 -0.0065 -0.0199  0.2799
    1AU     LIG  440   9.705  11.223   6.717  0.0627 -0.0252  0.0302
    1AU       S  441   8.691  10.304   7.219  0.2860  0.0272  0.1503
    1AU     LIG  442   8.633  10.604   6.886 -0.0847 -0.1880 -0.2493
    1AU     LIG  443   8.464  11.023   6.858 -0.0452  0.1002 -0.1772
    1AU     LIG  444   8.671  11.412   6.962  0.0898 -0.0464 -0.2120
    1AU     LIG  445   8.963  11.762   6.982  0.3281 -0.1274  0.1697
    2POPC   NC3  446   4.558   1.150   8.323  0.2631  0.2347 -0.3675
    2POPC   PO4  447   4.069   1.153   8.407  0.2134 -0.3733  0.0313
    2POPC   GL1  448   4.225   0.849   8.118  0.1233 -0.0555 -0.4646
    2POPC   GL2  449   4.311   0.494   7.993 -0.1183 -0.0101 -0.4212
    2POPC   C1A  450   4.333   0.929   7.737 -0.5055 -0.1195  0.0330
    2POPC   D2A  451   4.639   0.986   7.314  0.3397  0.2593 -0.3343
    2POPC   C3A  452   4.684   1.297   7.091 -0.2812  0.0757 -0.0242
    2POPC   C4A  453   4.675   1.405   6.660 -0.0977 -0.0007  0.2019
    2POPC   C1B  454   4.317   0.291   7.527 -0.0454 -0.0012  0.0531
    2POPC   C2B  455   4.631  -0.060   7.454  0.3398  0.2116  0.1714
    2POPC   C3B  456   4.987  -0.418   7.430  0.0832  0.0575 -0.0307
    2POPC   C4B  457   5.012  -0.736   7.172 -0.0598  0.1372  0.0373
    3POPC   NC3  458   4.391   1.968   8.588 -0.1312 -0.2396 -0.2827
    3POPC   PO4  459   4.820   2.097   8.495  0.1072 -0.0079  0.1861
    3POPC   GL1  460   4.622   2.163   8.126  0.0006  0.1413 -0.0080
    3POPC   GL2  461   4.590   2.462   7.951 -0.0837  0.1616  0.1305
    3POPC   C1A  462   4.406   2.063   7.722  0.2284 -0.1919 -0.0837
    3POPC   D2A  463   4.191   1.922   7.427 -0.0483  0.1922  0.1630
    3POPC   C3A  464   4.313   2.162   7.101  0.1606  0.0232  0.2613
    3POPC   C4A  465   4.077   2.422   6.809 -0.2480  0.1467  0.2799
    3POPC   C1B  466   4.704   2.459   7.498  0.0261 -0.0077 -0.0901
    3POPC   C2B  467   4.957   2.322   7.043 -0.2719 -0.0296  0.2948
    3POPC   C3B  468   5.260   2.081   6.877 -0.1105 -0.3842 -0.1132
    3POPC   C4B  469   5.543   1.829   6.789 -0.1525  0.1699 -0.0484
    4POPC   NC3  470   1.719   2.759   8.744  0.1271  0.0587 -0.1883
    4POPC   PO4  471   1.945   2.897   8.389  0.1438  0.1470 -0.2539
    4POPC   GL1  472   2.073   3.124   8.063  0.0157  0.2363 -0.0046
    4POPC   GL2  473   2.356   2.964   8.100  0.0079  0.0714 -0.1367
    4POPC   C1A  474   2.150   3.222   7.633 -0.0955  0.3336  0.3248
    4POPC   D2A  475   2.330   3.301   7.240  0.1208  0.0948 -0.0284
    4POPC   C3A  476   2.080   3.545   6.896  0.2439  0.2171 -0.2233
    4POPC   C4A  477   1.619   3.664   6.807 -0.2116 -0.2166  0.3071
    4POPC   C1B  478   2.321   2.717   7.724  0.0917  0.5275  0.1525
    4POPC   C2B  479   2.166   2.687   7.284 -0.0361 -0.0195 -0.0205
    4POPC   C3B  480   2.116   2.565   6.894 -0.0432 -0.0300  0.1143
    4POPC   C4B  481   2.290   2.549   6.408 -0.2411  0.1313 -0.2667
    5POPC   NC3  482   3.637   0.888   8.431  0.2615  0.1211 -0.1208
    5POPC   PO4  483   4.067   0.661   8.566  0.1461 -0.0650  0.0334
    5POPC   GL1  484   3.873   0.424   8.177 -0.3397 -0.1066 -0.1056
    5POPC   GL2  485   3.556   0.449   8.151 -0.0656  0.2848 -0.0467
    5POPC   C1A  486   3.897   0.194   7.813 -0.1972 -0.1766 -0.1421
    5POPC   D2A  487   3.913  -0.130   7.483 -0.0681 -0.3970  0.3034
    5POPC   C3A  488   4.124  -0.045   7.148 -0.1369  0.0277  0.1233
    5POPC   C4A  489   4.521   0.091   6.964  0.0029  0.1982  0.0668
    5POPC   C1B  490   3.405   0.606   7.739  0.0377 -0.0267 -0.2678
    5POPC   C2B  491   3.407   0.632   7.326  0.2524 -0.0407 -0.3135
    5POPC   C3B  492   3.452   0.411   6.919  0.1304  0.1035 -0.1856
    5POPC   C4B  493   3.513   0.271   6.464 -0.2640  0.1142  0.1135
    6POPC   NC3  494   0.294   1.422   8.985 -0.1414 -0.2468  0.0237
    6POPC   PO4  495   0.128   1.342   8.559  0.0692 -0.1343  0.0171
    6POPC   GL1  496   0.048   1.133   8.175  0.1866 -0.2269 -0.1045
    6POPC   GL2  497  -0.057   0.868   8.265  0.0391  0.1168  0.2640
    6POPC   C1A  498  -0.110   1.161   7.828 -0.1162  0.1665  0.2638
    6POPC   D2A  499  -0.530   1.082   7.663 -0.0036  0.0805 -0.1548
    6POPC   C3A  500  -0.772   0.714   7.589 -0.0564 -0.0673 -0.1870
    6POPC   C4A  501  -0.724   0.286   7.496 -0.0474  0.3504 -0.4786
    6POPC   C1B  502   0.281   0.756   7.983  0.1276 -0.1176 -0.0005
    6POPC   C2B  503   0.343   0.444   7.679 -0.1267 -0.0768 -0.0605
    6POPC   C3B  504   0.222   0.245   7.321 -0.2032 -0.0275 -0.0147
    6POPC   C4B  505   0.291  -0.044   6.961  0.0161  0.2109 -0.0461
    7POPC   NC3  506   0.851   3.986   8.032  0.2971 -0.2055  0.1585
    7POPC   PO4  507   1.226   4.210   7.985  0.1689 -0.0533 -0.1478
    7POPC   GL1  508   1.450   4.321   7.678 -0.0026  0.0413 -0.0623
    7POPC   GL2  509   1.757   4.217   7.631  0.3244 -0.2514 -0.1137
    7POPC   C1A  510   1.313   4.410   7.290 -0.0821  0.2878  0.0320
    7POPC   D2A  511   1.220   4.478   6.855  0.3099  0.0159 -0.0928
    7POPC   C3A  512   1.251   4.188   6.525 -0.3306  0.0741 -0.2898
    7POPC   C4A  513   1.414   4.279   6.068 -0.0425 -0.0709 -0.0641
    7POPC   C1B  514   1.920   3.977   7.395  0.4063  0.1777 -0.1903
    7POPC   C2B  515   1.689   3.572   7.306 -0.2744  0.1376  0.0843
    7POPC   C3B  516   1.445   3.292   7.053  0.1355  0.0017 -0.0280
    7POPC   C4B  517   1.204   3.081   6.691 -0.1960 -0.1467  0.0485
    8POPC   NC3  518   3.120   5.348   7.826  0.0796  0.2591  0.2050
    8POPC   PO4  519   3.437   5.598   7.705  0.0314  0.2258  0.0618
    8POPC   GL1  520   3.325   5.677   7.315  0.0003 -0.3979 -0.1048
    8POPC   GL2  521   3.064   5.513   7.113 -0.1228 -0.0472  0.0207
    8POPC   C1A  522   3.401   5.715   6.855 -0.0687  0.1759  0.4093
    8POPC   D2A  523   3.601   6.027   6.562  0.3818  0.0887  0.0850
    8POPC   C3A  524   3.710   6.348   6.708 -0.1465  0.1385  0.0243
    8POPC   C4A  525   3.471   6.708   6.655 -0.2046  0.0802  0.6215
    8POPC   C1B  526   2.890   5.757   6.826 -0.1982  0.2912  0.1616
    8POPC   C2B  527   2.757   5.834   6.405 -0.1515 -0.2837  0.1275
    8POPC   C3B  528   2.649   6.250   6.120 -0.3614  0.0032 -0.3477
    8POPC   C4B  529   2.355   6.364   5.916 -0.0273  0.1766  0.2397
    9POPC   NC3  530   7.134   5.684   8.049 -0.1622 -0.0955 -0.3703
    9POPC   PO4  531   7.135   5.278   7.935 -0.0013  0.1124  0.3947
    9POPC   GL1  532   7.011   5.258   7.591 -0.1326 -0.0500  0.1273
    9POPC   GL2  533   6.787   5.053   7.481  0.3522  0.1193 -0.0787
    9POPC   C1A  534   7.215   5.402   7.184  0.2674 -0.1685 -0.2894
    9POPC   D2A  535   7.301   5.363   6.707  0.0756 -0.2304  0.3523
    9POPC   C3A  536   7.340   5.273   6.291 -0.3366 -0.2370  0.1259
    9POPC   C4A  537   7.373   5.492   5.861 -0.1551  0.0574  0.1097
    9POPC   C1B  538   6.959   5.040   7.018 -0.0563  0.2087  0.1860
    9POPC   C2B  539   6.829   5.242   6.592  0.1231 -0.1509 -0.1023
    9POPC   C3B  540   6.598   5.637   6.511  0.1203 -0.0099  0.0880
    9POPC   C4B  541   6.196   5.633   6.277 -0.0650 -0.0687 -0.3796
   10POPC   NC3  542   7.748   2.754   8.288  0.2265  0.0134  0.3130
   10POPC   PO4  543   7.265   2.856   8.370 -0.4083  0.1250 -0.0867
   10POPC   GL1  544   7.122   2.415   8.143 -0.2106  0.3142  0.2939
   10POPC   GL2  545   6.746   2.449   7.999  0.1422  0.1378 -0.1096
   10POPC   C1A  546   7.050   2.039   7.884 -0.0108  0.1559  0.0425
   10POPC   D2A  547   7.185   1.770   7.535  0.0455  0.1757  0.0569
   10POPC   C3A  548   7.524   1.399   7.615 -0.0603  0.0675  0.1217
   10POPC   C4A  549   7.695   1.119   7.702 -0.1522  0.1552 -0.1570
   10POPC   C1B  550   6.617   2.153   7.680  0.0811  0.0580 -0.0573
   10POPC   C2B  551   6.507   2.158   7.334 -0.0567 -0.3359 -0.0357
   10POPC   C3B  552   6.751   2.314   6.985  0.0833 -0.2580  0.2317
   10POPC   C4B  553   6.787   2.390   6.509  0.0216 -0.0631  0.1206
   11POPC   NC3  554   3.788   6.304   8.125  0.1383  0.0723  0.1836
   11POPC   PO4  555   3.867   6.697   7.954 -0.1126 -0.1591 -0.2493
   11POPC   GL1  556   3.924   6.535   7.589 -0.0114 -0.0438  0.4592
   11POPC   GL2  557   4.027   6.311   7.379  0.1229  0.1070  0.1469
   11POPC   C1A  558   3.621   6.694   7.293  0.3345 -0.2329  0.2761
   11POPC   D2A  559   3.283   6.909   7.162 -0.2523 -0.1539  0.1864
   11POPC   C3A  560   3.145   7.057   6.664  0.0563  0.0433 -0.2822
   11POPC   C4A  561   3.131   7.206   6.274  0.0873 -0.0634  0.0723
   11POPC   C1B  562   3.829   5.991   7.031  0.0391 -0.0522  0.0805
   11POPC   C2B  563   3.940   5.695   6.787  0.0065 -0.0016  0.2995
   11POPC   C3B  564   4.053   5.344   7.009 -0.0498 -0.1174 -0.0159
   11POPC   C4B  565   3.932   5.046   7.343  0.0644  0.0989  0.1585
   12POPC   NC3  566   3.611   0.641   9.043 -0.0079 -0.0266 -0.0980
   12POPC   PO4  567   3.205   0.918   8.819  0.1333  0.1847 -0.1439
   12POPC   GL1  568   3.124   0.803   8.316  0.0151  0.1508 -0.2611
   12POPC   GL2  569   3.253   1.081   8.093 -0.0815  0.0493  0.1155
   12POPC   C1A  570   3.034   0.488   8.028  0.3354 -0.2130  0.3134
   12POPC   D2A  571   3.007   0.409   7.561 -0.2180 -0.2532 -0.0048
   12POPC   C3A  572   2.684   0.670   7.320 -0.2694  0.0889 -0.1004
   12POPC   C4A  573   2.249   0.664   7.370 -0.3070 -0.2396 -0.1475
   12POPC   C1B  574   3.430   1.154   7.642 -0.0533  0.1816 -0.2219
   12POPC   C2B  575   3.595   1.083   7.240 -0.1748 -0.3524 -0.0485
   12POPC   C3B  576   3.395   1.063   6.795  0.2600  0.0505  0.0897
   12POPC   C4B  577   3.381   0.792   6.496  0.2148  0.0185 -0.0483
   13POPC   NC3  578   9.498   7.318   9.072  0.1055 -0.0364  0.0134
   13POPC   PO4  579   9.507   7.612   8.799 -0.1124  0.0802  0.0059
   13POPC   GL1  580   9.247   7.597   8.433  0.0120 -0.0382 -0.1902
   13POPC   GL2  581   9.424   7.553   8.131  0.1600  0.4786  0.0992
   13POPC   C1A  582   8.943   7.772   8.107  0.0082  0.2399 -0.0026
   13POPC   D2A  583   8.883   7.536   7.657 -0.2451  0.0844  0.0365
   13POPC   C3A  584   8.700   7.060   7.663 -0.2966 -0.6305 -0.1816
   13POPC   C4A  585   8.343   6.841   7.529 -0.3648 -0.1690 -0.3842
   13POPC   C1B  586   9.439   7.989   8.130  0.2918 -0.2626  0.1305
   13POPC   C2B  587   9.159   8.218   8.072 -0.0829 -0.0806 -0.0013
   13POPC   C3B  588   9.060   8.537   7.690  0.0788  0.1667 -0.3478
   13POPC   C4B  589   8.696   8.706   7.567  0.0554 -0.0313  0.0035
   14POPC   NC3  590   3.922   9.689   8.298 -0.2366  0.1890  0.0282
   14POPC   PO4  591   3.591   9.559   8.135 -0.2362 -0.2089  0.3489
   14POPC   GL1  592   3.591   9.237   7.819  0.3390 -0.2184  0.2207
   14POPC   GL2  593   3.418   9.485   7.627 -0.1498  0.2632 -0.2604
   14POPC   C1A  594   3.701   9.086   7.346 -0.1726  0.2716 -0.0340
   14POPC   D2A  595   3.677   9.171   6.827 -0.1928  0.1214  0.1810
   14POPC   C3A  596   3.855   9.453   6.571 -0.2182 -0.1104 -0.3388
   14POPC   C4A  597   3.641   9.771   6.323 -0.0494 -0.1702  0.0906
   14POPC   C1B  598   3.565   9.519   7.205  0.0617 -0.0170 -0.1704
   14POPC   C2B  599   3.677   9.834   6.874  0.0625  0.0469  0.0275
   14POPC   C3B  600   3.971  10.172   6.758 -0.0885  0.3165  0.2213
   14POPC   C4B  601   4.342  10.532   6.949 -0.1165  0.1840 -0.1167
   15POPC   NC3  602   1.218   7.531   8.584 -0.0788  0.0498 -0.0162
   15POPC   PO4  603   1.314   7.639   8.190  0.1809  0.1035  0.0061
   15POPC   GL1  604   1.061   7.534   7.805 -0.0268 -0.0572 -0.0032
   15POPC   GL2  605   0.937   7.273   7.712  0.0734  0.2638 -0.1410
   15POPC   C1A  606   1.084   7.775   7.443 -0.1108  0.1040  0.2160
   15POPC   D2A  607   1.067   7.859   7.030  0.2193  0.1947  0.1429
   15POPC   C3A  608   1.502   7.641   6.979 -0.0238  0.0648  0.0837
   15POPC   C4A  609   1.723   7.243   7.039  0.1520  0.3594  0.0472
   15POPC   C1B  610   0.672   7.379   7.416 -0.0097 -0.1208 -0.1562
   15POPC   C2B  611   0.532   7.263   7.044  0.2246  0.0827 -0.2577
   15POPC   C3B  612   0.630   7.468   6.723  0.0117  0.0455 -0.2142
   15POPC   C4B  613   0.844   7.626   6.470 -0.0339 -0.0250  0.0706
   16POPC   NC3  614   7.445   8.061   9.320 -0.1265 -0.1613 -0.0164
   16POPC   PO4  615   7.298   7.590   9.184  0.2528 -0.1596 -0.0273
   16POPC   GL1  616   7.597   7.698   8.786 -0.1281 -0.3298 -0.1723
   16POPC   GL2  617   7.415   7.968   8.728  0.2957 -0.2220 -0.0224
   16POPC   C1A  618   7.510   7.631   8.321  0.1997  0.1862 -0.0881
   16POPC   D2A  619   7.634   7.282   8.074 -0.1015 -0.1493 -0.0055
   16POPC   C3A  620   7.884   7.364   7.704 -0.0366  0.0250 -0.1036
   16POPC   C4A  621   8.191   7.297   7.431  0.1708 -0.3027  0.4158
   16POPC   C1B  622   7.295   8.181   8.437 -0.0731  0.1157  0.1695
   16POPC   C2B  623   7.537   8.468   8.131 -0.0095 -0.2328  0.1586
   16POPC   C3B  624   7.857   8.760   8.145  0.2890 -0.0756  0.0586
   16POPC   C4B  625   7.849   9.201   8.148  0.0984  0.1644  0.0718
   17POPC   NC3  626   1.084   7.192   8.143  0.0354  0.2524  0.1196
   17POPC   PO4  627   0.932   6.800   8.016 -0.4792  0.3259 -0.1215
   17POPC   GL1  628   0.887   6.785   7.629  0.1193  0.1704 -0.0677
   17POPC   GL2  629   0.584   6.509   7.606 -0.2580  0.1711 -0.0593
   17POPC   C1A  630   0.887   6.975   7.279 -0.4810  0.1728 -0.0492
   17POPC   D2A  631   0.805   6.968   6.762 -0.0207 -0.2013 -0.2114
   17POPC   C3A  632   0.571   7.058   6.422 -0.1632  0.3559  0.1206
   17POPC   C4A  633   0.241   6.996   6.229 -0.1177  0.2349  0.3141
   17POPC   C1B  634   0.614   6.591   7.118 -0.0186  0.0560  0.0111
   17POPC   C2B  635   0.440   6.625   6.694  0.2611 -0.0043 -0.2206
   17POPC   C3B  636   0.106   6.500   6.356 -0.1402  0.0892 -0.1851
   17POPC   C4B  637   0.193   6.540   5.903 -0.1235 -0.1116 -0.2378
   18POPC   NC3  638   8.000   5.508   8.263  0.3520 -0.3643 -0.0393
   18POPC   PO4  639   7.595   5.427   8.126  0.2711 -0.0049 -0.2918
   18POPC   GL1  640   7.751   5.279   7.690  0.1006 -0.2057 -0.1167
   18POPC   GL2  641   7.602   5.071   7.560  0.0477 -0.0404  0.1669
   18POPC   C1A  642   8.089   5.423   7.368 -0.0693  0.0357  0.0089
   18POPC   D2A  643   8.146   5.684   7.055  0.1237  0.2627 -0.0886
   18POPC   C3A  644   7.878   5.943   6.926  0.1417 -0.1447 -0.0900
   18POPC   C4A  645   7.747   6.444   6.878  0.1902 -0.1572 -0.0673
   18POPC   C1B  646   7.470   4.979   7.050 -0.0405  0.0289 -0.1178
   18POPC   C2B  647   7.770   5.063   6.689  0.1338  0.2268  0.0475
   18POPC   C3B  648   7.885   5.220   6.362  0.0442 -0.1410  0.1289
   18POPC   C4B  649   7.760   5.210   5.956  0.1146  0.0616  0.0496
   19POPC   NC3  650   3.490   9.773   8.673 -0.1619  0.0003  0.4386
   19POPC   PO4  651   3.755  10.138   8.593 -0.0879 -0.0067  0.0687
   19POPC   GL1  652   3.346  10.048   8.274  0.0298 -0.1584 -0.2134
   19POPC   GL2  653   3.084   9.690   8.235  0.0573 -0.0483  0.0867
   19POPC   C1A  654   3.291  10.070   7.867  0.0257  0.0643  0.1876
   19POPC   D2A  655   3.426  10.056   7.380 -0.2960  0.2340 -0.2785
   19POPC   C3A  656   3.855  10.296   7.313  0.0616  0.3696  0.1630
   19POPC   C4A  657   4.092  10.700   7.386 -0.0302 -0.3086  0.2928
   19POPC   C1B  658   3.016   9.631   7.817 -0.1565 -0.3593  0.1939
   19POPC   C2B  659   3.026   9.724   7.365 -0.0817  0.0772  0.1886
   19POPC   C3B  660   3.163   9.832   6.961 -0.0971  0.1976  0.1045
   19POPC   C4B  661   3.318   9.539   6.659 -0.1276 -0.0124 -0.2516
   20POPC   NC3  662   2.677   7.233   8.785 -0.0862  0.1570 -0.2435
   20POPC   PO4  663   2.512   7.423   8.277  0.0769  0.1219  0.1156
   20POPC   GL1  664   2.408   7.637   7.869 -0.1047  0.1857 -0.0219
   20POPC   GL2  665   2.073   7.691   7.715  0.2867  0.1269 -0.2064
   20POPC   C1A  666   2.608   7.706   7.495  0.0857  0.2919 -0.0274
   20POPC   D2A  667   2.625   7.588   6.981  0.2501  0.0445 -0.1680
   20POPC   C3A  668   2.748   7.164   6.952 -0.1427 -0.0448 -0.0799
   20POPC   C4A  669   2.826   6.728   6.937  0.1863 -0.1561  0.0314
   20POPC   C1B  670   2.126   7.588   7.215 -0.0524  0.2361 -0.1805
   20POPC   C2B  671   2.093   7.453   6.754  0.3476 -0.0262 -0.2451
   20POPC   C3B  672   2.332   7.259   6.494  0.0394 -0.1361  0.1800
   20POPC   C4B  673   2.684   6.958   6.511 -0.2230 -0.1802 -0.2596
   21POPC   NC3  674   7.144   3.923   7.938  0.0844 -0.1685  0.0984
   21POPC   PO4  675   6.801   3.940   8.153 -0.2765  0.0206 -0.1565
   21POPC   GL1  676   6.736   3.694   7.776 -0.5424  0.2826 -0.1394
   21POPC   GL2  677   6.942   3.526   7.722 -0.2155  0.2037 -0.0385
   21POPC   C1A  678   6.632   3.818   7.393  0.0519  0.2055 -0.1014
   21POPC   D2A  679   6.604   4.122   7.027 -0.0132 -0.4048  0.0914
   21POPC   C3A  680   6.644   4.358   6.672  0.1604 -0.3017  0.3029
   21POPC   C4A  681   6.971   4.245   6.392  0.0559 -0.0753 -0.0237
   21POPC   C1B  682   7.099   3.572   7.292  0.0987 -0.1919  0.0209
   21POPC   C2B  683   7.166   3.480   6.812  0.0481  0.2987 -0.0852
   21POPC   C3B  684   7.379   3.397   6.491  0.3997  0.2032  0.1842
   21POPC   C4B  685   7.257   3.372   6.095 -0.0160  0.0774  0.1205
   22POPC   NC3  686   3.266   4.535   8.320 -0.0013  0.0333  0.1439
   22POPC   PO4  687   2.975   4.263   8.600  0.0128  0.0536  0.2895
   22POPC   GL1  688   2.782   4.258   8.170 -0.0869 -0.1217 -0.0878
   22POPC   GL2  689   2.549   4.170   8.115  0.2892  0.2139 -0.1902
   22POPC   C1A  690   2.849   4.332   7.730  0.1976 -0.1218  0.2252
   22POPC   D2A  691   3.016   4.587   7.414 -0.1730 -0.2524 -0.1932
   22POPC   C3A  692   3.146   4.238   7.185  0.0667 -0.1625 -0.0170
   22POPC   C4A  693   3.161   4.289   6.610 -0.1207  0.1450  0.0709
   22POPC   C1B  694   2.642   3.817   7.801 -0.1994 -0.0135  0.1342
   22POPC   C2B  695   2.695   3.671   7.336 -0.2086  0.4329 -0.1215
   22POPC   C3B  696   2.605   3.465   6.862 -0.0352 -0.0913  0.0064
   22POPC   C4B  697   2.814   3.277   6.550 -0.0621 -0.0785 -0.1790
   23POPC   NC3  698   6.311   9.533   9.441  0.0494  0.2948  0.0451
   23POPC   PO4  699   5.929   9.467   9.324 -0.1489  0.1626  0.0745
   23POPC   GL1  700   6.081   9.171   8.985 -0.1884  0.0476 -0.0748
   23POPC   GL2  701   5.790   9.106   8.763 -0.3629 -0.1169 -0.0992
   23POPC   C1A  702   6.310   8.860   8.700 -0.1519 -0.0534 -0.3409
   23POPC   D2A  703   6.449   8.941   8.417  0.0975  0.1943 -0.0198
   23POPC   C3A  704   6.798   8.616   8.380 -0.0509  0.3787  0.0456
   23POPC   C4A  705   6.944   8.400   7.966 -0.1618  0.0834 -0.0671
   23POPC   C1B  706   6.022   9.308   8.416 -0.3011  0.1242 -0.2093
   23POPC   C2B  707   6.295   9.256   8.078 -0.1099 -0.0876 -0.1537
   23POPC   C3B  708   6.584   9.120   7.805 -0.0819  0.4775  0.2843
   23POPC   C4B  709   6.927   8.895   7.872 -0.0671 -0.0060  0.1422
   24POPC   NC3  710   0.701   2.270   8.440  0.1717 -0.2333  0.0167
   24POPC   PO4  711   0.358   2.141   8.148  0.0225 -0.0501 -0.3689
   24POPC   GL1  712  -0.036   2.086   7.903  0.1906 -0.1261 -0.0789
   24POPC   GL2  713   0.006   1.772   7.862  0.2805 -0.1401  0.1091
   24POPC   C1A  714  -0.481   2.085   7.707  0.1358  0.0329 -0.1737
   24POPC   D2A  715  -0.515   2.303   7.407 -0.2558  0.2240  0.0645
   24POPC   C3A  716  -0.655   2.299   7.047  0.3772 -0.1737 -0.0819
   24POPC   C4A  717  -0.925   2.669   6.834  0.1598  0.0895  0.0783
   24POPC   C1B  718   0.086   1.469   7.519 -0.4389 -0.0725 -0.1751
   24POPC   C2B  719  -0.072   1.088   7.296 -0.0932 -0.0050 -0.1526
   24POPC   C3B  720  -0.097   0.702   7.375 -0.2715  0.0371  0.1448
   24POPC   C4B  721  -0.226   0.285   7.543 -0.0231  0.2749 -0.1790
   25POPC   NC3  722   9.904   6.003   7.850 -0.1827  0.0696  0.0528
   25POPC   PO4  723  10.291   6.236   7.877  0.3703  0.0353  0.0465
   25POPC   GL1  724  10.316   6.046   7.371 -0.3147  0.3496  0.2223
   25POPC   GL2  725  10.506   5.847   7.425 -0.0234  0.3253 -0.0079
   25POPC   C1A  726  10.103   5.837   7.022  0.1105 -0.1026  0.1834
   25POPC   D2A  727   9.770   5.706   6.727 -0.2661  0.0156 -0.2378
   25POPC   C3A  728   9.493   5.354   6.985 -0.2598 -0.1748  0.4339
   25POPC   C4A  729   9.525   4.948   7.057  0.2569 -0.2266 -0.0761
   25POPC   C1B  730  10.896   5.964   7.310 -0.0205 -0.1645 -0.0794
   25POPC   C2B  731  11.105   5.743   6.969 -0.0852  0.0254  0.3185
   25POPC   C3B  732  11.400   5.648   6.542  0.0845 -0.1409  0.2614
   25POPC   C4B  733  11.710   5.859   6.386  0.1257 -0.1396 -0.0596
   26POPC   NC3  734   2.542   4.390   8.860 -0.3351  0.1303 -0.4525
   26POPC   PO4  735   2.528   4.573   8.467  0.0626  0.0970  0.2353
   26POPC   GL1  736   2.401   4.707   8.006  0.0061  0.0385 -0.0714
   26POPC   GL2  737   2.363   5.067   7.824 -0.1884 -0.0976  0.0303
   26POPC   C1A  738   2.548   4.633   7.540  0.3496 -0.0919  0.0635
   26POPC   D2A  739   2.592   4.609   7.124 -0.1435 -0.2329  0.1087
   26POPC   C3A  740   2.947   4.663   6.922  0.1490  0.0575  0.1375
   26POPC   C4A  741   3.228   4.778   6.498  0.0907 -0.0594 -0.0534
   26POPC   C1B  742   2.278   4.969   7.338  0.0667 -0.0549 -0.0449
   26POPC   C2B  743   2.060   4.913   6.942 -0.0208 -0.5489 -0.0631
   26POPC   C3B  744   1.664   4.721   6.935  0.0845 -0.0691  0.1618
   26POPC   C4B  745   1.240   4.888   7.132 -0.2964 -0.0317 -0.0553
   27POPC   NC3  746   6.837   3.632   8.788 -0.1489  0.2048 -0.0895
   27POPC   PO4  747   6.488   3.306   8.512 -0.2328  0.0106  0.1881
   27POPC   GL1  748   6.555   2.962   8.293 -0.0118 -0.3295  0.0605
   27POPC   GL2  749   6.844   2.934   8.075 -0.0035  0.2746 -0.1486
   27POPC   C1A  750   6.375   2.754   7.935 -0.0039 -0.1805 -0.0265
   27POPC   D2A  751   6.214   2.479   7.663  0.2631  0.0177  0.3732
   27POPC   C3A  752   5.870   2.476   7.408  0.1567 -0.0899  0.0875
   27POPC   C4A  753   5.838   2.661   7.082 -0.0802 -0.1148  0.4326
   27POPC   C1B  754   6.692   3.121   7.717 -0.1355  0.0549 -0.0705
   27POPC   C2B  755   6.853   3.091   7.279  0.0332 -0.0186 -0.1603
   27POPC   C3B  756   6.948   2.735   7.106  0.0833 -0.1080  0.3145
   27POPC   C4B  757   7.322   2.384   6.911  0.2761  0.1096 -0.3173
   28POPC   NC3  758   2.415   6.298   7.460 -0.1201 -0.0058  0.0732
   28POPC   PO4  759   2.380   5.952   7.559 -0.2572 -0.4208  0.4537
   28POPC   GL1  760   2.201   5.949   7.152  0.2177  0.0390 -0.0931
   28POPC   GL2  761   2.392   5.816   7.037 -0.1544  0.0025 -0.2196
   28POPC   C1A  762   2.017   6.150   6.813 -0.0658  0.3129  0.2826
   28POPC   D2A  763   1.880   6.386   6.416  0.1922 -0.3604 -0.1767
   28POPC   C3A  764   1.376   6.273   6.221 -0.2674 -0.3298  0.0949
   28POPC   C4A  765   0.939   6.430   5.948 -0.1152 -0.1781 -0.0171
   28POPC   C1B  766   2.311   5.737   6.680 -0.0807 -0.2204 -0.3634
   28POPC   C2B  767   2.332   5.381   6.478 -0.1157 -0.1487  0.1777
   28POPC   C3B  768   2.467   5.186   6.126  0.1796  0.0289  0.1680
   28POPC   C4B  769   2.700   5.115   5.806 -0.4002  0.4026  0.1525
   29POPC   NC3  770   9.501   4.483   8.075  0.0813 -0.0536  0.0597
   29POPC   PO4  771   9.745   4.749   8.068 -0.0058  0.0120 -0.0610
   29POPC   GL1  772   9.828   4.574   7.669  0.1923  0.1189  0.0376
   29POPC   GL2  773   9.813   4.719   7.382  0.1201 -0.3462  0.0056
   29POPC   C1A  774   9.922   4.253   7.322  0.0046 -0.1432 -0.1685
   29POPC   D2A  775   9.740   4.080   7.069 -0.0339  0.3044 -0.3909
   29POPC   C3A  776   9.787   3.994   6.602  0.0590  0.0619 -0.1462
   29POPC   C4A  777   9.500   3.989   6.220  0.1393  0.1687 -0.0978
   29POPC   C1B  778  10.023   4.907   7.003 -0.2068 -0.1738 -0.2918
   29POPC   C2B  779  10.096   4.758   6.523 -0.2102 -0.2374 -0.4397
   29POPC   C3B  780  10.127   4.949   6.136 -0.1116 -0.2746 -0.4631
   29POPC   C4B  781  10.318   5.162   5.735 -0.3376  0.2501 -0.2397
   30POPC   NC3  782   1.472   5.193   8.252 -0.2555 -0.1764  0.0336
   30POPC   PO4  783   1.137   5.212   8.146  0.2595 -0.1931 -0.1838
   30POPC   GL1  784   0.795   5.386   7.770 -0.0424  0.1307 -0.1238
   30POPC   GL2  785   1.019   5.659   7.684  0.2085  0.1469  0.1423
   30POPC   C1A  786   0.506   5.273   7.485 -0.1973 -0.0221 -0.2979
   30POPC   D2A  787   0.508   5.438   7.131 -0.3570  0.1065 -0.1269
   30POPC   C3A  788   0.487   5.665   6.675 -0.0337 -0.3057 -0.1073
   30POPC   C4A  789   0.402   5.481   6.230  0.0225 -0.2578 -0.0869
   30POPC   C1B  790   0.940   5.405   7.318  0.0964  0.0669 -0.0620
   30POPC   C2B  791   0.953   5.305   6.861 -0.0557 -0.2191 -0.2705
   30POPC   C3B  792   0.950   5.509   6.542  0.0735 -0.1674 -0.4023
   30POPC   C4B  793   1.046   5.680   6.125  0.1027 -0.0757 -0.1065
   31POPC   NC3  794   4.514   0.571   8.466  0.0151  0.1949  0.0702
   31POPC   PO4  795   4.914   0.744   8.189 -0.0959  0.2859  0.0618
   31POPC   GL1  796   4.818   0.911   7.757 -0.4204 -0.0679 -0.0339
   31POPC   GL2  797   4.836   1.220   7.710  0.0921 -0.1645 -0.1870
   31POPC   C1A  798   5.141   1.015   7.394  0.1423 -0.0905 -0.0796
   31POPC   D2A  799   5.435   1.014   7.088 -0.0262 -0.2960  0.0291
   31POPC   C3A  800   5.833   0.921   7.216 -0.1651 -0.2423 -0.2038
   31POPC   C4A  801   6.254   0.858   7.214 -0.1585  0.0339 -0.4014
   31POPC   C1B  802   5.064   1.570   7.464  0.1413  0.2413  0.1632
   31POPC   C2B  803   5.324   1.835   7.301  0.0532 -0.0662 -0.1585
   31POPC   C3B  804   5.596   2.048   7.260  0.4744 -0.0152 -0.0179
   31POPC   C4B  805   5.851   2.170   6.981  0.0231  0.1411 -0.2165
   32POPC   NC3  806   3.247   6.081   8.048 -0.0254 -0.2342  0.0771
   32POPC   PO4  807   2.928   5.896   7.727  0.0159  0.1167  0.0894
   32POPC   GL1  808   2.611   5.505   7.400 -0.0818 -0.1384 -0.3469
   32POPC   GL2  809   2.804   5.223   7.485  0.0130  0.2330  0.0108
   32POPC   C1A  810   2.592   5.336   6.968 -0.1802 -0.2459 -0.2042
   32POPC   D2A  811   2.551   4.957   6.700 -0.1463 -0.3908 -0.3022
   32POPC   C3A  812   2.803   4.898   6.293 -0.0566 -0.1016  0.1725
   32POPC   C4A  813   2.686   4.627   5.956  0.1019 -0.0982 -0.0877
   32POPC   C1B  814   2.943   5.060   7.191  0.1827  0.1464 -0.1132
   32POPC   C2B  815   3.165   5.196   6.732  0.0400 -0.3078 -0.2806
   32POPC   C3B  816   2.940   5.371   6.506  0.2046 -0.2870 -0.1609
   32POPC   C4B  817   2.988   5.427   6.048  0.2083 -0.1666  0.2056
   33POPC   NC3  818   8.731   3.510   7.973 -0.1811  0.1135 -0.4963
   33POPC   PO4  819   8.881   3.181   7.759  0.2076 -0.1705 -0.2889
   33POPC   GL1  820   9.262   3.086   7.509  0.0134 -0.0878 -0.1343
   33POPC   GL2  821   9.497   3.271   7.513  0.0217  0.0331  0.3506
   33POPC   C1A  822   9.395   2.786   7.179 -0.2843  0.2063 -0.3247
   33POPC   D2A  823   9.771   2.548   7.104  0.1811 -0.1444 -0.1351
   33POPC   C3A  824   9.750   2.061   6.986 -0.1666  0.0211  0.0682
   33POPC   C4A  825   9.929   1.596   7.004 -0.0030 -0.0125 -0.3317
   33POPC   C1B  826   9.283   3.408   7.107  0.0563 -0.0779  0.1394
   33POPC   C2B  827   9.367   3.414   6.638  0.0161 -0.0910  0.0042
   33POPC   C3B  828   9.119   3.494   6.340 -0.0808 -0.0887 -0.1488
   33POPC   C4B  829   8.713   3.712   6.055  0.1023 -0.1061  0.1573
   34POPC   NC3  830   4.277   7.010   8.161 -0.1456  0.1842 -0.3082
   34POPC   PO4  831   3.798   7.209   8.101 -0.0125  0.0556 -0.1542
   34POPC   GL1  832   3.870   7.120   7.674  0.0202 -0.0791 -0.1266
   34POPC   GL2  833   3.627   7.209   7.459 -0.3192  0.3343  0.0137
   34POPC   C1A  834   4.146   6.926   7.361  0.1627 -0.0823  0.1624
   34POPC   D2A  835   4.572   6.877   7.093 -0.0798 -0.1100 -0.2418
   34POPC   C3A  836   4.725   6.952   6.725  0.0367  0.0030  0.0190
   34POPC   C4A  837   4.641   6.651   6.250  0.0793 -0.0130  0.1760
   34POPC   C1B  838   3.671   7.222   6.954  0.2574 -0.4104  0.1040
   34POPC   C2B  839   3.758   7.097   6.544 -0.2447 -0.1935  0.1027
   34POPC   C3B  840   3.852   6.840   6.238  0.1088  0.0419 -0.0354
   34POPC   C4B  841   3.773   6.692   5.784 -0.0288  0.2567  0.1430
   35POPC   NC3  842   1.453   1.951   8.523 -0.0959 -0.1224 -0.0268
   35POPC   PO4  843   1.690   1.581   8.380 -0.0085 -0.1276  0.1580
   35POPC   GL1  844   1.755   1.407   7.963  0.0841 -0.2475  0.0590
   35POPC   GL2  845   1.856   1.170   7.933  0.1057 -0.1915 -0.0933
   35POPC   C1A  846   1.594   1.451   7.511 -0.1876  0.1995  0.1484
   35POPC   D2A  847   1.837   1.430   7.131  0.0353  0.4633 -0.1207
   35POPC   C3A  848   1.978   1.093   6.883  0.0747 -0.0414 -0.0508
   35POPC   C4A  849   2.121   0.998   6.542 -0.0938 -0.2358  0.0432
   35POPC   C1B  850   1.976   1.075   7.492  0.0776  0.1824  0.0415
   35POPC   C2B  851   2.302   1.201   7.266 -0.1479 -0.0317  0.1720
   35POPC   C3B  852   2.629   1.029   6.993 -0.0589  0.2024 -0.0028
   35POPC   C4B  853   2.886   1.224   6.755 -0.0056  0.1058  0.3313
   36POPC   NC3  854   4.605   4.696   8.092 -0.0071 -0.0922  0.1901
   36POPC   PO4  855   4.913   4.428   8.281  0.1149 -0.0436 -0.0288
   36POPC   GL1  856   4.813   4.315   7.791 -0.3980 -0.0638  0.2722
   36POPC   GL2  857   4.606   4.276   7.723 -0.0562 -0.3086 -0.0715
   36POPC   C1A  858   4.936   3.982   7.502 -0.0918 -0.1419  0.2710
   36POPC   D2A  859   5.060   3.816   7.140  0.0885  0.1015 -0.1432
   36POPC   C3A  860   5.243   3.383   7.177  0.2882 -0.0799  0.1738
   36POPC   C4A  861   5.513   3.182   6.854 -0.4531  0.0428  0.3393
   36POPC   C1B  862   4.257   4.433   7.634 -0.1995  0.3321  0.2093
   36POPC   C2B  863   3.886   4.484   7.320  0.1903 -0.0604  0.1605
   36POPC   C3B  864   3.734   4.207   7.086 -0.0889 -0.1420  0.0313
   36POPC   C4B  865   3.480   3.998   6.856  0.0295 -0.0989 -0.0445
   37POPC   NC3  866   8.880   9.198   9.778 -0.2149 -0.0507  0.0001
   37POPC   PO4  867   9.136   9.097   9.385 -0.0506  0.0668  0.0344
   37POPC   GL1  868   9.003   8.996   8.961  0.0611 -0.2713  0.1029
   37POPC   GL2  869   9.115   8.836   8.703 -0.0556 -0.1463  0.2369
   37POPC   C1A  870   8.580   8.783   8.746 -0.1802 -0.3364  0.0869
   37POPC   D2A  871   8.395   8.415   8.681  0.2278 -0.0083 -0.0779
   37POPC   C3A  872   8.240   8.433   8.271  0.0930  0.1604  0.1421
   37POPC   C4A  873   8.237   8.510   7.834  0.0601 -0.3149  0.0838
   37POPC   C1B  874   9.327   9.082   8.339 -0.0496 -0.0727 -0.1130
   37POPC   C2B  875   9.606   9.313   7.932  0.1134  0.2833 -0.1030
   37POPC   C3B  876   9.888   9.198   7.563  0.0502 -0.1814 -0.2013
   37POPC   C4B  877  10.178   9.152   7.415  0.5535  0.1480 -0.0656
   38POPC   NC3  878   9.000   3.122   8.234 -0.1789  0.1484  0.0282
   38POPC   PO4  879   8.514   3.078   8.154 -0.2077 -0.1110 -0.0353
   38POPC   GL1  880   8.335   2.810   7.881 -0.0679 -0.3932  0.1428
   38POPC   GL2  881   8.551   2.731   7.711  0.0110 -0.1500 -0.1425
   38POPC   C1A  882   8.095   2.439   7.763 -0.0420  0.2045 -0.1532
   38POPC   D2A  883   7.931   2.256   7.463  0.1146  0.1288  0.1226
   38POPC   C3A  884   7.877   2.327   7.020 -0.0777 -0.1810 -0.0967
   38POPC   C4A  885   7.726   2.138   6.678 -0.0228 -0.1352 -0.0956
   38POPC   C1B  886   8.318   2.653   7.389  0.0256  0.0519 -0.1913
   38POPC   C2B  887   8.366   2.416   6.990 -0.4385  0.1293  0.1125
   38POPC   C3B  888   8.292   2.542   6.607  0.0550  0.1584  0.0517
   38POPC   C4B  889   8.411   2.414   6.256  0.1780 -0.0365  0.1613
   39POPC   NC3  890   8.955   3.942   7.941 -0.3872 -0.0456 -0.1677
   39POPC   PO4  891   9.479   3.977   8.089  0.1325  0.0024  0.2647
   39POPC   GL1  892   9.460   4.241   7.646  0.2719  0.1195 -0.1071
   39POPC   GL2  893   9.123   4.359   7.670  0.0532 -0.2480 -0.1292
   39POPC   C1A  894   9.413   4.412   7.180  0.1194  0.1738  0.1444
   39POPC   D2A  895   9.712   4.529   6.778  0.0335 -0.1177 -0.2107
   39POPC   C3A  896   9.561   4.670   6.399  0.1938  0.1475  0.0873
   39POPC   C4A  897   9.658   5.073   6.035  0.3722 -0.1307  0.2701
   39POPC   C1B  898   8.975   4.163   7.302  0.2366  0.0908  0.0946
   39POPC   C2B  899   8.802   4.294   6.818  0.1226 -0.3105  0.0520
   39POPC   C3B  900   8.462   4.415   6.565  0.2376  0.1718  0.1702
   39POPC   C4B  901   7.949   4.464   6.545 -0.2365 -0.2472 -0.0578
   40POPC   NC3  902   6.488   6.259   8.307  0.2348  0.4070 -0.0481
   40POPC   PO4  903   6.704   5.938   8.334  0.1086  0.0832  0.1754
   40POPC   GL1  904   6.645   5.858   7.977  0.1756 -0.1019  0.2014
   40POPC   GL2  905   6.762   5.644   7.705 -0.1294 -0.1745  0.2037
   40POPC   C1A  906   6.462   5.959   7.581  0.2750 -0.1344  0.0543
   40POPC   D2A  907   6.508   6.110   7.145 -0.0237  0.0908  0.3170
   40POPC   C3A  908   6.650   6.543   7.319 -0.0907  0.1595 -0.1128
   40POPC   C4A  909   7.001   6.695   7.566 -0.1306 -0.1691  0.1231
   40POPC   C1B  910   6.370   5.423   7.480  0.0986 -0.0067  0.2462
   40POPC   C2B  911   6.488   5.311   7.146  0.2674 -0.0718  0.1483
   40POPC   C3B  912   6.345   5.317   6.759 -0.1913 -0.1532  0.2040
   40POPC   C4B  913   6.380   5.113   6.391  0.1649 -0.1064 -0.0035
   41POPC   NC3  914   7.470   4.924   8.084  0.1792  0.2766  0.1632
   41POPC   PO4  915   7.744   4.577   8.291 -0.6167 -0.2191 -0.0305
   41POPC   GL1  916   7.728   4.628   7.814  0.1654 -0.0309  0.1847
   41POPC   GL2  917   8.061   4.544   7.861  0.1590  0.3440 -0.1203
   41POPC   C1A  918   7.591   4.607   7.320  0.1383 -0.0935 -0.5757
   41POPC   D2A  919   7.584   4.304   6.996  0.1610  0.2555  0.5222
   41POPC   C3A  920   7.479   4.282   6.501  0.1439 -0.1654 -0.0110
   41POPC   C4A  921   7.729   4.253   6.099  0.2149 -0.4091  0.1654
   41POPC   C1B  922   8.118   4.494   7.449  0.1657 -0.0507  0.0035
   41POPC   C2B  923   8.475   4.617   7.224  0.1101 -0.4398 -0.3045
   41POPC   C3B  924   8.714   4.774   6.912 -0.3488  0.4505 -0.1725
   41POPC   C4B  925   8.705   4.838   6.550 -0.1108  0.0388 -0.1527
   42POPC   NC3  926   4.683   0.276   8.846  0.0306 -0.0559 -0.0721
   42POPC   PO4  927   4.958   0.314   8.532 -0.1353  0.1261 -0.0530
   42POPC   GL1  928   5.251   0.337   8.002 -0.1543 -0.2570  0.0494
   42POPC   GL2  929   5.539   0.383   7.995 -0.0123 -0.1024 -0.0488
   42POPC   C1A  930   5.271   0.558   7.638  0.3134 -0.0044 -0.5573
   42POPC   D2A  931   5.499   0.559   7.238  0.0073  0.0284 -0.4387
   42POPC   C3A  932   5.599   0.178   7.006  0.0277 -0.4294 -0.0256
   42POPC   C4A  933   5.578  -0.065   6.675  0.0947  0.0445 -0.0228
   42POPC   C1B  934   5.533   0.119   7.655  0.2604 -0.0165  0.0293
   42POPC   C2B  935   5.589  -0.166   7.393  0.1834 -0.2416 -0.3248
   42POPC   C3B  936   5.349  -0.371   7.098 -0.0241  0.0866  0.1111
   42POPC   C4B  937   4.919  -0.248   7.012  0.0508  0.1290  0.3224
   43POPC   NC3  938   4.996   9.771   8.879 -0.0535  0.3675  0.0880
   43POPC   PO4  939   4.546   9.805   8.712 -0.3358  0.2762  0.1397
   43POPC   GL1  940   4.730   9.894   8.389 -0.0699 -0.0570 -0.0624
   43POPC   GL2  941   4.772  10.177   8.108 -0.0781  0.0475  0.1266
   43POPC   C1A  942   4.697   9.597   7.960  0.3655  0.3148 -0.1433
   43POPC   D2A  943   4.637   9.314   7.654  0.1609  0.1234  0.1284
   43POPC   C3A  944   4.547   9.440   7.239 -0.1209 -0.1819  0.0839
   43POPC   C4A  945   4.610   9.327   6.864  0.2228 -0.0425  0.0715
   43POPC   C1B  946   4.787  10.357   7.622  0.0266  0.4260 -0.1869
   43POPC   C2B  947   4.795  10.456   7.222  0.1013  0.1469 -0.0822
   43POPC   C3B  948   5.065  10.688   7.015  0.0543 -0.0218  0.1699
   43POPC   C4B  949   5.317  10.522   6.694  0.1447 -0.0980 -0.1271
   44POPC   NC3  950   6.362   0.607   9.635  0.1826  0.0905 -0.1208
   44POPC   PO4  951   6.378   0.155   9.475  0.0187  0.1862 -0.0536
   44POPC   GL1  952   6.431   0.071   9.058 -0.1371  0.0683 -0.1199
   44POPC   GL2  953   6.386  -0.164   9.047  0.2370 -0.1300  0.1002
   44POPC   C1A  954   6.662   0.002   8.576  0.2672 -0.1177  0.2139
   44POPC   D2A  955   6.926   0.170   8.356  0.2223  0.0288  0.2496
   44POPC   C3A  956   7.383   0.194   8.489  0.0619 -0.2614  0.0264
   44POPC   C4A  957   7.650   0.494   8.646 -0.0432 -0.2793  0.0568
   44POPC   C1B  958   6.196  -0.229   8.701 -0.0227  0.0994 -0.1273
   44POPC   C2B  959   6.106  -0.030   8.301  0.4606 -0.0036 -0.2068
   44POPC   C3B  960   6.014   0.297   7.864  0.1918  0.4822 -0.1146
   44POPC   C4B  961   5.946   0.326   7.377 -0.3240 -0.0643 -0.0476
   45POPC   NC3  962   8.435   9.828   9.901 -0.2383 -0.0239  0.0371
   45POPC   PO4  963   8.516   9.506   9.638  0.0299  0.1139 -0.1595
   45POPC   GL1  964   8.248   9.481   9.319  0.0938  0.0009  0.1640
   45POPC   GL2  965   7.999   9.540   9.378 -0.1591  0.1440  0.1066
   45POPC   C1A  966   8.101   9.307   8.846 -0.3199 -0.1292 -0.1047
   45POPC   D2A  967   7.781   9.438   8.630 -0.3925 -0.0078  0.2156
   45POPC   C3A  968   7.559   9.589   8.337  0.1817 -0.0226  0.0585
   45POPC   C4A  969   7.165   9.630   8.505  0.0402  0.0392  0.0739
   45POPC   C1B  970   7.683   9.661   9.107  0.0232 -0.0859  0.1293
   45POPC   C2B  971   7.711   9.899   8.707 -0.0979  0.0497 -0.1521
   45POPC   C3B  972   7.995   9.964   8.498  0.0104 -0.3120 -0.3755
   45POPC   C4B  973   8.210   9.619   8.444 -0.2712  0.0593  0.0653
   46POPC   NC3  974   1.930   1.080   9.133  0.3881 -0.0522  0.4051
   46POPC   PO4  975   1.755   0.827   8.721  0.3363  0.1384 -0.1534
   46POPC   GL1  976   1.731   0.577   8.305  0.0445  0.1920  0.2023
   46POPC   GL2  977   1.469   0.663   8.102 -0.0058 -0.0165  0.1315
   46POPC   C1A  978   1.829   0.521   7.761  0.0304 -0.0215  0.0194
   46POPC   D2A  979   1.779   0.681   7.256 -0.4405  0.0711  0.0549
   46POPC   C3A  980   1.481   1.010   7.208  0.2829 -0.1056  0.0322
   46POPC   C4A  981   1.204   1.365   7.096  0.0013 -0.0583  0.2091
   46POPC   C1B  982   1.382   0.758   7.642 -0.3735  0.1992  0.1959
   46POPC   C2B  983   0.946   0.947   7.358 -0.0600  0.0846  0.0531
   46POPC   C3B  984   0.814   0.998   6.977 -0.0144 -0.0137  0.2502
   46POPC   C4B  985   0.626   0.902   6.665 -0.3562 -0.4017  0.0912
   47POPC   NC3  986   2.273   1.390   8.031  0.0419 -0.1872 -0.0425
   47POPC   PO4  987   2.482   1.059   8.316  0.2330 -0.1101  0.0502
   47POPC   GL1  988   2.750   1.062   8.064  0.2529 -0.1366  0.2729
   47POPC   GL2  989   2.781   1.406   7.989  0.1947  0.2782  0.1772
   47POPC   C1A  990   2.967   0.956   7.639 -0.0502  0.1010  0.1785
   47POPC   D2A  991   3.093   1.085   7.283 -0.2119 -0.0005 -0.1623
   47POPC   C3A  992   3.036   0.747   6.978  0.0319 -0.0308 -0.2680
   47POPC   C4A  993   2.748   0.387   6.891  0.0516 -0.0987  0.1264
   47POPC   C1B  994   3.062   1.687   7.767  0.2006 -0.2330 -0.0102
   47POPC   C2B  995   3.359   1.622   7.410  0.6033 -0.2573 -0.0567
   47POPC   C3B  996   3.669   1.672   7.143  0.1206 -0.2014 -0.0923
   47POPC   C4B  997   3.767   1.463   6.845 -0.1601  0.1169 -0.1256
   48POPC   NC3  998   5.597   9.080   9.231 -0.0972  0.0408  0.0637
   48POPC   PO4  999   5.320   8.891   8.949 -0.1199  0.4135 -0.0008
   48POPC   GL1 1000   5.141   9.040   8.631 -0.0490  0.1337  0.0557
   48POPC   GL2 1001   5.028   8.766   8.496 -0.1440  0.1965 -0.0980
   48POPC   C1A 1002   5.360   9.271   8.285 -0.0981 -0.0978  0.2529
   48POPC   D2A 1003   5.250   9.481   7.861 -0.3238 -0.1678 -0.0453
   48POPC   C3A 1004   5.431   9.280   7.452  0.0669  0.1357 -0.1500
   48POPC   C4A 1005   5.890   9.334   7.192  0.1398  0.4327 -0.0846
   48POPC   C1B 1006   5.487   8.798   8.288  0.3613  0.2537  0.0406
   48POPC   C2B 1007   5.489   8.940   7.838 -0.1404 -0.4701 -0.0142
   48POPC   C3B 1008   5.034   8.967   7.577  0.1191  0.2928  0.0218
   48POPC   C4B 1009   4.733   8.773   7.629  0.3911 -0.2746  0.3736
   49POPC   NC3 1010   2.613   3.942   8.645 -0.3418 -0.2035  0.2444
   49POPC   PO4 1011   2.237   4.031   8.479  0.0346  0.3118  0.1026
   49POPC   GL1 1012   2.083   3.939   8.004 -0.0596  0.0101 -0.1315
   49POPC   GL2 1013   2.062   3.613   7.949  0.3132 -0.0498 -0.3635
   49POPC   C1A 1014   2.288   4.216   7.627  0.0246  0.1191 -0.1456
   49POPC   D2A 1015   2.671   4.168   7.297 -0.3328 -0.1744 -0.2311
   49POPC   C3A 1016   2.833   3.952   6.898 -0.2723 -0.0485 -0.1582
   49POPC   C4A 1017   2.612   3.871   6.568 -0.0114  0.0103 -0.0878
   49POPC   C1B 1018   2.231   3.672   7.540  0.0896 -0.0634 -0.1218
   49POPC   C2B 1019   2.314   3.907   7.133  0.1978  0.1770  0.2561
   49POPC   C3B 1020   2.100   4.009   6.765  0.0789  0.2270 -0.1801
   49POPC   C4B 1021   1.941   3.789   6.458 -0.1756  0.0311  0.2149
   50POPC   NC3 1022   6.493   4.984   8.338  0.0115  0.2828 -0.2362
   50POPC   PO4 1023   6.329   4.607   8.080  0.0412  0.1442 -0.1605
   50POPC   GL1 1024   6.080   4.418   7.705  0.0309  0.1714  0.2698
   50POPC   GL2 1025   5.714   4.439   7.631  0.0732  0.1619  0.3029
   50POPC   C1A 1026   6.117   4.459   7.320 -0.2356 -0.1718  0.4362
   50POPC   D2A 1027   6.009   4.096   6.986  0.0937  0.0970  0.2533
   50POPC   C3A 1028   6.315   4.007   6.651 -0.3430  0.1450  0.1457
   50POPC   C4A 1029   6.344   4.160   6.255  0.0507  0.2366  0.2417
   50POPC   C1B 1030   5.655   4.189   7.358  0.1291 -0.3702 -0.2534
   50POPC   C2B 1031   5.342   4.201   6.998  0.2186 -0.0574 -0.3576
   50POPC   C3B 1032   5.634   4.197   6.637 -0.2883 -0.0413  0.1543
   50POPC   C4B 1033   5.897   3.805   6.404 -0.0269 -0.1991 -0.0371
   51POPC   NC3 1034   0.667   8.551   8.650 -0.1317 -0.2487 -0.0177
   51POPC   PO4 1035   0.583   8.114   8.682 -0.1689  0.1258  0.1203
   51POPC   GL1 1036   0.536   8.137   8.176 -0.0733  0.2016 -0.0888
   51POPC   GL2 1037   0.872   7.957   8.072  0.4202 -0.2393  0.0525
   51POPC   C1A 1038   0.699   8.394   7.864 -0.2931  0.0301 -0.1420
   51POPC   D2A 1039   0.587   8.338   7.395 -0.0173 -0.0564 -0.3546
   51POPC   C3A 1040   0.772   8.417   6.959  0.3638 -0.1576  0.1645
   51POPC   C4A 1041   0.876   8.745   6.659  0.2725 -0.1391  0.1534
   51POPC   C1B 1042   0.617   7.864   7.691  0.0477  0.1800  0.1217
   51POPC   C2B 1043   0.513   7.810   7.261  0.2866  0.2250  0.1177
   51POPC   C3B 1044   0.533   7.982   6.858 -0.1014 -0.0909 -0.3855
   51POPC   C4B 1045   0.380   7.930   6.425 -0.1449 -0.0262 -0.0384
   52POPC   NC3 1046   0.681   4.875   8.528  0.1709 -0.0413  0.0083
   52POPC   PO4 1047   0.316   5.221   8.568 -0.2692  0.4488 -0.1322
   52POPC   GL1 1048   0.391   5.187   8.133  0.2697  0.0059 -0.1323
   52POPC   GL2 1049   0.178   4.977   7.897  0.1291  0.2508 -0.3420
   52POPC   C1A 1050   0.668   4.892   7.857 -0.0076  0.0174 -0.2014
   52POPC   D2A 1051   0.863   4.911   7.452 -0.1774  0.0368 -0.1406
   52POPC   C3A 1052   0.867   4.534   7.188  0.0652  0.1564  0.0936
   52POPC   C4A 1053   0.714   4.166   6.879  0.2571 -0.1553 -0.0876
   52POPC   C1B 1054   0.298   4.866   7.460 -0.3671  0.0124  0.0090
   52POPC   C2B 1055   0.531   4.938   7.060 -0.2693 -0.1833  0.2435
   52POPC   C3B 1056   0.640   4.686   6.753 -0.0048  0.2251 -0.0664
   52POPC   C4B 1057   0.928   4.596   6.382 -0.1197  0.0016 -0.0892
   53POPC   NC3 1058   4.417   4.095   8.236  0.0878  0.2280  0.1157
   53POPC   PO4 1059   4.004   3.929   8.157  0.1379 -0.1202  0.1270
   53POPC   GL1 1060   4.270   3.870   7.785 -0.1343  0.1618 -0.1582
   53POPC   GL2 1061   4.574   3.742   7.776  0.0206  0.3336 -0.1210
   53POPC   C1A 1062   4.457   4.005   7.342  0.1655 -0.0062 -0.2612
   53POPC   D2A 1063   4.515   3.877   6.998 -0.0723  0.0617 -0.0887
   53POPC   C3A 1064   4.493   3.992   6.585  0.0385  0.0723 -0.1086
   53POPC   C4A 1065   4.458   4.119   6.154  0.1532 -0.0061  0.1443
   53POPC   C1B 1066   4.352   3.442   7.489  0.1996 -0.0545  0.1180
   53POPC   C2B 1067   4.238   3.407   7.116 -0.0132  0.1070 -0.2598
   53POPC   C3B 1068   4.280   3.490   6.766 -0.1305 -0.0277  0.0073
   53POPC   C4B 1069   4.476   3.556   6.348 -0.2489 -0.1204  0.0634
   54POPC   NC3 1070   6.793   4.470   8.093  0.0304 -0.1931  0.0822
   54POPC   PO4 1071   6.734   4.768   7.881 -0.4208  0.1973  0.0638
   54POPC   GL1 1072   6.705   4.492   7.606  0.1081  0.0476 -0.1542
   54POPC   GL2 1073   6.807   4.199   7.682 -0.2934 -0.0741 -0.0793
   54POPC   C1A 1074   6.583   4.601   7.170  0.0149 -0.1504 -0.2280
   54POPC   D2A 1075   6.436   4.805   6.803  0.0902 -0.3165  0.0891
   54POPC   C3A 1076   6.742   4.796   6.562 -0.1746 -0.0493 -0.3853
   54POPC   C4A 1077   6.730   4.620   6.085 -0.0486  0.0270 -0.0717
   54POPC   C1B 1078   7.064   4.143   7.307  0.3781  0.0912  0.0599
   54POPC   C2B 1079   7.098   4.095   6.874 -0.2728 -0.1688 -0.1945
   54POPC   C3B 1080   6.857   3.855   6.630  0.1473  0.0315 -0.1956
   54POPC   C4B 1081   6.594   3.606   6.470 -0.0159  0.0573 -0.1634
   55POPC   NC3 1082   0.433   1.608   8.189 -0.1129 -0.1218  0.2254
   55POPC   PO4 1083   0.571   1.243   8.316  0.0001  0.0592  0.0725
   55POPC   GL1 1084   0.564   1.242   7.853  0.2438  0.1903 -0.0439
   55POPC   GL2 1085   0.822   1.293   7.768  0.0708  0.2042 -0.1218
   55POPC   C1A 1086   0.453   0.994   7.554  0.2012  0.1715  0.1289
   55POPC   D2A 1087   0.336   0.764   7.200  0.1718  0.3664  0.0658
   55POPC   C3A 1088   0.243   1.040   6.949  0.0318  0.1732  0.0536
   55POPC   C4A 1089   0.365   1.348   6.672 -0.0898 -0.0596  0.0825
   55POPC   C1B 1090   0.672   1.440   7.372 -0.1060 -0.0136 -0.1159
   55POPC   C2B 1091   0.420   1.621   7.144  0.0036 -0.1083 -0.0991
   55POPC   C3B 1092   0.366   1.850   6.897 -0.0642 -0.2150  0.1706
   55POPC   C4B 1093   0.062   1.710   6.550  0.3640 -0.0685 -0.0512
   56POPC   NC3 1094   0.016   2.922   8.592 -0.0613 -0.0131 -0.0691
   56POPC   PO4 1095  -0.031   3.008   8.127  0.3412 -0.0843 -0.0672
   56POPC   GL1 1096  -0.018   3.037   7.676 -0.1727  0.2689  0.0854
   56POPC   GL2 1097   0.328   2.944   7.649 -0.1153  0.1213 -0.1129
   56POPC   C1A 1098  -0.125   2.951   7.268 -0.2468  0.1695 -0.1163
   56POPC   D2A 1099  -0.294   3.092   7.012  0.4068 -0.1552 -0.0917
   56POPC   C3A 1100  -0.459   2.913   6.689 -0.0716 -0.2585 -0.0205
   56POPC   C4A 1101  -0.610   2.618   6.422 -0.1804  0.2959  0.0765
   56POPC   C1B 1102   0.247   2.647   7.241  0.4822 -0.0268 -0.0646
   56POPC   C2B 1103   0.483   2.316   6.972 -0.0042 -0.1195 -0.0099
   56POPC   C3B 1104   0.756   2.098   6.646  0.1026  0.2374  0.0618
   56POPC   C4B 1105   0.555   1.721   6.372  0.0755 -0.0657 -0.1252
   57POPC   NC3 1106   0.041   2.522   8.089  0.0459 -0.3438 -0.1102
   57POPC   PO4 1107   0.441   2.676   8.258 -0.0854  0.2486  0.3811
   57POPC   GL1 1108   0.553   2.580   7.874 -0.3065 -0.1951 -0.0398
   57POPC   GL2 1109   0.462   2.303   7.667 -0.1822  0.2155  0.2267
   57POPC   C1A 1110   0.726   2.686   7.402 -0.2740  0.3910 -0.0429
   57POPC   D2A 1111   0.978   2.750   6.979 -0.1794 -0.0570 -0.0007
   57POPC   C3A 1112   1.059   2.571   6.644  0.2736  0.0170 -0.2669
   57POPC   C4A 1113   1.226   2.206   6.480 -0.0960  0.0761  0.1475
   57POPC   C1B 1114   0.140   2.054   7.440  0.1718 -0.0118  0.0270
   57POPC   C2B 1115  -0.276   1.782   7.386  0.0202 -0.1078  0.2134
   57POPC   C3B 1116  -0.482   1.403   7.206  0.2235  0.2011  0.0175
   57POPC   C4B 1117  -0.577   1.042   7.163 -0.2494 -0.0149  0.0030
   58POPC   NC3 1118   9.921   7.640   9.197  0.2313 -0.0355  0.1788
   58POPC   PO4 1119   9.989   7.411   8.795  0.2860 -0.1056 -0.1544
   58POPC   GL1 1120   9.885   7.585   8.440  0.1315 -0.1669  0.3859
   58POPC   GL2 1121   9.937   7.658   8.089 -0.2747  0.2317  0.1007
   58POPC   C1A 1122   9.904   8.058   8.323  0.1396  0.0838  0.1073
   58POPC   D2A 1123  10.130   8.274   7.932  0.0784 -0.0837 -0.0105
   58POPC   C3A 1124  10.150   8.096   7.521  0.0366  0.4025  0.0767
   58POPC   C4A 1125   9.913   7.851   7.290  0.1142  0.1217  0.0337
   58POPC   C1B 1126   9.777   7.921   7.765  0.0004 -0.1405 -0.1531
   58POPC   C2B 1127   9.318   7.902   7.586 -0.0766 -0.2064 -0.0069
   58POPC   C3B 1128   8.887   8.055   7.480  0.1735  0.1626 -0.0833
   58POPC   C4B 1129   8.434   8.231   7.447 -0.2440  0.2359 -0.2484
   59POPC   NC3 1130   8.115   0.722   9.559  0.2272 -0.2488  0.0321
   59POPC   PO4 1131   8.524   0.513   9.569 -0.5262 -0.1129  0.0075
   59POPC   GL1 1132   8.383   0.380   9.274  0.1603  0.3306  0.1912
   59POPC   GL2 1133   8.070   0.618   9.058  0.0648 -0.3263  0.0740
   59POPC   C1A 1134   8.425   0.312   8.859  0.1185 -0.3851 -0.0458
   59POPC   D2A 1135   8.529   0.025   8.511 -0.1044 -0.2400 -0.0935
   59POPC   C3A 1136   8.265   0.019   8.112 -0.0426  0.0533 -0.1189
   59POPC   C4A 1137   7.830  -0.174   7.996  0.0540  0.0477 -0.1914
   59POPC   C1B 1138   7.882   0.899   8.661  0.0074  0.0439 -0.0430
   59POPC   C2B 1139   8.090   1.265   8.484  0.2465  0.0500  0.5104
   59POPC   C3B 1140   8.233   1.698   8.339  0.0205 -0.4160  0.0362
   59POPC   C4B 1141   8.518   1.915   8.042 -0.1022 -0.2749 -0.0217
   60POPC   NC3 1142   7.533   1.346   9.371 -0.0362 -0.2270 -0.0853
   60POPC   PO4 1143   7.481   1.780   9.164 -0.3191  0.0866 -0.1235
   60POPC   GL1 1144   7.620   1.532   8.912  0.2751  0.0442  0.1788
   60POPC   GL2 1145   7.475   1.587   8.647 -0.0770  0.2230 -0.1975
   60POPC   C1A 1146   7.457   1.114   8.554 -0.1570  0.0754  0.2492
   60POPC   D2A 1147   7.455   0.736   8.226 -0.1261 -0.0642 -0.2081
   60POPC   C3A 1148   7.425   0.199   8.038 -0.0550 -0.4109 -0.0270
   60POPC   C4A 1149   7.045  -0.095   7.951 -0.3620  0.2297 -0.0722
   60POPC   C1B 1150   7.735   1.514   8.278 -0.1721 -0.2330  0.1061
   60POPC   C2B 1151   8.116   1.420   7.953  0.0261 -0.0551 -0.2294
   60POPC   C3B 1152   8.518   1.332   7.833 -0.0001  0.0784 -0.1263
   60POPC   C4B 1153   8.490   1.256   7.455  0.1269 -0.1256 -0.0614
   61POPC   NC3 1154   5.455   3.647   8.838  0.4141  0.0463 -0.3334
   61POPC   PO4 1155   5.241   3.643   8.341  0.1822 -0.0440 -0.1463
   61POPC   GL1 1156   5.501   3.747   8.095  0.0172 -0.1565  0.1920
   61POPC   GL2 1157   5.526   3.416   7.939 -0.1161  0.0181  0.1898
   61POPC   C1A 1158   5.853   3.894   7.726  0.3759 -0.1400 -0.1471
   61POPC   D2A 1159   6.173   3.785   7.453 -0.1251 -0.1132  0.4509
   61POPC   C3A 1160   6.280   3.637   6.985 -0.4458  0.2722 -0.0304
   61POPC   C4A 1161   6.708   3.437   6.938 -0.0628 -0.2706 -0.1278
   61POPC   C1B 1162   5.180   3.166   7.668 -0.2327  0.0052 -0.3123
   61POPC   C2B 1163   5.086   2.885   7.337 -0.1681 -0.0935 -0.1811
   61POPC   C3B 1164   5.252   2.452   7.437 -0.2639 -0.1799 -0.2320
   61POPC   C4B 1165   5.491   2.248   7.683 -0.0199  0.0435 -0.0141
   62POPC   NC3 1166   1.644   8.835   8.510  0.2116 -0.4987 -0.0782
   62POPC   PO4 1167   1.456   8.415   8.470 -0.0389  0.1110 -0.3110
   62POPC   GL1 1168   1.419   8.180   8.087  0.0377 -0.2161  0.0637
   62POPC   GL2 1169   1.627   7.906   7.926 -0.0560 -0.1090  0.0239
   62POPC   C1A 1170   1.183   8.225   7.853  0.1654 -0.0504  0.0298
   62POPC   D2A 1171   1.031   8.295   7.486  0.1615  0.5060  0.0898
   62POPC   C3A 1172   1.422   8.342   7.244  0.1171  0.0777  0.4544
   62POPC   C4A 1173   1.243   8.461   6.866  0.1209  0.0728  0.1957
   62POPC   C1B 1174   1.686   7.966   7.421 -0.0477  0.1640 -0.0679
   62POPC   C2B 1175   1.697   8.089   6.942 -0.0585 -0.0225  0.0643
   62POPC   C3B 1176   1.418   8.018   6.579  0.4112 -0.3295 -0.2986
   62POPC   C4B 1177   1.209   7.830   6.136 -0.0828  0.0998  0.0525
   63POPC   NC3 1178   9.040   5.848   7.751  0.0922  0.1286  0.2086
   63POPC   PO4 1179   9.443   5.698   7.845 -0.1130 -0.3831 -0.0039
   63POPC   GL1 1180   9.633   5.729   7.512 -0.1257 -0.1767 -0.0991
   63POPC   GL2 1181   9.960   5.583   7.471  0.0261 -0.1000  0.1386
   63POPC   C1A 1182   9.692   6.158   7.263  0.0080  0.1440  0.0941
   63POPC   D2A 1183   9.523   6.573   7.075  0.1195 -0.2122  0.0775
   63POPC   C3A 1184   9.781   6.758   6.802  0.0706  0.3818 -0.1371
   63POPC   C4A 1185   9.740   7.033   6.442  0.1123  0.0884 -0.0940
   63POPC   C1B 1186   9.961   5.377   7.032  0.0775 -0.1320  0.1619
   63POPC   C2B 1187  10.314   5.231   6.695 -0.2788 -0.0670  0.4069
   63POPC   C3B 1188  10.618   5.028   6.319  0.0292 -0.2594  0.0674
   63POPC   C4B 1189  10.658   4.804   5.827  0.1742  0.1880  0.2205
   64POPC   NC3 1190   5.702   5.765   8.108  0.1037  0.0257  0.1805
   64POPC   PO4 1191   5.975   6.099   8.131 -0.1598  0.0654  0.0396
   64POPC   GL1 1192   5.993   6.063   7.711  0.1120  0.1063 -0.3383
   64POPC   GL2 1193   5.838   5.861   7.583  0.0480  0.0673  0.4467
   64POPC   C1A 1194   6.193   6.419   7.387  0.0336  0.0673  0.3699
   64POPC   D2A 1195   6.037   6.366   6.905  0.0570 -0.0840  0.0150
   64POPC   C3A 1196   6.089   6.531   6.494 -0.1931  0.0978  0.2335
   64POPC   C4A 1197   6.270   6.138   6.176  0.0738  0.1576 -0.4350
   64POPC   C1B 1198   5.940   5.978   7.227  0.0300 -0.2923 -0.1279
   64POPC   C2B 1199   5.677   5.915   6.926  0.0347  0.1166 -0.2232
   64POPC   C3B 1200   5.305   5.823   6.798 -0.0395  0.2334 -0.3002
   64POPC   C4B 1201   5.098   5.786   6.337  0.0067  0.0696 -0.0841
   65POPC   NC3 1202   2.390   9.349   9.102 -0.2492  0.1260  0.0804
   65POPC   PO4 1203   2.312   9.332   8.646  0.1919 -0.0243  0.1301
   65POPC   GL1 1204   2.199   9.358   8.210  0.0945  0.0116  0.1500
   65POPC   GL2 1205   2.493   9.139   7.930 -0.1089  0.1180  0.0733
   65POPC   C1A 1206   1.721   9.278   8.060 -0.0791 -0.1407  0.3359
   65POPC   D2A 1207   1.429   9.559   8.163  0.0801  0.0245 -0.0681
   65POPC   C3A 1208   1.117   9.694   7.861  0.2831 -0.2314 -0.0371
   65POPC   C4A 1209   0.800   9.955   7.885  0.1943 -0.2135 -0.1230
   65POPC   C1B 1210   2.086   9.241   7.719  0.1124  0.0219  0.0460
   65POPC   C2B 1211   1.686   9.417   7.515 -0.1661  0.1800  0.0653
   65POPC   C3B 1212   1.568   9.452   7.054 -0.2389 -0.2424  0.0110
   65POPC   C4B 1213   1.504   9.849   6.712  0.3787 -0.1280 -0.0779
   66POPC   NC3 1214   1.328   4.074   8.513 -0.1233  0.1041 -0.2071
   66POPC   PO4 1215   1.290   3.711   8.202  0.4060  0.0074 -0.0192
   66POPC   GL1 1216   1.288   3.753   7.747  0.0682  0.0106 -0.3322
   66POPC   GL2 1217   1.579   3.811   7.761 -0.0464  0.0946 -0.0830
   66POPC   C1A 1218   1.087   3.584   7.413  0.0305  0.2024  0.4100
   66POPC   D2A 1219   0.795   3.382   7.539  0.0498 -0.2284  0.0159
   66POPC   C3A 1220   0.578   3.133   7.258 -0.0523 -0.1299 -0.0005
   66POPC   C4A 1221   0.586   2.990   6.900 -0.1464 -0.3140  0.4102
   66POPC   C1B 1222   1.440   3.960   7.331 -0.1260  0.1557 -0.2710
   66POPC   C2B 1223   1.648   4.165   6.998  0.1871 -0.2792 -0.0005
   66POPC   C3B 1224   1.780   4.357   6.660  0.0255  0.1824  0.3137
   66POPC   C4B 1225   1.870   4.473   6.169 -0.0844 -0.5047 -0.0613
   67POPC   NC3 1226   7.667   1.997   8.716  0.1242 -0.2131  0.1612
   67POPC   PO4 1227   7.898   2.299   8.509  0.0328 -0.0836  0.0478
   67POPC   GL1 1228   7.647   2.389   7.993  0.1101  0.1825 -0.1007
   67POPC   GL2 1229   7.424   2.684   7.878  0.1835 -0.1658  0.1006
   67POPC   C1A 1230   7.498   2.123   7.711 -0.1727  0.0600 -0.2705
   67POPC   D2A 1231   7.510   2.017   7.283  0.2323  0.1617 -0.1875
   67POPC   C3A 1232   7.472   1.639   7.111 -0.1344 -0.1633  0.1732
   67POPC   C4A 1233   7.615   1.233   7.064  0.2152  0.0719  0.1522
   67POPC   C1B 1234   6.968   2.688   7.647  0.1749 -0.2654  0.4434
   67POPC   C2B 1235   6.571   2.684   7.415 -0.0839  0.1001 -0.0084
   67POPC   C3B 1236   6.285   2.552   7.071  0.0245 -0.2120  0.0033
   67POPC   C4B 1237   6.316   2.224   6.770  0.0994 -0.0109  0.0872
   68POPC   NC3 1238   0.371   3.705   8.521 -0.0480  0.2162  0.2260
   68POPC   PO4 1239   0.443   4.224   8.354 -0.0165  0.1970 -0.4182
   68POPC   GL1 1240   0.520   4.421   8.060  0.2560 -0.0280  0.4015
   68POPC   GL2 1241   0.777   4.369   7.698  0.1749 -0.2504 -0.0266
   68POPC   C1A 1242   0.281   4.392   7.692  0.0823  0.2090 -0.2007
   68POPC   D2A 1243   0.388   4.425   7.147  0.1017 -0.1624 -0.5257
   68POPC   C3A 1244   0.161   4.317   6.849 -0.1174  0.4451 -0.2132
   68POPC   C4A 1245   0.286   3.969   6.501 -0.2525  0.0757 -0.1407
   68POPC   C1B 1246   0.931   4.112   7.358 -0.0583  0.3743 -0.2834
   68POPC   C2B 1247   1.131   3.907   6.953 -0.2237 -0.0602  0.2194
   68POPC   C3B 1248   0.887   3.652   6.582  0.0315  0.1083  0.1017
   68POPC   C4B 1249   0.907   3.626   6.105 -0.3654  0.1302  0.0133
   69POPC   NC3 1250   2.802   2.574   8.248  0.1107  0.2428 -0.1119
   69POPC   PO4 1251   3.171   2.726   8.116 -0.1150  0.3083  0.1135
   69POPC   GL1 1252   2.885   2.704   7.682  0.1007 -0.0086  0.0942
   69POPC   GL2 1253   2.708   2.333   7.581  0.0103  0.0530  0.2000
   69POPC   C1A 1254   2.658   2.784   7.355 -0.3221  0.1752  0.1360
   69POPC   D2A 1255   2.494   2.838   6.881  0.1430 -0.0161 -0.1819
   69POPC   C3A 1256   2.135   3.068   6.761 -0.1759 -0.2838 -0.0561
   69POPC   C4A 1257   1.777   2.818   6.690  0.0901 -0.3842 -0.1689
   69POPC   C1B 1258   2.297   2.256   7.469  0.1130  0.0733 -0.0583
   69POPC   C2B 1259   2.191   2.169   7.105  0.1880  0.1437 -0.0772
   69POPC   C3B 1260   1.925   1.887   6.843 -0.2051 -0.0979 -0.0538
   69POPC   C4B 1261   1.604   1.814   6.636 -0.2267 -0.0497  0.1311
   70POPC   NC3 1262   9.279   5.322   8.578  0.0412 -0.1487 -0.1154
   70POPC   PO4 1263   8.959   5.418   8.268  0.1839 -0.1216 -0.1604
   70POPC   GL1 1264   8.878   5.356   7.819 -0.3389 -0.2421  0.3153
   70POPC   GL2 1265   9.200   5.312   7.560  0.0835  0.0721 -0.1453
   70POPC   C1A 1266   8.404   5.295   7.722  0.0464 -0.1587  0.0621
   70POPC   D2A 1267   8.123   4.985   7.572  0.0188  0.0782 -0.0356
   70POPC   C3A 1268   8.068   4.944   7.125  0.2561  0.2077 -0.2152
   70POPC   C4A 1269   8.250   4.782   6.812  0.2496  0.0278  0.1283
   70POPC   C1B 1270   9.046   5.175   7.221 -0.1317  0.2484  0.2335
   70POPC   C2B 1271   8.941   5.248   6.798 -0.0284 -0.0009 -0.1132
   70POPC   C3B 1272   9.127   5.635   6.662 -0.1793  0.1061  0.3716
   70POPC   C4B 1273   9.055   5.841   6.216  0.0446 -0.2147  0.0515
   71POPC   NC3 1274   2.431   8.394   8.456 -0.1554 -0.1569 -0.1598
   71POPC   PO4 1275   2.885   8.328   8.351  0.0893 -0.0572  0.2869
   71POPC   GL1 1276   2.618   8.385   7.964 -0.0701 -0.1708 -0.2535
   71POPC   GL2 1277   2.397   8.698   8.038  0.1597  0.3501 -0.1573
   71POPC   C1A 1278   2.326   8.292   7.726  0.1036  0.3099 -0.1684
   71POPC   D2A 1279   2.226   8.100   7.336 -0.2194 -0.0019  0.1286
   71POPC   C3A 1280   2.185   8.203   6.855 -0.2348 -0.0610 -0.0188
   71POPC   C4A 1281   2.427   8.332   6.547  0.0335  0.1567  0.0126
   71POPC   C1B 1282   2.192   8.788   7.650 -0.1107  0.4157  0.2561
   71POPC   C2B 1283   2.071   8.909   7.152  0.2397  0.1249  0.0388
   71POPC   C3B 1284   1.883   9.122   6.673  0.1950  0.1794 -0.0824
   71POPC   C4B 1285   1.989   9.579   6.519 -0.1421 -0.3051  0.0549
   72POPC   NC3 1286   1.128   9.762   8.483  0.0816 -0.1259  0.2031
   72POPC   PO4 1287   1.158  10.173   8.694 -0.1602 -0.2819  0.0921
   72POPC   GL1 1288   1.193  10.221   8.281  0.0903  0.1479 -0.0660
   72POPC   GL2 1289   1.529  10.139   8.288  0.1098 -0.2916  0.0443
   72POPC   C1A 1290   1.220  10.290   7.871  0.3926 -0.2944 -0.1398
   72POPC   D2A 1291   1.141  10.054   7.497  0.1326  0.0080 -0.1203
   72POPC   C3A 1292   1.313   9.880   7.147  0.3143 -0.2932 -0.0493
   72POPC   C4A 1293   1.818   9.921   7.073 -0.0147  0.1679 -0.3927
   72POPC   C1B 1294   1.611   9.966   7.837  0.4806  0.2836 -0.0576
   72POPC   C2B 1295   1.657  10.183   7.432 -0.2429 -0.0038 -0.3444
   72POPC   C3B 1296   1.443  10.355   7.062  0.0556  0.3067 -0.0064
   72POPC   C4B 1297   1.252  10.636   6.939  0.0826  0.0782 -0.2567
   73POPC   NC3 1298   2.160   8.287   8.956  0.1503  0.1619 -0.0002
   73POPC   PO4 1299   1.969   8.402   8.461  0.3145  0.0710  0.1105
   73POPC   GL1 1300   1.870   8.533   8.160 -0.1369  0.0198 -0.2878
   73POPC   GL2 1301   1.861   8.838   8.009 -0.2490  0.1109 -0.1303
   73POPC   C1A 1302   1.691   8.412   7.693 -0.1331  0.0648 -0.0676
   73POPC   D2A 1303   1.885   8.445   7.237  0.2911 -0.0281 -0.1687
   73POPC   C3A 1304   1.746   8.590   6.858 -0.1639  0.0717 -0.1399
   73POPC   C4A 1305   1.725   8.347   6.527  0.0473 -0.1035  0.0787
   73POPC   C1B 1306   1.631   8.922   7.648  0.3790  0.1919 -0.4212
   73POPC   C2B 1307   1.505   8.854   7.225  0.3195  0.0449  0.0520
   73POPC   C3B 1308   1.459   8.953   6.644 -0.1800  0.0474 -0.0313
   73POPC   C4B 1309   1.394   8.946   6.307  0.0405  0.0814  0.2190
   74POPC   NC3 1310   2.934   7.603   8.441 -0.0958 -0.0226 -0.0840
   74POPC   PO4 1311   3.375   7.448   8.307  0.1936  0.1424  0.1657
   74POPC   GL1 1312   3.360   7.714   7.858 -0.2101  0.0477 -0.1480
   74POPC   GL2 1313   3.298   7.520   7.566  0.0623 -0.4255 -0.4976
   74POPC   C1A 1314   3.511   8.083   7.584  0.2304 -0.0817 -0.0845
   74POPC   D2A 1315   3.867   8.074   7.357  0.1418 -0.1387  0.1128
   74POPC   C3A 1316   3.851   8.124   6.997 -0.3020  0.1812  0.0394
   74POPC   C4A 1317   3.872   8.089   6.593 -0.2759  0.0220  0.0461
   74POPC   C1B 1318   3.094   7.922   7.338 -0.0158 -0.0615  0.4738
   74POPC   C2B 1319   3.295   8.246   7.034 -0.1036 -0.1566 -0.0901
   74POPC   C3B 1320   3.347   8.069   6.620  0.0795  0.4880  0.2834
   74POPC   C4B 1321   3.292   7.753   6.350  0.0976  0.2073 -0.3640
   75POPC   NC3 1322   1.600   3.329   8.261 -0.3981  0.2739 -0.1260
   75POPC   PO4 1323   1.131   3.236   8.192 -0.1456  0.1475  0.0645
   75POPC   GL1 1324   1.193   3.084   7.694 -0.0205 -0.2342 -0.0969
   75POPC   GL2 1325   1.564   3.223   7.606  0.0007  0.2147  0.0173
   75POPC   C1A 1326   1.086   3.079   7.328  0.1373 -0.0171 -0.0559
   75POPC   D2A 1327   0.947   3.392   6.983 -0.2027  0.4540  0.0629
   75POPC   C3A 1328   0.680   3.722   7.139 -0.1936  0.1550  0.3931
   75POPC   C4A 1329   0.270   3.831   7.108 -0.1827 -0.1224  0.3207
   75POPC   C1B 1330   1.821   2.814   7.637  0.1898 -0.1539 -0.0564
   75POPC   C2B 1331   1.640   2.348   7.686  0.0101  0.1349  0.0494
   75POPC   C3B 1332   1.319   2.065   7.661  0.1050  0.0900 -0.0204
   75POPC   C4B 1333   1.101   1.666   7.506 -0.0075 -0.2265 -0.4207
   76POPC   NC3 1334   4.774   8.804   8.990 -0.0566 -0.3524 -0.1964
   76POPC   PO4 1335   4.599   8.443   8.725  0.0501  0.0203 -0.2327
   76POPC   GL1 1336   4.462   8.586   8.339  0.0197  0.0976 -0.0066
   76POPC   GL2 1337   4.802   8.617   8.072  0.1625 -0.3136 -0.0626
   76POPC   C1A 1338   4.359   8.563   7.937 -0.0051 -0.1019 -0.0907
   76POPC   D2A 1339   4.317   8.401   7.540 -0.0095  0.1725  0.0741
   76POPC   C3A 1340   4.690   8.526   7.226  0.2900 -0.0227  0.0389
   76POPC   C4A 1341   4.694   8.860   7.027  0.3235 -0.0242 -0.2882
   76POPC   C1B 1342   5.163   8.576   7.957  0.1359 -0.1400 -0.1018
   76POPC   C2B 1343   5.154   8.454   7.542 -0.0215  0.2349 -0.1968
   76POPC   C3B 1344   5.197   8.715   7.111  0.1068 -0.1535 -0.2223
   76POPC   C4B 1345   5.044   9.023   6.713 -0.0041 -0.0444 -0.0148
   77POPC   NC3 1346   5.807   4.706   8.064  0.0923  0.0056 -0.0434
   77POPC   PO4 1347   6.114   5.040   8.054  0.0906 -0.1012  0.1178
   77POPC   GL1 1348   5.873   5.120   7.633 -0.0358  0.1507  0.1224
   77POPC   GL2 1349   5.665   5.024   7.611 -0.0641  0.2016 -0.0961
   77POPC   C1A 1350   5.985   4.954   7.176 -0.0988  0.0222 -0.0060
   77POPC   D2A 1351   5.909   5.071   6.732 -0.1103  0.2549  0.3432
   77POPC   C3A 1352   5.845   5.432   6.593 -0.1057  0.0183  0.1613
   77POPC   C4A 1353   5.644   5.793   6.394 -0.0478  0.3055  0.0441
   77POPC   C1B 1354   5.530   4.779   7.240 -0.1975 -0.2538  0.0135
   77POPC   C2B 1355   5.845   4.568   6.932  0.1270 -0.1103  0.2226
   77POPC   C3B 1356   6.007   4.540   6.542 -0.1570  0.0202 -0.0753
   77POPC   C4B 1357   6.282   4.635   6.317  0.1470 -0.0254  0.3126
   78POPC   NC3 1358   9.729   1.048   8.778  0.0975 -0.1201 -0.1875
   78POPC   PO4 1359   9.713   1.401   8.853  0.1726 -0.2790  0.0722
   78POPC   GL1 1360   9.610   1.367   8.325  0.2287  0.2003 -0.1812
   78POPC   GL2 1361   9.614   1.555   8.096 -0.2014 -0.0550  0.2459
   78POPC   C1A 1362   9.472   1.000   8.163  0.0650  0.2162  0.6255
   78POPC   D2A 1363   9.702   0.678   7.831  0.2686 -0.0101  0.1862
   78POPC   C3A 1364   9.941   0.363   8.080  0.1743  0.1318 -0.2406
   78POPC   C4A 1365   9.770   0.008   8.316  0.0733  0.0076 -0.2277
   78POPC   C1B 1366   9.398   1.553   7.654  0.1644 -0.2131  0.1559
   78POPC   C2B 1367   9.212   1.811   7.383 -0.0530 -0.0968  0.2761
   78POPC   C3B 1368   8.871   2.124   7.292 -0.2214  0.0516  0.1191
   78POPC   C4B 1369   8.577   2.252   7.501  0.1484 -0.4364 -0.1083
   79POPC   NC3 1370   1.638   0.300   8.793 -0.0400 -0.0707  0.1784
   79POPC   PO4 1371   1.984   0.169   8.718 -0.1004  0.0048 -0.2817
   79POPC   GL1 1372   2.107  -0.049   8.423 -0.1290  0.0002 -0.2309
   79POPC   GL2 1373   1.931  -0.193   8.254  0.0725  0.1569  0.3369
   79POPC   C1A 1374   2.152   0.253   8.091 -0.2679 -0.2016  0.1916
   79POPC   D2A 1375   2.271   0.258   7.717  0.0113 -0.0297 -0.0120
   79POPC   C3A 1376   2.309   0.164   7.308  0.3081 -0.0895  0.1362
   79POPC   C4A 1377   2.696   0.098   7.349 -0.1282  0.1074  0.1768
   79POPC   C1B 1378   2.097  -0.219   7.899 -0.1681  0.0276  0.1139
   79POPC   C2B 1379   2.054  -0.257   7.462  0.0329  0.2019 -0.1426
   79POPC   C3B 1380   2.050  -0.538   7.059  0.0210 -0.1933  0.0174
   79POPC   C4B 1381   2.377  -0.634   6.728 -0.2016 -0.0199 -0.0933
   80POPC   NC3 1382   6.883   6.707   9.101 -0.0262 -0.0045 -0.0839
   80POPC   PO4 1383   7.045   6.935   8.754  0.2613 -0.0011  0.2417
   80POPC   GL1 1384   7.126   7.103   8.365  0.0353  0.1123  0.1768
   80POPC   GL2 1385   7.232   6.866   8.098 -0.0085  0.1579  0.2978
   80POPC   C1A 1386   7.122   7.387   8.041  0.4122 -0.2466  0.0621
   80POPC   D2A 1387   7.330   7.603   7.679 -0.2242  0.3205 -0.1146
   80POPC   C3A 1388   6.962   7.791   7.590  0.1847  0.3577 -0.4896
   80POPC   C4A 1389   6.532   8.051   7.735  0.0422 -0.1546 -0.1688
   80POPC   C1B 1390   7.310   7.089   7.621  0.0937  0.0462 -0.4161
   80POPC   C2B 1391   7.613   7.290   7.361 -0.0357  0.0192 -0.2683
   80POPC   C3B 1392   7.585   7.360   6.950 -0.0631 -0.0998  0.1751
   80POPC   C4B 1393   7.188   7.237   6.738 -0.3574 -0.3006  0.2866
   81POPC   NC3 1394   5.653   2.706   8.573 -0.5652  0.1435  0.2832
   81POPC   PO4 1395   5.160   2.770   8.673 -0.1078  0.0596 -0.0626
   81POPC   GL1 1396   5.052   2.559   8.355 -0.2183  0.2031 -0.1043
   81POPC   GL2 1397   5.281   2.285   8.189 -0.2105  0.0667 -0.3309
   81POPC   C1A 1398   4.991   2.691   7.869  0.1482 -0.0902  0.1338
   81POPC   D2A 1399   4.644   3.001   7.717  0.0597 -0.0289  0.1619
   81POPC   C3A 1400   4.599   3.044   7.285  0.1330  0.5036  0.0639
   81POPC   C4A 1401   4.358   2.997   6.864 -0.0313  0.4077  0.0227
   81POPC   C1B 1402   5.001   2.143   7.781 -0.2247  0.1998 -0.1002
   81POPC   C2B 1403   4.867   2.021   7.367  0.0644  0.2745 -0.0220
   81POPC   C3B 1404   4.870   1.787   7.000 -0.1778 -0.0870  0.3320
   81POPC   C4B 1405   5.104   1.467   6.915  0.0948  0.4191  0.0915
   82POPC   NC3 1406   3.346   7.158   7.873 -0.0656  0.3282 -0.0297
   82POPC   PO4 1407   3.069   6.876   7.777 -0.1121 -0.1467 -0.3106
   82POPC   GL1 1408   2.881   7.229   7.506 -0.0179  0.2541  0.3477
   82POPC   GL2 1409   2.492   7.236   7.471  0.0038 -0.2290 -0.1380
   82POPC   C1A 1410   3.169   7.413   7.155 -0.1742 -0.2130  0.1023
   82POPC   D2A 1411   3.206   7.605   6.861 -0.2912 -0.3479 -0.1945
   82POPC   C3A 1412   3.658   7.651   6.689 -0.0352 -0.2695 -0.0224
   82POPC   C4A 1413   3.951   7.627   6.356  0.2449  0.2144 -0.0899
   82POPC   C1B 1414   2.230   7.055   7.052 -0.1665 -0.4811 -0.2323
   82POPC   C2B 1415   1.925   6.898   6.715 -0.1802  0.2507  0.2828
   82POPC   C3B 1416   1.599   7.215   6.551 -0.0118  0.1692 -0.1237
   82POPC   C4B 1417   1.454   7.566   6.446 -0.1949  0.0840  0.1827
   83POPC   NC3 1418   0.395   7.579   8.544  0.1729 -0.1582 -0.1225
   83POPC   PO4 1419   0.786   7.545   8.387  0.0792  0.0166 -0.1603
   83POPC   GL1 1420   0.577   7.507   8.013  0.1054 -0.0345 -0.0558
   83POPC   GL2 1421   0.561   7.158   7.963  0.0980 -0.0727 -0.2307
   83POPC   C1A 1422   0.230   7.526   7.659  0.4665 -0.2443  0.2970
   83POPC   D2A 1423   0.061   7.332   7.342 -0.3648 -0.1669 -0.1339
   83POPC   C3A 1424   0.177   7.609   6.932 -0.1948  0.3193 -0.2708
   83POPC   C4A 1425  -0.095   7.989   6.739 -0.1012 -0.2690 -0.0929
   83POPC   C1B 1426   0.363   6.921   7.527 -0.2065  0.0556  0.0610
   83POPC   C2B 1427   0.211   6.879   7.156  0.0454 -0.0853  0.2815
   83POPC   C3B 1428   0.160   7.106   6.684 -0.3682  0.1284 -0.3579
   83POPC   C4B 1429   0.094   7.425   6.476  0.2758  0.0413  0.4472
   84POPC   NC3 1430   8.696   2.151   9.291 -0.0004  0.1007  0.1124
   84POPC   PO4 1431   8.611   1.881   8.945  0.0676  0.2706 -0.0500
   84POPC   GL1 1432   8.683   1.722   8.528  0.0907 -0.1609  0.0148
   84POPC   GL2 1433   9.016   1.814   8.310  0.1572 -0.0115 -0.0856
   84POPC   C1A 1434   8.597   1.378   8.264 -0.0463  0.0865 -0.2768
   84POPC   D2A 1435   8.380   1.034   8.168  0.0254 -0.0370 -0.3399
   84POPC   C3A 1436   7.944   0.933   8.148 -0.0527 -0.1743 -0.0764
   84POPC   C4A 1437   7.679   0.635   7.817 -0.1586 -0.0103  0.0479
   84POPC   C1B 1438   8.982   1.764   7.941  0.1303  0.1856  0.2822
   84POPC   C2B 1439   8.697   1.712   7.510 -0.0649 -0.2162  0.0302
   84POPC   C3B 1440   8.467   1.857   7.180  0.0911 -0.0900  0.1193
   84POPC   C4B 1441   8.025   1.856   7.124 -0.1030 -0.0201 -0.1076
   85POPC   NC3 1442   7.900   8.896   9.572  0.0096 -0.4232 -0.0175
   85POPC   PO4 1443   7.677   8.534   9.402  0.0353  0.0703  0.0926
   85POPC   GL1 1444   7.949   8.725   9.053  0.0262  0.1232 -0.1629
   85POPC   GL2 1445   8.287   8.737   9.164 -0.1706  0.0285 -0.0090
   85POPC   C1A 1446   8.080   8.891   8.612 -0.3683  0.1253  0.1794
   85POPC   D2A 1447   8.301   9.108   8.402  0.5831  0.1125  0.1632
   85POPC   C3A 1448   8.252   9.426   8.005 -0.1967 -0.0151 -0.1218
   85POPC   C4A 1449   8.252   9.753   7.665  0.1576  0.0663  0.1011
   85POPC   C1B 1450   8.567   9.091   9.111  0.1374 -0.2057  0.0671
   85POPC   C2B 1451   8.647   9.292   8.766  0.3369 -0.2356  0.1277
   85POPC   C3B 1452   8.852   9.121   8.385 -0.0875  0.0098  0.3222
   85POPC   C4B 1453   8.880   8.782   8.294  0.0087  0.1127 -0.0851
   86POPC   NC3 1454   5.370   0.581   8.465 -0.2342 -0.1384  0.1099
   86POPC   PO4 1455   5.533   0.296   8.721 -0.0705  0.0448  0.1910
   86POPC   GL1 1456   5.527   0.047   8.376  0.1923  0.0740  0.3056
   86POPC   GL2 1457   5.233  -0.044   8.312  0.4568 -0.2298  0.1794
   86POPC   C1A 1458   5.674  -0.293   8.192 -0.0817 -0.0035  0.1334
   86POPC   D2A 1459   5.817  -0.666   7.877 -0.2719 -0.2467 -0.0653
   86POPC   C3A 1460   6.268  -0.596   7.539 -0.3057 -0.2071  0.0491
   86POPC   C4A 1461   6.388  -0.714   7.154 -0.1772  0.2344  0.4896
   86POPC   C1B 1462   5.092  -0.059   7.818 -0.0691 -0.0154  0.2476
   86POPC   C2B 1463   5.155   0.083   7.331  0.1911 -0.0746  0.2273
   86POPC   C3B 1464   5.108   0.214   6.939  0.0383  0.1189 -0.1259
   86POPC   C4B 1465   5.079   0.089   6.429 -0.2735 -0.2384 -0.2161
   87POPC   NC3 1466   8.671   2.920   8.575  0.0473 -0.1775 -0.1471
   87POPC   PO4 1467   9.084   2.670   8.605  0.1015 -0.0823 -0.0470
   87POPC   GL1 1468   8.844   2.535   8.335  0.3483  0.0214  0.0447
   87POPC   GL2 1469   9.088   2.311   8.254 -0.1131 -0.3053  0.2355
   87POPC   C1A 1470   8.464   2.402   8.079  0.3025 -0.0234 -0.2084
   87POPC   D2A 1471   8.067   2.140   8.106  0.2048  0.5060  0.2750
   87POPC   C3A 1472   8.077   1.860   7.737 -0.2238 -0.1876  0.0632
   87POPC   C4A 1473   8.052   1.519   7.450 -0.3185 -0.1008  0.2810
   87POPC   C1B 1474   9.019   2.268   7.727 -0.4083 -0.1285 -0.1943
   87POPC   C2B 1475   8.965   2.605   7.329 -0.1668 -0.1244  0.5123
   87POPC   C3B 1476   8.686   2.976   7.152 -0.4744 -0.0903  0.0000
   87POPC   C4B 1477   8.373   3.051   6.772  0.2117  0.3931 -0.1650
   88POPC   NC3 1478   6.171   7.254   8.516  0.1717 -0.2728 -0.0584
   88POPC   PO4 1479   6.580   7.176   8.602  0.0941  0.0598  0.2229
   88POPC   GL1 1480   6.638   7.210   8.188  0.0121  0.2402  0.1297
   88POPC   GL2 1481   6.740   7.049   7.872  0.2055 -0.1080 -0.0441
   88POPC   C1A 1482   6.588   7.490   7.820 -0.0498  0.1416  0.1562
   88POPC   D2A 1483   6.418   7.676   7.347  0.2599 -0.5889  0.0190
   88POPC   C3A 1484   6.400   7.348   7.038 -0.2723  0.0468  0.3924
   88POPC   C4A 1485   6.543   7.223   6.561 -0.1874 -0.2662 -0.0828
   88POPC   C1B 1486   6.800   7.280   7.442 -0.4087 -0.0335  0.0003
   88POPC   C2B 1487   7.158   7.490   7.183 -0.1251  0.1701  0.1500
   88POPC   C3B 1488   6.961   7.675   6.826 -0.0032  0.2251  0.2015
   88POPC   C4B 1489   6.752   7.676   6.444  0.1146  0.1142 -0.1498
   89POPC   NC3 1490   9.410   1.381   9.489  0.1349  0.1094  0.1230
   89POPC   PO4 1491   9.584   0.936   9.250 -0.1035 -0.3112 -0.3001
   89POPC   GL1 1492   9.278   0.795   8.933 -0.1935 -0.2561  0.1130
   89POPC   GL2 1493   9.408   0.676   8.702 -0.0581  0.1024  0.1839
   89POPC   C1A 1494   8.911   0.790   8.844  0.0422 -0.1887  0.1384
   89POPC   D2A 1495   8.448   0.902   8.637 -0.3370 -0.0832 -0.1814
   89POPC   C3A 1496   8.160   0.541   8.525  0.3294  0.0366 -0.0898
   89POPC   C4A 1497   7.895   0.395   8.204  0.4764  0.1519 -0.3736
   89POPC   C1B 1498   9.516   0.531   8.381 -0.0551 -0.0829  0.1343
   89POPC   C2B 1499   9.307   0.340   8.035 -0.3452  0.1371 -0.0377
   89POPC   C3B 1500   9.145  -0.078   7.834 -0.2035 -0.0925  0.1049
   89POPC   C4B 1501   8.767  -0.271   7.788  0.3021 -0.1313  0.1395
   90POPC   NC3 1502   5.936   7.691   8.735  0.1876  0.2519  0.0108
   90POPC   PO4 1503   5.704   7.355   8.521  0.2568  0.0951  0.0410
   90POPC   GL1 1504   5.813   7.545   8.174  0.0084  0.0082 -0.0476
   90POPC   GL2 1505   6.119   7.422   8.000 -0.1474  0.0785  0.0672
   90POPC   C1A 1506   5.669   7.719   7.855 -0.0191  0.0649  0.1414
   90POPC   D2A 1507   5.673   8.125   7.562 -0.0994  0.3290  0.2121
   90POPC   C3A 1508   5.456   8.256   7.170  0.2561  0.0884  0.0159
   90POPC   C4A 1509   5.050   8.303   6.862  0.0616 -0.2740  0.3867
   90POPC   C1B 1510   6.083   7.353   7.538  0.1235 -0.0408  0.2919
   90POPC   C2B 1511   5.879   7.327   7.141 -0.0074 -0.0220  0.1735
   90POPC   C3B 1512   5.752   7.612   6.753  0.3307  0.0502 -0.0502
   90POPC   C4B 1513   5.544   7.562   6.357  0.1691  0.1420  0.0323
   91POPC   NC3 1514   9.331   6.660   8.386  0.2052  0.2852 -0.0276
   91POPC   PO4 1515   9.793   6.804   8.323  0.0733 -0.0087 -0.0296
   91POPC   GL1 1516   9.617   7.008   8.059  0.1169 -0.1576  0.0475
   91POPC   GL2 1517   9.869   7.168   7.899  0.0798 -0.1750 -0.0792
   91POPC   C1A 1518   9.705   6.905   7.555 -0.0568  0.1366 -0.1066
   91POPC   D2A 1519   9.658   7.102   7.201  0.5517 -0.1153 -0.0727
   91POPC   C3A 1520   9.723   7.255   6.930 -0.0651  0.2635  0.1028
   91POPC   C4A 1521   9.584   7.608   6.487  0.0364  0.0302 -0.0758
   91POPC   C1B 1522   9.650   7.407   7.635 -0.3886  0.2402 -0.0392
   91POPC   C2B 1523   9.445   7.537   7.265 -0.0593 -0.3638  0.2413
   91POPC   C3B 1524   8.951   7.534   7.148 -0.3502 -0.1743  0.0724
   91POPC   C4B 1525   8.597   7.344   7.116 -0.1106 -0.1116  0.0770
   92POPC   NC3 1526   0.691   3.038   7.975  0.1086 -0.1168  0.1795
   92POPC   PO4 1527   0.286   3.405   7.849  0.0736  0.1102 -0.0488
   92POPC   GL1 1528   0.220   3.443   7.452  0.0757  0.0818  0.1507
   92POPC   GL2 1529  -0.051   3.577   7.419 -0.1241  0.6075 -0.0011
   92POPC   C1A 1530   0.198   3.327   6.971  0.0293  0.1555 -0.1322
   92POPC   D2A 1531   0.411   3.521   6.571 -0.0579 -0.1856  0.1115
   92POPC   C3A 1532   0.395   3.683   6.150 -0.1933 -0.2693  0.0814
   92POPC   C4A 1533   0.557   3.707   5.735  0.2401 -0.1729  0.0529
   92POPC   C1B 1534  -0.212   3.598   7.039 -0.0764 -0.0918  0.2342
   92POPC   C2B 1535  -0.078   3.494   6.606  0.1409 -0.0186  0.2304
   92POPC   C3B 1536  -0.252   3.457   6.141 -0.2363 -0.1669  0.0606
   92POPC   C4B 1537  -0.356   3.418   5.662 -0.0867  0.1393  0.0665
   93POPC   NC3 1538   1.038   1.362   8.206  0.0946 -0.0179 -0.0220
   93POPC   PO4 1539   0.993   1.818   8.282  0.2430  0.1078 -0.2421
   93POPC   GL1 1540   0.872   1.989   7.919 -0.1907 -0.4568  0.3543
   93POPC   GL2 1541   0.602   1.775   7.742  0.4310 -0.1828 -0.1432
   93POPC   C1A 1542   0.979   2.408   7.745  0.0420 -0.1600 -0.0340
   93POPC   D2A 1543   1.270   2.657   7.511  0.2926 -0.2589  0.3426
   93POPC   C3A 1544   1.522   2.814   7.235  0.2864 -0.3461 -0.0672
   93POPC   C4A 1545   1.900   3.115   7.212 -0.0130 -0.1346 -0.1938
   93POPC   C1B 1546   0.697   1.940   7.347  0.2090  0.3603 -0.1786
   93POPC   C2B 1547   0.957   2.279   7.244 -0.0585 -0.2218  0.1572
   93POPC   C3B 1548   1.368   2.288   7.120  0.4292 -0.1144  0.0747
   93POPC   C4B 1549   1.753   2.319   7.214 -0.0761  0.0242  0.2945
   94POPC   NC3 1550   5.706   8.030   9.447 -0.0878  0.0341  0.1648
   94POPC   PO4 1551   5.810   8.123   9.053 -0.1963  0.2526 -0.1743
   94POPC   GL1 1552   5.970   8.254   8.712 -0.1027  0.3026 -0.1652
   94POPC   GL2 1553   6.012   8.034   8.395 -0.1751  0.1193  0.1476
   94POPC   C1A 1554   6.041   8.532   8.352 -0.0803 -0.1293  0.1004
   94POPC   D2A 1555   5.924   8.848   8.110  0.1002  0.4240  0.1624
   94POPC   C3A 1556   6.113   8.900   7.750  0.1311 -0.1588  0.0182
   94POPC   C4A 1557   6.074   8.917   7.379  0.0147  0.0116  0.3924
   94POPC   C1B 1558   6.108   8.223   7.904  0.0777  0.0864  0.2441
   94POPC   C2B 1559   6.198   8.366   7.460  0.0028  0.1218 -0.1272
   94POPC   C3B 1560   6.265   8.303   7.035 -0.3051  0.2397 -0.0480
   94POPC   C4B 1561   5.848   8.123   6.896 -0.1798 -0.1847 -0.0154
   95POPC   NC3 1562   0.013   6.312   8.299  0.4056 -0.3090  0.3024
   95POPC   PO4 1563  -0.330   6.196   8.257 -0.2247 -0.2026  0.1309
   95POPC   GL1 1564  -0.345   6.482   7.914 -0.2003 -0.0142  0.0382
   95POPC   GL2 1565  -0.155   6.491   7.833 -0.0711  0.1493  0.3367
   95POPC   C1A 1566  -0.670   6.455   7.556  0.0231 -0.0540 -0.1113
   95POPC   D2A 1567  -0.864   6.276   7.252  0.2078  0.1846  0.1764
   95POPC   C3A 1568  -1.051   6.069   6.929 -0.2775  0.0126 -0.1411
   95POPC   C4A 1569  -1.311   5.660   6.901  0.2854  0.0131  0.1650
   95POPC   C1B 1570  -0.001   6.502   7.385  0.0107 -0.0167  0.1273
   95POPC   C2B 1571   0.109   6.414   7.003 -0.0944 -0.0755  0.1027
   95POPC   C3B 1572  -0.133   6.212   6.799 -0.1860  0.2143  0.1315
   95POPC   C4B 1573  -0.596   6.142   6.599  0.1417 -0.1548  0.2264
   96POPC   NC3 1574   9.036   1.636   8.848  0.0134 -0.1734 -0.3430
   96POPC   PO4 1575   9.249   1.317   9.000  0.0970 -0.0344 -0.1144
   96POPC   GL1 1576   9.230   1.174   8.562  0.0809 -0.2386 -0.1885
   96POPC   GL2 1577   9.114   1.344   8.461  0.0645  0.0748 -0.1820
   96POPC   C1A 1578   8.885   0.952   8.365 -0.1474  0.0394  0.1220
   96POPC   D2A 1579   8.932   0.613   8.059 -0.2586 -0.0526  0.2752
   96POPC   C3A 1580   8.729   0.673   7.648 -0.0184  0.1862  0.3684
   96POPC   C4A 1581   8.469   0.729   7.368 -0.1507 -0.1469 -0.0631
   96POPC   C1B 1582   9.005   1.289   8.000 -0.0791 -0.3648  0.0334
   96POPC   C2B 1583   9.003   1.263   7.475 -0.1455 -0.1475 -0.2078
   96POPC   C3B 1584   8.889   0.986   7.217 -0.0416 -0.1032 -0.1249
   96POPC   C4B 1585   9.067   0.568   7.133  0.1570  0.1536  0.1384
   97POPC   NC3 1586   0.498   9.561   8.961  0.2946  0.1215 -0.0003
   97POPC   PO4 1587   0.803   9.494   8.687  0.2121  0.0175  0.1926
   97POPC   GL1 1588   0.901   9.361   8.239  0.3671 -0.2298 -0.0512
   97POPC   GL2 1589   0.741   8.979   8.123 -0.0446  0.1326  0.2118
   97POPC   C1A 1590   0.710   9.436   7.880 -0.2938  0.1718  0.1326
   97POPC   D2A 1591   0.457   9.620   7.594 -0.2330  0.2151  0.2268
   97POPC   C3A 1592   0.066   9.766   7.564  0.2176  0.1270  0.1074
   97POPC   C4A 1593  -0.343   9.814   7.856  0.0123 -0.2790  0.2221
   97POPC   C1B 1594   0.649   8.915   7.737 -0.0517  0.2505  0.1298
   97POPC   C2B 1595   0.692   9.159   7.416 -0.3870 -0.1618 -0.1528
   97POPC   C3B 1596   0.508   9.397   7.077  0.1787 -0.0907 -0.0177
   97POPC   C4B 1597   0.537   9.557   6.706 -0.0492  0.1187 -0.2822
   98POPC   NC3 1598   7.284   4.571   8.528 -0.1284  0.1862 -0.3314
   98POPC   PO4 1599   7.260   4.400   8.195  0.1644  0.4392 -0.2307
   98POPC   GL1 1600   7.318   4.433   7.746  0.0180  0.2274  0.3651
   98POPC   GL2 1601   7.163   4.753   7.675  0.0647 -0.1184  0.2027
   98POPC   C1A 1602   7.544   4.063   7.514  0.4318 -0.4573  0.0136
   98POPC   D2A 1603   7.648   3.782   7.120  0.2700  0.0670  0.1247
   98POPC   C3A 1604   7.580   3.822   6.706 -0.0597  0.3007 -0.1094
   98POPC   C4A 1605   7.636   3.813   6.276  0.0328 -0.1894  0.3271
   98POPC   C1B 1606   7.085   4.646   7.307 -0.0426  0.0413  0.1908
   98POPC   C2B 1607   7.188   4.608   6.847 -0.0293  0.0909 -0.2313
   98POPC   C3B 1608   7.237   4.845   6.545 -0.0553 -0.1188  0.1047
   98POPC   C4B 1609   7.650   4.828   6.276 -0.1683 -0.0818  0.0937
   99POPC   NC3 1610   2.074   6.210   8.174  0.0890  0.0203  0.0228
   99POPC   PO4 1611   2.032   6.252   7.794  0.0876  0.0929  0.1110
   99POPC   GL1 1612   1.872   6.345   7.313 -0.0293 -0.2702 -0.1380
   99POPC   GL2 1613   2.126   6.502   7.116 -0.0568 -0.3441  0.2240
   99POPC   C1A 1614   1.624   6.533   7.005 -0.0805  0.5898  0.0552
   99POPC   D2A 1615   1.461   6.634   6.539  0.0862 -0.0717 -0.2061
   99POPC   C3A 1616   0.999   6.651   6.373  0.0976 -0.2702 -0.0528
   99POPC   C4A 1617   0.567   6.583   6.233  0.0475 -0.0148  0.1377
   99POPC   C1B 1618   2.342   6.650   6.773  0.0368 -0.2324 -0.1164
   99POPC   C2B 1619   2.670   6.276   6.671 -0.0360 -0.0177  0.0943
   99POPC   C3B 1620   3.120   6.232   6.774  0.1683  0.0317  0.0395
   99POPC   C4B 1621   3.356   6.143   7.142 -0.1378 -0.2349 -0.3406
  100POPC   NC3 1622   7.897   3.698   8.179  0.0227 -0.0942 -0.1102
  100POPC   PO4 1623   8.288   3.607   8.222  0.2463 -0.2903 -0.3563
  100POPC   GL1 1624   8.172   3.393   7.869  0.0790  0.0228  0.3174
  100POPC   GL2 1625   8.362   3.350   7.676 -0.1241  0.0765  0.3770
  100POPC   C1A 1626   7.883   3.099   7.734 -0.0871  0.1664  0.0666
  100POPC   D2A 1627   7.829   2.742   7.520  0.1312  0.0175 -0.1429
  100POPC   C3A 1628   7.456   2.507   7.378 -0.2004  0.3935 -0.0190
  100POPC   C4A 1629   7.068   2.222   7.386  0.0259  0.2649 -0.1030
  100POPC   C1B 1630   8.196   3.090   7.295 -0.1599  0.0275 -0.1656
  100POPC   C2B 1631   7.932   2.797   7.027 -0.3247  0.2398  0.2886
  100POPC   C3B 1632   7.636   2.692   6.777 -0.1488  0.1051  0.2764
  100POPC   C4B 1633   7.758   2.550   6.408 -0.0196  0.0032  0.0448
  101POPC   NC3 1634   6.480   7.705   9.341  0.1402  0.0573  0.2197
  101POPC   PO4 1635   6.321   7.899   8.975  0.0129 -0.2264  0.1181
  101POPC   GL1 1636   6.578   7.724   8.672  0.0102  0.0538  0.1352
  101POPC   GL2 1637   6.471   7.650   8.345 -0.0070 -0.1456  0.3389
  101POPC   C1A 1638   6.895   7.864   8.429  0.0992 -0.1151 -0.0250
  101POPC   D2A 1639   6.972   7.877   8.114  0.1488  0.4766  0.1547
  101POPC   C3A 1640   7.416   8.052   7.923 -0.1756 -0.1511 -0.1056
  101POPC   C4A 1641   7.786   7.819   7.970  0.3141  0.0535 -0.1738
  101POPC   C1B 1642   6.480   8.111   8.237 -0.3638  0.0835 -0.0912
  101POPC   C2B 1643   6.458   8.535   7.972  0.1010 -0.1317  0.1716
  101POPC   C3B 1644   6.623   8.619   7.557 -0.2256  0.1660  0.2412
  101POPC   C4B 1645   6.465   8.767   7.110  0.4854  0.1034 -0.2952
  102POPC   NC3 1646   6.985   9.099   9.389 -0.0443  0.2233 -0.0410
  102POPC   PO4 1647   6.559   9.196   9.166  0.1260  0.4334 -0.4137
  102POPC   GL1 1648   6.918   9.329   8.935  0.4830  0.3292 -0.0655
  102POPC   GL2 1649   6.862   9.617   8.867  0.1952  0.2345 -0.4703
  102POPC   C1A 1650   7.367   9.270   8.764  0.0676 -0.0325  0.0041
  102POPC   D2A 1651   7.608   8.985   8.528 -0.3153  0.0159  0.0331
  102POPC   C3A 1652   7.708   8.560   8.569 -0.0337 -0.2528 -0.1069
  102POPC   C4A 1653   7.844   8.127   8.441 -0.0306  0.1415 -0.1351
  102POPC   C1B 1654   6.517   9.501   8.492  0.0279 -0.0668 -0.0736
  102POPC   C2B 1655   6.543   9.849   8.162  0.1742  0.0633  0.3400
  102POPC   C3B 1656   6.392   9.927   7.778 -0.1658 -0.0264  0.1071
  102POPC   C4B 1657   5.961   9.786   7.728  0.0654 -0.0421 -0.1997
  103POPC   NC3 1658   6.825   2.613   8.467  0.0756 -0.4139  0.1490
  103POPC   PO4 1659   6.917   2.145   8.563 -0.0350 -0.2836  0.0576
  103POPC   GL1 1660   7.144   1.894   8.381  0.0591 -0.2682  0.1135
  103POPC   GL2 1661   7.380   2.005   8.270 -0.2821  0.0510 -0.1439
  103POPC   C1A 1662   7.033   1.500   8.339 -0.2566  0.0613 -0.0102
  103POPC   D2A 1663   6.856   1.117   8.356  0.1398 -0.3317  0.2204
  103POPC   C3A 1664   6.463   1.106   8.037 -0.2092 -0.3682 -0.3310
  103POPC   C4A 1665   6.294   0.753   7.781 -0.2030  0.1606 -0.1248
  103POPC   C1B 1666   7.398   1.674   7.982 -0.0336 -0.0887  0.2674
  103POPC   C2B 1667   7.418   1.269   8.078 -0.1510  0.1848  0.1054
  103POPC   C3B 1668   7.217   0.973   7.867  0.3815 -0.1623  0.0801
  103POPC   C4B 1669   6.805   0.899   7.833  0.3600  0.1194  0.0264
  104POPC   NC3 1670   5.737   1.236   9.020 -0.0346  0.1628  0.1161
  104POPC   PO4 1671   5.909   0.826   8.893 -0.0982 -0.2137  0.2122
  104POPC   GL1 1672   5.898   1.034   8.567 -0.1768 -0.1310  0.1897
  104POPC   GL2 1673   6.022   1.381   8.463  0.0480 -0.0167 -0.0154
  104POPC   C1A 1674   6.035   0.943   8.197  0.1666 -0.1142  0.0362
  104POPC   D2A 1675   5.803   0.722   7.791  0.1025  0.0508  0.1826
  104POPC   C3A 1676   5.561   1.063   7.614  0.0395  0.0550  0.0727
  104POPC   C4A 1677   5.278   1.273   7.914  0.4399  0.1711  0.5325
  104POPC   C1B 1678   6.218   1.640   8.092 -0.2334  0.1964  0.3087
  104POPC   C2B 1679   6.482   1.657   7.698 -0.2197  0.1466 -0.1393
  104POPC   C3B 1680   6.613   1.629   7.327 -0.0426 -0.2170  0.4112
  104POPC   C4B 1681   6.481   1.558   6.868 -0.0605  0.1686  0.1391
  105POPC   NC3 1682   4.267   7.280   8.606 -0.1073  0.2657  0.3789
  105POPC   PO4 1683   4.539   7.484   8.332  0.2927 -0.0540  0.1071
  105POPC   GL1 1684   4.775   7.603   7.946 -0.0188  0.1400 -0.2822
  105POPC   GL2 1685   4.925   7.869   8.104 -0.2264 -0.4830 -0.0814
  105POPC   C1A 1686   4.736   7.482   7.558 -0.0820 -0.3891  0.2988
  105POPC   D2A 1687   4.398   7.353   7.285  0.0416 -0.0147  0.3442
  105POPC   C3A 1688   3.953   7.503   7.321 -0.1273  0.3561  0.0422
  105POPC   C4A 1689   3.619   7.671   7.175  0.0622  0.0248  0.0482
  105POPC   C1B 1690   5.271   8.052   8.018 -0.0773  0.2201  0.1897
  105POPC   C2B 1691   5.661   8.213   8.088  0.3515  0.0319 -0.3455
  105POPC   C3B 1692   5.742   8.500   7.807 -0.1689 -0.0793 -0.0004
  105POPC   C4B 1693   5.661   8.660   7.452 -0.0545 -0.0026 -0.0109
  106POPC   NC3 1694   2.489   0.334   8.860 -0.3304 -0.5505  0.0559
  106POPC   PO4 1695   2.696   0.712   8.718 -0.0066  0.2824 -0.0536
  106POPC   GL1 1696   2.606   0.581   8.287 -0.1557 -0.1767  0.1613
  106POPC   GL2 1697   2.583   0.285   8.355  0.0425  0.1788 -0.1496
  106POPC   C1A 1698   2.578   0.608   7.801  0.0095  0.1332 -0.4775
  106POPC   D2A 1699   2.458   1.029   7.672  0.1629 -0.1309 -0.0997
  106POPC   C3A 1700   2.726   1.392   7.494  0.0566 -0.0428 -0.1029
  106POPC   C4A 1701   2.819   1.506   7.157  0.0897  0.3299 -0.1073
  106POPC   C1B 1702   2.701   0.071   7.921  0.1286 -0.0864 -0.0232
  106POPC   C2B 1703   2.543  -0.276   7.655 -0.3516 -0.1893 -0.0199
  106POPC   C3B 1704   2.732  -0.656   7.502 -0.1419  0.0601 -0.0163
  106POPC   C4B 1705   2.550  -0.924   7.274 -0.2627  0.0555  0.1749
  107POPC   NC3 1706   4.500   6.758   9.118 -0.2479  0.2345 -0.1862
  107POPC   PO4 1707   4.552   6.815   8.632  0.0883 -0.1252 -0.0505
  107POPC   GL1 1708   4.753   6.836   8.173  0.0181 -0.1240 -0.3613
  107POPC   GL2 1709   4.891   7.141   8.190 -0.0783 -0.1972  0.2610
  107POPC   C1A 1710   4.931   6.710   7.844 -0.0329 -0.0381  0.1409
  107POPC   D2A 1711   4.887   6.846   7.449  0.0915  0.1060  0.3069
  107POPC   C3A 1712   4.899   7.290   7.142 -0.0361  0.0292 -0.1455
  107POPC   C4A 1713   4.820   7.521   6.864  0.5831 -0.4428  0.0116
  107POPC   C1B 1714   5.059   7.191   7.777  0.0398 -0.0980  0.1067
  107POPC   C2B 1715   5.257   7.605   7.669  0.3787 -0.0697  0.4264
  107POPC   C3B 1716   5.514   7.756   7.261 -0.1522  0.2506 -0.0887
  107POPC   C4B 1717   5.959   7.828   7.279 -0.1977  0.1676 -0.2434
  108POPC   NC3 1718   6.425   1.975   8.796  0.2628 -0.1532 -0.0861
  108POPC   PO4 1719   6.319   2.418   8.992  0.2814  0.1134  0.0434
  108POPC   GL1 1720   6.338   2.367   8.519  0.1537  0.3341 -0.0129
  108POPC   GL2 1721   6.085   2.536   8.308 -0.0040  0.1707  0.0933
  108POPC   C1A 1722   6.449   2.076   8.132  0.0454  0.0132  0.1226
  108POPC   D2A 1723   6.725   1.770   8.113 -0.2386 -0.1001  0.1119
  108POPC   C3A 1724   6.891   1.403   7.872  0.0002 -0.1421  0.0057
  108POPC   C4A 1725   7.052   1.267   7.462  0.1413 -0.1053  0.0577
  108POPC   C1B 1726   5.791   2.601   7.983  0.2145 -0.0980 -0.0597
  108POPC   C2B 1727   5.515   2.796   7.695 -0.2421 -0.3050 -0.0265
  108POPC   C3B 1728   5.560   3.051   7.407  0.0332  0.1160  0.2890
  108POPC   C4B 1729   5.826   3.422   7.535 -0.0322 -0.0803  0.1713
  109POPC   NC3 1730   5.042   1.651   9.339  0.2270  0.0826  0.1183
  109POPC   PO4 1731   4.872   1.675   8.859 -0.0429 -0.0009  0.0152
  109POPC   GL1 1732   4.832   1.621   8.332  0.0759 -0.2084 -0.0305
  109POPC   GL2 1733   5.144   1.688   8.087  0.0315 -0.0941 -0.1487
  109POPC   C1A 1734   4.726   1.729   7.885 -0.2025 -0.2208  0.0264
  109POPC   D2A 1735   4.481   1.549   7.551  0.0238  0.3971  0.2521
  109POPC   C3A 1736   4.194   1.358   7.250 -0.1887  0.0618  0.0215
  109POPC   C4A 1737   4.178   1.105   6.957  0.0923  0.0180 -0.0613
  109POPC   C1B 1738   5.403   1.804   7.770 -0.1735  0.3168 -0.1474
  109POPC   C2B 1739   5.712   1.619   7.500 -0.1876  0.3526 -0.1515
  109POPC   C3B 1740   5.737   1.557   7.119 -0.1721 -0.1903  0.0456
  109POPC   C4B 1741   5.686   1.330   6.670 -0.0995  0.1684 -0.0036
  110POPC   NC3 1742   8.496   4.725   8.130  0.2375 -0.0750 -0.0691
  110POPC   PO4 1743   8.652   4.332   7.976 -0.0886 -0.0666 -0.0486
  110POPC   GL1 1744   8.525   4.056   7.592  0.3186  0.0142  0.3547
  110POPC   GL2 1745   8.205   3.987   7.816 -0.0551  0.1012 -0.3154
  110POPC   C1A 1746   8.472   4.120   7.165 -0.0825 -0.0085  0.2567
  110POPC   D2A 1747   8.544   3.868   6.775  0.2568  0.1840 -0.4320
  110POPC   C3A 1748   8.852   3.634   6.834 -0.0836 -0.3928  0.1459
  110POPC   C4A 1749   8.896   3.205   6.738 -0.1042  0.1562  0.0668
  110POPC   C1B 1750   8.097   3.895   7.409  0.0533  0.1793  0.3657
  110POPC   C2B 1751   8.039   4.132   6.989 -0.0545 -0.0375  0.0516
  110POPC   C3B 1752   8.004   3.983   6.556 -0.1258 -0.1880  0.0160
  110POPC   C4B 1753   8.255   3.939   6.283  0.0101 -0.1062 -0.3194
  111POPC   NC3 1754   1.704   4.164   8.162  0.1565 -0.0038  0.0139
  111POPC   PO4 1755   1.575   4.449   8.314  0.0936  0.0779  0.1582
  111POPC   GL1 1756   1.655   4.626   7.985  0.4761 -0.1154 -0.0824
  111POPC   GL2 1757   1.891   4.845   7.982  0.0033  0.0360 -0.0346
  111POPC   C1A 1758   1.480   4.879   7.671  0.1921 -0.0345  0.3888
  111POPC   D2A 1759   1.296   5.256   7.681 -0.1853  0.0766 -0.0035
  111POPC   C3A 1760   1.447   5.608   7.373  0.0078  0.0848  0.2807
  111POPC   C4A 1761   1.617   5.684   7.086 -0.1065  0.0161  0.1095
  111POPC   C1B 1762   1.941   4.643   7.534 -0.0666  0.1669  0.1143
  111POPC   C2B 1763   2.109   4.452   7.099  0.2296 -0.2154  0.2167
  111POPC   C3B 1764   2.393   4.405   6.735  0.1539  0.1425 -0.1492
  111POPC   C4B 1765   2.672   4.453   6.415 -0.1398  0.1721 -0.0924
  112POPC   NC3 1766   3.696   4.937   8.282 -0.1741  0.0326 -0.0505
  112POPC   PO4 1767   3.385   4.932   7.914 -0.1110  0.0081 -0.1748
  112POPC   GL1 1768   3.302   4.999   7.543 -0.2429 -0.1876 -0.1073
  112POPC   GL2 1769   3.458   5.207   7.449  0.1447 -0.2918  0.0052
  112POPC   C1A 1770   3.395   4.799   7.195  0.0428  0.2792  0.3093
  112POPC   D2A 1771   3.543   4.659   6.889  0.2683  0.2210 -0.3953
  112POPC   C3A 1772   4.059   4.664   6.861 -0.2337 -0.0170 -0.4080
  112POPC   C4A 1773   4.316   4.321   6.954 -0.2980 -0.0995  0.0762
  112POPC   C1B 1774   3.584   5.314   7.061  0.0686 -0.3872 -0.3171
  112POPC   C2B 1775   3.695   5.157   6.644  0.2625  0.1361 -0.1472
  112POPC   C3B 1776   3.650   5.161   6.214  0.0571  0.3975 -0.2758
  112POPC   C4B 1777   3.603   5.285   5.806  0.4168  0.1564 -0.3350
  113POPC   NC3 1778   8.420   6.156   8.659 -0.2098 -0.1257 -0.1272
  113POPC   PO4 1779   8.044   5.961   8.505 -0.0916  0.0024 -0.0032
  113POPC   GL1 1780   8.224   6.080   8.082 -0.2242 -0.1194  0.0346
  113POPC   GL2 1781   8.543   6.275   8.148 -0.3266  0.3212  0.0450
  113POPC   C1A 1782   8.249   5.820   7.564  0.0095 -0.3454 -0.2234
  113POPC   D2A 1783   8.621   5.605   7.385  0.2447 -0.3540 -0.1932
  113POPC   C3A 1784   9.094   5.664   7.151  0.2768  0.3928  0.4082
  113POPC   C4A 1785   9.401   5.876   7.029  0.0152  0.0513 -0.2927
  113POPC   C1B 1786   8.455   6.240   7.653  0.0092 -0.1863 -0.0504
  113POPC   C2B 1787   8.523   6.240   7.300 -0.0364  0.0395 -0.0558
  113POPC   C3B 1788   8.411   6.111   6.953  0.2783  0.0004 -0.1851
  113POPC   C4B 1789   8.181   6.277   6.557  0.1261 -0.0342 -0.1274
  114POPC   NC3 1790   4.936   5.639   8.058  0.2136 -0.0857  0.2192
  114POPC   PO4 1791   5.106   5.871   8.150  0.0123  0.1117  0.0124
  114POPC   GL1 1792   5.060   6.066   7.770  0.1684 -0.1379  0.1882
  114POPC   GL2 1793   4.782   6.288   7.834  0.0175  0.3577 -0.3265
  114POPC   C1A 1794   5.077   6.377   7.361 -0.1271  0.0593 -0.0743
  114POPC   D2A 1795   5.261   6.754   7.191  0.2259  0.1005  0.3628
  114POPC   C3A 1796   5.259   6.812   6.756 -0.0989  0.2645  0.1436
  114POPC   C4A 1797   5.062   6.776   6.378 -0.0719  0.0649  0.1763
  114POPC   C1B 1798   4.515   6.448   7.469 -0.1125 -0.0876 -0.0782
  114POPC   C2B 1799   4.679   6.359   7.124 -0.1682 -0.4249 -0.1692
  114POPC   C3B 1800   4.871   6.491   6.817 -0.1340  0.1236 -0.1567
  114POPC   C4B 1801   5.141   6.266   6.354 -0.2142  0.1514  0.0391
  115POPC   NC3 1802   9.785   9.431   9.413 -0.0132  0.0462 -0.3907
  115POPC   PO4 1803  10.194   9.263   9.304  0.3298  0.3341  0.2037
  115POPC   GL1 1804  10.043   9.280   8.854  0.0913  0.2734 -0.0774
  115POPC   GL2 1805   9.866   9.584   8.937 -0.2079  0.1175  0.0913
  115POPC   C1A 1806   9.902   9.134   8.363  0.2138  0.0727 -0.0327
  115POPC   D2A 1807   9.871   8.882   7.968 -0.0063  0.0735 -0.0949
  115POPC   C3A 1808  10.229   8.665   7.632  0.2449 -0.0451  0.3467
  115POPC   C4A 1809  10.461   8.769   7.185  0.0134  0.0213 -0.0223
  115POPC   C1B 1810   9.650   9.567   8.605  0.1169  0.1135  0.2084
  115POPC   C2B 1811   9.424   9.600   8.258 -0.0622  0.1670 -0.2159
  115POPC   C3B 1812   9.079   9.493   8.155  0.0772  0.0575  0.1248
  115POPC   C4B 1813   8.695   9.585   8.337 -0.1552  0.3908 -0.0510
  116POPC   NC3 1814   1.120   6.327   8.129 -0.1102  0.2701  0.0778
  116POPC   PO4 1815   1.564   6.289   8.054  0.3747  0.0030 -0.0266
  116POPC   GL1 1816   1.410   6.133   7.633 -0.3379  0.3087 -0.1118
  116POPC   GL2 1817   1.099   6.353   7.596  0.1232 -0.1161 -0.1673
  116POPC   C1A 1818   1.427   6.136   7.181  0.1217  0.1807 -0.1186
  116POPC   D2A 1819   1.370   6.161   6.752 -0.1988  0.3327  0.0046
  116POPC   C3A 1820   1.038   6.052   6.477  0.0388 -0.0212 -0.4014
  116POPC   C4A 1821   0.655   5.990   6.310  0.0677  0.0090 -0.2787
  116POPC   C1B 1822   1.127   6.521   7.146  0.0444 -0.2809 -0.6307
  116POPC   C2B 1823   1.047   6.483   6.882  0.0468  0.4904  0.1250
  116POPC   C3B 1824   0.720   6.160   6.860 -0.0918  0.3945 -0.0595
  116POPC   C4B 1825   0.316   6.137   6.617  0.0283  0.0589  0.0468
  117POPC   NC3 1826   9.893   0.607   9.486 -0.3580 -0.1847  0.0899
  117POPC   PO4 1827   9.543   0.431   9.157 -0.3228  0.1478 -0.1588
  117POPC   GL1 1828   9.212   0.285   8.952  0.3458  0.0803 -0.0696
  117POPC   GL2 1829   9.055   0.291   8.730 -0.0181 -0.0495 -0.1004
  117POPC   C1A 1830   8.901  -0.096   8.941 -0.0395  0.1295 -0.0251
  117POPC   D2A 1831   8.490  -0.278   8.958  0.0936  0.0410  0.3867
  117POPC   C3A 1832   8.094  -0.013   9.018 -0.5210  0.0768  0.0216
  117POPC   C4A 1833   7.760   0.219   9.145 -0.3682  0.2039 -0.2555
  117POPC   C1B 1834   8.784   0.430   8.536  0.0413  0.1198 -0.4016
  117POPC   C2B 1835   8.477   0.470   8.229  0.1654  0.0051  0.3972
  117POPC   C3B 1836   8.265   0.572   7.875  0.0625  0.0181  0.0031
  117POPC   C4B 1837   8.176   0.977   7.723  0.0246  0.2057  0.0877
  118POPC   NC3 1838   7.483   7.193   8.809 -0.1586  0.0619  0.1737
  118POPC   PO4 1839   7.521   6.768   8.476  0.0252  0.1296  0.2407
  118POPC   GL1 1840   7.752   6.764   8.117 -0.1326  0.1004  0.1245
  118POPC   GL2 1841   8.144   6.648   7.974  0.2383 -0.2219 -0.1545
  118POPC   C1A 1842   7.813   6.776   7.611  0.0488 -0.2559  0.1144
  118POPC   D2A 1843   7.669   6.861   7.152 -0.1476  0.0883 -0.1554
  118POPC   C3A 1844   7.296   6.893   7.158  0.0393 -0.0741  0.0095
  118POPC   C4A 1845   6.888   6.955   7.081  0.1392  0.4613 -0.0903
  118POPC   C1B 1846   8.234   7.108   8.025 -0.0120  0.1575 -0.0692
  118POPC   C2B 1847   8.399   7.532   7.914 -0.1201 -0.0604 -0.3371
  118POPC   C3B 1848   8.461   7.973   7.866 -0.1688  0.2872 -0.2322
  118POPC   C4B 1849   8.651   8.432   7.962 -0.1207 -0.1805 -0.2043
  119POPC   NC3 1850   4.150   7.635   8.906  0.1499  0.0467 -0.1587
  119POPC   PO4 1851   4.133   7.740   8.451  0.0590  0.0595 -0.0890
  119POPC   GL1 1852   4.307   7.907   8.006  0.2428 -0.1922 -0.4002
  119POPC   GL2 1853   4.493   8.082   8.216 -0.1326  0.0920  0.1673
  119POPC   C1A 1854   4.426   7.877   7.562  0.3101 -0.0885  0.0645
  119POPC   D2A 1855   4.438   8.012   7.105  0.1234 -0.2067  0.1939
  119POPC   C3A 1856   4.391   7.749   6.874 -0.2495 -0.0511 -0.1293
  119POPC   C4A 1857   4.143   7.320   6.847  0.2991  0.1333 -0.2067
  119POPC   C1B 1858   4.684   8.210   7.806  0.4312 -0.0279 -0.3738
  119POPC   C2B 1859   4.903   8.014   7.524 -0.0699 -0.0549  0.0915
  119POPC   C3B 1860   5.019   7.774   7.257 -0.0897  0.0154 -0.1786
  119POPC   C4B 1861   5.268   7.702   6.858 -0.1802 -0.0080 -0.1186
  120POPC   NC3 1862   6.101   3.184   9.139 -0.4068  0.0256 -0.0002
  120POPC   PO4 1863   6.022   3.157   8.648 -0.1683  0.0486 -0.0384
  120POPC   GL1 1864   5.955   3.184   8.239  0.0707  0.4940 -0.0188
  120POPC   GL2 1865   5.983   3.519   8.142 -0.0466  0.2227  0.1663
  120POPC   C1A 1866   5.883   3.080   7.846  0.0406  0.0092 -0.1057
  120POPC   D2A 1867   6.092   2.957   7.496 -0.1208  0.1469 -0.0996
  120POPC   C3A 1868   5.977   3.167   7.135  0.2205  0.0356 -0.0250
  120POPC   C4A 1869   5.983   3.167   6.655  0.2732 -0.0950 -0.0193
  120POPC   C1B 1870   6.298   3.389   7.847  0.1441 -0.0487  0.3457
  120POPC   C2B 1871   6.426   3.321   7.363  0.1037  0.1381 -0.2256
  120POPC   C3B 1872   6.431   3.038   6.985 -0.0413 -0.4244  0.0578
  120POPC   C4B 1873   6.486   2.734   6.617 -0.3810 -0.2454 -0.0960
  121POPC   NC3 1874   8.584   7.480   9.101 -0.1390  0.2209 -0.0683
  121POPC   PO4 1875   8.480   7.365   8.682 -0.0815 -0.0590  0.1812
  121POPC   GL1 1876   8.806   7.111   8.340  0.1718  0.0500  0.0003
  121POPC   GL2 1877   9.100   7.061   8.324  0.1155  0.2139  0.0907
  121POPC   C1A 1878   8.655   6.815   8.114 -0.4633 -0.0745 -0.3025
  121POPC   D2A 1879   8.802   6.599   7.847  0.0456  0.2555 -0.3392
  121POPC   C3A 1880   8.918   6.713   7.376  0.0331  0.0990  0.3216
  121POPC   C4A 1881   8.676   6.603   6.994 -0.1801  0.0601  0.2194
  121POPC   C1B 1882   9.178   7.093   7.886  0.1328 -0.1292  0.0117
  121POPC   C2B 1883   9.207   7.169   7.520 -0.2649  0.1238 -0.1227
  121POPC   C3B 1884   9.154   7.104   7.138  0.0325  0.1997  0.1088
  121POPC   C4B 1885   9.343   6.900   6.754  0.2635  0.0863  0.2566
  122POPC   NC3 1886   1.833   6.737   7.900 -0.2597 -0.2210 -0.3315
  122POPC   PO4 1887   2.015   6.790   8.326 -0.0301  0.1288 -0.3423
  122POPC   GL1 1888   2.057   7.170   7.990 -0.1845 -0.0655 -0.0849
  122POPC   GL2 1889   1.722   7.330   7.897  0.1448  0.0793 -0.0466
  122POPC   C1A 1890   2.038   7.211   7.567  0.0503  0.2812  0.0192
  122POPC   D2A 1891   1.811   6.867   7.378  0.0246 -0.1479  0.2662
  122POPC   C3A 1892   1.413   6.871   7.265  0.2153 -0.2446  0.0952
  122POPC   C4A 1893   1.351   6.938   6.888  0.3693 -0.2749 -0.2487
  122POPC   C1B 1894   1.542   7.397   7.478 -0.0956  0.0300  0.0083
  122POPC   C2B 1895   1.140   7.360   7.219 -0.0859  0.1225  0.1785
  122POPC   C3B 1896   1.157   7.351   6.750  0.2826  0.0709 -0.2261
  122POPC   C4B 1897   1.117   7.183   6.334 -0.0873  0.0426  0.1824
  123POPC   NC3 1898   2.659   3.167   8.923  0.2126  0.0655 -0.0301
  123POPC   PO4 1899   2.807   3.474   8.584 -0.2313  0.5095 -0.2127
  123POPC   GL1 1900   3.005   3.269   8.227  0.2960  0.2095  0.0093
  123POPC   GL2 1901   2.852   3.082   8.026 -0.2659  0.0657 -0.1998
  123POPC   C1A 1902   3.183   3.438   7.810 -0.2172 -0.0975 -0.0358
  123POPC   D2A 1903   3.495   3.262   7.600 -0.1030 -0.1892  0.1882
  123POPC   C3A 1904   3.889   3.518   7.654  0.0686  0.0611  0.3605
  123POPC   C4A 1905   4.039   3.840   7.267  0.1315 -0.0973 -0.2869
  123POPC   C1B 1906   2.621   3.185   7.637 -0.0542 -0.0696  0.3601
  123POPC   C2B 1907   2.880   3.224   7.349 -0.1235 -0.1246 -0.1017
  123POPC   C3B 1908   2.923   3.071   7.021  0.1660 -0.1625  0.1809
  123POPC   C4B 1909   2.842   2.793   6.587  0.1718  0.4481  0.0172
  124POPC   NC3 1910   5.677   5.281   8.066  0.1185 -0.0688 -0.1470
  124POPC   PO4 1911   5.290   5.280   8.067  0.1194 -0.0280 -0.0205
  124POPC   GL1 1912   5.401   5.438   7.683 -0.1673 -0.1445  0.1618
  124POPC   GL2 1913   5.371   5.716   7.740 -0.0560  0.1397 -0.1343
  124POPC   C1A 1914   5.659   5.504   7.317  0.0451 -0.1341 -0.0162
  124POPC   D2A 1915   6.004   5.525   7.053  0.0905  0.3157 -0.2148
  124POPC   C3A 1916   6.169   5.852   6.726 -0.2022  0.2026  0.3416
  124POPC   C4A 1917   6.446   6.175   6.650  0.0703  0.2661 -0.3790
  124POPC   C1B 1918   5.311   5.926   7.346  0.3476  0.2556 -0.0950
  124POPC   C2B 1919   4.981   5.980   7.174 -0.1242 -0.2035  0.0275
  124POPC   C3B 1920   4.833   5.988   6.784 -0.1750 -0.0494  0.3223
  124POPC   C4B 1921   4.669   6.190   6.400  0.1353 -0.1765  0.1940
  125POPC   NC3 1922   3.643   2.540   8.314 -0.0476  0.0892 -0.2684
  125POPC   PO4 1923   3.927   2.174   8.514  0.0517 -0.2633  0.0662
  125POPC   GL1 1924   4.085   2.107   8.226 -0.1462  0.4017  0.0057
  125POPC   GL2 1925   4.099   2.355   8.025  0.3160  0.0652 -0.1254
  125POPC   C1A 1926   4.050   1.811   7.936 -0.0183  0.3810  0.3584
  125POPC   D2A 1927   3.865   1.571   7.587 -0.4461 -0.3556  0.0881
  125POPC   C3A 1928   3.906   1.179   7.636  0.3202 -0.0121  0.0107
  125POPC   C4A 1929   3.834   0.786   7.802  0.2106  0.0072  0.0507
  125POPC   C1B 1930   3.959   2.367   7.648  0.2233  0.1731  0.3513
  125POPC   C2B 1931   3.892   2.455   7.246 -0.0082 -0.0689  0.0678
  125POPC   C3B 1932   3.702   2.705   6.870 -0.0633 -0.0388  0.1154
  125POPC   C4B 1933   3.915   2.925   6.638 -0.0590 -0.0044 -0.4329
  126POPC   NC3 1934   0.202   8.767   9.473 -0.1055  0.0372  0.3461
  126POPC   PO4 1935  -0.105   8.482   9.390  0.2037  0.0657  0.1529
  126POPC   GL1 1936  -0.263   8.451   8.870  0.5487 -0.0254  0.1771
  126POPC   GL2 1937  -0.346   8.138   8.716 -0.2156  0.2448 -0.2420
  126POPC   C1A 1938  -0.347   8.664   8.465 -0.1465  0.0697  0.0944
  126POPC   D2A 1939  -0.545   8.673   8.049  0.0512 -0.1010 -0.1556
  126POPC   C3A 1940  -0.313   8.409   7.874 -0.3246 -0.1432  0.0995
  126POPC   C4A 1941  -0.353   8.291   7.464  0.2452 -0.0396 -0.1156
  126POPC   C1B 1942  -0.790   8.412   8.530 -0.0933 -0.0979  0.1648
  126POPC   C2B 1943  -1.221   8.268   8.395  0.0559 -0.2204 -0.2730
  126POPC   C3B 1944  -1.541   7.979   8.368 -0.2197 -0.4189 -0.0759
  126POPC   C4B 1945  -1.928   7.605   8.313 -0.0231 -0.1679  0.1382
  127POPC   NC3 1946   4.966   3.238   8.530  0.1828  0.0566  0.0042
  127POPC   PO4 1947   4.719   3.514   8.319  0.0969 -0.0959  0.0647
  127POPC   GL1 1948   4.825   3.363   7.944 -0.1543 -0.1659 -0.1859
  127POPC   GL2 1949   5.087   3.612   7.815 -0.0852  0.1341 -0.1003
  127POPC   C1A 1950   4.854   3.448   7.441 -0.0098  0.1079 -0.0405
  127POPC   D2A 1951   4.759   3.390   7.000  0.2501 -0.0226 -0.2148
  127POPC   C3A 1952   4.878   3.658   6.705  0.1856  0.2547 -0.1293
  127POPC   C4A 1953   4.934   4.068   6.390  0.0653 -0.1270  0.0562
  127POPC   C1B 1954   5.400   3.804   7.592 -0.3771  0.2390  0.0039
  127POPC   C2B 1955   5.637   3.767   7.154 -0.1255  0.2573 -0.1769
  127POPC   C3B 1956   5.440   3.714   6.746 -0.0709  0.2077 -0.2845
  127POPC   C4B 1957   5.395   3.925   6.276 -0.4826  0.0857  0.0943
  128POPC   NC3 1958   9.397   4.825   7.713 -0.1328  0.3223  0.1774
  128POPC   PO4 1959   8.957   4.826   8.001 -0.0781  0.0339 -0.0034
  128POPC   GL1 1960   8.881   4.745   7.594  0.2717 -0.3117 -0.0800
  128POPC   GL2 1961   8.545   4.837   7.639  0.0227  0.0005 -0.2980
  128POPC   C1A 1962   9.000   4.651   7.224  0.1187  0.0706  0.2449
  128POPC   D2A 1963   9.210   4.701   6.762  0.0971  0.0694  0.0873
  128POPC   C3A 1964   9.377   5.096   6.514 -0.1630  0.2082 -0.3551
  128POPC   C4A 1965   9.794   5.167   6.526  0.0108  0.0286  0.1423
  128POPC   C1B 1966   8.563   5.090   7.324  0.3458  0.0587 -0.1541
  128POPC   C2B 1967   8.430   5.232   7.053 -0.0362  0.0674  0.0540
  128POPC   C3B 1968   8.287   5.329   6.603  0.0774  0.2467 -0.0243
  128POPC   C4B 1969   8.186   5.719   6.441  0.0508 -0.1420 -0.2069
  129POPC   NC3 1970   1.077   9.186   8.981  0.2876  0.0326 -0.1431
  129POPC   PO4 1971   1.277   9.305   8.653  0.0653 -0.3089  0.2654
  129POPC   GL1 1972   1.306   9.077   8.159  0.1415 -0.0847  0.0054
  129POPC   GL2 1973   1.354   8.818   8.112 -0.0697 -0.3792  0.0115
  129POPC   C1A 1974   1.127   9.212   7.833 -0.0387 -0.0750  0.1918
  129POPC   D2A 1975   1.241   9.294   7.357  0.0003  0.2033  0.2415
  129POPC   C3A 1976   0.937   9.627   7.314  0.1804  0.0273 -0.1418
  129POPC   C4A 1977   0.625   9.966   7.333  0.0213 -0.2688  0.1271
  129POPC   C1B 1978   1.145   8.740   7.614 -0.0102 -0.1603  0.2346
  129POPC   C2B 1979   0.997   8.790   7.259  0.0046 -0.1790 -0.2466
  129POPC   C3B 1980   1.021   9.141   6.962 -0.3827  0.2119 -0.2533
  129POPC   C4B 1981   1.021   9.622   6.837 -0.2797 -0.1757  0.2445
  130POPC   NC3 1982   5.269   1.835   8.531 -0.0582 -0.0192 -0.1352
  130POPC   PO4 1983   5.716   1.719   8.734  0.2777  0.0115  0.0493
  130POPC   GL1 1984   5.732   1.783   8.293 -0.0746 -0.0832 -0.0374
  130POPC   GL2 1985   5.979   1.985   8.328 -0.1191  0.0911  0.0264
  130POPC   C1A 1986   5.743   1.392   7.990  0.0090  0.1947 -0.0737
  130POPC   D2A 1987   6.100   1.252   7.755 -0.0842  0.0080 -0.1346
  130POPC   C3A 1988   6.136   1.310   7.340  0.0042 -0.0154  0.3829
  130POPC   C4A 1989   6.108   1.205   6.908  0.0807  0.3330 -0.2039
  130POPC   C1B 1990   5.957   2.162   7.961 -0.0007  0.2195 -0.1690
  130POPC   C2B 1991   6.016   2.008   7.581 -0.0814  0.1466  0.0667
  130POPC   C3B 1992   6.180   1.804   7.194  0.4447 -0.3653  0.1702
  130POPC   C4B 1993   6.044   1.672   6.773  0.2384 -0.2711  0.1108
  131POPC   NC3 1994   7.439   6.316   8.304 -0.1570 -0.0002 -0.0657
  131POPC   PO4 1995   7.051   6.314   8.092  0.1470 -0.0695 -0.0301
  131POPC   GL1 1996   7.026   6.185   7.685  0.1404  0.5009 -0.2938
  131POPC   GL2 1997   7.381   6.031   7.725 -0.1521  0.1338 -0.0742
  131POPC   C1A 1998   7.175   5.862   7.370  0.4100  0.1990  0.1123
  131POPC   D2A 1999   7.374   5.897   6.918 -0.0444 -0.1118 -0.1040
  131POPC   C3A 2000   7.530   6.133   6.526 -0.2084 -0.0460  0.2495
  131POPC   C4A 2001   7.374   6.381   6.251 -0.1904 -0.1940  0.2932
  131POPC   C1B 2002   7.457   6.271   7.412 -0.1125  0.0986  0.0540
  131POPC   C2B 2003   7.232   6.359   7.012  0.0220  0.0671  0.3560
  131POPC   C3B 2004   6.900   6.021   6.852  0.0618  0.1151  0.0420
  131POPC   C4B 2005   6.811   5.612   6.935  0.1717 -0.0010  0.1113
  132POPC   NC3 2006   6.863   0.314   9.706 -0.1450 -0.1212 -0.1044
  132POPC   PO4 2007   6.827   0.725   9.638  0.0336  0.0174  0.1583
  132POPC   GL1 2008   7.193   0.510   9.350  0.1785 -0.0034 -0.1157
  132POPC   GL2 2009   7.301   0.208   9.338 -0.1463  0.0307 -0.2678
  132POPC   C1A 2010   7.204   0.621   8.919  0.0531 -0.2486  0.0863
  132POPC   D2A 2011   7.075   0.717   8.571 -0.0933  0.1270 -0.0446
  132POPC   C3A 2012   6.864   0.616   8.284  0.1286  0.0182 -0.0061
  132POPC   C4A 2013   6.475   0.395   8.267  0.1530 -0.0434  0.1951
  132POPC   C1B 2014   7.311   0.065   9.036 -0.0592 -0.2963  0.0422
  132POPC   C2B 2015   7.024   0.151   8.839  0.2602 -0.1129 -0.3105
  132POPC   C3B 2016   6.649   0.484   8.716  0.1567  0.0107  0.2754
  132POPC   C4B 2017   6.474   0.828   8.471 -0.1749 -0.1573 -0.1187
  133POPC   NC3 2018   5.863   6.941   8.282  0.3064  0.0021 -0.0036
  133POPC   PO4 2019   6.316   6.857   8.145  0.3221  0.0676 -0.1860
  133POPC   GL1 2020   6.167   6.908   7.714 -0.1265  0.1118 -0.0427
  133POPC   GL2 2021   6.420   6.945   7.469  0.1563 -0.0187 -0.1569
  133POPC   C1A 2022   5.822   6.809   7.305  0.0014  0.2581  0.0088
  133POPC   D2A 2023   5.783   6.803   6.862 -0.1351 -0.2628 -0.2127
  133POPC   C3A 2024   5.877   7.115   6.616  0.0308 -0.2197 -0.2666
  133POPC   C4A 2025   6.049   7.421   6.415  0.2791 -0.1438 -0.4391
  133POPC   C1B 2026   6.289   6.792   7.065 -0.0102 -0.1704  0.2345
  133POPC   C2B 2027   6.600   6.668   6.748  0.0030 -0.1476  0.1752
  133POPC   C3B 2028   6.866   6.456   6.573  0.1777  0.0588  0.1628
  133POPC   C4B 2029   6.855   6.095   6.348 -0.2557  0.1156  0.0220
  134POPC   NC3 2030   2.174   2.116   8.352 -0.0987 -0.0514 -0.1222
  134POPC   PO4 2031   2.522   1.810   8.180 -0.1481 -0.0819 -0.1132
  134POPC   GL1 2032   2.507   1.831   7.703 -0.0552  0.3128 -0.2634
  134POPC   GL2 2033   2.125   1.845   7.822 -0.1004 -0.1886  0.1389
  134POPC   C1A 2034   2.465   1.807   7.273 -0.0959 -0.0493  0.0134
  134POPC   D2A 2035   2.619   1.918   6.851 -0.1977 -0.0622  0.1133
  134POPC   C3A 2036   2.318   2.070   6.607 -0.0622  0.1432  0.0637
  134POPC   C4A 2037   1.975   1.922   6.296  0.0073  0.1674 -0.2629
  134POPC   C1B 2038   1.897   1.869   7.456 -0.0015  0.0834 -0.2428
  134POPC   C2B 2039   1.482   1.843   7.173  0.3326  0.0566  0.0929
  134POPC   C3B 2040   1.100   1.885   6.970  0.2109  0.2453 -0.4014
  134POPC   C4B 2041   0.841   1.590   6.858 -0.1970 -0.0573 -0.1142
  135POPC   NC3 2042   3.658   3.249   8.747  0.0357  0.0520 -0.0259
  135POPC   PO4 2043   3.910   2.945   8.482  0.1431  0.0213 -0.1186
  135POPC   GL1 2044   3.963   2.864   8.043 -0.0563  0.1451  0.0360
  135POPC   GL2 2045   4.172   2.931   7.889 -0.0158  0.2069  0.2594
  135POPC   C1A 2046   3.819   2.896   7.526 -0.1670  0.3392 -0.0276
  135POPC   D2A 2047   3.932   2.960   7.235 -0.4329 -0.2179  0.2490
  135POPC   C3A 2048   3.812   3.312   6.882  0.3272 -0.1414  0.2320
  135POPC   C4A 2049   3.691   3.591   6.470 -0.0270 -0.0097 -0.2402
  135POPC   C1B 2050   4.310   2.683   7.548 -0.1044  0.0861  0.1054
  135POPC   C2B 2051   4.533   2.597   7.067  0.0312  0.3489  0.2498
  135POPC   C3B 2052   4.868   2.877   6.886  0.0977  0.0383 -0.1842
  135POPC   C4B 2053   4.786   3.011   6.510 -0.1863  0.1641 -0.0733
  136POPC   NC3 2054   3.488   1.810   8.680  0.0674  0.2272 -0.1394
  136POPC   PO4 2055   3.161   2.096   8.492  0.2606  0.2780  0.2074
  136POPC   GL1 2056   3.358   2.173   8.149 -0.2830 -0.1324  0.0992
  136POPC   GL2 2057   3.541   2.013   8.193 -0.1387 -0.0557  0.3155
  136POPC   C1A 2058   3.139   2.162   7.647 -0.2806 -0.0699  0.0390
  136POPC   D2A 2059   2.966   1.967   7.326 -0.0536  0.1041  0.0593
  136POPC   C3A 2060   3.208   1.857   6.949 -0.0122 -0.1578  0.2830
  136POPC   C4A 2061   3.255   1.985   6.553 -0.0939  0.1292 -0.0874
  136POPC   C1B 2062   3.614   1.986   7.723  0.2971  0.0406 -0.0274
  136POPC   C2B 2063   3.482   2.161   7.297  0.2233  0.1702  0.3082
  136POPC   C3B 2064   3.535   2.240   6.890  0.1318  0.1997 -0.3547
  136POPC   C4B 2065   3.236   2.491   6.706  0.2083  0.0466  0.2687
  137POPC   NC3 2066   4.428   5.038   8.426  0.1162  0.3212 -0.1060
  137POPC   PO4 2067   4.232   5.029   7.979 -0.0915  0.1772 -0.3267
  137POPC   GL1 2068   4.346   5.006   7.623 -0.0551  0.2501 -0.0314
  137POPC   GL2 2069   4.614   4.733   7.535  0.0772 -0.0977 -0.2155
  137POPC   C1A 2070   4.618   5.260   7.346 -0.1892 -0.1250 -0.0938
  137POPC   D2A 2071   4.624   5.537   7.043  0.2294 -0.4862 -0.2806
  137POPC   C3A 2072   4.915   5.410   6.676  0.0413  0.3205  0.0935
  137POPC   C4A 2073   5.318   5.328   6.482  0.2273  0.0840 -0.0900
  137POPC   C1B 2074   4.451   4.793   7.122  0.0916  0.0540 -0.1186
  137POPC   C2B 2075   4.510   5.114   6.840 -0.1786  0.1056 -0.0717
  137POPC   C3B 2076   4.352   5.356   6.464  0.1476 -0.0468 -0.3759
  137POPC   C4B 2077   4.425   5.778   6.448 -0.1484  0.1529  0.0863
  138POPC   NC3 2078   2.169   5.781   8.005 -0.0795 -0.1858 -0.2055
  138POPC   PO4 2079   1.945   5.347   8.080 -0.1111  0.3725  0.1210
  138POPC   GL1 2080   1.949   5.321   7.605 -0.0246 -0.1710  0.1327
  138POPC   GL2 2081   2.159   5.446   7.546  0.0375  0.0263  0.1077
  138POPC   C1A 2082   1.751   5.065   7.325  0.1389  0.1923 -0.3239
  138POPC   D2A 2083   1.574   5.201   6.921 -0.0552  0.2437 -0.0089
  138POPC   C3A 2084   1.402   5.040   6.598 -0.0339  0.3446 -0.2243
  138POPC   C4A 2085   1.447   4.734   6.386 -0.0078  0.0273 -0.0092
  138POPC   C1B 2086   2.050   5.412   7.055 -0.2242  0.2194  0.0837
  138POPC   C2B 2087   1.914   5.486   6.736 -0.0751 -0.2844  0.0915
  138POPC   C3B 2088   1.898   5.068   6.511  0.1407  0.0555 -0.0843
  138POPC   C4B 2089   2.204   4.725   6.441 -0.2055  0.0482 -0.2805
  139POPC   NC3 2090   3.078   3.871   8.322  0.1757 -0.3889 -0.1790
  139POPC   PO4 2091   3.418   4.047   8.432  0.2551  0.1971 -0.0479
  139POPC   GL1 2092   3.304   4.134   7.878 -0.0399  0.0483  0.0254
  139POPC   GL2 2093   3.425   4.345   7.627  0.0874  0.1513  0.0323
  139POPC   C1A 2094   3.154   3.845   7.553 -0.0440  0.0786 -0.2547
  139POPC   D2A 2095   3.165   3.670   7.191  0.0371 -0.0112  0.0959
  139POPC   C3A 2096   3.314   3.500   6.839  0.0521 -0.0134 -0.1113
  139POPC   C4A 2097   3.258   3.081   6.676  0.1497  0.1101 -0.1212
  139POPC   C1B 2098   3.683   3.978   7.575 -0.0988  0.2310 -0.0839
  139POPC   C2B 2099   3.648   3.577   7.240 -0.0798 -0.0906  0.1224
  139POPC   C3B 2100   3.448   3.062   7.147 -0.1113  0.0122 -0.1256
  139POPC   C4B 2101   3.218   2.688   7.260 -0.0068  0.0609  0.0085
  140POPC   NC3 2102   5.223   4.126   8.484  0.2590  0.0112  0.3398
  140POPC   PO4 2103   5.469   4.335   8.123  0.2830  0.1429 -0.0973
  140POPC   GL1 2104   5.276   4.614   7.809 -0.1029  0.2010 -0.3892
  140POPC   GL2 2105   5.018   4.829   7.872  0.3471 -0.1015  0.4480
  140POPC   C1A 2106   5.093   4.488   7.392 -0.1060  0.0212  0.1527
  140POPC   D2A 2107   4.753   4.395   7.193 -0.1019  0.1508  0.0145
  140POPC   C3A 2108   4.869   4.410   6.836  0.0332  0.2064 -0.4226
  140POPC   C4A 2109   4.558   4.490   6.538 -0.1708  0.1946  0.0446
  140POPC   C1B 2110   5.065   5.054   7.422  0.0714 -0.0332 -0.2856
  140POPC   C2B 2111   4.929   4.931   7.032 -0.1075  0.0731 -0.0605
  140POPC   C3B 2112   4.855   4.844   6.617 -0.0985 -0.0637 -0.1176
  140POPC   C4B 2113   5.066   4.944   6.180 -0.2315 -0.0067  0.0218
  141POPC   NC3 2114   7.620   5.781   9.046 -0.0477 -0.1027  0.2687
  141POPC   PO4 2115   7.631   5.684   8.599  0.2080  0.1981  0.1268
  141POPC   GL1 2116   7.677   5.938   8.129  0.0932 -0.1568 -0.0803
  141POPC   GL2 2117   7.761   5.768   7.774 -0.1283 -0.1955  0.0153
  141POPC   C1A 2118   7.859   6.268   7.714  0.0213  0.0173  0.0528
  141POPC   D2A 2119   7.996   6.274   7.312 -0.0294 -0.1248  0.1945
  141POPC   C3A 2120   8.186   6.601   7.104 -0.2057 -0.0205 -0.1971
  141POPC   C4A 2121   8.154   7.030   6.893  0.0876 -0.0048  0.1517
  141POPC   C1B 2122   7.679   5.825   7.409  0.0207 -0.0214 -0.2941
  141POPC   C2B 2123   7.695   5.499   7.052  0.0536 -0.0034 -0.1842
  141POPC   C3B 2124   7.740   5.648   6.602 -0.0332  0.2156 -0.0060
  141POPC   C4B 2125   7.660   5.699   6.217 -0.1693 -0.2256  0.1225
  142POPC   NC3 2126   3.169   8.702   8.465 -0.0241 -0.1409 -0.3612
  142POPC   PO4 2127   3.517   8.882   8.232  0.1414 -0.0081  0.1336
  142POPC   GL1 2128   3.703   8.738   7.895 -0.2073  0.0739 -0.2817
  142POPC   GL2 2129   3.533   8.550   7.688 -0.2192 -0.0211 -0.0443
  142POPC   C1A 2130   3.928   8.666   7.409 -0.0632 -0.0033  0.2372
  142POPC   D2A 2131   4.185   8.525   7.082  0.0669 -0.2224  0.0670
  142POPC   C3A 2132   4.152   8.529   6.567  0.2750 -0.1485  0.1312
  142POPC   C4A 2133   4.186   8.663   6.168  0.0913  0.2476 -0.0094
  142POPC   C1B 2134   3.138   8.597   7.396 -0.3222  0.0596  0.0249
  142POPC   C2B 2135   2.903   8.727   7.039 -0.3884  0.0915  0.5168
  142POPC   C3B 2136   2.821   8.739   6.627  0.1623 -0.1075 -0.1381
  142POPC   C4B 2137   2.550   8.696   6.282 -0.1929 -0.1264  0.1890
  143POPC   NC3 2138   2.719   9.289   8.310 -0.0324  0.0359 -0.0682
  143POPC   PO4 2139   2.673   8.844   8.423  0.1878  0.1677 -0.1757
  143POPC   GL1 2140   2.967   8.902   8.040  0.2988 -0.0937 -0.2980
  143POPC   GL2 2141   3.089   8.613   7.892 -0.1131 -0.2210 -0.0903
  143POPC   C1A 2142   3.178   9.032   7.655 -0.1399  0.0586  0.1494
  143POPC   D2A 2143   3.236   9.133   7.166  0.0420  0.2072 -0.1000
  143POPC   C3A 2144   2.894   9.341   6.971 -0.2145 -0.1155  0.0821
  143POPC   C4A 2145   2.553   9.632   7.069 -0.1066  0.0245  0.0198
  143POPC   C1B 2146   2.734   8.799   7.646  0.1908 -0.2869  0.0098
  143POPC   C2B 2147   2.519   8.592   7.329 -0.3232 -0.1196 -0.0088
  143POPC   C3B 2148   2.646   8.258   7.072  0.0654  0.1322 -0.3142
  143POPC   C4B 2149   2.764   7.960   6.744 -0.0800 -0.2685  0.3788
  144POPC   NC3 2150   6.976   3.487   8.222 -0.0988  0.0006 -0.0543
  144POPC   PO4 2151   7.393   3.657   8.335  0.4196 -0.4556 -0.2132
  144POPC   GL1 2152   7.485   3.486   7.831  0.4076 -0.3430 -0.1434
  144POPC   GL2 2153   7.710   3.605   7.599  0.1922  0.2916  0.0519
  144POPC   C1A 2154   7.268   3.163   7.604  0.0551  0.1551  0.0498
  144POPC   D2A 2155   7.395   3.012   7.199  0.2353  0.1448 -0.2692
  144POPC   C3A 2156   7.189   3.009   6.748 -0.1753 -0.4752 -0.1156
  144POPC   C4A 2157   6.894   3.063   6.666 -0.0502 -0.2391  0.0818
  144POPC   C1B 2158   7.736   3.334   7.350  0.0044 -0.0836  0.0789
  144POPC   C2B 2159   7.741   3.211   6.868 -0.0911 -0.2088  0.2188
  144POPC   C3B 2160   7.889   3.033   6.559 -0.4245 -0.1033  0.1245
  144POPC   C4B 2161   8.271   2.999   6.289 -0.0353 -0.1233  0.2052
  145POPC   NC3 2162   5.138   6.829   8.476  0.1393  0.2803 -0.2391
  145POPC   PO4 2163   5.584   6.519   8.395  0.1712  0.5506  0.1173
  145POPC   GL1 2164   5.415   6.751   8.037  0.0661 -0.0473  0.5283
  145POPC   GL2 2165   5.355   6.942   8.080 -0.4191 -0.4336  0.0992
  145POPC   C1A 2166   5.414   6.653   7.677 -0.0245  0.0632 -0.3271
  145POPC   D2A 2167   5.616   6.356   7.299 -0.0424 -0.0473 -0.0393
  145POPC   C3A 2168   5.464   6.351   6.872  0.3462 -0.1445  0.2339
  145POPC   C4A 2169   5.697   6.262   6.599  0.0655 -0.0510  0.1501
  145POPC   C1B 2170   5.559   7.212   7.807  0.1213  0.1146 -0.0525
  145POPC   C2B 2171   5.507   7.197   7.466  0.0437 -0.2334  0.4410
  145POPC   C3B 2172   5.380   7.218   7.075  0.1336 -0.1151  0.2401
  145POPC   C4B 2173   5.133   7.277   6.644  0.0322 -0.0136  0.0655
  146POPC   NC3 2174   3.885   8.594   8.439 -0.1470 -0.1412  0.2157
  146POPC   PO4 2175   4.135   8.925   8.354  0.3171  0.1500 -0.4121
  146POPC   GL1 2176   4.008   9.156   8.077 -0.1616  0.0126 -0.1193
  146POPC   GL2 2177   4.186   9.395   7.904 -0.0804 -0.0686  0.0764
  146POPC   C1A 2178   4.175   8.967   7.676 -0.0700 -0.0741 -0.4162
  146POPC   D2A 2179   4.296   8.986   7.264  0.3432 -0.1112 -0.0116
  146POPC   C3A 2180   4.174   9.009   6.761  0.2505 -0.0631  0.3038
  146POPC   C4A 2181   4.233   9.136   6.362 -0.2042  0.0281  0.1332
  146POPC   C1B 2182   4.083   9.391   7.521  0.2610 -0.1864  0.0995
  146POPC   C2B 2183   4.043   9.403   7.013 -0.0051  0.0077  0.3210
  146POPC   C3B 2184   4.248   9.632   6.744  0.0995  0.1757  0.1134
  146POPC   C4B 2185   4.625   9.806   6.586 -0.0806 -0.2170 -0.0038
  147POPC   NC3 2186   4.236   5.507   7.823  0.3081 -0.0281 -0.2858
  147POPC   PO4 2187   4.469   5.605   8.172 -0.0874 -0.0379  0.2074
  147POPC   GL1 2188   4.635   5.731   7.690  0.0568 -0.0896 -0.1504
  147POPC   GL2 2189   4.958   5.611   7.523  0.2461 -0.1359  0.2642
  147POPC   C1A 2190   4.503   5.953   7.357 -0.2725  0.1590  0.1062
  147POPC   D2A 2191   4.320   5.991   6.993 -0.0628 -0.0340  0.2094
  147POPC   C3A 2192   4.200   6.412   6.912  0.3247 -0.0665  0.0202
  147POPC   C4A 2193   3.980   6.783   6.910  0.1780  0.1494 -0.2470
  147POPC   C1B 2194   5.121   5.492   7.139 -0.4654 -0.0976  0.2109
  147POPC   C2B 2195   5.324   5.178   6.966 -0.1783 -0.0796  0.1930
  147POPC   C3B 2196   5.348   4.807   6.768  0.1534 -0.1102 -0.0462
  147POPC   C4B 2197   5.604   4.753   6.375  0.3368 -0.0643  0.0866
  148POPC   NC3 2198   9.716   3.503   7.832 -0.2351 -0.0599 -0.1311
  148POPC   PO4 2199   9.268   3.492   7.987  0.1498  0.1622 -0.0551
  148POPC   GL1 2200   9.124   3.612   7.572 -0.2335 -0.0930 -0.1063
  148POPC   GL2 2201   9.377   3.846   7.385 -0.2265 -0.2383 -0.0993
  148POPC   C1A 2202   8.847   3.685   7.314  0.0254 -0.0558  0.2339
  148POPC   D2A 2203   8.491   3.551   7.246 -0.0670  0.1571 -0.2999
  148POPC   C3A 2204   8.177   3.517   6.939 -0.1504  0.2434 -0.2855
  148POPC   C4A 2205   7.984   3.518   6.519 -0.4615 -0.3971  0.0544
  148POPC   C1B 2206   9.263   3.900   6.913  0.2523  0.3424 -0.0357
  148POPC   C2B 2207   9.298   4.230   6.678 -0.3264 -0.0285 -0.1297
  148POPC   C3B 2208   9.100   4.463   6.379 -0.4407 -0.0649  0.1100
  148POPC   C4B 2209   8.889   4.589   6.005 -0.3493 -0.1709 -0.3583
  149POPC   NC3 2210   0.931   0.687   8.920  0.0884 -0.1753  0.1886
  149POPC   PO4 2211   0.897   1.013   8.635 -0.1611 -0.0477 -0.4067
  149POPC   GL1 2212   0.730   0.636   8.476 -0.0056  0.0851 -0.0013
  149POPC   GL2 2213   0.397   0.387   8.399  0.1758 -0.1491  0.2940
  149POPC   C1A 2214   0.737   0.420   8.056  0.3823  0.3012  0.0615
  149POPC   D2A 2215   0.801   0.604   7.681  0.1150 -0.0722  0.0817
  149POPC   C3A 2216   0.749   0.480   7.323  0.1829 -0.0311  0.0771
  149POPC   C4A 2217   0.956   0.284   7.036 -0.0227  0.0723 -0.0932
  149POPC   C1B 2218   0.309   0.015   8.177 -0.3432  0.1201 -0.0333
  149POPC   C2B 2219   0.138  -0.422   8.022  0.2023 -0.0594 -0.2375
  149POPC   C3B 2220   0.304  -0.819   7.993 -0.1571  0.2787 -0.1573
  149POPC   C4B 2221   0.346  -1.309   8.111 -0.0428 -0.0812  0.0151
  150POPC   NC3 2222   1.496   2.786   4.582 -0.0050  0.1911  0.2298
  150POPC   PO4 2223   1.497   3.270   4.370  0.1410  0.0379 -0.0806
  150POPC   GL1 2224   1.626   3.391   4.770  0.1654  0.2753  0.1612
  150POPC   GL2 2225   1.634   3.150   4.991  0.2480 -0.0349  0.2900
  150POPC   C1A 2226   1.851   3.597   5.110  0.0951  0.1870 -0.3474
  150POPC   D2A 2227   1.967   3.527   5.509  0.1234  0.1381  0.1247
  150POPC   C3A 2228   1.723   3.487   5.831  0.2044  0.0691  0.0441
  150POPC   C4A 2229   1.335   3.258   6.053  0.1568 -0.3945 -0.1380
  150POPC   C1B 2230   1.685   3.192   5.315  0.0902  0.1194  0.2080
  150POPC   C2B 2231   1.742   2.950   5.650 -0.1388 -0.0870  0.0755
  150POPC   C3B 2232   1.827   3.082   6.098 -0.1791 -0.0488 -0.0560
  150POPC   C4B 2233   1.727   3.359   6.373 -0.0215  0.2527  0.0867
  151POPC   NC3 2234   8.735   9.628   3.139  0.1773 -0.0327 -0.2122
  151POPC   PO4 2235   8.945   9.209   3.265  0.0135 -0.1187 -0.0268
  151POPC   GL1 2236   8.929   9.463   3.612  0.0394  0.1216 -0.0184
  151POPC   GL2 2237   8.890   9.817   3.548  0.1931 -0.2243  0.1070
  151POPC   C1A 2238   8.985   9.581   4.049  0.1415  0.2962  0.1476
  151POPC   D2A 2239   9.191   9.891   4.276 -0.1299  0.3453  0.2022
  151POPC   C3A 2240   9.019  10.077   4.645 -0.0679  0.1753 -0.0379
  151POPC   C4A 2241   8.695   9.908   5.019  0.2423 -0.0662 -0.2373
  151POPC   C1B 2242   9.047  10.138   3.785  0.1044  0.0432 -0.1406
  151POPC   C2B 2243   9.145  10.360   4.140  0.0198 -0.1719  0.3030
  151POPC   C3B 2244   8.926  10.636   4.583 -0.1539 -0.0091 -0.5856
  151POPC   C4B 2245   8.591  10.945   4.719  0.1824 -0.1440  0.0866
  152POPC   NC3 2246   3.670   8.928   4.862  0.1649  0.3901 -0.1106
  152POPC   PO4 2247   3.829   9.335   4.958  0.0520 -0.0132  0.0618
  152POPC   GL1 2248   3.905   9.447   5.299 -0.1165 -0.2002  0.1161
  152POPC   GL2 2249   3.659   9.577   5.424 -0.0189  0.0541  0.1654
  152POPC   C1A 2250   4.102   9.193   5.685  0.0069 -0.1038 -0.4894
  152POPC   D2A 2251   4.480   9.030   5.966  0.2168  0.1946 -0.0573
  152POPC   C3A 2252   4.584   8.856   6.499  0.0557 -0.0536  0.0713
  152POPC   C4A 2253   4.588   8.428   6.715  0.2574 -0.2762 -0.1375
  152POPC   C1B 2254   3.529   9.236   5.641  0.0065  0.1655 -0.0024
  152POPC   C2B 2255   3.357   8.898   5.863 -0.1543 -0.1617  0.1941
  152POPC   C3B 2256   3.211   8.606   6.282 -0.0917 -0.3335  0.1032
  152POPC   C4B 2257   2.941   8.298   6.440  0.3470  0.0475  0.2546
  153POPC   NC3 2258   3.516   5.396   4.082  0.0433 -0.0630 -0.0878
  153POPC   PO4 2259   3.177   5.176   4.264 -0.0936 -0.0444 -0.0214
  153POPC   GL1 2260   3.017   5.170   4.688 -0.0754 -0.3064  0.2082
  153POPC   GL2 2261   2.919   5.531   4.834 -0.0542  0.1682 -0.0010
  153POPC   C1A 2262   3.097   5.132   5.090 -0.0336  0.0894  0.2711
  153POPC   D2A 2263   3.173   5.308   5.552 -0.0849 -0.0535  0.0571
  153POPC   C3A 2264   3.177   4.933   5.964 -0.0233  0.0171  0.4737
  153POPC   C4A 2265   3.129   4.497   6.139 -0.2899 -0.0069  0.3147
  153POPC   C1B 2266   2.775   5.699   5.287  0.2032 -0.3450 -0.1600
  153POPC   C2B 2267   2.644   5.615   5.729 -0.0942  0.0988 -0.3369
  153POPC   C3B 2268   2.472   5.798   6.000 -0.1098  0.2587 -0.0602
  153POPC   C4B 2269   2.225   6.060   6.296 -0.1336  0.0793  0.1962
  154POPC   NC3 2270   3.803   7.119   4.684 -0.0843  0.0817 -0.2510
  154POPC   PO4 2271   3.803   7.525   4.745 -0.0390  0.3624  0.0483
  154POPC   GL1 2272   3.627   7.431   5.047  0.0642  0.2300  0.0620
  154POPC   GL2 2273   3.349   7.558   5.061 -0.3592  0.0024 -0.1659
  154POPC   C1A 2274   3.629   7.364   5.524  0.2546  0.1237 -0.0865
  154POPC   D2A 2275   3.500   7.090   5.868 -0.3523 -0.2317 -0.2391
  154POPC   C3A 2276   3.245   6.720   6.051 -0.1324 -0.3048  0.1544
  154POPC   C4A 2277   3.024   6.578   6.427 -0.1246  0.1917 -0.0090
  154POPC   C1B 2278   3.151   7.480   5.367  0.0701  0.1245 -0.3221
  154POPC   C2B 2279   2.765   7.763   5.496  0.2449 -0.0684 -0.1303
  154POPC   C3B 2280   2.358   7.922   5.723 -0.1971  0.0056  0.0051
  154POPC   C4B 2281   2.164   8.013   6.175 -0.0335  0.2657  0.0470
  155POPC   NC3 2282   4.127   6.114   4.258  0.1063 -0.1291 -0.2510
  155POPC   PO4 2283   3.626   6.164   4.376  0.1807  0.1154  0.1927
  155POPC   GL1 2284   3.470   6.145   4.811  0.0247 -0.0890 -0.1057
  155POPC   GL2 2285   3.593   5.830   4.997  0.1419  0.0778  0.1421
  155POPC   C1A 2286   3.483   6.211   5.294  0.0275  0.0756  0.1726
  155POPC   D2A 2287   3.400   6.263   5.736 -0.1522 -0.0218  0.1079
  155POPC   C3A 2288   3.576   5.842   5.956  0.0159  0.4402  0.0506
  155POPC   C4A 2289   3.402   5.566   6.337 -0.0448  0.1167 -0.2063
  155POPC   C1B 2290   3.294   5.660   5.133  0.0945 -0.0232 -0.2738
  155POPC   C2B 2291   3.195   5.864   5.490 -0.0043 -0.3182  0.0797
  155POPC   C3B 2292   3.051   5.882   5.909  0.0500  0.3118 -0.3022
  155POPC   C4B 2293   3.210   6.133   6.217  0.3345 -0.1925 -0.2223
  156POPC   NC3 2294   7.363   7.212   3.887  0.1188  0.2203  0.2500
  156POPC   PO4 2295   7.709   6.957   3.988  0.0148 -0.3853 -0.0898
  156POPC   GL1 2296   7.735   7.008   4.498  0.2525 -0.0388 -0.0001
  156POPC   GL2 2297   7.426   7.073   4.602 -0.0624 -0.0337  0.0002
  156POPC   C1A 2298   8.022   6.957   4.912 -0.0299  0.0277  0.0733
  156POPC   D2A 2299   8.376   7.054   5.058  0.2168 -0.1081 -0.0692
  156POPC   C3A 2300   8.451   7.072   5.536  0.2184 -0.1482 -0.0295
  156POPC   C4A 2301   8.365   6.859   5.936  0.0964 -0.3158  0.0817
  156POPC   C1B 2302   7.222   6.963   5.004 -0.3316 -0.2345 -0.0906
  156POPC   C2B 2303   7.162   6.910   5.515 -0.1423  0.0561  0.1709
  156POPC   C3B 2304   6.939   6.978   5.765 -0.0443 -0.0908  0.0856
  156POPC   C4B 2305   6.837   7.288   6.121  0.1387 -0.0625 -0.0291
  157POPC   NC3 2306   0.396   4.335   4.177 -0.0103 -0.1842  0.3312
  157POPC   PO4 2307   0.082   4.334   4.306  0.0615 -0.1768  0.2239
  157POPC   GL1 2308   0.113   4.296   4.723 -0.2134  0.3177  0.0393
  157POPC   GL2 2309   0.069   4.493   4.920  0.0140 -0.1288  0.0555
  157POPC   C1A 2310   0.573   4.226   4.977 -0.1346  0.0782 -0.1067
  157POPC   D2A 2311   0.900   4.559   4.844  0.0388 -0.1108 -0.0210
  157POPC   C3A 2312   0.796   5.030   4.986  0.1628 -0.2200  0.0389
  157POPC   C4A 2313   0.541   5.371   4.783  0.1481  0.0080 -0.1955
  157POPC   C1B 2314  -0.070   4.664   5.301 -0.1259  0.1578 -0.2135
  157POPC   C2B 2315  -0.158   5.062   5.551  0.1868  0.2788  0.0326
  157POPC   C3B 2316  -0.220   5.446   5.750  0.3853 -0.2234  0.0177
  157POPC   C4B 2317  -0.311   5.961   5.901 -0.2773 -0.1741 -0.2688
  158POPC   NC3 2318   9.749   5.279   4.510  0.0998 -0.0750  0.0987
  158POPC   PO4 2319   9.707   5.748   4.378 -0.1863 -0.2562  0.0191
  158POPC   GL1 2320   9.525   5.635   4.831 -0.0576 -0.1877 -0.0556
  158POPC   GL2 2321   9.338   5.812   4.995  0.2218 -0.1822  0.0620
  158POPC   C1A 2322   9.726   5.722   5.321  0.0981  0.2511  0.2245
  158POPC   D2A 2323  10.154   5.784   5.522 -0.2118 -0.1112 -0.1357
  158POPC   C3A 2324  10.551   5.850   5.324 -0.0227 -0.0474  0.2416
  158POPC   C4A 2325  10.610   5.834   4.878  0.0256  0.0071  0.0709
  158POPC   C1B 2326   9.418   6.154   5.314  0.3461  0.1275  0.0706
  158POPC   C2B 2327   9.713   6.302   5.530  0.0153  0.2782  0.0021
  158POPC   C3B 2328   9.700   6.453   5.914 -0.0494  0.2149 -0.1423
  158POPC   C4B 2329   9.569   6.576   6.405 -0.0806  0.1412  0.4168
  159POPC   NC3 2330   7.695   7.921   3.944  0.2301  0.0217  0.2020
  159POPC   PO4 2331   7.699   7.556   4.209  0.1226 -0.2084 -0.0621
  159POPC   GL1 2332   7.507   7.821   4.542 -0.0921  0.0804  0.2610
  159POPC   GL2 2333   7.708   7.496   4.729 -0.2053 -0.0857 -0.0530
  159POPC   C1A 2334   7.497   7.867   4.965  0.0039  0.2823 -0.1923
  159POPC   D2A 2335   7.409   7.805   5.450 -0.1331  0.1631  0.0386
  159POPC   C3A 2336   7.142   7.640   5.713  0.2701  0.2645 -0.0708
  159POPC   C4A 2337   6.700   7.429   5.698  0.0595  0.1987  0.1519
  159POPC   C1B 2338   7.634   7.247   5.008 -0.2662  0.0864  0.2662
  159POPC   C2B 2339   7.500   7.311   5.458  0.2572 -0.1783 -0.0624
  159POPC   C3B 2340   7.306   7.252   5.913 -0.0151 -0.0545 -0.0329
  159POPC   C4B 2341   7.377   7.507   6.248 -0.1807 -0.3619 -0.2489
  160POPC   NC3 2342   6.452   8.359   3.553 -0.2834 -0.1763  0.0167
  160POPC   PO4 2343   6.480   8.045   3.884 -0.0430  0.0707 -0.1786
  160POPC   GL1 2344   6.619   7.924   4.205  0.2237 -0.6360 -0.0822
  160POPC   GL2 2345   6.853   7.846   4.364 -0.0981  0.0681  0.0622
  160POPC   C1A 2346   6.518   8.064   4.668 -0.1252 -0.3184 -0.3115
  160POPC   D2A 2347   6.506   8.178   5.118  0.2116 -0.2076 -0.1458
  160POPC   C3A 2348   6.662   8.463   5.372  0.1144  0.1298 -0.1933
  160POPC   C4A 2349   6.771   8.826   5.593 -0.2492  0.0950 -0.2426
  160POPC   C1B 2350   7.069   7.990   4.685  0.0664 -0.0419  0.0555
  160POPC   C2B 2351   7.079   8.123   5.154  0.0137 -0.2551  0.5433
  160POPC   C3B 2352   6.792   8.024   5.571 -0.0926  0.3270  0.3040
  160POPC   C4B 2353   6.939   7.979   6.031 -0.0962 -0.0326 -0.1904
  161POPC   NC3 2354   3.887   1.257   4.936  0.2689 -0.1544  0.0911
  161POPC   PO4 2355   4.229   1.212   4.659 -0.1266 -0.2437  0.0953
  161POPC   GL1 2356   4.404   1.379   5.030  0.4540 -0.0996  0.2233
  161POPC   GL2 2357   4.257   1.284   5.315 -0.2579 -0.0804 -0.0935
  161POPC   C1A 2358   4.648   1.504   5.470  0.1319  0.1119  0.1095
  161POPC   D2A 2359   4.735   1.308   5.940 -0.1284 -0.2086  0.0743
  161POPC   C3A 2360   4.794   1.073   6.334  0.1238 -0.0416 -0.0421
  161POPC   C4A 2361   4.638   0.901   6.752 -0.4843  0.0104  0.2159
  161POPC   C1B 2362   4.207   1.479   5.709  0.0081  0.0891  0.3693
  161POPC   C2B 2363   4.004   1.759   5.927  0.0696 -0.1724  0.0629
  161POPC   C3B 2364   3.696   2.113   5.970 -0.0844 -0.1138  0.1638
  161POPC   C4B 2365   3.597   2.574   5.947 -0.1167 -0.2221  0.0469
  162POPC   NC3 2366   4.832   8.725   3.920 -0.2970  0.0709  0.0544
  162POPC   PO4 2367   5.086   8.970   4.261  0.2157 -0.4275  0.1717
  162POPC   GL1 2368   5.047   8.997   4.708 -0.3170  0.2420  0.0108
  162POPC   GL2 2369   5.284   9.061   4.971 -0.2465  0.3301 -0.0288
  162POPC   C1A 2370   4.875   8.852   5.116 -0.0902  0.0155 -0.0418
  162POPC   D2A 2371   4.858   8.841   5.558  0.0329  0.2282 -0.0158
  162POPC   C3A 2372   4.969   8.699   5.869  0.1442  0.2071 -0.2781
  162POPC   C4A 2373   5.377   8.529   5.994  0.2627 -0.2870  0.0194
  162POPC   C1B 2374   5.468   9.347   5.285 -0.2733  0.2882 -0.1481
  162POPC   C2B 2375   5.568   9.709   5.598 -0.0717  0.0238 -0.2038
  162POPC   C3B 2376   5.884  10.082   5.605  0.1703  0.0180 -0.1013
  162POPC   C4B 2377   6.043  10.404   5.914 -0.0625 -0.1451  0.0236
  163POPC   NC3 2378   6.356   2.570   4.562 -0.0891  0.1011  0.0436
  163POPC   PO4 2379   6.255   2.064   4.436 -0.0776 -0.1693  0.2298
  163POPC   GL1 2380   6.406   2.094   4.878 -0.0346  0.0110 -0.0102
  163POPC   GL2 2381   6.250   2.318   5.056 -0.0964 -0.1830  0.1044
  163POPC   C1A 2382   6.746   2.123   4.950 -0.1385  0.0467  0.1237
  163POPC   D2A 2383   7.021   2.044   5.328 -0.1022 -0.2337  0.0825
  163POPC   C3A 2384   6.909   1.867   5.741  0.0069 -0.0229 -0.0105
  163POPC   C4A 2385   7.000   1.736   6.165 -0.1233 -0.1008 -0.0354
  163POPC   C1B 2386   6.490   2.319   5.324  0.0092  0.0293  0.0876
  163POPC   C2B 2387   6.693   2.264   5.687  0.1870  0.1262 -0.1517
  163POPC   C3B 2388   7.018   2.255   6.046 -0.4567 -0.0576 -0.0733
  163POPC   C4B 2389   7.449   2.197   6.218  0.4560 -0.2410 -0.2290
  164POPC   NC3 2390   6.547   5.347   4.236  0.1872  0.1725 -0.1902
  164POPC   PO4 2391   6.202   5.631   4.296  0.0320 -0.0852  0.1523
  164POPC   GL1 2392   6.258   5.754   4.848 -0.0728  0.0219 -0.0384
  164POPC   GL2 2393   6.304   6.054   4.980  0.1036 -0.1153  0.2944
  164POPC   C1A 2394   6.538   5.595   5.204  0.0560 -0.2699  0.1768
  164POPC   D2A 2395   6.938   5.692   5.469  0.2620 -0.1228 -0.2264
  164POPC   C3A 2396   6.910   5.565   5.946  0.0055  0.1538  0.0944
  164POPC   C4A 2397   6.775   5.194   6.117 -0.1264 -0.1066  0.2055
  164POPC   C1B 2398   6.323   6.500   5.205 -0.0493  0.2221 -0.0695
  164POPC   C2B 2399   6.434   6.757   5.426 -0.3116  0.3196  0.1085
  164POPC   C3B 2400   6.364   6.961   5.684  0.1243 -0.1337  0.2650
  164POPC   C4B 2401   6.299   7.261   6.035  0.0121  0.0543  0.2273
  165POPC   NC3 2402   9.910   2.890   4.227 -0.1292  0.1074 -0.1454
  165POPC   PO4 2403   9.982   3.187   4.529 -0.2573 -0.3332 -0.1935
  165POPC   GL1 2404  10.053   3.346   4.966 -0.1960  0.2594 -0.1977
  165POPC   GL2 2405  10.346   3.269   5.019 -0.1599 -0.0210  0.3585
  165POPC   C1A 2406  10.064   3.575   5.384  0.2598 -0.0880  0.3169
  165POPC   D2A 2407  10.008   3.707   5.778  0.0052 -0.0652  0.0558
  165POPC   C3A 2408  10.062   4.094   6.072  0.2255 -0.3643  0.2629
  165POPC   C4A 2409   9.978   4.430   6.180  0.2222  0.2170 -0.1537
  165POPC   C1B 2410  10.407   3.266   5.506 -0.1164 -0.1452 -0.0686
  165POPC   C2B 2411  10.131   3.232   5.849 -0.0384  0.0828  0.1160
  165POPC   C3B 2412  10.155   3.086   6.260  0.5035 -0.0342  0.2981
  165POPC   C4B 2413  10.067   2.993   6.642 -0.1931  0.2369 -0.2625
  166POPC   NC3 2414   4.811   0.221   4.117 -0.4901 -0.0602 -0.1007
  166POPC   PO4 2415   4.581   0.421   4.432  0.0273  0.0007  0.2115
  166POPC   GL1 2416   4.747   0.398   4.886 -0.3797  0.0215 -0.4743
  166POPC   GL2 2417   4.829   0.082   5.082 -0.2076  0.0116 -0.0721
  166POPC   C1A 2418   4.690   0.462   5.403 -0.1689  0.3314  0.0134
  166POPC   D2A 2419   4.572   0.082   5.620  0.2849 -0.1422 -0.2325
  166POPC   C3A 2420   4.518  -0.112   6.008 -0.0171  0.1750  0.1606
  166POPC   C4A 2421   4.267  -0.413   6.194  0.3075  0.1402 -0.0078
  166POPC   C1B 2422   4.958  -0.158   5.489  0.0447 -0.2561 -0.2002
  166POPC   C2B 2423   5.121  -0.176   5.926  0.3928 -0.0156  0.3854
  166POPC   C3B 2424   5.302  -0.614   6.091  0.0932  0.0944  0.0044
  166POPC   C4B 2425   5.354  -0.959   6.194  0.3808  0.2351  0.2859
  167POPC   NC3 2426   3.279   1.210   4.671 -0.0673 -0.0648  0.0626
  167POPC   PO4 2427   3.000   1.549   4.838  0.0161 -0.1960 -0.1995
  167POPC   GL1 2428   2.871   1.256   5.249 -0.0502  0.2025  0.3556
  167POPC   GL2 2429   2.723   1.415   5.396 -0.0596  0.3768  0.0239
  167POPC   C1A 2430   3.175   1.045   5.586 -0.0504  0.3452  0.0702
  167POPC   D2A 2431   3.292   0.975   5.977  0.1080 -0.3489  0.1952
  167POPC   C3A 2432   3.186   1.236   6.281  0.2447  0.0302  0.2687
  167POPC   C4A 2433   3.292   1.503   6.545 -0.1226  0.2293  0.2743
  167POPC   C1B 2434   2.426   1.378   5.685 -0.0250 -0.0252  0.1679
  167POPC   C2B 2435   2.159   1.276   6.029 -0.0094  0.0285  0.2574
  167POPC   C3B 2436   1.937   1.445   6.493  0.0134 -0.2396  0.0110
  167POPC   C4B 2437   1.424   1.373   6.621  0.1754 -0.1525  0.2815
  168POPC   NC3 2438   3.989   9.896   4.891  0.2986  0.3038 -0.1734
  168POPC   PO4 2439   3.592   9.915   4.651 -0.2482 -0.0407 -0.0862
  168POPC   GL1 2440   3.526   9.955   5.060  0.2394  0.1841  0.0981
  168POPC   GL2 2441   3.828  10.151   5.297  0.0339  0.0382  0.1516
  168POPC   C1A 2442   3.355  10.017   5.540 -0.0305  0.4232 -0.2090
  168POPC   D2A 2443   3.452  10.084   5.990  0.1022 -0.1107 -0.0616
  168POPC   C3A 2444   3.114   9.884   6.347  0.1244 -0.2788  0.4712
  168POPC   C4A 2445   2.767   9.665   6.563 -0.3758 -0.1349  0.0511
  168POPC   C1B 2446   3.917  10.170   5.757 -0.0933  0.1015  0.2514
  168POPC   C2B 2447   4.045  10.103   6.154  0.2847  0.2421 -0.1906
  168POPC   C3B 2448   4.322  10.306   6.503  0.0691 -0.0407  0.1914
  168POPC   C4B 2449   4.810  10.423   6.628  0.1555  0.1109  0.0067
  169POPC   NC3 2450   1.027   3.156   4.264  0.0660  0.2246  0.0647
  169POPC   PO4 2451   0.845   3.549   4.293 -0.2242 -0.2091 -0.0026
  169POPC   GL1 2452   1.094   3.608   4.675 -0.0571 -0.2126 -0.0033
  169POPC   GL2 2453   0.975   3.922   4.832  0.0724 -0.2552 -0.0235
  169POPC   C1A 2454   1.437   3.836   4.911 -0.1514 -0.0447 -0.0346
  169POPC   D2A 2455   1.572   3.850   5.428  0.0362  0.2403  0.2028
  169POPC   C3A 2456   1.591   4.228   5.565 -0.0275  0.0937 -0.2424
  169POPC   C4A 2457   1.649   4.602   5.754 -0.0882  0.1862 -0.0153
  169POPC   C1B 2458   0.984   4.241   5.208  0.0526  0.1277  0.1621
  169POPC   C2B 2459   0.939   4.269   5.643  0.0914  0.0326 -0.0103
  169POPC   C3B 2460   0.887   4.205   6.108 -0.0865 -0.0948 -0.2551
  169POPC   C4B 2461   0.809   4.101   6.382 -0.1335 -0.1259 -0.4790
  170POPC   NC3 2462   8.079   6.714   4.250  0.1267  0.0927 -0.2233
  170POPC   PO4 2463   8.437   6.634   4.486  0.2031 -0.0286 -0.0923
  170POPC   GL1 2464   8.659   6.621   4.877 -0.0941  0.0984  0.3611
  170POPC   GL2 2465   8.815   6.428   5.049 -0.2864  0.1480 -0.0445
  170POPC   C1A 2466   8.906   6.974   5.086 -0.0153 -0.0902  0.2151
  170POPC   D2A 2467   9.256   7.060   5.393  0.0132  0.1442 -0.2719
  170POPC   C3A 2468   9.465   7.425   5.539 -0.1236 -0.1446 -0.1665
  170POPC   C4A 2469   9.679   7.732   5.791  0.1787  0.1325  0.0503
  170POPC   C1B 2470   8.857   6.616   5.430 -0.0361 -0.1935 -0.1105
  170POPC   C2B 2471   8.853   6.821   5.805 -0.2204 -0.0403 -0.1635
  170POPC   C3B 2472   8.904   6.899   6.212 -0.1485 -0.0048 -0.1235
  170POPC   C4B 2473   8.840   7.052   6.642  0.0336 -0.0973  0.1715
  171POPC   NC3 2474   7.744   2.517   4.325  0.1501 -0.1294  0.1874
  171POPC   PO4 2475   7.541   2.235   4.220  0.0856 -0.0111 -0.2906
  171POPC   GL1 2476   7.576   2.120   4.660 -0.5439  0.2286 -0.2720
  171POPC   GL2 2477   7.661   1.821   4.684  0.0296 -0.1395 -0.0984
  171POPC   C1A 2478   7.984   2.271   4.934 -0.3169 -0.2432 -0.2291
  171POPC   D2A 2479   8.348   2.321   5.268  0.1149  0.2334 -0.0216
  171POPC   C3A 2480   8.369   2.582   5.572 -0.0040 -0.2815  0.0683
  171POPC   C4A 2481   8.546   2.802   5.910 -0.2003 -0.3233  0.2002
  171POPC   C1B 2482   7.963   1.740   4.941  0.1097  0.0768 -0.0142
  171POPC   C2B 2483   8.249   1.643   5.270  0.0761  0.0249  0.1845
  171POPC   C3B 2484   8.369   1.927   5.577  0.2158 -0.1897 -0.1431
  171POPC   C4B 2485   8.469   1.951   6.061  0.1766 -0.3218  0.3244
  172POPC   NC3 2486   4.715   6.578   3.991 -0.2929  0.0149  0.0953
  172POPC   PO4 2487   4.613   6.180   4.253 -0.2257  0.3345 -0.0392
  172POPC   GL1 2488   4.518   6.210   4.701 -0.0656 -0.0484 -0.1965
  172POPC   GL2 2489   4.850   6.041   4.775 -0.1288 -0.1234  0.1281
  172POPC   C1A 2490   4.421   6.434   5.087 -0.2112 -0.5249  0.1491
  172POPC   D2A 2491   4.317   6.743   5.498  0.0225 -0.0925 -0.3498
  172POPC   C3A 2492   4.257   6.655   5.914  0.2769 -0.3305  0.2051
  172POPC   C4A 2493   4.171   6.464   6.319 -0.1190 -0.2483 -0.0467
  172POPC   C1B 2494   4.895   6.165   5.259 -0.0605  0.0786  0.1033
  172POPC   C2B 2495   4.466   6.121   5.503  0.0293  0.0203  0.3256
  172POPC   C3B 2496   4.107   5.843   5.446 -0.0701  0.2165  0.1983
  172POPC   C4B 2497   3.703   5.638   5.466  0.1255  0.0704  0.1277
  173POPC   NC3 2498   7.283   3.595   3.954 -0.0874 -0.4054  0.0518
  173POPC   PO4 2499   7.239   3.966   4.216  0.1855 -0.1378  0.2011
  173POPC   GL1 2500   7.172   3.786   4.680 -0.1461 -0.0591  0.0537
  173POPC   GL2 2501   7.537   3.856   4.781 -0.0853  0.0573 -0.0316
  173POPC   C1A 2502   7.016   3.788   5.081  0.1559  0.0530 -0.1108
  173POPC   D2A 2503   6.945   3.833   5.573 -0.2072  0.1493  0.1668
  173POPC   C3A 2504   7.028   4.156   5.802  0.2834 -0.2088 -0.1353
  173POPC   C4A 2505   7.256   4.401   6.003 -0.2731 -0.3089 -0.2926
  173POPC   C1B 2506   7.525   3.878   5.255 -0.0637  0.2087  0.0328
  173POPC   C2B 2507   7.480   3.958   5.739  0.3516 -0.2614  0.0518
  173POPC   C3B 2508   7.172   3.832   6.120 -0.2252  0.0783  0.0139
  173POPC   C4B 2509   6.731   3.748   6.040 -0.1922 -0.4304 -0.0460
  174POPC   NC3 2510   1.315   0.273   4.777 -0.1311  0.2096  0.1362
  174POPC   PO4 2511   1.033   0.479   4.631 -0.0090 -0.1027 -0.0114
  174POPC   GL1 2512   0.652   0.624   4.876 -0.1370 -0.0571  0.2591
  174POPC   GL2 2513   0.354   0.750   4.767 -0.3854 -0.0580 -0.0119
  174POPC   C1A 2514   0.632   0.461   5.296 -0.0445  0.1120  0.1111
  174POPC   D2A 2515   0.611   0.632   5.734 -0.0572  0.3346 -0.1879
  174POPC   C3A 2516   0.197   0.670   5.971  0.0733 -0.0696  0.1018
  174POPC   C4A 2517  -0.282   0.706   6.053  0.0438  0.0832 -0.1531
  174POPC   C1B 2518   0.246   0.395   4.991 -0.0677  0.1612 -0.1452
  174POPC   C2B 2519   0.308   0.067   5.245  0.1185  0.2364 -0.0378
  174POPC   C3B 2520   0.278  -0.284   5.449 -0.1687 -0.2185 -0.0492
  174POPC   C4B 2521   0.012  -0.543   5.368  0.3017  0.0784 -0.3160
  175POPC   NC3 2522   4.167   2.392   4.964  0.2102 -0.1223  0.0833
  175POPC   PO4 2523   4.492   2.098   4.954 -0.0910 -0.1764 -0.2406
  175POPC   GL1 2524   4.560   1.988   5.336  0.3233 -0.0908 -0.1763
  175POPC   GL2 2525   4.192   1.978   5.477 -0.0555  0.1594  0.3599
  175POPC   C1A 2526   4.594   1.854   5.830  0.0351  0.1885 -0.0893
  175POPC   D2A 2527   4.542   1.735   6.284 -0.0062  0.1302  0.2139
  175POPC   C3A 2528   4.192   1.582   6.442  0.4064 -0.1605 -0.0572
  175POPC   C4A 2529   3.966   1.906   6.795 -0.2668  0.1295 -0.3682
  175POPC   C1B 2530   4.242   2.319   5.836  0.0862  0.1686  0.2161
  175POPC   C2B 2531   4.525   2.284   6.198  0.0994  0.1745 -0.1095
  175POPC   C3B 2532   4.572   2.077   6.638  0.0024  0.2519 -0.3212
  175POPC   C4B 2533   4.366   1.675   6.908 -0.1962 -0.0851 -0.0868
  176POPC   NC3 2534   9.227   5.876   4.517  0.2909  0.0877  0.2432
  176POPC   PO4 2535   8.915   6.028   4.721 -0.0265 -0.0312  0.0289
  176POPC   GL1 2536   8.845   5.931   5.085 -0.3649  0.1149  0.1857
  176POPC   GL2 2537   8.830   5.637   5.281 -0.0069 -0.1780  0.1417
  176POPC   C1A 2538   8.878   5.991   5.632 -0.0609  0.3680 -0.1036
  176POPC   D2A 2539   9.187   6.162   5.787 -0.0267 -0.0760 -0.2878
  176POPC   C3A 2540   9.100   6.467   6.128  0.2250  0.1563  0.2305
  176POPC   C4A 2541   9.034   6.590   6.562  0.3151  0.1388 -0.0162
  176POPC   C1B 2542   8.369   5.636   5.500 -0.3109  0.0505 -0.0836
  176POPC   C2B 2543   8.093   6.103   5.716  0.3249  0.1108  0.1569
  176POPC   C3B 2544   7.884   6.347   6.044 -0.0193  0.0146 -0.3415
  176POPC   C4B 2545   7.970   6.655   6.252 -0.2131  0.4247  0.2492
  177POPC   NC3 2546   3.914   4.263   4.102 -0.1018  0.3796  0.0564
  177POPC   PO4 2547   3.980   4.490   4.504  0.1348  0.2628  0.2489
  177POPC   GL1 2548   3.721   4.549   4.859 -0.0458  0.1748 -0.1361
  177POPC   GL2 2549   3.455   4.851   4.889 -0.1058  0.2053  0.0210
  177POPC   C1A 2550   3.774   4.367   5.333 -0.0911 -0.0254  0.2954
  177POPC   D2A 2551   3.998   4.430   5.715 -0.3721  0.0085 -0.3017
  177POPC   C3A 2552   4.049   4.311   6.288  0.2459  0.0855 -0.1270
  177POPC   C4A 2553   4.000   3.921   6.736  0.2642  0.0883 -0.0112
  177POPC   C1B 2554   3.397   4.652   5.217  0.0459 -0.0682  0.1163
  177POPC   C2B 2555   3.438   4.551   5.710  0.0501  0.0354 -0.2546
  177POPC   C3B 2556   3.654   4.672   6.079 -0.4016 -0.1252 -0.3644
  177POPC   C4B 2557   3.651   4.443   6.458  0.2644 -0.0812  0.2748
  178POPC   NC3 2558   6.112   5.051   4.133 -0.2587  0.0015 -0.1504
  178POPC   PO4 2559   5.990   4.642   4.073 -0.3551 -0.2129  0.1754
  178POPC   GL1 2560   5.733   4.808   4.560 -0.2138  0.0612  0.0983
  178POPC   GL2 2561   5.801   4.504   4.701 -0.0903 -0.1038 -0.1782
  178POPC   C1A 2562   5.847   5.016   4.995  0.2097 -0.3252  0.2982
  178POPC   D2A 2563   5.867   5.062   5.478  0.2668  0.0993  0.2757
  178POPC   C3A 2564   6.201   5.432   5.638  0.1356  0.1345 -0.3456
  178POPC   C4A 2565   6.507   5.814   5.757  0.0553  0.2187  0.1255
  178POPC   C1B 2566   5.976   4.580   5.191 -0.0434  0.0459  0.0272
  178POPC   C2B 2567   5.837   4.520   5.633  0.0919  0.2731 -0.0511
  178POPC   C3B 2568   5.894   4.848   5.890  0.4145 -0.2728  0.0866
  178POPC   C4B 2569   5.848   5.207   6.142 -0.3822 -0.1602 -0.0570
  179POPC   NC3 2570   4.855   6.548   4.525  0.0195 -0.0778  0.0843
  179POPC   PO4 2571   5.190   6.560   4.658  0.1726 -0.0112 -0.0220
  179POPC   GL1 2572   5.126   6.531   5.018 -0.5100  0.0283 -0.0211
  179POPC   GL2 2573   5.424   6.686   5.160 -0.0770  0.1521 -0.0069
  179POPC   C1A 2574   4.858   6.740   5.292  0.0274  0.0643  0.1810
  179POPC   D2A 2575   4.737   6.619   5.739 -0.1111 -0.2947  0.0510
  179POPC   C3A 2576   4.812   6.233   5.953  0.2291 -0.2595  0.2794
  179POPC   C4A 2577   4.705   5.723   6.022  0.0349 -0.0348 -0.0763
  179POPC   C1B 2578   5.437   6.764   5.610 -0.2266  0.2601 -0.2580
  179POPC   C2B 2579   5.344   6.537   5.927 -0.3487 -0.1339 -0.0817
  179POPC   C3B 2580   5.581   6.176   6.067  0.0457 -0.3527  0.1766
  179POPC   C4B 2581   5.795   5.733   5.907  0.2465 -0.1601  0.0066
  180POPC   NC3 2582   9.659   8.699   3.416  0.1910 -0.2127 -0.0529
  180POPC   PO4 2583   9.620   8.330   3.597 -0.2821  0.1104 -0.3034
  180POPC   GL1 2584   9.649   8.351   4.074  0.0817  0.4388 -0.0705
  180POPC   GL2 2585   9.955   8.268   4.104  0.0362  0.0107  0.0736
  180POPC   C1A 2586   9.910   8.551   4.444  0.3129  0.0694  0.1334
  180POPC   D2A 2587   9.942   8.783   4.784  0.0741 -0.3816 -0.0447
  180POPC   C3A 2588   9.772   8.843   5.198 -0.2268 -0.1069  0.0911
  180POPC   C4A 2589   9.873   9.019   5.626 -0.3416 -0.1382  0.4022
  180POPC   C1B 2590  10.054   7.955   4.465 -0.1204  0.2429 -0.1586
  180POPC   C2B 2591   9.686   7.749   4.697 -0.0621 -0.1092 -0.3561
  180POPC   C3B 2592   9.566   7.868   5.170 -0.3501 -0.2479  0.2904
  180POPC   C4B 2593   9.969   8.098   5.376 -0.0739  0.0461  0.0719
  181POPC   NC3 2594   8.455   6.144   4.554  0.2133  0.0180  0.0269
  181POPC   PO4 2595   8.072   6.294   4.590  0.0183  0.4266 -0.1539
  181POPC   GL1 2596   8.247   6.307   4.964  0.1373 -0.0328 -0.1051
  181POPC   GL2 2597   8.239   6.023   5.208 -0.0249  0.1625 -0.0247
  181POPC   C1A 2598   8.203   6.605   5.323 -0.4039 -0.0857  0.0037
  181POPC   D2A 2599   8.039   6.572   5.667 -0.1025 -0.1204  0.1962
  181POPC   C3A 2600   7.818   6.883   5.820 -0.1731 -0.0485 -0.1495
  181POPC   C4A 2601   7.896   7.214   6.053  0.4292 -0.2719 -0.0808
  181POPC   C1B 2602   8.488   6.123   5.455  0.4777 -0.1703  0.0823
  181POPC   C2B 2603   8.579   6.385   5.744 -0.1807  0.1549  0.0375
  181POPC   C3B 2604   8.538   6.453   6.188 -0.2630  0.4180  0.2458
  181POPC   C4B 2605   8.487   6.725   6.507  0.0421 -0.0777  0.1329
  182POPC   NC3 2606   4.230   4.846   4.252 -0.0115 -0.4099 -0.2027
  182POPC   PO4 2607   4.551   5.196   4.282  0.0335 -0.1443  0.2544
  182POPC   GL1 2608   4.619   5.072   4.712 -0.1250  0.0951  0.2270
  182POPC   GL2 2609   4.325   5.236   4.954  0.1211  0.0599 -0.3904
  182POPC   C1A 2610   4.671   4.824   5.087  0.0044 -0.2560 -0.2109
  182POPC   D2A 2611   4.508   4.514   5.188 -0.0645  0.0999  0.0516
  182POPC   C3A 2612   4.196   4.171   5.161 -0.0558 -0.1630  0.4524
  182POPC   C4A 2613   3.704   3.997   5.099 -0.0327 -0.3281  0.2540
  182POPC   C1B 2614   4.305   5.362   5.402  0.0248 -0.1302  0.0516
  182POPC   C2B 2615   4.348   5.407   5.795 -0.2062  0.1924  0.1184
  182POPC   C3B 2616   4.063   5.684   6.063 -0.2476  0.1159  0.1097
  182POPC   C4B 2617   3.913   5.546   6.343  0.3283 -0.0725  0.2203
  183POPC   NC3 2618   2.314   2.627   4.344  0.0171 -0.0547  0.0558
  183POPC   PO4 2619   1.988   2.798   4.622  0.0912 -0.1093  0.2223
  183POPC   GL1 2620   1.943   2.783   5.072  0.2975  0.1288  0.2031
  183POPC   GL2 2621   1.824   2.660   5.254 -0.1355  0.0534 -0.0533
  183POPC   C1A 2622   2.153   3.008   5.368 -0.0352  0.2637  0.0068
  183POPC   D2A 2623   2.303   3.124   5.754 -0.2658 -0.3361 -0.1778
  183POPC   C3A 2624   2.196   3.472   6.037 -0.0107 -0.3659 -0.3501
  183POPC   C4A 2625   2.284   3.428   6.478 -0.4930  0.0016 -0.2873
  183POPC   C1B 2626   1.598   2.479   5.401  0.0406  0.3011  0.0559
  183POPC   C2B 2627   1.455   2.367   5.697 -0.2281  0.1048  0.0754
  183POPC   C3B 2628   1.438   2.351   6.086  0.0096  0.0573 -0.0717
  183POPC   C4B 2629   1.408   2.726   6.372  0.0303  0.1840  0.0537
  184POPC   NC3 2630   1.975   6.845   3.856 -0.0858 -0.1668  0.2195
  184POPC   PO4 2631   2.000   6.501   4.229  0.1593  0.1978  0.2609
  184POPC   GL1 2632   1.852   6.622   4.666  0.1698  0.0491  0.1994
  184POPC   GL2 2633   2.194   6.586   4.727 -0.2538 -0.0836 -0.2989
  184POPC   C1A 2634   1.612   6.425   5.024  0.2130  0.2710 -0.0730
  184POPC   D2A 2635   1.409   6.454   5.340 -0.2400 -0.4472  0.2274
  184POPC   C3A 2636   1.414   6.242   5.744 -0.1452 -0.0958 -0.2500
  184POPC   C4A 2637   1.499   5.830   5.996  0.0737 -0.0987 -0.1426
  184POPC   C1B 2638   2.048   6.675   5.100 -0.0293  0.0854 -0.5393
  184POPC   C2B 2639   1.925   6.772   5.543 -0.1544 -0.0628  0.1329
  184POPC   C3B 2640   1.883   6.650   5.986 -0.4211  0.0451  0.4142
  184POPC   C4B 2641   2.260   6.710   6.287 -0.0955 -0.2458 -0.0725
  185POPC   NC3 2642   2.068   6.971   4.387  0.1359  0.1373 -0.0218
  185POPC   PO4 2643   1.993   7.267   4.135  0.0396  0.0536  0.3351
  185POPC   GL1 2644   1.795   7.381   4.535  0.1189  0.2482 -0.1995
  185POPC   GL2 2645   1.627   7.167   4.563  0.1466 -0.0380 -0.1273
  185POPC   C1A 2646   1.621   7.559   4.843 -0.2062 -0.1705  0.1402
  185POPC   D2A 2647   1.610   7.569   5.274 -0.0397 -0.0299 -0.0245
  185POPC   C3A 2648   1.865   7.846   5.485 -0.1810  0.1215  0.0534
  185POPC   C4A 2649   1.935   8.137   5.695 -0.1496 -0.2196 -0.0461
  185POPC   C1B 2650   1.709   7.111   5.040  0.2135 -0.5143  0.1021
  185POPC   C2B 2651   1.525   7.034   5.521 -0.2488 -0.1909  0.1042
  185POPC   C3B 2652   1.279   7.371   5.748 -0.3268  0.2937 -0.3256
  185POPC   C4B 2653   0.930   7.467   5.977  0.1198  0.0196 -0.0515
  186POPC   NC3 2654   2.868   4.255   4.506  0.3269  0.0833 -0.0743
  186POPC   PO4 2655   3.098   3.841   4.369 -0.0916 -0.0266  0.0019
  186POPC   GL1 2656   2.971   3.861   4.831  0.3468  0.1996 -0.2512
  186POPC   GL2 2657   2.714   3.917   4.826 -0.1860 -0.0351 -0.0174
  186POPC   C1A 2658   3.223   3.760   5.133 -0.1280  0.0187 -0.1700
  186POPC   D2A 2659   3.406   4.012   5.569  0.0895  0.1366 -0.0102
  186POPC   C3A 2660   3.678   4.091   5.938 -0.2372 -0.0828 -0.0938
  186POPC   C4A 2661   3.608   4.007   6.308 -0.0008 -0.1385  0.1037
  186POPC   C1B 2662   2.283   3.795   4.874 -0.0075 -0.1571  0.0658
  186POPC   C2B 2663   2.194   3.947   5.288 -0.0147 -0.2193 -0.4844
  186POPC   C3B 2664   2.063   3.990   5.593 -0.0306  0.1668  0.1769
  186POPC   C4B 2665   1.820   3.976   5.929  0.2724 -0.0008 -0.0537
  187POPC   NC3 2666   6.404   6.262   4.027  0.0831 -0.0083 -0.1467
  187POPC   PO4 2667   6.119   6.468   4.258 -0.0367 -0.0020  0.1966
  187POPC   GL1 2668   6.038   6.414   4.745 -0.2435 -0.3709 -0.0851
  187POPC   GL2 2669   5.708   6.450   4.813 -0.2602 -0.1219  0.0230
  187POPC   C1A 2670   5.976   6.836   5.120 -0.4597 -0.0539 -0.0936
  187POPC   D2A 2671   5.920   6.706   5.503 -0.0005  0.1619  0.0561
  187POPC   C3A 2672   5.893   6.298   5.694  0.2188  0.3034  0.0989
  187POPC   C4A 2673   6.065   5.914   5.409 -0.0442 -0.0406  0.1050
  187POPC   C1B 2674   5.703   6.229   5.190  0.0195 -0.0247  0.2198
  187POPC   C2B 2675   5.426   6.147   5.558 -0.0282 -0.0537  0.1789
  187POPC   C3B 2676   5.289   5.872   5.848  0.0820 -0.2726  0.1051
  187POPC   C4B 2677   5.392   5.372   6.028 -0.0232 -0.0599 -0.2006
  188POPC   NC3 2678   4.825   7.896   4.640  0.3296  0.1021 -0.2537
  188POPC   PO4 2679   5.183   8.088   4.517  0.2016  0.3890 -0.1810
  188POPC   GL1 2680   5.205   8.022   4.995  0.0363  0.1908 -0.1505
  188POPC   GL2 2681   4.975   7.756   5.143  0.0156 -0.3634  0.0546
  188POPC   C1A 2682   5.307   8.142   5.328 -0.0078  0.1680 -0.2773
  188POPC   D2A 2683   5.316   7.964   5.808  0.3221 -0.0159 -0.0659
  188POPC   C3A 2684   5.196   8.154   6.206 -0.2015 -0.3225 -0.1380
  188POPC   C4A 2685   5.425   7.973   6.500  0.2840 -0.2252 -0.2028
  188POPC   C1B 2686   5.204   7.654   5.398 -0.1099 -0.2384 -0.3076
  188POPC   C2B 2687   5.385   7.475   5.823 -0.1564 -0.2641  0.0076
  188POPC   C3B 2688   5.441   7.042   6.262 -0.1753 -0.0885 -0.1968
  188POPC   C4B 2689   5.630   6.680   6.334  0.2869 -0.1683  0.1349
  189POPC   NC3 2690   1.423   0.851   4.496  0.1271 -0.2118  0.0899
  189POPC   PO4 2691   1.573   0.758   4.882  0.0141 -0.1571  0.0689
  189POPC   GL1 2692   1.476   0.684   5.273  0.0709  0.0088 -0.0245
  189POPC   GL2 2693   1.287   0.385   5.268  0.1612  0.0958  0.2334
  189POPC   C1A 2694   1.511   0.724   5.653  0.2498 -0.0566  0.1291
  189POPC   D2A 2695   1.549   1.059   5.901 -0.0872  0.1878  0.0321
  189POPC   C3A 2696   1.607   1.019   6.304 -0.1306  0.1097  0.1755
  189POPC   C4A 2697   1.426   0.832   6.490 -0.0461 -0.0601  0.1394
  189POPC   C1B 2698   1.019   0.391   5.711  0.1302 -0.0975 -0.1766
  189POPC   C2B 2699   0.699   0.255   6.028  0.3947  0.0501 -0.1944
  189POPC   C3B 2700   0.407   0.397   6.424 -0.1301 -0.2956 -0.1018
  189POPC   C4B 2701   0.568   0.458   6.857 -0.1493 -0.0315  0.0547
  190POPC   NC3 2702   1.121   1.382   4.122  0.2900  0.0831  0.0560
  190POPC   PO4 2703   1.244   1.402   4.543  0.0638  0.1814  0.4111
  190POPC   GL1 2704   1.157   1.165   4.945  0.2565  0.2063  0.0462
  190POPC   GL2 2705   1.083   0.908   4.863  0.1600 -0.1351  0.1679
  190POPC   C1A 2706   1.384   1.186   5.307 -0.1055 -0.1008 -0.0392
  190POPC   D2A 2707   1.317   1.421   5.699  0.2587  0.0156 -0.3022
  190POPC   C3A 2708   1.001   1.522   6.001  0.3040 -0.0407  0.1162
  190POPC   C4A 2709   1.067   1.732   6.393 -0.1152  0.2571 -0.0650
  190POPC   C1B 2710   1.001   0.889   5.286 -0.5339 -0.2017 -0.1772
  190POPC   C2B 2711   1.060   0.889   5.721 -0.1011  0.1229 -0.1578
  190POPC   C3B 2712   1.124   1.063   6.201  0.2780  0.1866 -0.0363
  190POPC   C4B 2713   0.818   1.268   6.369  0.3033  0.1313 -0.0672
  191POPC   NC3 2714   1.425   1.759   4.914 -0.0173  0.1570 -0.0913
  191POPC   PO4 2715   1.134   2.112   4.988  0.2541  0.4282 -0.3067
  191POPC   GL1 2716   1.128   1.798   5.317 -0.0945  0.1223 -0.2308
  191POPC   GL2 2717   0.917   1.491   5.292  0.1482  0.0262  0.1867
  191POPC   C1A 2718   1.165   1.880   5.719 -0.2346  0.1834 -0.2823
  191POPC   D2A 2719   0.801   1.962   5.884 -0.3244 -0.1349 -0.1625
  191POPC   C3A 2720   0.454   2.209   5.733 -0.1164 -0.1043 -0.1736
  191POPC   C4A 2721   0.178   2.355   5.348 -0.3117  0.1441  0.0077
  191POPC   C1B 2722   0.750   1.314   5.657 -0.0798  0.2037 -0.0663
  191POPC   C2B 2723   0.552   1.089   5.971 -0.2325  0.0785  0.2399
  191POPC   C3B 2724   0.766   0.742   6.213  0.0739 -0.0493  0.0464
  191POPC   C4B 2725   0.989   0.501   6.558 -0.1249 -0.2241  0.3385
  192POPC   NC3 2726   0.491   8.697   3.955 -0.0239  0.2506  0.4151
  192POPC   PO4 2727   0.432   8.170   4.015  0.1962  0.1450 -0.0385
  192POPC   GL1 2728   0.622   8.299   4.419  0.2027  0.0368 -0.0814
  192POPC   GL2 2729   0.409   8.634   4.489 -0.0866  0.0069 -0.0791
  192POPC   C1A 2730   0.899   8.498   4.891 -0.1062 -0.1956 -0.0485
  192POPC   D2A 2731   1.101   8.448   5.416 -0.1422  0.2404  0.1926
  192POPC   C3A 2732   0.996   8.352   5.821  0.2163  0.0586  0.0825
  192POPC   C4A 2733   0.703   8.034   6.017  0.0885  0.2175 -0.0110
  192POPC   C1B 2734   0.388   8.502   4.882  0.1481  0.1888 -0.1357
  192POPC   C2B 2735   0.193   8.520   5.235 -0.1773  0.0734  0.0987
  192POPC   C3B 2736   0.117   8.472   5.699  0.1256 -0.2417 -0.2465
  192POPC   C4B 2737   0.207   8.408   6.138 -0.2079 -0.2220  0.3368
  193POPC   NC3 2738   6.318   7.554   3.831 -0.0542  0.0064  0.1425
  193POPC   PO4 2739   6.573   7.478   4.163 -0.0604  0.1872  0.0730
  193POPC   GL1 2740   6.554   7.549   4.644 -0.1842 -0.2540  0.1557
  193POPC   GL2 2741   6.205   7.662   4.543 -0.0523  0.2873 -0.0426
  193POPC   C1A 2742   6.717   7.708   5.026  0.1911 -0.1445 -0.1051
  193POPC   D2A 2743   6.441   7.719   5.413  0.1223  0.0409 -0.0325
  193POPC   C3A 2744   6.309   7.884   5.723 -0.0035 -0.1305 -0.1489
  193POPC   C4A 2745   6.348   7.757   6.126 -0.0264 -0.0168 -0.1730
  193POPC   C1B 2746   6.083   7.966   4.938  0.0452  0.1606 -0.0375
  193POPC   C2B 2747   6.031   8.112   5.351 -0.2365 -0.1544  0.1839
  193POPC   C3B 2748   6.248   8.377   5.657 -0.2960  0.0601 -0.1013
  193POPC   C4B 2749   6.649   8.371   5.848 -0.3037  0.3381  0.0238
  194POPC   NC3 2750   3.180   7.615   4.315  0.0660  0.1375 -0.1943
  194POPC   PO4 2751   3.295   7.334   4.608  0.0914  0.3015 -0.0975
  194POPC   GL1 2752   2.896   7.353   4.823 -0.3412  0.0914 -0.3725
  194POPC   GL2 2753   2.950   7.187   5.044  0.1463 -0.1941  0.0702
  194POPC   C1A 2754   2.582   7.647   4.990 -0.0160  0.0153  0.0027
  194POPC   D2A 2755   2.496   8.096   5.252  0.1554  0.2219 -0.1347
  194POPC   C3A 2756   2.749   8.264   5.642  0.2454 -0.2110 -0.1224
  194POPC   C4A 2757   2.579   8.286   5.982  0.3502  0.0731  0.0834
  194POPC   C1B 2758   2.664   7.284   5.378  0.1640  0.1609  0.1426
  194POPC   C2B 2759   2.428   7.457   5.698 -0.2695 -0.2673  0.0634
  194POPC   C3B 2760   2.411   7.532   6.136  0.0126  0.0922  0.1922
  194POPC   C4B 2761   2.393   7.768   6.520  0.1662  0.0151  0.1477
  195POPC   NC3 2762   7.897   8.802   3.261  0.1686 -0.0136 -0.3258
  195POPC   PO4 2763   8.087   8.483   3.190  0.0145  0.0447 -0.3381
  195POPC   GL1 2764   8.384   8.320   3.494  0.0080 -0.2957 -0.0530
  195POPC   GL2 2765   8.641   8.398   3.388 -0.0922  0.0781  0.0490
  195POPC   C1A 2766   8.333   8.113   3.952 -0.1400 -0.2069 -0.0556
  195POPC   D2A 2767   8.155   8.214   4.349 -0.2068 -0.1459  0.0977
  195POPC   C3A 2768   7.702   8.288   4.566  0.2784  0.0885 -0.0334
  195POPC   C4A 2769   7.476   8.352   4.902  0.0741 -0.0734 -0.0307
  195POPC   C1B 2770   8.679   8.428   3.902 -0.1488  0.0870 -0.0460
  195POPC   C2B 2771   8.690   8.206   4.319 -0.2477  0.0088  0.1217
  195POPC   C3B 2772   8.717   7.890   4.528 -0.3276  0.2639 -0.0112
  195POPC   C4B 2773   8.899   7.627   4.745  0.0746  0.2167 -0.2722
  196POPC   NC3 2774   5.933   7.695   4.140  0.0833  0.4249  0.1110
  196POPC   PO4 2775   5.665   7.395   4.452 -0.0689 -0.0721 -0.0637
  196POPC   GL1 2776   5.787   7.454   4.798  0.1017  0.1142  0.2651
  196POPC   GL2 2777   5.515   7.295   5.042  0.0874 -0.1446  0.1112
  196POPC   C1A 2778   6.041   7.528   5.211 -0.0363 -0.1676  0.2334
  196POPC   D2A 2779   5.991   7.502   5.715 -0.3233 -0.2575  0.0331
  196POPC   C3A 2780   5.795   7.828   5.957 -0.0376  0.0243  0.0458
  196POPC   C4A 2781   5.900   7.962   6.399 -0.1385 -0.2125  0.1659
  196POPC   C1B 2782   5.676   7.161   5.460  0.0994 -0.3840  0.1561
  196POPC   C2B 2783   5.761   6.972   5.928 -0.2567 -0.0114  0.1099
  196POPC   C3B 2784   6.062   6.663   6.010  0.0382  0.0413 -0.0307
  196POPC   C4B 2785   6.353   6.410   5.757  0.0136 -0.1491 -0.2402
  197POPC   NC3 2786   0.489   0.872   4.265 -0.0684 -0.2014 -0.0223
  197POPC   PO4 2787   0.721   1.194   4.550 -0.1931  0.1570 -0.0960
  197POPC   GL1 2788   0.637   1.117   4.999  0.0114  0.1310 -0.1561
  197POPC   GL2 2789   0.444   1.372   5.251 -0.1409 -0.0828 -0.1189
  197POPC   C1A 2790   0.436   0.898   5.280 -0.0300 -0.0199  0.0597
  197POPC   D2A 2791   0.165   0.622   5.471  0.0892 -0.1319 -0.0583
  197POPC   C3A 2792   0.329   0.205   5.697 -0.1037 -0.0288  0.3060
  197POPC   C4A 2793   0.300  -0.052   6.031 -0.0283  0.0445  0.0449
  197POPC   C1B 2794   0.203   1.230   5.586  0.0676  0.2739 -0.0214
  197POPC   C2B 2795  -0.169   1.071   5.735 -0.0164 -0.1066  0.1071
  197POPC   C3B 2796  -0.341   1.194   6.132  0.0851 -0.1886 -0.2135
  197POPC   C4B 2797  -0.636   0.983   6.382 -0.1015 -0.2189 -0.0699
  198POPC   NC3 2798   8.930   8.734   3.243 -0.2388 -0.2979  0.1749
  198POPC   PO4 2799   9.168   8.866   3.623  0.3260 -0.0254 -0.0080
  198POPC   GL1 2800   9.066   8.752   4.051  0.1324 -0.1518 -0.0253
  198POPC   GL2 2801   8.953   9.085   3.995 -0.1416  0.2940  0.1179
  198POPC   C1A 2802   8.822   8.785   4.470 -0.2773  0.1549 -0.1526
  198POPC   D2A 2803   8.871   8.927   4.856 -0.2068 -0.1185  0.1292
  198POPC   C3A 2804   8.740   9.295   5.005 -0.1890 -0.1890  0.0680
  198POPC   C4A 2805   8.377   9.491   5.062 -0.3428 -0.3866  0.0859
  198POPC   C1B 2806   9.234   9.304   4.353  0.1225 -0.1002  0.1687
  198POPC   C2B 2807   9.342   9.162   4.751  0.2443 -0.1387 -0.2077
  198POPC   C3B 2808   9.580   9.335   5.064  0.1938  0.0658  0.1000
  198POPC   C4B 2809   9.474   9.416   5.503  0.0796  0.1972  0.0518
  199POPC   NC3 2810   7.411   5.364   4.323  0.0559 -0.0752  0.0415
  199POPC   PO4 2811   7.041   5.110   4.255  0.2623 -0.2961 -0.4335
  199POPC   GL1 2812   6.875   5.122   4.597  0.2615  0.0381  0.0458
  199POPC   GL2 2813   7.157   5.281   4.726  0.0444  0.0056 -0.0081
  199POPC   C1A 2814   6.824   5.076   4.982  0.0770 -0.0296  0.2433
  199POPC   D2A 2815   7.111   4.780   5.069 -0.0955 -0.0440 -0.2545
  199POPC   C3A 2816   7.404   4.810   5.362 -0.3276  0.1238  0.0054
  199POPC   C4A 2817   7.416   4.443   5.550 -0.0214 -0.0031  0.0083
  199POPC   C1B 2818   7.231   5.441   5.154  0.0201  0.4925  0.0317
  199POPC   C2B 2819   7.011   5.188   5.446  0.0291 -0.0478  0.0692
  199POPC   C3B 2820   6.684   5.223   5.623  0.1151 -0.3450 -0.0845
  199POPC   C4B 2821   6.412   5.004   5.862  0.1888 -0.1160  0.2311
  200POPC   NC3 2822   8.989   3.192   4.070 -0.2365 -0.4230 -0.2568
  200POPC   PO4 2823   8.752   3.274   4.396 -0.0590  0.1495  0.0139
  200POPC   GL1 2824   8.853   3.547   4.711  0.0753  0.0611  0.1914
  200POPC   GL2 2825   8.581   3.719   4.946  0.0064  0.1011 -0.1104
  200POPC   C1A 2826   9.131   3.636   5.191  0.1649 -0.1330  0.3535
  200POPC   D2A 2827   8.999   3.643   5.616 -0.3295  0.3420 -0.0757
  200POPC   C3A 2828   9.161   3.438   5.861  0.0507  0.2444 -0.0948
  200POPC   C4A 2829   9.223   3.041   6.238  0.4927  0.1546  0.2675
  200POPC   C1B 2830   8.716   3.399   5.221 -0.1282 -0.1931  0.2284
  200POPC   C2B 2831   8.650   3.294   5.683  0.1050  0.0768  0.0449
  200POPC   C3B 2832   8.780   3.183   6.120  0.0610  0.2617  0.3158
  200POPC   C4B 2833   8.754   2.852   6.362  0.0693  0.2145 -0.1041
  201POPC   NC3 2834   0.950   1.720   4.765  0.1055  0.0220 -0.1704
  201POPC   PO4 2835   0.614   1.961   4.777 -0.1563  0.1033  0.1122
  201POPC   GL1 2836   0.659   2.073   5.173 -0.0426  0.1450 -0.0108
  201POPC   GL2 2837   0.718   2.378   5.150 -0.2447  0.0598 -0.0484
  201POPC   C1A 2838   0.561   1.752   5.528  0.0214 -0.1224 -0.2405
  201POPC   D2A 2839   0.374   1.580   5.935  0.0975 -0.1475 -0.1072
  201POPC   C3A 2840   0.104   1.340   6.175  0.0831 -0.2109 -0.2848
  201POPC   C4A 2841   0.035   0.939   6.432  0.1404  0.0639  0.1170
  201POPC   C1B 2842   0.964   2.443   5.479 -0.4491 -0.0846 -0.1854
  201POPC   C2B 2843   1.004   2.424   5.884  0.0360 -0.0731  0.1009
  201POPC   C3B 2844   0.855   2.439   6.204 -0.2242  0.0287 -0.0029
  201POPC   C4B 2845   0.475   2.223   6.229 -0.1103  0.2406 -0.1280
  202POPC   NC3 2846   5.915   9.939   3.418  0.1199  0.1879 -0.2736
  202POPC   PO4 2847   6.046   9.962   3.877  0.0766  0.0469  0.1152
  202POPC   GL1 2848   6.190  10.026   4.243  0.2626 -0.2321  0.1049
  202POPC   GL2 2849   6.172   9.886   4.444  0.0329  0.0246  0.0659
  202POPC   C1A 2850   6.396  10.369   4.435 -0.1952 -0.0226  0.0770
  202POPC   D2A 2851   6.506  10.544   4.839 -0.0442 -0.0193 -0.1456
  202POPC   C3A 2852   6.595  10.599   5.229  0.3442  0.3539  0.0562
  202POPC   C4A 2853   6.440  10.906   5.560 -0.0648  0.0598  0.0881
  202POPC   C1B 2854   6.001  10.273   4.722  0.2146 -0.0563  0.0694
  202POPC   C2B 2855   6.016  10.637   4.915 -0.0177 -0.1934 -0.1457
  202POPC   C3B 2856   6.222  10.940   5.096 -0.2151  0.1191 -0.1165
  202POPC   C4B 2857   6.399  11.294   5.267  0.0062 -0.0347  0.0211
  203POPC   NC3 2858   1.033   9.899   3.928 -0.2338 -0.0628 -0.0755
  203POPC   PO4 2859   0.634  10.066   3.847  0.1123  0.2305 -0.1783
  203POPC   GL1 2860   0.388   9.901   4.214  0.0678 -0.0588  0.0696
  203POPC   GL2 2861   0.440   9.912   4.483  0.0241  0.3152  0.1456
  203POPC   C1A 2862  -0.002   9.661   4.325 -0.3545  0.1061  0.0146
  203POPC   D2A 2863  -0.375   9.605   4.275 -0.0198  0.0422 -0.0484
  203POPC   C3A 2864  -0.616   9.662   4.659 -0.0587 -0.1544  0.0472
  203POPC   C4A 2865  -0.860   9.649   5.038 -0.1004 -0.0148  0.0322
  203POPC   C1B 2866   0.599   9.915   4.854 -0.1635 -0.0677  0.3970
  203POPC   C2B 2867   0.532   9.568   5.037  0.2949 -0.0700  0.1312
  203POPC   C3B 2868   0.663   9.330   5.311 -0.0165  0.1486 -0.1356
  203POPC   C4B 2869   0.376   9.158   5.587  0.1404  0.4189  0.0984
  204POPC   NC3 2870   7.640   1.696   3.586 -0.0343  0.3449 -0.2672
  204POPC   PO4 2871   7.171   1.578   3.676  0.0951 -0.1354 -0.1619
  204POPC   GL1 2872   7.004   1.446   4.094  0.1910  0.1159  0.1946
  204POPC   GL2 2873   6.768   1.172   4.128 -0.0911 -0.0323 -0.1939
  204POPC   C1A 2874   7.277   1.427   4.512 -0.0307 -0.3300 -0.2490
  204POPC   D2A 2875   7.560   1.294   4.859 -0.2150  0.0466  0.0411
  204POPC   C3A 2876   7.783   1.349   5.233 -0.0714  0.0982  0.1279
  204POPC   C4A 2877   7.937   1.589   5.676  0.0823  0.0990 -0.2896
  204POPC   C1B 2878   6.949   0.988   4.554 -0.0136 -0.0688  0.1424
  204POPC   C2B 2879   7.369   0.789   4.542  0.1634  0.2238 -0.2975
  204POPC   C3B 2880   7.768   1.020   4.499  0.2390 -0.0358 -0.1179
  204POPC   C4B 2881   7.847   1.468   4.362 -0.2930  0.3470 -0.1322
  205POPC   NC3 2882   7.405   9.012   3.219 -0.4437 -0.1196 -0.1124
  205POPC   PO4 2883   7.118   8.688   3.326  0.0198 -0.0828  0.2520
  205POPC   GL1 2884   7.180   8.656   3.593  0.1101 -0.2978 -0.1400
  205POPC   GL2 2885   7.538   8.647   3.670 -0.2906 -0.1091 -0.3702
  205POPC   C1A 2886   7.209   8.825   3.980  0.1270  0.1894 -0.3005
  205POPC   D2A 2887   7.345   9.192   4.187  0.0890  0.0001  0.3120
  205POPC   C3A 2888   7.404   9.313   4.656  0.0914 -0.4531 -0.1495
  205POPC   C4A 2889   7.520   9.133   5.023 -0.2158  0.1549  0.2842
  205POPC   C1B 2890   7.701   9.024   3.882  0.1093 -0.1778 -0.2724
  205POPC   C2B 2891   7.871   9.200   4.242  0.1380 -0.0762  0.3751
  205POPC   C3B 2892   8.016   9.385   4.680  0.1859  0.0486  0.1176
  205POPC   C4B 2893   8.072   9.773   4.830 -0.1753  0.2063 -0.0029
  206POPC   NC3 2894   4.495   1.748   4.554 -0.1029  0.0994  0.2786
  206POPC   PO4 2895   4.814   2.133   4.529  0.2583 -0.0074 -0.0829
  206POPC   GL1 2896   4.983   2.273   4.918 -0.0658  0.3599  0.1394
  206POPC   GL2 2897   4.982   2.038   5.125  0.3160 -0.0718 -0.1876
  206POPC   C1A 2898   5.074   2.470   5.371  0.1608  0.4703  0.1144
  206POPC   D2A 2899   5.117   2.817   5.638  0.1932  0.0703  0.1266
  206POPC   C3A 2900   5.299   2.720   6.033  0.0994 -0.2680 -0.0639
  206POPC   C4A 2901   5.286   2.869   6.514  0.2223 -0.0001 -0.0835
  206POPC   C1B 2902   5.022   2.054   5.672  0.0263 -0.3198 -0.0737
  206POPC   C2B 2903   5.067   2.202   6.120 -0.4354  0.0157  0.2531
  206POPC   C3B 2904   4.961   2.408   6.501 -0.0312 -0.2078  0.1454
  206POPC   C4B 2905   4.511   2.599   6.578  0.0176 -0.0545  0.0279
  207POPC   NC3 2906   2.142   1.404   4.227 -0.1297  0.0194  0.2436
  207POPC   PO4 2907   2.228   1.390   4.665 -0.0822  0.1077  0.2197
  207POPC   GL1 2908   2.112   1.093   5.010  0.2220 -0.0310 -0.3223
  207POPC   GL2 2909   2.350   1.130   5.228  0.0268 -0.0034  0.0157
  207POPC   C1A 2910   1.866   1.109   5.469  0.3281 -0.2199 -0.1213
  207POPC   D2A 2911   1.799   1.518   5.704  0.0932 -0.0584 -0.3629
  207POPC   C3A 2912   2.173   1.780   5.813 -0.2077 -0.1994 -0.0544
  207POPC   C4A 2913   2.438   2.124   5.981  0.1067  0.1744 -0.0686
  207POPC   C1B 2914   2.277   0.899   5.609 -0.0057  0.3953 -0.1568
  207POPC   C2B 2915   1.984   0.697   5.774 -0.1030 -0.0067 -0.2076
  207POPC   C3B 2916   1.829   0.574   6.208 -0.1751 -0.1035 -0.0843
  207POPC   C4B 2917   1.816   0.665   6.665  0.0140  0.1189 -0.0915
  208POPC   NC3 2918   7.017   1.975   3.956  0.5278  0.0991  0.3539
  208POPC   PO4 2919   6.715   2.206   4.215  0.0072  0.0217 -0.1539
  208POPC   GL1 2920   6.866   1.964   4.504 -0.3715  0.1685  0.2140
  208POPC   GL2 2921   6.793   1.618   4.538  0.1194 -0.2041  0.0965
  208POPC   C1A 2922   7.131   1.910   4.725 -0.4314 -0.2269  0.2457
  208POPC   D2A 2923   7.468   1.767   5.117 -0.2878 -0.1897 -0.0421
  208POPC   C3A 2924   7.774   1.975   5.376 -0.1206  0.0476  0.4010
  208POPC   C4A 2925   7.937   2.213   5.777  0.3291  0.5199  0.2268
  208POPC   C1B 2926   6.646   1.647   5.018 -0.1088  0.0349 -0.2347
  208POPC   C2B 2927   6.597   1.870   5.377  0.4646 -0.2146  0.0572
  208POPC   C3B 2928   6.425   1.802   5.767  0.3977 -0.0472 -0.2267
  208POPC   C4B 2929   6.547   2.023   6.100 -0.1277  0.0076  0.2933
  209POPC   NC3 2930   6.692   9.644   2.825  0.2001 -0.1087 -0.1025
  209POPC   PO4 2931   7.074   9.626   2.992 -0.2408  0.1752 -0.0199
  209POPC   GL1 2932   7.153   9.398   3.417  0.0868  0.0503 -0.3594
  209POPC   GL2 2933   6.988   9.129   3.545  0.1107 -0.0121  0.1460
  209POPC   C1A 2934   7.449   9.524   3.776 -0.2869  0.2391 -0.1164
  209POPC   D2A 2935   7.690   9.830   3.989  0.1447 -0.0869  0.1877
  209POPC   C3A 2936   8.085   9.919   3.981  0.0890 -0.1534 -0.1197
  209POPC   C4A 2937   8.225   9.693   4.287  0.0357  0.1623 -0.1866
  209POPC   C1B 2938   6.975   9.353   3.916  0.0056  0.1684  0.0353
  209POPC   C2B 2939   6.900   9.336   4.418  0.3468  0.0302  0.1915
  209POPC   C3B 2940   6.706   9.224   4.783  0.3214 -0.1440  0.1744
  209POPC   C4B 2941   6.740   8.928   5.065  0.0477 -0.3495  0.0976
  210POPC   NC3 2942   3.723   0.447   4.862  0.0641  0.1004 -0.0313
  210POPC   PO4 2943   3.589   0.870   4.881  0.0043  0.1989  0.1056
  210POPC   GL1 2944   3.526   0.669   5.293 -0.1698 -0.1839  0.1613
  210POPC   GL2 2945   3.360   0.430   5.240  0.0338  0.0101 -0.2374
  210POPC   C1A 2946   3.593   0.569   5.762 -0.0167 -0.1706  0.0681
  210POPC   D2A 2947   3.767   0.626   6.217  0.0512 -0.2098 -0.3075
  210POPC   C3A 2948   3.826   1.009   6.580  0.2268 -0.3641 -0.2165
  210POPC   C4A 2949   3.821   0.791   6.940  0.1136  0.0936 -0.2367
  210POPC   C1B 2950   3.116   0.548   5.606 -0.1700 -0.1204  0.1434
  210POPC   C2B 2951   3.154   0.513   6.087  0.0086 -0.1009 -0.2267
  210POPC   C3B 2952   3.023   0.358   6.503  0.3248  0.1376 -0.2075
  210POPC   C4B 2953   2.609   0.154   6.469  0.6284  0.1149 -0.0912
  211POPC   NC3 2954   6.024   4.170   4.348  0.1840 -0.3195  0.1434
  211POPC   PO4 2955   6.390   4.361   4.168  0.2055  0.2018  0.4037
  211POPC   GL1 2956   6.333   4.494   4.627 -0.0677  0.1663 -0.1264
  211POPC   GL2 2957   6.150   4.188   4.870  0.1451 -0.0327  0.2460
  211POPC   C1A 2958   6.353   4.807   4.915  0.0582  0.3743 -0.0769
  211POPC   D2A 2959   6.325   5.084   5.238  0.1591  0.0359  0.0336
  211POPC   C3A 2960   6.062   5.455   5.126 -0.0581 -0.0838 -0.1731
  211POPC   C4A 2961   5.755   5.725   4.978  0.0918  0.0341 -0.2724
  211POPC   C1B 2962   6.436   4.409   5.176 -0.0914  0.3765 -0.0145
  211POPC   C2B 2963   6.683   4.712   5.271  0.1912 -0.0192  0.1434
  211POPC   C3B 2964   6.962   4.724   5.613 -0.1698  0.1394  0.0841
  211POPC   C4B 2965   7.197   4.861   5.826 -0.0325  0.1784 -0.0626
  212POPC   NC3 2966   0.201   0.250   3.611 -0.0184  0.2140 -0.1819
  212POPC   PO4 2967   0.395   0.516   3.805 -0.1468 -0.3737  0.1273
  212POPC   GL1 2968   0.120   0.529   4.141 -0.0660 -0.0131 -0.2401
  212POPC   GL2 2969  -0.196   0.681   4.311  0.1628 -0.1601 -0.0799
  212POPC   C1A 2970   0.055   0.153   4.512 -0.0857 -0.0337  0.1549
  212POPC   D2A 2971   0.068  -0.140   4.807  0.1034  0.1609 -0.0600
  212POPC   C3A 2972  -0.180  -0.234   4.954  0.0043  0.1576 -0.1073
  212POPC   C4A 2973  -0.435  -0.193   5.263  0.0133 -0.2132 -0.0477
  212POPC   C1B 2974  -0.141   0.660   4.749 -0.0204 -0.0964 -0.0910
  212POPC   C2B 2975  -0.237   0.304   5.113 -0.1794 -0.4516 -0.0620
  212POPC   C3B 2976  -0.628   0.214   5.166 -0.0684 -0.1570  0.1222
  212POPC   C4B 2977  -0.900   0.267   5.269 -0.0916  0.1694  0.2612
  213POPC   NC3 2978   0.156   6.586   3.809 -0.1621 -0.0232 -0.2778
  213POPC   PO4 2979   0.445   6.273   3.885  0.3110 -0.3526 -0.5248
  213POPC   GL1 2980   0.299   6.458   4.322  0.0980 -0.2579 -0.0746
  213POPC   GL2 2981   0.500   6.310   4.649 -0.0337  0.2751 -0.1101
  213POPC   C1A 2982   0.120   6.658   4.787 -0.0512  0.3392 -0.1440
  213POPC   D2A 2983  -0.144   6.470   5.087  0.2787  0.1647 -0.0119
  213POPC   C3A 2984  -0.135   6.136   5.054  0.3136 -0.0100 -0.1481
  213POPC   C4A 2985   0.128   5.926   5.043 -0.1398  0.0999  0.1551
  213POPC   C1B 2986   0.472   6.311   5.129 -0.3347  0.0326  0.0223
  213POPC   C2B 2987   0.419   6.269   5.605 -0.3374 -0.0574  0.0915
  213POPC   C3B 2988   0.227   6.092   6.028  0.0157  0.1233  0.0710
  213POPC   C4B 2989  -0.178   6.120   6.332 -0.1753 -0.0691 -0.0485
  214POPC   NC3 2990   3.486   4.598   4.375  0.4826 -0.0970  0.0411
  214POPC   PO4 2991   2.985   4.723   4.335 -0.0357  0.3591  0.0644
  214POPC   GL1 2992   2.686   4.761   4.711 -0.2352  0.2231 -0.0463
  214POPC   GL2 2993   2.905   4.605   4.924  0.0382 -0.1708  0.0098
  214POPC   C1A 2994   2.628   5.122   5.006  0.3095 -0.0841  0.2570
  214POPC   D2A 2995   2.544   5.302   5.395  0.0392  0.0322 -0.2740
  214POPC   C3A 2996   2.204   5.327   5.645 -0.1660 -0.0950 -0.0567
  214POPC   C4A 2997   2.057   5.484   6.005  0.2392 -0.0023 -0.0488
  214POPC   C1B 2998   3.030   4.339   5.231 -0.1071 -0.1580 -0.3082
  214POPC   C2B 2999   2.963   4.205   5.681  0.0133 -0.2690  0.0527
  214POPC   C3B 3000   2.812   4.047   6.059  0.0902 -0.4547  0.1481
  214POPC   C4B 3001   2.716   3.535   6.127  0.1746  0.1720  0.0910
  215POPC   NC3 3002   2.557   9.734   4.810  0.1202  0.2735  0.0921
  215POPC   PO4 3003   2.181   9.947   4.638 -0.0180  0.4487 -0.2292
  215POPC   GL1 3004   2.029   9.678   4.941 -0.1422  0.0762  0.1547
  215POPC   GL2 3005   2.200   9.387   4.936  0.1837  0.2841 -0.2286
  215POPC   C1A 3006   1.911   9.825   5.351 -0.1626 -0.0088  0.2648
  215POPC   D2A 3007   1.719  10.237   5.538 -0.0814 -0.0806  0.3195
  215POPC   C3A 3008   1.594  10.266   5.915  0.0678 -0.0503  0.0952
  215POPC   C4A 3009   1.271  10.577   6.083 -0.0971  0.1414 -0.0267
  215POPC   C1B 3010   2.121   9.375   5.373  0.2380 -0.0367 -0.2536
  215POPC   C2B 3011   2.158   9.262   5.854 -0.0322  0.1744  0.2245
  215POPC   C3B 3012   2.377   9.191   6.175  0.0689  0.0539  0.3922
  215POPC   C4B 3013   2.737   9.167   6.440 -0.3141 -0.3459  0.4471
  216POPC   NC3 3014   3.671   1.989   4.486  0.0773  0.1899 -0.0566
  216POPC   PO4 3015   3.640   2.225   4.945 -0.1462  0.4900  0.2354
  216POPC   GL1 3016   3.727   2.225   5.426 -0.2481  0.0445  0.2870
  216POPC   GL2 3017   3.498   1.932   5.425  0.1203  0.2446  0.0918
  216POPC   C1A 3018   3.887   2.606   5.529 -0.0663  0.1671 -0.1412
  216POPC   D2A 3019   3.722   3.023   5.791  0.1669  0.1671 -0.1224
  216POPC   C3A 3020   4.025   3.182   6.082  0.2312  0.1257  0.0689
  216POPC   C4A 3021   4.324   3.022   6.304 -0.2088 -0.0763 -0.1893
  216POPC   C1B 3022   3.234   2.213   5.723 -0.2306  0.4632 -0.4104
  216POPC   C2B 3023   3.223   2.281   6.160  0.0324 -0.0457 -0.0448
  216POPC   C3B 3024   3.229   2.762   6.266  0.1841  0.1876 -0.4939
  216POPC   C4B 3025   3.563   2.981   6.302  0.0651  0.2438 -0.2055
  217POPC   NC3 3026   8.226   4.761   4.089 -0.1423  0.2773  0.1292
  217POPC   PO4 3027   7.716   5.016   4.022 -0.0664  0.0419 -0.2838
  217POPC   GL1 3028   7.502   4.905   4.543  0.1854 -0.1017  0.2359
  217POPC   GL2 3029   7.313   4.603   4.646  0.3237  0.1157  0.0589
  217POPC   C1A 3030   7.508   5.024   4.935  0.2373  0.2251  0.1085
  217POPC   D2A 3031   7.660   5.278   5.320 -0.1659 -0.0857  0.0181
  217POPC   C3A 3032   8.061   5.158   5.463 -0.2006 -0.1530  0.0074
  217POPC   C4A 3033   8.467   5.255   5.175 -0.3996  0.0176  0.0369
  217POPC   C1B 3034   6.817   4.524   4.779  0.0782  0.1163 -0.2842
  217POPC   C2B 3035   6.693   4.064   4.882 -0.0741 -0.1412  0.2108
  217POPC   C3B 3036   6.521   3.911   5.231 -0.0980  0.1289 -0.2949
  217POPC   C4B 3037   6.107   4.110   5.493 -0.3178  0.0916  0.0576
  218POPC   NC3 3038   1.567   9.269   4.015  0.0700  0.4323  0.0246
  218POPC   PO4 3039   1.719   8.961   4.380  0.1871 -0.3173  0.2283
  218POPC   GL1 3040   1.776   9.093   4.814 -0.2151 -0.2059  0.2412
  218POPC   GL2 3041   1.651   9.360   4.973  0.0374 -0.1973 -0.3010
  218POPC   C1A 3042   1.837   8.922   5.216 -0.0239  0.1605 -0.3908
  218POPC   D2A 3043   1.969   8.842   5.643  0.1368  0.3607  0.0686
  218POPC   C3A 3044   1.876   8.979   6.052  0.6299 -0.1756  0.1784
  218POPC   C4A 3045   1.751   9.266   6.249 -0.1447 -0.3008 -0.0429
  218POPC   C1B 3046   1.580   9.427   5.398 -0.1715  0.0769 -0.0309
  218POPC   C2B 3047   1.565   9.436   5.790 -0.1819 -0.1541  0.2328
  218POPC   C3B 3048   1.245   9.430   6.110  0.0035  0.4045 -0.1487
  218POPC   C4B 3049   1.320   9.379   6.463 -0.3538 -0.5745 -0.2055
  219POPC   NC3 3050   9.166   4.693   4.775  0.1493  0.2966  0.0652
  219POPC   PO4 3051   9.287   5.168   4.668 -0.2294 -0.3424  0.1013
  219POPC   GL1 3052   9.266   5.294   5.114  0.1515  0.4289 -0.0241
  219POPC   GL2 3053   9.289   5.013   5.132  0.1736 -0.5566 -0.0869
  219POPC   C1A 3054   9.218   5.451   5.498  0.0651  0.3278  0.1878
  219POPC   D2A 3055   9.213   5.452   5.894 -0.0163  0.0602  0.1903
  219POPC   C3A 3056   9.495   5.568   6.280  0.2901 -0.6308  0.0745
  219POPC   C4A 3057   9.890   5.556   6.213  0.0786  0.2004 -0.1369
  219POPC   C1B 3058   9.418   4.580   5.410  0.0460 -0.4128  0.1568
  219POPC   C2B 3059   9.338   4.438   5.799  0.1255  0.1215  0.0273
  219POPC   C3B 3060   9.063   4.056   6.028  0.0411  0.1408  0.0298
  219POPC   C4B 3061   8.960   3.948   6.475 -0.0234 -0.2159 -0.0650
  220POPC   NC3 3062   9.255   1.648   3.775  0.2035 -0.2443 -0.0833
  220POPC   PO4 3063   8.858   1.920   3.665  0.0514 -0.1286  0.2515
  220POPC   GL1 3064   8.930   1.814   4.147 -0.0259  0.0681 -0.1546
  220POPC   GL2 3065   8.948   1.410   4.234 -0.0741 -0.0265  0.1434
  220POPC   C1A 3066   8.933   1.682   4.624 -0.0923  0.2492  0.1040
  220POPC   D2A 3067   9.051   1.590   5.095  0.3059 -0.0681 -0.2671
  220POPC   C3A 3068   8.843   1.408   5.420  0.1331 -0.2425 -0.0037
  220POPC   C4A 3069   8.729   1.043   5.671 -0.0782  0.0368  0.0547
  220POPC   C1B 3070   8.499   1.347   4.056 -0.3952  0.1048 -0.1518
  220POPC   C2B 3071   8.353   1.082   3.678 -0.0375  0.0543  0.1924
  220POPC   C3B 3072   8.484   0.601   3.554  0.1709 -0.1549 -0.0242
  220POPC   C4B 3073   8.587   0.278   3.798  0.1286  0.0148 -0.0499
  221POPC   NC3 3074   5.144   4.005   3.856 -0.2432 -0.3147  0.1528
  221POPC   PO4 3075   5.045   4.187   4.267 -0.1518  0.3608  0.0267
  221POPC   GL1 3076   5.166   4.142   4.701 -0.1713  0.0433 -0.0915
  221POPC   GL2 3077   5.074   3.928   4.862 -0.2853  0.2127 -0.1248
  221POPC   C1A 3078   5.320   4.369   5.081 -0.1564 -0.0682  0.0142
  221POPC   D2A 3079   5.464   4.684   5.395  0.0761 -0.2482 -0.2843
  221POPC   C3A 3080   5.420   4.708   5.892 -0.0570  0.1656 -0.0891
  221POPC   C4A 3081   5.238   4.445   6.229 -0.1251 -0.1292  0.0833
  221POPC   C1B 3082   5.131   3.920   5.355 -0.1651 -0.0422 -0.2782
  221POPC   C2B 3083   5.341   3.669   5.769  0.3755  0.0282 -0.4599
  221POPC   C3B 3084   5.616   3.480   6.088 -0.0008 -0.3593 -0.2354
  221POPC   C4B 3085   5.669   3.036   6.304  0.2833  0.5369  0.2389
  222POPC   NC3 3086   5.379   1.189   4.086  0.0904  0.1635  0.0442
  222POPC   PO4 3087   5.752   1.183   4.311 -0.2124 -0.1485 -0.2782
  222POPC   GL1 3088   6.155   1.347   4.730  0.0007 -0.0031  0.2166
  222POPC   GL2 3089   6.216   1.679   4.759 -0.0427  0.0223 -0.1353
  222POPC   C1A 3090   6.576   1.187   4.796  0.3052 -0.2606 -0.1043
  222POPC   D2A 3091   6.820   1.122   5.135 -0.2583 -0.1099 -0.4332
  222POPC   C3A 3092   6.805   1.317   5.517  0.0849  0.3261  0.3215
  222POPC   C4A 3093   7.098   1.381   5.825 -0.1288 -0.3348  0.2331
  222POPC   C1B 3094   6.153   1.764   5.156 -0.1280  0.0692  0.0976
  222POPC   C2B 3095   6.045   2.028   5.529  0.0348 -0.0021  0.1146
  222POPC   C3B 3096   6.022   2.105   5.994  0.1907 -0.1865 -0.2518
  222POPC   C4B 3097   5.913   2.175   6.453  0.0296 -0.1044 -0.1992
  223POPC   NC3 3098   3.487   3.289   4.464 -0.2513 -0.1293 -0.0265
  223POPC   PO4 3099   3.701   2.981   4.601 -0.0541  0.0206  0.0813
  223POPC   GL1 3100   3.615   2.940   5.038 -0.2186  0.0819 -0.2170
  223POPC   GL2 3101   3.548   2.683   5.062 -0.1542  0.4021  0.1367
  223POPC   C1A 3102   3.652   3.221   5.322 -0.3489 -0.1728  0.0891
  223POPC   D2A 3103   3.422   3.494   5.501 -0.3299 -0.2628  0.2539
  223POPC   C3A 3104   3.674   3.546   5.941  0.0252 -0.0334 -0.2220
  223POPC   C4A 3105   4.068   3.739   6.191  0.0153 -0.4620  0.3478
  223POPC   C1B 3106   3.408   2.617   5.451 -0.0176 -0.2913  0.2704
  223POPC   C2B 3107   3.041   2.708   5.826  0.1241  0.2186  0.0431
  223POPC   C3B 3108   2.783   2.974   6.122 -0.2208  0.2082 -0.2944
  223POPC   C4B 3109   2.335   3.029   6.200 -0.0369 -0.4529 -0.0434
  224POPC   NC3 3110   2.184   9.081   4.552  0.1229 -0.5100 -0.1997
  224POPC   PO4 3111   2.588   9.176   4.624  0.1568  0.1427  0.2428
  224POPC   GL1 3112   2.689   9.057   5.068 -0.0713 -0.0012  0.2257
  224POPC   GL2 3113   2.608   9.381   5.224  0.2184 -0.1503 -0.0540
  224POPC   C1A 3114   2.893   9.121   5.450  0.0602  0.0828  0.0467
  224POPC   D2A 3115   2.922   9.200   5.845 -0.3076  0.2061  0.1150
  224POPC   C3A 3116   2.733   9.510   6.053  0.2697  0.1497  0.4458
  224POPC   C4A 3117   2.366   9.766   6.187 -0.2173 -0.1996  0.1060
  224POPC   C1B 3118   2.555   9.537   5.547 -0.0360 -0.2295  0.0743
  224POPC   C2B 3119   2.369   9.799   5.704  0.1464  0.0600 -0.1748
  224POPC   C3B 3120   1.861   9.839   5.886 -0.1241  0.1203  0.2081
  224POPC   C4B 3121   1.617   9.759   6.183 -0.1532 -0.0644 -0.2849
  225POPC   NC3 3122   4.405   8.713   4.551 -0.1781 -0.2687  0.1124
  225POPC   PO4 3123   4.141   8.973   4.759 -0.0459 -0.0362 -0.1969
  225POPC   GL1 3124   4.114   8.917   5.217 -0.0584 -0.2008  0.5040
  225POPC   GL2 3125   3.820   8.957   5.335 -0.3127  0.2267 -0.3014
  225POPC   C1A 3126   4.383   8.664   5.444  0.0211 -0.1516 -0.1463
  225POPC   D2A 3127   4.472   8.478   5.815 -0.1842 -0.2477  0.0385
  225POPC   C3A 3128   4.622   8.417   6.206  0.1443 -0.0063  0.0667
  225POPC   C4A 3129   5.045   8.593   6.433  0.2188  0.0100 -0.3067
  225POPC   C1B 3130   3.838   8.811   5.789 -0.4122  0.2855 -0.0908
  225POPC   C2B 3131   3.718   8.528   6.197 -0.2054 -0.2621  0.1046
  225POPC   C3B 3132   3.611   8.530   6.601  0.4512 -0.3075 -0.1550
  225POPC   C4B 3133   3.553   8.678   7.039  0.1578 -0.0298  0.3555
  226POPC   NC3 3134   5.146   3.671   4.291  0.1557  0.0677  0.0153
  226POPC   PO4 3135   5.521   3.930   4.425  0.2256  0.1892  0.0572
  226POPC   GL1 3136   5.727   3.796   4.825  0.2158 -0.0368 -0.1058
  226POPC   GL2 3137   5.515   3.769   5.020 -0.0130  0.0589 -0.0423
  226POPC   C1A 3138   6.016   3.772   5.161  0.1134  0.1634 -0.2639
  226POPC   D2A 3139   6.315   3.422   5.261 -0.1868 -0.3649  0.0137
  226POPC   C3A 3140   6.361   3.467   5.703  0.0494  0.0186 -0.0450
  226POPC   C4A 3141   6.288   3.889   5.869  0.0610  0.1179  0.0082
  226POPC   C1B 3142   5.640   4.052   5.330  0.1192  0.0569 -0.2259
  226POPC   C2B 3143   5.381   4.219   5.721 -0.2697  0.3221 -0.0604
  226POPC   C3B 3144   4.898   4.094   5.881 -0.2694 -0.0575 -0.1313
  226POPC   C4B 3145   4.925   3.580   6.070  0.1637  0.2005  0.3332
  227POPC   NC3 3146   5.325   2.440   4.640  0.0104  0.1480 -0.2694
  227POPC   PO4 3147   5.287   2.026   4.498  0.2661 -0.3490  0.2282
  227POPC   GL1 3148   5.428   1.992   4.902 -0.2306 -0.2063 -0.0643
  227POPC   GL2 3149   5.444   2.237   5.135  0.2242 -0.1856  0.0361
  227POPC   C1A 3150   5.612   1.858   5.407 -0.0817 -0.1328 -0.1749
  227POPC   D2A 3151   5.566   1.865   5.829  0.0139 -0.0543 -0.0174
  227POPC   C3A 3152   5.412   1.948   6.337  0.1646 -0.3072  0.0646
  227POPC   C4A 3153   5.017   1.843   6.497  0.0143 -0.0566 -0.1864
  227POPC   C1B 3154   5.458   2.400   5.618 -0.1238 -0.0989  0.0483
  227POPC   C2B 3155   5.586   2.342   6.098  0.0722 -0.0436  0.0118
  227POPC   C3B 3156   5.468   2.406   6.488  0.0917  0.4109  0.1385
  227POPC   C4B 3157   5.339   2.569   6.860  0.1493  0.2207  0.0241
  228POPC   NC3 3158   7.846   0.404   2.819 -0.0454 -0.1928 -0.1820
  228POPC   PO4 3159   7.661   0.774   3.117  0.2414  0.0567 -0.2631
  228POPC   GL1 3160   7.834   0.716   3.637  0.1013 -0.0630  0.1992
  228POPC   GL2 3161   7.948   0.478   3.764 -0.0159  0.2189 -0.4093
  228POPC   C1A 3162   7.989   0.975   3.979 -0.1263  0.1474  0.0487
  228POPC   D2A 3163   8.254   0.835   4.238 -0.2445  0.1398  0.1085
  228POPC   C3A 3164   8.341   0.566   4.576  0.1505 -0.0663  0.0491
  228POPC   C4A 3165   8.647   0.495   4.958  0.3344  0.0774 -0.1912
  228POPC   C1B 3166   7.812   0.553   4.251  0.0121 -0.1994  0.0942
  228POPC   C2B 3167   7.801   0.510   4.664  0.0078  0.2466  0.1102
  228POPC   C3B 3168   7.692   0.115   4.943 -0.0245  0.0615  0.2548
  228POPC   C4B 3169   7.547  -0.314   5.021  0.0646 -0.1027  0.2069
  229POPC   NC3 3170   5.573   0.610   4.115 -0.0949 -0.1300  0.1617
  229POPC   PO4 3171   5.488   0.731   4.457 -0.0680  0.0970  0.3775
  229POPC   GL1 3172   5.549   0.890   4.830 -0.0052 -0.1904 -0.0358
  229POPC   GL2 3173   5.692   1.203   4.840  0.1864  0.1251 -0.1949
  229POPC   C1A 3174   5.534   0.946   5.233 -0.1174  0.1001 -0.0902
  229POPC   D2A 3175   5.562   0.738   5.634  0.0590  0.2401 -0.0909
  229POPC   C3A 3176   5.734   0.881   6.063  0.1110  0.4037 -0.2807
  229POPC   C4A 3177   5.753   1.356   6.131  0.2304 -0.0865 -0.2484
  229POPC   C1B 3178   5.917   1.338   5.249  0.0549  0.2343  0.0004
  229POPC   C2B 3179   6.024   1.531   5.694  0.1128  0.0049  0.0201
  229POPC   C3B 3180   6.171   1.626   6.126 -0.1459 -0.2166 -0.1190
  229POPC   C4B 3181   6.193   1.276   6.440 -0.1639 -0.0657  0.0164
  230POPC   NC3 3182   8.853   6.677   3.522  0.2634 -0.1764 -0.0786
  230POPC   PO4 3183   8.683   6.839   3.850  0.2012  0.1109  0.2050
  230POPC   GL1 3184   8.335   7.205   4.015  0.0088 -0.0073  0.2330
  230POPC   GL2 3185   8.131   7.209   4.417  0.1129 -0.4015  0.0212
  230POPC   C1A 3186   8.335   7.682   4.224 -0.2686  0.0162 -0.1693
  230POPC   D2A 3187   8.070   7.823   4.586  0.2546  0.1476 -0.1784
  230POPC   C3A 3188   7.981   8.071   4.913  0.0483  0.2316  0.3108
  230POPC   C4A 3189   7.713   8.272   5.363 -0.1692  0.0894  0.1271
  230POPC   C1B 3190   8.430   7.469   4.674 -0.1610 -0.1348 -0.3196
  230POPC   C2B 3191   8.504   7.797   4.948  0.2638  0.2525 -0.1265
  230POPC   C3B 3192   8.819   7.879   5.330 -0.2233 -0.1201 -0.0737
  230POPC   C4B 3193   9.157   7.806   5.592 -0.1204  0.0484 -0.0399
  231POPC   NC3 3194   5.875   2.174   4.713  0.3270  0.0819  0.0254
  231POPC   PO4 3195   5.798   2.554   4.519 -0.2784  0.0982  0.2098
  231POPC   GL1 3196   5.805   2.637   4.898 -0.3163  0.1042 -0.2824
  231POPC   GL2 3197   5.897   2.917   5.008  0.3325 -0.0147 -0.0132
  231POPC   C1A 3198   5.921   2.484   5.350 -0.1075 -0.1496  0.2471
  231POPC   D2A 3199   6.120   2.496   5.690  0.2481  0.1704 -0.1152
  231POPC   C3A 3200   5.989   2.701   6.067 -0.2268  0.0926 -0.1297
  231POPC   C4A 3201   5.952   2.662   6.541  0.0598  0.2352 -0.0245
  231POPC   C1B 3202   5.882   3.180   5.342  0.2387 -0.2758  0.0884
  231POPC   C2B 3203   5.885   3.634   5.619 -0.3526 -0.0893 -0.2526
  231POPC   C3B 3204   5.843   3.948   5.930 -0.0762  0.0545 -0.2582
  231POPC   C4B 3205   5.726   4.368   6.134 -0.1553 -0.1352  0.0959
  232POPC   NC3 3206   7.078   0.210   3.287 -0.0111  0.3200  0.3596
  232POPC   PO4 3207   6.776   0.018   3.285  0.0633  0.0238  0.1899
  232POPC   GL1 3208   7.070  -0.097   3.660 -0.1881 -0.0357  0.0588
  232POPC   GL2 3209   7.359   0.139   3.706  0.0110  0.0247 -0.0429
  232POPC   C1A 3210   7.073  -0.142   4.063 -0.1785 -0.0503  0.2069
  232POPC   D2A 3211   7.209  -0.255   4.447  0.2064 -0.1802 -0.0311
  232POPC   C3A 3212   7.692  -0.224   4.507 -0.0557  0.0459 -0.0559
  232POPC   C4A 3213   7.978   0.127   4.462 -0.0017  0.2951  0.0070
  232POPC   C1B 3214   7.394   0.212   4.170  0.0289  0.0570  0.2360
  232POPC   C2B 3215   7.063   0.206   4.533 -0.1808  0.0592 -0.0612
  232POPC   C3B 3216   6.931   0.348   4.970  0.2725 -0.2084  0.0474
  232POPC   C4B 3217   7.275   0.382   5.239 -0.3268  0.2599  0.0685
  233POPC   NC3 3218   0.433   3.632   4.557  0.2338  0.1573  0.1333
  233POPC   PO4 3219   0.094   3.829   4.482  0.1523 -0.1953  0.3400
  233POPC   GL1 3220  -0.109   3.704   4.697 -0.0954 -0.2571 -0.0984
  233POPC   GL2 3221   0.214   3.808   4.990 -0.0897 -0.2230 -0.2281
  233POPC   C1A 3222  -0.358   3.742   5.169  0.2530 -0.1766  0.0586
  233POPC   D2A 3223  -0.448   3.973   5.651  0.2397 -0.4705 -0.0540
  233POPC   C3A 3224  -0.168   4.261   5.705 -0.0286  0.0629  0.0669
  233POPC   C4A 3225   0.139   4.650   5.748 -0.1267 -0.4640  0.2601
  233POPC   C1B 3226   0.664   3.682   5.195 -0.1330  0.0503 -0.3998
  233POPC   C2B 3227   1.059   3.709   5.397 -0.0533 -0.1779  0.0569
  233POPC   C3B 3228   1.249   3.811   5.800  0.0208 -0.3082  0.0875
  233POPC   C4B 3229   1.431   3.825   6.226  0.3825  0.2903 -0.1722
  234POPC   NC3 3230   5.827   8.533   4.053 -0.1732 -0.0901  0.0904
  234POPC   PO4 3231   5.701   8.153   4.100 -0.3595 -0.1262 -0.1663
  234POPC   GL1 3232   5.670   7.954   4.537 -0.3491  0.3015 -0.2059
  234POPC   GL2 3233   5.675   8.232   4.752  0.0066 -0.0808 -0.3688
  234POPC   C1A 3234   5.623   7.834   5.064 -0.1875 -0.2956  0.1413
  234POPC   D2A 3235   5.669   7.791   5.452  0.3561 -0.1244  0.1664
  234POPC   C3A 3236   5.698   8.288   5.697 -0.1002 -0.2716 -0.0013
  234POPC   C4A 3237   5.905   8.350   5.994  0.0419 -0.1576 -0.4119
  234POPC   C1B 3238   5.669   8.389   5.204  0.1077 -0.0560  0.0543
  234POPC   C2B 3239   5.395   8.609   5.507 -0.3562  0.0010 -0.2609
  234POPC   C3B 3240   5.309   8.973   5.626  0.0604 -0.0814  0.2340
  234POPC   C4B 3241   5.096   9.386   5.547 -0.3949  0.0862 -0.1349
  235POPC   NC3 3242   4.640   0.937   4.467  0.0148  0.1191  0.3351
  235POPC   PO4 3243   4.734   1.280   4.670 -0.0872  0.2134  0.1372
  235POPC   GL1 3244   4.907   1.302   5.092  0.0459 -0.2087 -0.1791
  235POPC   GL2 3245   5.257   1.321   5.130 -0.1258 -0.3718  0.1117
  235POPC   C1A 3246   5.112   1.085   5.516  0.2473  0.1392 -0.0406
  235POPC   D2A 3247   5.226   1.020   5.999  0.1211 -0.1469 -0.1374
  235POPC   C3A 3248   5.109   0.606   6.219 -0.1537  0.0650 -0.1839
  235POPC   C4A 3249   4.710   0.365   6.130 -0.2166 -0.1471 -0.2167
  235POPC   C1B 3250   5.188   1.607   5.434 -0.1543  0.0542  0.0280
  235POPC   C2B 3251   5.122   1.628   5.915 -0.3160  0.0610  0.0367
  235POPC   C3B 3252   5.219   1.386   6.331  0.4113  0.3278 -0.1599
  235POPC   C4B 3253   5.236   1.018   6.608  0.3235 -0.0608  0.5378
  236POPC   NC3 3254   3.927   9.957   4.121  0.0509  0.0032  0.0490
  236POPC   PO4 3255   4.147  10.150   4.511 -0.1602  0.1203  0.1662
  236POPC   GL1 3256   4.256  10.310   4.953  0.1923 -0.0338  0.0446
  236POPC   GL2 3257   4.303  10.033   5.227  0.1323 -0.0796 -0.4843
  236POPC   C1A 3258   4.177  10.474   5.455 -0.0938  0.0343  0.1305
  236POPC   D2A 3259   4.298  10.440   5.881 -0.2525  0.0550 -0.3830
  236POPC   C3A 3260   4.408  10.696   6.189 -0.0595 -0.1713  0.2285
  236POPC   C4A 3261   4.303  11.091   6.449  0.1387 -0.2228 -0.2311
  236POPC   C1B 3262   4.172   9.763   5.534  0.0871 -0.1955  0.0241
  236POPC   C2B 3263   3.912   9.684   5.901  0.1012 -0.1447 -0.1986
  236POPC   C3B 3264   3.682   9.348   6.093  0.0756  0.1446 -0.1816
  236POPC   C4B 3265   3.695   9.076   6.332 -0.2644 -0.1242 -0.3686
  237POPC   NC3 3266   1.340   9.740   4.601 -0.2349 -0.2146  0.0027
  237POPC   PO4 3267   1.681   9.925   4.661  0.0788  0.0234 -0.0409
  237POPC   GL1 3268   1.479   9.813   5.095  0.0742  0.1405 -0.1381
  237POPC   GL2 3269   1.087   9.856   5.033 -0.3239 -0.1008 -0.0705
  237POPC   C1A 3270   1.340   9.904   5.509 -0.0461 -0.0220  0.1474
  237POPC   D2A 3271   1.174   9.850   5.895 -0.1281 -0.3528  0.1751
  237POPC   C3A 3272   1.170  10.115   6.261 -0.1338 -0.0005  0.3044
  237POPC   C4A 3273   1.470  10.314   6.560 -0.0068 -0.0287  0.0464
  237POPC   C1B 3274   0.782   9.974   5.408 -0.1133 -0.2893 -0.2287
  237POPC   C2B 3275   0.738   9.754   5.792 -0.0754 -0.0388 -0.3286
  237POPC   C3B 3276   0.831   9.772   6.289 -0.1835  0.0284 -0.0950
  237POPC   C4B 3277   0.718  10.027   6.604 -0.0718 -0.0614 -0.2332
  238POPC   NC3 3278   4.139   5.373   4.506  0.2996  0.4675  0.2141
  238POPC   PO4 3279   3.764   5.013   4.349  0.2888  0.0505 -0.0083
  238POPC   GL1 3280   3.893   4.990   4.700  0.3153  0.0383 -0.1463
  238POPC   GL2 3281   3.842   5.343   4.987  0.0214  0.1199 -0.2269
  238POPC   C1A 3282   4.069   4.826   5.114 -0.2557  0.0777 -0.1103
  238POPC   D2A 3283   4.287   4.871   5.562 -0.0997 -0.0492  0.0071
  238POPC   C3A 3284   4.468   4.779   5.985 -0.0835 -0.1465 -0.2239
  238POPC   C4A 3285   4.707   4.530   6.040 -0.2631 -0.0383  0.0854
  238POPC   C1B 3286   3.560   5.159   5.333 -0.0433  0.1190 -0.1053
  238POPC   C2B 3287   3.788   4.856   5.557 -0.1802 -0.3164 -0.0054
  238POPC   C3B 3288   3.986   5.010   5.897 -0.0443  0.1558 -0.0994
  238POPC   C4B 3289   4.083   4.879   6.302 -0.0916  0.1856  0.0622
  239POPC   NC3 3290   9.804   1.860   3.388  0.0932  0.0069 -0.2256
  239POPC   PO4 3291   9.588   2.010   3.773  0.0069 -0.0515 -0.0392
  239POPC   GL1 3292   9.423   1.896   4.243  0.0267  0.3517  0.2889
  239POPC   GL2 3293   9.709   1.622   4.383  0.0434 -0.0244  0.0106
  239POPC   C1A 3294   9.482   1.963   4.682  0.2005 -0.1772  0.1737
  239POPC   D2A 3295   9.395   1.939   5.169 -0.3656 -0.0953  0.0954
  239POPC   C3A 3296   9.378   1.690   5.420  0.2096 -0.0556 -0.1988
  239POPC   C4A 3297   9.235   1.379   5.754  0.0610  0.0191 -0.0936
  239POPC   C1B 3298   9.492   1.454   4.596 -0.0058 -0.0309  0.1070
  239POPC   C2B 3299   9.029   1.235   4.721 -0.0305  0.0125 -0.1380
  239POPC   C3B 3300   8.907   1.004   5.086  0.0783 -0.1570 -0.1817
  239POPC   C4B 3301   8.845   0.677   5.376 -0.2041  0.1754 -0.2304
  240POPC   NC3 3302   3.373   9.505   4.700  0.1894  0.2378 -0.3100
  240POPC   PO4 3303   3.000   9.389   4.773  0.0093  0.5079 -0.2535
  240POPC   GL1 3304   3.066   9.568   5.177  0.2128  0.1617  0.1272
  240POPC   GL2 3305   2.881   9.819   5.167 -0.0528  0.1159 -0.2140
  240POPC   C1A 3306   3.116   9.571   5.576 -0.0740 -0.2160 -0.0066
  240POPC   D2A 3307   3.261   9.593   5.968  0.2538 -0.5557 -0.0348
  240POPC   C3A 3308   3.194   9.191   6.243 -0.0493 -0.0858 -0.0867
  240POPC   C4A 3309   3.269   8.952   6.616 -0.3415 -0.1748 -0.0593
  240POPC   C1B 3310   2.823  10.018   5.506  0.1076 -0.4020 -0.0791
  240POPC   C2B 3311   2.799  10.063   5.909 -0.0387  0.1491 -0.0380
  240POPC   C3B 3312   2.617  10.392   5.998 -0.1585  0.1679 -0.0876
  240POPC   C4B 3313   2.317  10.735   6.110 -0.0132 -0.1355  0.0597
  241POPC   NC3 3314   1.165   6.574   3.834 -0.1801 -0.0064  0.1207
  241POPC   PO4 3315   1.204   7.033   3.881  0.0705  0.0123 -0.1211
  241POPC   GL1 3316   1.076   6.900   4.257  0.0131 -0.0194  0.5523
  241POPC   GL2 3317   1.120   7.227   4.433 -0.0171 -0.0500 -0.1084
  241POPC   C1A 3318   0.754   6.785   4.597  0.0041 -0.1846  0.1485
  241POPC   D2A 3319   0.625   6.741   5.148  0.2607 -0.3341 -0.0937
  241POPC   C3A 3320   0.202   6.682   5.377  0.1489  0.2755  0.2158
  241POPC   C4A 3321  -0.113   6.913   5.722 -0.1220 -0.0646 -0.2265
  241POPC   C1B 3322   1.169   7.385   4.874 -0.0367 -0.0770  0.0727
  241POPC   C2B 3323   1.123   7.473   5.334 -0.1551  0.0598 -0.0262
  241POPC   C3B 3324   0.875   7.676   5.532  0.0707  0.1908 -0.2900
  241POPC   C4B 3325   0.445   7.819   5.588 -0.0680 -0.0085 -0.0723
  242POPC   NC3 3326   1.955   3.412   4.305 -0.0487  0.1823  0.2114
  242POPC   PO4 3327   2.244   3.111   4.115  0.0796  0.0601 -0.0164
  242POPC   GL1 3328   2.294   3.192   4.591 -0.1660  0.2481  0.4361
  242POPC   GL2 3329   2.192   3.222   4.827  0.0092  0.0896  0.0743
  242POPC   C1A 3330   2.653   3.455   4.831  0.3864 -0.1365  0.0267
  242POPC   D2A 3331   2.859   3.437   5.268 -0.1605 -0.4028 -0.3233
  242POPC   C3A 3332   2.700   3.863   5.304  0.1623 -0.1465 -0.0727
  242POPC   C4A 3333   2.457   4.232   5.530 -0.1780 -0.0751 -0.0039
  242POPC   C1B 3334   2.329   3.410   5.209 -0.1906  0.1549  0.3917
  242POPC   C2B 3335   2.481   3.648   5.651  0.1818  0.5381  0.0445
  242POPC   C3B 3336   2.346   3.926   5.978  0.1508  0.1472  0.0924
  242POPC   C4B 3337   2.283   4.225   6.258 -0.3854 -0.0895  0.4824
  243POPC   NC3 3338   2.994   8.364   4.775 -0.2518  0.2650  0.1314
  243POPC   PO4 3339   3.432   8.454   4.757  0.1433  0.2469  0.0994
  243POPC   GL1 3340   3.257   8.609   5.119 -0.0488 -0.1285  0.0242
  243POPC   GL2 3341   3.544   8.554   5.327  0.2625 -0.1786 -0.0046
  243POPC   C1A 3342   3.095   8.645   5.516  0.4571 -0.0711  0.1307
  243POPC   D2A 3343   2.893   8.714   5.878  0.1705 -0.1591  0.1505
  243POPC   C3A 3344   2.516   8.858   5.795 -0.1072 -0.2488 -0.0396
  243POPC   C4A 3345   2.417   8.985   5.466  0.0774  0.1952  0.1054
  243POPC   C1B 3346   3.502   8.340   5.754  0.4105 -0.1071 -0.0196
  243POPC   C2B 3347   3.117   8.160   6.010 -0.0814 -0.1802 -0.1106
  243POPC   C3B 3348   2.868   7.822   6.132  0.1916 -0.1134 -0.0551
  243POPC   C4B 3349   2.814   7.535   6.520  0.1983 -0.2722 -0.1525
  244POPC   NC3 3350   8.228   3.095   4.459 -0.0170 -0.1070  0.0160
  244POPC   PO4 3351   7.767   2.997   4.379  0.1931  0.1467 -0.1392
  244POPC   GL1 3352   7.837   2.722   4.753 -0.2339  0.0576  0.1190
  244POPC   GL2 3353   7.898   3.070   4.858 -0.2687 -0.3090  0.4016
  244POPC   C1A 3354   8.174   2.744   5.092  0.0066  0.0441  0.0198
  244POPC   D2A 3355   8.567   2.942   5.260 -0.1928  0.1284 -0.1156
  244POPC   C3A 3356   8.902   2.674   5.146  0.0536  0.1047 -0.2890
  244POPC   C4A 3357   9.420   2.755   5.132 -0.0271 -0.1755 -0.0153
  244POPC   C1B 3358   7.675   3.052   5.287 -0.2102  0.0707 -0.2333
  244POPC   C2B 3359   7.514   2.979   5.708  0.0891  0.0123 -0.2524
  244POPC   C3B 3360   7.451   2.600   5.937  0.1587  0.1347 -0.0034
  244POPC   C4B 3361   7.264   2.643   6.398  0.1196  0.3303  0.1648
  245POPC   NC3 3362   0.142   8.396   3.684 -0.1046 -0.2588  0.1474
  245POPC   PO4 3363   0.169   8.807   3.500 -0.1459 -0.1348 -0.1224
  245POPC   GL1 3364  -0.074   8.813   3.851 -0.2248  0.0687 -0.0338
  245POPC   GL2 3365  -0.407   8.837   3.931  0.1952 -0.0476 -0.1489
  245POPC   C1A 3366  -0.160   9.118   4.190 -0.1092 -0.1647  0.0673
  245POPC   D2A 3367  -0.209   9.234   4.580  0.0018  0.0053  0.1123
  245POPC   C3A 3368   0.133   9.360   4.876  0.2265 -0.1928 -0.1080
  245POPC   C4A 3369   0.228   9.090   5.115 -0.2703  0.0443 -0.0901
  245POPC   C1B 3370  -0.487   8.830   4.399 -0.1586  0.3533 -0.0841
  245POPC   C2B 3371  -0.580   8.683   4.841 -0.2083 -0.2585 -0.3090
  245POPC   C3B 3372  -0.698   8.881   5.208  0.4109 -0.2634 -0.1384
  245POPC   C4B 3373  -0.977   9.178   5.489  0.2794  0.2074 -0.1661
  246POPC   NC3 3374   0.408   1.517   4.763  0.2946 -0.1272  0.1097
  246POPC   PO4 3375   0.151   1.795   4.545 -0.0612  0.1021 -0.2131
  246POPC   GL1 3376   0.016   1.826   4.969  0.0350 -0.0725  0.3098
  246POPC   GL2 3377   0.229   1.788   5.176 -0.3326  0.1213 -0.0229
  246POPC   C1A 3378  -0.114   1.512   5.392  0.2332 -0.1413  0.2447
  246POPC   D2A 3379  -0.295   1.586   5.817  0.2772 -0.1273  0.3474
  246POPC   C3A 3380  -0.454   1.975   5.868  0.0474  0.3126  0.1788
  246POPC   C4A 3381  -0.821   2.126   6.033  0.1110  0.0956  0.0635
  246POPC   C1B 3382   0.043   1.963   5.598 -0.1563  0.0293 -0.0597
  246POPC   C2B 3383   0.049   1.929   6.018 -0.0549  0.0046  0.2377
  246POPC   C3B 3384  -0.212   2.144   6.347  0.1021  0.0116  0.2226
  246POPC   C4B 3385  -0.556   2.088   6.520  0.1736 -0.2887 -0.0633
  247POPC   NC3 3386   2.217   0.474   4.830 -0.0870 -0.1474 -0.0433
  247POPC   PO4 3387   2.469   0.673   4.975 -0.1928 -0.0310  0.2021
  247POPC   GL1 3388   2.713   0.723   5.320 -0.0973 -0.1798  0.2643
  247POPC   GL2 3389   2.655   0.546   5.484  0.1326  0.2263  0.1358
  247POPC   C1A 3390   2.718   0.887   5.821  0.0233 -0.3977  0.3093
  247POPC   D2A 3391   2.824   0.864   6.247  0.2264  0.3197  0.0652
  247POPC   C3A 3392   2.632   0.770   6.579 -0.0720 -0.0635  0.2354
  247POPC   C4A 3393   2.320   0.621   6.825 -0.0553 -0.0341 -0.1866
  247POPC   C1B 3394   2.313   0.295   5.633  0.1910  0.0309 -0.0329
  247POPC   C2B 3395   2.139   0.222   6.060  0.1322 -0.1978  0.0790
  247POPC   C3B 3396   1.938   0.115   6.367  0.0108 -0.3367 -0.3402
  247POPC   C4B 3397   2.161   0.048   6.795  0.0081 -0.1787  0.2295
  248POPC   NC3 3398   3.314   5.778   4.418  0.1409  0.1428 -0.0412
  248POPC   PO4 3399   3.848   5.710   4.282 -0.2620  0.0076  0.2922
  248POPC   GL1 3400   3.990   5.841   4.677 -0.2891 -0.2283  0.0550
  248POPC   GL2 3401   4.080   5.751   4.865  0.1521  0.0219  0.0680
  248POPC   C1A 3402   3.954   6.180   5.045  0.0649 -0.0404 -0.0849
  248POPC   D2A 3403   3.966   6.355   5.351  0.2901  0.2945 -0.2303
  248POPC   C3A 3404   3.945   6.235   5.765 -0.0213  0.0226 -0.1046
  248POPC   C4A 3405   3.673   6.388   6.198 -0.2803 -0.0551  0.0397
  248POPC   C1B 3406   4.430   5.793   5.036 -0.0055 -0.3366  0.3796
  248POPC   C2B 3407   4.743   5.721   5.434 -0.3619 -0.0663  0.1688
  248POPC   C3B 3408   5.185   5.666   5.373 -0.0355  0.0975 -0.1110
  248POPC   C4B 3409   5.554   5.618   5.475 -0.0549  0.1223 -0.1854
  249POPC   NC3 3410   3.977   7.992   4.694  0.1749 -0.2223  0.3038
  249POPC   PO4 3411   4.353   7.791   4.507  0.0968  0.0302 -0.0947
  249POPC   GL1 3412   4.462   7.757   4.952 -0.1028  0.2738 -0.0113
  249POPC   GL2 3413   4.190   7.704   5.037 -0.1261 -0.0707  0.0710
  249POPC   C1A 3414   4.551   7.738   5.465 -0.3568 -0.1772 -0.0639
  249POPC   D2A 3415   4.893   7.619   5.764  0.0219  0.2519  0.0286
  249POPC   C3A 3416   4.926   7.684   6.172 -0.0255  0.1450 -0.1257
  249POPC   C4A 3417   4.792   7.985   6.474  0.0703 -0.1864  0.1335
  249POPC   C1B 3418   3.979   7.763   5.396 -0.2568  0.0260 -0.1613
  249POPC   C2B 3419   3.657   7.877   5.619 -0.0360 -0.2308  0.2556
  249POPC   C3B 3420   3.253   7.972   5.562 -0.1320  0.1963  0.1203
  249POPC   C4B 3421   3.087   8.121   5.342  0.0111  0.0653  0.2066
  250POPC   NC3 3422   6.038   3.448   4.102 -0.0392  0.1169  0.2081
  250POPC   PO4 3423   6.456   3.367   4.344 -0.2475 -0.1865 -0.2360
  250POPC   GL1 3424   6.501   3.067   4.774 -0.0579  0.0992  0.0477
  250POPC   GL2 3425   6.758   3.087   5.045 -0.1116  0.1467  0.0403
  250POPC   C1A 3426   6.365   2.770   5.138 -0.1689 -0.0450 -0.1323
  250POPC   D2A 3427   6.284   2.990   5.549 -0.0367  0.1507  0.0952
  250POPC   C3A 3428   6.446   2.808   5.887 -0.0732  0.0787 -0.0815
  250POPC   C4A 3429   6.404   2.480   6.163  0.0795  0.1327 -0.0911
  250POPC   C1B 3430   6.799   3.390   5.267 -0.1849 -0.0553 -0.1775
  250POPC   C2B 3431   6.832   3.310   5.657 -0.0411 -0.2867 -0.0836
  250POPC   C3B 3432   6.648   3.221   6.119  0.3022 -0.0898 -0.0576
  250POPC   C4B 3433   6.274   3.052   6.303 -0.3926  0.0375  0.0978
  251POPC   NC3 3434   4.390   3.337   4.636 -0.0345 -0.0472 -0.2065
  251POPC   PO4 3435   4.129   2.858   4.725 -0.1770 -0.1362  0.1047
  251POPC   GL1 3436   4.258   2.861   5.226 -0.1924  0.2467 -0.1162
  251POPC   GL2 3437   4.624   2.545   5.202 -0.2145  0.0422 -0.2705
  251POPC   C1A 3438   4.138   3.087   5.508  0.1068 -0.1412  0.2056
  251POPC   D2A 3439   4.344   3.463   5.833 -0.2098  0.1733  0.1284
  251POPC   C3A 3440   4.476   3.834   5.638 -0.0886 -0.0629 -0.3171
  251POPC   C4A 3441   4.481   4.282   5.624 -0.2869 -0.0448 -0.1675
  251POPC   C1B 3442   4.618   2.653   5.667  0.0033  0.0177  0.1216
  251POPC   C2B 3443   4.325   2.823   5.896 -0.3002  0.0385  0.2015
  251POPC   C3B 3444   4.020   2.620   6.221  0.0618 -0.0039  0.2074
  251POPC   C4B 3445   3.658   2.381   6.396  0.1562 -0.5115  0.1183
  252POPC   NC3 3446   9.572   4.395   4.399  0.0915 -0.1672  0.2120
  252POPC   PO4 3447   9.492   4.001   4.534  0.4076 -0.0620  0.1131
  252POPC   GL1 3448   9.602   4.231   4.875 -0.1334  0.3940  0.1905
  252POPC   GL2 3449   9.423   4.207   5.069 -0.2501 -0.1954 -0.1564
  252POPC   C1A 3450   9.869   4.127   5.186 -0.2256 -0.1281 -0.3074
  252POPC   D2A 3451  10.270   4.100   5.399 -0.1407  0.0864  0.0218
  252POPC   C3A 3452  10.424   4.176   5.783  0.0791 -0.1354  0.1359
  252POPC   C4A 3453  10.458   4.436   6.169 -0.0839 -0.0685  0.1061
  252POPC   C1B 3454   9.139   4.139   5.309  0.0072  0.2173  0.3076
  252POPC   C2B 3455   8.872   4.320   5.586 -0.0248  0.6582 -0.2772
  252POPC   C3B 3456   8.588   4.219   5.824  0.2160 -0.1284 -0.2371
  252POPC   C4B 3457   8.060   4.157   5.736  0.1475 -0.1668 -0.1135
  253POPC   NC3 3458   7.957   5.616   4.106  0.4571 -0.1090 -0.0963
  253POPC   PO4 3459   8.186   5.755   4.396 -0.0462 -0.1695  0.2370
  253POPC   GL1 3460   8.026   5.584   4.738 -0.1344 -0.0012  0.1084
  253POPC   GL2 3461   7.709   5.428   4.773  0.0090 -0.0508  0.0475
  253POPC   C1A 3462   8.011   5.598   5.115  0.0680  0.0951 -0.0069
  253POPC   D2A 3463   7.882   5.603   5.604  0.2418 -0.0422 -0.1826
  253POPC   C3A 3464   8.159   5.517   5.928 -0.2918 -0.0386 -0.1566
  253POPC   C4A 3465   8.402   5.174   6.047  0.1355 -0.0506  0.2299
  253POPC   C1B 3466   8.001   5.131   4.992  0.1243  0.0657  0.0030
  253POPC   C2B 3467   8.290   4.773   5.040  0.1933  0.1111  0.3114
  253POPC   C3B 3468   8.176   4.339   5.236 -0.3639 -0.0673 -0.0017
  253POPC   C4B 3469   8.537   4.077   5.364 -0.1681  0.0603 -0.0781
  254POPC   NC3 3470   6.975   3.192   4.588  0.0236 -0.1691 -0.3508
  254POPC   PO4 3471   7.391   3.338   4.439 -0.1506  0.1087 -0.1464
  254POPC   GL1 3472   7.414   3.279   4.855 -0.2020  0.0054  0.0402
  254POPC   GL2 3473   7.324   2.893   4.889 -0.3270  0.0586 -0.1467
  254POPC   C1A 3474   7.306   3.381   5.165  0.1112  0.1851  0.0150
  254POPC   D2A 3475   7.308   3.536   5.562 -0.0011 -0.1087  0.0486
  254POPC   C3A 3476   7.741   3.565   5.625 -0.0565 -0.0929 -0.0724
  254POPC   C4A 3477   7.955   3.639   5.841 -0.1773  0.0144 -0.0943
  254POPC   C1B 3478   7.181   2.880   5.282 -0.2592 -0.1215  0.0790
  254POPC   C2B 3479   7.182   2.478   5.531  0.3137 -0.1049 -0.0238
  254POPC   C3B 3480   7.363   2.132   5.670 -0.0324 -0.5864 -0.1986
  254POPC   C4B 3481   7.437   1.701   5.664  0.0332  0.2875  0.2147
  255POPC   NC3 3482   1.330   8.127   4.140  0.0524 -0.3526  0.1307
  255POPC   PO4 3483   1.440   8.519   4.406 -0.0911 -0.0607 -0.3885
  255POPC   GL1 3484   1.427   8.480   4.891 -0.2033  0.2193  0.0976
  255POPC   GL2 3485   1.305   8.776   4.937  0.0638 -0.1504 -0.0249
  255POPC   C1A 3486   1.460   8.120   5.274 -0.2033 -0.0868  0.1730
  255POPC   D2A 3487   1.385   7.925   5.641  0.0814 -0.2568  0.1444
  255POPC   C3A 3488   1.693   7.924   6.054 -0.0665 -0.0055  0.0943
  255POPC   C4A 3489   1.905   7.846   6.584 -0.0759 -0.4472 -0.0132
  255POPC   C1B 3490   1.317   8.991   5.347 -0.0316 -0.3041  0.0599
  255POPC   C2B 3491   1.206   9.025   5.759 -0.0785  0.0752  0.2560
  255POPC   C3B 3492   0.912   8.840   6.097 -0.2982 -0.1363 -0.0548
  255POPC   C4B 3493   0.706   8.532   6.252  0.1345 -0.0236 -0.1015
  256POPC   NC3 3494   9.714   3.598   4.266 -0.0536 -0.1197  0.0149
  256POPC   PO4 3495   9.516   3.290   4.076  0.0335  0.0288  0.1492
  256POPC   GL1 3496   9.471   3.183   4.524  0.0312  0.0558 -0.1524
  256POPC   GL2 3497   9.537   3.374   4.734  0.1474  0.0087 -0.0103
  256POPC   C1A 3498   9.124   3.089   4.811  0.0693  0.0997 -0.3896
  256POPC   D2A 3499   9.110   3.111   5.297 -0.0278  0.0673 -0.2027
  256POPC   C3A 3500   8.989   2.868   5.624  0.2313 -0.1157 -0.0990
  256POPC   C4A 3501   9.049   2.617   6.046 -0.2682  0.1043  0.1341
  256POPC   C1B 3502   9.546   3.281   5.152 -0.1758 -0.1385 -0.0191
  256POPC   C2B 3503   9.555   2.913   5.578 -0.0699 -0.1307 -0.3841
  256POPC   C3B 3504   9.640   2.928   5.975  0.3459  0.3074  0.0139
  256POPC   C4B 3505   9.913   2.632   6.269  0.3775  0.3144 -0.4344
  257POPC   NC3 3506   5.212   7.083   4.706 -0.3624  0.0878  0.1787
  257POPC   PO4 3507   4.807   7.390   4.669 -0.1783  0.1408  0.0707
  257POPC   GL1 3508   4.943   7.301   5.033 -0.3060  0.0081 -0.1163
  257POPC   GL2 3509   4.720   7.255   5.240 -0.2577 -0.4708 -0.1438
  257POPC   C1A 3510   5.152   7.123   5.472 -0.0132  0.0596  0.1934
  257POPC   D2A 3511   5.086   7.059   5.904  0.0496  0.1424  0.4377
  257POPC   C3A 3512   4.725   7.158   6.161 -0.1604 -0.2593  0.0145
  257POPC   C4A 3513   4.515   7.455   6.466 -0.0949 -0.0497 -0.0740
  257POPC   C1B 3514   4.645   7.128   5.614 -0.0927 -0.1998 -0.1147
  257POPC   C2B 3515   4.421   7.430   5.859  0.1321 -0.1016  0.2367
  257POPC   C3B 3516   4.039   7.593   5.856 -0.3038 -0.0395  0.2680
  257POPC   C4B 3517   3.592   7.531   5.977  0.1019 -0.2139 -0.3491
  258POPC   NC3 3518   9.979   4.974   4.082  0.0291  0.0740  0.0379
  258POPC   PO4 3519   9.938   4.821   4.443  0.1185  0.3340  0.0937
  258POPC   GL1 3520  10.044   5.063   4.880  0.0396 -0.0013 -0.0151
  258POPC   GL2 3521   9.805   5.304   5.033 -0.5006 -0.1539  0.0900
  258POPC   C1A 3522  10.276   4.954   5.227  0.0405  0.0444 -0.0738
  258POPC   D2A 3523  10.477   4.619   5.383 -0.3837  0.2219 -0.0442
  258POPC   C3A 3524  10.925   4.755   5.414 -0.0398 -0.2254  0.2253
  258POPC   C4A 3525  11.295   4.618   5.304 -0.1946  0.0707  0.2944
  258POPC   C1B 3526  10.261   5.434   5.226  0.2127  0.1876  0.1936
  258POPC   C2B 3527  10.698   5.266   5.423 -0.0892 -0.2463 -0.0219
  258POPC   C3B 3528  10.764   5.334   5.845  0.1951  0.1075 -0.0863
  258POPC   C4B 3529  11.091   5.151   6.201 -0.1502  0.0054  0.2755
  259POPC   NC3 3530   5.270   4.596   4.446  0.0314 -0.2625 -0.2758
  259POPC   PO4 3531   5.168   5.019   4.417 -0.1446 -0.0056 -0.0214
  259POPC   GL1 3532   5.182   5.276   4.787 -0.6127 -0.1790 -0.2456
  259POPC   GL2 3533   5.107   5.615   4.855 -0.3239  0.2214  0.1097
  259POPC   C1A 3534   5.407   5.292   5.130 -0.3466  0.0049 -0.2119
  259POPC   D2A 3535   5.327   5.147   5.585 -0.5075  0.0846  0.3233
  259POPC   C3A 3536   4.965   5.345   5.810 -0.1774 -0.0019 -0.0964
  259POPC   C4A 3537   4.727   5.227   6.150  0.0330 -0.1125 -0.0763
  259POPC   C1B 3538   4.821   5.448   4.994 -0.0814 -0.1686 -0.2237
  259POPC   C2B 3539   4.928   5.205   5.283 -0.0092  0.1597 -0.1015
  259POPC   C3B 3540   4.957   4.824   5.661 -0.0514  0.2424 -0.1464
  259POPC   C4B 3541   5.006   4.472   5.478  0.1998  0.1138  0.0806
  260POPC   NC3 3542   4.824   2.576   4.246  0.1281 -0.4077  0.1289
  260POPC   PO4 3543   4.959   2.836   4.501  0.0968 -0.2166 -0.0716
  260POPC   GL1 3544   5.108   2.899   4.953  0.1172 -0.0576  0.1091
  260POPC   GL2 3545   5.347   2.835   5.093 -0.0101 -0.1064  0.0758
  260POPC   C1A 3546   4.790   3.010   5.356  0.1607 -0.2309  0.2020
  260POPC   D2A 3547   4.447   3.311   5.233  0.2779 -0.0780 -0.0726
  260POPC   C3A 3548   4.133   3.577   5.324 -0.0510 -0.0562 -0.0489
  260POPC   C4A 3549   3.958   3.889   5.508  0.1447 -0.0213  0.1897
  260POPC   C1B 3550   5.539   2.858   5.369 -0.0615  0.1637  0.2883
  260POPC   C2B 3551   5.686   2.871   5.746 -0.1703  0.0450 -0.0505
  260POPC   C3B 3552   5.981   3.147   5.917 -0.0297  0.0364  0.1060
  260POPC   C4B 3553   6.132   3.456   6.134  0.1959  0.0634  0.0646
  261POPC   NC3 3554   1.853   8.465   4.650 -0.0267  0.0440 -0.1078
  261POPC   PO4 3555   2.285   8.632   4.852 -0.0662  0.0966 -0.1488
  261POPC   GL1 3556   2.122   8.424   5.223 -0.0913  0.0214  0.0881
  261POPC   GL2 3557   1.852   8.403   5.170 -0.1290  0.1039 -0.1014
  261POPC   C1A 3558   2.277   8.455   5.596 -0.1536  0.3661 -0.2906
  261POPC   D2A 3559   2.138   8.526   6.009 -0.1333  0.0501  0.2019
  261POPC   C3A 3560   2.090   8.656   6.388  0.1235  0.1516 -0.1031
  261POPC   C4A 3561   2.285   8.821   6.711  0.0525  0.1216 -0.0803
  261POPC   C1B 3562   1.629   8.529   5.445  0.3142  0.2371 -0.1346
  261POPC   C2B 3563   1.550   8.558   5.936 -0.0023 -0.1999  0.1246
  261POPC   C3B 3564   1.212   8.384   6.290 -0.1151 -0.1448  0.1159
  261POPC   C4B 3565   0.927   8.132   6.572  0.1879 -0.3078 -0.2041
  262POPC   NC3 3566   5.740   9.653   4.122 -0.2225  0.2220  0.3886
  262POPC   PO4 3567   5.424   9.783   4.351 -0.4744 -0.1679 -0.0282
  262POPC   GL1 3568   5.711   9.764   4.705 -0.1664  0.0036 -0.0293
  262POPC   GL2 3569   5.833   9.470   4.580 -0.1187  0.2613 -0.1914
  262POPC   C1A 3570   5.979   9.849   5.034  0.0028  0.4435 -0.1037
  262POPC   D2A 3571   6.160  10.200   5.207  0.2959 -0.1494 -0.2675
  262POPC   C3A 3572   6.372  10.279   5.523  0.2269  0.1024  0.1823
  262POPC   C4A 3573   6.544  10.423   5.873  0.0966 -0.0035  0.0226
  262POPC   C1B 3574   5.856   9.358   4.960  0.0248 -0.0314 -0.1097
  262POPC   C2B 3575   5.952   9.258   5.416  0.1543 -0.2722  0.0322
  262POPC   C3B 3576   5.743   9.188   5.796  0.0483 -0.0065  0.1382
  262POPC   C4B 3577   5.872   9.343   6.232  0.1129  0.1168 -0.2482
  263POPC   NC3 3578   9.919   7.882   3.686  0.1633 -0.0933 -0.0400
  263POPC   PO4 3579   9.903   7.432   3.747 -0.3243 -0.1029 -0.0197
  263POPC   GL1 3580   9.978   7.481   4.183 -0.1686 -0.0296 -0.1234
  263POPC   GL2 3581   9.747   7.330   4.361  0.1711  0.1843  0.0059
  263POPC   C1A 3582  10.311   7.547   4.569  0.0406 -0.0521  0.2359
  263POPC   D2A 3583  10.182   7.617   5.020  0.0795  0.1875  0.0386
  263POPC   C3A 3584   9.792   7.470   5.154 -0.2547  0.1056  0.0923
  263POPC   C4A 3585   9.658   7.044   5.160 -0.0871  0.0325  0.0101
  263POPC   C1B 3586   9.987   7.114   4.763 -0.1217 -0.1319  0.0951
  263POPC   C2B 3587  10.153   7.127   5.171 -0.1113 -0.1333 -0.0049
  263POPC   C3B 3588  10.066   7.336   5.570 -0.2332  0.0401 -0.1541
  263POPC   C4B 3589  10.162   7.547   5.998 -0.1014  0.0288  0.0064
  264POPC   NC3 3590   9.067   2.376   3.891 -0.2113  0.3148 -0.0892
  264POPC   PO4 3591   9.195   2.780   4.278 -0.2977  0.0158  0.2353
  264POPC   GL1 3592   9.426   2.497   4.583  0.1183  0.0272 -0.1167
  264POPC   GL2 3593   9.682   2.673   4.625  0.4761  0.3498  0.0571
  264POPC   C1A 3594   9.249   2.342   4.989  0.1054 -0.0516 -0.0305
  264POPC   D2A 3595   8.850   2.158   5.279  0.1600  0.3033  0.0020
  264POPC   C3A 3596   8.914   1.860   5.592 -0.1063 -0.0971 -0.0644
  264POPC   C4A 3597   8.785   1.578   5.874 -0.0511  0.0282  0.1112
  264POPC   C1B 3598   9.801   2.262   4.927  0.2136  0.0372  0.2228
  264POPC   C2B 3599   9.668   2.341   5.399  0.2330  0.1939  0.1237
  264POPC   C3B 3600   9.230   2.445   5.589  0.0953  0.4330 -0.1977
  264POPC   C4B 3601   8.808   2.394   5.712  0.0838  0.0798  0.2413
  265POPC   NC3 3602   7.585   4.269   4.424 -0.2498 -0.2730 -0.0053
  265POPC   PO4 3603   7.947   4.629   4.442 -0.0242  0.0948 -0.1393
  265POPC   GL1 3604   7.814   4.630   4.808 -0.1691 -0.2300 -0.2566
  265POPC   GL2 3605   7.760   4.328   4.923  0.0037  0.2784  0.0408
  265POPC   C1A 3606   7.864   4.724   5.274  0.1566 -0.3266  0.2160
  265POPC   D2A 3607   7.819   4.707   5.687 -0.2239  0.1405 -0.0324
  265POPC   C3A 3608   8.017   4.604   5.916 -0.0969  0.3002  0.1838
  265POPC   C4A 3609   8.186   4.805   6.297 -0.0053  0.0619  0.1980
  265POPC   C1B 3610   7.247   4.232   4.991 -0.2179  0.0557  0.0053
  265POPC   C2B 3611   7.023   4.329   5.255 -0.0952  0.4994 -0.1162
  265POPC   C3B 3612   6.669   4.311   5.573  0.1622 -0.1484  0.1069
  265POPC   C4B 3613   6.346   4.494   5.803 -0.0643 -0.1636 -0.0861
  266POPC   NC3 3614   1.753   5.111   4.067  0.0487  0.0670  0.1582
  266POPC   PO4 3615   1.412   5.093   4.090 -0.2030 -0.3144  0.0005
  266POPC   GL1 3616   1.468   5.323   4.491  0.3367 -0.1689  0.1277
  266POPC   GL2 3617   1.537   5.638   4.508  0.2346  0.3165 -0.2052
  266POPC   C1A 3618   1.763   5.249   4.831 -0.1035  0.0265 -0.0193
  266POPC   D2A 3619   1.930   5.328   5.217 -0.1635 -0.0660  0.1779
  266POPC   C3A 3620   2.197   5.618   5.247 -0.2947 -0.1885  0.0909
  266POPC   C4A 3621   2.365   5.995   5.511  0.3951 -0.0711 -0.1669
  266POPC   C1B 3622   1.822   5.749   4.849  0.1449 -0.0589  0.2359
  266POPC   C2B 3623   1.689   5.874   5.257 -0.0115 -0.1940  0.0463
  266POPC   C3B 3624   1.926   5.814   5.660  0.0615 -0.2695 -0.1473
  266POPC   C4B 3625   1.885   6.142   5.957 -0.0250  0.1485 -0.2244
  267POPC   NC3 3626   3.250   1.945   4.869 -0.1390  0.0576  0.0339
  267POPC   PO4 3627   3.593   1.631   4.855  0.0846 -0.2004 -0.1191
  267POPC   GL1 3628   3.365   1.513   5.207 -0.0908 -0.0173  0.4073
  267POPC   GL2 3629   3.515   1.272   5.332  0.0274  0.0518  0.1044
  267POPC   C1A 3630   3.198   1.522   5.647 -0.3161 -0.0509 -0.0170
  267POPC   D2A 3631   3.235   1.719   6.131 -0.1711 -0.0992 -0.1776
  267POPC   C3A 3632   2.851   1.700   6.476 -0.1409 -0.1584 -0.1208
  267POPC   C4A 3633   2.450   1.724   6.248  0.0958  0.3558 -0.1692
  267POPC   C1B 3634   3.674   1.416   5.758 -0.0475  0.2887  0.1801
  267POPC   C2B 3635   3.738   1.405   6.264 -0.2459 -0.0427  0.1373
  267POPC   C3B 3636   3.682   1.813   6.417 -0.0197 -0.0925  0.0973
  267POPC   C4B 3637   4.051   2.114   6.341  0.0583 -0.1844  0.4059
  268POPC   NC3 3638   6.427   6.032   4.441 -0.2328 -0.0885  0.2189
  268POPC   PO4 3639   6.836   6.162   4.453 -0.0932 -0.1175  0.0256
  268POPC   GL1 3640   6.812   6.080   5.025  0.2976 -0.0438  0.1037
  268POPC   GL2 3641   7.149   6.215   5.066 -0.3212  0.3163 -0.0504
  268POPC   C1A 3642   6.614   6.118   5.423 -0.2993 -0.1611 -0.1322
  268POPC   D2A 3643   6.765   6.199   5.864 -0.0483  0.0849 -0.1408
  268POPC   C3A 3644   6.844   6.555   6.104 -0.1498  0.0381  0.1103
  268POPC   C4A 3645   6.513   6.846   6.197  0.0539  0.0719  0.1274
  268POPC   C1B 3646   7.378   6.536   5.208 -0.2604  0.1563  0.0271
  268POPC   C2B 3647   7.681   6.845   5.328  0.0085  0.2119  0.2710
  268POPC   C3B 3648   7.967   7.204   5.445  0.0893  0.1510 -0.0412
  268POPC   C4B 3649   8.090   7.525   5.052 -0.0199  0.0406 -0.0342
  269POPC   NC3 3650   6.383   9.274   3.712  0.3653 -0.0356  0.0524
  269POPC   PO4 3651   6.237   9.598   3.589  0.2973  0.0460  0.1436
  269POPC   GL1 3652   6.577   9.822   3.697  0.0985  0.4129  0.1374
  269POPC   GL2 3653   6.593   9.721   3.981 -0.1148  0.2532 -0.0313
  269POPC   C1A 3654   6.688  10.176   3.907 -0.0118  0.1821  0.0351
  269POPC   D2A 3655   6.812  10.612   4.115 -0.0636  0.0149  0.1676
  269POPC   C3A 3656   7.188  10.875   4.117 -0.1133 -0.2182  0.0767
  269POPC   C4A 3657   7.501  10.722   3.945 -0.1486 -0.0939  0.0885
  269POPC   C1B 3658   6.659   9.911   4.380  0.1224 -0.3031 -0.0199
  269POPC   C2B 3659   6.625   9.923   4.761 -0.1008 -0.0397 -0.3022
  269POPC   C3B 3660   6.643  10.041   5.206 -0.0047  0.3504  0.2356
  269POPC   C4B 3661   6.874  10.343   5.533  0.2927 -0.1146 -0.0364
  270POPC   NC3 3662   9.264   0.500   2.842  0.3387 -0.0699  0.1244
  270POPC   PO4 3663   9.562   0.580   3.091 -0.1328  0.0862 -0.0024
  270POPC   GL1 3664   9.338   0.564   3.460 -0.0660 -0.0033  0.1267
  270POPC   GL2 3665   9.452   0.368   3.694  0.1364 -0.1890 -0.1542
  270POPC   C1A 3666   9.032   0.689   3.735 -0.3823 -0.3605 -0.1711
  270POPC   D2A 3667   8.988   0.891   4.096  0.1505 -0.2129  0.1832
  270POPC   C3A 3668   8.693   0.610   4.186 -0.1536  0.4074 -0.0944
  270POPC   C4A 3669   8.243   0.353   4.162 -0.2073 -0.1462  0.0875
  270POPC   C1B 3670   9.646   0.198   4.111 -0.1049 -0.3713 -0.2169
  270POPC   C2B 3671   9.555   0.143   4.624  0.2943  0.2370 -0.0625
  270POPC   C3B 3672   9.409   0.484   4.739  0.0928  0.2668 -0.0868
  270POPC   C4B 3673   9.373   0.679   5.082  0.0033 -0.0226 -0.0048
  271POPC   NC3 3674   2.851   7.218   4.296 -0.1406 -0.0480 -0.0495
  271POPC   PO4 3675   2.462   7.336   4.368 -0.0271  0.0557 -0.1584
  271POPC   GL1 3676   2.328   7.222   4.745  0.3807 -0.1236  0.0968
  271POPC   GL2 3677   2.125   7.334   4.947  0.1466  0.2176 -0.2162
  271POPC   C1A 3678   2.451   6.992   5.069  0.1456 -0.0630  0.0887
  271POPC   D2A 3679   2.863   6.775   5.241 -0.2373  0.4549 -0.2781
  271POPC   C3A 3680   3.112   6.621   5.089  0.1426  0.0428  0.0617
  271POPC   C4A 3681   3.581   6.565   4.997  0.3163  0.0886  0.1330
  271POPC   C1B 3682   2.101   7.238   5.389 -0.1092 -0.0736 -0.0965
  271POPC   C2B 3683   1.871   7.412   5.713 -0.1334 -0.2343 -0.2764
  271POPC   C3B 3684   1.601   7.118   6.009  0.1298 -0.0775  0.0316
  271POPC   C4B 3685   1.387   6.732   5.987 -0.1033  0.1607 -0.0262
  272POPC   NC3 3686   8.147   9.669   2.988 -0.0028 -0.2257 -0.0810
  272POPC   PO4 3687   8.178  10.050   3.107  0.1650  0.3590  0.2507
  272POPC   GL1 3688   8.239   9.913   3.469 -0.1809  0.0503 -0.3992
  272POPC   GL2 3689   7.983   9.782   3.521 -0.3500 -0.1183  0.1179
  272POPC   C1A 3690   8.439   9.765   3.775 -0.3070  0.0634  0.0877
  272POPC   D2A 3691   8.645   9.941   4.164  0.0778  0.0641 -0.4500
  272POPC   C3A 3692   8.452  10.051   4.585  0.1445  0.3489  0.1755
  272POPC   C4A 3693   8.196  10.255   4.898  0.0174  0.0087 -0.0263
  272POPC   C1B 3694   8.075   9.431   3.836  0.0926  0.0239  0.3226
  272POPC   C2B 3695   8.435   9.254   4.066  0.3201  0.0806  0.0036
  272POPC   C3B 3696   8.626   9.221   4.425  0.0234  0.1148  0.1120
  272POPC   C4B 3697   8.834   9.592   4.572 -0.0480  0.0012 -0.1828
  273POPC   NC3 3698   3.087   6.228   4.331  0.3375 -0.0399 -0.0244
  273POPC   PO4 3699   2.956   6.612   4.245  0.0910  0.0706  0.0256
  273POPC   GL1 3700   2.874   6.397   4.718  0.0193 -0.2754  0.3052
  273POPC   GL2 3701   2.665   6.440   4.925 -0.0533 -0.0660  0.0862
  273POPC   C1A 3702   3.021   6.090   5.026 -0.2994  0.0905  0.1825
  273POPC   D2A 3703   2.980   6.319   5.511  0.0758 -0.1295  0.2809
  273POPC   C3A 3704   2.853   6.616   5.777 -0.0519 -0.2059 -0.0485
  273POPC   C4A 3705   2.764   6.877   6.057  0.0209 -0.0581  0.0546
  273POPC   C1B 3706   2.420   6.506   5.350 -0.0083 -0.3383  0.1557
  273POPC   C2B 3707   2.379   6.817   5.697 -0.0127 -0.1405  0.2100
  273POPC   C3B 3708   2.127   7.103   6.054  0.1696 -0.3324  0.1477
  273POPC   C4B 3709   1.934   7.482   6.278 -0.3753 -0.1732  0.0239
  274POPC   NC3 3710   1.840   7.716   4.167  0.2586  0.1070  0.1752
  274POPC   PO4 3711   1.816   8.072   4.337  0.1410 -0.1419 -0.0707
  274POPC   GL1 3712   1.566   8.005   4.598 -0.0499  0.0531  0.1200
  274POPC   GL2 3713   1.323   7.754   4.442  0.0537  0.0429 -0.0246
  274POPC   C1A 3714   1.287   7.867   4.900 -0.0304  0.0486  0.0040
  274POPC   D2A 3715   0.954   7.948   5.144 -0.2064  0.0401 -0.0077
  274POPC   C3A 3716   0.732   7.563   5.085 -0.0214 -0.0808 -0.2049
  274POPC   C4A 3717   0.636   7.200   4.924 -0.0344  0.2222 -0.0778
  274POPC   C1B 3718   0.879   7.667   4.601  0.1093 -0.3299  0.0118
  274POPC   C2B 3719   0.651   7.969   4.751  0.0250  0.1008 -0.2098
  274POPC   C3B 3720   0.425   8.066   5.122 -0.2282  0.0260 -0.1696
  274POPC   C4B 3721   0.660   8.262   5.455 -0.2859 -0.0874 -0.0239
  275POPC   NC3 3722   4.896   8.037   4.080  0.0810 -0.0984 -0.1563
  275POPC   PO4 3723   4.527   8.218   4.257  0.1759  0.0126 -0.1498
  275POPC   GL1 3724   4.386   8.229   4.751 -0.4970 -0.1924 -0.1726
  275POPC   GL2 3725   4.630   8.278   4.892 -0.1034 -0.1712  0.0714
  275POPC   C1A 3726   4.285   8.207   5.231 -0.3635 -0.1050  0.2315
  275POPC   D2A 3727   4.026   8.387   5.546  0.1202  0.2257 -0.1661
  275POPC   C3A 3728   3.991   8.203   5.902 -0.1307 -0.1142 -0.0223
  275POPC   C4A 3729   3.629   8.017   6.133  0.4371  0.1045 -0.1114
  275POPC   C1B 3730   4.787   8.279   5.244  0.0009  0.1158  0.1283
  275POPC   C2B 3731   4.869   8.190   5.687  0.2558  0.0458 -0.2275
  275POPC   C3B 3732   4.620   7.995   5.881  0.0389 -0.2082  0.1141
  275POPC   C4B 3733   4.260   7.923   6.159 -0.0782  0.2430  0.1467
  276POPC   NC3 3734   2.730   2.508   4.603 -0.2277  0.3395 -0.3571
  276POPC   PO4 3735   2.635   2.947   4.388 -0.1513 -0.1054 -0.0219
  276POPC   GL1 3736   2.763   2.926   4.896 -0.0138 -0.1176 -0.1709
  276POPC   GL2 3737   3.055   2.779   5.038  0.1523 -0.3303  0.4659
  276POPC   C1A 3738   2.686   2.968   5.384 -0.0238 -0.2276 -0.0669
  276POPC   D2A 3739   2.799   3.248   5.737  0.1428 -0.3929 -0.0338
  276POPC   C3A 3740   3.005   3.647   5.725 -0.1439  0.0678  0.0938
  276POPC   C4A 3741   3.248   3.799   5.989 -0.0255  0.1084  0.0769
  276POPC   C1B 3742   3.161   3.041   5.384 -0.0946 -0.1036 -0.5198
  276POPC   C2B 3743   3.256   3.209   5.849  0.2999  0.0816  0.0420
  276POPC   C3B 3744   3.247   3.374   6.179 -0.1571 -0.0622 -0.1289
  276POPC   C4B 3745   3.070   3.732   6.445 -0.4359 -0.0125 -0.1681
  277POPC   NC3 3746   4.971   0.045   4.568 -0.2533 -0.0195  0.3392
  277POPC   PO4 3747   5.224   0.327   4.356 -0.0527 -0.1338 -0.1503
  277POPC   GL1 3748   5.429   0.264   4.788 -0.0181  0.0060 -0.0646
  277POPC   GL2 3749   5.287   0.492   5.054  0.1595  0.1819  0.0524
  277POPC   C1A 3750   5.701   0.433   5.226  0.1485 -0.0084  0.0481
  277POPC   D2A 3751   6.006   0.655   5.460  0.0164 -0.2245  0.2933
  277POPC   C3A 3752   5.941   1.051   5.644 -0.1476  0.1797 -0.1694
  277POPC   C4A 3753   5.565   1.349   5.651  0.0171 -0.2785  0.1789
  277POPC   C1B 3754   5.037   0.835   5.105  0.1039 -0.1536  0.5391
  277POPC   C2B 3755   4.644   0.954   5.353 -0.2755 -0.0444 -0.1532
  277POPC   C3B 3756   4.401   0.950   5.707 -0.2932 -0.0901 -0.1773
  277POPC   C4B 3757   4.017   1.078   5.904  0.1411 -0.2998 -0.1693
  278POPC   NC3 3758   5.782   6.824   4.047  0.1298 -0.1719 -0.1849
  278POPC   PO4 3759   6.046   7.213   4.175  0.1032  0.0321 -0.0128
  278POPC   GL1 3760   6.233   7.179   4.585 -0.1830 -0.1221 -0.0249
  278POPC   GL2 3761   6.221   6.855   4.668  0.2990  0.0721  0.2541
  278POPC   C1A 3762   6.393   7.178   5.104 -0.1728 -0.0539 -0.0350
  278POPC   D2A 3763   6.738   7.088   5.333  0.2319 -0.2161  0.3151
  278POPC   C3A 3764   7.051   7.383   5.275  0.0370 -0.2119 -0.1514
  278POPC   C4A 3765   7.174   7.475   4.787 -0.2742  0.0951 -0.4782
  278POPC   C1B 3766   6.673   6.829   4.886 -0.1975 -0.4126  0.0162
  278POPC   C2B 3767   6.834   6.601   5.152  0.2126  0.1351 -0.0442
  278POPC   C3B 3768   6.935   6.488   5.465  0.0911 -0.2443  0.2922
  278POPC   C4B 3769   7.129   6.191   5.565 -0.1255  0.2351  0.0343
  279POPC   NC3 3770   6.665   2.699   3.964  0.0503 -0.1300  0.1428
  279POPC   PO4 3771   6.667   2.893   4.294  0.1326  0.0094 -0.0548
  279POPC   GL1 3772   6.836   2.605   4.650 -0.0018  0.0825 -0.1974
  279POPC   GL2 3773   7.115   2.476   4.579  0.0327 -0.1079 -0.2260
  279POPC   C1A 3774   6.854   2.600   5.115 -0.1297 -0.0912  0.0994
  279POPC   D2A 3775   6.782   2.831   5.491 -0.1148  0.0669 -0.0437
  279POPC   C3A 3776   6.937   2.800   5.855  0.2587  0.1566 -0.0903
  279POPC   C4A 3777   6.848   2.795   6.198 -0.1174 -0.2504  0.1605
  279POPC   C1B 3778   7.314   2.392   4.947 -0.3963 -0.1576  0.1383
  279POPC   C2B 3779   7.596   2.437   5.252  0.1590  0.1007  0.1608
  279POPC   C3B 3780   7.880   2.613   5.475 -0.3682  0.3048  0.1751
  279POPC   C4B 3781   7.946   2.670   5.956  0.0752  0.1065 -0.1699
  280POPC   NC3 3782   4.593   9.342   4.470  0.1566 -0.0366 -0.0604
  280POPC   PO4 3783   4.917   9.606   4.337 -0.2208  0.0478 -0.2896
  280POPC   GL1 3784   4.984   9.596   4.759 -0.4822  0.3925  0.2417
  280POPC   GL2 3785   5.286   9.570   4.875 -0.2275 -0.2274  0.0046
  280POPC   C1A 3786   4.902   9.322   5.120 -0.1323 -0.3192 -0.0193
  280POPC   D2A 3787   4.582   9.288   5.426  0.0285  0.0599 -0.0146
  280POPC   C3A 3788   4.631   9.446   5.733  0.3374  0.0053 -0.3254
  280POPC   C4A 3789   4.727   9.362   6.237 -0.0014  0.4255 -0.0870
  280POPC   C1B 3790   5.428   9.938   5.147 -0.0682 -0.2080  0.0829
  280POPC   C2B 3791   5.357  10.131   5.538 -0.0953 -0.1602  0.0111
  280POPC   C3B 3792   5.165  10.429   5.564 -0.1905 -0.2066 -0.2630
  280POPC   C4B 3793   4.857  10.724   5.756 -0.2012 -0.0909 -0.1077
  281POPC   NC3 3794   1.589   6.089   4.340  0.1587 -0.0808  0.1701
  281POPC   PO4 3795   1.382   6.375   4.234  0.2239  0.0830  0.0036
  281POPC   GL1 3796   1.242   6.499   4.615  0.2473 -0.5162 -0.2474
  281POPC   GL2 3797   1.323   6.771   4.684 -0.0989  0.1800  0.0143
  281POPC   C1A 3798   0.988   6.379   4.979 -0.1365 -0.1595  0.1007
  281POPC   D2A 3799   0.934   6.426   5.475  0.0293  0.0635 -0.1685
  281POPC   C3A 3800   0.655   6.720   5.679  0.1905  0.0566  0.1295
  281POPC   C4A 3801   0.918   6.952   5.977  0.0579  0.0773  0.2216
  281POPC   C1B 3802   1.154   6.905   5.004  0.2651 -0.1152 -0.1157
  281POPC   C2B 3803   1.040   6.995   5.479  0.3146 -0.4946  0.2869
  281POPC   C3B 3804   0.684   7.198   5.493  0.1102  0.1836  0.1431
  281POPC   C4B 3805   0.516   7.235   5.800 -0.2542  0.2211  0.1173
  282POPC   NC3 3806   9.002   7.674   3.403 -0.3875  0.0695 -0.3139
  282POPC   PO4 3807   8.718   7.903   3.471  0.0944 -0.1695  0.1547
  282POPC   GL1 3808   8.853   7.929   3.844  0.0771  0.0591 -0.2331
  282POPC   GL2 3809   9.007   7.781   4.101 -0.1276  0.2521 -0.1936
  282POPC   C1A 3810   9.157   8.291   4.086  0.0717  0.1342  0.0564
  282POPC   D2A 3811   9.146   8.407   4.480  0.3115 -0.2284 -0.0850
  282POPC   C3A 3812   9.590   8.233   4.647 -0.2921 -0.1244  0.0230
  282POPC   C4A 3813   9.953   8.177   4.900  0.0011  0.0247 -0.1154
  282POPC   C1B 3814   9.270   7.913   4.485 -0.0035  0.2540  0.0043
  282POPC   C2B 3815   9.199   7.964   4.909 -0.0879 -0.1555 -0.0491
  282POPC   C3B 3816   8.826   8.325   5.052  0.2622 -0.0761 -0.1639
  282POPC   C4B 3817   8.777   8.726   5.280  0.3974  0.1598 -0.1114
  283POPC   NC3 3818   0.096   1.876   4.045  0.2515 -0.2602 -0.1896
  283POPC   PO4 3819  -0.216   1.554   3.874 -0.1161 -0.4154 -0.0507
  283POPC   GL1 3820  -0.172   1.229   4.094  0.2238 -0.0228 -0.0690
  283POPC   GL2 3821  -0.466   1.015   4.082  0.0507  0.0939  0.1475
  283POPC   C1A 3822  -0.125   1.110   4.552 -0.1606 -0.2767 -0.3870
  283POPC   D2A 3823   0.077   1.146   4.997 -0.2369 -0.2754  0.2103
  283POPC   C3A 3824  -0.182   0.905   5.259  0.1449 -0.0291 -0.0255
  283POPC   C4A 3825  -0.443   0.550   5.568 -0.1996 -0.1996 -0.0931
  283POPC   C1B 3826  -0.630   0.932   4.552  0.0495 -0.1076 -0.0774
  283POPC   C2B 3827  -0.532   1.163   4.985 -0.0020  0.0582  0.1498
  283POPC   C3B 3828  -0.678   1.150   5.358 -0.0984  0.0399  0.0862
  283POPC   C4B 3829  -0.759   0.856   5.762  0.0238 -0.2615 -0.3685
  284POPC   NC3 3830   2.529   1.634   5.018  0.2610 -0.0761 -0.0252
  284POPC   PO4 3831   2.637   2.131   4.940  0.1142 -0.2279  0.0500
  284POPC   GL1 3832   2.546   2.147   5.274 -0.1305  0.0411  0.0783
  284POPC   GL2 3833   2.456   1.959   5.464 -0.1149  0.2105 -0.0048
  284POPC   C1A 3834   2.759   2.377   5.586 -0.1085 -0.3684  0.1468
  284POPC   D2A 3835   2.742   2.492   6.113  0.1170  0.1148 -0.0628
  284POPC   C3A 3836   2.790   2.267   6.492  0.1731 -0.0309 -0.0536
  284POPC   C4A 3837   2.749   2.330   7.001 -0.1168 -0.1091  0.0600
  284POPC   C1B 3838   2.744   1.743   5.766  0.0363  0.0225  0.1453
  284POPC   C2B 3839   2.792   1.382   6.014 -0.0766 -0.1992  0.2833
  284POPC   C3B 3840   2.501   1.290   6.442 -0.3739 -0.2920 -0.0318
  284POPC   C4B 3841   2.286   1.509   6.864 -0.0616 -0.0964  0.2110
  285POPC   NC3 3842   1.465   5.864   3.913  0.2818  0.3079 -0.1233
  285POPC   PO4 3843   1.169   5.586   4.114 -0.1097 -0.0346 -0.0386
  285POPC   GL1 3844   1.089   5.702   4.397 -0.1702 -0.1153 -0.0878
  285POPC   GL2 3845   1.078   5.960   4.532 -0.0407 -0.1977  0.1348
  285POPC   C1A 3846   1.078   5.480   4.732 -0.0743  0.0302 -0.3596
  285POPC   D2A 3847   0.941   5.533   5.085 -0.2817  0.0901  0.1384
  285POPC   C3A 3848   1.198   5.515   5.496 -0.2638  0.3153 -0.1984
  285POPC   C4A 3849   1.561   5.545   5.588  0.2493  0.3743 -0.3292
  285POPC   C1B 3850   1.291   5.964   4.929  0.0572 -0.0237 -0.1079
  285POPC   C2B 3851   1.215   6.008   5.346  0.1632  0.1322  0.1328
  285POPC   C3B 3852   0.965   5.958   5.696  0.0396  0.4231  0.0687
  285POPC   C4B 3853   0.591   5.787   5.868 -0.2316  0.0240 -0.1253
  286POPC   NC3 3854   0.684   9.533   4.065  0.3201  0.0185 -0.1464
  286POPC   PO4 3855   1.105   9.462   4.222  0.1873 -0.0532  0.0047
  286POPC   GL1 3856   0.946   9.475   4.608  0.0893  0.2382 -0.4840
  286POPC   GL2 3857   0.648   9.438   4.526  0.1325 -0.2671  0.1313
  286POPC   C1A 3858   1.045   9.337   5.015 -0.3015 -0.2992 -0.1641
  286POPC   D2A 3859   1.072   9.428   5.514  0.1447  0.2384 -0.1863
  286POPC   C3A 3860   0.804   9.329   5.940 -0.0102  0.0724  0.1549
  286POPC   C4A 3861   0.863   9.279   6.383 -0.2259  0.3736 -0.0861
  286POPC   C1B 3862   0.676   9.010   4.774  0.1900  0.0028 -0.1567
  286POPC   C2B 3863   0.610   8.845   5.256  0.0346  0.0100  0.4958
  286POPC   C3B 3864   0.649   8.713   5.614  0.0010  0.0892 -0.2372
  286POPC   C4B 3865   0.423   8.820   5.940  0.0760 -0.0969 -0.3881
  287POPC   NC3 3866   0.682   2.589   4.190  0.1434  0.1832 -0.2143
  287POPC   PO4 3867   0.355   2.673   4.479  0.0746 -0.0858 -0.2114
  287POPC   GL1 3868   0.399   2.753   4.855  0.0066  0.2412 -0.0007
  287POPC   GL2 3869   0.088   2.827   4.890  0.2556  0.0828  0.2951
  287POPC   C1A 3870   0.419   2.761   5.252 -0.0903 -0.0989  0.0778
  287POPC   D2A 3871   0.647   2.795   5.704  0.1529 -0.0126  0.0251
  287POPC   C3A 3872   0.460   2.715   6.130  0.1454  0.2985 -0.2527
  287POPC   C4A 3873   0.451   2.647   6.497 -0.0285 -0.2037  0.3639
  287POPC   C1B 3874   0.001   3.003   5.362  0.1424  0.0134  0.0208
  287POPC   C2B 3875   0.158   2.753   5.663 -0.1162  0.1838 -0.2752
  287POPC   C3B 3876   0.045   2.410   5.842  0.1413  0.0178  0.2849
  287POPC   C4B 3877  -0.409   2.452   5.939 -0.0787 -0.2097  0.0074
  288POPC   NC3 3878   5.382   9.286   4.487  0.1042  0.0644  0.2278
  288POPC   PO4 3879   5.676   9.092   4.272 -0.4102 -0.3836  0.1172
  288POPC   GL1 3880   5.847   8.947   4.680 -0.1225  0.2931  0.2262
  288POPC   GL2 3881   5.941   8.660   4.537 -0.2853 -0.1670  0.1387
  288POPC   C1A 3882   5.736   8.871   5.091 -0.0686 -0.1410 -0.1723
  288POPC   D2A 3883   5.919   8.757   5.562  0.1047 -0.0095 -0.0394
  288POPC   C3A 3884   6.359   9.047   5.526  0.1481 -0.0325  0.1380
  288POPC   C4A 3885   6.565   9.359   5.737  0.1183  0.3598  0.3730
  288POPC   C1B 3886   6.063   8.495   4.930  0.0563  0.4366 -0.0474
  288POPC   C2B 3887   6.271   8.666   5.094 -0.4628 -0.0591 -0.1974
  288POPC   C3B 3888   6.277   9.115   5.024  0.0571 -0.0552  0.1084
  288POPC   C4B 3889   6.295   9.483   4.832 -0.3290 -0.0929 -0.0031
  289POPC   NC3 3890   7.365   6.243   4.638  0.0091 -0.2438 -0.0804
  289POPC   PO4 3891   7.245   5.765   4.549  0.0058  0.2912 -0.1087
  289POPC   GL1 3892   7.500   5.864   4.886  0.3009 -0.0427  0.2235
  289POPC   GL2 3893   7.769   6.065   4.902  0.0017 -0.0090 -0.0646
  289POPC   C1A 3894   7.473   5.829   5.393  0.3135  0.0222  0.1354
  289POPC   D2A 3895   7.536   6.027   5.830  0.3064 -0.0640 -0.1566
  289POPC   C3A 3896   7.232   5.924   6.101  0.1915 -0.2517  0.0343
  289POPC   C4A 3897   7.215   5.742   6.464 -0.0894 -0.4185 -0.1354
  289POPC   C1B 3898   7.774   6.252   5.345  0.1650 -0.0935  0.1523
  289POPC   C2B 3899   7.513   6.529   5.707 -0.0124  0.2387  0.1455
  289POPC   C3B 3900   7.299   6.809   6.082 -0.0386  0.0427 -0.3232
  289POPC   C4B 3901   6.974   6.962   6.402  0.0691  0.3779 -0.0004
  290POPC   NC3 3902   1.036   4.722   4.043  0.2858 -0.0863 -0.0815
  290POPC   PO4 3903   0.840   4.559   4.315  0.0772  0.3247  0.1127
  290POPC   GL1 3904   1.274   4.384   4.460 -0.0572 -0.1795  0.3156
  290POPC   GL2 3905   1.356   4.698   4.430 -0.0936 -0.0277  0.0924
  290POPC   C1A 3906   1.423   4.332   4.820  0.1366 -0.1967  0.0802
  290POPC   D2A 3907   1.817   4.216   5.041  0.1311 -0.3799 -0.0051
  290POPC   C3A 3908   2.001   4.465   5.351 -0.0675 -0.1700  0.1857
  290POPC   C4A 3909   2.125   4.444   5.784 -0.0612  0.0570  0.1535
  290POPC   C1B 3910   1.304   5.025   4.839 -0.2240  0.0935 -0.3170
  290POPC   C2B 3911   1.289   5.123   5.211 -0.0914 -0.1334 -0.0948
  290POPC   C3B 3912   1.240   5.051   5.638 -0.0341  0.1231 -0.2237
  290POPC   C4B 3913   1.138   4.657   5.885  0.3248  0.3165 -0.1557
  291POPC   NC3 3914   4.285   7.360   4.641  0.0789  0.1615  0.0626
  291POPC   PO4 3915   4.275   6.917   4.660 -0.2082  0.1633 -0.0940
  291POPC   GL1 3916   4.112   6.896   5.040 -0.0422 -0.1799 -0.1373
  291POPC   GL2 3917   4.249   7.203   5.087  0.0673  0.2195 -0.0970
  291POPC   C1A 3918   3.809   6.954   5.317  0.0160  0.3078 -0.1745
  291POPC   D2A 3919   3.390   6.789   5.481 -0.2408  0.4830 -0.2462
  291POPC   C3A 3920   3.060   7.029   5.657  0.0036  0.1724 -0.1818
  291POPC   C4A 3921   2.981   7.377   5.839  0.0193 -0.0298 -0.1827
  291POPC   C1B 3922   4.117   7.304   5.422 -0.4700  0.1899  0.0693
  291POPC   C2B 3923   4.096   7.066   5.799  0.0522 -0.2176  0.3360
  291POPC   C3B 3924   4.150   7.228   6.219 -0.0398 -0.0849  0.2594
  291POPC   C4B 3925   4.251   6.935   6.511  0.1411 -0.0568  0.0417
  292POPC   NC3 3926   2.434   1.768   4.413  0.0133 -0.0420 -0.1215
  292POPC   PO4 3927   2.268   2.153   4.607  0.1160  0.1475 -0.0246
  292POPC   GL1 3928   2.182   2.354   4.947 -0.0512  0.0677  0.1143
  292POPC   GL2 3929   2.404   2.629   4.939  0.0323  0.1472 -0.1465
  292POPC   C1A 3930   2.011   2.185   5.346  0.1068 -0.2128  0.1692
  292POPC   D2A 3931   1.985   2.253   5.735  0.2822  0.2370  0.0771
  292POPC   C3A 3932   1.627   1.950   5.949 -0.0658  0.2766 -0.1542
  292POPC   C4A 3933   1.506   1.504   6.132  0.0014 -0.1638  0.2015
  292POPC   C1B 3934   2.343   2.566   5.393  0.4219  0.1145  0.1056
  292POPC   C2B 3935   2.147   2.675   5.854  0.0699  0.4314 -0.2405
  292POPC   C3B 3936   1.861   2.571   6.186 -0.1930  0.0731  0.3836
  292POPC   C4B 3937   1.772   2.347   6.571 -0.1595  0.2447  0.0890
  293POPC   NC3 3938   2.213   6.041   3.940 -0.1939 -0.1348  0.1731
  293POPC   PO4 3939   1.906   5.634   4.092  0.3102  0.0043 -0.2507
  293POPC   GL1 3940   2.047   5.322   4.349  0.1642  0.0084 -0.2207
  293POPC   GL2 3941   2.231   5.023   4.198  0.1013 -0.0482 -0.0844
  293POPC   C1A 3942   2.273   5.445   4.737  0.1705 -0.0500  0.0200
  293POPC   D2A 3943   2.482   5.832   4.942 -0.0391  0.0529 -0.1333
  293POPC   C3A 3944   2.105   6.092   5.079  0.0864  0.0262  0.0067
  293POPC   C4A 3945   1.933   6.274   5.436  0.1045  0.1338 -0.0405
  293POPC   C1B 3946   2.132   4.944   4.711 -0.3544 -0.0260 -0.0686
  293POPC   C2B 3947   2.225   4.812   5.092 -0.0283  0.1055 -0.1035
  293POPC   C3B 3948   2.271   4.868   5.548  0.0607  0.0677 -0.0728
  293POPC   C4B 3949   2.038   4.930   5.993 -0.0282  0.3596  0.0489
  294POPC   NC3 3950   1.766   4.056   3.647  0.3544  0.1219 -0.1118
  294POPC   PO4 3951   1.635   4.244   4.128  0.0590 -0.1959  0.0889
  294POPC   GL1 3952   1.954   4.400   4.394  0.1505  0.1832 -0.1011
  294POPC   GL2 3953   1.860   4.755   4.340  0.2467 -0.0332 -0.3554
  294POPC   C1A 3954   2.180   4.448   4.772  0.3435 -0.3224  0.1149
  294POPC   D2A 3955   2.504   4.345   5.060 -0.0378 -0.1225 -0.2596
  294POPC   C3A 3956   2.703   4.703   5.338  0.0442 -0.0019 -0.1781
  294POPC   C4A 3957   2.929   4.749   5.537 -0.4031 -0.4394 -0.1772
  294POPC   C1B 3958   1.738   4.738   4.840 -0.2547  0.2008  0.0114
  294POPC   C2B 3959   1.724   4.863   5.178 -0.0719 -0.2078  0.0365
  294POPC   C3B 3960   1.756   5.060   5.600 -0.2934  0.0425  0.0849
  294POPC   C4B 3961   1.583   5.261   5.988 -0.0939  0.1650 -0.2450
  295POPC   NC3 3962   8.438   2.086   3.406 -0.0751  0.0498 -0.1772
  295POPC   PO4 3963   8.579   2.372   3.763  0.0874 -0.0745 -0.1306
  295POPC   GL1 3964   8.574   2.264   4.220  0.0863  0.5354  0.0326
  295POPC   GL2 3965   8.995   2.280   4.365 -0.1563 -0.1140 -0.0061
  295POPC   C1A 3966   8.261   2.060   4.548 -0.2039 -0.0027 -0.1639
  295POPC   D2A 3967   8.318   1.694   4.463 -0.1357  0.0959  0.2966
  295POPC   C3A 3968   8.273   1.261   4.525 -0.2058  0.0390 -0.1870
  295POPC   C4A 3969   8.077   1.256   4.860  0.0173  0.0013 -0.0613
  295POPC   C1B 3970   8.736   2.179   4.731 -0.2697  0.0790  0.0485
  295POPC   C2B 3971   8.521   1.859   4.929 -0.2557  0.0318 -0.2657
  295POPC   C3B 3972   8.558   1.381   4.974  0.2763 -0.0848  0.0640
  295POPC   C4B 3973   8.404   1.099   5.272  0.0232  0.1805  0.3088
  296POPC   NC3 3974   4.693   4.204   4.592  0.3090  0.0682 -0.5650
  296POPC   PO4 3975   4.686   3.703   4.589  0.0722  0.1015 -0.0062
  296POPC   GL1 3976   4.935   3.436   4.841 -0.0791 -0.1298  0.1099
  296POPC   GL2 3977   5.222   3.372   4.698  0.0974 -0.0789 -0.0625
  296POPC   C1A 3978   4.898   3.503   5.307 -0.2520 -0.0626  0.1938
  296POPC   D2A 3979   4.784   3.449   5.628  0.3430  0.2691  0.0756
  296POPC   C3A 3980   4.776   3.117   5.987 -0.0868  0.0410  0.0507
  296POPC   C4A 3981   4.787   2.667   6.123  0.1998 -0.1865 -0.3293
  296POPC   C1B 3982   5.358   3.335   5.120  0.1451 -0.0221 -0.3408
  296POPC   C2B 3983   5.305   3.223   5.529  0.0512  0.2491  0.1667
  296POPC   C3B 3984   5.285   3.192   5.953  0.2575  0.3705 -0.0425
  296POPC   C4B 3985   5.233   3.340   6.411  0.1436  0.3586  0.0221
  297POPC   NC3 3986   8.579   4.052   4.600  0.1795  0.0716 -0.1470
  297POPC   PO4 3987   8.730   4.445   4.719  0.0756 -0.3940 -0.3122
  297POPC   GL1 3988   8.748   4.518   5.162 -0.2690 -0.0434 -0.2012
  297POPC   GL2 3989   8.952   4.721   5.261 -0.0437 -0.0775 -0.3079
  297POPC   C1A 3990   8.508   4.872   5.513 -0.1835 -0.1885 -0.0780
  297POPC   D2A 3991   8.724   5.255   5.619 -0.0871  0.2286  0.0773
  297POPC   C3A 3992   8.676   5.567   5.908 -0.1082 -0.0189  0.6293
  297POPC   C4A 3993   8.553   5.948   5.981  0.2678 -0.0943  0.2946
  297POPC   C1B 3994   9.078   4.969   5.752 -0.1934  0.4994 -0.1073
  297POPC   C2B 3995   8.911   5.181   6.174 -0.0417 -0.2297 -0.0953
  297POPC   C3B 3996   8.663   5.596   6.400 -0.1746  0.3642 -0.0379
  297POPC   C4B 3997   8.626   6.005   6.542  0.0691  0.2850  0.1682
  298POPC   NC3 3998   7.870   3.490   4.595  0.1265 -0.2153  0.0417
  298POPC   PO4 3999   7.999   3.949   4.696  0.0161 -0.2013  0.2048
  298POPC   GL1 4000   8.055   3.691   5.021  0.0485  0.0286 -0.1711
  298POPC   GL2 4001   7.801   3.501   5.073  0.0750  0.4128  0.0653
  298POPC   C1A 4002   8.200   3.744   5.346 -0.4449 -0.0185 -0.0675
  298POPC   D2A 4003   8.404   3.753   5.720 -0.0986 -0.3144  0.0291
  298POPC   C3A 4004   8.321   3.424   6.061  0.1870  0.1879  0.0500
  298POPC   C4A 4005   8.498   3.459   6.481  0.2770  0.3140 -0.3292
  298POPC   C1B 4006   8.207   3.270   5.282  0.1082 -0.3732  0.1970
  298POPC   C2B 4007   8.092   3.106   5.734 -0.0131 -0.2170  0.1003
  298POPC   C3B 4008   7.826   3.213   6.047  0.0397  0.2649  0.1197
  298POPC   C4B 4009   7.573   2.963   6.208  0.0363 -0.2639 -0.0927
  299POPC   NC3 4010   0.781   2.492   4.700  0.0993  0.0233  0.0714
  299POPC   PO4 4011   0.990   2.762   4.582  0.1792 -0.0896 -0.1256
  299POPC   GL1 4012   1.126   3.159   4.754  0.3764 -0.1316  0.1888
  299POPC   GL2 4013   0.838   3.176   4.876 -0.0770 -0.0148 -0.2497
  299POPC   C1A 4014   1.238   3.400   5.106 -0.2615  0.3182  0.1817
  299POPC   D2A 4015   1.262   3.307   5.557 -0.1997 -0.2083  0.1661
  299POPC   C3A 4016   0.933   3.363   5.710  0.1330 -0.0015 -0.0410
  299POPC   C4A 4017   0.615   3.248   5.997 -0.1988 -0.1720 -0.0984
  299POPC   C1B 4018   0.951   2.977   5.353 -0.0253  0.1507  0.0818
  299POPC   C2B 4019   1.217   2.842   5.740  0.1555  0.0132  0.0672
  299POPC   C3B 4020   1.001   2.894   6.145  0.2114  0.0570 -0.0328
  299POPC   C4B 4021   0.765   3.001   6.413 -0.1007  0.0793 -0.0460
  300POPC   NC3 4022   9.084   6.989   4.226 -0.1470  0.0119 -0.1190
  300POPC   PO4 4023   9.368   6.804   4.258  0.1259  0.0241 -0.0465
  300POPC   GL1 4024   9.409   7.030   4.633  0.0598  0.0505 -0.0275
  300POPC   GL2 4025   9.545   6.729   4.774 -0.1004 -0.3096 -0.2110
  300POPC   C1A 4026   9.347   7.372   4.909 -0.3007  0.3313  0.1702
  300POPC   D2A 4027   9.189   7.467   5.121 -0.1120  0.5131 -0.1918
  300POPC   C3A 4028   8.785   7.449   5.201  0.0298  0.4193 -0.0202
  300POPC   C4A 4029   8.384   7.564   5.425 -0.1060  0.1440  0.0720
  300POPC   C1B 4030   9.376   6.659   5.176 -0.0130  0.2560 -0.2890
  300POPC   C2B 4031   9.351   6.641   5.602 -0.1487 -0.1501 -0.0400
  300POPC   C3B 4032   9.411   6.891   6.021  0.0917  0.0900 -0.2117
  300POPC   C4B 4033   9.644   7.286   6.053 -0.0230 -0.2523 -0.0091
  301POPC   NC3 4034   5.572   9.092   3.471  0.0740 -0.1858 -0.0201
  301POPC   PO4 4035   5.913   9.208   3.811 -0.3160 -0.0213  0.1320
  301POPC   GL1 4036   6.191   8.907   4.142 -0.3294  0.2845  0.0139
  301POPC   GL2 4037   6.387   8.542   4.083  0.0267  0.0381 -0.1871
  301POPC   C1A 4038   6.427   8.719   4.654 -0.2500 -0.1569 -0.0938
  301POPC   D2A 4039   6.778   8.456   4.431  0.0532 -0.1169  0.0670
  301POPC   C3A 4040   7.202   8.400   4.396  0.0205  0.1828  0.0814
  301POPC   C4A 4041   7.590   8.527   4.163  0.0981 -0.0047  0.1120
  301POPC   C1B 4042   6.746   8.873   4.147 -0.0704 -0.3358  0.0606
  301POPC   C2B 4043   7.031   8.868   4.540 -0.0594  0.0164 -0.0205
  301POPC   C3B 4044   7.308   8.833   4.713 -0.0133  0.3980 -0.0887
  301POPC   C4B 4045   7.771   8.805   4.611 -0.1053 -0.4131 -0.1847
  302W        W 4046   0.412   1.502  10.014 -0.2042 -0.0377 -0.2246
  303W        W 4047   1.891   5.022   9.459 -0.1367  0.6312  0.1239
  304W        W 4048   7.669   6.288   9.241 -0.2243  0.1567  0.1259
  305W        W 4049   8.177   6.888  11.500  0.1352 -0.0746  0.2871
  306W        W 4050   6.293   5.041   8.787 -0.4100  0.2157  0.4056
  307W        W 4051   3.599   8.933   2.347  0.0398  0.2539 -0.0322
  308W        W 4052   7.231   6.820   4.237  0.2157 -0.2812  0.1067
  309W        W 4053   4.626   0.430   2.599  0.2833 -0.2471  0.0224
  310W        W 4054   5.289   8.240  11.179  0.3404  0.0835 -0.1402
  311W        W 4055   5.149   9.695   3.539 -0.3313  0.2265 -0.2253
  312W        W 4056   9.410   6.854   9.295  0.1422  0.0355 -0.2063
  313W        W 4057   6.599   4.986  12.391 -0.0913 -0.0284  0.0723
  314W        W 4058   6.735   0.087  11.540  0.1880  0.2054  0.2751
  315W        W 4059   5.062   1.227   8.554  0.1114  0.0743 -0.0219
  316W        W 4060   4.384   3.327  11.982 -0.4731 -0.1137  0.0634
  317W        W 4061   6.086   0.866   1.659 -0.0190  0.1559  0.0526
  318W        W 4062   9.326   0.774   1.718 -0.0261  0.0275 -0.0903
  319W        W 4063   0.400   9.532  11.666  0.1786  0.1869  0.0575
  320W        W 4064   9.442   5.254   8.105 -0.2578 -0.2669 -0.0084
  321W        W 4065   3.889   8.948   4.264 -0.3216 -0.3316 -0.3637
  322W        W 4066   7.394   9.185   2.680 -0.2209 -0.2046 -0.3681
  323W        W 4067   0.088   6.867   1.977  0.2069 -0.1696  0.3191
  324W        W 4068   3.465   2.709   4.122 -0.3776  0.0099  0.1556
  325W        W 4069   5.322   7.589   3.189 -0.2599 -0.0010  0.1282
  326W        W 4070   9.912   0.659  10.006  0.2330  0.0517  0.0545
  327W        W 4071   5.861   8.726   9.945 -0.0419  0.1614 -0.3783
  328W        W 4072   4.488   0.302   1.892 -0.1512 -0.0295  0.1426
  329W        W 4073   2.721   7.214   9.781 -0.1994  0.0162  0.0032
  330W        W 4074   0.970   4.047   4.242  0.1545 -0.1661 -0.0637
  331W        W 4075   8.729   4.353  11.759  0.3028 -0.0166  0.2374
  332W        W 4076   2.017   7.998   4.942 -0.2975  0.1196  0.2333
  333W        W 4077   2.170   2.988   2.958  0.1987 -0.1265  0.1773
  334W        W 4078   3.769   9.556   3.767  0.4246 -0.0191  0.0905
  335W        W 4079   5.120   9.071   9.409  0.0298 -0.1783  0.0109
  336W        W 4080   1.914   5.793   3.588  0.3250  0.0836 -0.0580
  337W        W 4081   9.048   4.211   4.376 -0.0143  0.2256 -0.0245
  338W        W 4082   1.945   2.692   3.673 -0.0146 -0.1749 -0.2272
  339W        W 4083   9.787   7.468   2.761  0.1354 -0.0872 -0.0035
  340W        W 4084   9.373   7.892   3.751 -0.1591  0.0413 -0.0132
  341W        W 4085   2.568   4.454  11.625  0.0120 -0.2842  0.2005
  342W        W 4086   5.003   6.766   2.804  0.1804  0.0219  0.0149
  343W        W 4087   8.608   6.041  12.655 -0.0308 -0.1847 -0.1678
  344W        W 4088   7.204   6.693  11.791 -0.0053 -0.2207  0.2860
  345W        W 4089   2.680   5.870  11.864 -0.3415 -0.1354  0.3404
  346W        W 4090   7.132   1.141   9.723  0.0348  0.0849  0.0573
  347W        W 4091   3.117   9.762   0.793 -0.0667  0.0589  0.1255
  348W        W 4092   6.772   9.464   9.601  0.0429 -0.0736 -0.2848
  349W        W 4093   4.403   0.016   2.382 -0.0209  0.0272  0.2597
  350W        W 4094   5.429   8.901   3.898 -0.0398 -0.4318  0.1336
  351W        W 4095   9.448   9.048  11.883  0.3147  0.0812 -0.1115
  352W        W 4096   9.850   6.292   9.234  0.0307  0.1701 -0.0702
  353W        W 4097   1.580   8.787   1.403  0.0493 -0.0027  0.0469
  354W        W 4098   7.043   7.920   0.661 -0.2115 -0.1259 -0.0878
  355W        W 4099   4.343   6.274   3.862 -0.1058  0.0044 -0.2920
  356W        W 4100   3.972   5.100  12.331  0.0306  0.4053  0.2020
  357W        W 4101   9.353   7.957   2.545  0.0746 -0.0815  0.1963
  358W        W 4102   5.677   0.857   3.141 -0.3692  0.0065 -0.0293
  359W        W 4103   3.378   3.256   1.969  0.1732  0.0233  0.1723
  360W        W 4104   2.634   8.164   8.842 -0.0445 -0.0044  0.1176
  361W        W 4105   6.049   5.127   0.390 -0.0677 -0.1028  0.0282
  362W        W 4106   8.111   6.044   1.264  0.3002  0.1259 -0.1106
  363W        W 4107   2.310   6.704   9.425  0.1379  0.0751 -0.0733
  364W        W 4108   3.861   8.645  12.073 -0.0521  0.0875 -0.3750
  365W        W 4109   2.131   3.384   2.656  0.2099 -0.0165 -0.2076
  366W        W 4110   2.381   0.238  11.871  0.0089  0.1158 -0.4633
  367W        W 4111   5.502   1.369   8.458 -0.1316  0.2619 -0.1613
  368W        W 4112   4.790   6.370  10.483  0.0740 -0.3628 -0.1053
  369W        W 4113   1.274   1.693   2.781 -0.0886 -0.3180 -0.0510
  370W        W 4114   4.419   8.324  10.945  0.1572  0.2006  0.0152
  371W        W 4115   5.233   4.135  12.087  0.2545 -0.1489  0.3564
  372W        W 4116   0.631   8.551   2.236 -0.0802 -0.3274  0.1158
  373W        W 4117   2.164   6.448   0.273  0.1180 -0.1046  0.1029
  374W        W 4118   4.959   6.097  10.905 -0.1513  0.0698 -0.3934
  375W        W 4119   8.808   6.012   8.966 -0.0601  0.7601 -0.1025
  376W        W 4120   7.680   1.840  11.788  0.2411 -0.0801 -0.0183
  377W        W 4121   3.481   1.342   8.546  0.5793 -0.2095  0.2371
  378W        W 4122   0.547   7.501   1.651 -0.1997  0.0410  0.0018
  379W        W 4123   4.067   7.555  11.014  0.0963  0.1189  0.0747
  380W        W 4124   4.759   1.996  11.404  0.0648 -0.1703  0.0710
  381W        W 4125   9.806   7.987   2.809  0.1329 -0.0787  0.2139
  382W        W 4126   9.804   1.446  10.268 -0.0002  0.0813  0.0072
  383W        W 4127   8.932   5.415   1.058 -0.0204  0.2742 -0.1588
  384W        W 4128   8.630   7.204  12.629  0.4008  0.2927  0.0907
  385W        W 4129   8.454   5.098  11.407  0.3625  0.0893  0.0677
  386W        W 4130   5.361   0.988   0.099 -0.4781 -0.3140 -0.0516
  387W        W 4131   5.073   4.630   1.807  0.2167 -0.0327 -0.0567
  388W        W 4132   9.421   7.865  12.366  0.0346 -0.0624 -0.0108
  389W        W 4133   2.066   2.333   8.875 -0.0287 -0.0977 -0.1740
  390W        W 4134   8.700   6.167   1.957 -0.2969 -0.1800 -0.0459
  391W        W 4135   8.693   8.814   9.991  0.1623 -0.1119 -0.1107
  392W        W 4136   0.307   6.090  11.259  0.0602  0.1592  0.2044
  393W        W 4137   3.696   9.413   4.277 -0.1273 -0.1593 -0.2247
  394W        W 4138   7.806   7.786   1.550 -0.0162  0.1460  0.0471
  395W        W 4139   7.720   7.478  10.815 -0.1743  0.0369 -0.0333
  396W        W 4140   7.708   5.971   0.952 -0.1746 -0.0105  0.1534
  397W        W 4141   7.792   9.298   3.421 -0.2492  0.1554 -0.0391
  398W        W 4142   7.205   0.613  11.066 -0.0656  0.2588 -0.2377
  399W        W 4143   2.413   1.138   0.215  0.1466  0.0639  0.2116
  400W        W 4144   5.908   6.813   1.475 -0.4522  0.0800 -0.2895
  401W        W 4145   4.417   2.212   9.837 -0.0311 -0.0686  0.3139
  402W        W 4146   4.442   8.955   4.138 -0.2937 -0.1214 -0.3245
  403W        W 4147   4.987   7.271  10.190  0.0394  0.0537  0.0269
  404W        W 4148   1.493   6.968   0.477 -0.0599  0.0909 -0.1188
  405W        W 4149   3.334   6.429  11.564 -0.2235 -0.0868  0.4367
  406W        W 4150   7.333   0.513   1.044  0.1763 -0.2032  0.0622
  407W        W 4151   5.373   7.395   1.858 -0.0062  0.1389  0.0518
  408W        W 4152   0.947   8.466   4.029 -0.1228 -0.1280  0.1008
  409W        W 4153   2.527   8.822   3.323  0.0555  0.1996  0.1066
  410W        W 4154   5.393   5.418  12.501  0.1036 -0.1319 -0.1370
  411W        W 4155   5.518   3.144   8.841 -0.0336  0.0340  0.0220
  412W        W 4156   5.560   9.665  12.184  0.1585 -0.0340  0.2549
  413W        W 4157   1.704   2.592   2.328 -0.0715  0.2317  0.1736
  414W        W 4158   4.319   8.028  12.267 -0.2873  0.0949  0.0491
  415W        W 4159   2.601   9.392  11.164 -0.2291  0.0344 -0.4565
  416W        W 4160   2.209   8.017   2.911  0.0947  0.0224 -0.4360
  417W        W 4161   0.536   5.734   2.828  0.0716  0.3765  0.0797
  418W        W 4162   4.088   5.990  10.551 -0.3801 -0.2172 -0.1598
  419W        W 4163   5.730   7.210  11.410  0.3288  0.0176 -0.0257
  420W        W 4164   8.281   0.657  11.434 -0.0850 -0.0641 -0.1666
  421W        W 4165   0.813   0.860  12.044  0.0169 -0.0260  0.0239
  422W        W 4166   5.818   7.867   2.531  0.0455 -0.0608  0.0130
  423W        W 4167   2.894   3.671   0.909 -0.2183 -0.1415  0.0734
  424W        W 4168   3.188   3.224   0.919  0.3865 -0.3015  0.0535
  425W        W 4169   4.940   7.532   2.081  0.4147 -0.0131 -0.0559
  426W        W 4170   4.336   0.919   2.650  0.0628  0.1257  0.1642
  427W        W 4171   0.361   8.372  10.360 -0.0633 -0.3070 -0.3343
  428W        W 4172   2.710   5.575  10.562 -0.0118 -0.0786  0.3160
  429W        W 4173   1.541   9.102   1.790 -0.1177  0.1358 -0.0109
  430W        W 4174   8.561   5.831   0.374 -0.1349 -0.2488 -0.2590
  431W        W 4175   8.290   4.184  10.321  0.2598 -0.1606  0.0307
  432W        W 4176   9.326   6.819   8.854  0.1540 -0.4675  0.0149
  433W        W 4177   8.009   6.934   1.108 -0.0766 -0.0248  0.2463
  434W        W 4178   3.614   2.702  11.014 -0.0607 -0.3071  0.0056
  435W        W 4179   0.925   2.662   2.942  0.1240  0.1111  0.1184
  436W        W 4180   9.001   6.685   9.497  0.1210  0.0135  0.0674
  437W        W 4181   9.729   2.855  11.156  0.1104  0.0239 -0.2970
  438W        W 4182   9.335   5.032   2.786  0.0720 -0.1524 -0.0078
  439W        W 4183   0.659   9.141   2.388  0.2408 -0.1948 -0.1086
  440W        W 4184   1.352   8.011   1.846 -0.0105 -0.1316  0.2789
  441W        W 4185   2.260   8.196  12.200  0.1556 -0.0320 -0.2266
  442W        W 4186   4.743   4.438   3.890 -0.0880  0.0549  0.0079
  443W        W 4187   1.762   5.078   0.726  0.2565 -0.4748 -0.0082
  444W        W 4188   6.263   1.510   1.227  0.2511 -0.0002 -0.3157
  445W        W 4189   5.133   7.470   1.472 -0.2109  0.0580 -0.1160
  446W        W 4190   7.880   8.501   0.379 -0.2476  0.1000  0.1345
  447W        W 4191   9.095   5.898   1.027 -0.1399  0.2704  0.0981
  448W        W 4192   6.924   1.425   2.803  0.2886  0.0152 -0.4504
  449W        W 4193   6.677   3.832   1.157  0.0206  0.3315  0.2030
  450W        W 4194   4.776   7.818   0.393 -0.2224  0.2427 -0.0155
  451W        W 4195   9.864   2.141   4.433  0.1526 -0.3598 -0.0008
  452W        W 4196   9.889   9.142   3.176  0.0071 -0.4321  0.1804
  453W        W 4197   9.597   2.712   8.346 -0.1713  0.0431 -0.0515
  454W        W 4198   6.688   3.589   4.762 -0.2030  0.0810  0.3064
  455W        W 4199   9.401   6.246   4.222  0.0561  0.1091  0.3342
  456W        W 4200   3.041   0.074   1.275 -0.0036  0.0527 -0.0651
  457W        W 4201   6.363   9.739  11.305  0.0983  0.0306 -0.1173
  458W        W 4202   0.873   4.783  11.280 -0.0342 -0.2446 -0.1022
  459W        W 4203   8.986   4.988  11.068 -0.0533  0.2184 -0.2333
  460W        W 4204   3.900   8.689   2.685 -0.0616  0.0992 -0.2599
  461W        W 4205   7.096   6.282   0.031  0.3307 -0.0027  0.1295
  462W        W 4206   7.073   7.621  12.284  0.2471  0.0905 -0.0244
  463W        W 4207   0.222   7.142   8.299 -0.3097 -0.1061  0.0709
  464W        W 4208   9.271   7.115  11.284 -0.1303  0.0272 -0.0678
  465W        W 4209   5.843   3.862   0.438  0.2197 -0.0774 -0.1614
  466W        W 4210   5.923   2.378  11.449 -0.1561  0.0840  0.1525
  467W        W 4211   0.925   8.377  12.330  0.0352 -0.3486 -0.0244
  468W        W 4212   0.040   1.949  10.884 -0.0888  0.2524 -0.1111
  469W        W 4213   4.599   7.702   9.405  0.0313  0.2356  0.1636
  470W        W 4214   6.907   7.845   8.987  0.3610  0.0142  0.0681
  471W        W 4215   2.958   6.601   8.192  0.1700  0.1366  0.2931
  472W        W 4216   4.025   3.256   3.010  0.0198 -0.2133 -0.1999
  473W        W 4217   6.632   0.219   1.474 -0.0419 -0.0052  0.0158
  474W        W 4218   1.671   6.137   0.564 -0.1120  0.1253  0.3280
  475W        W 4219   6.100   1.094  10.834  0.0701 -0.1476  0.3264
  476W        W 4220   9.325   8.058   0.165  0.0597  0.2020  0.1579
  477W        W 4221   8.850   0.763  12.200 -0.1796  0.2574  0.1756
  478W        W 4222   3.372   3.093  12.706  0.0137 -0.2445  0.0535
  479W        W 4223   0.201   7.158  11.680  0.1978  0.0068 -0.3185
  480W        W 4224   2.725   4.835  12.408  0.0341  0.1334  0.3669
  481W        W 4225   4.724   1.622   0.657  0.0029  0.1800 -0.1162
  482W        W 4226   6.629   6.588   7.828 -0.0550  0.0237  0.2170
  483W        W 4227   3.269   2.225   9.273 -0.1217  0.1460 -0.1345
  484W        W 4228   2.107   6.668   8.799 -0.1480  0.0603 -0.3229
  485W        W 4229   4.488   2.568   0.941 -0.0329  0.4870  0.3060
  486W        W 4230   5.615   3.256  11.605  0.0556  0.2720  0.1540
  487W        W 4231   5.752   0.076   2.390 -0.0530 -0.1468  0.2476
  488W        W 4232   5.999   2.822  11.505  0.2258 -0.4027  0.0526
  489W        W 4233   5.729   0.207   4.345 -0.0262  0.1822  0.2490
  490W        W 4234   0.753   0.854   3.777 -0.1178  0.2070 -0.0567
  491W        W 4235   0.586   1.311  12.108 -0.2771 -0.1434  0.1281
  492W        W 4236   8.591   6.312  11.070  0.1130 -0.1996  0.0072
  493W        W 4237   2.986   7.474   1.671 -0.1679  0.0416  0.0861
  494W        W 4238   6.553   4.482  12.163  0.1310 -0.0443 -0.3596
  495W        W 4239   2.053   2.354   3.996 -0.3121  0.0444 -0.1783
  496W        W 4240   7.798   7.913  10.596  0.2078  0.2463  0.3978
  497W        W 4241   6.334   3.867   2.594 -0.1076 -0.0867  0.1242
  498W        W 4242   1.282   0.743   1.996  0.1451 -0.1698 -0.0593
  499W        W 4243   3.323   7.946   1.425  0.2891 -0.0245 -0.2317
  500W        W 4244   0.936   9.850  10.359  0.1242  0.1956  0.1694
  501W        W 4245   0.246   6.063  10.110 -0.0688  0.2171 -0.2379
  502W        W 4246   0.832   6.471   4.204  0.0963 -0.2943 -0.2884
  503W        W 4247   3.640   9.350   8.996  0.0908  0.1602 -0.1756
  504W        W 4248   6.439   7.718   3.337  0.0177  0.1422 -0.4141
  505W        W 4249   9.677   3.622   2.668 -0.0088  0.0853  0.0531
  506W        W 4250   6.965   5.508  11.194  0.0853  0.4282  0.1437
  507W        W 4251   6.627   5.248   0.981 -0.2410 -0.1793  0.0827
  508W        W 4252   0.849   2.423   0.410  0.3717 -0.2047  0.2272
  509W        W 4253   0.253   1.350   4.321 -0.1300 -0.3579  0.1159
  510W        W 4254   8.757   4.920   1.019  0.1922  0.0862 -0.0021
  511W        W 4255   0.371   4.806  11.352 -0.1065 -0.2096  0.3410
  512W        W 4256   7.263   8.464   1.418  0.0423  0.2345  0.0947
  513W        W 4257   7.474   3.236   2.737  0.4080  0.0349 -0.0239
  514W        W 4258   5.448   7.590   9.503 -0.2943 -0.1242  0.2861
  515W        W 4259   8.188   9.892  10.320  0.1538 -0.3716  0.2859
  516W        W 4260   8.769   6.833  12.327 -0.1336  0.2636 -0.3504
  517W        W 4261   1.669   9.228   1.285  0.0143  0.0538  0.0020
  518W        W 4262   6.506   2.231   0.266  0.2422  0.1494  0.1966
  519W        W 4263   4.535   7.150   0.141 -0.4796  0.0576  0.0006
  520W        W 4264   9.292   6.420   2.209  0.1314  0.1449  0.0969
  521W        W 4265   2.998   3.046  10.355  0.3203 -0.3631 -0.0239
  522W        W 4266   9.120   9.844   0.492 -0.2567 -0.0832 -0.1396
  523W        W 4267   8.243   8.253   2.692  0.0368  0.1735  0.1439
  524W        W 4268   6.738   0.825   2.130 -0.0046 -0.2236  0.3185
  525W        W 4269   2.169   7.822   0.808  0.0057 -0.2332 -0.1911
  526W        W 4270   8.371   6.293   0.336  0.0501 -0.2379  0.2713
  527W        W 4271   5.441   4.313   3.118  0.1156  0.2371 -0.1337
  528W        W 4272   1.377   1.206  10.385  0.0330 -0.2913  0.0371
  529W        W 4273   3.234   6.318  10.650  0.2226  0.0035  0.3273
  530W        W 4274   5.324   2.999   3.620 -0.1240 -0.0804 -0.1684
  531W        W 4275   2.731   3.814   2.270  0.1053 -0.0319 -0.0318
  532W        W 4276   5.255   6.774  11.941  0.1073  0.0942 -0.1418
  533W        W 4277   7.979   5.562  12.457  0.0547 -0.1357 -0.3575
  534W        W 4278   2.778   7.971  12.375 -0.1195 -0.2696 -0.1749
  535W        W 4279   6.127   5.445  10.592 -0.2595 -0.3045 -0.1594
  536W        W 4280   5.160   5.289   3.107  0.0353  0.1087  0.0168
  537W        W 4281   0.011   7.474   1.632 -0.3168  0.2189 -0.0303
  538W        W 4282   0.906   5.756   0.094 -0.0870 -0.0935  0.0004
  539W        W 4283   6.211   1.242   3.556 -0.0612 -0.0469  0.1103
  540W        W 4284   9.567   2.382   4.083 -0.0158  0.4626  0.1542
  541W        W 4285   8.629   3.059   0.306  0.0708  0.2328 -0.1997
  542W        W 4286   3.326   6.350   3.942  0.1808  0.0614 -0.4789
  543W        W 4287   1.232   7.628  12.704 -0.1166  0.2793  0.0381
  544W        W 4288   7.396   6.647   9.044 -0.2001 -0.1276  0.1777
  545W        W 4289   5.345   7.136   9.812  0.0642  0.1194 -0.0485
  546W        W 4290   7.889   4.940   0.232  0.2734  0.0183  0.0210
  547W        W 4291   6.553   4.398   8.979  0.1183 -0.1402 -0.0234
  548W        W 4292   9.784   5.375  10.950 -0.0610  0.1198 -0.1275
  549W        W 4293   9.964   3.118  11.529  0.1156  0.5182 -0.0363
  550W        W 4294   6.948   2.001   2.370  0.1586  0.0949  0.0086
  551W        W 4295   9.832   4.858   9.267  0.1583  0.0619  0.1237
  552W        W 4296   9.891   9.779  11.560 -0.0288 -0.0373 -0.2042
  553W        W 4297   8.029   0.926   2.752  0.0745  0.0459 -0.2451
  554W        W 4298   1.621   7.088   1.492 -0.1202 -0.0088 -0.1345
  555W        W 4299   6.165   0.750   2.887 -0.2415 -0.1222 -0.0902
  556W        W 4300   1.378   7.429  10.055 -0.0788  0.1090 -0.0328
  557W        W 4301   0.705   7.021   8.481 -0.2036 -0.2343 -0.0059
  558W        W 4302   3.377   7.624  12.251 -0.1193  0.1189 -0.1573
  559W        W 4303   3.169   7.376   2.125 -0.1279 -0.1848  0.0438
  560W        W 4304   1.035   6.097   2.100  0.1945 -0.0039  0.2224
  561W        W 4305   5.512   8.261   8.541 -0.0497 -0.0354 -0.0089
  562W        W 4306   4.246   8.499   3.493 -0.2152 -0.2839 -0.3108
  563W        W 4307   0.467   6.942  10.678  0.1395  0.1201  0.2401
  564W        W 4308   2.713   0.564   2.060 -0.0450  0.1158  0.3783
  565W        W 4309   3.639   9.132   9.786 -0.1670 -0.1576 -0.1150
  566W        W 4310   7.260   2.059   0.404 -0.1804  0.3580  0.1947
  567W        W 4311   5.919   1.874  10.425  0.2849  0.0524  0.4869
  568W        W 4312   2.510   5.477  10.064  0.0188 -0.0196 -0.2136
  569W        W 4313   0.330   0.850   8.590 -0.2584  0.1937 -0.1185
  570W        W 4314   9.765   4.963  10.589  0.3103  0.1532 -0.0267
  571W        W 4315   3.237   3.643   0.495  0.1706  0.1875  0.0605
  572W        W 4316   9.910   2.150  11.687  0.1789  0.0447  0.0438
  573W        W 4317   4.126   0.604   9.090 -0.3209  0.0648 -0.0299
  574W        W 4318   3.158   2.571  10.121  0.3121 -0.2674  0.1223
  575W        W 4319   5.160   0.778   2.921  0.1077  0.0061  0.0964
  576W        W 4320   8.801   3.448  12.606 -0.2066 -0.3184  0.2169
  577W        W 4321   0.236   8.323   0.734 -0.4736  0.1060 -0.1748
  578W        W 4322   5.454   3.976   0.805  0.3461 -0.3276  0.0941
  579W        W 4323   1.544   7.798   2.207 -0.0018  0.1806 -0.0251
  580W        W 4324   1.605   9.048   2.331  0.1663 -0.5559 -0.1830
  581W        W 4325   9.632   2.001  10.185 -0.0861  0.2318 -0.0818
  582W        W 4326   8.306   0.382   2.749  0.0263 -0.3208  0.0633
  583W        W 4327   5.030   0.323  11.610 -0.0568  0.0995  0.1222
  584W        W 4328   7.870   8.072   0.080 -0.0277 -0.0565  0.1815
  585W        W 4329   5.617   9.166   1.033  0.2335  0.0551  0.3588
  586W        W 4330   0.804   3.699   2.336 -0.0426  0.0041 -0.0463
  587W        W 4331   7.857   7.255   0.637  0.2415 -0.0605 -0.0760
  588W        W 4332   0.537   6.144   2.586  0.1814 -0.3086  0.1125
  589W        W 4333   6.941   0.819   3.078 -0.0152  0.2906  0.0921
  590W        W 4334   1.042   2.800   0.776  0.2496 -0.2154  0.0410
  591W        W 4335   5.523   2.200   2.839  0.2799  0.2732  0.0525
  592W        W 4336   9.788   5.174   7.660  0.0883 -0.1436  0.1491
  593W        W 4337   6.744   6.625   1.520 -0.2207 -0.1320  0.1242
  594W        W 4338   6.194   3.246   0.067  0.3856  0.3082 -0.1190
  595W        W 4339   3.743   2.285   0.322  0.0045 -0.1009 -0.0811
  596W        W 4340   0.681   6.493   9.433 -0.1128  0.3205 -0.0612
  597W        W 4341   3.541   6.494   3.122 -0.3115 -0.0844 -0.2031
  598W        W 4342   5.041   6.394   3.127  0.0111 -0.3901 -0.2609
  599W        W 4343   2.331   4.120   4.481 -0.1862 -0.0803  0.1538
  600W        W 4344   3.662   1.384   2.438 -0.0138  0.0468 -0.0489
  601W        W 4345   0.199   7.058   3.862  0.1000  0.0269 -0.2307
  602W        W 4346   2.415   6.943   2.027  0.2610 -0.1991  0.1374
  603W        W 4347   5.808   5.569   0.451 -0.2857  0.3108  0.0257
  604W        W 4348   3.439   7.690   1.849 -0.3910  0.0056  0.0810
  605W        W 4349   4.993   6.200   2.647 -0.1593 -0.0975  0.1518
  606W        W 4350   2.532   6.921   8.405  0.0925  0.2360 -0.2644
  607W        W 4351   4.757   4.729   4.335  0.1554  0.0671  0.2498
  608W        W 4352   5.189   1.460   3.700 -0.3541 -0.0091 -0.0618
  609W        W 4353   3.129   6.404   2.575 -0.0778 -0.1754  0.2532
  610W        W 4354   6.149   8.686  11.551  0.0973 -0.0804  0.1640
  611W        W 4355   3.195   7.498   0.416  0.2477 -0.3000  0.0728
  612W        W 4356   1.739   1.758   2.563  0.0839 -0.0621  0.0212
  613W        W 4357   1.285   8.516  10.405 -0.0552 -0.0753  0.0430
  614W        W 4358   9.280   3.222  10.617 -0.1011  0.1374  0.0007
  615W        W 4359   6.583   9.882   0.687  0.3048  0.3533  0.0179
  616W        W 4360   7.636   5.266  11.783 -0.1509 -0.0345 -0.0681
  617W        W 4361   5.450   8.733  11.179 -0.2869  0.1746 -0.0880
  618W        W 4362   1.499   6.123   1.588 -0.1426 -0.2828 -0.3349
  619W        W 4363   8.727   1.769  12.442  0.0957  0.0362  0.3539
  620W        W 4364   4.560   3.084   0.992  0.2847 -0.1665 -0.1376
  621W        W 4365   3.915   0.145   0.325 -0.0945  0.0916 -0.1982
  622W        W 4366   1.377   0.922  11.247  0.2625  0.0697  0.0736
  623W        W 4367   2.208   7.363   0.986  0.0771 -0.1739  0.2121
  624W        W 4368   2.924   0.972   9.818  0.0503 -0.0555 -0.2229
  625W        W 4369   9.000   1.951   0.616  0.1145  0.0849  0.3281
  626W        W 4370   4.183   9.287   8.827 -0.3201 -0.0183 -0.1688
  627W        W 4371   2.032   7.698   1.961  0.0527 -0.1346  0.0752
  628W        W 4372   1.480   2.827   1.675 -0.1571 -0.0687 -0.0297
  629W        W 4373   9.323   9.007   2.985 -0.3108 -0.0168 -0.0936
  630W        W 4374   2.324   0.568   3.343 -0.1232 -0.2511  0.0383
  631W        W 4375   1.122   9.952  12.200 -0.0170 -0.1160  0.0777
  632W        W 4376   6.067   8.231  10.729 -0.1280  0.1027 -0.3112
  633W        W 4377   1.056   4.597   0.234 -0.1192  0.3134 -0.0747
  634W        W 4378   3.360   9.535  10.133 -0.0430 -0.0130 -0.2624
  635W        W 4379   8.780   2.738   2.957  0.0049  0.2838  0.0016
  636W        W 4380   6.611   1.038   3.400 -0.2488  0.0219 -0.2527
  637W        W 4381   5.767   5.825   2.306 -0.1591  0.2135 -0.0392
  638W        W 4382   0.070   5.652  11.392 -0.1251  0.2642  0.2948
  639W        W 4383   4.061   5.291  10.944  0.2382  0.1666  0.2254
  640W        W 4384   7.315   5.115   2.205 -0.1074 -0.1052 -0.2943
  641W        W 4385   9.742   6.493  12.687 -0.0943 -0.0321  0.1693
  642W        W 4386   2.666   0.064  11.300 -0.0122  0.0334 -0.1590
  643W        W 4387   4.039   5.919   0.040  0.2979 -0.0618 -0.4841
  644W        W 4388   0.732   5.538  12.011 -0.1737  0.1029  0.0114
  645W        W 4389   5.281   8.899   3.066  0.2308 -0.2647  0.3228
  646W        W 4390   3.753   2.467   3.781 -0.0137 -0.2479  0.0527
  647W        W 4391   4.286   4.218   1.908 -0.0240 -0.2975 -0.1812
  648W        W 4392   8.419   9.305  11.674  0.2568 -0.3562  0.2256
  649W        W 4393   1.233   1.738  12.106 -0.1613  0.0831 -0.0613
  650W        W 4394   7.035   0.816  12.674  0.2329 -0.0240  0.0659
  651W        W 4395   2.996   8.786   0.411 -0.1619  0.2980 -0.1652
  652W        W 4396   9.255   4.485   3.875 -0.0570  0.0111  0.0434
  653W        W 4397   9.460   9.120  10.688 -0.3179  0.1338 -0.0311
  654W        W 4398   7.897   4.501  10.789 -0.0667 -0.1292 -0.0483
  655W        W 4399   2.166   2.356   1.303  0.1786 -0.2041  0.1577
  656W        W 4400   3.917   3.778   2.896  0.0343  0.0833 -0.1475
  657W        W 4401   4.589   4.441   0.561  0.1126  0.0434 -0.1934
  658W        W 4402   1.706   7.706   2.728  0.2728  0.3380 -0.1998
  659W        W 4403   3.639   7.731   4.267 -0.1400 -0.0825  0.0443
  660W        W 4404   9.178   7.570   1.121  0.2890 -0.1778 -0.2257
  661W        W 4405   0.667   1.123   9.911 -0.1578  0.1640  0.0671
  662W        W 4406   8.632   3.947   8.463 -0.2305 -0.1564  0.1203
  663W        W 4407   4.115   3.942  11.621 -0.1707 -0.0546 -0.4401
  664W        W 4408   8.981   6.279   3.228 -0.1054  0.0183  0.0542
  665W        W 4409   9.270   3.734  12.624  0.1542 -0.3011 -0.3580
  666W        W 4410   3.176   3.808   8.863 -0.2143  0.1243  0.1614
  667W        W 4411   5.015   1.881   1.085 -0.1033 -0.0783  0.1408
  668W        W 4412   0.346   5.274  11.610  0.1951  0.0943 -0.0865
  669W        W 4413   4.737   9.976   9.260 -0.4464 -0.1424 -0.1589
  670W        W 4414   1.248   5.375  11.832  0.0920  0.0422 -0.4076
  671W        W 4415   1.520   2.200   2.691 -0.0971  0.3292 -0.2011
  672W        W 4416   1.162   3.521   1.589  0.0722  0.1050 -0.4186
  673W        W 4417   0.333   8.586  12.222 -0.0170 -0.2633 -0.2546
  674W        W 4418   2.858   9.246   0.125  0.1339  0.2538  0.1688
  675W        W 4419   7.559   8.728   1.842  0.0223 -0.0794 -0.2301
  676W        W 4420   4.655   3.009   4.860  0.0809 -0.1310 -0.2356
  677W        W 4421   9.347   5.636  10.270  0.2510  0.1918  0.0559
  678W        W 4422   0.430   6.244   1.321  0.1869  0.2862  0.1885
  679W        W 4423   8.921   2.811   3.749  0.1625  0.0856  0.3334
  680W        W 4424   9.494   3.700  10.472  0.1905 -0.1105 -0.2206
  681W        W 4425   6.487   3.736   0.111 -0.1801 -0.1042 -0.0096
  682W        W 4426   8.505   6.011   9.932 -0.1163 -0.1123  0.1058
  683W        W 4427   6.232   3.475   1.021  0.1587  0.1003  0.0651
  684W        W 4428   2.350   9.148   2.988  0.1122  0.0816  0.3314
  685W        W 4429   2.846   6.385   7.782 -0.0636 -0.0740 -0.1799
  686W        W 4430   8.647   3.637  12.173 -0.3282  0.2486 -0.1420
  687W        W 4431   4.427   7.203   0.632  0.0035  0.2067  0.1111
  688W        W 4432   3.855   0.778   2.408 -0.1052  0.0872 -0.1166
  689W        W 4433   2.959   0.128   2.795 -0.3937 -0.0006  0.0302
  690W        W 4434   8.571   2.250   0.435  0.0515  0.3010 -0.1067
  691W        W 4435   3.732   0.862   0.837 -0.0473 -0.1148  0.1362
  692W        W 4436   5.537   3.786   3.106  0.0939  0.1261  0.0793
  693W        W 4437   0.484   3.879  12.233 -0.0444  0.1226  0.2319
  694W        W 4438   7.973   4.594   9.866  0.1733 -0.1994  0.2260
  695W        W 4439   8.137   8.976  11.959  0.0077  0.1342 -0.2528
  696W        W 4440   8.905   8.278   2.436  0.1141 -0.1948  0.1971
  697W        W 4441   1.673   5.490   9.688 -0.0245 -0.1247  0.0084
  698W        W 4442   8.253   5.237  12.101 -0.1798 -0.2119 -0.0566
  699W        W 4443   0.351   3.213   8.353 -0.0832  0.2144  0.0996
  700W        W 4444   3.378   7.373  11.714 -0.0138  0.3966  0.0234
  701W        W 4445   7.132   7.523   8.665 -0.1394 -0.0173 -0.0843
  702W        W 4446   9.125   2.709   1.567  0.2861  0.0625 -0.0231
  703W        W 4447   3.662   8.152  12.141  0.5072  0.0463 -0.2914
  704W        W 4448   7.005   4.945   8.294 -0.0035 -0.1457  0.1467
  705W        W 4449   0.315   5.806   0.959  0.3931  0.2215 -0.1442
  706W        W 4450   7.848   0.783   0.522  0.1870  0.0169 -0.2357
  707W        W 4451   3.906   1.719   8.398  0.1455  0.2754 -0.0177
  708W        W 4452   6.701   3.111   3.608 -0.0188 -0.2812 -0.2941
  709W        W 4453   9.778   8.940  11.047  0.0320 -0.0642 -0.0613
  710W        W 4454   1.183   9.294   1.325  0.1419 -0.2639  0.2444
  711W        W 4455   0.771   1.806   9.673 -0.0820 -0.0180 -0.0978
  712W        W 4456   8.647   4.891   0.412  0.3023  0.1055  0.0313
  713W        W 4457   6.735   3.976   2.870 -0.2005  0.1022  0.0790
  714W        W 4458   4.961   1.403  10.123  0.0579  0.1616 -0.2244
  715W        W 4459   7.697   0.578  10.117  0.0306  0.1828 -0.0612
  716W        W 4460   6.002   4.894   9.650  0.3945  0.1829 -0.1007
  717W        W 4461   3.125   5.058   3.209 -0.0684 -0.0310 -0.0353
  718W        W 4462   7.223   8.790  10.665  0.0139  0.0356  0.1264
  719W        W 4463   3.050   7.381   3.147 -0.0106  0.0598 -0.2364
  720W        W 4464   6.656   7.436   1.418 -0.1589  0.1867 -0.2350
  721W        W 4465   2.287   3.180   3.538  0.0045 -0.1633  0.1929
  722W        W 4466   7.819   3.895   9.469  0.3274 -0.0878 -0.2016
  723W        W 4467   8.644   3.717   8.918 -0.3294 -0.1419  0.1947
  724W        W 4468   7.426   1.210   2.941  0.0714  0.1131  0.0724
  725W        W 4469   3.373   9.449  12.032 -0.1366  0.3267 -0.0270
  726W        W 4470   3.256   0.108   1.758 -0.0298  0.2094 -0.0493
  727W        W 4471   8.610   3.221  11.484  0.1744  0.1891 -0.1226
  728W        W 4472   5.971   9.441  11.176  0.1836 -0.3370  0.0527
  729W        W 4473   3.196   0.651  10.853 -0.1184 -0.2423  0.2842
  730W        W 4474   9.426   4.444   9.013 -0.0088  0.1194  0.1391
  731W        W 4475   3.066   5.123   9.008 -0.1996  0.2179  0.1090
  732W        W 4476   2.371   2.318   7.955  0.0220  0.3608 -0.0246
  733W        W 4477   1.257   2.015   3.677  0.0248 -0.1651  0.1578
  734W        W 4478   9.754   8.248  10.464  0.2700 -0.1910 -0.1410
  735W        W 4479   9.912   7.019   0.964 -0.1230  0.0389  0.3289
  736W        W 4480   6.184   5.084   2.059  0.1188  0.0197  0.0422
  737W        W 4481   0.004   7.562  10.837  0.0299  0.0088  0.1890
  738W        W 4482   7.434   0.935   1.464  0.1044 -0.1614  0.0037
  739W        W 4483   8.177   4.730   3.080 -0.1689 -0.1092  0.1896
  740W        W 4484   3.524   1.540   1.579 -0.2531  0.0756  0.1251
  741W        W 4485   1.146   1.171   3.617  0.1030  0.3957 -0.1259
  742W        W 4486   3.863   3.123  12.622  0.1811  0.2765 -0.1435
  743W        W 4487   2.784   1.804   3.538 -0.1358  0.1857  0.0220
  744W        W 4488   1.867   5.251   1.180 -0.0310 -0.2059  0.1495
  745W        W 4489   5.635   8.364  12.539 -0.1627  0.2508 -0.1437
  746W        W 4490   6.798   0.312   1.023  0.1586  0.0981  0.1669
  747W        W 4491   6.226   2.714  10.254 -0.2559 -0.1016 -0.0864
  748W        W 4492   1.398   4.272   2.493 -0.0154  0.0202  0.3369
  749W        W 4493   6.012   6.397   0.790 -0.1812 -0.2140  0.1429
  750W        W 4494   9.332   4.727   0.171  0.0171  0.0225  0.0104
  751W        W 4495   5.771   4.974   8.477 -0.1983 -0.0552  0.3278
  752W        W 4496   0.232   2.361  11.993  0.0133 -0.0273 -0.1578
  753W        W 4497   2.435   0.487   0.754 -0.1172 -0.1897 -0.1582
  754W        W 4498   1.154   4.957   9.081 -0.0931  0.1927 -0.0297
  755W        W 4499   1.170   1.408   3.220 -0.0084  0.2623  0.4060
  756W        W 4500   3.158   8.092  12.063  0.2138 -0.0409 -0.0930
  757W        W 4501   9.042   4.486   1.155 -0.0308  0.1422  0.1643
  758W        W 4502   9.845   8.020   2.316 -0.2311  0.0620  0.0179
  759W        W 4503   7.761   5.708  10.898 -0.1447 -0.3904  0.0846
  760W        W 4504   4.060   3.457   8.973  0.0472  0.6583  0.1067
  761W        W 4505   1.236   8.071  10.806  0.1600 -0.0712 -0.1943
  762W        W 4506   0.192   9.584   3.205 -0.2598 -0.0408 -0.0166
  763W        W 4507   0.565   4.906   4.079 -0.0280 -0.3216  0.1049
  764W        W 4508   7.588   4.891   2.956 -0.1981  0.1982 -0.0710
  765W        W 4509   4.713   1.491  12.351 -0.2011 -0.0240  0.3467
  766W        W 4510   0.056   0.237   2.427 -0.0093  0.0890 -0.0442
  767W        W 4511   6.835   7.340  10.871 -0.0188 -0.1593 -0.1064
  768W        W 4512   0.674   5.462   9.852  0.0438 -0.5861 -0.0810
  769W        W 4513   7.316   1.687   3.084  0.1304  0.2846  0.2705
  770W        W 4514   8.503   5.789   2.304  0.1567 -0.1121  0.2104
  771W        W 4515   9.602   3.487   1.299 -0.1301  0.0981 -0.1016
  772W        W 4516   6.152   9.331   2.786  0.0226 -0.2515 -0.1513
  773W        W 4517   2.451   2.846   9.359  0.0312 -0.1345  0.0331
  774W        W 4518   9.732   6.921  12.225  0.1446 -0.0820 -0.1888
  775W        W 4519   7.684   4.206   9.839 -0.1270  0.0417  0.2054
  776W        W 4520   3.996   1.880   0.827  0.0596  0.2582 -0.1179
  777W        W 4521   0.384   7.692   0.158 -0.1603  0.1280 -0.0703
  778W        W 4522   3.021   8.129  10.100 -0.1140  0.1695 -0.0695
  779W        W 4523   5.715   6.408  10.483  0.0297  0.4221  0.2964
  780W        W 4524   6.644   3.387  12.003  0.0332  0.2807  0.2029
  781W        W 4525   2.469   6.955  10.868 -0.0914  0.0462  0.0147
  782W        W 4526   5.807   5.393  10.261  0.2385  0.0878  0.1044
  783W        W 4527   6.975   3.557   9.829 -0.1027  0.1810 -0.1267
  784W        W 4528   6.134   7.113   0.278  0.0711 -0.0985  0.1966
  785W        W 4529   6.120   5.575   7.890 -0.3045  0.2042 -0.0086
  786W        W 4530   1.285   7.956   2.747 -0.0069 -0.0191  0.0938
  787W        W 4531   9.150   7.144   9.677 -0.0917  0.1040 -0.0002
  788W        W 4532   8.927   8.031   1.445  0.0285  0.3487  0.2839
  789W        W 4533   3.945   5.764  11.172 -0.0105  0.0690  0.0793
  790W        W 4534   9.810   6.891   8.844  0.0860  0.3807 -0.4971
  791W        W 4535   7.390   5.308  10.888  0.1370 -0.1302  0.5495
  792W        W 4536   8.002   6.016   2.609  0.1269  0.1675  0.0607
  793W        W 4537   3.343   2.783   1.256  0.1240 -0.2180  0.1254
  794W        W 4538   6.705   4.636   0.480 -0.1866  0.1869 -0.2588
  795W        W 4539   0.882   2.983   9.052 -0.0180 -0.4275 -0.2837
  796W        W 4540   7.807   2.344   0.028  0.2745  0.0093  0.0601
  797W        W 4541   3.496   2.207  10.716  0.0092 -0.1273  0.1065
  798W        W 4542   8.090   0.750  10.483 -0.0595  0.1099 -0.0639
  799W        W 4543   4.478   5.874   3.619 -0.0978  0.0441  0.0825
  800W        W 4544   0.722   5.874   0.532  0.0661 -0.2098 -0.2415
  801W        W 4545   3.163   4.872  10.293  0.3028  0.1653  0.2957
  802W        W 4546   3.439   3.701   4.688 -0.1409 -0.0291 -0.2954
  803W        W 4547   3.699   2.045   9.508  0.3142 -0.0099  0.1631
  804W        W 4548   3.822   2.640   1.254 -0.1147  0.3545 -0.1545
  805W        W 4549   8.111   1.060   0.895 -0.1312 -0.2074 -0.1948
  806W        W 4550   2.969   1.939   0.286 -0.2147 -0.2047 -0.1793
  807W        W 4551   1.419   5.508   8.639  0.3314 -0.1643  0.0599
  808W        W 4552   0.450   4.709   2.267 -0.1869 -0.2475 -0.0679
  809W        W 4553   6.190   1.709   3.785 -0.2397  0.0054  0.1203
  810W        W 4554   8.743   1.799   2.587  0.1453 -0.0371  0.2668
  811W        W 4555   3.999   2.613   0.731 -0.0671 -0.2807  0.2089
  812W        W 4556   7.318   5.063   9.767 -0.1136 -0.0106 -0.0347
  813W        W 4557   0.481   8.954   1.867  0.0515 -0.1830  0.0639
  814W        W 4558   4.704   9.456   3.435 -0.1585  0.0639 -0.1027
  815W        W 4559   0.178   4.169  12.482  0.0248 -0.1086 -0.1478
  816W        W 4560   1.091   8.825  11.395  0.1631  0.2490 -0.1783
  817W        W 4561   4.602   4.620   9.103  0.1616  0.1017 -0.1342
  818W        W 4562   6.836   6.640   0.359  0.2909  0.1189  0.2606
  819W        W 4563   3.763   9.441  10.460 -0.2232  0.3612 -0.2405
  820W        W 4564   1.708   5.290  10.950 -0.0610 -0.3680 -0.3236
  821W        W 4565   1.296   2.819   9.916  0.2335 -0.1097 -0.1317
  822W        W 4566   5.066   9.804  10.740  0.0683  0.1371  0.0424
  823W        W 4567   2.240   3.249  11.293 -0.2188 -0.0830 -0.1845
  824W        W 4568   7.047   0.984   2.613  0.1226  0.0653  0.1209
  825W        W 4569   2.985   9.620   1.786 -0.2583 -0.2682 -0.0359
  826W        W 4570   4.902   6.716  12.476  0.0957  0.1804 -0.0544
  827W        W 4571   8.715   6.143  11.563  0.2438  0.0749 -0.0886
  828W        W 4572   3.837   7.641   9.997  0.4128 -0.0259 -0.1095
  829W        W 4573   8.380   6.237   3.461  0.2879 -0.3798 -0.2501
  830W        W 4574   1.687   2.513  12.172  0.0131 -0.0924 -0.3827
  831W        W 4575   0.590   6.367   0.367 -0.1495 -0.0063  0.0658
  832W        W 4576   7.763   8.720   1.289  0.0801  0.0558 -0.0461
  833W        W 4577   4.824   9.488  11.001 -0.2773  0.1669 -0.1214
  834W        W 4578   4.938   3.093   2.955 -0.3058  0.3222  0.0863
  835W        W 4579   4.488   5.683   9.256 -0.0935  0.0934  0.3193
  836W        W 4580   1.281   4.871   3.580 -0.2749 -0.2282  0.2213
  837W        W 4581   3.895   9.768  11.302  0.0192  0.1749 -0.0466
  838W        W 4582   7.431   6.433   2.019 -0.0829 -0.1335  0.3144
  839W        W 4583   7.029   1.534   9.345  0.0744  0.0110 -0.0278
  840W        W 4584   0.094   0.689   3.327 -0.0101 -0.1751 -0.1399
  841W        W 4585   3.561   7.334   2.454 -0.0070 -0.0304  0.0456
  842W        W 4586   1.545   4.856  12.018 -0.3081 -0.1690 -0.0007
  843W        W 4587   6.822   9.821  12.555 -0.0557  0.0300  0.0443
  844W        W 4588   2.231   5.778  10.457  0.1071 -0.0073  0.4332
  845W        W 4589   1.706   3.579   0.567 -0.2157  0.1666  0.4388
  846W        W 4590   5.973   4.276   1.527  0.1719 -0.1438  0.4467
  847W        W 4591   1.954   1.546   3.790  0.0136  0.0337  0.0696
  848W        W 4592   7.047   9.371  12.236 -0.0025 -0.2975  0.2219
  849W        W 4593   4.971   0.540  11.177 -0.1587  0.2076  0.0061
  850W        W 4594   1.083   2.269   1.753 -0.0454 -0.2361  0.0839
  851W        W 4595   2.084   4.089  11.281  0.1131  0.0388  0.4487
  852W        W 4596   7.042   5.890   1.510  0.1070 -0.1098 -0.0094
  853W        W 4597   2.784   0.735  11.822 -0.1406 -0.5718 -0.2364
  854W        W 4598   2.825   4.505   2.055  0.0739 -0.0173 -0.1314
  855W        W 4599   1.395   4.366   0.604 -0.0661 -0.4076 -0.1219
  856W        W 4600   6.295   8.580   9.771 -0.0830 -0.1057  0.0201
  857W        W 4601   3.411   6.919   8.312  0.1736 -0.4126  0.0538
  858W        W 4602   3.762   0.207   1.685 -0.1917 -0.0566 -0.1572
  859W        W 4603   2.867   4.447  10.929  0.3288 -0.2168  0.1943
  860W        W 4604   2.448   7.697  12.131 -0.0099  0.0012 -0.1088
  861W        W 4605   8.092   1.219   3.194 -0.1924 -0.2361  0.2528
  862W        W 4606   4.528   2.479   2.735  0.0825  0.1061 -0.1181
  863W        W 4607   7.487   8.700   2.346 -0.0663 -0.1162  0.6752
  864W        W 4608   3.514   2.224   2.237 -0.0866 -0.0788 -0.3484
  865W        W 4609   9.027   1.663   9.371  0.2042 -0.0022  0.1162
  866W        W 4610   3.469   7.599   9.650 -0.1380 -0.1003  0.1116
  867W        W 4611   2.000   8.058   3.833  0.0665  0.2225  0.2412
  868W        W 4612   4.291   2.103  11.140 -0.0359 -0.5612  0.0767
  869W        W 4613   6.649   4.213   0.811 -0.2215  0.0888  0.2556
  870W        W 4614   2.816   7.235  11.530 -0.2831  0.0786 -0.0111
  871W        W 4615   5.230   5.156  12.066  0.0899  0.0095  0.0227
  872W        W 4616   0.881   1.458  10.142  0.0276 -0.1830  0.1836
  873W        W 4617   9.690   5.860   0.193  0.0404 -0.0705  0.1774
  874W        W 4618   4.500   1.561   1.123 -0.0795 -0.1052  0.3451
  875W        W 4619   4.885   7.734   3.403 -0.2047 -0.3002 -0.0172
  876W        W 4620   0.686   7.140  11.541 -0.1003  0.0901 -0.2058
  877W        W 4621   1.977   6.125   1.494 -0.1346 -0.0091 -0.0680
  878W        W 4622   7.186   2.296   2.693 -0.1195  0.1316 -0.1986
  879W        W 4623   4.237   6.869  12.602  0.2018  0.0692  0.1926
  880W        W 4624   0.401   9.119   3.219  0.0059  0.3510 -0.0746
  881W        W 4625   2.824   2.831   3.451  0.1475  0.0968 -0.0317
  882W        W 4626   3.473   9.835   9.800  0.1292 -0.0493 -0.0461
  883W        W 4627   8.169   1.947  10.133 -0.0585  0.0064  0.0619
  884W        W 4628   7.380   6.659   3.253 -0.0097  0.1915 -0.1840
  885W        W 4629   2.957   7.098   8.263  0.4680  0.0586  0.0826
  886W        W 4630   9.365   3.090  12.049  0.0453  0.1741 -0.0493
  887W        W 4631   3.328   3.491   4.054  0.1792  0.1421  0.1578
  888W        W 4632   9.558   1.031  11.968  0.2155  0.0691 -0.4629
  889W        W 4633   3.382   6.993   5.005 -0.1194 -0.1778 -0.0246
  890W        W 4634   1.374   3.200   0.564 -0.1597 -0.0294 -0.1506
  891W        W 4635   4.057   5.596   1.032  0.1122  0.1208 -0.0068
  892W        W 4636   3.099   4.733   9.754 -0.0552  0.0028 -0.2017
  893W        W 4637   3.071   8.852  10.653  0.0997 -0.2122  0.1837
  894W        W 4638   7.585   2.235   9.389 -0.0674  0.2090 -0.1667
  895W        W 4639   1.707   5.322   3.152 -0.3635  0.0074  0.2769
  896W        W 4640   5.313   1.546   2.293 -0.0506  0.0641 -0.0707
  897W        W 4641   3.911   0.633   0.165 -0.0244  0.0027  0.1229
  898W        W 4642   1.589   7.275   8.372 -0.2295  0.3352 -0.2990
  899W        W 4643   2.560   8.196   0.842 -0.0085  0.0491  0.0747
  900W        W 4644   6.312   4.851  10.920  0.1773  0.1056  0.2561
  901W        W 4645   1.902   0.935  11.974 -0.0433 -0.0588  0.2538
  902W        W 4646   6.101   9.845  10.853  0.0644 -0.1651  0.1299
  903W        W 4647   2.451   3.236  10.418  0.2794 -0.0415 -0.1885
  904W        W 4648   5.832   8.574   2.267  0.2663 -0.2955 -0.0168
  905W        W 4649   4.372   9.542   5.040  0.1269  0.1592  0.1113
  906W        W 4650   6.965   1.138   0.451  0.1985 -0.0057 -0.0847
  907W        W 4651   4.146   4.844   9.239 -0.0009  0.4350 -0.0504
  908W        W 4652   7.288   2.851   4.355 -0.0899 -0.1192 -0.0755
  909W        W 4653   2.728   7.899  10.440  0.1940 -0.1300 -0.0750
  910W        W 4654   3.623   4.979   0.433 -0.1087 -0.2451 -0.1404
  911W        W 4655   5.561   9.088   9.750 -0.2253 -0.2323  0.3744
  912W        W 4656   3.716   0.753   3.993  0.0121 -0.2083 -0.0609
  913W        W 4657   5.909   2.860  12.585 -0.3778  0.5906 -0.3290
  914W        W 4658   2.654   5.907  10.937  0.0595  0.1738 -0.0421
  915W        W 4659   5.704   4.439   1.047 -0.2392 -0.0710 -0.1837
  916W        W 4660   1.844   3.483   9.453 -0.2149 -0.0634  0.1344
  917W        W 4661   2.710   3.706   9.102  0.0174 -0.0697  0.0155
  918W        W 4662   8.740   0.638  11.121 -0.0150 -0.0506  0.0120
  919W        W 4663   4.768   8.160   9.126  0.1218 -0.1735  0.1284
  920W        W 4664   9.190   0.068   9.406 -0.0414 -0.0158  0.2235
  921W        W 4665   8.088   8.789   1.794 -0.1198  0.1365 -0.1122
  922W        W 4666   8.286   7.188   3.111  0.0217 -0.1615 -0.2901
  923W        W 4667   9.121   0.326  11.499  0.0199 -0.0218  0.0326
  924W        W 4668   6.262   3.013   0.722  0.1779 -0.2749 -0.1039
  925W        W 4669   1.429   8.450  11.240  0.2022 -0.0895  0.1833
  926W        W 4670   9.155   0.863  11.350 -0.1443 -0.2840 -0.0290
  927W        W 4671   4.642   7.413   4.196  0.0522 -0.0655  0.0794
  928W        W 4672   7.087   2.121   9.499 -0.3281  0.0968 -0.1462
  929W        W 4673   8.531   5.741   3.423  0.1461 -0.1728 -0.0913
  930W        W 4674   8.276   3.287  11.943 -0.2598  0.1114 -0.1925
  931W        W 4675   9.144   9.665  10.142 -0.2161  0.3418 -0.3504
  932W        W 4676   1.478   1.580   3.527  0.1148  0.0133 -0.1692
  933W        W 4677   0.532   5.712   1.406  0.1419 -0.0379 -0.1726
  934W        W 4678   3.448   6.452  10.094 -0.1017  0.0267  0.0026
  935W        W 4679   2.265   6.408   1.204  0.1783 -0.0903  0.1857
  936W        W 4680   4.189   4.238   0.143 -0.0892 -0.0526  0.2394
  937W        W 4681   1.250   3.009   2.148 -0.1046 -0.2317  0.0001
  938W        W 4682   1.684   7.773   1.582  0.2445 -0.0607  0.0461
  939W        W 4683   4.085   9.821   1.483 -0.0785 -0.2122  0.1081
  940W        W 4684   5.251   4.145   8.970 -0.0970  0.2105 -0.0904
  941W        W 4685   7.344   0.300  11.951  0.1792 -0.2159 -0.1494
  942W        W 4686   3.440   0.607   0.416  0.0244 -0.0822 -0.2901
  943W        W 4687   2.640   5.035   1.397 -0.1543 -0.1336 -0.1207
  944W        W 4688   2.544   7.244  12.336 -0.2875  0.0456  0.2249
  945W        W 4689   8.085   2.544   3.565 -0.1057 -0.1643 -0.5491
  946W        W 4690   2.003   0.153   3.313 -0.1988 -0.1669  0.2494
  947W        W 4691   3.253   0.241   4.331  0.1610  0.0762  0.4397
  948W        W 4692   9.897   6.363   9.951  0.2354 -0.0744  0.3005
  949W        W 4693   1.374   0.297   2.272  0.0244 -0.1202 -0.0050
  950W        W 4694   7.564   7.667  12.145 -0.0242 -0.0744 -0.0288
  951W        W 4695   5.704   2.099   4.193  0.0599 -0.0986 -0.0701
  952W        W 4696   5.688   2.432   0.110  0.0907  0.1849 -0.1589
  953W        W 4697   8.286   4.792   9.454 -0.1843  0.1784 -0.0772
  954W        W 4698   1.730   2.757   4.119  0.3865 -0.0808 -0.0702
  955W        W 4699   5.234   2.113   0.322 -0.1915 -0.0324 -0.0349
  956W        W 4700   9.419   8.575   0.116  0.0681 -0.0703 -0.1129
  957W        W 4701   1.211   7.530  10.894 -0.1572 -0.2998  0.0567
  958W        W 4702   3.985   3.820   0.360 -0.3363  0.2871  0.0355
  959W        W 4703   7.467   0.547  12.679 -0.0798  0.1217 -0.1782
  960W        W 4704   0.747   0.305   0.514 -0.0034 -0.0592  0.1704
  961W        W 4705   1.214   1.866   0.386  0.0979  0.1792 -0.4359
  962W        W 4706   0.469   7.677   9.632 -0.0345 -0.0929 -0.1068
  963W        W 4707   0.926   8.843  10.439  0.1768  0.0332 -0.1023
  964W        W 4708   6.165   1.009  12.282 -0.0974 -0.0461 -0.0212
  965W        W 4709   6.449   4.907   3.788  0.0399 -0.0962  0.0276
  966W        W 4710   2.717   0.951   0.617  0.1969 -0.1792 -0.0320
  967W        W 4711   4.268   0.039   3.816 -0.1357 -0.1868  0.2861
  968W        W 4712   2.157   0.823   2.258  0.1482  0.2101  0.0725
  969W        W 4713   1.924   6.680  12.205 -0.0041  0.0758 -0.1106
  970W        W 4714   9.369   3.014   1.231 -0.3310 -0.1557  0.0874
  971W        W 4715   9.452   7.177  11.784  0.1060 -0.1829 -0.1389
  972W        W 4716   2.630   3.588   3.594 -0.0711  0.0369  0.0149
  973W        W 4717   0.011   4.791   1.515  0.0543  0.1840  0.1774
  974W        W 4718   9.797   8.121  12.709 -0.1266  0.1658  0.2311
  975W        W 4719   2.712   6.414  10.871  0.0793 -0.0532  0.2826
  976W        W 4720   7.151   5.915  12.340  0.1827 -0.3601 -0.3558
  977W        W 4721   8.914   0.714  12.678 -0.1887  0.0745 -0.0879
  978W        W 4722   1.134   3.880   1.262 -0.2058 -0.2511 -0.2011
  979W        W 4723   8.100   1.445  11.831 -0.2528 -0.1622 -0.2527
  980W        W 4724   2.194   8.814  10.785  0.0090 -0.1349 -0.1464
  981W        W 4725   7.430   6.574   7.799 -0.3444 -0.0758 -0.0679
  982W        W 4726   6.633   0.624   2.655 -0.0826 -0.0314 -0.0213
  983W        W 4727   4.438   2.376   8.893  0.0298  0.2075 -0.0514
  984W        W 4728   0.726   1.333   2.915 -0.3090  0.2698 -0.2760
  985W        W 4729   3.505   5.390   4.641  0.2776 -0.1191  0.1828
  986W        W 4730   4.728   7.202   1.564 -0.0528 -0.1776 -0.0178
  987W        W 4731   3.631   3.490   0.185 -0.0195  0.2648 -0.0850
  988W        W 4732   7.793   3.529  12.034  0.1409  0.0863 -0.5503
  989W        W 4733   0.279   5.101   1.236 -0.1349  0.1477  0.0793
  990W        W 4734   6.902   3.171   2.456  0.1076 -0.3355 -0.1562
  991W        W 4735   1.922   4.709   9.864  0.0483  0.0670 -0.0541
  992W        W 4736   9.077   7.663  11.925  0.2994  0.0776  0.0594
  993W        W 4737   5.230   7.803   2.701 -0.0576 -0.2517  0.3063
  994W        W 4738   2.569   9.012  11.579  0.3079  0.0752  0.1377
  995W        W 4739   1.435   6.625   1.573  0.1660  0.0253 -0.1111
  996W        W 4740   0.070   0.728   0.398 -0.0068 -0.0398 -0.2598
  997W        W 4741   3.826   8.241   7.940 -0.1551  0.2026 -0.0572
  998W        W 4742   0.169   5.869   0.490  0.0455  0.3518  0.1080
  999W        W 4743   2.106   1.215  10.749  0.2047 -0.0541  0.1075
 1000W        W 4744   4.914   2.531   9.019  0.3063  0.1101 -0.2437
 1001W        W 4745   8.659   4.573   2.890 -0.0977  0.1637  0.0966
 1002W        W 4746   3.352   0.220   9.459  0.1618  0.1832 -0.1627
 1003W        W 4747   5.457   1.435  10.314 -0.1695 -0.0956 -0.0212
 1004W        W 4748   6.888   8.657   1.121 -0.1278 -0.1202  0.1136
 1005W        W 4749   5.506   3.560  12.109  0.1240  0.1219  0.1009
 1006W        W 4750   1.180   4.396  12.508  0.4139  0.4027  0.2740
 1007W        W 4751   4.144   3.611   3.354 -0.0238  0.0118 -0.1131
 1008W        W 4752   2.626   5.070  11.364  0.2750  0.3845 -0.0427
 1009W        W 4753   0.729   2.558   1.426 -0.1412  0.0313 -0.2269
 1010W        W 4754   5.889   0.026  11.319 -0.0286  0.2771 -0.0105
 1011W        W 4755   6.017   1.333  10.367 -0.0746  0.0907  0.1067
 1012W        W 4756   0.036   8.347   2.034  0.1701  0.0622  0.1065
 1013W        W 4757   4.978   5.782   3.027  0.1099 -0.1754  0.2086
 1014W        W 4758   0.959   4.478   2.581 -0.2447  0.1702 -0.1761
 1015W        W 4759   6.914   4.077   2.034  0.2350 -0.1595 -0.1930
 1016W        W 4760   1.720   0.573   1.172 -0.0170  0.0469  0.0263
 1017W        W 4761   9.409   4.621  10.371  0.1900  0.2697  0.2027
 1018W        W 4762   6.390   3.072   1.232 -0.1504  0.1763  0.3201
 1019W        W 4763   6.020   3.393  11.885 -0.0347  0.3081 -0.1450
 1020W        W 4764   1.831   3.431  12.020  0.0265 -0.0165 -0.0265
 1021W        W 4765   7.413   6.209   2.493  0.3292 -0.1118 -0.4457
 1022W        W 4766   2.196   9.102   2.183  0.1021 -0.1972  0.1209
 1023W        W 4767   2.567   9.752  11.670  0.1814  0.1413 -0.2360
 1024W        W 4768   6.882   7.532   3.755 -0.2264  0.3627  0.2055
 1025W        W 4769   0.860   4.577  10.805  0.0335 -0.1019 -0.0764
 1026W        W 4770   0.066   5.486  12.468 -0.0867 -0.0490 -0.2309
 1027W        W 4771   4.249   3.478   0.611 -0.4590  0.2197 -0.1725
 1028W        W 4772   1.398   9.769   0.136  0.0506  0.3921  0.1085
 1029W        W 4773   8.598   1.700  10.049 -0.0214  0.3430  0.4024
 1030W        W 4774   6.238   5.197  10.113  0.1315 -0.2960 -0.2674
 1031W        W 4775   3.138   7.731  10.641  0.0945  0.1123 -0.2391
 1032W        W 4776   3.722   3.534   0.698 -0.1340  0.0113 -0.2637
 1033W        W 4777   3.673   3.767   8.708  0.0322 -0.0937 -0.1092
 1034W        W 4778   7.004   1.074   3.705  0.1093  0.0572 -0.2674
 1035W        W 4779   9.413   9.708   2.519 -0.0397 -0.3070  0.0265
 1036W        W 4780   0.865   7.688   3.342 -0.1001  0.1690  0.2246
 1037W        W 4781   5.044   0.279   2.859 -0.4406 -0.0518 -0.0798
 1038W        W 4782   1.783   0.928   1.838  0.1227 -0.2086  0.0241
 1039W        W 4783   0.405   4.727   9.253  0.1494 -0.0154 -0.1360
 1040W        W 4784   0.236   5.208   2.114 -0.0150  0.2885 -0.5668
 1041W        W 4785   0.661   8.018  11.558 -0.0108  0.2936  0.3115
 1042W        W 4786   2.867   3.260  12.422  0.0161 -0.3951  0.3961
 1043W        W 4787   3.635   8.147   5.126 -0.0867  0.1570 -0.1494
 1044W        W 4788   1.196   7.912  11.407  0.1869 -0.0351  0.1262
 1045W        W 4789   3.892   8.842   1.789 -0.1295  0.0186  0.0608
 1046W        W 4790   1.521   2.986  12.261  0.1715 -0.0180  0.1690
 1047W        W 4791   7.460   3.484  11.634 -0.0734 -0.1492 -0.1230
 1048W        W 4792   9.793   4.929  12.339 -0.4122 -0.1101 -0.1899
 1049W        W 4793   7.805   0.043   2.095 -0.0081 -0.1362 -0.0532
 1050W        W 4794   9.131   1.583   2.843  0.1096  0.0494  0.0317
 1051W        W 4795   8.118   8.539  12.680  0.2232  0.2013 -0.0644
 1052W        W 4796   1.073   5.746   3.633  0.0560 -0.0231 -0.0499
 1053W        W 4797   4.594   1.689  11.847 -0.0961 -0.1798  0.0524
 1054W        W 4798   2.700   7.603  11.107  0.0497  0.0349  0.1767
 1055W        W 4799   7.554   3.980   3.338 -0.0828  0.0387  0.3053
 1056W        W 4800   1.204   7.087   1.720 -0.3247 -0.1732  0.0124
 1057W        W 4801   5.247   7.693   0.400 -0.6854  0.0129 -0.0079
 1058W        W 4802   7.776   4.488   0.444  0.0950  0.0950  0.1553
 1059W        W 4803   2.923   5.780  10.144  0.0211  0.2877 -0.0042
 1060W        W 4804   1.363   6.387   9.333  0.1390 -0.0808  0.3583
 1061W        W 4805   2.937   9.540   1.303 -0.1545 -0.2300 -0.1149
 1062W        W 4806   1.960   5.429   9.205  0.3108  0.1118  0.0192
 1063W        W 4807   3.599   3.024   2.958  0.1261  0.0786  0.3546
 1064W        W 4808   3.936   0.332  11.538  0.1671 -0.0016  0.2003
 1065W        W 4809   8.440   5.648   8.538 -0.0188 -0.3655  0.0127
 1066W        W 4810   6.832   5.202   3.316 -0.1731 -0.3216  0.2938
 1067W        W 4811   2.621   2.159   1.144 -0.2907 -0.1244  0.2180
 1068W        W 4812   7.177   5.800   0.110 -0.4024  0.1491 -0.1514
 1069W        W 4813   4.498   4.407   2.917 -0.1303 -0.2598  0.0052
 1070W        W 4814   4.223   5.683   8.827  0.1896  0.2770 -0.1501
 1071W        W 4815   0.478   5.641   8.766 -0.3404 -0.2925  0.4442
 1072W        W 4816   5.685   3.850   3.952  0.0184  0.1444  0.1995
 1073W        W 4817   9.588   1.832   2.910 -0.3116  0.3637  0.1265
 1074W        W 4818   2.469   6.394   4.295 -0.1651 -0.1352 -0.1828
 1075W        W 4819   5.118   7.746   0.953  0.3583  0.2281  0.1786
 1076W        W 4820   8.693   5.605   4.360  0.0252  0.0652  0.2313
 1077W        W 4821   2.649   8.255   3.047 -0.3383 -0.0010 -0.0064
 1078W        W 4822   0.882   0.938   9.436 -0.1750 -0.0967 -0.0776
 1079W        W 4823   7.049   9.798  10.537  0.2790 -0.0450 -0.0216
 1080W        W 4824   9.012   4.037   4.837 -0.0104 -0.1853 -0.1746
 1081W        W 4825   6.321   0.935   0.566  0.0295 -0.3235 -0.0364
 1082W        W 4826   9.887   2.753   0.084 -0.3836 -0.0335  0.3458
 1083W        W 4827   8.052   5.684   3.156  0.2944 -0.1435 -0.0223
 1084W        W 4828   1.838   1.795   1.088  0.1559  0.0485 -0.0145
 1085W        W 4829   5.853   5.921   4.550 -0.1057  0.1724  0.1691
 1086W        W 4830   5.862   5.885   1.787 -0.1794  0.2343 -0.3380
 1087W        W 4831   5.498   5.007  10.205  0.0249  0.1096 -0.1102
 1088W        W 4832   7.854   3.743   1.141  0.2874  0.0954  0.4697
 1089W        W 4833   9.070   3.091   2.417 -0.0328 -0.0431  0.1555
 1090W        W 4834   8.983   4.878  12.061  0.0299 -0.2177  0.0431
 1091W        W 4835   2.421   6.887   3.002  0.0138  0.2433  0.4735
 1092W        W 4836   7.956   0.761  12.741  0.2752 -0.1448  0.1727
 1093W        W 4837   7.073   8.271   3.078  0.3090  0.1033 -0.5983
 1094W        W 4838   7.202   5.474   1.829 -0.0767 -0.0635  0.2272
 1095W        W 4839   8.491   5.734  10.737  0.1063  0.0717 -0.0603
 1096W        W 4840   6.920   2.373   0.430  0.0505  0.0906  0.1568
 1097W        W 4841   6.862   7.636   1.861  0.1071  0.0929 -0.2629
 1098W        W 4842   2.386   1.595  11.389 -0.0275 -0.2944 -0.0508
 1099W        W 4843   5.826   5.295   4.587 -0.5637 -0.1298  0.0168
 1100W        W 4844   7.583   9.657   2.453 -0.0821  0.0085  0.0734
 1101W        W 4845   0.605   1.823   2.917 -0.2947 -0.3257  0.0095
 1102W        W 4846   4.457   5.244   1.725  0.0135 -0.2877  0.0953
 1103W        W 4847   3.870   7.371  11.937  0.1985 -0.0751 -0.2818
 1104W        W 4848   5.058   7.975   8.797  0.0439 -0.0358 -0.2382
 1105W        W 4849   1.789   9.952   3.689  0.0562 -0.1254  0.2727
 1106W        W 4850   2.969   2.344  12.680  0.3646 -0.2360  0.2589
 1107W        W 4851   1.462   9.734   1.116  0.0329 -0.3441  0.1601
 1108W        W 4852   4.451   2.957   4.342 -0.0586 -0.0596 -0.2312
 1109W        W 4853   7.567   4.728  11.121  0.1441  0.1279  0.0913
 1110W        W 4854   1.283   0.352  11.431  0.3883 -0.2773 -0.1142
 1111W        W 4855   3.265   3.218  11.739  0.1315 -0.0749  0.2911
 1112W        W 4856   5.761   9.347   1.697  0.1055 -0.0714 -0.0722
 1113W        W 4857   8.177   5.399   3.689 -0.1110  0.2747  0.3994
 1114W        W 4858   4.562   4.653   3.445 -0.1586  0.0521 -0.1149
 1115W        W 4859   8.860   9.481   9.199 -0.4021  0.0116  0.0856
 1116W        W 4860   9.030   9.455  11.980 -0.1554 -0.0664  0.4620
 1117W        W 4861   0.444   2.822   2.778  0.3724  0.4817 -0.0373
 1118W        W 4862   2.682   8.119  11.905  0.0281  0.1599  0.1947
 1119W        W 4863   6.092   4.905  11.553  0.2384 -0.0461  0.1079
 1120W        W 4864   2.131   4.190  12.314  0.2703 -0.2368 -0.3050
 1121W        W 4865   7.035   5.440  12.508  0.0795 -0.2338  0.0155
 1122W        W 4866   0.795   9.940   9.122 -0.0733 -0.0356 -0.1509
 1123W        W 4867   4.959   2.212   1.809 -0.1564  0.2307 -0.0117
 1124W        W 4868   3.483   7.113   3.094  0.3349 -0.0927  0.3214
 1125W        W 4869   1.616   1.567  12.413  0.1070 -0.2895  0.2537
 1126W        W 4870   4.620   2.513   9.485 -0.1203 -0.2965  0.1768
 1127W        W 4871   5.783   8.802   1.325 -0.1949  0.1828  0.0303
 1128W        W 4872   2.079   2.883  10.193  0.1445 -0.0150 -0.0496
 1129W        W 4873   6.548   5.555  10.293 -0.0641 -0.0652  0.0215
 1130W        W 4874   8.775   0.988   0.385  0.2143  0.0654 -0.2362
 1131W        W 4875   2.598   5.890   8.789 -0.0137  0.2209 -0.1166
 1132W        W 4876   2.088   7.959   8.604 -0.2131 -0.0856 -0.4709
 1133W        W 4877   4.870   6.614   2.308  0.0166  0.0789  0.1339
 1134W        W 4878   4.554   6.737   1.461  0.1333 -0.2218 -0.0265
 1135W        W 4879   4.724   8.687  10.729  0.0297 -0.1949  0.1101
 1136W        W 4880   0.856   7.899   0.434  0.3620  0.1204 -0.1061
 1137W        W 4881   3.099   6.354   3.298 -0.0295 -0.3874 -0.1923
 1138W        W 4882   9.434   5.615  12.491 -0.0909  0.2100  0.0390
 1139W        W 4883   7.596   3.554   9.195  0.1973  0.1741 -0.0433
 1140W        W 4884   9.486   5.940   3.188 -0.0126 -0.2395 -0.0216
 1141W        W 4885   6.479   7.687  11.075 -0.0745  0.0445 -0.0846
 1142W        W 4886   3.307   7.920   8.335 -0.1324  0.1975  0.0107
 1143W        W 4887   7.086   2.721   2.526 -0.0481 -0.0501  0.0537
 1144W        W 4888   6.902   5.868  11.522  0.3051 -0.1782  0.1853
 1145W        W 4889   3.698   6.121  10.932 -0.1424  0.2417  0.1760
 1146W        W 4890   9.389   1.104   9.967  0.0211  0.0747  0.2782
 1147W        W 4891   0.495   0.998  11.689 -0.0080  0.3141  0.0916
 1148W        W 4892   7.337   9.476  11.799 -0.1947 -0.0618  0.1004
 1149W        W 4893   3.072   6.251  11.147  0.3788  0.0357  0.2621
 1150W        W 4894   8.873   6.303   1.093  0.1032  0.0333 -0.0897
 1151W        W 4895   4.060   7.253   0.188  0.2241  0.0613  0.0542
 1152W        W 4896   1.023   3.550  11.649  0.0922  0.1915 -0.3527
 1153W        W 4897   7.252   6.743   1.455 -0.1334  0.0189 -0.0185
 1154W        W 4898   1.929   3.967   2.760 -0.1175 -0.3022  0.0465
 1155W        W 4899   8.546   5.281   2.394  0.1056  0.0328 -0.0129
 1156W        W 4900   5.227   4.527  10.333 -0.1939  0.1515 -0.4794
 1157W        W 4901   9.664   5.384   4.038 -0.0713 -0.1161  0.1558
 1158W        W 4902   9.821   0.183   1.431  0.0487  0.4375 -0.2628
 1159W        W 4903   4.593   5.600   4.638  0.1134 -0.2147  0.0660
 1160W        W 4904   5.888   5.149   3.638  0.4482  0.0523  0.0701
 1161W        W 4905   9.037   2.729   7.919 -0.3001  0.0179  0.0315
 1162W        W 4906   6.747   1.350  10.376 -0.2098 -0.0939  0.0798
 1163W        W 4907   9.327   7.417   2.495  0.0929  0.1163  0.1900
 1164W        W 4908   6.755   8.532   2.759  0.2778 -0.1569 -0.1241
 1165W        W 4909   3.360   2.470   1.707 -0.0795 -0.2040  0.1294
 1166W        W 4910   3.180   2.427  11.007  0.1260 -0.3502 -0.1398
 1167W        W 4911   9.269   1.954  11.300  0.2640 -0.1417 -0.0011
 1168W        W 4912   7.008   5.014   0.025 -0.1310  0.1030 -0.1238
 1169W        W 4913   7.472   4.316  12.376 -0.2635 -0.0668 -0.3484
 1170W        W 4914   3.357   1.247   4.188 -0.3260 -0.1480 -0.1180
 1171W        W 4915   6.324   2.173   0.938  0.1433  0.0605 -0.4504
 1172W        W 4916   4.314   7.459  11.514 -0.0385 -0.0359  0.1653
 1173W        W 4917   1.706   8.567   4.002 -0.1520  0.0885 -0.1311
 1174W        W 4918   5.442   0.389   3.301  0.2345  0.1684 -0.1359
 1175W        W 4919   9.491   4.705   2.316 -0.0584 -0.0576 -0.1819
 1176W        W 4920   9.124   6.913  12.012 -0.1091 -0.0665 -0.0026
 1177W        W 4921   8.477   6.357   4.097  0.2998 -0.0096  0.0380
 1178W        W 4922   7.534   5.081   1.249  0.2211  0.2268  0.0853
 1179W        W 4923   3.579   1.079   1.953 -0.3544  0.3131 -0.3871
 1180W        W 4924   3.376   1.674   2.154 -0.0173  0.2145 -0.2734
 1181W        W 4925   4.010   4.738  11.893 -0.0513  0.1408 -0.1346
 1182W        W 4926   2.500   3.767  11.631 -0.0525  0.1951 -0.0823
 1183W        W 4927   2.689   6.721   8.892  0.3808 -0.1386  0.0284
 1184W        W 4928   4.543   9.159  12.747 -0.0225  0.0524  0.1968
 1185W        W 4929   7.044   1.599   1.955 -0.3383  0.1874 -0.3005
 1186W        W 4930   0.413   6.015   9.198  0.2845  0.0803 -0.1879
 1187W        W 4931   1.232   7.506   2.936 -0.0477 -0.1300 -0.1666
 1188W        W 4932   8.314   7.852  11.414  0.3327  0.0060  0.1130
 1189W        W 4933   8.246   1.967   0.989  0.1363  0.1372 -0.1495
 1190W        W 4934   6.239   7.849  10.267  0.3467 -0.0603 -0.2215
 1191W        W 4935   6.255   6.478   9.138  0.0803  0.0879 -0.1431
 1192W        W 4936   3.553   6.040  12.654 -0.2011 -0.0084  0.1813
 1193W        W 4937   0.290   3.514  12.664 -0.1096  0.2501  0.0317
 1194W        W 4938   5.639   6.396   3.863 -0.0581 -0.1649  0.1463
 1195W        W 4939   2.831   9.631   4.373 -0.1824  0.0782  0.2546
 1196W        W 4940   4.631   7.304   3.600 -0.2495 -0.1289 -0.1211
 1197W        W 4941   9.807   0.213   3.258 -0.1743 -0.2413 -0.0884
 1198W        W 4942   0.459   4.566   1.381 -0.1524  0.0579 -0.0557
 1199W        W 4943   6.857   5.119   0.573 -0.0593  0.1623  0.3716
 1200W        W 4944   8.946   3.835   0.257 -0.0127  0.0909 -0.3010
 1201W        W 4945   0.005   2.606   2.673 -0.1400 -0.0317 -0.0278
 1202W        W 4946   2.364   9.591  12.267 -0.3949 -0.2620  0.1601
 1203W        W 4947   4.833   4.738   3.054 -0.2164 -0.0291  0.2733
 1204W        W 4948   3.513   1.894   0.553  0.2326  0.0789 -0.1152
 1205W        W 4949   1.906   8.460   3.550  0.4973 -0.1277 -0.0199
 1206W        W 4950   0.220   5.097   9.554 -0.0105  0.0146  0.0101
 1207W        W 4951   7.649   1.008  10.337  0.2402  0.1116 -0.1145
 1208W        W 4952   5.373   0.956   0.693 -0.0826  0.0432  0.2836
 1209W        W 4953   2.103   9.195   9.928 -0.1010 -0.2093  0.3237
 1210W        W 4954   0.911   2.211  12.440 -0.2049 -0.3435  0.0435
 1211W        W 4955   6.918   9.538   0.480  0.1753  0.0296  0.1089
 1212W        W 4956   1.078   5.086  12.206  0.0678  0.1687 -0.0029
 1213W        W 4957   2.921   5.524   3.369  0.0154 -0.0921  0.1826
 1214W        W 4958   6.181   1.006   9.878 -0.0689 -0.0554  0.2001
 1215W        W 4959   7.800   0.206  10.516  0.0213  0.1775 -0.1864
 1216W        W 4960   4.210   0.131   8.642  0.1450  0.1961  0.0134
 1217W        W 4961   2.157   8.707   9.848  0.0274 -0.0448  0.1529
 1218W        W 4962   2.016   8.462   0.693 -0.0262  0.2333 -0.0633
 1219W        W 4963   2.445   8.136   2.020  0.0983 -0.0341 -0.0464
 1220W        W 4964   8.518   7.950   2.910 -0.1568  0.1167  0.1084
 1221W        W 4965   8.375   3.586   4.510  0.2494  0.4286 -0.0442
 1222W        W 4966   6.680   3.285   0.901  0.1195  0.0124  0.0468
 1223W        W 4967   4.114   0.632  11.194  0.1248 -0.1020  0.0939
 1224W        W 4968   6.445   9.265   2.386  0.1450 -0.2271  0.0906
 1225W        W 4969   7.984   7.677  12.564 -0.0910 -0.0961  0.0603
 1226W        W 4970   2.936   6.066   0.633  0.1884  0.0356 -0.0187
 1227W        W 4971   5.701   9.143  10.228  0.1078  0.2223  0.1004
 1228W        W 4972   6.430   5.490   0.596  0.2637  0.0702  0.1471
 1229W        W 4973   8.149   8.788   0.735 -0.1006  0.0259 -0.5102
 1230W        W 4974   3.529   9.825   0.532 -0.1579  0.2097  0.1330
 1231W        W 4975   5.423   6.906  11.085 -0.0700 -0.1410 -0.2062
 1232W        W 4976   5.859   1.970   9.622 -0.0522 -0.4601  0.1862
 1233W        W 4977   6.275   2.524   2.293  0.0139  0.0529 -0.0246
 1234W        W 4978   3.392   6.321   8.922  0.0919 -0.1034 -0.0836
 1235W        W 4979   6.442   1.153   1.893  0.2225  0.1136 -0.1456
 1236W        W 4980   1.540   7.715   3.632  0.1902  0.2334  0.0602
 1237W        W 4981   0.321   1.989   2.392 -0.1378  0.0837 -0.4139
 1238W        W 4982   0.348   6.779   9.668  0.0888 -0.3066 -0.4036
 1239W        W 4983   4.016   5.529   3.339  0.2227  0.1684 -0.1507
 1240W        W 4984   1.182   0.883  10.738 -0.1147 -0.0895  0.0472
 1241W        W 4985   2.878   9.628  10.074 -0.2636  0.1047  0.3285
 1242W        W 4986   9.627   8.087   9.215  0.3002  0.0141 -0.0875
 1243W        W 4987   1.227   0.208   9.211 -0.1225  0.0855 -0.4243
 1244W        W 4988   5.746   3.842   1.209 -0.2951  0.0145  0.1699
 1245W        W 4989   7.688   9.002  10.479  0.0053  0.1305  0.0150
 1246W        W 4990   3.482   7.042  12.214  0.2969  0.0348 -0.0950
 1247W        W 4991   6.133   0.846   4.451  0.0964  0.1433 -0.2756
 1248W        W 4992   3.757   6.311  11.879  0.0642  0.2026  0.2462
 1249W        W 4993   6.035   3.621   9.427 -0.0014  0.1525  0.1472
 1250W        W 4994   9.355   5.520   9.745  0.3436 -0.1533  0.2255
 1251W        W 4995   0.802   5.176   1.403  0.1843  0.1232  0.0381
 1252W        W 4996   2.775   0.473  12.205 -0.0390  0.1019  0.0920
 1253W        W 4997   4.648   2.644  10.109  0.1368 -0.3324 -0.1797
 1254W        W 4998   0.743   3.625   1.120 -0.1070  0.0672 -0.0531
 1255W        W 4999   2.089   5.341   3.763  0.0217 -0.1242  0.2046
 1256W        W 5000   3.690   6.878   0.002  0.0856 -0.0648 -0.0599
 1257W        W 5001   1.936   1.513  11.093  0.1450  0.0438  0.1462
 1258W        W 5002   7.200   1.157  10.222 -0.1136 -0.0312 -0.0012
 1259W        W 5003   2.567   4.996  10.223  0.0097 -0.2025 -0.0141
 1260W        W 5004   4.684   5.258  10.568  0.0435 -0.1639  0.1513
 1261W        W 5005   2.633   8.301   1.319  0.5268  0.3508 -0.1141
 1262W        W 5006   2.057   2.352  10.750  0.1568 -0.1077  0.0536
 1263W        W 5007   5.614   9.593   3.648  0.2104  0.0564 -0.1857
 1264W        W 5008   4.445   6.928  10.265 -0.0188  0.5834  0.2405
 1265W        W 5009   8.950   9.167   1.001  0.2208 -0.1164  0.0090
 1266W        W 5010   2.613   8.129   3.911  0.2518  0.1402 -0.0817
 1267W        W 5011   7.072   6.932   0.672 -0.0936 -0.1725  0.1189
 1268W        W 5012   6.163   4.437   0.769 -0.3087 -0.0715 -0.2856
 1269W        W 5013   6.148   5.260  12.487  0.0318 -0.0165 -0.0649
 1270W        W 5014   7.918   4.138   0.034  0.1602 -0.0930 -0.2896
 1271W        W 5015   2.919   9.959   9.624 -0.1395 -0.1806  0.0501
 1272W        W 5016   6.000   9.420   1.247 -0.0489 -0.1732 -0.1038
 1273W        W 5017   6.138   6.375   1.612 -0.2493  0.1984  0.2157
 1274W        W 5018   7.360   3.417  12.390 -0.1766 -0.0557  0.1452
 1275W        W 5019   5.238   4.900  12.558  0.1106  0.3121 -0.0540
 1276W        W 5020   4.278   8.277  11.829  0.0617 -0.1261 -0.3500
 1277W        W 5021   1.302   0.748   3.702 -0.0968 -0.2362  0.1318
 1278W        W 5022   5.724   1.642   2.813  0.0647  0.0109  0.1515
 1279W        W 5023   4.229   3.451   8.029 -0.0409 -0.0263  0.1436
 1280W        W 5024   7.073   0.693  12.197  0.2201 -0.1667  0.1391
 1281W        W 5025   8.349   9.598   2.253  0.2446 -0.0663  0.1854
 1282W        W 5026   3.212   3.301   8.940  0.0146  0.0418  0.1006
 1283W        W 5027   2.293   3.661  10.675 -0.0997  0.1280 -0.0755
 1284W        W 5028   6.368   2.610  12.257 -0.1748 -0.2087  0.3772
 1285W        W 5029   0.371   1.948   1.751  0.1341 -0.2415  0.1023
 1286W        W 5030   2.578   4.169   9.386 -0.2237  0.1455 -0.2579
 1287W        W 5031   4.381   8.462   2.550  0.0737 -0.0847  0.2028
 1288W        W 5032   7.917   2.040   1.483 -0.3239  0.0196  0.2019
 1289W        W 5033   7.166   8.462   9.402  0.0003 -0.1683 -0.0915
 1290W        W 5034   2.490   5.974   9.982 -0.0923  0.2044  0.2679
 1291W        W 5035   5.650   7.516   2.827 -0.3384 -0.4439 -0.0245
 1292W        W 5036   9.701   9.440   0.355  0.1259 -0.1079  0.2290
 1293W        W 5037   8.494   7.543   1.733 -0.0801 -0.1860  0.2564
 1294W        W 5038   7.342   9.212  11.359  0.2841  0.2293  0.3255
 1295W        W 5039   2.163   5.419  11.691  0.1136  0.0353 -0.2581
 1296W        W 5040   6.453   4.115  12.519  0.1085  0.1113  0.0872
 1297W        W 5041   3.430   7.206   0.933 -0.1042  0.0221  0.0341
 1298W        W 5042   9.527   1.800   1.204 -0.2363  0.0275  0.0484
 1299W        W 5043   0.296   7.304   0.668 -0.2174  0.1750 -0.3453
 1300W        W 5044   9.359   1.407  10.568  0.0251 -0.1240 -0.0605
 1301W        W 5045   7.834   1.975   9.683 -0.1503 -0.4326 -0.0730
 1302W        W 5046   3.044   5.687   8.245  0.2358 -0.0710 -0.0953
 1303W        W 5047   2.254   7.529   3.122 -0.2107  0.1019 -0.1066
 1304W        W 5048   4.293   7.368   1.183 -0.2830 -0.0713  0.2254
 1305W        W 5049   3.647   1.201   1.206  0.0931 -0.0423  0.2354
 1306W        W 5050   9.731   3.960   2.267 -0.2420 -0.1758  0.3366
 1307W        W 5051   6.117   7.259   1.286 -0.0033 -0.4002  0.1728
 1308W        W 5052   9.436   6.758   0.542 -0.0748  0.0086 -0.3706
 1309W        W 5053   3.473   8.092  10.648  0.0874  0.0308 -0.1277
 1310W        W 5054   4.537   8.963   3.605 -0.1589  0.1468 -0.2692
 1311W        W 5055   3.449   4.015   3.138 -0.4126 -0.1143  0.0434
 1312W        W 5056   7.667   8.138   2.321  0.2919 -0.2528  0.0001
 1313W        W 5057   4.638   2.281   2.246 -0.1439 -0.2071 -0.1963
 1314W        W 5058   8.145   5.860  10.400  0.2340 -0.0572  0.2181
 1315W        W 5059   0.695   5.539   8.282  0.0244  0.2504  0.2826
 1316W        W 5060   6.368   4.083   7.938  0.4705 -0.1162  0.2265
 1317W        W 5061   3.498   2.316  11.471  0.0938  0.2953 -0.0606
 1318W        W 5062   4.233   6.063   7.772 -0.0082 -0.1162 -0.1580
 1319W        W 5063   3.836   9.832   1.059  0.3725 -0.1318  0.1321
 1320W        W 5064   0.746   8.164  12.720  0.2480  0.0403 -0.0882
 1321W        W 5065   8.856   4.309   3.418  0.2753 -0.0184  0.1578
 1322W        W 5066   0.690   7.408   4.217  0.0067  0.4917  0.1207
 1323W        W 5067   9.521   4.875   3.776 -0.2007 -0.0720  0.3303
 1324W        W 5068   6.878   7.826  10.756  0.2706 -0.2118 -0.0025
 1325W        W 5069   8.175   8.339   2.129 -0.2328 -0.4610 -0.1215
 1326W        W 5070   2.945   2.124   3.942  0.1422  0.0727  0.3929
 1327W        W 5071   7.341   5.784   2.719  0.1437 -0.2088  0.1244
 1328W        W 5072   4.862   8.755   2.564  0.1441  0.0207  0.0803
 1329W        W 5073   8.107   1.269   2.175  0.3054  0.2215 -0.1337
 1330W        W 5074   8.284   7.381  12.222  0.1640 -0.0575 -0.0230
 1331W        W 5075   9.642   9.887   2.111 -0.1404 -0.2726 -0.0379
 1332W        W 5076   1.799   3.327  10.423 -0.0372 -0.1077 -0.0239
 1333W        W 5077   3.517   3.710   8.085  0.3163 -0.0871 -0.1328
 1334W        W 5078   2.889   0.787   4.592  0.1355 -0.0904  0.1434
 1335W        W 5079   3.623   2.178  11.922  0.2584 -0.0387  0.1167
 1336W        W 5080   3.526   3.118   8.254  0.1634 -0.1130  0.0666
 1337W        W 5081   4.709   0.844   9.809  0.0002  0.0222  0.1142
 1338W        W 5082   0.312   3.088  10.022  0.0116  0.1202  0.0156
 1339W        W 5083   0.933   7.472   9.389 -0.0214 -0.1185  0.1972
 1340W        W 5084   5.300   7.502  12.659  0.1799 -0.0315  0.2463
 1341W        W 5085   7.718   5.130  12.337  0.1361  0.0319 -0.0267
 1342W        W 5086   7.848   5.409  10.201  0.0985 -0.2195 -0.4306
 1343W        W 5087   8.820   2.495  10.744  0.0000 -0.0119  0.2254
 1344W        W 5088   1.142   5.759   8.112 -0.0693 -0.0355 -0.0620
 1345W        W 5089   4.029   3.237   1.548  0.4663 -0.4050 -0.1031
 1346W        W 5090   8.222   8.512  12.141  0.0238 -0.0314  0.3373
 1347W        W 5091   2.550   2.452  11.746  0.0180  0.2422  0.2266
 1348W        W 5092   7.201   5.366   8.452  0.0612  0.2550 -0.1653
 1349W        W 5093   4.672   2.975   9.219 -0.3246  0.0296  0.2368
 1350W        W 5094   4.070   9.150  10.187  0.2379  0.4367  0.1453
 1351W        W 5095   3.840   6.491   9.188  0.1866  0.0053 -0.0746
 1352W        W 5096   1.742   8.213   2.737  0.3500 -0.2811 -0.0940
 1353W        W 5097   4.152   0.747  11.725 -0.0449  0.0937 -0.6212
 1354W        W 5098   9.213   0.168   9.951 -0.1753  0.1946  0.1495
 1355W        W 5099   2.481   1.734   0.115  0.0467 -0.2102 -0.3097
 1356W        W 5100   9.979   0.310   0.058  0.2397  0.0543 -0.0952
 1357W        W 5101   2.932   0.969   4.081  0.3536 -0.1126 -0.0545
 1358W        W 5102   6.530   5.422  12.193 -0.0423  0.0942 -0.2972
 1359W        W 5103   0.984   3.311   3.563 -0.0168 -0.0764  0.0567
 1360W        W 5104   6.115   9.086   0.195 -0.0278 -0.2540  0.1767
 1361W        W 5105   6.976   9.901  12.002 -0.0235 -0.0968 -0.1552
 1362W        W 5106   4.612   1.425  10.990  0.2380  0.2539 -0.0564
 1363W        W 5107   1.917   2.139   9.667  0.3182  0.1156  0.2976
 1364W        W 5108   6.079   1.983  10.888  0.0158  0.3709 -0.0477
 1365W        W 5109   8.815   1.785   2.054  0.1784 -0.3175  0.1655
 1366W        W 5110   5.774   3.389   0.281 -0.0788 -0.2220 -0.0602
 1367W        W 5111   9.220   8.294   0.552 -0.2600  0.4356  0.0336
 1368W        W 5112   8.129   6.765   9.824  0.0774  0.1890 -0.0374
 1369W        W 5113   3.481   5.442   8.191 -0.4042 -0.0328 -0.0547
 1370W        W 5114   1.748   4.620   1.034  0.1659 -0.0476  0.1493
 1371W        W 5115   1.915   8.632   9.279  0.1931 -0.0041 -0.0637
 1372W        W 5116   1.256   2.258   8.206  0.3263 -0.2929  0.1583
 1373W        W 5117   5.670   1.632   1.921 -0.1394  0.1346 -0.0525
 1374W        W 5118   5.738   2.778  10.285  0.2659 -0.2927 -0.1637
 1375W        W 5119   2.246   0.383  11.236  0.1036  0.1916 -0.0601
 1376W        W 5120   7.372   2.141  12.364 -0.0690  0.2017  0.2322
 1377W        W 5121   1.264   6.254  12.166 -0.0128  0.1801 -0.3201
 1378W        W 5122   4.914   8.557   4.492 -0.2807 -0.0769  0.0484
 1379W        W 5123   9.302   4.572  10.877  0.1486  0.0638 -0.0670
 1380W        W 5124   3.614   2.046   1.329 -0.0384  0.0579  0.1459
 1381W        W 5125   7.515   1.496  11.154  0.0701  0.1003 -0.1819
 1382W        W 5126   9.847   8.077  10.911  0.0481  0.0354  0.0844
 1383W        W 5127   2.654   4.125  11.254 -0.1002 -0.1462  0.1755
 1384W        W 5128   4.232   5.140  11.877  0.1593  0.0568  0.2870
 1385W        W 5129   9.287   9.420   1.266 -0.0782 -0.4428 -0.0250
 1386W        W 5130   6.270   6.642   0.409  0.0215 -0.0746 -0.0628
 1387W        W 5131   1.364   6.013  10.256  0.1608  0.1522 -0.2958
 1388W        W 5132   0.254   5.603  11.922  0.0498 -0.0252  0.0253
 1389W        W 5133   4.934   5.798  11.412  0.0842  0.4449 -0.2023
 1390W        W 5134   3.287   1.359  12.419  0.1481 -0.1337 -0.0842
 1391W        W 5135   3.386   9.929  12.121 -0.2202 -0.0013  0.4317
 1392W        W 5136   7.697   9.470   2.957 -0.4049 -0.1675 -0.2687
 1393W        W 5137   4.455   5.137   8.934  0.0289  0.0714  0.0032
 1394W        W 5138   4.555   4.302   1.077 -0.3395  0.1089 -0.0493
 1395W        W 5139   4.359   4.378  11.984  0.0994 -0.4830  0.1037
 1396W        W 5140   7.570   4.520   1.261  0.2797  0.0543  0.1698
 1397W        W 5141   7.063   9.531   2.523  0.0272 -0.0231  0.3185
 1398W        W 5142   1.433   0.178   3.309 -0.0008  0.1550  0.3578
 1399W        W 5143   4.290   1.275   3.104  0.5072  0.0324  0.2504
 1400W        W 5144   5.676   4.356   8.716 -0.1809  0.2642  0.0243
 1401W        W 5145   8.160   2.463   0.853 -0.2527 -0.0258 -0.1257
 1402W        W 5146   7.705   3.810   4.251 -0.1599  0.1985 -0.1640
 1403W        W 5147   1.751   1.546  11.887 -0.0987 -0.0442 -0.0384
 1404W        W 5148   5.058   7.499   9.155 -0.1535 -0.2352  0.0346
 1405W        W 5149   4.262   2.962   8.929  0.1850  0.2164 -0.0841
 1406W        W 5150   1.761   6.735   9.283  0.1303 -0.1291  0.2046
 1407W        W 5151   6.079   5.548   3.312 -0.3760 -0.0647 -0.3056
 1408W        W 5152   3.402   4.424   8.774 -0.0077 -0.3319 -0.3432
 1409W        W 5153   5.348   7.770   4.165  0.1825 -0.4372  0.1065
 1410W        W 5154   2.471   4.022   3.059  0.5117  0.2605 -0.1102
 1411W        W 5155   7.280   0.704   3.463 -0.0793 -0.0919 -0.2054
 1412W        W 5156   5.116   3.777   2.360 -0.1449 -0.0352  0.0417
 1413W        W 5157   4.923   0.369  12.262 -0.1403  0.1182  0.4829
 1414W        W 5158   6.769   6.212   1.222  0.0161 -0.0725 -0.2233
 1415W        W 5159   5.400   8.375   1.689  0.1025 -0.0229 -0.0307
 1416W        W 5160   7.287   7.545  10.612  0.4031 -0.2169  0.0168
 1417W        W 5161   1.078   5.601  11.395  0.2219 -0.3197 -0.0158
 1418W        W 5162   1.336   5.707   1.961 -0.1366  0.1191  0.5468
 1419W        W 5163   1.809   4.948   3.479 -0.2505 -0.0804  0.1374
 1420W        W 5164   8.836   0.500   0.565  0.1421  0.2112  0.1937
 1421W        W 5165   8.307   4.332  12.528 -0.2027  0.1284 -0.0808
 1422W        W 5166   3.314   6.079   0.882 -0.2043  0.3252  0.0280
 1423W        W 5167   4.804   9.094   2.967 -0.0123  0.3267  0.0454
 1424W        W 5168   3.068   4.350  12.346  0.1272  0.0552  0.0528
 1425W        W 5169   9.911   5.426   0.305  0.3573 -0.0402 -0.1961
 1426W        W 5170   6.088   1.470   0.704  0.0182  0.2295  0.2383
 1427W        W 5171   4.837   0.004   1.128  0.1507 -0.2100  0.0639
 1428W        W 5172   3.147   5.910   2.481  0.0858  0.1334  0.1395
 1429W        W 5173   1.298   7.037  11.033 -0.0012  0.1097  0.0482
 1430W        W 5174   5.164   6.417   3.792  0.3817 -0.0911  0.2209
 1431W        W 5175   1.269   8.095   0.214  0.2015  0.0135  0.2020
 1432W        W 5176   1.732   1.975   2.082  0.0883 -0.0248 -0.1853
 1433W        W 5177   7.996   3.443   1.569 -0.0210  0.0545  0.0771
 1434W        W 5178   1.102   9.209   2.216 -0.0168  0.0772  0.0608
 1435W        W 5179   1.603   4.783   0.257 -0.1339  0.1454 -0.1490
 1436W        W 5180   5.597   6.438   4.358 -0.1937  0.2066  0.0147
 1437W        W 5181   8.059   2.084   0.514  0.1169  0.0971 -0.1599
 1438W        W 5182   4.168   0.975   1.151 -0.3058  0.0068  0.3161
 1439W        W 5183   3.918   8.467   0.368  0.0314 -0.1193 -0.2328
 1440W        W 5184   4.763   6.387   9.245 -0.0848 -0.1857  0.2253
 1441W        W 5185   8.336   5.779   9.066  0.0669 -0.0120 -0.2047
 1442W        W 5186   5.747   1.863  11.230  0.0896  0.0455 -0.1792
 1443W        W 5187   0.927   2.464   2.339  0.2297 -0.1903  0.0309
 1444W        W 5188   1.687   8.275  11.624  0.0665  0.2162  0.0368
 1445W        W 5189   8.716   3.758   4.199  0.2218 -0.2149  0.2495
 1446W        W 5190   2.731   6.184   2.484  0.0245 -0.1368 -0.1354
 1447W        W 5191   8.489   0.519   1.559  0.2444  0.1103 -0.1011
 1448W        W 5192   6.342   7.310   9.595  0.0778  0.3189 -0.1223
 1449W        W 5193   4.337   2.485   8.409  0.0788 -0.3802 -0.0537
 1450W        W 5194   6.870   6.101   2.712 -0.1103 -0.2336  0.1719
 1451W        W 5195   0.882   0.548   2.318  0.2665 -0.1457  0.0348
 1452W        W 5196   2.722   9.364  11.969 -0.1207  0.1628  0.1426
 1453W        W 5197   3.030   8.017  11.039  0.0519 -0.1359  0.2646
 1454W        W 5198   8.635   7.851   9.926 -0.0993  0.0873  0.1181
 1455W        W 5199   6.749   8.127   2.250 -0.0105  0.1250  0.2848
 1456W        W 5200   9.077   6.369  11.195  0.2789 -0.0322 -0.3116
 1457W        W 5201   9.133   3.688   9.165 -0.3334  0.0687 -0.1015
 1458W        W 5202   2.635   4.051   4.047  0.4112 -0.0477 -0.0495
 1459W        W 5203   8.954   9.941   2.781  0.2675  0.3976 -0.3499
 1460W        W 5204   1.136   0.566   0.300 -0.3087 -0.0309 -0.0680
 1461W        W 5205   8.922   6.053   4.109 -0.1168  0.1937 -0.0830
 1462W        W 5206   4.238   8.798  10.964 -0.1554  0.3496 -0.0638
 1463W        W 5207   8.106   6.217   9.675 -0.0592 -0.1462  0.0695
 1464W        W 5208   2.051   3.071   9.721  0.4442 -0.3351  0.1544
 1465W        W 5209   8.605   0.096   0.548 -0.3273  0.1165  0.1744
 1466W        W 5210   1.635   8.342   8.974 -0.2077  0.2416 -0.0222
 1467W        W 5211   0.991   5.251   8.632  0.0019  0.1701 -0.4434
 1468W        W 5212   1.469   0.631   9.137  0.2449 -0.3874  0.0622
 1469W        W 5213   6.005   5.884   9.167 -0.1428 -0.1932  0.3408
 1470W        W 5214   4.100   9.557   4.566  0.2100 -0.2368 -0.0190
 1471W        W 5215   0.893   2.072   4.331 -0.1551 -0.3975  0.0365
 1472W        W 5216   4.144   1.252  11.226  0.0179  0.1466  0.0151
 1473W        W 5217   9.345   0.470  11.012 -0.2881  0.2037 -0.2389
 1474W        W 5218   1.448   5.877   2.426 -0.1107 -0.1899  0.1429
 1475W        W 5219   2.173   7.169   8.600  0.2713  0.2731  0.2126
 1476W        W 5220   2.867   3.132   2.047 -0.0691 -0.3052  0.0363
 1477W        W 5221   3.833   9.718   0.103  0.1013  0.1974  0.1694
 1478W        W 5222   3.326   7.886   9.219  0.3990  0.1417  0.3406
 1479W        W 5223   3.814   1.478   9.501 -0.2130 -0.0433 -0.4193
 1480W        W 5224   3.506   4.934   8.797 -0.1316 -0.4248 -0.1299
 1481W        W 5225   0.438   9.798   2.429  0.1456  0.2144 -0.2592
 1482W        W 5226   6.590   1.308   0.827  0.0646 -0.1207 -0.1314
 1483W        W 5227   4.017   8.301   9.722  0.0084  0.0016 -0.1339
 1484W        W 5228   2.658   7.378  10.663 -0.0434 -0.0065 -0.0354
 1485W        W 5229   8.265   3.297  10.551 -0.1303  0.0964 -0.1966
 1486W        W 5230   7.029   3.151   9.167 -0.1378 -0.1432 -0.2805
 1487W        W 5231   0.929   3.533   9.079  0.0315 -0.1067  0.1817
 1488W        W 5232   4.693   0.323   3.677  0.2132  0.1733  0.3072
 1489W        W 5233   4.762   8.754   0.262  0.0969  0.2262  0.1768
 1490W        W 5234   5.164   5.222  10.476  0.0563  0.3804 -0.2594
 1491W        W 5235   3.583   5.789   1.243  0.3398 -0.0065 -0.1644
 1492W        W 5236   9.582   3.970   9.104 -0.0264 -0.2895  0.4667
 1493W        W 5237   8.297   9.218   1.500 -0.4335  0.3119 -0.0468
 1494W        W 5238   1.196   2.692  12.010 -0.0599 -0.1853  0.0224
 1495W        W 5239   5.727   1.149   9.987  0.1278  0.2311 -0.0411
 1496W        W 5240   7.109   2.157  10.574  0.2489  0.1969 -0.1702
 1497W        W 5241   5.407   6.888   2.559  0.3065  0.0873  0.0324
 1498W        W 5242   0.970   2.165  11.901 -0.0732 -0.0338  0.2783
 1499W        W 5243   8.242   7.077   9.038 -0.1937 -0.4385  0.1603
 1500W        W 5244   8.533   4.777   2.431  0.1926  0.3744 -0.2240
 1501W        W 5245   8.925   7.134   4.648  0.0518  0.1467  0.2624
 1502W        W 5246   4.504   3.721  11.312 -0.1879  0.0228  0.0505
 1503W        W 5247   3.513   6.842   1.422 -0.1981 -0.0857 -0.0018
 1504W        W 5248   9.537   3.330   0.742 -0.0976  0.0282  0.2593
 1505W        W 5249   1.272   4.942   0.642 -0.1043  0.2943 -0.0831
 1506W        W 5250   7.993   8.781   2.317  0.1512  0.1994  0.1538
 1507W        W 5251   7.227   0.236  10.737 -0.4042  0.0372 -0.2101
 1508W        W 5252   1.962   3.519   3.504 -0.0993 -0.2884 -0.0429
 1509W        W 5253   6.115   7.657   0.349 -0.1592  0.0769  0.0904
 1510W        W 5254   4.041   6.519   2.399 -0.0715 -0.2470  0.0709
 1511W        W 5255   6.541   6.766  12.614  0.3089 -0.0769  0.0280
 1512W        W 5256   3.972   8.484   9.210 -0.4110  0.0480  0.2249
 1513W        W 5257   5.980   4.978  10.532 -0.0895  0.0332 -0.0475
 1514W        W 5258   7.071   1.276   8.829 -0.5107  0.0160 -0.0921
 1515W        W 5259   9.535   5.866   3.907  0.0405  0.0248 -0.0077
 1516W        W 5260   0.193   8.384  11.789  0.2284 -0.1165  0.2821
 1517W        W 5261   9.307   6.710  10.709 -0.1332  0.2622  0.4853
 1518W        W 5262   0.763   9.364   9.347  0.0112 -0.1816 -0.0996
 1519W        W 5263   0.673   7.194   2.624 -0.0719  0.2990 -0.2438
 1520W        W 5264   4.559   0.078  12.477 -0.0821 -0.1485 -0.3151
 1521W        W 5265   4.347   4.320  12.420  0.1103  0.2114 -0.0611
 1522W        W 5266   1.742   8.343  10.041 -0.1968 -0.0748 -0.1900
 1523W        W 5267   0.058   6.803   2.888 -0.1136  0.1141  0.0668
 1524W        W 5268   5.542   6.177   7.941 -0.0396 -0.0427 -0.0434
 1525W        W 5269   7.382   6.657  11.247 -0.1558 -0.1251  0.0334
 1526W        W 5270   9.386   9.635  10.623 -0.0752 -0.1140 -0.0040
 1527W        W 5271   1.052   7.600   1.901  0.0729 -0.0416  0.2284
 1528W        W 5272   8.458   7.750  12.670 -0.2460 -0.1520 -0.2391
 1529W        W 5273   1.731   0.312  10.205  0.1612  0.0203  0.5563
 1530W        W 5274   0.533   9.430  11.136  0.0897  0.0858 -0.1658
 1531W        W 5275   8.938   5.647   2.509 -0.1243  0.1230 -0.1158
 1532W        W 5276   9.022   4.593   2.503 -0.0098  0.2362 -0.3910
 1533W        W 5277   6.931   5.608  12.017 -0.1070 -0.1527 -0.2771
 1534W        W 5278   7.639   1.891   0.722  0.0064 -0.0556 -0.1650
 1535W        W 5279   5.190   4.660  12.049 -0.1949 -0.1617 -0.0006
 1536W        W 5280   5.680   6.807   0.987  0.2040  0.0571  0.0479
 1537W        W 5281   2.214   9.052  12.164  0.0623 -0.0636  0.3504
 1538W        W 5282   2.887   8.636  11.106  0.2837  0.0628  0.2209
 1539W        W 5283   2.266   1.716   2.465  0.1596 -0.4488 -0.0629
 1540W        W 5284   9.947   4.956   3.032  0.1429  0.0886  0.1035
 1541W        W 5285   4.385   8.476  10.091 -0.1101  0.0596 -0.0009
 1542W        W 5286   6.544   0.924  11.779  0.1448 -0.2191  0.0536
 1543W        W 5287   1.414   9.847   0.652  0.0556 -0.0005  0.1371
 1544W        W 5288   7.483   9.504   1.260 -0.1438 -0.2384  0.1354
 1545W        W 5289   2.575   5.917   1.019  0.1188 -0.1651 -0.1530
 1546W        W 5290   1.689   1.556  10.479 -0.0009  0.1641 -0.1026
 1547W        W 5291   5.793   0.893   2.613  0.1674  0.2594  0.0956
 1548W        W 5292   0.613   1.064  12.554  0.0669  0.0503 -0.0703
 1549W        W 5293   3.754   4.065   4.580  0.0898 -0.1425  0.2217
 1550W        W 5294   4.751   2.611   0.430  0.1819  0.2034 -0.3262
 1551W        W 5295   8.135   0.433   9.930  0.1248  0.0997 -0.1294
 1552W        W 5296   5.782   7.833  12.733 -0.1441  0.0531 -0.3298
 1553W        W 5297   3.731   2.059  11.143 -0.0329  0.0334 -0.3287
 1554W        W 5298   6.923   7.138  12.513  0.2269  0.2197  0.3790
 1555W        W 5299   8.122   7.920  11.999 -0.0640  0.2113 -0.0285
 1556W        W 5300   0.791   6.801  11.204  0.1580  0.0452  0.2382
 1557W        W 5301   9.250   5.132  12.430 -0.1403 -0.2334 -0.2990
 1558W        W 5302   0.606   6.368   8.813  0.0298 -0.0192 -0.0646
 1559W        W 5303   2.865   9.045   1.057  0.0611  0.2104  0.1533
 1560W        W 5304   2.663   7.313   1.175 -0.2533  0.2644 -0.0749
 1561W        W 5305   2.419   4.265   0.480  0.0332 -0.0602 -0.0842
 1562W        W 5306   7.606   6.222   8.765  0.2574  0.2535  0.0955
 1563W        W 5307   4.072   6.620   0.893 -0.0125  0.0400  0.0988
 1564W        W 5308   2.007   6.648   2.905  0.0098 -0.0191 -0.1453
 1565W        W 5309   7.127   2.593  11.619  0.1391  0.1139  0.0293
 1566W        W 5310   6.081   8.425   0.974  0.2414  0.0326  0.0222
 1567W        W 5311   4.464   8.103   9.679 -0.1279  0.2237  0.0445
 1568W        W 5312   0.667   8.693   3.102  0.2777 -0.1115 -0.3607
 1569W        W 5313   3.612   9.915  10.419  0.3404  0.3388  0.0810
 1570W        W 5314   4.457   0.944   8.855  0.2881 -0.1887 -0.1412
 1571W        W 5315   9.071   1.394   0.487 -0.3454  0.1271 -0.1609
 1572W        W 5316   4.826   0.968  12.190 -0.2311 -0.1577  0.0952
 1573W        W 5317   4.733   4.910  11.866 -0.2247  0.1358  0.1297
 1574W        W 5318   9.600   5.989   8.769 -0.1150  0.2600 -0.2501
 1575W        W 5319   0.534   3.121   4.396  0.0084  0.0429 -0.2450
 1576W        W 5320   1.987   8.212  10.962  0.2461  0.0074 -0.3954
 1577W        W 5321   0.626   3.223  10.879 -0.2533 -0.0792 -0.3189
 1578W        W 5322   4.020   7.518  10.456 -0.0875 -0.0943 -0.2483
 1579W        W 5323   2.465   6.927   4.120  0.1073 -0.0207 -0.1397
 1580W        W 5324   4.182   6.511   8.317  0.1492 -0.1308 -0.0752
 1581W        W 5325   4.812   8.760   0.784  0.2152  0.1644 -0.4250
 1582W        W 5326   4.226   2.137   4.520 -0.0905  0.0173  0.0959
 1583W        W 5327   5.288   7.109  11.517  0.1049 -0.1291  0.3277
 1584W        W 5328   8.739   5.520   8.885 -0.0481 -0.2479 -0.0862
 1585W        W 5329   1.035   7.240  12.358 -0.1568 -0.2948 -0.3594
 1586W        W 5330   3.770   6.574  12.317  0.1912 -0.1630  0.0190
 1587W        W 5331   4.348   7.099   3.229  0.1067  0.0276 -0.2222
 1588W        W 5332   0.462   7.954   3.496  0.2510 -0.0405  0.3854
 1589W        W 5333   7.413   5.584   0.613  0.2549 -0.0516 -0.0762
 1590W        W 5334   3.640   1.071   3.276 -0.3455  0.0332  0.0196
 1591W        W 5335   2.128   5.134  11.250 -0.1252 -0.2731 -0.0564
 1592W        W 5336   5.228   4.625   2.680 -0.1208  0.1107  0.1102
 1593W        W 5337   4.910   0.821   2.390 -0.1277  0.0381 -0.1438
 1594W        W 5338   4.783   5.806  10.545 -0.2008 -0.1226 -0.1817
 1595W        W 5339   9.138   9.361  11.128  0.1167 -0.1647 -0.2009
 1596W        W 5340   1.157   2.653   5.017 -0.1254 -0.0199 -0.0398
 1597W        W 5341   3.381   1.725  11.592  0.0820  0.0440  0.0634
 1598W        W 5342   5.226   4.535  11.171  0.1114 -0.0372 -0.2607
 1599W        W 5343   8.680   1.816   1.136 -0.1405  0.0568  0.0552
 1600W        W 5344   4.887   1.446  11.428  0.3042  0.0644 -0.0380
 1601W        W 5345   6.291   2.203  10.417  0.2860  0.0386  0.0785
 1602W        W 5346   2.631   4.971   3.095  0.0384  0.4815  0.0212
 1603W        W 5347   9.526   5.382   9.200  0.0207  0.0348 -0.1077
 1604W        W 5348   9.524   4.194   8.543  0.0960 -0.0499 -0.4494
 1605W        W 5349   9.497   7.242   1.359 -0.1278  0.2387  0.1976
 1606W        W 5350   1.710   7.275   9.397 -0.2112  0.0442  0.1313
 1607W        W 5351   5.868   3.346  12.410  0.1618 -0.0144  0.1326
 1608W        W 5352   2.317   3.341   9.343  0.2660  0.0903  0.2486
 1609W        W 5353   6.840   8.934  12.202 -0.1853  0.1033 -0.1227
 1610W        W 5354   3.728   1.176  12.255 -0.1168 -0.5948 -0.0648
 1611W        W 5355   9.054   5.810  11.459  0.0076  0.1854 -0.1447
 1612W        W 5356   2.751   3.636   1.414 -0.1848  0.0215  0.3054
 1613W        W 5357   1.192   5.986   0.792  0.0220 -0.0068  0.0116
 1614W        W 5358   1.253   8.503   2.794  0.1073  0.1121  0.0277
 1615W        W 5359   9.435   6.132  12.479  0.1434 -0.2895 -0.0498
 1616W        W 5360   8.286   7.618   0.394 -0.3101  0.0428 -0.0824
 1617W        W 5361   4.353   7.984   2.749  0.1608 -0.0442  0.0035
 1618W        W 5362   5.375   8.261   9.820 -0.1222  0.0293 -0.1050
 1619W        W 5363   9.417   9.219   2.528 -0.2339 -0.0978 -0.0915
 1620W        W 5364   0.985   0.896   8.104  0.0936  0.0110  0.2509
 1621W        W 5365   7.934   5.143   4.465 -0.1427 -0.0256  0.3036
 1622W        W 5366   2.880   0.341   5.022 -0.1882  0.0101 -0.0138
 1623W        W 5367   5.048   5.147   9.800 -0.0132 -0.0096  0.0799
 1624W        W 5368   5.705   4.173  11.895 -0.2894  0.1690 -0.1172
 1625W        W 5369   2.583   8.683   2.822 -0.1042  0.2104 -0.3267
 1626W        W 5370   2.405   5.621   4.165 -0.0689 -0.0629  0.1521
 1627W        W 5371   3.259   2.406   4.620  0.3762 -0.1055 -0.3271
 1628W        W 5372   5.965   9.225  12.241  0.0004  0.4092  0.1375
 1629W        W 5373   7.047   9.357   0.917  0.0447 -0.1676 -0.1384
 1630W        W 5374   6.066   2.442   0.500  0.3162  0.1903 -0.3284
 1631W        W 5375   5.414   6.537   9.233 -0.0303  0.0954 -0.3823
 1632W        W 5376   0.244   1.577   3.714  0.0206  0.0072  0.1318
 1633W        W 5377   5.319   6.813   0.521 -0.0734 -0.0683  0.0921
 1634W        W 5378   4.041   2.658   0.179  0.0262 -0.1632  0.0878
 1635W        W 5379   9.715   5.175   2.035  0.0657  0.1077 -0.0007
 1636W        W 5380   5.621   7.460  10.039 -0.0839  0.2019 -0.0458
 1637W        W 5381   5.029   6.154   0.830  0.3009  0.0562 -0.1984
 1638W        W 5382   3.545   9.442  11.405  0.1622  0.0248 -0.0088
 1639W        W 5383   9.562   1.309  12.442  0.4241 -0.0360 -0.0783
 1640W        W 5384   1.489   1.409   9.870 -0.0948  0.0043  0.1823
 1641W        W 5385   3.380   0.125   3.097 -0.2342  0.1927 -0.3323
 1642W        W 5386   0.732   1.834  12.184  0.2225 -0.0989 -0.1779
 1643W        W 5387   9.238   8.186  11.511 -0.0760  0.1794  0.0174
 1644W        W 5388   7.161   2.129   1.944  0.1056 -0.0249 -0.1457
 1645W        W 5389   6.732   5.446   8.299  0.2837  0.0361 -0.1513
 1646W        W 5390   1.353   3.292  11.929 -0.2249 -0.0143 -0.0646
 1647W        W 5391   7.082   3.149   1.883  0.1032 -0.3602  0.1637
 1648W        W 5392   2.058   4.447   8.750  0.1748  0.2118  0.1369
 1649W        W 5393   6.796   2.444   2.244  0.0235  0.0650 -0.0521
 1650W        W 5394   0.849   1.362   9.015  0.0778  0.1652  0.0933
 1651W        W 5395   5.486   3.462   1.596 -0.1874  0.0436 -0.3116
 1652W        W 5396   0.348   7.116   8.839  0.3367  0.3360 -0.2163
 1653W        W 5397   3.810   5.060  11.579 -0.1515  0.2337 -0.4035
 1654W        W 5398   3.726   0.991   4.396 -0.1407  0.1121  0.0010
 1655W        W 5399   5.909   1.521  10.868 -0.2084 -0.0472  0.1740
 1656W        W 5400   0.500   9.864   1.758 -0.0368  0.2187 -0.0561
 1657W        W 5401   9.059   1.926   9.909  0.1223  0.0869  0.0541
 1658W        W 5402   5.451   2.943   4.560  0.0024 -0.0522 -0.3131
 1659W        W 5403   9.101   2.954  10.241 -0.0293 -0.2834  0.1175
 1660W        W 5404   2.428   6.775  12.228  0.1783  0.2193 -0.0055
 1661W        W 5405   0.440   8.767   0.458  0.2180 -0.0129  0.1387
 1662W        W 5406   1.629   0.604   4.073  0.1064 -0.2910  0.1813
 1663W        W 5407   0.346   3.274   2.957 -0.1921  0.0686 -0.3401
 1664W        W 5408   2.302   0.414  10.395  0.0013 -0.1941 -0.2521
 1665W        W 5409   8.224   5.355  10.496 -0.1750  0.0654 -0.0223
 1666W        W 5410   2.419   1.962   8.946  0.0181  0.2524 -0.3058
 1667W        W 5411   4.005   5.846   3.763 -0.1371  0.0392  0.2732
 1668W        W 5412   7.067   2.758  10.649  0.0157 -0.5066 -0.2710
 1669W        W 5413   1.911   1.893   4.771 -0.1108 -0.0126  0.1335
 1670W        W 5414   3.016   2.207   2.043 -0.3090 -0.1516 -0.0246
 1671W        W 5415   2.092   9.566   9.541  0.1959 -0.0160 -0.1544
 1672W        W 5416   1.518   3.136   1.289  0.2839  0.1204  0.0087
 1673W        W 5417   6.125   7.671   2.179  0.0469  0.2962 -0.3000
 1674W        W 5418   2.429   2.594   3.764  0.1829  0.1952 -0.4568
 1675W        W 5419   2.194   9.772  12.744  0.1122  0.0735 -0.2665
 1676W        W 5420   3.691   4.983   9.337  0.1986  0.0672 -0.2058
 1677W        W 5421   7.172   3.279   3.605  0.1027 -0.1124  0.1602
 1678W        W 5422   0.868   1.469   0.272  0.0650  0.3505  0.0092
 1679W        W 5423   0.036   0.964   1.274 -0.0626  0.2668 -0.0502
 1680W        W 5424   9.184   4.557   2.994  0.1142 -0.0595  0.1720
 1681W        W 5425   3.912   7.633   2.137 -0.0172 -0.1358  0.5206
 1682W        W 5426   0.465   1.579   2.101  0.1134 -0.3119  0.1479
 1683W        W 5427   4.491   5.252   1.022  0.1347  0.1929  0.0698
 1684W        W 5428   8.207   6.605   3.782  0.0983  0.1452 -0.2659
 1685W        W 5429   9.007   1.509   3.315 -0.2111 -0.0858 -0.1785
 1686W        W 5430   9.277   3.114  11.134  0.0233 -0.0297  0.1804
 1687W        W 5431   9.156   8.757   1.611 -0.4320 -0.1489 -0.0955
 1688W        W 5432   2.350   9.110   1.064  0.0416  0.0643 -0.1232
 1689W        W 5433   0.661   8.622   0.959 -0.0215  0.1639 -0.2166
 1690W        W 5434   9.698   4.130  11.574 -0.0664  0.0420  0.1599
 1691W        W 5435   5.179   1.833  11.737  0.0466 -0.2269 -0.1456
 1692W        W 5436   8.615   7.419   3.552  0.0467 -0.2126  0.2413
 1693W        W 5437   1.867   4.388   2.161 -0.0313  0.0521 -0.3749
 1694W        W 5438   0.553   2.325   2.747 -0.0763  0.0929  0.1627
 1695W        W 5439   0.920   4.535   2.049  0.1254 -0.2530 -0.1332
 1696W        W 5440   9.659   8.442   2.522 -0.1387  0.0743 -0.1141
 1697W        W 5441   6.998   7.184  11.952 -0.0653  0.1399  0.3241
 1698W        W 5442   8.936   5.844   1.593 -0.1597  0.1376 -0.1614
 1699W        W 5443   5.889   4.104   3.270 -0.0142 -0.0436  0.3493
 1700W        W 5444   6.086   9.059   2.067 -0.2248  0.0193  0.0341
 1701W        W 5445   8.010   6.474   8.418  0.4098 -0.0857 -0.1614
 1702W        W 5446   7.437   2.205   9.866  0.0783  0.3748  0.0768
 1703W        W 5447   5.696   0.432   2.799 -0.1826  0.0323 -0.1477
 1704W        W 5448   6.896   3.624   4.304 -0.3164  0.0483  0.0413
 1705W        W 5449   3.241   5.676  12.635  0.2458 -0.1167  0.0272
 1706W        W 5450   0.468   3.280   2.393  0.1050 -0.0224  0.0905
 1707W        W 5451   0.323   7.171  10.226  0.0755  0.1970  0.1707
 1708W        W 5452   9.031   7.130   1.378  0.0509  0.1752 -0.0600
 1709W        W 5453   8.051   1.560   9.823 -0.1509 -0.1015 -0.2783
 1710W        W 5454   5.948   5.515   2.689 -0.2385 -0.1506 -0.1423
 1711W        W 5455   6.294   9.801   1.503 -0.2219  0.3176  0.1157
 1712W        W 5456   6.063   6.364  10.857 -0.0388 -0.0550  0.0450
 1713W        W 5457   3.134   4.811   0.387  0.3077 -0.0992 -0.1585
 1714W        W 5458   9.353   4.376  11.872  0.1252  0.3708  0.1295
 1715W        W 5459   2.744   0.067   0.690 -0.2156  0.0201  0.2758
 1716W        W 5460   3.401   9.940   2.640 -0.1906 -0.1150 -0.0646
 1717W        W 5461   9.773   2.846  10.633  0.0721 -0.0067 -0.0388
 1718W        W 5462   7.886   3.861  11.104 -0.1614  0.0666  0.1492
 1719W        W 5463   5.276   9.408   0.298  0.1637 -0.0719 -0.4398
 1720W        W 5464   5.586   7.323   2.342  0.2890  0.3223 -0.0396
 1721W        W 5465   7.572   8.235  11.765 -0.1441 -0.0130  0.0733
 1722W        W 5466   3.033   1.950   2.971  0.1648  0.1559 -0.2522
 1723W        W 5467   1.529   6.324   2.155 -0.1072 -0.1261 -0.1076
 1724W        W 5468   4.957   1.865  12.725  0.1830 -0.4040 -0.0793
 1725W        W 5469   9.511   0.128  11.805 -0.2218  0.0619 -0.1225
 1726W        W 5470   8.849   8.002   0.287  0.0369  0.0937  0.0475
 1727W        W 5471   8.223   1.388   2.628  0.0814 -0.1859  0.0497
 1728W        W 5472   2.851   5.433   8.646  0.1136 -0.1337  0.2952
 1729W        W 5473   4.877   3.364   1.227 -0.3630  0.1202 -0.1238
 1730W        W 5474   7.128   5.659   3.571 -0.1025  0.1942 -0.0598
 1731W        W 5475   7.125   7.123  10.201  0.1786  0.0009 -0.2238
 1732W        W 5476   7.833   3.168   9.700  0.1111  0.0822  0.3762
 1733W        W 5477   8.480   0.966   9.222  0.1309 -0.4048  0.1594
 1734W        W 5478   6.571   3.276   0.405  0.1581  0.0147  0.2364
 1735W        W 5479   3.134   6.472   7.391  0.0577  0.2338 -0.2066
 1736W        W 5480   8.619   6.397   2.931  0.0388 -0.1402  0.1000
 1737W        W 5481   5.770   5.457   4.025 -0.0587  0.1313 -0.1134
 1738W        W 5482   4.461   3.023   2.754  0.3441 -0.1467 -0.0011
 1739W        W 5483   1.515   1.122  12.204  0.1742 -0.2716  0.0081
 1740W        W 5484   2.580   9.632   9.499 -0.2216  0.0315 -0.2156
 1741W        W 5485   8.324   9.426  12.689 -0.0137  0.1162 -0.0662
 1742W        W 5486   4.458   7.445  10.187  0.0519  0.0527 -0.0913
 1743W        W 5487   5.118   0.621   0.354 -0.1219  0.2107 -0.1194
 1744W        W 5488   9.376   4.652  12.350 -0.4690 -0.3377 -0.0513
 1745W        W 5489   6.080   4.145   2.209 -0.0570  0.4075 -0.1793
 1746W        W 5490   9.616   5.143   0.049 -0.0639 -0.0352 -0.0235
 1747W        W 5491   0.909   0.873   3.185 -0.0742  0.0114  0.0610
 1748W        W 5492   8.450   5.244   8.224 -0.2674  0.2918 -0.1239
 1749W        W 5493   6.803   9.830   1.803  0.2229  0.1372  0.0826
 1750W        W 5494   2.132   4.432   3.189 -0.0519  0.0076  0.1778
 1751W        W 5495   7.728   8.764  12.279  0.0749 -0.0376 -0.1871
 1752W        W 5496   1.370   5.956   9.658 -0.1537  0.0923 -0.1205
 1753W        W 5497   3.934   0.048  10.068  0.0538 -0.0541 -0.2874
 1754W        W 5498   7.460   8.374  12.573  0.0768 -0.3397  0.0001
 1755W        W 5499   6.560   5.586   3.404 -0.1167 -0.1177 -0.0068
 1756W        W 5500   1.154   6.842  11.535 -0.5009  0.3031 -0.3002
 1757W        W 5501   2.003   0.089   9.736  0.4076 -0.1142  0.6811
 1758W        W 5502   6.668   1.984  10.796  0.1596  0.1241 -0.0838
 1759W        W 5503   9.867   8.297   1.334  0.3579 -0.0045 -0.2049
 1760W        W 5504   6.992   6.709   1.925 -0.4454 -0.3051  0.0181
 1761W        W 5505   9.802   4.414  11.142 -0.0120 -0.3381 -0.0057
 1762W        W 5506   6.561   8.737   0.315  0.4161 -0.0616  0.2140
 1763W        W 5507   3.386   5.442   8.643 -0.0734 -0.1447  0.1083
 1764W        W 5508   0.879   7.257   1.359 -0.0608  0.0053 -0.2631
 1765W        W 5509   7.148   0.190   1.446  0.0225  0.2245 -0.3272
 1766W        W 5510   2.768   4.991   0.828  0.1629  0.2122 -0.1379
 1767W        W 5511   4.768   8.145   0.831 -0.2760 -0.0747  0.2800
 1768W        W 5512   9.160   3.861   9.795  0.4394  0.3425 -0.2219
 1769W        W 5513   1.562   5.311  12.216  0.2422 -0.0588  0.0420
 1770W        W 5514   8.777   3.356  10.429  0.3964 -0.0958 -0.0448
 1771W        W 5515   9.642   6.124   1.898 -0.1345 -0.0042  0.2743
 1772W        W 5516   9.479   7.044   2.825 -0.1745  0.1790  0.3798
 1773W        W 5517   6.599   5.731   3.954  0.2119  0.0466  0.0794
 1774W        W 5518   1.475   5.055   2.016 -0.2141  0.2206 -0.2243
 1775W        W 5519   2.711   4.778   9.227 -0.0618  0.1224 -0.1047
 1776W        W 5520   6.539   4.170  10.864  0.1320  0.0954 -0.1375
 1777W        W 5521   1.518   5.590   0.740 -0.0925  0.1036  0.1676
 1778W        W 5522   4.286   9.600  10.335  0.0048  0.0986  0.0813
 1779W        W 5523   4.459   7.788  10.743  0.0437 -0.4100  0.1979
 1780W        W 5524   6.891   2.907   0.635 -0.1089 -0.2608 -0.0982
 1781W        W 5525   4.590   8.300   3.724 -0.2794  0.4666 -0.0296
 1782W        W 5526   8.180   5.098  12.621 -0.0989 -0.3543  0.1476
 1783W        W 5527   8.269   3.398   2.037 -0.3189 -0.0122 -0.2478
 1784W        W 5528   9.572   3.330   9.074 -0.4301 -0.0799  0.1471
 1785W        W 5529   4.367   6.589   7.884 -0.0341  0.1907 -0.1710
 1786W        W 5530   5.331   6.917   3.118  0.0064  0.1152  0.0870
 1787W        W 5531   6.939   0.123   2.691  0.1041  0.4621 -0.0433
 1788W        W 5532   5.192   5.967   3.489 -0.6034 -0.0203  0.1653
 1789W        W 5533   7.657   1.212  12.646  0.0328  0.1421 -0.1915
 1790W        W 5534   1.362   9.345   3.239 -0.1905 -0.0010 -0.0600
 1791W        W 5535   8.360   0.522   0.625 -0.1996  0.1423  0.1126
 1792W        W 5536   2.110   1.982  11.103  0.1126  0.3462 -0.1469
 1793W        W 5537   1.672   7.809   0.178 -0.1563 -0.0756  0.1621
 1794W        W 5538   2.082   6.423  10.124 -0.1370  0.1953 -0.0412
 1795W        W 5539   7.945   2.773   3.107  0.0689  0.2920 -0.0011
 1796W        W 5540   1.535   5.717  11.545 -0.2917  0.1542 -0.0631
 1797W        W 5541   8.278   1.464   1.098 -0.0778  0.0839 -0.0140
 1798W        W 5542   6.855   8.596   2.222  0.0902 -0.0975  0.2181
 1799W        W 5543   6.317   6.964   2.747  0.2059  0.3546 -0.1315
 1800W        W 5544   2.543   4.635   9.729 -0.2809 -0.2661 -0.1961
 1801W        W 5545   0.253   9.544   2.040 -0.3043  0.0086  0.0909
 1802W        W 5546   1.983   5.666   0.933 -0.1339 -0.2200  0.0558
 1803W        W 5547   3.105   9.679   3.008 -0.2928  0.1381 -0.2932
 1804W        W 5548   0.466   3.811   4.082  0.1342 -0.2045 -0.2655
 1805W        W 5549   0.165   6.155   2.121  0.1146 -0.1125  0.3064
 1806W        W 5550   3.003   1.557  11.225  0.0288  0.0082 -0.3441
 1807W        W 5551   6.135   4.360   2.722  0.0280  0.1674 -0.0179
 1808W        W 5552   7.470   5.996   9.598 -0.0076  0.0566  0.0347
 1809W        W 5553   8.398   6.751   3.330  0.4152 -0.4056  0.0688
 1810W        W 5554   2.680   1.512   9.033  0.3046  0.0319 -0.2297
 1811W        W 5555   3.626   4.235  10.983 -0.0395 -0.0516 -0.0524
 1812W        W 5556   9.893   2.763  12.048  0.2626 -0.0160 -0.1323
 1813W        W 5557   8.407   8.061   1.271 -0.0077 -0.0681 -0.1515
 1814W        W 5558   6.654   0.839  12.334  0.0679  0.1080 -0.0323
 1815W        W 5559   8.834   1.734  11.183 -0.2836  0.0498 -0.2682
 1816W        W 5560   1.379   1.383   1.101  0.1328 -0.2190 -0.1030
 1817W        W 5561   1.292   8.029  12.428  0.2848  0.1702  0.2351
 1818W        W 5562   7.986   2.523  11.561 -0.0007  0.0080  0.0729
 1819W        W 5563   4.644   0.988  12.669 -0.0629 -0.2075  0.2515
 1820W        W 5564   6.745   0.367  10.568 -0.0740  0.0915 -0.0686
 1821W        W 5565   4.666   0.067  11.913  0.0099 -0.0585 -0.2975
 1822W        W 5566   9.399   6.532   3.025 -0.0998 -0.1538 -0.2302
 1823W        W 5567   3.341   9.306   0.225  0.1621 -0.2334 -0.1599
 1824W        W 5568   4.108   7.786  11.823  0.0462 -0.0643 -0.1854
 1825W        W 5569   1.544   0.651  12.178 -0.2469 -0.2770  0.0358
 1826W        W 5570   4.927   1.117   0.467 -0.0459  0.0980  0.3372
 1827W        W 5571   8.201   4.794   3.560 -0.1725 -0.1837 -0.1187
 1828W        W 5572   5.190   3.030   1.679  0.1487  0.1523  0.2980
 1829W        W 5573   5.407   3.038  12.062 -0.4377  0.2169 -0.0306
 1830W        W 5574   9.342   3.761  11.789 -0.3555  0.2375 -0.0482
 1831W        W 5575   1.702   2.997   2.634 -0.0612  0.0506  0.0350
 1832W        W 5576   3.756   4.512   9.091 -0.2416  0.1396 -0.0179
 1833W        W 5577   2.546   6.809  11.595  0.1514  0.1951  0.0132
 1834W        W 5578   4.359   0.704   1.539 -0.4227  0.3437  0.0129
 1835W        W 5579   5.167   7.271   3.519 -0.0473 -0.1880  0.1212
 1836W        W 5580   7.788   5.536   2.768 -0.2643 -0.0740  0.3255
 1837W        W 5581   9.957   9.123   0.632 -0.0425 -0.0636  0.1674
 1838W        W 5582   4.958   4.180   2.975 -0.2536  0.0988  0.0376
 1839W        W 5583   3.747   0.519   3.097 -0.0282  0.0946 -0.0537
 1840W        W 5584   5.187   8.569   1.087 -0.3428 -0.2936  0.1665
 1841W        W 5585   9.482   4.586   1.355  0.0319  0.1243 -0.2235
 1842W        W 5586   0.522   2.225   9.194 -0.0227 -0.1267  0.1487
 1843W        W 5587   5.938   7.235   1.825 -0.3086  0.1147  0.1244
 1844W        W 5588   5.300   5.452   0.242  0.1751  0.2310 -0.2483
 1845W        W 5589   4.473   1.361   9.998 -0.0643 -0.1378 -0.0715
 1846W        W 5590   9.062   5.156   0.600 -0.0799 -0.0241 -0.1975
 1847W        W 5591   9.875   5.930  12.435 -0.3463  0.0806  0.1331
 1848W        W 5592   8.330   6.598   8.824  0.0732  0.2636 -0.0909
 1849W        W 5593   4.075   1.116   2.120 -0.0816 -0.2107  0.1250
 1850W        W 5594   2.522   2.136   2.324  0.0079 -0.1835  0.3300
 1851W        W 5595   3.813   8.061   1.203 -0.2799  0.1275 -0.3568
 1852W        W 5596   5.625   7.110  11.954 -0.0903  0.2611 -0.1899
 1853W        W 5597   1.931   0.167  10.793 -0.0265  0.3427 -0.1933
 1854W        W 5598   9.470   2.735  11.664 -0.0870 -0.0265  0.0174
 1855W        W 5599   4.247   0.391   9.899 -0.0632 -0.3327 -0.2947
 1856W        W 5600   7.743   7.671   9.364 -0.5320 -0.2675  0.0316
 1857W        W 5601   6.165   5.926  12.422  0.3235  0.2870  0.0613
 1858W        W 5602   9.187   2.101   1.847  0.2804 -0.1094 -0.0443
 1859W        W 5603   4.182   0.853   9.738  0.2376 -0.1370  0.1974
 1860W        W 5604   3.640   4.814   1.345 -0.1136  0.1889  0.3806
 1861W        W 5605   5.544   3.535   2.642  0.2298  0.2405 -0.1199
 1862W        W 5606   4.350   9.590  12.053  0.0014 -0.4012  0.1250
 1863W        W 5607   5.947   4.200   8.231 -0.3084  0.2056  0.0994
 1864W        W 5608   0.861   3.790   3.719  0.2452  0.0090  0.1876
 1865W        W 5609   3.164   2.612  12.046 -0.1334  0.1476 -0.3370
 1866W        W 5610   8.119   5.077   2.138  0.1927  0.0089  0.0700
 1867W        W 5611   9.881   8.578  12.547  0.0829  0.0923  0.0856
 1868W        W 5612   1.554   4.989  10.566 -0.1239  0.0785 -0.0336
 1869W        W 5613   3.699   5.567   0.083  0.0909 -0.0780  0.2114
 1870W        W 5614   8.150   4.441   2.196  0.2517  0.0316  0.0956
 1871W        W 5615   6.372   3.733   9.876 -0.1225 -0.2260  0.1229
 1872W        W 5616   5.230   9.110   0.760  0.1445 -0.1294  0.0030
 1873W        W 5617   4.882   2.273  10.998 -0.0037  0.0620 -0.2760
 1874W        W 5618   5.945   4.427   9.563  0.2259 -0.2508 -0.0843
 1875W        W 5619   4.921   5.944   3.909 -0.0960  0.3051 -0.0201
 1876W        W 5620   0.385   4.608   0.735 -0.1883  0.0319 -0.0352
 1877W        W 5621   3.620   3.458  12.397  0.1968 -0.1694  0.0992
 1878W        W 5622   2.961   3.339   2.616 -0.1883 -0.1337  0.0030
 1879W        W 5623   2.433   9.856   8.757  0.1436  0.1707  0.0846
 1880W        W 5624   7.322   6.650  10.268  0.1318 -0.0437  0.2700
 1881W        W 5625   8.138   4.738  12.225  0.1504 -0.3042  0.2678
 1882W        W 5626   2.532   5.598  11.355 -0.2615  0.2490  0.0196
 1883W        W 5627   2.837   7.593  10.045  0.0584 -0.1246  0.1513
 1884W        W 5628   6.695   1.912  10.246  0.1896 -0.0980 -0.2381
 1885W        W 5629   5.452   8.275   2.526 -0.1819  0.2022 -0.1632
 1886W        W 5630   6.220   5.274   9.281 -0.0284  0.0335  0.2499
 1887W        W 5631   3.830   4.227  11.896 -0.1231 -0.2262 -0.1743
 1888W        W 5632   4.440   6.745  11.347 -0.2025  0.0365  0.2007
 1889W        W 5633   2.541   9.731   8.293 -0.2438  0.2542 -0.0006
 1890W        W 5634   0.653   0.733   0.233  0.4136  0.5127 -0.0069
 1891W        W 5635   0.699   0.528  12.423 -0.1280 -0.3751 -0.1139
 1892W        W 5636   4.650   0.162  10.059  0.1213  0.1091  0.1450
 1893W        W 5637   3.642   1.659  12.027 -0.0938  0.4004  0.0938
 1894W        W 5638   9.440   9.301   3.348  0.0971 -0.0140  0.0620
 1895W        W 5639   7.339   5.222   3.264  0.1255  0.1300  0.0934
 1896W        W 5640   6.761   5.062   2.841  0.1129 -0.1354  0.2366
 1897W        W 5641   6.230   8.364  10.248 -0.1421 -0.0012 -0.4757
 1898W        W 5642   4.509   9.155  12.169 -0.2190 -0.0068  0.0363
 1899W        W 5643   0.088   1.047  11.950 -0.2294 -0.2137  0.1967
 1900W        W 5644   2.343   8.128   3.433 -0.0173 -0.1587 -0.2224
 1901W        W 5645   8.214   8.926   0.240  0.2304 -0.0466  0.1966
 1902W        W 5646   9.138   7.022  10.188  0.3022  0.0755 -0.2458
 1903W        W 5647   1.561   6.985   3.123  0.0595 -0.0224  0.0146
 1904W        W 5648   2.138   1.520   9.073  0.0246 -0.3815  0.0113
 1905W        W 5649   0.758   6.212  12.078  0.1643 -0.1237  0.1153
 1906W        W 5650   5.755   4.969   1.927 -0.1170  0.0545 -0.0708
 1907W        W 5651   7.508   5.279   0.015 -0.0221 -0.1406  0.0348
 1908W        W 5652   9.082   7.831   2.150 -0.0444 -0.1232  0.3158
 1909W        W 5653   4.012   6.990   8.997  0.0526  0.2801 -0.0353
 1910W        W 5654   5.388   1.016   2.375  0.1495  0.1861 -0.2705
 1911W        W 5655   8.370   2.164   8.507 -0.2316 -0.0980  0.0865
 1912W        W 5656   8.811   5.012   4.871  0.5519  0.1084 -0.0867
 1913W        W 5657   7.432   4.282  11.072  0.0797 -0.1818  0.1767
 1914W        W 5658   0.228   0.251  10.658  0.1990 -0.1280  0.2326
 1915W        W 5659   9.435   1.226   1.053 -0.2054  0.2563  0.1373
 1916W        W 5660   3.575   8.634   4.057  0.0708  0.1251 -0.2586
 1917W        W 5661   4.124   8.354   3.005  0.0138 -0.1291 -0.1470
 1918W        W 5662   8.034   5.414   8.819  0.0577 -0.2112  0.0597
 1919W        W 5663   6.732   1.798  11.817  0.1337 -0.2317  0.0835
 1920W        W 5664   6.968   1.769   8.901  0.2846  0.0249  0.1867
 1921W        W 5665   3.558   2.005   3.170  0.1082  0.1080 -0.0920
 1922W        W 5666   0.034   2.683   9.077  0.1715  0.0862  0.1243
 1923W        W 5667   8.526   9.427   2.727 -0.0521  0.3227 -0.0411
 1924W        W 5668   0.952   6.607   8.506  0.2363  0.2172 -0.3421
 1925W        W 5669   9.060   4.089  10.737  0.0385 -0.1404 -0.0116
 1926W        W 5670   4.033   2.908  10.846  0.1034 -0.1181  0.1853
 1927W        W 5671   4.595   5.656   9.758 -0.1788  0.1085  0.0815
 1928W        W 5672   8.359   6.497   1.821  0.0869 -0.1256  0.4126
 1929W        W 5673   5.289   9.541  10.416  0.0339 -0.0527 -0.2566
 1930W        W 5674   8.287   6.726   2.871  0.4345  0.2164  0.0434
 1931W        W 5675   3.868   3.422  10.104  0.3279  0.0554  0.0676
 1932W        W 5676   0.633   3.780   9.455  0.0868  0.2235 -0.3566
 1933W        W 5677   4.562   9.772   0.572 -0.0207  0.0184 -0.1774
 1934W        W 5678   7.083   0.998   9.243 -0.2208 -0.0685  0.1663
 1935W        W 5679   5.781   7.356  12.534 -0.1029  0.1112 -0.1072
 1936W        W 5680   4.981   5.126   1.926  0.2484 -0.0217  0.1247
 1937W        W 5681   3.146   0.276   2.306  0.1771  0.1832 -0.0452
 1938W        W 5682   4.749   3.624  10.354 -0.0622  0.1880 -0.1511
 1939W        W 5683   6.300   6.568   2.392  0.0500  0.0331  0.0933
 1940W        W 5684   3.992   4.385   1.119 -0.0281 -0.2370 -0.0087
 1941W        W 5685   3.941   6.530  10.877  0.1315  0.0178  0.1132
 1942W        W 5686   2.681   8.662   4.498  0.2223  0.1485 -0.1501
 1943W        W 5687   8.605   7.296  11.319  0.2041  0.0812  0.1056
 1944W        W 5688   7.186   7.880   2.181 -0.2381  0.0988  0.1981
 1945W        W 5689   6.879   8.153   1.418  0.0677  0.0499 -0.1972
 1946W        W 5690   3.416   5.536  10.258 -0.5317  0.2218  0.3201
 1947W        W 5691   9.777   8.119   0.474 -0.1847 -0.1804  0.0489
 1948W        W 5692   6.487   3.543   1.516  0.3239  0.0114 -0.1804
 1949W        W 5693   1.033   6.635  12.630 -0.0242 -0.2978 -0.1338
 1950W        W 5694   1.781   4.872   2.859  0.1116  0.1667  0.1907
 1951W        W 5695   3.313   0.096   9.017  0.2404  0.0847  0.1945
 1952W        W 5696   1.702   3.877   2.306  0.2146 -0.1213  0.0138
 1953W        W 5697   2.989   6.761  10.701 -0.0111 -0.3017  0.1167
 1954W        W 5698   9.037   3.979  12.062  0.1435 -0.2057  0.1931
 1955W        W 5699   1.071   4.544   9.783 -0.2064  0.0666  0.0528
 1956W        W 5700   0.241   9.062  12.232  0.1146  0.1594 -0.0839
 1957W        W 5701   8.884   7.735   2.593  0.0391  0.3766 -0.2034
 1958W        W 5702   1.313   2.378   0.688 -0.1603  0.5360  0.0312
 1959W        W 5703   4.644   8.171   3.238  0.0410 -0.0935  0.0521
 1960W        W 5704   0.172   9.309  10.786  0.2650  0.0341  0.2696
 1961W        W 5705   6.589   7.031  10.419 -0.0262  0.3645 -0.0393
 1962W        W 5706   4.345   9.765   1.042 -0.0710  0.1964  0.1694
 1963W        W 5707   3.064   7.176  10.935  0.0331  0.0690 -0.1751
 1964W        W 5708   6.568   3.490  11.265  0.0782 -0.2648  0.4911
 1965W        W 5709   5.202   1.811  12.263  0.0144  0.2417  0.2113
 1966W        W 5710   8.397   2.796  11.566  0.4369 -0.0699 -0.3142
 1967W        W 5711   4.869   3.228  12.082 -0.0754 -0.0834  0.0243
 1968W        W 5712   5.347   3.529  10.350 -0.1939  0.1921  0.0724
 1969W        W 5713   2.038   1.276   1.558 -0.0043  0.2392 -0.1897
 1970W        W 5714   7.683   1.684   1.164 -0.0321  0.1979  0.1338
 1971W        W 5715   7.774   6.753   0.505 -0.0153 -0.1499  0.2212
 1972W        W 5716   1.807   9.694  10.015 -0.0420  0.0520  0.1477
 1973W        W 5717   0.405   9.191   0.866  0.0462  0.2561  0.0209
 1974W        W 5718   1.414   4.537   1.966 -0.1173 -0.2021 -0.1933
 1975W        W 5719   3.088   5.038  12.134  0.1991  0.1084 -0.0843
 1976W        W 5720   5.369   8.649   3.463  0.0166  0.3838  0.0652
 1977W        W 5721   5.823   6.919  10.133  0.1851 -0.1478  0.3603
 1978W        W 5722   2.626   8.191   9.700 -0.1159 -0.0997 -0.0335
 1979W        W 5723   9.241   3.844   1.182 -0.0361  0.0893  0.0883
 1980W        W 5724   1.203   7.398  11.444 -0.0263  0.0638  0.0125
 1981W        W 5725   6.500   9.555   1.031  0.2908  0.0449 -0.0164
 1982W        W 5726   2.858   8.582   8.824 -0.3564 -0.0285 -0.1385
 1983W        W 5727   3.748   1.519  12.635  0.3102 -0.1356  0.1248
 1984W        W 5728   9.075   3.529  11.392  0.0846  0.0673  0.0347
 1985W        W 5729   4.864   3.851   9.239 -0.1603 -0.1384 -0.1598
 1986W        W 5730   6.196   9.490   4.120 -0.2814  0.1158  0.0950
 1987W        W 5731   0.033   9.294  11.345 -0.1163  0.3249 -0.2942
 1988W        W 5732   3.512   8.471   1.155 -0.1385  0.0694 -0.1467
 1989W        W 5733   2.770   6.098  10.469  0.2454 -0.2647  0.0937
 1990W        W 5734   8.881   8.487   1.235 -0.1653 -0.3984  0.0445
 1991W        W 5735   5.995   2.259   1.443  0.3615 -0.1334  0.0948
 1992W        W 5736   4.092   0.706   4.602  0.3321 -0.1873 -0.2509
 1993W        W 5737   7.311   3.313   0.173 -0.1345  0.0080  0.3991
 1994W        W 5738   6.831   5.237   3.814 -0.2020 -0.2307  0.0477
 1995W        W 5739   4.193   4.003   3.798 -0.1741 -0.1482 -0.1670
 1996W        W 5740   2.196   9.349   0.580  0.0678 -0.1103  0.1079
 1997W        W 5741   1.791   5.651  11.976  0.1749  0.2113  0.1701
 1998W        W 5742   7.717   9.557   1.988 -0.0586 -0.3557 -0.2964
 1999W        W 5743   4.717   3.362  11.591 -0.1519  0.2034  0.1251
 2000W        W 5744   0.621   5.147   8.978 -0.0575  0.0432  0.1968
 2001W        W 5745   1.384   6.913   7.733  0.1029  0.0425 -0.1940
 2002W        W 5746   1.207   4.494   9.276 -0.1013 -0.1751  0.0180
 2003W        W 5747   1.778   9.325   8.538  0.0096 -0.0824  0.0399
 2004W        W 5748   4.029   3.949   9.877  0.3574 -0.3301  0.1190
 2005W        W 5749   2.741   9.910  12.197  0.0397 -0.1744  0.2368
 2006W        W 5750   9.583   1.696  11.679  0.0608 -0.0202 -0.0773
 2007W        W 5751   9.435   2.828   9.322 -0.0018 -0.1986  0.0497
 2008W        W 5752   7.633   1.304   0.817 -0.1655 -0.0225  0.2859
 2009W        W 5753   9.562   7.266  10.951 -0.0813 -0.3187 -0.2738
 2010W        W 5754   9.701   7.096   2.305  0.1901 -0.1754  0.1501
 2011W        W 5755   1.221   6.283   1.155 -0.0256 -0.0720 -0.2477
 2012W        W 5756   2.547   8.954   0.561  0.0904 -0.3498 -0.1560
 2013W        W 5757   7.967   1.762   9.290 -0.1634  0.2023  0.2176
 2014W        W 5758   6.755   3.664   2.375 -0.2560 -0.5094 -0.2409
 2015W        W 5759   0.603   1.937   3.899  0.0779 -0.0668 -0.1824
 2016W        W 5760   1.326   1.897   0.932  0.0922 -0.0219  0.2165
 2017W        W 5761   0.576   4.195   2.786  0.1814  0.2827  0.1707
 2018W        W 5762   9.319   6.359   0.204  0.0204  0.2042  0.1244
 2019W        W 5763   8.765   0.177   2.339 -0.2164 -0.1159  0.0757
 2020W        W 5764   9.051   0.570   9.352  0.0881 -0.0983  0.2184
 2021W        W 5765   5.630   0.558  11.776  0.1342  0.0576  0.3313
 2022W        W 5766   9.149   8.325   9.427 -0.2098  0.1551 -0.4361
 2023W        W 5767   6.308   0.924  12.724  0.1538 -0.2245 -0.1349
 2024W        W 5768   9.861   1.489  12.049  0.0369  0.4987 -0.1331
 2025W        W 5769   7.795   4.056   8.983 -0.0648 -0.2779 -0.0551
 2026W        W 5770   2.818   4.590   0.103 -0.1171 -0.3035  0.1537
 2027W        W 5771   3.702   8.346  11.618  0.2729 -0.1168 -0.0475
 2028W        W 5772   9.692   2.301  10.719  0.0267 -0.0869  0.1118
 2029W        W 5773   6.637   2.873   2.154 -0.1318  0.1669 -0.2798
 2030W        W 5774   4.030   5.097   3.072  0.1483 -0.1114  0.0103
 2031W        W 5775   5.422   4.791   3.270 -0.0827 -0.1100 -0.0366
 2032W        W 5776   4.250   0.216  12.076 -0.0481  0.1012 -0.1345
 2033W        W 5777   0.216   4.096   9.773  0.2191  0.1141  0.0146
 2034W        W 5778   8.281   4.925   0.792 -0.4192  0.0417  0.2125
 2035W        W 5779   2.753   8.571   4.010  0.1034  0.1028 -0.1540
 2036W        W 5780   1.696   2.328   1.027  0.1112 -0.1046  0.3230
 2037W        W 5781   9.020   1.185  12.291  0.2114  0.0198  0.1656
 2038W        W 5782   1.731   6.417   8.548  0.0821 -0.2481  0.0064
 2039W        W 5783   6.707   1.314  12.631  0.0503 -0.1759  0.1313
 2040W        W 5784   4.513   2.006   0.864 -0.2078 -0.1823  0.1948
 2041W        W 5785   5.217   8.502   4.944  0.0866 -0.0691  0.3999
 2042W        W 5786   4.129   7.418   3.630  0.1784  0.1971 -0.0513
 2043W        W 5787   2.899   3.596   0.064 -0.2084  0.1980  0.2935
 2044W        W 5788   2.033   1.131   9.612 -0.1384 -0.1166 -0.2083
 2045W        W 5789   7.114   5.758  10.763 -0.0286 -0.0748 -0.0908
 2046W        W 5790   8.940   2.533  10.072  0.3082  0.0560 -0.1632
 2047W        W 5791   8.382   2.220  10.672 -0.2608 -0.1338  0.0384
 2048W        W 5792   5.822   0.435   1.782  0.0508  0.1557 -0.0499
 2049W        W 5793   5.092   5.772   1.211  0.1429 -0.0912 -0.3299
 2050W        W 5794   1.003   2.862   1.685 -0.0407 -0.2748 -0.3115
 2051W        W 5795   3.561   4.081   9.654  0.0467  0.2847 -0.3473
 2052W        W 5796   6.360   5.648   8.845 -0.0307 -0.1119 -0.0695
 2053W        W 5797   7.898   6.728   3.239 -0.0235 -0.0273 -0.1766
 2054W        W 5798   8.839   2.271   1.500 -0.0699  0.1936 -0.0996
 2055W        W 5799   2.201   1.716  10.606 -0.0453  0.1054 -0.1669
 2056W        W 5800   7.731   5.941  12.271  0.0272  0.2134 -0.3137
 2057W        W 5801   7.303   7.187  10.987 -0.0264  0.2868  0.6403
 2058W        W 5802   1.485   2.764   8.186  0.0367 -0.1676 -0.2767
 2059W        W 5803   8.242   5.590   9.869  0.3969  0.0607  0.1446
 2060W        W 5804   5.923   3.172   3.681  0.2021 -0.0330 -0.0680
 2061W        W 5805   0.562   0.263   0.961  0.1459  0.0695  0.4787
 2062W        W 5806   1.105   9.512   0.808 -0.3474 -0.1184  0.0814
 2063W        W 5807   2.620   4.128   9.938  0.0373 -0.1580 -0.1516
 2064W        W 5808   2.386   7.202   0.192  0.2207  0.0565 -0.1456
 2065W        W 5809   7.224   1.383   1.347  0.1152 -0.2780 -0.0461
 2066W        W 5810   7.129   2.482   4.023 -0.0377  0.0645  0.2166
 2067W        W 5811   1.666   3.296   0.136  0.1355  0.2810  0.1583
 2068W        W 5812   1.626   9.544   9.583 -0.1245 -0.1955 -0.3102
 2069W        W 5813   1.410   8.442  12.160  0.0373  0.2093 -0.1527
 2070W        W 5814   1.644   4.275  11.528 -0.2200  0.3903 -0.3099
 2071W        W 5815   9.778   7.009  11.425 -0.1198 -0.1362 -0.0412
 2072W        W 5816   9.796   5.428   9.599 -0.1788  0.1015  0.1243
 2073W        W 5817   5.826   1.176  12.550 -0.0192  0.0140 -0.1054
 2074W        W 5818   8.968   9.735   9.687 -0.2019  0.1257 -0.0361
 2075W        W 5819   6.178   3.758   4.588 -0.1225  0.2699 -0.0230
 2076W        W 5820   2.730   1.844   1.759  0.0518 -0.4204 -0.1645
 2077W        W 5821   9.902   6.163   1.288 -0.1639  0.0684  0.1062
 2078W        W 5822   1.615   9.865   9.194 -0.3032 -0.0689  0.0821
 2079W        W 5823   2.980   4.737   8.743  0.2503 -0.0582 -0.2226
 2080W        W 5824   1.340   2.212  11.306 -0.2567  0.1008 -0.0654
 2081W        W 5825   8.156   3.010   0.713 -0.0765 -0.0847  0.0563
 2082W        W 5826   2.684   8.683   9.801 -0.3487 -0.1471 -0.0514
 2083W        W 5827   9.250   5.480  11.107  0.1797 -0.1936 -0.5667
 2084W        W 5828   6.492   5.555   9.804  0.3293 -0.3996  0.3819
 2085W        W 5829   1.900   3.624  11.028 -0.1483  0.0071 -0.3079
 2086W        W 5830   9.004   8.997  10.837  0.0105  0.1712  0.0108
 2087W        W 5831   3.043   2.780  12.476 -0.0800  0.2081 -0.2890
 2088W        W 5832   5.368   1.504   9.776 -0.2946 -0.1254 -0.1410
 2089W        W 5833   7.072   9.328  10.873 -0.0696  0.0374 -0.1560
 2090W        W 5834   4.142   1.187  10.712 -0.4066 -0.1977 -0.1718
 2091W        W 5835   0.215   6.726   8.069  0.3430  0.0044  0.2180
 2092W        W 5836   1.090   8.688   1.196 -0.1306 -0.0637 -0.2452
 2093W        W 5837   4.976   7.503   9.675 -0.0058  0.1468 -0.2663
 2094W        W 5838   9.082   6.416   9.936  0.0843 -0.0276  0.2285
 2095W        W 5839   7.952   9.605   1.482  0.0708  0.0600  0.1530
 2096W        W 5840   7.199   2.186   8.981  0.1849  0.1097  0.1585
 2097W        W 5841   5.777   7.999  10.409  0.0706 -0.0803 -0.0569
 2098W        W 5842   0.275   6.683   8.578 -0.0214 -0.2905  0.3195
 2099W        W 5843   5.389   3.322   2.095  0.0568 -0.0722 -0.0207
 2100W        W 5844   1.349   7.911   8.993 -0.1647  0.2613 -0.1761
 2101W        W 5845   4.272   8.119   0.927 -0.2033 -0.1569 -0.0156
 2102W        W 5846   0.339   0.946   1.632 -0.1442 -0.0255  0.0088
 2103W        W 5847   8.216   2.717   8.357 -0.0943  0.2534 -0.2988
 2104W        W 5848   2.206   7.804  11.282 -0.2029  0.1040 -0.2284
 2105W        W 5849   7.113   9.869   9.742  0.0477  0.1477 -0.2771
 2106W        W 5850   2.320   8.503   3.852  0.0978  0.2506  0.3199
 2107W        W 5851   5.415   2.487   0.641 -0.0320 -0.1497  0.2416
 2108W        W 5852   9.841   0.822  12.362  0.2212  0.1860 -0.2397
 2109W        W 5853   8.085   2.261  12.360  0.2421  0.3973  0.3045
 2110W        W 5854   1.475   2.511   9.519 -0.0437  0.0553  0.1799
 2111W        W 5855   4.809   4.565  12.380 -0.1536 -0.1174  0.2478
 2112W        W 5856   0.542   4.942   9.988 -0.0058 -0.1067  0.0769
 2113W        W 5857   4.791   2.849  10.858 -0.1239 -0.0950 -0.3517
 2114W        W 5858   7.316   8.011  11.430 -0.1045 -0.1061  0.3794
 2115W        W 5859   1.327   9.308  10.798  0.0795  0.0274 -0.1621
 2116W        W 5860   1.347   3.816   3.509 -0.1173 -0.1019 -0.0673
 2117W        W 5861   6.357   8.637  10.707  0.1433 -0.0030  0.3861
 2118W        W 5862   4.168   6.525  11.828  0.1528 -0.0612 -0.1226
 2119W        W 5863   6.800   2.509  12.611 -0.0147 -0.0250 -0.0985
 2120W        W 5864   6.828   2.515   8.953  0.3658  0.0830 -0.2047
 2121W        W 5865   2.009   4.932  10.781  0.2308  0.3085  0.0274
 2122W        W 5866   0.798   1.628  11.750 -0.2781 -0.0427  0.6032
 2123W        W 5867   1.467   2.110   1.427  0.2485 -0.1721  0.2055
 2124W        W 5868   1.010   0.393  10.593  0.2001 -0.2267 -0.4492
 2125W        W 5869   6.630   5.979  12.077 -0.1735  0.2259  0.1252
 2126W        W 5870   6.177   7.700  12.481  0.0089 -0.0051  0.2091
 2127W        W 5871   6.873   6.686  10.186  0.3375  0.3041 -0.1908
 2128W        W 5872   0.844   8.275   1.396 -0.0520 -0.1138  0.0922
 2129W        W 5873   8.081   4.093   2.893 -0.0865  0.2977  0.2289
 2130W        W 5874   0.108   5.287  10.027 -0.0379  0.1376  0.0621
 2131W        W 5875   4.726   1.589   3.842 -0.0724  0.0932  0.1852
 2132W        W 5876   1.917   4.460  11.045  0.1339 -0.0082  0.3285
 2133W        W 5877   1.155   3.978   9.491  0.3750 -0.2339  0.0754
 2134W        W 5878   4.426   2.365   1.749 -0.0584 -0.1098  0.0488
 2135W        W 5879   2.618   4.475   3.144  0.1549 -0.4264  0.4947
 2136W        W 5880   4.753   5.187   0.090  0.3270 -0.2440  0.0620
 2137W        W 5881   9.619   1.261  11.502 -0.0208 -0.3425 -0.0517
 2138W        W 5882   2.145   4.273   0.956  0.0438 -0.1463  0.3191
 2139W        W 5883   3.422   8.055  12.569  0.0797 -0.0470 -0.0776
 2140W        W 5884   6.262   8.996  10.128  0.0448 -0.0234  0.3143
 2141W        W 5885   7.956   6.798   1.630 -0.0919  0.1669  0.0904
 2142W        W 5886   8.056   6.509  12.743 -0.3105 -0.0632  0.0281
 2143W        W 5887   2.839   5.188   0.272  0.1081  0.1412 -0.0400
 2144W        W 5888   9.921   9.221  11.821  0.2083  0.2436  0.1077
 2145W        W 5889   5.111   6.410   8.147  0.1918  0.0467 -0.1738
 2146W        W 5890   5.104   3.645  11.913 -0.2108  0.0579  0.3326
 2147W        W 5891   4.085   1.719  10.361 -0.3728 -0.1815 -0.2137
 2148W        W 5892   6.586   9.456  10.934  0.0977 -0.0293  0.1344
 2149W        W 5893   6.776   6.547   4.161 -0.1917 -0.0572  0.1064
 2150W        W 5894   0.590   7.271  12.562  0.0983 -0.1037  0.0536
 2151W        W 5895   6.286   2.370  11.739 -0.2191  0.1503 -0.2575
 2152W        W 5896   2.946   6.618   1.587  0.1578 -0.1722  0.0835
 2153W        W 5897   1.907   1.412   0.143  0.2807  0.0755 -0.0772
 2154W        W 5898   2.711   6.464   2.991 -0.2108  0.0881  0.1390
 2155W        W 5899   9.953   9.631   1.669  0.0144  0.0159  0.0555
 2156W        W 5900   4.003   5.398   8.332 -0.0185 -0.0703  0.0467
 2157W        W 5901   6.645   7.561   2.349 -0.0417  0.0787  0.0007
 2158W        W 5902   7.493   3.662   0.713 -0.1937 -0.1170 -0.1827
 2159W        W 5903   1.307   8.597   9.357  0.0253  0.0481 -0.1044
 2160W        W 5904   2.483   4.541   4.130 -0.1864  0.0212 -0.3247
 2161W        W 5905   5.395   5.968  11.355 -0.0553  0.2490  0.3236
 2162W        W 5906   1.578   8.533   0.388  0.1525  0.2817  0.2978
 2163W        W 5907   6.786   2.221   1.102 -0.3116 -0.0766  0.2038
 2164W        W 5908   1.035   0.001   3.425  0.2023 -0.1031  0.1651
 2165W        W 5909   5.872   5.093   2.418 -0.1725 -0.1095 -0.0633
 2166W        W 5910   4.788   9.708  10.251  0.0141  0.0155 -0.0003
 2167W        W 5911   0.084   5.295   1.641  0.1299 -0.0227  0.3894
 2168W        W 5912   6.993   6.289   9.882  0.0567 -0.3561 -0.1208
 2169W        W 5913   1.300   0.655   8.607  0.0409  0.0565  0.3919
 2170W        W 5914   8.940   8.653  10.470  0.0360 -0.0082  0.4214
 2171W        W 5915   6.399   6.277   0.089 -0.0174 -0.0921  0.1741
 2172W        W 5916   8.009   6.357   2.166  0.4451  0.2547 -0.0182
 2173W        W 5917   8.794   8.941   2.835  0.0491 -0.0464  0.1022
 2174W        W 5918   4.365   0.583  12.523  0.1922 -0.1124 -0.0186
 2175W        W 5919   1.972   9.054   8.993 -0.0356  0.2827 -0.0776
 2176W        W 5920   1.208   5.342  10.406  0.3220  0.0439 -0.1876
 2177W        W 5921   9.171   5.538   3.078  0.1717  0.1414 -0.1119
 2178W        W 5922   4.661   2.873  11.754 -0.1085 -0.1463 -0.0458
 2179W        W 5923   3.111   2.998   4.052  0.0796 -0.1596 -0.0466
 2180W        W 5924   3.095   1.465   2.627  0.3094 -0.3600 -0.1264
 2181W        W 5925   6.964   6.417   2.318 -0.1690 -0.2995 -0.0317
 2182W        W 5926   5.464   7.511  12.195  0.0543 -0.3506  0.1420
 2183W        W 5927   5.195   7.299   2.777  0.3096  0.3145  0.4656
 2184W        W 5928   2.493   6.224  12.221 -0.2294  0.4376 -0.0142
 2185W        W 5929   0.708   9.978  12.425  0.0094 -0.3228 -0.1547
 2186W        W 5930   3.443   2.485  12.654 -0.1378 -0.0070  0.1148
 2187W        W 5931   1.167   9.735   2.993 -0.1319  0.0428  0.2654
 2188W        W 5932   6.328   0.052  12.638 -0.1507 -0.3123  0.1440
 2189W        W 5933   0.013   5.165  11.949 -0.0960 -0.4476  0.1689
 2190W        W 5934   4.737   4.120   2.064 -0.0489  0.0842 -0.1789
 2191W        W 5935   9.873   7.449  12.010 -0.0705 -0.0806  0.0296
 2192W        W 5936   1.802   4.843   8.518  0.1298 -0.1231  0.2756
 2193W        W 5937   1.511   3.995  12.413  0.0187  0.3349  0.0445
 2194W        W 5938   7.886   0.089   1.285  0.0380  0.1787  0.1299
 2195W        W 5939   9.422   5.513   0.404  0.2276 -0.0416  0.1483
 2196W        W 5940   8.489   8.544   0.383 -0.2142 -0.1831  0.0740
 2197W        W 5941   1.330   0.217   4.263 -0.3104  0.0047 -0.0187
 2198W        W 5942   8.308   2.811   2.221 -0.3628 -0.0204  0.1462
 2199W        W 5943   8.900   5.479   2.042  0.0812 -0.0400  0.0363
 2200W        W 5944   4.495   4.956   0.480  0.0623 -0.0561 -0.0983
 2201W        W 5945   6.575   2.906   9.208  0.1340  0.1657  0.0376
 2202W        W 5946   1.514   9.082  11.272 -0.1199  0.2331 -0.2307
 2203W        W 5947   5.234   8.369  11.717 -0.1214 -0.0408  0.0002
 2204W        W 5948   2.755   5.831   4.488 -0.1289 -0.3140 -0.2588
 2205W        W 5949   0.833   5.552  10.706  0.3394  0.1166 -0.2985
 2206W        W 5950   3.563   4.406   1.796 -0.0015  0.1154 -0.3271
 2207W        W 5951   0.172   1.614   0.064  0.0506  0.0064  0.0634
 2208W        W 5952   8.553   2.514   8.885 -0.0912 -0.2331 -0.0727
 2209W        W 5953   9.835   6.024  11.929  0.0277 -0.3008 -0.0171
 2210W        W 5954   8.539   6.826   1.055  0.1216 -0.2279  0.1842
 2211W        W 5955   3.994   9.756   8.929 -0.1758 -0.1248 -0.2800
 2212W        W 5956   3.456   8.872   2.990  0.2053  0.1189  0.2006
 2213W        W 5957   5.735   9.652   8.881  0.3342 -0.0678  0.1891
 2214W        W 5958   5.217   5.315   9.400  0.1516 -0.1255 -0.0020
 2215W        W 5959   9.203   8.683   0.909  0.0137 -0.0639 -0.1572
 2216W        W 5960   2.218   2.935   2.442 -0.0784  0.1107  0.1412
 2217W        W 5961   3.032   8.603   0.916  0.1987  0.2540  0.2636
 2218W        W 5962   4.695   7.835  10.002  0.2998  0.1008 -0.0251
 2219W        W 5963   4.385   5.603  11.933  0.2378 -0.2287  0.1829
 2220W        W 5964   3.942   6.982   2.734  0.3103  0.1755 -0.1221
 2221W        W 5965   2.121   0.657   1.443  0.0605 -0.0675  0.1577
 2222W        W 5966   4.452   7.332   2.852  0.0018 -0.0218 -0.0641
 2223W        W 5967   9.950   6.118   4.068  0.0696  0.1051  0.1432
 2224W        W 5968   2.613   9.462   2.071  0.0206 -0.4791  0.0183
 2225W        W 5969   4.074   4.562   3.212 -0.2057 -0.0404 -0.0852
 2226W        W 5970   0.722   2.480   0.912 -0.0550  0.2288 -0.0305
 2227W        W 5971   8.170   3.096   0.139  0.3377 -0.1782  0.2319
 2228W        W 5972   9.577   7.252   1.826 -0.2420 -0.2420 -0.1792
 2229W        W 5973   7.182   9.026   1.965 -0.0049  0.0732  0.1603
 2230W        W 5974   7.940   7.269   1.696 -0.2293 -0.2919 -0.5633
 2231W        W 5975   8.768   1.248   8.823  0.1837  0.1897 -0.0428
 2232W        W 5976   1.876   3.937   4.547 -0.1324  0.1317 -0.1115
 2233W        W 5977   5.520   0.570   9.985 -0.1615 -0.2998  0.3067
 2234W        W 5978   5.347   4.689   0.780  0.1910  0.1382  0.1214
 2235W        W 5979   0.333   9.384   2.777  0.0677  0.0699  0.0564
 2236W        W 5980   6.221   2.490   2.811 -0.1260 -0.0570 -0.0206
 2237W        W 5981   1.899   8.610  12.058  0.0103 -0.3553  0.1729
 2238W        W 5982   9.309   4.819   9.901  0.2197 -0.1452 -0.3937
 2239W        W 5983   4.923   6.747  11.476 -0.0476 -0.4511 -0.1270
 2240W        W 5984   2.103   8.696   4.274 -0.1563 -0.2292  0.4815
 2241W        W 5985   9.934   9.681   9.912  0.1900  0.3498 -0.3273
 2242W        W 5986   3.981   2.458  11.447 -0.1447  0.1596 -0.0056
 2243W        W 5987   5.368   2.578   9.964 -0.1160  0.2336 -0.0171
 2244W        W 5988   1.293   8.719   8.838 -0.1986 -0.2622  0.1767
 2245W        W 5989   1.320   8.871   0.140 -0.0509  0.1332 -0.1978
 2246W        W 5990   6.760   8.671   9.604 -0.0572  0.0447 -0.1253
 2247W        W 5991   3.928   8.108   2.552  0.1234 -0.1068  0.3237
 2248W        W 5992   7.889   7.863  11.073  0.0894  0.0778 -0.0141
 2249W        W 5993   6.391   2.329   1.890  0.4767  0.1694 -0.2621
 2250W        W 5994   9.335   6.511  12.087  0.0518  0.1637 -0.0369
 2251W        W 5995   0.748   8.134   0.910 -0.1476 -0.0947  0.0794
 2252W        W 5996   0.112   2.556  10.916 -0.2827  0.1008  0.0141
 2253W        W 5997   3.080   8.884   4.768 -0.1935 -0.0650 -0.0135
 2254W        W 5998   8.050   4.763   1.220  0.0655  0.0134 -0.3350
 2255W        W 5999   7.876   5.168   3.325 -0.1738 -0.1884  0.3107
 2256W        W 6000   0.761   4.238  11.218 -0.1073 -0.0363 -0.2403
 2257W        W 6001   1.089   4.084   0.242  0.0882  0.0896  0.2040
 2258W        W 6002   8.261   5.972   1.877  0.2400 -0.0925  0.1809
 2259W        W 6003   7.248   7.947   1.692 -0.3041 -0.1050  0.0977
 2260W        W 6004   1.468   7.705  11.758  0.0052  0.0325  0.1397
 2261W        W 6005   2.055   1.279   2.532 -0.1684  0.2279 -0.0732
 2262W        W 6006   4.301   8.470  11.402 -0.1524  0.2383  0.2714
 2263W        W 6007   0.846   6.771   3.319 -0.3508  0.0991 -0.1001
 2264W        W 6008   0.838   3.588  12.133 -0.1215  0.1179 -0.0493
 2265W        W 6009   9.429   1.864   9.078 -0.0232  0.1935  0.2758
 2266W        W 6010   2.153   5.091   3.152 -0.2634 -0.2111 -0.2938
 2267W        W 6011   5.947   8.643   3.578 -0.0051 -0.0399  0.2887
 2268W        W 6012   8.425   1.262  10.193  0.1495 -0.0217  0.1069
 2269W        W 6013   6.433   5.734   9.359 -0.1659 -0.2875  0.1845
 2270W        W 6014   7.965   0.987   9.968  0.1904 -0.1290  0.2662
 2271W        W 6015   3.765   0.294  12.052 -0.0302 -0.5671  0.0962
 2272W        W 6016   1.719   0.409  11.171 -0.3445 -0.1517  0.2877
 2273W        W 6017   6.633   9.423   3.292 -0.0609  0.0726  0.0367
 2274W        W 6018   5.705   0.855   9.564  0.2109 -0.1064 -0.0262
 2275W        W 6019   3.701   9.724   1.834 -0.3905  0.2240  0.0331
 2276W        W 6020   7.219   6.116   9.039  0.2130 -0.1124  0.1239
 2277W        W 6021   0.352   2.049   8.771 -0.1344  0.0988 -0.1340
 2278W        W 6022   2.349   5.818   0.503  0.1276  0.0565  0.2675
 2279W        W 6023   3.178   1.356   1.225  0.2656  0.0999 -0.2084
 2280W        W 6024   3.637   4.543   2.305 -0.0787  0.0113 -0.0766
 2281W        W 6025   1.009   2.548  11.399  0.3671 -0.0111 -0.0545
 2282W        W 6026   6.506   3.950  11.990  0.3827 -0.0548 -0.3271
 2283W        W 6027   8.195   1.687   8.817 -0.1977  0.1729  0.6572
 2284W        W 6028   5.054   7.051   0.093 -0.0649  0.0635 -0.0368
 2285W        W 6029   4.500   6.311   9.953 -0.0581  0.0930 -0.0179
 2286W        W 6030   4.315   9.938   8.157 -0.2197  0.1161 -0.0700
 2287W        W 6031   1.354   0.144  10.907 -0.3004  0.1450  0.0437
 2288W        W 6032   5.783   7.234   9.513 -0.0467  0.0462  0.1351
 2289W        W 6033   3.562   3.597   9.151 -0.0477 -0.0267  0.1370
 2290W        W 6034   7.009   1.347   3.262  0.0116  0.0625 -0.0200
 2291W        W 6035   3.514   5.265  12.457 -0.2008 -0.1944  0.0003
 2292W        W 6036   7.608   6.031   3.924 -0.4253 -0.3479  0.0033
 2293W        W 6037   8.291   8.793   2.732  0.1671  0.0344 -0.0717
 2294W        W 6038   8.132   2.222   8.983 -0.2006  0.0147 -0.0328
 2295W        W 6039   1.385   9.101   9.473  0.0460 -0.0699 -0.0621
 2296W        W 6040   0.304   5.769   9.710  0.2458 -0.1129 -0.1072
 2297W        W 6041   8.703   0.212   1.012  0.3758  0.4833  0.3212
 2298W        W 6042   8.384   2.182   2.402  0.0492 -0.0039 -0.1265
 2299W        W 6043   8.455   1.012   1.381 -0.0714  0.2258 -0.0108
 2300W        W 6044   4.999   2.810  12.495 -0.1134 -0.1108 -0.0364
 2301W        W 6045   6.239   8.149   2.167 -0.2339 -0.2646  0.0201
 2302W        W 6046   6.610   5.074  11.339 -0.0697  0.2943 -0.2805
 2303W        W 6047   5.389   1.706   4.122 -0.1008 -0.1265 -0.1637
 2304W        W 6048   4.738   2.047   0.437  0.1643 -0.1919  0.0217
 2305W        W 6049   4.427   6.717   3.602 -0.1179 -0.1867  0.2441
 2306W        W 6050   4.499   9.055   8.063 -0.0604  0.2254 -0.0764
 2307W        W 6051   3.522   3.439  11.355  0.0836  0.0977 -0.1642
 2308W        W 6052   5.190   8.956   0.181  0.1060  0.1055 -0.2745
 2309W        W 6053   3.119   9.209  11.155 -0.2234  0.1019 -0.3833
 2310W        W 6054   7.947   2.424   2.332 -0.1160  0.3140  0.2039
 2311W        W 6055   6.872   3.756  10.685  0.1149  0.1171 -0.1122
 2312W        W 6056   3.677   7.207   3.538  0.0892  0.2047 -0.1268
 2313W        W 6057   6.712   0.475   9.179 -0.2810 -0.0513  0.3171
 2314W        W 6058   5.605   8.677   0.810 -0.0423  0.0178 -0.0608
 2315W        W 6059   9.157   5.415  12.037  0.2222  0.3577 -0.0592
 2316W        W 6060   4.116   5.598   2.865 -0.5295 -0.2203  0.0613
 2317W        W 6061   1.743   9.071   0.447  0.0698 -0.1300  0.2635
 2318W        W 6062   8.135   3.706  12.397 -0.3095 -0.0092  0.2007
 2319W        W 6063   6.922   3.379  10.367  0.0556 -0.1186 -0.2510
 2320W        W 6064   6.253   0.565  10.672 -0.3019 -0.0348 -0.2071
 2321W        W 6065   4.846   0.186  10.533  0.1323 -0.1445  0.0506
 2322W        W 6066   4.477   1.180  11.666 -0.0820 -0.2963 -0.1492
 2323W        W 6067   5.344   8.908  11.657  0.0962  0.3130 -0.0041
 2324W        W 6068   7.266   8.698   0.204  0.2995  0.2285 -0.0011
 2325W        W 6069   2.885   7.527   7.943 -0.0060 -0.0769  0.1553
 2326W        W 6070   4.994   5.549   4.371 -0.1868  0.1277  0.0145
 2327W        W 6071   8.485   2.330  11.616 -0.2205  0.2282  0.1380
 2328W        W 6072   9.969   3.388   8.787  0.0653  0.0391 -0.1529
 2329W        W 6073   4.666   7.693   1.384 -0.1636  0.0759 -0.0706
 2330W        W 6074   4.865   7.407   0.557 -0.0101  0.1945  0.1000
 2331W        W 6075   0.977   0.060   2.659 -0.0871 -0.1039  0.0090
 2332W        W 6076   7.882   7.485   3.173 -0.3345  0.2572 -0.1572
 2333W        W 6077   0.495   0.012  11.505 -0.0601 -0.1032  0.1026
 2334W        W 6078   5.867   3.958   2.737  0.1164 -0.2396 -0.1501
 2335W        W 6079   1.551   2.224   8.974 -0.2735 -0.2896  0.2434
 2336W        W 6080   4.707   9.579   1.459  0.0355  0.0379  0.2044
 2337W        W 6081   1.665   6.598  11.486  0.2228  0.0211 -0.1225
 2338W        W 6082   1.270   9.274   0.445 -0.0121  0.0266 -0.0269
 2339W        W 6083   8.723   5.493  11.156  0.2775 -0.1981 -0.0610
 2340W        W 6084   4.510   9.892   4.727  0.1033 -0.3579  0.1440
 2341W        W 6085   9.923   2.342   8.600  0.0876  0.0227  0.0195
 2342W        W 6086   4.317   3.213   8.456  0.0017 -0.0124  0.1241
 2343W        W 6087   2.171   5.954  11.736 -0.0697 -0.0210  0.1488
 2344W        W 6088   0.221   5.772   2.408 -0.0008  0.0779 -0.0139
 2345W        W 6089   2.373   9.816   3.655  0.1098 -0.1148 -0.0956
 2346W        W 6090   2.345   5.411   0.024 -0.0407 -0.3491  0.0822
 2347W        W 6091   5.894   2.230   8.771 -0.0631 -0.2022 -0.2515
 2348W        W 6092   6.499   4.596  11.360 -0.0155 -0.0290 -0.0442
 2349W        W 6093   6.949   5.381   9.622  0.2337  0.3476 -0.0217
 2350W        W 6094   2.296   1.531   8.576 -0.1252  0.1561 -0.1588
 2351W        W 6095   8.151   3.838  11.917 -0.1328 -0.0207  0.1236
 2352W        W 6096   0.249   4.538   2.790 -0.0111  0.1061 -0.1084
 2353W        W 6097   3.840   1.499   4.473  0.4357 -0.1300  0.0787
 2354W        W 6098   2.676   2.940   8.500 -0.0811 -0.0481 -0.2076
 2355W        W 6099   3.878   3.460   8.368  0.2086  0.2515  0.0056
 2356W        W 6100   0.394   8.856  10.003 -0.0957 -0.2768 -0.1199
 2357W        W 6101   2.598   8.533  12.271 -0.5963  0.0130 -0.1715
 2358W        W 6102   4.116   0.622  10.651 -0.0014 -0.0735 -0.1949
 2359W        W 6103   7.695   4.813   0.821 -0.0884 -0.0784 -0.0031
 2360W        W 6104   7.764   0.856   1.840 -0.0807  0.2018 -0.1186
 2361W        W 6105   0.769   3.341   8.624 -0.0420 -0.3224 -0.1327
 2362W        W 6106   6.865   3.037   8.693 -0.2779 -0.0329  0.3637
 2363W        W 6107   9.236   0.151   3.236 -0.0963 -0.0219 -0.1666
 2364W        W 6108   0.957   8.688   4.451 -0.0689  0.0328  0.0927
 2365W        W 6109   8.114   6.331  10.161  0.2005 -0.3058  0.2542
 2366W        W 6110   9.298   1.060   3.123 -0.4116 -0.2948 -0.0634
 2367W        W 6111   9.805   5.614   1.283  0.0240 -0.0903 -0.2040
 2368W        W 6112   5.119   7.854  11.461 -0.1118 -0.1245  0.1388
 2369W        W 6113   6.925   9.702   1.303 -0.2717 -0.0545  0.2866
 2370W        W 6114   4.810   3.621   0.155 -0.0540 -0.1956 -0.0245
 2371W        W 6115   1.337   9.302   2.753  0.1894  0.1870 -0.1510
 2372W        W 6116   7.301   0.222  10.223  0.0962  0.0008  0.1416
 2373W        W 6117   6.190   2.734   3.626  0.3374  0.0234 -0.3723
 2374W        W 6118   1.210   4.237   3.856  0.0949 -0.0654 -0.0355
 2375W        W 6119   9.680   0.436   2.070  0.0677  0.2087 -0.5086
 2376W        W 6120   3.668   4.405   8.106 -0.0751  0.1347 -0.0562
 2377W        W 6121   5.199   3.113  11.040 -0.0902 -0.2422 -0.2135
 2378W        W 6122   7.131   6.598   2.758  0.1058  0.0306 -0.0304
 2379W        W 6123   5.009   7.555   3.867  0.0004 -0.0514  0.0248
 2380W        W 6124   7.818   5.377   9.715  0.2144  0.1627  0.2802
 2381W        W 6125   9.441   7.369   3.502 -0.3063  0.1327  0.0513
 2382W        W 6126   8.223   3.437   3.573  0.0224 -0.4196 -0.0283
 2383W        W 6127   4.346   6.519  12.290  0.0053  0.2025 -0.2212
 2384W        W 6128   7.682   4.649   8.857 -0.3922  0.2043 -0.1673
 2385W        W 6129   7.759   3.256   0.623  0.1435 -0.1723 -0.1694
 2386W        W 6130   9.101   3.121   3.120 -0.0341 -0.4965 -0.1465
 2387W        W 6131   2.600   3.194   2.948  0.0119 -0.1896 -0.1435
 2388W        W 6132   8.928   4.820  10.626  0.0303 -0.1889  0.0419
 2389W        W 6133   0.241   5.311   2.727 -0.0237 -0.1288 -0.0360
 2390W        W 6134   3.154   5.249   3.769  0.1435 -0.2703  0.3901
 2391W        W 6135   4.538   6.479   0.671  0.2473  0.1732  0.0122
 2392W        W 6136   8.590   2.079  12.050 -0.0549  0.0594  0.2106
 2393W        W 6137   3.943   5.590   9.276 -0.0122  0.1487  0.2308
 2394W        W 6138   1.455   0.174   2.798 -0.1107  0.3577 -0.1621
 2395W        W 6139   0.086   0.737   9.040 -0.1941  0.0717  0.4278
 2396W        W 6140   0.974   0.617   0.846  0.1896  0.0929  0.3325
 2397W        W 6141   5.423   7.613  10.439  0.2338 -0.5248 -0.1793
 2398W        W 6142   3.240   9.696   2.232  0.0099  0.1993  0.3515
 2399W        W 6143   0.119   1.313  11.240 -0.1845  0.0645 -0.1024
 2400W        W 6144   5.509   6.421   3.394 -0.2173 -0.1110  0.1728
 2401W        W 6145   1.370   4.464   8.802 -0.0828 -0.0293 -0.0458
 2402W        W 6146   0.167   0.003  11.889 -0.1848 -0.1859 -0.0991
 2403W        W 6147   8.027   3.871  10.609 -0.1238  0.0438  0.1034
 2404W        W 6148   1.859   5.762   2.885  0.1188 -0.1765 -0.0277
 2405W        W 6149   4.142   0.823   0.631  0.0297 -0.1033 -0.1966
 2406W        W 6150   4.974   2.354   0.897  0.0985  0.1940  0.2907
 2407W        W 6151   6.299   7.154   2.263 -0.0306 -0.1136 -0.1417
 2408W        W 6152   9.079   3.584   1.620  0.3034  0.0877  0.3327
 2409W        W 6153   0.992   9.227   0.010 -0.0454 -0.3657  0.1719
 2410W        W 6154   2.887   1.832  12.483  0.0741  0.0191 -0.2029
 2411W        W 6155   3.382   4.404  11.786  0.2040 -0.2544 -0.1432
 2412W        W 6156   9.938   1.076   0.101  0.2578 -0.1503 -0.0474
 2413W        W 6157   4.490   5.116   3.202 -0.1367  0.1614  0.2846
 2414W        W 6158   5.667   8.174   2.067 -0.1929 -0.1164 -0.2981
 2415W        W 6159   9.105   1.598   1.021  0.0995  0.5129  0.2151
 2416W        W 6160   2.102   8.181   9.584 -0.0355 -0.0141 -0.1678
 2417W        W 6161   6.113   0.779   3.445 -0.0539 -0.0986  0.0145
 2418W        W 6162   2.908   0.947   1.357  0.0134 -0.4045 -0.5508
 2419W        W 6163   4.167   4.997  10.545 -0.0058  0.4147  0.1603
 2420W        W 6164   4.596   4.690   1.834 -0.0447  0.0586  0.2933
 2421W        W 6165   7.342   6.062  10.149 -0.1889 -0.2864  0.0985
 2422W        W 6166   5.110   6.134   1.644  0.1632  0.1735 -0.2555
 2423W        W 6167   7.924   3.003   3.568 -0.4195  0.1451 -0.2434
 2424W        W 6168   2.804   5.787   0.202  0.3129  0.2088  0.0262
 2425W        W 6169   1.104   6.324   9.859 -0.0442 -0.1315 -0.1958
 2426W        W 6170   7.701   6.498   3.721  0.1140  0.0450 -0.1298
 2427W        W 6171   0.177   2.451   4.054 -0.0128  0.1185  0.0496
 2428W        W 6172   3.853   7.782   0.040 -0.1973 -0.2982  0.4206
 2429W        W 6173   3.230   1.688   4.411 -0.2000  0.0068 -0.0516
 2430W        W 6174   6.351   6.137   8.760  0.2012 -0.0207  0.5836
 2431W        W 6175   8.522   3.210   8.976 -0.0397  0.0677  0.0361
 2432W        W 6176   4.945   8.533  11.203  0.2013 -0.0190  0.0638
 2433W        W 6177   5.313   5.891   2.077  0.1270  0.0827 -0.0380
 2434W        W 6178   1.914   4.520  11.891 -0.1623 -0.1576  0.2230
 2435W        W 6179   5.784   2.227  10.100 -0.2568  0.3040 -0.1265
 2436W        W 6180   2.057   0.742   0.234 -0.0451  0.4082 -0.0514
 2437W        W 6181   8.930   5.580  10.639  0.1361 -0.1136 -0.0269
 2438W        W 6182   6.780   6.814   3.565  0.2196  0.0274 -0.2294
 2439W        W 6183   4.121   4.763   2.134 -0.1677 -0.0426  0.3412
 2440W        W 6184   7.623   8.918   0.536 -0.1970  0.3247  0.3861
 2441W        W 6185   5.012   8.504   3.057  0.1125 -0.0407 -0.2833
 2442W        W 6186   9.549   5.759  11.638 -0.3960  0.1385  0.2236
 2443W        W 6187   6.586   7.055   0.422 -0.1809  0.2664  0.0293
 2444W        W 6188   3.215   7.266   9.956 -0.1428  0.2178  0.0988
 2445W        W 6189   1.788   5.736   8.907 -0.1957 -0.0596  0.0655
 2446W        W 6190   0.727   9.854   9.625 -0.0818  0.0473 -0.2476
 2447W        W 6191   9.902   8.139   3.271 -0.0365  0.1969  0.1930
 2448W        W 6192   8.760   1.845   3.097 -0.0233  0.1476  0.1489
 2449W        W 6193   0.322   8.320   3.004 -0.0021 -0.0120  0.0269
 2450W        W 6194   0.487   0.461   8.952 -0.2221 -0.0364  0.0228
 2451W        W 6195   8.592   0.806  10.656 -0.0301  0.0999 -0.2166
 2452W        W 6196   8.300   2.653   2.782 -0.1870 -0.0556 -0.1443
 2453W        W 6197   3.154   6.059  11.881  0.1662  0.0903  0.1833
 2454W        W 6198   3.440   8.422   0.195  0.0316  0.0586 -0.1502
 2455W        W 6199   4.509   5.023  10.964  0.3082  0.0476 -0.4388
 2456W        W 6200   6.356   3.966   9.312  0.0441  0.0865 -0.0676
 2457W        W 6201   0.548   0.944   9.100  0.2157 -0.0059  0.4235
 2458W        W 6202   5.816   3.750   8.542  0.0298  0.1142 -0.1011
 2459W        W 6203   9.794   3.659  12.446  0.3705  0.1092  0.1325
 2460W        W 6204   1.746   2.819   0.029  0.1210 -0.1255 -0.1120
 2461W        W 6205   8.431   5.628   1.418  0.0211 -0.1157  0.1081
 2462W        W 6206   7.183   4.180  10.312 -0.0899 -0.0429 -0.0301
 2463W        W 6207   7.113   7.371   4.306  0.2126  0.1695  0.0314
 2464W        W 6208   3.839   1.521   8.851 -0.0404 -0.0286 -0.4879
 2465W        W 6209   3.241   6.473   1.180 -0.2877  0.0806  0.1754
 2466W        W 6210   6.915   6.007  10.387  0.1579  0.1934  0.1763
 2467W        W 6211   1.894   1.904   8.768 -0.2411 -0.0933  0.1062
 2468W        W 6212   3.564   2.394   2.714 -0.0419 -0.0451  0.0461
 2469W        W 6213   7.841   7.237  12.336 -0.0125  0.3936 -0.0326
 2470W        W 6214   3.296   8.972   9.452  0.4786  0.0049  0.1480
 2471W        W 6215   8.965   6.052  10.328  0.0486  0.1684  0.0000
 2472W        W 6216   5.783   1.741  12.222 -0.1145  0.0918  0.2359
 2473W        W 6217   1.346   3.250   9.101 -0.2142 -0.0217 -0.1953
 2474W        W 6218   8.470   8.851   3.207 -0.1108 -0.0438  0.1146
 2475W        W 6219   1.443   3.624  10.795  0.0842 -0.2938  0.0669
 2476W        W 6220   6.483   1.450   3.222  0.0347 -0.1061 -0.1629
 2477W        W 6221   6.922   1.888   2.869 -0.1311 -0.0635 -0.1210
 2478W        W 6222   8.199   7.524   1.332  0.1471  0.1277  0.0763
 2479W        W 6223   5.947   0.969   3.882  0.2541 -0.1640 -0.0899
 2480W        W 6224   8.561   5.093  10.241  0.2029 -0.4203 -0.0378
 2481W        W 6225   1.666   7.872   1.075 -0.1126  0.2428  0.0286
 2482W        W 6226   3.739   2.015   1.825 -0.0285  0.0048 -0.1324
 2483W        W 6227   0.577   0.946   2.092  0.1036  0.3867  0.1404
 2484W        W 6228   5.409   4.770  10.728  0.2356 -0.6248 -0.2234
 2485W        W 6229   4.378   2.972   0.547 -0.3027 -0.1568  0.2800
 2486W        W 6230   1.122   6.597   2.047  0.0470 -0.1400  0.0378
 2487W        W 6231   3.514   1.787   9.913 -0.0976  0.0221 -0.1118
 2488W        W 6232   5.314   8.179   9.225  0.1538  0.1170 -0.0172
 2489W        W 6233   7.618   2.583  12.381  0.0854  0.1770 -0.1081
 2490W        W 6234   5.742   0.158   0.139  0.1988  0.0068  0.0289
 2491W        W 6235   5.158   8.430  12.655 -0.2787  0.3031  0.0911
 2492W        W 6236   5.830   0.469   3.648  0.3059  0.1693 -0.0323
 2493W        W 6237   8.663   8.859   3.673 -0.0632 -0.1405  0.1368
 2494W        W 6238   0.055   9.146   1.771  0.0206 -0.0200  0.1979
 2495W        W 6239   7.119   8.728  11.152 -0.5231  0.2387  0.1360
 2496W        W 6240   6.124   0.292   1.467  0.1153 -0.1575  0.1907
 2497W        W 6241   7.289   3.091  11.027  0.0200  0.2196 -0.2110
 2498W        W 6242   8.704   4.012   9.992  0.4191 -0.1180  0.0777
 2499W        W 6243   1.173   8.453  11.673  0.0730  0.2154 -0.1673
 2500W        W 6244   7.661   1.363  12.157  0.2256 -0.2605  0.1163
 2501W        W 6245   9.947   3.181   2.547  0.0044  0.2205 -0.2751
 2502W        W 6246   6.395   8.719   9.218  0.1390  0.3064  0.2909
 2503W        W 6247   6.194   1.886   1.825 -0.0144  0.0370  0.4798
 2504W        W 6248   0.237   6.623   9.070  0.0980 -0.1123 -0.4190
 2505W        W 6249   9.479   0.676   9.703 -0.3077 -0.2510  0.1266
 2506W        W 6250   4.123   9.704   2.134 -0.2276 -0.0114  0.3773
 2507W        W 6251   5.438   2.598  12.428  0.1876 -0.0629  0.0142
 2508W        W 6252   9.692   1.964   9.559  0.0833  0.3167  0.4064
 2509W        W 6253   5.073   1.290  10.605 -0.1681 -0.1106  0.0347
 2510W        W 6254   4.992   9.591   2.151 -0.0787 -0.1087  0.1475
 2511W        W 6255   1.908   3.168  12.464 -0.0032 -0.0835 -0.3589
 2512W        W 6256   3.119   9.741  11.648 -0.0980 -0.1240  0.2244
 2513W        W 6257   1.633   8.743   9.715 -0.0609 -0.0220 -0.0536
 2514W        W 6258   4.805   8.302   2.200  0.1091 -0.0102 -0.0431
 2515W        W 6259   3.097   2.148  11.729  0.0367 -0.1801  0.1536
 2516W        W 6260   4.427   5.775  10.873  0.0763 -0.0324  0.0999
 2517W        W 6261   1.728   7.509   0.729 -0.2972  0.1249 -0.0769
 2518W        W 6262   7.307   8.494  12.115 -0.1335 -0.1495  0.0646
 2519W        W 6263   2.519   9.317   1.600 -0.2795 -0.1613 -0.0730
 2520W        W 6264   5.414   2.755   3.104 -0.5224 -0.1588  0.0819
 2521W        W 6265   5.342   7.028  12.375 -0.0283  0.1368 -0.2590
 2522W        W 6266   0.815   4.969   9.452 -0.1545 -0.0605 -0.0510
 2523W        W 6267   5.013   0.147   3.321 -0.1294  0.0233 -0.2423
 2524W        W 6268   1.709   8.538  10.710 -0.0081 -0.1172 -0.0458
 2525W        W 6269   5.067   8.961  10.944 -0.1206  0.0739  0.0850
 2526W        W 6270   4.861   2.098   9.452  0.0538 -0.2352 -0.0695
 2527W        W 6271   1.679   9.055  12.133  0.1331 -0.0234 -0.1177
 2528W        W 6272   2.878   5.622   4.043 -0.4157  0.0071 -0.0447
 2529W        W 6273   2.417   6.582   1.658  0.3816 -0.0481 -0.0117
 2530W        W 6274   5.229   2.234   3.255  0.0068 -0.2554 -0.4803
 2531W        W 6275   9.156   2.924   0.685 -0.1951  0.0789  0.0635
 2532W        W 6276   4.787   9.220   0.446 -0.0772 -0.1461  0.0180
 2533W        W 6277   9.624   0.952  11.036 -0.1788 -0.0937 -0.1772
 2534W        W 6278   7.079   5.514  10.342 -0.0880  0.6451  0.0519
 2535W        W 6279   8.070   2.836   4.014  0.2127  0.1361  0.0647
 2536W        W 6280   5.771   8.873   3.086  0.0367  0.2510  0.1293
 2537W        W 6281   4.504   3.730  10.796  0.0715  0.1684  0.2128
 2538W        W 6282   7.379   7.521   1.494  0.3082  0.0319  0.5132
 2539W        W 6283   2.958   1.069   9.313  0.0986 -0.0317  0.0884
 2540W        W 6284   9.091   9.145  10.220 -0.2648  0.0760 -0.0870
 2541W        W 6285   4.224   3.031   3.776  0.1880  0.0864  0.0075
 2542W        W 6286   1.010   8.253   8.954  0.0725  0.0489  0.0108
 2543W        W 6287   1.178   8.365   0.686 -0.1377 -0.0692  0.3050
 2544W        W 6288   4.208   6.535   8.830 -0.0933 -0.0701  0.1749
 2545W        W 6289   2.607   3.147   9.799  0.1848 -0.0603  0.2689
 2546W        W 6290   2.674   1.153   4.835 -0.0068  0.2063  0.1478
 2547W        W 6291   0.009   3.917  12.028  0.1649  0.2026 -0.5316
 2548W        W 6292   5.298   4.363   2.174  0.2056  0.1688 -0.2408
 2549W        W 6293   8.957   7.287  11.657 -0.0523  0.2945 -0.1236
 2550W        W 6294   4.032   0.337   1.238  0.2782  0.1108 -0.0194
 2551W        W 6295   2.369   8.621   2.160  0.4022  0.0949 -0.0579
 2552W        W 6296   3.238   2.414   0.364  0.0824  0.1645  0.1832
 2553W        W 6297   5.835   8.754  12.056  0.0243 -0.3643 -0.1165
 2554W        W 6298   8.929   1.055   2.708 -0.1966  0.0123  0.2327
 2555W        W 6299   0.059   4.780  10.201  0.0006 -0.1948 -0.3768
 2556W        W 6300   7.226   2.277   1.335 -0.2459  0.1297 -0.0241
 2557W        W 6301   0.665   9.663   0.092  0.0243  0.2318  0.1445
 2558W        W 6302   9.099   2.124   1.059 -0.0515  0.0515  0.2289
 2559W        W 6303   2.757   1.418   0.440  0.0889  0.0700 -0.2732
 2560W        W 6304   8.694   8.320   9.759  0.0767  0.0471 -0.1176
 2561W        W 6305   3.536   9.684  10.913 -0.3280  0.0541 -0.1146
 2562W        W 6306   9.672   3.574   9.480  0.1051  0.3711 -0.2114
 2563W        W 6307   5.132   9.417   1.137 -0.0307 -0.2370 -0.3535
 2564W        W 6308   3.658   9.591   2.936 -0.0760 -0.0913  0.1623
 2565W        W 6309   8.265   4.339   4.809  0.1075  0.0342 -0.0709
 2566W        W 6310   4.395   4.395   2.366  0.1865 -0.0763 -0.0899
 2567W        W 6311   9.280   5.252   1.817 -0.0295  0.0023  0.2174
 2568W        W 6312   2.857   1.334  12.132  0.2467  0.1788  0.0681
 2569W        W 6313   0.797   4.065   9.864  0.1139 -0.1333 -0.0835
 2570W        W 6314   1.933   9.411  12.437 -0.2016  0.0791  0.2854
 2571W        W 6315   5.413   1.531  11.255  0.2178 -0.2468  0.3524
 2572W        W 6316   9.706   0.241   9.793 -0.1495  0.3223  0.1420
 2573W        W 6317   0.925   2.880  10.314 -0.1044  0.4950 -0.2064
 2574W        W 6318   8.786   8.708   9.416 -0.0785 -0.0436 -0.2452
 2575W        W 6319   5.742   0.078  10.067  0.1017 -0.0775  0.3534
 2576W        W 6320   5.923   7.847   1.230 -0.0464  0.0971 -0.2530
 2577W        W 6321   8.337   2.638  12.092  0.2541 -0.0877 -0.3267
 2578W        W 6322   6.590   9.017   2.779  0.0300 -0.1025  0.1942
 2579W        W 6323   5.944   5.809   8.610  0.0371 -0.2980 -0.0935
 2580W        W 6324   4.339   1.135  12.139 -0.0568 -0.2328 -0.3431
 2581W        W 6325   8.726   7.529   3.059  0.2035 -0.1765  0.1469
 2582W        W 6326   1.045   9.365   9.755 -0.1973  0.1565  0.2264
 2583W        W 6327   4.239   3.372  10.988 -0.0751  0.0512 -0.2597
 2584W        W 6328   9.527   9.306  11.477  0.0447  0.0236  0.1299
 2585W        W 6329   2.201   1.376   3.027  0.1694  0.3875 -0.0241
 2586W        W 6330   6.297   7.787  12.025 -0.1232 -0.2215 -0.0387
 2587W        W 6331   9.075   9.070  12.334  0.0671  0.1440  0.1020
 2588W        W 6332   3.949   6.289   1.705 -0.2860  0.1960  0.1426
 2589W        W 6333   0.169   5.104   0.014  0.0275  0.0428 -0.2520
 2590W        W 6334   5.215   7.256   4.251 -0.1292 -0.1297 -0.1117
 2591W        W 6335   9.746   9.958   9.320  0.1447  0.0127 -0.1381
 2592W        W 6336   1.011   2.205  10.805 -0.1444 -0.0225 -0.3072
 2593W        W 6337   3.602   0.460   2.617 -0.1324  0.0743  0.2973
 2594W        W 6338   8.862   2.677   1.120 -0.0248  0.2300 -0.2884
 2595W        W 6339   2.421   0.186  12.414 -0.2385  0.0783 -0.1745
 2596W        W 6340   1.504   3.691   2.749 -0.0199 -0.1534 -0.0383
 2597W        W 6341   4.364   1.781   3.094 -0.0957 -0.1217  0.0055
 2598W        W 6342   0.727   0.196   1.454  0.0866  0.2798  0.1762
 2599W        W 6343   2.172   2.713   1.624 -0.0232 -0.0195  0.1497
 2600W        W 6344   4.072   9.743   0.613 -0.3099  0.3276  0.2546
 2601W        W 6345   7.731   5.136   2.445 -0.4247  0.0496  0.1910
 2602W        W 6346   7.634   6.636   4.800  0.0424 -0.2430 -0.0586
 2603W        W 6347   8.070   5.257   1.516  0.1617 -0.0239  0.2679
 2604W        W 6348   8.702   6.936   2.979 -0.0152  0.3519  0.1526
 2605W        W 6349   7.820   0.378   0.818 -0.0517  0.3940  0.1990
 2606W        W 6350   4.278   9.340   0.362  0.3700 -0.0489 -0.1931
 2607W        W 6351   4.993   6.856   8.976 -0.4588  0.0189  0.0148
 2608W        W 6352   2.161   7.532   9.307  0.1265  0.1623  0.1682
 2609W        W 6353   2.893   2.012   4.427 -0.0774  0.0746 -0.1449
 2610W        W 6354   4.027   0.193  12.571  0.2488  0.3702  0.1313
 2611W        W 6355   7.628   0.897   9.081  0.3373  0.1111  0.2655
 2612W        W 6356   5.875   0.694  10.971 -0.1612 -0.1038 -0.3544
 2613W        W 6357   2.377   0.391   2.847 -0.0801  0.1335  0.0690
 2614W        W 6358   0.800   4.854  12.581  0.1522  0.3658  0.1688
 2615W        W 6359   5.395   4.818   4.925 -0.0486  0.1821  0.1229
 2616W        W 6360   1.971   7.107   0.553  0.3333 -0.1923 -0.1264
 2617W        W 6361   1.793   9.596   2.567 -0.3068  0.1961  0.1205
 2618W        W 6362   2.510   5.217   9.346 -0.1832 -0.1482 -0.0898
 2619W        W 6363   3.957   6.195  10.092 -0.1145 -0.1300  0.2879
 2620W        W 6364   4.377   4.515  10.961 -0.1982  0.0237  0.0114
 2621W        W 6365   5.466   6.874   3.645 -0.0446 -0.0781  0.1739
 2622W        W 6366   5.941   7.617   3.551  0.1570  0.0117  0.1650
 2623W        W 6367   7.764   0.089  10.024 -0.1405  0.0561 -0.0992
 2624W        W 6368   1.516   3.662  11.570 -0.1422 -0.0090  0.2665
 2625W        W 6369   9.527   7.195   8.540 -0.4036  0.2223  0.1789
 2626W        W 6370   8.061   1.709   3.295  0.1431 -0.0858  0.2188
 2627W        W 6371   6.639   9.073   1.118  0.2235 -0.2123 -0.0661
 2628W        W 6372   9.256   1.796   2.310 -0.0165  0.1022 -0.1903
 2629W        W 6373   8.208   3.617   9.624  0.0925  0.0324 -0.0917
 2630W        W 6374   1.028   5.019   2.364  0.0394  0.1449 -0.2703
 2631W        W 6375   9.476   3.253  11.596 -0.0377  0.1130 -0.1000
 2632W        W 6376   0.505   7.602  11.793 -0.3838  0.0778  0.2618
 2633W        W 6377   1.584   9.382   9.058  0.0966 -0.2861 -0.0887
 2634W        W 6378   5.647   3.448   9.797 -0.2748 -0.1068 -0.0283
 2635W        W 6379   1.908   9.407  10.470  0.2094  0.4342  0.1337
 2636W        W 6380   6.332   7.247  12.588  0.0175  0.1446 -0.2894
 2637W        W 6381   7.732   5.147  11.270 -0.1090  0.1865  0.1616
 2638W        W 6382   1.892   8.672  11.256 -0.5878 -0.1309  0.1092
 2639W        W 6383   3.636   8.545  10.602 -0.1264 -0.0029  0.0631
 2640W        W 6384   9.954   1.794   8.360 -0.0839 -0.1456 -0.0157
 2641W        W 6385   7.050   3.096   3.041  0.1636  0.1112 -0.0513
 2642W        W 6386   3.939   7.584   1.631 -0.3226 -0.2167  0.4823
 2643W        W 6387   0.672   3.649   2.813  0.0842 -0.1543 -0.0734
 2644W        W 6388   7.810   8.405   2.789  0.3289 -0.2579  0.0569
 2645W        W 6389   5.427   4.037   0.236  0.1511  0.1645  0.1144
 2646W        W 6390   4.784   4.335   1.519 -0.0571 -0.1039  0.2717
 2647W        W 6391   4.978   2.933   0.854 -0.3361  0.0561  0.0703
 2648W        W 6392   1.568   4.049  11.044  0.0644 -0.0247 -0.1837
 2649W        W 6393   3.888   8.999  10.617  0.0259 -0.2996 -0.1426
 2650W        W 6394   5.674   8.517  11.580  0.0385 -0.1590 -0.0924
 2651W        W 6395   4.934   0.820   0.855  0.2383  0.1351 -0.3310
 2652W        W 6396   2.300   3.508   3.138  0.3853  0.0813  0.2255
 2653W        W 6397   6.355   8.702  12.070  0.4965 -0.0475  0.0964
 2654W        W 6398   8.643   9.303  10.984  0.2481 -0.0173  0.0366
 2655W        W 6399   8.564   2.691  12.729  0.0452 -0.0813  0.1708
 2656W        W 6400   6.834   4.504   2.828  0.3060 -0.3121  0.1396
 2657W        W 6401   1.016   0.033   0.939  0.0110  0.0967  0.2806
 2658W        W 6402   1.974   7.176   2.960 -0.3462 -0.1621  0.4628
 2659W        W 6403   9.007   8.833  11.852 -0.0530 -0.0388  0.0101
 2660W        W 6404   9.491   0.504  10.246 -0.0737 -0.0787 -0.1483
 2661W        W 6405   7.358   6.274   1.480  0.1132  0.1369 -0.0778
 2662W        W 6406   0.915   5.470   1.063 -0.0017 -0.0899 -0.1119
 2663W        W 6407   3.840   3.598   2.442 -0.0212 -0.1438 -0.1260
 2664W        W 6408   2.154   7.926  11.764  0.0626  0.0882  0.0768
 2665W        W 6409   4.130   9.706   3.154 -0.0957 -0.1598  0.0789
 2666W        W 6410   4.265   6.322   1.301 -0.1555  0.2336 -0.1591
 2667W        W 6411   9.886   6.801   4.325 -0.0980 -0.3127  0.0752
 2668W        W 6412   1.614   4.445   9.592 -0.3562  0.0241  0.2235
 2669W        W 6413   4.375   1.618   8.208 -0.0451 -0.1260 -0.2004
 2670W        W 6414   6.885   6.427  11.442  0.2495 -0.1741 -0.0033
 2671W        W 6415   7.151   5.510   1.184  0.1969  0.1662  0.1521
 2672W        W 6416   4.655   0.585  11.908 -0.0004  0.2118  0.1880
 2673W        W 6417   8.167   4.406   0.762  0.0443 -0.1208  0.2303
 2674W        W 6418   0.471   8.399   1.818 -0.0276 -0.2783 -0.1390
 2675W        W 6419   7.335   6.169  11.461 -0.1998  0.1001 -0.1048
 2676W        W 6420   7.707   2.792   2.645  0.2536 -0.0508  0.1974
 2677W        W 6421   1.920   7.627   9.747  0.0380 -0.2133  0.1379
 2678W        W 6422   1.465   8.580   1.857 -0.0968  0.3112 -0.1443
 2679W        W 6423   3.312   0.130  10.849 -0.0154 -0.0313  0.0516
 2680W        W 6424   8.533   7.547  11.798 -0.1690  0.2632  0.1106
 2681W        W 6425   4.495   5.436   0.558  0.0088  0.1565 -0.0449
 2682W        W 6426   3.694   5.045   2.222  0.0571  0.3644 -0.1086
 2683W        W 6427   6.303   9.086   1.571  0.0848 -0.1504  0.1913
 2684W        W 6428   8.397   6.995   2.001 -0.0173 -0.1089 -0.0284
 2685W        W 6429   7.210   5.537   8.940 -0.0543 -0.2690  0.0942
 2686W        W 6430   7.881   7.494   3.728 -0.0850 -0.2540  0.1556
 2687W        W 6431   8.612   2.728   1.619  0.1079  0.0266  0.0973
 2688W        W 6432   2.797   9.947   2.130  0.1438 -0.0941 -0.1125
 2689W        W 6433   7.782   6.195   3.291  0.2858  0.2952 -0.1788
 2690W        W 6434   1.611   9.783   8.674 -0.2558 -0.0864  0.0054
 2691W        W 6435   4.949   1.413   1.429  0.1527 -0.0290  0.2227
 2692W        W 6436   8.658   3.128   0.862 -0.1435  0.1272  0.2866
 2693W        W 6437   3.792   4.905  12.711 -0.1332 -0.0346  0.0208
 2694W        W 6438   5.388   5.080   1.627 -0.3784 -0.2779 -0.3351
 2695W        W 6439   1.626   1.841  10.967 -0.0837  0.0155 -0.2238
 2696W        W 6440   8.916   6.726   0.576 -0.1719  0.0063 -0.1658
 2697W        W 6441   2.860   7.210   0.228  0.0076 -0.0422  0.3009
 2698W        W 6442   5.790   2.516   2.593 -0.0205  0.3208  0.0517
 2699W        W 6443   0.084   7.901  11.805  0.1546  0.1504 -0.1614
 2700W        W 6444   3.374   7.012   0.441  0.1832 -0.2101  0.1984
 2701W        W 6445   0.292   9.071   4.259 -0.2736 -0.0516 -0.2447
 2702W        W 6446   3.555   1.657   0.979  0.2772 -0.4006 -0.0424
 2703W        W 6447   6.440   8.382   8.820  0.0861  0.2101  0.1591
 2704W        W 6448   9.558   9.217   8.947 -0.0538  0.0586 -0.0514
 2705W        W 6449   3.432   9.800  12.612  0.3240  0.2263 -0.0235
 2706W        W 6450   4.845   8.583   1.702  0.0025  0.2091  0.0749
 2707W        W 6451   8.891   7.140   0.907 -0.0227 -0.2008 -0.1113
 2708W        W 6452   7.240   4.681   2.618 -0.2457  0.1553 -0.0003
 2709W        W 6453   5.793   9.081  11.699  0.0887 -0.0631 -0.0238
 2710W        W 6454   5.596   7.352   3.904  0.0142  0.0194  0.1126
 2711W        W 6455   2.186   0.300   2.383 -0.0712 -0.4056  0.0066
 2712W        W 6456   4.712   3.345   0.603  0.2658  0.0485  0.1970
 2713W        W 6457   6.900   3.062  11.619  0.1501 -0.2897  0.0346
 2714W        W 6458   5.799   7.273   0.884  0.0076 -0.0339  0.1275
 2715W        W 6459   0.840   1.975   0.733 -0.0150  0.2390  0.2781
 2716W        W 6460   1.480   4.630  10.078 -0.2604  0.0071 -0.0269
 2717W        W 6461   1.341   2.666   2.641 -0.0145  0.0798 -0.1805
 2718W        W 6462   7.920   5.809   9.461 -0.1242  0.3788  0.1154
 2719W        W 6463   9.526   6.662   2.538 -0.0697 -0.0647 -0.0783
 2720W        W 6464   0.653   3.681  11.294 -0.1933 -0.0744  0.0739
 2721W        W 6465   2.175   9.923  10.450  0.0981  0.0607  0.1343
 2722W        W 6466   9.881   6.560   0.924  0.0160  0.0130  0.3275
 2723W        W 6467   8.819   4.385   0.127 -0.0735  0.1090  0.1018
 2724W        W 6468   8.391   4.780   4.563 -0.0108 -0.4856 -0.0935
 2725W        W 6469   9.216   4.241  12.611 -0.0359  0.0959  0.3453
 2726W        W 6470   3.259   9.020  12.212  0.1881  0.1992  0.0662
 2727W        W 6471   9.076   5.088   8.942 -0.2269  0.3486  0.2445
 2728W        W 6472   2.951   1.830   5.270  0.0213  0.0957  0.0169
 2729W        W 6473   4.084   6.272   0.449  0.0592  0.1881  0.0828
 2730W        W 6474   6.572   8.169  10.960 -0.1272  0.3724  0.0126
 2731W        W 6475   6.222   2.517  10.742  0.1986 -0.0588 -0.1550
 2732W        W 6476   7.800   4.514   3.897 -0.0637  0.1477 -0.0621
 2733W        W 6477   6.130   6.574   3.782  0.1268 -0.2636 -0.0155
 2734W        W 6478   7.314   4.981   8.900 -0.4252 -0.1865 -0.0425
 2735W        W 6479   4.666   1.074   1.283 -0.2037  0.1143  0.1844
 2736W        W 6480   4.520   0.405  11.480  0.0160 -0.1958  0.2117
 2737W        W 6481   9.199   3.504   2.803 -0.0355 -0.1056 -0.1165
 2738W        W 6482   9.050   4.308   8.259  0.1778 -0.0982  0.1982
 2739W        W 6483   3.020   6.000  12.356 -0.1107 -0.2782 -0.0869
 2740W        W 6484   5.876   3.476   3.283 -0.4345 -0.0320  0.1584
 2741W        W 6485   6.262   0.860  11.243 -0.1962 -0.2118  0.2810
 2742W        W 6486   7.381   4.844   0.428  0.0891  0.0470 -0.1380
 2743W        W 6487   2.915   6.230   9.084  0.0762 -0.1794 -0.1456
 2744W        W 6488   7.498   0.508   2.117 -0.0696  0.1923 -0.0030
 2745W        W 6489   4.797   0.538  12.750  0.1528  0.0014 -0.0360
 2746W        W 6490   7.255   7.568  11.736  0.1718 -0.1410 -0.3776
 2747W        W 6491   5.487   7.748   9.007 -0.1132 -0.2279 -0.0096
 2748W        W 6492   8.817   6.189   3.668 -0.1975  0.1429  0.2056
 2749W        W 6493   3.790   7.955   8.995 -0.0712  0.1315  0.0605
 2750W        W 6494   4.495   9.131  11.217 -0.0276  0.2351 -0.0730
 2751W        W 6495   7.240   5.198   2.783  0.0337 -0.2483  0.1528
 2752W        W 6496   8.423   0.041  11.016 -0.3271 -0.0052  0.0483
 2753W        W 6497   8.397   4.199   1.712 -0.1172 -0.2048 -0.1541
 2754W        W 6498   1.229   2.661   4.176  0.1775 -0.0465 -0.1247
 2755W        W 6499   3.582   8.363   8.799  0.2674  0.0764 -0.2870
 2756W        W 6500   8.912   2.181   2.331 -0.4075 -0.0291  0.2673
 2757W        W 6501   4.025   6.454   2.930  0.2587 -0.0168 -0.3159
 2758W        W 6502   2.374   1.768   9.476  0.0008 -0.0487  0.0899
 2759W        W 6503   5.541   5.718   9.469 -0.5225 -0.1209  0.2808
 2760W        W 6504   4.940   2.243   2.590 -0.2686  0.1221 -0.2690
 2761W        W 6505   7.517   4.747   3.509 -0.1253 -0.2081 -0.0828
 2762W        W 6506   7.758   3.965   3.792  0.0354  0.0004 -0.1515
 2763W        W 6507   4.181   1.449   2.514  0.1671 -0.1749  0.1334
 2764W        W 6508   6.753   7.164   2.013  0.1654  0.2864  0.2215
 2765W        W 6509   4.852   9.425   8.366  0.3139  0.3856 -0.2039
 2766W        W 6510   9.019   8.830   0.507  0.0340 -0.0895  0.2727
 2767W        W 6511   9.753   4.944   0.980 -0.3445  0.0395  0.2731
 2768W        W 6512   5.180   6.362   0.290 -0.1138 -0.2524  0.3769
 2769W        W 6513   4.958   1.017   3.733 -0.1054  0.0181 -0.0889
 2770W        W 6514   0.616   5.078  10.872  0.0006 -0.1102 -0.1572
 2771W        W 6515   7.821   3.307  12.629  0.2197 -0.1195  0.2990
 2772W        W 6516   0.434   8.014   2.508  0.0173 -0.2883 -0.4068
 2773W        W 6517   0.387   7.026   1.592 -0.4413 -0.2230  0.0903
 2774W        W 6518   0.261   1.428  11.701 -0.1299  0.0424  0.0836
 2775W        W 6519   3.876   9.733  12.327 -0.0090  0.2493 -0.1760
 2776W        W 6520   5.782   5.448   1.997  0.0040 -0.1611 -0.0874
 2777W        W 6521   5.351   0.747  10.900 -0.0525 -0.0034  0.2800
 2778W        W 6522   5.529   3.611  12.664 -0.2062 -0.2228  0.1756
 2779W        W 6523   9.429   6.764   9.824 -0.1217 -0.3011 -0.2016
 2780W        W 6524   3.119   8.144   1.036  0.1933 -0.1421 -0.2139
 2781W        W 6525   6.377   9.227  11.479  0.0679 -0.4470  0.3601
 2782W        W 6526   2.762   9.109   8.814 -0.0915 -0.1673 -0.1053
 2783W        W 6527   0.463   5.928   3.304 -0.2898 -0.0300  0.0786
 2784W        W 6528   7.407   1.046  11.342 -0.4893 -0.1427 -0.3891
 2785W        W 6529   3.583   6.510   0.446  0.0165  0.0045  0.4930
 2786W        W 6530   0.846   5.328   2.849 -0.1526  0.2293 -0.0136
 2787W        W 6531   7.474   8.705  11.465 -0.0240  0.1761  0.0235
 2788W        W 6532   1.367   4.959  12.615  0.1311  0.1372  0.1361
 2789W        W 6533   2.104   6.322  12.525 -0.2508 -0.1626  0.3314
 2790W        W 6534   0.347   8.419   9.038 -0.2536 -0.0651  0.2996
 2791W        W 6535   6.334   6.493   9.641 -0.1844  0.3316  0.0634
 2792W        W 6536   7.737   3.246   8.194 -0.3003  0.2101  0.1152
 2793W        W 6537   0.634   5.303   2.395  0.0267  0.1890 -0.1719
 2794W        W 6538   0.786   7.243   3.086  0.0088  0.0506  0.0776
 2795W        W 6539   1.178   0.672  12.494  0.0512  0.1269  0.2707
 2796W        W 6540   6.314   3.260   3.247 -0.3184 -0.0649 -0.0893
 2797W        W 6541   4.160   9.392   4.104 -0.0648  0.1499 -0.0283
 2798W        W 6542   0.799   4.636   8.974  0.1301 -0.1815  0.1337
 2799W        W 6543   7.732   2.721   2.000 -0.0872 -0.2574 -0.2681
 2800W        W 6544   7.600   8.458  10.564 -0.0097  0.1129  0.0142
 2801W        W 6545   2.762   3.133   0.124 -0.2357 -0.1184 -0.1178
 2802W        W 6546   2.981   5.045   2.731  0.0700  0.2769 -0.3308
 2803W        W 6547   2.871   8.372   1.944  0.4973  0.0814  0.1128
 2804W        W 6548   6.092   4.639   3.479  0.1460 -0.0586 -0.0169
 2805W        W 6549   9.821   0.596  11.938  0.0685 -0.0130 -0.1066
 2806W        W 6550   2.692   6.721   2.570 -0.0987 -0.3588 -0.1238
 2807W        W 6551   5.497   5.216   0.676  0.0328 -0.0011 -0.2927
 2808W        W 6552   5.301   2.670   1.127  0.1375  0.0888  0.0722
 2809W        W 6553   9.881   5.151   3.553  0.1062 -0.1444 -0.0713
 2810W        W 6554   7.999   5.921   3.630  0.3256  0.1336  0.4446
 2811W        W 6555   4.267   8.056   1.535  0.0224  0.4134  0.1504
 2812W        W 6556   6.835   3.621   3.790  0.0658  0.0178 -0.1516
 2813W        W 6557   2.253   1.862   1.968 -0.0162  0.0292 -0.1670
 2814W        W 6558   4.783   2.396  12.744  0.0652  0.3388  0.0970
 2815W        W 6559   9.343   9.027   2.032 -0.0974  0.3225 -0.1201
 2816W        W 6560   8.652   8.259  10.315 -0.0567 -0.0386  0.0304
 2817W        W 6561   8.475   3.180   4.883  0.0714  0.0606  0.0673
 2818W        W 6562   4.398   1.636  11.396  0.0869 -0.2533  0.1722
 2819W        W 6563   1.215   6.354  11.690  0.1145 -0.1029  0.0413
 2820W        W 6564   0.050   2.946   2.075 -0.3873  0.0064 -0.1142
 2821W        W 6565   4.035   3.923  12.184  0.1087 -0.0920 -0.0596
 2822W        W 6566   8.346   0.989  11.112 -0.0320  0.1928 -0.0857
 2823W        W 6567   8.989   5.513   4.782  0.3352 -0.0108 -0.2715
 2824W        W 6568   7.916   7.289   8.657 -0.0041 -0.0418  0.3515
 2825W        W 6569   9.310   4.767   8.421 -0.2256 -0.4366 -0.0367
 2826W        W 6570   0.797   6.449   0.903  0.2182 -0.0746  0.1873
 2827W        W 6571   6.117   8.219  12.335  0.2320  0.1382 -0.0803
 2828W        W 6572   5.916   8.619   9.082  0.2051  0.1682  0.0191
 2829W        W 6573   3.539   0.837  12.584  0.2944 -0.0381 -0.1646
 2830W        W 6574   6.952   2.219   9.959  0.2125  0.0874  0.0048
 2831W        W 6575   9.477   4.981  11.130 -0.2620  0.0206 -0.4255
 2832W        W 6576   4.112   8.466   1.357  0.2260  0.0825 -0.2264
 2833W        W 6577   2.744   2.610   2.102  0.1383  0.0990  0.0641
 2834W        W 6578   9.943   3.557   0.614  0.2817  0.2553  0.2030
 2835W        W 6579   0.905   0.483  11.063  0.0809  0.2505  0.2351
 2836W        W 6580   8.068   7.872   2.122 -0.0578  0.2115 -0.0870
 2837W        W 6581   5.952   6.848  11.152 -0.1388  0.0640 -0.0373
 2838W        W 6582   3.038   7.618   2.571  0.3869 -0.0143  0.0922
 2839W        W 6583   8.190   8.217  10.705 -0.4034  0.0440  0.0210
 2840W        W 6584   8.712   3.582   1.253  0.1628 -0.0029 -0.0364
 2841W        W 6585   0.148   8.719   0.942  0.0345 -0.3208 -0.1125
 2842W        W 6586   2.564   6.073   8.063  0.0118 -0.3004  0.0015
 2843W        W 6587   3.954   5.580  12.399  0.2540  0.2369 -0.0576
 2844W        W 6588   2.858   1.430   3.072 -0.2140  0.3235  0.2934
 2845W        W 6589   5.840   1.872   2.339 -0.1367  0.1539  0.3392
 2846W        W 6590   2.010   2.829  11.146  0.0249 -0.0562  0.1190
 2847W        W 6591   0.176   9.391  10.237  0.1876  0.1548 -0.4018
 2848W        W 6592   5.821   4.571   3.013  0.0834 -0.1309 -0.0917
 2849W        W 6593   1.808   2.354  11.211  0.0858 -0.1977 -0.2619
 2850W        W 6594   2.554   7.467   2.081  0.1661 -0.0523 -0.4379
 2851W        W 6595   1.411   9.248  11.711  0.4608  0.1128  0.2200
 2852W        W 6596   8.386   5.275   4.680 -0.2558  0.4146 -0.0475
 2853W        W 6597   2.663   9.938  10.373 -0.1512 -0.2625  0.3194
 2854W        W 6598   1.176   6.489   3.173 -0.0462  0.3243 -0.0462
 2855W        W 6599   7.339   5.216   3.764  0.1057  0.0797 -0.4876
 2856W        W 6600   8.547   1.728   0.656  0.3625 -0.1421 -0.4834
 2857W        W 6601   2.704   9.550  10.700  0.4564  0.1531  0.1814
 2858W        W 6602   8.281   7.541   2.716 -0.2208  0.0341 -0.1768
 2859W        W 6603   0.595   3.902  11.743 -0.0937 -0.2089  0.1449
 2860W        W 6604   9.708   9.094  12.361  0.2627  0.1706  0.1149
 2861W        W 6605   2.128   8.422  10.494  0.0034 -0.1336  0.2857
 2862W        W 6606   4.373   9.438   8.407  0.1288 -0.1067  0.0494
 2863W        W 6607   8.407   3.279   4.011 -0.4148  0.1073 -0.1138
 2864W        W 6608   8.762   7.973  11.727  0.0987  0.1852  0.0292
 2865W        W 6609   3.162   7.213   8.813  0.1119  0.1075 -0.1602
 2866W        W 6610   7.469   1.341   1.793 -0.1784  0.0580  0.1395
 2867W        W 6611   3.703   4.777  10.329  0.1397  0.1184  0.0570
 2868W        W 6612   3.160   4.178   2.122  0.3034  0.3841  0.0354
 2869W        W 6613   0.564   3.335   3.776  0.2868 -0.3730 -0.1554
 2870W        W 6614   1.508   1.912   3.168 -0.1171  0.0068 -0.0034
 2871W        W 6615   1.629   5.114   8.973 -0.1387 -0.1567 -0.2110
 2872W        W 6616   2.208   5.549   9.620  0.1245 -0.1044 -0.0231
 2873W        W 6617   8.300   8.684   1.256  0.0982 -0.1457 -0.2155
 2874W        W 6618   4.660   5.264   9.463  0.0541 -0.0902  0.1940
 2875W        W 6619   1.142   3.561   0.342 -0.0331  0.0583 -0.0568
 2876W        W 6620   5.494   8.204   0.237  0.0885 -0.1340  0.5142
 2877W        W 6621   2.963   4.627  11.895 -0.2376 -0.1543  0.0287
 2878W        W 6622   8.419   5.186   8.766  0.0675 -0.0364  0.0375
 2879W        W 6623   0.987   2.661   8.181 -0.0059  0.2232 -0.3236
 2880W        W 6624   0.220   7.824   2.003  0.2163  0.3278 -0.1306
 2881W        W 6625   2.626   9.522   3.942 -0.2131 -0.0825 -0.3156
 2882W        W 6626   8.764   8.998   0.067 -0.0564 -0.2446 -0.0520
 2883W        W 6627   8.528   3.747   2.659  0.3574  0.0858 -0.3843
 2884W        W 6628   6.464   0.394   0.627 -0.0394  0.0274 -0.0161
 2885W        W 6629   8.487   0.751  10.107  0.0652  0.5079  0.2407
 2886W        W 6630   2.472   4.588   1.072 -0.1370  0.5486 -0.0292
 2887W        W 6631   1.573   0.010   1.844 -0.0475  0.2187  0.2026
 2888W        W 6632   4.230   7.311   9.250  0.0533  0.0560 -0.0665
 2889W        W 6633   3.133   3.126   3.034 -0.0843 -0.0403  0.3685
 2890W        W 6634   6.770   4.723   1.566  0.0496 -0.2009  0.0008
 2891W        W 6635   0.156   3.147  10.771 -0.0563 -0.4525  0.4768
 2892W        W 6636   4.708   3.431   9.457  0.2444 -0.0569 -0.0892
 2893W        W 6637   2.306   7.036   2.499 -0.0130 -0.1742  0.0887
 2894W        W 6638   2.144   2.856  12.157  0.1551 -0.0359 -0.2229
 2895W        W 6639   2.507   0.233   9.941  0.0042 -0.0539 -0.3007
 2896W        W 6640   0.840   3.403  12.735 -0.1400  0.0258  0.0188
 2897W        W 6641   4.946   3.538   1.930  0.2767  0.0075  0.0823
 2898W        W 6642   0.435   4.962   3.146 -0.0481  0.0094 -0.0575
 2899W        W 6643   1.356   8.283   1.416 -0.0241  0.1982  0.2181
 2900W        W 6644   6.396   1.556  10.124 -0.7638  0.0604  0.2096
 2901W        W 6645   5.476   7.799   8.529 -0.1070  0.1939  0.0048
 2902W        W 6646   2.230   0.344   1.831  0.0631  0.2918 -0.1677
 2903W        W 6647   7.489   4.406  11.559  0.0743  0.1585  0.3141
 2904W        W 6648   3.096   1.743   0.740 -0.0790 -0.3010  0.2143
 2905W        W 6649   4.120   5.642   2.316 -0.0866  0.4427 -0.5014
 2906W        W 6650   2.813   0.904  12.412  0.1794 -0.1495  0.0111
 2907W        W 6651   7.667   5.337   1.841 -0.0573 -0.0575  0.1914
 2908W        W 6652   2.639   7.929   2.557  0.4149 -0.0798 -0.4444
 2909W        W 6653   1.567   0.520  10.656  0.2476 -0.0775 -0.0017
 2910W        W 6654   9.537   1.079   0.514 -0.0978  0.1720 -0.0095
 2911W        W 6655   5.366   3.252   1.125 -0.1696  0.1596  0.0099
 2912W        W 6656   9.866   2.732  10.063  0.1938  0.2747 -0.1313
 2913W        W 6657   9.304   3.968  11.178 -0.2284  0.0949  0.1126
 2914W        W 6658   4.331   8.436   1.953  0.2576  0.1265 -0.1815
 2915W        W 6659   7.173   8.275   2.480 -0.4118 -0.2985  0.0083
 2916W        W 6660   4.684   2.764   1.901 -0.0813  0.0146 -0.1447
 2917W        W 6661   4.464   3.727   1.836 -0.0560 -0.3013 -0.0993
 2918W        W 6662   0.899   1.603   1.077 -0.1821 -0.0862  0.2019
 2919W        W 6663   9.519   3.579   3.205 -0.0350  0.0915 -0.2705
 2920W        W 6664   2.608   0.006   1.673 -0.3903 -0.0446 -0.1094
 2921W        W 6665   1.191   1.727  12.603  0.1465 -0.1421  0.0499
 2922W        W 6666   5.608   1.233   1.424 -0.1011 -0.0769  0.1346
 2923W        W 6667   6.538   0.941   9.044 -0.1119 -0.1189  0.0386
 2924W        W 6668   0.183   3.780  11.573  0.0861 -0.1630  0.3585
 2925W        W 6669   7.542   9.882   1.650  0.0567 -0.2754  0.2386
 2926W        W 6670   0.534   0.395   4.348  0.1978  0.0177 -0.0362
 2927W        W 6671   3.775   7.589  11.416  0.1465 -0.2849  0.0714
 2928W        W 6672   7.428   7.980   2.792 -0.0949  0.1574  0.2767
 2929W        W 6673   2.301   2.403  11.320  0.0751  0.2862  0.3430
 2930W        W 6674   8.098   7.350  11.714 -0.2496 -0.4282  0.0987
 2931W        W 6675   2.807   0.141   0.184 -0.2142 -0.3075 -0.2636
 2932W        W 6676   6.578   2.875  10.562 -0.0561 -0.0780  0.0692
 2933W        W 6677   1.119   7.565   3.993 -0.2123 -0.1173  0.0960
 2934W        W 6678   2.598   6.244  12.713  0.2106 -0.2177 -0.2819
 2935W        W 6679   3.654   5.053  10.746 -0.0251 -0.1999 -0.3587
 2936W        W 6680   5.726   9.143   0.531 -0.1822  0.2329 -0.0945
 2937W        W 6681   9.657   7.840   4.164  0.2001  0.0375 -0.3201
 2938W        W 6682   6.052   0.560  10.093 -0.2714  0.2746 -0.3058
 2939W        W 6683   9.834   7.095  10.425  0.0107 -0.1903  0.0775
 2940W        W 6684   2.530   3.302   2.357  0.0950  0.2825 -0.0325
 2941W        W 6685   5.279   2.626   2.610  0.1288 -0.0950 -0.2513
 2942W        W 6686   9.944   1.206   3.539 -0.0891  0.0431 -0.1729
 2943W        W 6687   5.760   9.649   0.323 -0.1645 -0.0467  0.2196
 2944W        W 6688   6.375   8.006   0.088  0.0864  0.1814 -0.2129
 2945W        W 6689   0.731   7.937   1.731 -0.1299  0.0741  0.0316
 2946W        W 6690   1.029   5.393   9.484  0.1768  0.1906 -0.0277
 2947W        W 6691   4.589   0.293   9.594 -0.1268  0.2167 -0.0548
 2948W        W 6692   0.543   4.029   8.882 -0.2761  0.0033  0.0824
 2949W        W 6693   3.274   3.005  11.254 -0.0326 -0.0428  0.3303
 2950W        W 6694   7.093   5.269  11.604  0.0107 -0.2191 -0.0813
 2951W        W 6695   8.620   4.771  12.596  0.3218 -0.0678  0.2119
 2952W        W 6696   6.448   1.994   2.367 -0.0008 -0.3884  0.0140
 2953W        W 6697   6.825   3.286  10.835  0.4943 -0.1102 -0.1710
 2954W        W 6698   8.247   1.204  10.621  0.1568 -0.2795 -0.3428
 2955W        W 6699   9.351   4.205   2.077  0.0312  0.0004  0.4763
 2956W        W 6700   2.704   1.567   2.166  0.2194  0.0341  0.1654
 2957W        W 6701   6.106   4.723   1.685  0.1208  0.1940 -0.1523
 2958W        W 6702   8.032   6.140   8.954 -0.2360  0.3013 -0.5036
 2959W        W 6703   0.551   4.693  10.448  0.0271 -0.0759  0.3517
 2960W        W 6704   8.135   2.335   4.050 -0.0801 -0.1471  0.0765
 2961W        W 6705   4.822   5.491  11.008 -0.2391 -0.0786 -0.0345
 2962W        W 6706   3.840   0.068   2.886 -0.1072 -0.2731 -0.0003
 2963W        W 6707   8.198   9.160  10.020 -0.0619 -0.0433 -0.3167
 2964W        W 6708   9.448   8.743  10.287 -0.1281 -0.1444 -0.2275
 2965W        W 6709   4.308   9.289  10.695  0.1009 -0.0846 -0.0149
 2966W        W 6710   6.063   2.011   2.773  0.0348 -0.4473 -0.1292
 2967W        W 6711   3.876   8.793  11.447 -0.1107  0.1237  0.1856
 2968W        W 6712   4.488   6.874   2.599  0.0863 -0.1772 -0.1601
 2969W        W 6713   5.683   4.642   0.057 -0.2049 -0.0092  0.0258
 2970W        W 6714   4.024   9.977   9.593  0.0761 -0.0833 -0.1112
 2971W        W 6715   8.069   1.608   0.659 -0.0388 -0.0577 -0.0244
 2972W        W 6716   0.262   2.208  11.257 -0.0945 -0.0340  0.2228
 2973W        W 6717   0.520   9.034   0.025 -0.2564 -0.0812 -0.1594
 2974W        W 6718   9.029   7.175   3.188  0.0042 -0.0752 -0.0334
 2975W        W 6719   3.148   5.537  12.140 -0.2165  0.0249 -0.0996
 2976W        W 6720   1.362   1.458   2.327  0.1964  0.3003  0.0088
 2977W        W 6721   4.940   2.555   3.035 -0.1860  0.0556  0.1969
 2978W        W 6722   1.938   3.003   0.480  0.0995 -0.0785 -0.4384
 2979W        W 6723   2.430   3.669  12.616  0.1479 -0.1290  0.0622
 2980W        W 6724   8.974   7.162   9.210  0.2940 -0.1723 -0.1357
 2981W        W 6725   8.524   1.237  11.644 -0.1655  0.0234  0.0563
 2982W        W 6726   1.527   7.342   4.058 -0.3897 -0.1056  0.2348
 2983W        W 6727   2.670   3.569  10.130 -0.1559 -0.0720  0.0555
 2984W        W 6728   7.004   4.051   8.535 -0.0853  0.0665 -0.1323
 2985W        W 6729   1.012   2.033   8.768 -0.0784  0.2649  0.1568
 2986W        W 6730   4.363   1.773   2.002 -0.4972  0.1167 -0.2103
 2987W        W 6731   1.205   7.900   0.916 -0.0348 -0.0939  0.0801
 2988W        W 6732   7.060   5.629   4.058  0.3432 -0.0594  0.1944
 2989W        W 6733   0.542   1.950  10.938  0.0360 -0.3717  0.1524
 2990W        W 6734   7.765   7.148   9.250  0.2498 -0.2466  0.2105
 2991W        W 6735   2.587   9.232   9.861  0.2355 -0.0130 -0.0891
 2992W        W 6736   6.596   3.401   9.116  0.0818 -0.1041 -0.0839
 2993W        W 6737   5.133   6.097   8.861  0.1114 -0.1349  0.1734
 2994W        W 6738   0.295   3.401  12.134 -0.1761  0.0829 -0.1088
 2995W        W 6739   9.969   9.782  10.493 -0.1072  0.1785 -0.0688
 2996W        W 6740   0.434   5.614  10.346 -0.1232  0.2855 -0.0856
 2997W        W 6741   9.790   6.251   0.469  0.1515  0.1015 -0.0052
 2998W        W 6742   6.142   0.994   9.331 -0.2476 -0.1364 -0.0316
 2999W        W 6743   9.615   8.778   1.279 -0.0777 -0.2141 -0.1872
 3000W        W 6744   4.643   2.920   8.174  0.3573 -0.0012 -0.2117
 3001W        W 6745   2.596   5.300   3.695 -0.1418 -0.0662 -0.2062
 3002W        W 6746   2.948   7.549  12.500 -0.0063  0.0713  0.0700
 3003W        W 6747   2.231   4.831  11.579  0.1359 -0.2948  0.1271
 3004W        W 6748   0.263   8.868  11.715 -0.0646 -0.2415  0.1666
 3005W        W 6749   4.717   1.824   1.579 -0.4345 -0.0169 -0.0943
 3006W        W 6750   6.381   2.897   8.769 -0.0763  0.3608 -0.1870
 3007W        W 6751   7.054   6.383   8.659  0.1995 -0.1914  0.2238
 3008W        W 6752   4.188   6.181  11.312  0.0807  0.1235  0.1734
 3009W        W 6753   8.348   1.719   2.248 -0.1089 -0.2100  0.0746
 3010W        W 6754   4.862   2.096   3.564 -0.4327 -0.1129  0.0107
 3011W        W 6755   0.227   7.884   1.447  0.0485 -0.0555  0.0619
 3012W        W 6756   8.918   9.124   2.384  0.2581  0.2364 -0.2659
 3013W        W 6757   8.290   0.423   1.097 -0.3968  0.0024 -0.0332
 3014W        W 6758   1.739   7.050   8.845 -0.0908  0.0824 -0.1528
 3015W        W 6759   8.687   3.417   8.465 -0.0372 -0.0282 -0.0755
 3016W        W 6760   6.842   9.280  11.774  0.1177  0.0538 -0.2508
 3017W        W 6761   2.484   7.630  12.710  0.0507  0.1446  0.2224
 3018W        W 6762   7.300   2.971  12.518 -0.0886 -0.2104  0.3170
 3019W        W 6763   2.301   8.413  11.708  0.0215  0.2157 -0.2881
 3020W        W 6764   4.573   6.085   2.991 -0.1055  0.1146 -0.1409
 3021W        W 6765   8.645   1.379   2.898 -0.1765 -0.1285  0.0106
 3022W        W 6766   0.007   5.801   2.894  0.0200 -0.1093 -0.3636
 3023W        W 6767   2.716   1.752  10.313  0.3341 -0.0395 -0.0472
 3024W        W 6768   3.418   3.705   1.115 -0.1820 -0.2745 -0.3682
 3025W        W 6769   2.889   8.345  12.733  0.3253  0.2388  0.2595
 3026W        W 6770   1.774   6.196   3.205 -0.0098 -0.1191 -0.1138
 3027W        W 6771   9.437   6.056  10.036 -0.2695 -0.1419 -0.2520
 3028W        W 6772   1.908   9.113   9.474 -0.2878 -0.1685 -0.0222
 3029W        W 6773   6.523   7.538  10.554  0.2221  0.0655  0.2367
 3030W        W 6774   3.115   8.124   2.553  0.2570  0.0051  0.3282
 3031W        W 6775   7.743   9.180   1.660  0.1699  0.0829  0.1719
 3032W        W 6776   5.072   2.531   2.173  0.1511  0.0799 -0.0458
 3033W        W 6777   3.011   7.885   9.646  0.2604 -0.1740 -0.4498
 3034W        W 6778   9.572   9.194   1.583 -0.0832  0.2433  0.2100
 3035W        W 6779   3.035   3.580   1.807 -0.0213  0.0390 -0.0259
 3036W        W 6780   8.153   3.835   8.658 -0.3276  0.2619  0.0201
 3037W        W 6781   7.158   4.790  11.721 -0.2546 -0.2849 -0.1361
 3038W        W 6782   3.537   5.666   3.398 -0.0337 -0.0014  0.0887
 3039W        W 6783   9.102   5.262   0.112  0.3006  0.3034 -0.1057
 3040W        W 6784   2.281   2.941   1.190  0.4102 -0.3092 -0.4527
 3041W        W 6785   3.136   5.009   1.293 -0.0696 -0.0908 -0.1659
 3042W        W 6786   0.277   6.593  11.415 -0.1213 -0.1629  0.0417
 3043W        W 6787   2.742   5.518   0.670 -0.0859 -0.1652  0.1236
 3044W        W 6788   3.193   5.166   9.483 -0.4674  0.0189  0.2786
 3045W        W 6789   3.069   8.821   3.318  0.0733 -0.2970 -0.1128
 3046W        W 6790   4.863   5.962  12.201  0.1350  0.2750 -0.0239
 3047W        W 6791   9.934   1.030   2.558 -0.0448 -0.0144 -0.1885
 3048W        W 6792   8.610   2.935  10.192 -0.0938  0.0978 -0.1546
 3049W        W 6793   5.063   2.547   3.683 -0.0983  0.1115 -0.2727
 3050W        W 6794   7.395   0.899  11.822 -0.2245  0.0757  0.2429
 3051W        W 6795   8.471   1.009   2.380 -0.2745 -0.1212  0.0654
 3052W        W 6796   7.933   3.944   0.556 -0.0197 -0.1366  0.0812
 3053W        W 6797   5.875   6.576   7.921  0.2753 -0.1809 -0.3211
 3054W        W 6798   2.255   0.701  11.626 -0.0595  0.2710 -0.0116
 3055W        W 6799   5.246   0.083  10.301  0.1391 -0.0075  0.0699
 3056W        W 6800   0.807   4.220   1.481  0.1779  0.0706 -0.0785
 3057W        W 6801   8.849   4.358  11.132  0.0171 -0.2900 -0.0782
 3058W        W 6802   5.346   2.048   2.312 -0.0496  0.0261 -0.3416
 3059W        W 6803   4.857   6.679  10.071  0.0615  0.0808 -0.4121
 3060W        W 6804   2.003   5.095   0.290 -0.2399  0.1129 -0.1602
 3061W        W 6805   1.972   1.191  12.401  0.3196 -0.1227  0.0332
 3062W        W 6806   9.626   0.105  10.747  0.3818 -0.0512 -0.2660
 3063W        W 6807   0.699   3.085  11.356 -0.0234  0.1951  0.0210
 3064W        W 6808   7.119   0.623   1.780 -0.0945  0.1147  0.1256
 3065W        W 6809   1.760   6.131   0.067 -0.1244 -0.0234  0.2017
 3066W        W 6810   3.203   5.232   0.706 -0.0468 -0.0239 -0.2405
 3067W        W 6811   5.389   0.233   1.994  0.0384  0.2662  0.2779
 3068W        W 6812   8.115   4.334   8.709 -0.0178  0.0821 -0.1452
 3069W        W 6813   9.216   8.034   8.944  0.1190 -0.0389  0.0246
 3070W        W 6814   6.165   4.195  10.063  0.0982  0.0866  0.0459
 3071W        W 6815   9.376   7.538   0.127 -0.2918 -0.3488 -0.0244
 3072W        W 6816   6.217   1.969  12.063  0.0690 -0.0776 -0.2113
 3073W        W 6817   0.386   8.913   2.724 -0.2720 -0.3424 -0.1160
 3074W        W 6818   1.000   5.067   9.904  0.0392 -0.1284 -0.0024
 3075W        W 6819   1.727   7.474   3.242  0.2226 -0.1195 -0.3573
 3076W        W 6820   1.221   2.604  12.481  0.0599 -0.0517  0.0443
 3077W        W 6821   9.849   9.325   3.665 -0.0642  0.2473  0.2488
 3078W        W 6822   6.024   9.659  12.049 -0.1177 -0.1286  0.0797
 3079W        W 6823   6.236   7.929  11.527  0.0155 -0.3857  0.0893
 3080W        W 6824   6.068   4.389  10.989  0.1008  0.0595  0.0591
 3081W        W 6825   1.822   5.857   9.449 -0.1183 -0.3631 -0.1047
 3082W        W 6826   8.496   6.202  10.464  0.0719  0.1449  0.0462
 3083W        W 6827   2.176   0.205   0.479 -0.1049  0.4038  0.0103
 3084W        W 6828   5.056   3.767  10.750 -0.1894 -0.0723  0.3145
 3085W        W 6829   2.579   9.816   1.186 -0.0661 -0.0124 -0.1282
 3086W        W 6830   9.188   6.170   8.085 -0.1362  0.0809  0.1787
 3087W        W 6831   8.425   7.389   9.985  0.2153  0.2044 -0.2010
 3088W        W 6832   5.045   1.365   0.958  0.1139  0.0956  0.1429
 3089W        W 6833   1.134   7.122   0.734  0.1367 -0.1084 -0.0983
 3090W        W 6834   8.514   4.015   0.889  0.1444  0.2131 -0.3237
 3091W        W 6835   0.317   2.884  11.188  0.0268  0.1876  0.0660
 3092W        W 6836   2.691   0.187   4.531 -0.1030  0.1330 -0.1133
 3093W        W 6837   6.708   3.772   0.545 -0.2214  0.0593  0.0602
 3094W        W 6838   0.396   7.662   3.907 -0.2977 -0.2816  0.0895
 3095W        W 6839   9.188   3.608   4.365 -0.0877  0.0978 -0.0354
 3096W        W 6840   8.620   9.423  10.193 -0.0363  0.1737 -0.4095
 3097W        W 6841   7.823   6.713  10.405  0.0584 -0.0712  0.1445
 3098W        W 6842   5.660   8.001  11.605  0.0271  0.3150 -0.1909
 3099W        W 6843   4.830   7.214   2.496  0.2424  0.1893 -0.0008
 3100W        W 6844   1.821   6.140  11.410  0.1674  0.0280  0.1759
 3101W        W 6845   9.746   5.918   0.854  0.2986 -0.0735  0.0256
 3102W        W 6846   7.964   7.958   0.549  0.0264  0.1055 -0.0093
 3103W        W 6847   6.367   6.619   1.222  0.2497  0.2341  0.0371
 3104W        W 6848   8.898   9.693   0.914  0.2501 -0.1595 -0.0870
 3105W        W 6849   5.929   2.608   9.849  0.1056  0.0825  0.0399
 3106W        W 6850   6.709   6.903  11.675 -0.3974  0.0127 -0.5409
 3107W        W 6851   5.679   4.425   2.536 -0.1705 -0.3603  0.0325
 3108W        W 6852   8.501   3.208   1.634 -0.1381 -0.0761 -0.1735
 3109W        W 6853   1.011   1.384  11.317  0.0784  0.3876 -0.0957
 3110W        W 6854   8.667   9.747  11.799  0.2955  0.1301  0.1161
 3111W        W 6855   2.486   0.101  10.822 -0.0755 -0.2627  0.3290
 3112W        W 6856   0.721   2.550  12.111 -0.1394  0.0097  0.0486
 3113W        W 6857   7.400   1.769   2.605 -0.2289 -0.4468  0.0597
 3114W        W 6858   6.823   4.821   9.080  0.4732  0.3807 -0.1193
 3115W        W 6859   0.309   5.961  10.685 -0.1029 -0.0009 -0.1707
 3116W        W 6860   0.428   9.167   3.735 -0.2187 -0.0449  0.0789
 3117W        W 6861   3.972   7.274  12.416 -0.1032 -0.0670 -0.2180
 3118W        W 6862   3.866   6.555  11.331  0.2011  0.0220 -0.3216
 3119W        W 6863   5.971   9.356   9.783  0.0690  0.0998 -0.1321
 3120W        W 6864   4.247   3.759   8.565 -0.2033  0.0155  0.0467
 3121W        W 6865   2.913   2.225   0.769  0.0785  0.3931 -0.2209
 3122W        W 6866   7.303   6.166   2.996  0.1609 -0.0921  0.2521
 3123W        W 6867   0.773   7.737   2.849  0.0101 -0.2002 -0.0951
 3124W        W 6868   9.890   7.979   0.962  0.1175 -0.3677  0.1759
 3125W        W 6869   8.416   0.877  12.518  0.1719  0.0764 -0.0002
 3126W        W 6870   0.569   0.279   2.672  0.2034  0.0602 -0.2551
 3127W        W 6871   6.796   6.929   2.991 -0.1505  0.1435 -0.2856
 3128W        W 6872   9.688   8.459   0.913  0.1164  0.0749  0.1019
 3129W        W 6873   5.529   3.146  10.604  0.0294 -0.1229  0.0063
 3130W        W 6874   1.616   4.478   3.406  0.2935  0.0013  0.1856
 3131W        W 6875   1.492   0.855  11.735 -0.0813 -0.0012 -0.1490
 3132W        W 6876   8.912   7.202   2.642  0.0119  0.2485 -0.1098
 3133W        W 6877   3.398   6.550   7.837  0.1907  0.3178 -0.0490
 3134W        W 6878   3.266   4.937  11.687 -0.2281  0.0931 -0.1303
 3135W        W 6879   3.478   6.766   2.699  0.2953  0.1217 -0.4513
 3136W        W 6880   4.357   9.212   3.081  0.5181 -0.3701  0.0501
 3137W        W 6881   1.386   1.238   1.903 -0.3974 -0.1116  0.1082
 3138W        W 6882   6.803   0.048  10.164  0.0921  0.2487 -0.0380
 3139W        W 6883   2.120   7.625   0.392 -0.1942  0.0094  0.1041
 3140W        W 6884   6.484   6.024   1.673 -0.1847  0.0098 -0.0463
 3141W        W 6885   7.447   5.530  12.251  0.1774  0.1044  0.0906
 3142W        W 6886   0.761   4.916   0.468  0.0837 -0.2556 -0.1079
 3143W        W 6887   0.263   6.997   2.457 -0.0426 -0.1637 -0.2570
 3144W        W 6888   9.832   3.272   3.636  0.0392  0.2150  0.0048
 3145W        W 6889   7.534   4.218   0.801 -0.2230  0.1420 -0.1204
 3146W        W 6890   9.469   4.188   2.588  0.0029  0.0093 -0.1544
 3147W        W 6891   9.659   5.406   3.063 -0.2411  0.0781 -0.2179
 3148W        W 6892   2.953   6.760   0.103 -0.2098  0.2324  0.0512
 3149W        W 6893   1.852   7.894   9.187  0.0505  0.0331  0.1233
 3150W        W 6894   6.065   0.344   3.129  0.2149 -0.1215  0.0949
 3151W        W 6895   4.776   6.021   0.054 -0.0824 -0.0156 -0.0188
 3152W        W 6896   3.872   1.621   5.272 -0.0815 -0.4230 -0.3409
 3153W        W 6897   3.089   7.044   2.543  0.1523  0.0902 -0.1623
 3154W        W 6898   4.890   0.225   0.696  0.2203 -0.1539 -0.1285
 3155W        W 6899   3.493   5.379   9.112  0.1827 -0.0260 -0.1347
 3156W        W 6900   3.997   6.063  12.308  0.1808 -0.2491 -0.1778
 3157W        W 6901   5.536   3.767  11.603 -0.0754 -0.0445  0.0568
 3158W        W 6902   6.163   5.704  11.954  0.1980  0.0127 -0.1390
 3159W        W 6903   5.712   5.976   0.968  0.0994  0.2321  0.1730
 3160W        W 6904   3.728   1.362  10.829  0.2969  0.2025 -0.1644
 3161W        W 6905   3.635   6.924   9.827  0.1521 -0.0040 -0.0842
 3162W        W 6906   9.111   5.942   2.095  0.1787  0.0089 -0.1020
 3163W        W 6907   9.418   5.737   8.351  0.1932  0.3573 -0.3663
 3164W        W 6908   6.595   6.072   2.260  0.2165  0.3258  0.0655
 3165W        W 6909   4.478   9.509   2.704 -0.1257  0.3913  0.0653
 3166W        W 6910   6.927   8.313   8.731  0.2071 -0.0016  0.0145
 3167W        W 6911   1.510   3.289   3.454  0.2615 -0.2750 -0.1793
 3168W        W 6912   9.815   6.329   4.595  0.3438 -0.2324 -0.1145
 3169W        W 6913   6.162   7.215  10.799  0.0369 -0.2179 -0.2805
 3170W        W 6914   4.710   6.886   4.869  0.1826  0.0714  0.0900
 3171W        W 6915   3.165   2.907   9.708  0.2235 -0.0221  0.1472
 3172W        W 6916   6.224   0.086   1.032  0.0008  0.2276 -0.0257
 3173W        W 6917   4.582   0.702   0.414 -0.2540  0.0375  0.0976
 3174W        W 6918   2.915   7.511  12.019  0.3861  0.3474 -0.0606
 3175W        W 6919   3.511   9.242   1.804  0.3998 -0.0125  0.0182
 3176W        W 6920   9.761   4.422   9.993 -0.1207 -0.1804  0.1396
 3177W        W 6921   2.537   7.910   8.311  0.3876 -0.2285  0.0532
 3178W        W 6922   4.576   0.863  11.238 -0.0541 -0.0023 -0.2504
 3179W        W 6923   5.597   4.970   4.123  0.3059  0.2182  0.1103
 3180W        W 6924   6.710   7.069   4.401 -0.2731  0.2384  0.0027
 3181W        W 6925   9.647   6.136   2.392 -0.1080 -0.1479 -0.0374
 3182W        W 6926   3.154   1.670   8.216  0.1173  0.1329  0.0305
 3183W        W 6927   2.842   9.891   9.151  0.0695 -0.0952  0.3597
 3184W        W 6928   9.820   5.707  10.031 -0.1609 -0.0889  0.2261
 3185W        W 6929   1.577   4.679   3.923  0.5596  0.0427 -0.1388
 3186W        W 6930   2.772   2.116   9.378  0.2718  0.2431 -0.0378
 3187W        W 6931   8.816   3.363   9.330  0.0926 -0.3388  0.0145
 3188W        W 6932   7.344   7.388   9.668  0.3397 -0.0117  0.2910
 3189W        W 6933   4.509   1.745   9.584  0.0647  0.3743  0.2698
 3190W        W 6934   8.791   3.879  11.115  0.1415 -0.2248 -0.0843
 3191W        W 6935   0.408   2.538   8.783 -0.3790  0.0362  0.0449
 3192W        W 6936   4.048   1.835   4.824  0.4357  0.1145  0.0211
 3193W        W 6937   9.170   2.120   2.834  0.1406  0.1070 -0.0396
 3194W        W 6938   7.687   5.515   3.671 -0.1079  0.0538  0.3897
 3195W        W 6939   7.130   2.504   0.846 -0.1120  0.0513  0.0240
 3196W        W 6940   5.527   1.579  12.640  0.0602  0.0877  0.0898
 3197W        W 6941   8.111   7.688   8.971  0.1652 -0.1392  0.1432
 3198W        W 6942   1.159   6.867   9.257  0.2525 -0.1814  0.0166
 3199W        W 6943   0.208   8.726   1.521 -0.0757  0.1942  0.0450
 3200W        W 6944   1.528   4.957   1.483 -0.2423  0.1185  0.0179
 3201W        W 6945   0.252   2.658  12.408 -0.3026  0.1394  0.1496
 3202W        W 6946   5.448   0.928   3.643 -0.0567 -0.2632  0.0268
 3203W        W 6947   9.266   8.303  10.112 -0.0265 -0.0655 -0.0701
 3204W        W 6948   6.346   6.692  11.429 -0.1015  0.1194  0.2583
 3205W        W 6949   8.363   1.895   9.616 -0.0151  0.2149  0.1116
 3206W        W 6950   4.251   7.605   9.714 -0.4004  0.1917 -0.1182
 3207W        W 6951   6.347   3.787   8.319 -0.1547  0.1326  0.0753
 3208W        W 6952   0.787   3.737   1.866  0.1184  0.2371 -0.1189
 3209W        W 6953   0.703   3.411   9.898  0.1284 -0.1627  0.1133
 3210W        W 6954   3.508   3.310  10.435 -0.0590 -0.0299 -0.0683
 3211W        W 6955   3.205   1.156  10.697  0.4596  0.0207  0.1284
 3212W        W 6956   1.264   6.113  12.720  0.3275 -0.0553 -0.0930
 3213W        W 6957   5.032   2.299  12.332  0.0022  0.2515  0.0879
 3214W        W 6958   5.561   8.246  12.050  0.1613  0.1263 -0.0866
 3215W        W 6959   5.823   7.882  12.148 -0.1409 -0.2157  0.0769
 3216W        W 6960   1.993   1.710   3.318 -0.3774  0.3631  0.1781
 3217W        W 6961   0.373   5.298   3.771  0.1113 -0.0543  0.0796
 3218W        W 6962   2.474   3.657   4.411  0.2318  0.2611 -0.0506
 3219W        W 6963   8.807   7.767  11.262  0.0111 -0.2626  0.0615
 3220W        W 6964   0.525   0.637   3.052  0.0676  0.2547  0.1522
 3221W        W 6965   3.983   1.275   9.987 -0.0997 -0.1577 -0.1264
 3222W        W 6966   9.368   6.203  10.663  0.0890  0.1363  0.1751
 3223W        W 6967   4.184   4.065   3.182  0.0113 -0.1579 -0.2310
 3224W        W 6968   6.490   2.769   3.220 -0.1157 -0.0641 -0.0254
 3225W        W 6969   2.215   4.640  12.298  0.2983 -0.0628  0.1766
 3226W        W 6970   0.955   2.638   9.471 -0.0455 -0.0096 -0.0190
 3227W        W 6971   0.326   4.495   8.759  0.1386 -0.0272 -0.1927
 3228W        W 6972   5.487   5.603   2.776  0.0830  0.0045 -0.1954
 3229W        W 6973   2.872   6.978  12.016  0.0879  0.3458 -0.1599
 3230W        W 6974   0.611   6.448   8.220  0.2590  0.2054 -0.0035
 3231W        W 6975   4.743   9.290   8.915  0.1815 -0.1216  0.3008
 3232W        W 6976   0.516   9.769  10.093 -0.0182  0.1460 -0.0076
 3233W        W 6977   5.196   0.744  11.990 -0.0612 -0.0963  0.4560
 3234W        W 6978   9.120   7.933   9.831 -0.0184  0.3377 -0.3079
 3235W        W 6979   1.398   0.717   3.183  0.0263  0.4668  0.0609
 3236W        W 6980   1.159   9.685   1.857  0.0037  0.2194  0.0476
 3237W        W 6981   0.202   6.761  12.001  0.0866  0.1907  0.1336
 3238W        W 6982   4.452   5.627   0.104 -0.1405  0.2453  0.0269
 3239W        W 6983   1.125   7.015   2.367  0.4044 -0.0644 -0.1181
 3240W        W 6984   2.900   3.664  11.318 -0.1849 -0.0739 -0.0675
 3241W        W 6985   8.836   9.444  12.530 -0.0708 -0.0735  0.2398
 3242W        W 6986   4.052   9.285  11.464  0.2233  0.1186  0.2154
 3243W        W 6987   1.441   2.312  10.231  0.2032 -0.3588  0.0267
 3244W        W 6988   7.323   9.933  11.607  0.1922 -0.0972  0.1337
 3245W        W 6989   4.202   0.705   3.081 -0.0971 -0.0880 -0.0592
 3246W        W 6990   6.572   8.148   3.025  0.0288  0.1745 -0.3396
 3247W        W 6991   1.272   8.783  10.891  0.2053  0.0554  0.1328
 3248W        W 6992   3.158   9.427  12.488 -0.1959  0.0678 -0.3423
 3249W        W 6993   7.098   0.632   0.611  0.0385  0.3421 -0.0393
 3250W        W 6994   2.913   4.064   1.269  0.0046 -0.0487 -0.0002
 3251W        W 6995   1.712   5.235  11.713  0.0295  0.1524  0.3007
 3252W        W 6996   7.480   4.707  10.041 -0.1772  0.1798 -0.2359
 3253W        W 6997   1.258   8.409   9.840  0.2559 -0.0644 -0.4124
 3254W        W 6998   3.288   6.641  12.006 -0.0124  0.0175  0.0463
 3255W        W 6999   7.183   0.041   2.160 -0.2060  0.0157  0.0108
 3256W        W 7000   8.842   7.605   0.686 -0.1290 -0.0010  0.3411
 3257W        W 7001   7.873   9.750  12.379 -0.1229  0.2929 -0.0864
 3258W        W 7002   7.388   5.984   1.876  0.0380  0.1370  0.0330
 3259W        W 7003   7.165   4.950   1.720  0.2515  0.1541  0.0645
 3260W        W 7004   8.145   6.135  10.890 -0.1578 -0.1136 -0.0161
 3261W        W 7005   1.487   2.534   3.695 -0.0198  0.2636  0.0704
 3262W        W 7006   5.677   5.517  12.121 -0.0111  0.2345  0.0155
 3263W        W 7007   6.391   3.972  11.320 -0.2784 -0.1999 -0.1386
 3264W        W 7008   3.357   7.706  10.166  0.0532  0.2939  0.3542
 3265W        W 7009   5.644   4.650   3.681 -0.0059  0.1447 -0.4689
 3266W        W 7010   0.673   4.342  12.491 -0.0804  0.4355 -0.1231
 3267W        W 7011   4.566   2.543   4.667 -0.0781  0.1856 -0.3903
 3268W        W 7012   5.233   2.389   9.427 -0.0237 -0.0737 -0.2215
 3269W        W 7013   0.528   1.393   0.688 -0.0396 -0.2442  0.0123
 3270W        W 7014   1.450   7.691   9.509 -0.2449 -0.1173  0.1122
 3271W        W 7015   4.372   3.377   9.950  0.1069 -0.0079 -0.2696
 3272W        W 7016   4.391   7.076   3.968 -0.0358  0.1630  0.0218
 3273W        W 7017   7.725   2.974   8.762  0.1643  0.0086  0.0683
 3274W        W 7018   8.483   6.462   2.429  0.4419 -0.2907 -0.1470
 3275W        W 7019   7.667   0.874   1.032 -0.2591 -0.0354 -0.2630
 3276W        W 7020   3.156   6.888  11.574  0.0473 -0.0864 -0.2053
 3277W        W 7021   6.895   4.067   9.032  0.2638  0.0824  0.2420
 3278W        W 7022   0.879   3.326   0.751 -0.0432  0.1021  0.0352
 3279W        W 7023   3.471   7.369   0.050 -0.1738 -0.1951  0.1305
 3280W        W 7024   4.696   3.744   0.937  0.1113  0.1489 -0.2502
 3281W        W 7025   1.255   4.119  10.061  0.1786  0.0472  0.2669
 3282W        W 7026   4.739   2.986   3.860  0.2971  0.0374 -0.2406
 3283W        W 7027   7.976   9.938   2.570 -0.1078  0.0840  0.0557
 3284W        W 7028   7.664   8.109  10.175 -0.1363  0.0332 -0.1700
 3285W        W 7029   3.781   8.063   8.423  0.0580  0.2517  0.1410
 3286W        W 7030   5.220   7.879   1.729 -0.3070 -0.1205  0.2445
 3287W        W 7031   8.897   0.280  11.957 -0.3427  0.1356  0.0902
 3288W        W 7032   7.570   0.815  12.292 -0.1189  0.1053 -0.2938
 3289W        W 7033   8.180   3.566   9.110 -0.1589 -0.0013  0.3285
 3290W        W 7034   2.109   0.588   9.926  0.3601  0.4262  0.1587
 3291W        W 7035   4.110   5.989   3.242  0.0219  0.1385  0.1060
 3292W        W 7036   1.094   4.059   9.011 -0.0006 -0.0215 -0.0730
 3293W        W 7037   1.019   0.436   3.012  0.1585 -0.0463 -0.1284
 3294W        W 7038   9.154   2.575   2.609  0.3011  0.2477  0.0725
 3295W        W 7039   8.831   4.848   9.798  0.0674 -0.2045  0.1059
 3296W        W 7040   7.378   6.083   0.468 -0.0649  0.3955 -0.1799
 3297W        W 7041   3.799   9.073   0.078  0.1034 -0.5252 -0.1811
 3298W        W 7042   4.401   0.033   2.898  0.1247  0.1502  0.1743
 3299W        W 7043   3.942   5.198  10.070  0.1940  0.0599 -0.0078
 3300W        W 7044   5.052   9.869  12.402 -0.1919  0.1430 -0.3596
 3301W        W 7045   6.286   3.636   8.796 -0.1615 -0.3769 -0.0749
 3302W        W 7046   0.591   6.662  12.337  0.1060 -0.1112 -0.2366
 3303W        W 7047   0.109   1.750  10.414  0.0182 -0.0719  0.1359
 3304W        W 7048   8.387   5.245   3.207  0.1542  0.2014 -0.1050
 3305W        W 7049   4.879   4.675   2.265 -0.1362  0.0285  0.0882
 3306W        W 7050   2.186   5.292  10.540 -0.0697 -0.0012 -0.0798
 3307W        W 7051   8.884   1.975  11.611  0.0655  0.1391 -0.1246
 3308W        W 7052   9.597   3.080  10.254 -0.1061 -0.0024 -0.2533
 3309W        W 7053   9.933   6.819   0.401  0.1953 -0.0683 -0.1035
 3310W        W 7054   0.083   3.265   9.313  0.0105 -0.1550 -0.0359
 3311W        W 7055   3.154   1.086   3.218  0.2245 -0.0561  0.0241
 3312W        W 7056   0.666   1.684   8.686  0.0731 -0.0275 -0.4326
 3313W        W 7057   1.358   3.208   2.931 -0.0722 -0.1250 -0.0537
 3314W        W 7058   7.666   0.082   0.046  0.0836  0.1275  0.0481
 3315W        W 7059   0.815   7.246  10.999  0.1601  0.1697  0.0877
 3316W        W 7060   4.804   9.576  12.009 -0.4700  0.1442 -0.0496
 3317W        W 7061   1.742   1.043   3.654  0.1752 -0.0373 -0.0598
 3318W        W 7062   4.830   7.281   1.084  0.0534 -0.2638  0.1261
 3319W        W 7063   9.900   2.438   0.487 -0.4201  0.0764 -0.3255
 3320W        W 7064   2.395   9.110   4.094 -0.2843  0.0665  0.0729
 3321W        W 7065   9.513   0.947  10.513 -0.0734 -0.2655  0.2370
 3322W        W 7066   5.417   4.828   2.228  0.1460  0.0024 -0.0271
 3323W        W 7067   2.394   1.391  12.473 -0.2027  0.0044 -0.1440
 3324W        W 7068   5.435   3.890   9.934  0.1815  0.0608 -0.2041
 3325W        W 7069   4.256   9.456   3.639  0.0959 -0.0581  0.1244
 3326W        W 7070   1.089   4.723   8.212 -0.0337  0.3079  0.3010
 3327W        W 7071   5.737   6.372   1.221 -0.2587 -0.1032  0.1446
 3328W        W 7072   1.354   6.543  11.126  0.0987  0.0384  0.3714
 3329W        W 7073   0.092   4.363   2.387 -0.1889  0.0191  0.0835
 3330W        W 7074   6.135   0.098  10.412 -0.1590  0.1715  0.2318
 3331W        W 7075   0.132   4.942  10.899 -0.0157 -0.2297 -0.0623
 3332W        W 7076   7.549   6.989   0.969 -0.0859  0.0004  0.1851
 3333W        W 7077   3.890   4.493  12.322 -0.2758 -0.2388  0.0140
 3334W        W 7078   7.251   2.162   3.214  0.0444 -0.2153 -0.1547
 3335W        W 7079   3.346   3.114  12.205  0.0244  0.2240  0.0301
 3336W        W 7080   2.486   0.046   3.222  0.0571  0.0988  0.2477
 3337W        W 7081   9.041   4.713   4.233  0.2522  0.2326  0.2524
 3338W        W 7082   7.099   7.755   1.155  0.1230  0.0497 -0.4221
 3339W        W 7083   8.494   4.116  12.119  0.2807  0.2032 -0.0460
 3340W        W 7084   4.752   7.978  12.665  0.1583 -0.2869 -0.5094
 3341W        W 7085   9.817   6.034  10.450 -0.2547 -0.1304  0.2479
 3342W        W 7086   6.898   9.550  10.141 -0.1120 -0.1479  0.1296
 3343W        W 7087   1.816   9.219   2.978 -0.0834 -0.4505 -0.0583
 3344W        W 7088   9.491   2.514   7.915  0.1607  0.1014  0.0708
 3345W        W 7089   6.701   2.415  10.469 -0.0026 -0.3535 -0.2579
 3346W        W 7090   6.198   8.236   9.360  0.1204  0.0591 -0.4386
 3347W        W 7091   9.799   7.515   1.032  0.0175  0.0559 -0.1878
 3348W        W 7092   9.922   9.647   2.510 -0.3795 -0.2050  0.0142
 3349W        W 7093   3.889   7.942   3.063 -0.0406  0.2920  0.2537
 3350W        W 7094   3.604   1.750   4.017 -0.0041 -0.3362 -0.0724
 3351W        W 7095   7.217   6.896   9.768  0.2480  0.2085  0.0461
 3352W        W 7096   1.359   7.180  11.984  0.3739  0.1455  0.0782
 3353W        W 7097   8.905   2.980   9.751  0.3659 -0.0563  0.0446
 3354W        W 7098   2.482   1.009   4.391 -0.0062 -0.1004  0.1153
 3355W        W 7099   1.776   0.501   9.524  0.0673 -0.0891 -0.0987
 3356W        W 7100   3.459   1.449   3.008 -0.0970 -0.2071  0.0696
 3357W        W 7101   7.181   6.246   4.137  0.1585 -0.0091  0.1421
 3358W        W 7102   9.386   2.871   9.849  0.0786 -0.0849  0.0734
 3359W        W 7103   4.971   8.917  12.460 -0.1943 -0.0160  0.4944
 3360W        W 7104   0.032   3.606   3.161 -0.2952  0.0722 -0.0405
 3361W        W 7105   2.267   5.336   0.617  0.0139  0.0076 -0.3304
 3362W        W 7106   5.081   3.411   3.819 -0.0934 -0.1417  0.3939
 3363W        W 7107   4.919   1.827   9.862 -0.2266 -0.1111 -0.1760
 3364W        W 7108   0.911   1.049   1.746  0.0414  0.2213 -0.2703
 3365W        W 7109   4.395   4.829  12.214  0.2060 -0.1212 -0.0565
 3366W        W 7110   2.769   8.428   3.520 -0.1848 -0.0487 -0.1796
 3367W        W 7111   4.186   1.653   9.240 -0.0114  0.1375  0.3561
 3368W        W 7112   6.554   1.712   4.094  0.0153  0.0259  0.2179
 3369W        W 7113   1.884   7.369   2.394  0.0704 -0.1175  0.1292
 3370W        W 7114   1.025   2.827  10.880 -0.2094  0.0149 -0.1546
 3371W        W 7115   5.477   5.909   0.267 -0.1129  0.1760 -0.0580
 3372W        W 7116   0.705   1.359   3.859 -0.0579 -0.1372  0.2288
 3373W        W 7117   4.215   8.810   9.736  0.2025 -0.0180  0.1697
 3374W        W 7118   3.577   8.777   3.507 -0.0241 -0.0056  0.0323
 3375W        W 7119   3.821   3.133  11.984  0.0730  0.1484  0.0607
 3376W        W 7120   3.869   3.655  10.625 -0.0921  0.0674  0.0239
 3377W        W 7121   3.859   6.662   1.966  0.0666 -0.0536 -0.2529
 3378W        W 7122   1.383   1.750   1.851  0.3987  0.4190 -0.2196
 3379W        W 7123   0.249   6.267   0.801  0.1915  0.1896 -0.0931
 3380W        W 7124   8.849   3.478   2.122 -0.1580 -0.0748  0.0220
 3381W        W 7125   0.764   6.042   7.919  0.3963 -0.3009 -0.5410
 3382W        W 7126   9.521   2.368   9.825  0.0002  0.0640  0.1727
 3383W        W 7127   2.327   1.002   8.832 -0.1223 -0.1958 -0.1452
 3384W        W 7128   7.235   3.970  11.541 -0.0377 -0.2643  0.1319
 3385W        W 7129   5.983   3.427   1.441  0.0812 -0.0085  0.2278
 3386W        W 7130   1.815   4.190  10.196  0.1242  0.2365  0.0189
 3387W        W 7131   8.745   1.262   0.863 -0.3315  0.1505  0.0433
 3388W        W 7132   2.930   7.867   0.161  0.1421  0.5556  0.0391
 3389W        W 7133   3.394   9.046   1.378 -0.1868 -0.5435  0.1771
 3390W        W 7134   2.429   7.224  11.840  0.1241  0.1430  0.0962
 3391W        W 7135   4.656   6.944   4.372 -0.2614  0.2201  0.0256
 3392W        W 7136   2.151   9.148  11.188  0.0536  0.0512 -0.1345
 3393W        W 7137   9.179   3.482  12.286  0.3698  0.0251  0.5797
 3394W        W 7138   2.940   2.394   2.509  0.0497  0.1919 -0.1406
 3395W        W 7139   4.368   2.716   2.323  0.2709 -0.0731  0.0968
 3396W        W 7140   5.053   6.155  11.744  0.0581  0.2477 -0.0658
 3397W        W 7141   3.186   5.039   8.362  0.2947  0.1218 -0.1415
 3398W        W 7142   6.106   6.884   9.751  0.1894 -0.2339 -0.0138
 3399W        W 7143   5.776   0.260  10.823 -0.0324  0.1646 -0.1984
 3400W        W 7144   1.212   5.301   3.284 -0.0336  0.1316 -0.0778
 3401W        W 7145   5.356   5.163   3.651 -0.0943  0.1492 -0.0565
 3402W        W 7146   0.012   5.840   8.398  0.0109 -0.0829  0.1650
 3403W        W 7147   6.570   3.401   2.854  0.0567  0.0314  0.0448
 3404W        W 7148   3.528   0.239   1.167  0.2273 -0.1130 -0.1308
 3405W        W 7149   7.810   8.905   2.789 -0.2333 -0.0438  0.2410
 3406W        W 7150   4.903   3.070   0.170  0.0531 -0.3435 -0.1649
 3407W        W 7151   7.945   5.610  11.995 -0.2744 -0.0349  0.2244
 3408W        W 7152   1.002   9.207  11.153 -0.0226  0.0175  0.1965
 3409W        W 7153   0.729   7.581  11.342 -0.1556 -0.1638  0.0369
 3410W        W 7154   9.268   2.755  10.832  0.3148 -0.0451  0.2578
 3411W        W 7155   7.703   5.168   8.575 -0.1557 -0.0915  0.3280
 3412W        W 7156   6.735   6.228   9.216  0.1202 -0.0235 -0.4171
 3413W        W 7157   4.765   8.213  11.598 -0.1070  0.1666  0.2146
 3414W        W 7158   4.128   6.747   0.429 -0.0388  0.2411 -0.1245
 3415W        W 7159   3.073   3.861   9.956 -0.1402  0.0378  0.1679
 3416W        W 7160   1.923   0.094   4.174 -0.0556 -0.3578  0.0503
 3417W        W 7161   0.613   9.747   2.958  0.0096 -0.0199  0.1000
 3418W        W 7162   2.247   9.811   2.085  0.0088  0.1239  0.0974
 3419W        W 7163   1.062   8.029  11.933 -0.0372 -0.0902 -0.1252
 3420W        W 7164   9.418   6.029  11.181  0.0562  0.0786 -0.0416
 3421W        W 7165   6.897   7.525   9.528  0.1656 -0.1869 -0.0000
 3422W        W 7166   3.363   3.788  12.667 -0.1233 -0.2107 -0.0412
 3423W        W 7167   4.765   7.120   9.392 -0.1447 -0.1565 -0.1146
 3424W        W 7168   6.678   4.356  10.310  0.5162 -0.0357 -0.0477
 3425W        W 7169   4.810   4.709  11.342 -0.3532  0.1384  0.2137
 3426W        W 7170   7.489   5.766   1.411  0.1578  0.1078 -0.0225
 3427W        W 7171   7.249   8.662   2.766  0.0713  0.1383 -0.0827
 3428W        W 7172   6.771   2.365   1.593  0.0942  0.1296 -0.4218
 3429W        W 7173   7.154   9.168  10.367 -0.0698  0.0993 -0.0723
 3430W        W 7174   1.261   2.224   0.056 -0.4672  0.2539 -0.1173
 3431W        W 7175   7.077   8.434  11.703  0.0159 -0.3332  0.4227
 3432W        W 7176   9.631   2.262   1.877 -0.1904 -0.0083  0.0945
 3433W        W 7177   7.438   5.673  11.367  0.2642  0.0348 -0.0881
 3434W        W 7178   6.625   7.267   3.450  0.0516 -0.1715 -0.0450
 3435W        W 7179   2.538   2.630  12.589 -0.2023 -0.3637 -0.0257
 3436W        W 7180   3.185   0.755   2.288 -0.0639  0.0372 -0.1898
 3437W        W 7181   6.945   6.479   3.259 -0.4630  0.0211 -0.0310
 3438W        W 7182   0.319   1.060   2.921 -0.2948 -0.1397  0.2033
 3439W        W 7183   7.542   9.747   3.323 -0.0096  0.0679 -0.0932
 3440W        W 7184   4.899   6.780   3.435 -0.0337 -0.0125 -0.3623
 3441W        W 7185   0.757   1.813   9.169 -0.0116  0.5177  0.0172
 3442W        W 7186   6.055   7.755  10.871 -0.2424  0.1453  0.1597
 3443W        W 7187   5.036   4.991  10.949 -0.4096 -0.0232  0.2239
 3444W        W 7188   5.826   3.338   4.696  0.7056  0.2283 -0.0271
 3445W        W 7189   5.698   0.535   0.446  0.2509 -0.1064 -0.2739
 3446W        W 7190   9.611   4.745   4.833  0.0674 -0.4065 -0.1607
 3447W        W 7191   6.916   5.708   0.758  0.0138 -0.0502  0.2431
 3448W        W 7192   9.009   3.804  10.313  0.1100 -0.0057  0.1236
 3449W        W 7193   8.559   5.814   0.987  0.2853 -0.1060 -0.1771
 3450W        W 7194   0.734   6.859  10.187  0.1344 -0.1324 -0.1106
 3451W        W 7195   5.982   1.185   2.955  0.2948 -0.1384  0.1053
 3452W        W 7196   9.113   4.051   8.815 -0.0594 -0.0304  0.0475
 3453W        W 7197   4.677   3.626   3.617 -0.2923 -0.2769  0.2653
 3454W        W 7198   8.767   0.677  11.627  0.1477  0.2443 -0.0713
 3455W        W 7199   0.257   7.265   2.966 -0.1420 -0.1054  0.2596
 3456W        W 7200   0.496   2.564  10.009  0.0662  0.0707 -0.1682
 3457W        W 7201   8.659   8.763   0.848  0.1732  0.0435  0.1601
 3458W        W 7202   6.345   3.606  12.404  0.1875  0.0296  0.0232
 3459W        W 7203   4.184   0.451   4.074 -0.1415  0.0602  0.2282
 3460W        W 7204   4.863   8.305   0.307 -0.0604  0.1701  0.1447
 3461W        W 7205   1.969   3.674  11.590 -0.1971  0.2821  0.0242
 3462W        W 7206   6.473   0.516  11.528 -0.1355 -0.1734  0.0006
 3463W        W 7207   2.916   7.828   0.712 -0.4525  0.1882  0.2162
 3464W        W 7208   6.937   6.239   1.840  0.0877  0.0366 -0.1047
 3465W        W 7209   4.179   7.085   1.684 -0.1534 -0.1730  0.4086
 3466W        W 7210   4.545   0.439  10.863  0.1424 -0.0421 -0.1169
 3467W        W 7211   7.063   0.511   2.369 -0.2754  0.1323 -0.1094
 3468W        W 7212   4.381   4.658   4.710 -0.2306  0.1951 -0.0965
 3469W        W 7213   4.875   0.887  11.585  0.1067 -0.1526 -0.2327
 3470W        W 7214   2.222   5.890   9.138 -0.2802 -0.0147  0.0842
 3471W        W 7215   0.812   8.135   3.152  0.0282  0.3608 -0.0736
 3472W        W 7216   1.578   3.317   1.781  0.0238  0.0754 -0.0785
 3473W        W 7217   2.148   5.319   2.229 -0.1338 -0.1374  0.0601
 3474W        W 7218   3.789   0.365   3.726  0.1545  0.0656  0.0218
 3475W        W 7219   2.695   7.757   4.497  0.0927 -0.1481 -0.3397
 3476W        W 7220   7.205   0.172  12.392  0.0511 -0.0472 -0.1874
 3477W        W 7221   7.854   8.232   3.580  0.0429 -0.0761 -0.0383
 3478W        W 7222   9.880   3.263   0.163 -0.1112 -0.0263 -0.1287
 3479W        W 7223   3.716   0.805  10.855  0.0480  0.1181  0.0630
 3480W        W 7224   2.935   5.828   1.824  0.3104 -0.1142 -0.3187
 3481W        W 7225   1.707   7.080  10.106  0.2066  0.2404 -0.3457
 3482W        W 7226   3.135   8.975   9.929 -0.1020 -0.0005 -0.1877
 3483W        W 7227   3.658   3.220  10.918 -0.2324  0.1819 -0.6541
 3484W        W 7228   9.804   7.487  11.502 -0.0049  0.2181  0.0625
 3485W        W 7229   3.313   6.552  12.542  0.0189 -0.3849  0.0378
 3486W        W 7230   8.518   8.520   1.717 -0.0553 -0.0534 -0.2729
 3487W        W 7231   1.675   4.640   9.133 -0.0608 -0.0004 -0.2507
 3488W        W 7232   3.093   8.418   9.663  0.0388 -0.1252  0.3544
 3489W        W 7233   0.166   0.276   0.573  0.0337  0.0539 -0.3056
 3490W        W 7234   0.340   7.399   3.468  0.2400  0.1803 -0.6649
 3491W        W 7235   0.237   8.008   9.983  0.3259 -0.2715 -0.3247
 3492W        W 7236   3.094   1.578   3.931  0.1807 -0.2993 -0.3293
 3493W        W 7237   2.709   3.669   9.645  0.2026 -0.2157 -0.0233
 3494W        W 7238   0.218   3.660   3.602 -0.2376  0.0021  0.1253
 3495W        W 7239   5.255   2.283  10.545  0.1399 -0.2808  0.2640
 3496W        W 7240   3.347   4.312  10.153 -0.3411  0.0853  0.0038
 3497W        W 7241   2.657   7.206   3.327 -0.0817  0.2093 -0.0594
 3498W        W 7242   4.172   4.987   3.533 -0.1450  0.4385 -0.0505
 3499W        W 7243   1.496   2.227   4.088  0.1908  0.1340 -0.1727
 3500W        W 7244   2.328   2.207  12.635  0.0197  0.2893 -0.0074
 3501W        W 7245   3.294   8.553  11.855 -0.0138 -0.0323  0.1230
 3502W        W 7246   9.960   8.946  10.411  0.0787  0.0202 -0.1968
 3503W        W 7247   3.178   7.021   1.709 -0.2029 -0.1633 -0.2814
 3504W        W 7248   5.836   0.545   8.342 -0.0505  0.1138  0.1865
 3505W        W 7249   1.596   3.768   1.423 -0.0351 -0.3017  0.1679
 3506W        W 7250   6.251   9.138  10.692  0.0536  0.0759  0.1286
 3507W        W 7251   1.539   4.125   1.054 -0.0222  0.0890 -0.0857
 3508W        W 7252   6.849   9.935   9.296 -0.0438 -0.0370  0.2047
 3509W        W 7253   4.508   1.451  10.504  0.0776  0.1360 -0.0272
 3510W        W 7254   8.821   0.553   2.651  0.1246 -0.2460 -0.1374
 3511W        W 7255   0.047   0.479   2.875 -0.2029 -0.0415  0.0238
 3512W        W 7256   3.936   1.560   1.891 -0.1146  0.2177  0.1540
 3513W        W 7257   5.448   3.094   0.629 -0.1122  0.2839 -0.0567
 3514W        W 7258   7.681   6.417   9.946 -0.0264  0.0285  0.1136
 3515W        W 7259   7.408   5.495   9.959  0.0075 -0.2057 -0.0997
 3516W        W 7260   8.228   8.137  10.101  0.3025  0.1327 -0.1987
 3517W        W 7261   7.000   8.065  12.605 -0.1782 -0.2985 -0.0983
 3518W        W 7262   3.962   5.262   8.882 -0.0392  0.4203  0.0794
 3519W        W 7263   6.621   8.795   3.231 -0.2091 -0.1892  0.1879
 3520W        W 7264   8.367   9.154   2.374  0.2139  0.2110  0.0421
 3521W        W 7265   6.304   3.714  10.857 -0.0498 -0.3341 -0.2646
 3522W        W 7266   5.746   6.687  11.570 -0.0429  0.1393  0.0141
 3523W        W 7267   3.249   8.348   3.341  0.3839  0.0383  0.1093
 3524W        W 7268   2.186   1.850  10.136  0.0116 -0.0369  0.1158
 3525W        W 7269   2.496   8.877  10.290 -0.1710  0.1575  0.1140
 3526W        W 7270   9.873   6.941   9.972  0.0675 -0.0184 -0.2680
 3527W        W 7271   2.357   4.857  12.731  0.0842 -0.3203 -0.4440
 3528W        W 7272   0.930   4.386   8.577 -0.0163  0.4619  0.3924
 3529W        W 7273   3.908   6.797   3.261 -0.0783 -0.1298 -0.0798
 3530W        W 7274   7.800   0.092  11.774 -0.3196  0.0672  0.0689
 3531W        W 7275   7.183   1.097  10.855 -0.2494 -0.5326  0.1055
 3532W        W 7276   1.337   3.038   3.867 -0.1777 -0.0180  0.0599
 3533W        W 7277   0.892   9.923   4.454 -0.0857  0.1323 -0.2126
 3534W        W 7278   5.283   1.201  11.599 -0.0374 -0.1212  0.3265
 3535W        W 7279   2.129   9.651   3.069  0.2726  0.2370  0.0228
 3536W        W 7280   2.210   4.106   9.072  0.3081  0.3749  0.1277
 3537W        W 7281   6.292   5.460   1.703 -0.0350 -0.0107 -0.1511
 3538W        W 7282   9.020   5.112   2.355 -0.3144 -0.1142  0.2086
 3539W        W 7283   0.931   1.523   1.968 -0.1585 -0.1752  0.0387
 3540W        W 7284   4.309   6.577   4.238 -0.1595 -0.1541 -0.1627
 3541W        W 7285   0.406   1.039   3.392 -0.1352  0.0580  0.1656
 3542W        W 7286   1.858   1.135   1.100 -0.0938  0.2803 -0.2489
 3543W        W 7287   0.583   4.498   3.222 -0.0900  0.0226 -0.3474
 3544W        W 7288   5.554   4.952   1.130  0.1173 -0.1861 -0.0410
 3545W        W 7289   0.362   5.724   7.893  0.1506 -0.3219 -0.2064
 3546W        W 7290   5.799   6.416   2.364 -0.2940 -0.0587  0.0616
 3547W        W 7291   0.629   8.497   3.534  0.2538  0.3260 -0.3333
 3548W        W 7292   1.382   5.542   2.816 -0.2072  0.0045 -0.0869
 3549W        W 7293   9.958   3.728   1.658  0.2043  0.2282  0.0697
 3550W        W 7294   6.007   8.282   3.207 -0.0602  0.2060 -0.0982
 3551W        W 7295   7.472   7.815   0.850  0.0379 -0.1993  0.0326
 3552W        W 7296   3.983   2.145  10.710  0.0596 -0.0183  0.4274
 3553W        W 7297   2.873   8.876  11.953 -0.0463  0.0769 -0.1437
 3554W        W 7298   1.725   7.338   0.196  0.3033 -0.1354 -0.1246
 3555W        W 7299   0.050   4.477   3.242 -0.0547 -0.1951  0.0780
 3556W        W 7300   2.287   4.758   2.744  0.0410 -0.1848 -0.1628
 3557W        W 7301   8.041   8.265   1.551 -0.2371  0.1384  0.0475
 3558W        W 7302   9.089   3.786   8.378 -0.2649 -0.2522  0.0527
 3559W        W 7303   3.625   0.922   9.938  0.0821 -0.2367  0.5082
 3560W        W 7304   0.909   6.795   0.466  0.1356 -0.2683 -0.0425
 3561W        W 7305   4.819   8.971   1.333  0.2568  0.1764 -0.2351
 3562W        W 7306   4.402   1.257   3.713 -0.0295 -0.2260 -0.2729
 3563W        W 7307   3.287   0.272   0.762 -0.0145  0.0264 -0.2858
 3564W        W 7308   1.367   6.617   8.846  0.0937  0.1016  0.0153
 3565W        W 7309   1.834   4.046   0.570  0.4017 -0.2336  0.2345
 3566W        W 7310   6.921   8.613  12.586 -0.0187 -0.4286 -0.2125
 3567W        W 7311   3.084   3.625  10.468  0.2862  0.0456 -0.0026
 3568W        W 7312   4.383   3.834  12.718  0.0383 -0.1224  0.0508
 3569W        W 7313   8.065   4.937   9.042  0.0937  0.0472 -0.3779
 3570W        W 7314   3.462   7.593   2.943  0.1403  0.1716  0.2696
 3571W        W 7315   3.377   5.720  11.082  0.0639 -0.2803  0.1379
 3572W        W 7316   5.613   4.026  12.427  0.0017  0.1375  0.3382
 3573W        W 7317   6.433   6.912   9.252 -0.2208 -0.2879  0.0169
 3574W        W 7318   2.788   2.637   0.322  0.1524 -0.3371  0.1627
 3575W        W 7319   0.657   9.401  12.412  0.2101  0.4561 -0.3621
 3576W        W 7320   3.605   3.568   1.571  0.0713 -0.3269 -0.2916
 3577W        W 7321   5.842   1.369   2.432  0.0571 -0.3698 -0.0513
 3578W        W 7322   2.575   7.467   0.640 -0.0504  0.0175  0.1918
 3579W        W 7323   3.694   3.665  11.849  0.0084  0.2790 -0.0677
 3580W        W 7324   4.942   7.068  11.030 -0.3089 -0.1203 -0.0842
 3581W        W 7325   2.358   4.910   3.588  0.0513  0.0323 -0.1450
 3582W        W 7326   4.898   0.157   1.683  0.2618  0.2720  0.0989
 3583W        W 7327   0.517   7.644  10.129 -0.1015 -0.0630  0.0746
 3584W        W 7328   7.714   3.619   0.263  0.2801 -0.0759 -0.0661
 3585W        W 7329   2.003   6.890  11.010 -0.1002  0.1924 -0.2499
 3586W        W 7330   7.376   1.461   0.374  0.4994 -0.0468 -0.1551
 3587W        W 7331   1.661   0.992   2.274  0.1037  0.1506 -0.1032
 3588W        W 7332   9.141   2.611   2.097  0.3684  0.0684  0.0953
 3589W        W 7333   0.361   3.866   8.056  0.0649 -0.0206  0.2349
 3590W        W 7334   5.816   9.944   2.926 -0.0030 -0.2676  0.1507
 3591W        W 7335   6.380   0.564   1.172  0.0034 -0.0822 -0.1342
 3592W        W 7336   7.527   0.793   2.591 -0.0765  0.0959  0.1575
 3593W        W 7337   2.051   9.621   8.938  0.0324 -0.2074 -0.1611
 3594W        W 7338   7.346   3.965   1.192  0.0221 -0.1692  0.1522
 3595W        W 7339   8.654   9.821  12.257 -0.1999 -0.1097 -0.0691
 3596W        W 7340   4.361   8.986   2.630 -0.0556 -0.1478  0.0190
 3597W        W 7341   8.320   1.999  11.070  0.1523  0.2307 -0.2610
 3598W        W 7342   3.864   5.775   7.981 -0.1137 -0.3123  0.1893
 3599W        W 7343   9.092   3.369   0.937  0.0484 -0.0698  0.1434
 3600W        W 7344   9.630   1.493   0.152 -0.3682  0.2637 -0.0643
 3601W        W 7345   8.470   1.058   9.689 -0.0141 -0.3120  0.2771
 3602W        W 7346   4.347   6.614   1.966  0.0210  0.1158  0.1493
 3603W        W 7347   0.791   8.337   2.692  0.1310 -0.1073  0.0981
 3604W        W 7348   1.279   2.535   8.636  0.4153  0.0401  0.0710
 3605W        W 7349   3.878   4.567  10.736 -0.1126 -0.3723  0.1819
 3606W        W 7350   5.840   3.473  10.769  0.3054 -0.2929 -0.1074
 3607W        W 7351   2.695   6.080   4.018 -0.2880 -0.0019 -0.0219
 3608W        W 7352   0.908   8.651   0.040  0.2313  0.0647  0.1657
 3609W        W 7353   5.312   7.258   0.791  0.1015 -0.0255 -0.0635
 3610W        W 7354   8.703   9.515   0.300 -0.1986 -0.0242 -0.0431
 3611W        W 7355   7.583   3.828  12.518  0.2254 -0.2626 -0.0627
 3612W        W 7356   4.497   5.593   3.228  0.0023 -0.2453  0.5429
 3613W        W 7357   4.493   8.583   9.425 -0.0028 -0.3017 -0.0385
 3614W        W 7358   2.030   4.542   3.726 -0.4735 -0.2057  0.2147
 3615W        W 7359   4.604   2.650  12.232  0.1860 -0.2237 -0.1567
 3616W        W 7360   4.394   7.519   2.375 -0.1451 -0.0261  0.0376
 3617W        W 7361   0.397   8.561  12.727 -0.0044 -0.1534  0.0324
 3618W        W 7362   5.462   5.590   4.488  0.1746  0.0313  0.2586
 3619W        W 7363   0.035   5.302   9.135 -0.1153 -0.0934 -0.2244
 3620W        W 7364   7.419   7.097   2.858 -0.1428 -0.1006  0.0497
 3621W        W 7365   0.447   2.972   1.739  0.0527  0.0037  0.0604
 3622W        W 7366   4.002   1.323   0.791  0.0901  0.0689  0.2181
 3623W        W 7367   5.982   5.294   1.033  0.1750  0.0264 -0.5150
 3624W        W 7368   5.346   3.090  10.115  0.1557 -0.3110  0.0693
 3625W        W 7369   7.377   9.017   0.996 -0.0736  0.2768  0.2090
 3626W        W 7370   3.951   1.063   8.939 -0.0831  0.2743 -0.0098
 3627W        W 7371   2.811   1.212  10.266  0.0564  0.3974 -0.1044
 3628W        W 7372   5.648   6.881   4.547  0.4077 -0.1812 -0.2613
 3629W        W 7373   2.348   8.230   4.299  0.3180  0.0945  0.5621
 3630W        W 7374   9.493   2.703  12.526  0.0103 -0.2473 -0.2243
 3631W        W 7375   5.954   2.356  12.309  0.1414 -0.0969  0.2052
 3632W        W 7376   6.316   4.103   0.362 -0.0606  0.0469  0.4858
 3633W        W 7377   2.149   7.183   9.687  0.1043 -0.1178  0.2468
 3634W        W 7378   7.728   2.455   8.953  0.2176  0.0229  0.0457
 3635W        W 7379   3.473   7.838   2.452 -0.0116 -0.0437 -0.2744
 3636W        W 7380   5.342   4.095   2.701 -0.2269 -0.2095 -0.0021
 3637W        W 7381   0.155   6.423   1.640 -0.1208 -0.1854 -0.1324
 3638W        W 7382   4.703   6.623   0.203 -0.2221  0.2788 -0.1912
 3639W        W 7383   9.662   3.337   1.810  0.2918  0.2391 -0.1661
 3640W        W 7384   7.817   1.526   2.934 -0.1154  0.0044 -0.2037
 3641W        W 7385   7.172   7.852   4.050 -0.0010  0.1096  0.1223
 3642W        W 7386   6.748   2.228  12.125 -0.1078 -0.0617 -0.2116
 3643W        W 7387   1.928   6.780   9.775 -0.1138  0.0635  0.0886
 3644W        W 7388   4.479   4.863   2.714 -0.0711 -0.2295 -0.3503
 3645W        W 7389   3.747   0.413   4.363  0.2153  0.2445 -0.0650
 3646W        W 7390   4.094   7.990   4.093  0.2103  0.0869 -0.0383
 3647W        W 7391   9.707   9.705   3.408 -0.1712 -0.1111  0.1232
 3648W        W 7392   0.849   1.048   0.590  0.3115 -0.1845 -0.2856
 3649W        W 7393   8.501   4.485   1.210 -0.0407  0.0927  0.0212
 3650W        W 7394   5.453   6.053   3.060 -0.1192  0.2660  0.0810
 3651W        W 7395   6.925   2.057   0.008  0.1515  0.1787  0.0622
 3652W        W 7396   1.803   9.454   4.424  0.2393 -0.2324  0.1880
 3653W        W 7397   6.078   3.959   0.842 -0.0060 -0.2372  0.2808
 3654W        W 7398   5.530   0.057   3.811  0.0808  0.0495  0.1064
 3655W        W 7399   7.466   8.410   8.912 -0.3646 -0.1671  0.0800
 3656W        W 7400   7.774   8.689  10.048  0.2282  0.3061 -0.2193
 3657W        W 7401   7.846   9.186  11.389 -0.0321  0.0996 -0.0016
 3658W        W 7402   6.799   5.314   1.562 -0.1528  0.0971 -0.4124
 3659W        W 7403   3.674   2.532  10.285  0.1330  0.0211 -0.1624
 3660W        W 7404   2.121   6.977   1.283  0.0386 -0.1403 -0.0510
 3661W        W 7405   9.711   3.326  10.920 -0.2917 -0.2494 -0.1742
 3662W        W 7406   5.591   2.564   3.563  0.4388 -0.2719 -0.1384
 3663W        W 7407   4.526   9.796   1.876  0.1014  0.1022 -0.1829
 3664W        W 7408   4.434   5.857  10.195  0.0777  0.0361 -0.2115
 3665W        W 7409   7.991   9.851  10.926 -0.1359  0.0369  0.1837
 3666W        W 7410   7.137   8.362   1.934 -0.3004 -0.0511 -0.0773
 3667W        W 7411   6.844   8.747   8.972 -0.0037  0.0620 -0.0658
 3668W        W 7412   1.170   4.620   1.046 -0.3789  0.1573  0.0433
 3669W        W 7413   2.100   5.044  12.009 -0.1801  0.2324  0.0726
 3670W        W 7414   9.638   1.983  12.069  0.0982 -0.0422  0.1547
 3671W        W 7415   3.960   0.588   1.886 -0.0634 -0.3374  0.2706
 3672W        W 7416   8.689   2.662   2.489 -0.0199 -0.1705 -0.0361
 3673W        W 7417   0.510   5.493   9.359 -0.0272 -0.0072  0.0265
 3674W        W 7418   1.294   5.477  12.592  0.1653 -0.1525 -0.0750
 3675W        W 7419   0.495   5.333   0.718  0.1485 -0.2206  0.2064
 3676W        W 7420   3.189   1.641  10.498  0.4637  0.1106 -0.0375
 3677W        W 7421   7.258   0.475   2.862 -0.0124  0.0790 -0.1063
 3678W        W 7422   4.457   1.366   4.252 -0.0050 -0.0045  0.1579
 3679W        W 7423   6.456   6.325  11.125  0.0194 -0.1662  0.2698
 3680W        W 7424   9.134   6.703   1.187 -0.0347  0.2682 -0.1278
 3681W        W 7425   1.536   4.304   0.103  0.0283 -0.1919 -0.0349
 3682W        W 7426   2.212   9.539  10.822  0.0837 -0.1209  0.2773
 3683W        W 7427   4.001   3.217   5.053 -0.0358 -0.2605 -0.1531
 3684W        W 7428   1.511   7.196   2.673  0.3059  0.3845 -0.4050
 3685W        W 7429   2.827   6.451  11.790 -0.1134  0.2382 -0.0902
 3686W        W 7430   0.585   8.119  12.025  0.1632  0.1180 -0.0630
 3687W        W 7431   6.377   7.935   2.633 -0.2214 -0.2503  0.2071
 3688W        W 7432   8.886   2.362   3.303 -0.0075  0.1024  0.1667
 3689W        W 7433   4.392   4.763  12.740  0.4805 -0.2070 -0.0237
 3690W        W 7434   0.397   4.430   1.865  0.1303  0.0709  0.2940
 3691W        W 7435   7.611   2.664   3.849 -0.2029 -0.1718  0.2996
 3692W        W 7436   7.697   1.812   0.145 -0.0592  0.5008  0.0293
 3693W        W 7437   0.257   5.278   4.392  0.2800  0.2021  0.0090
 3694W        W 7438   0.841   8.939   3.541 -0.1884  0.0545 -0.1073
 3695W        W 7439   1.710   7.861  11.322  0.1407  0.0331 -0.0442
 3696W        W 7440   8.284   3.558  10.985  0.1635 -0.4271  0.2311
 3697W        W 7441   7.924   1.593   1.736 -0.0894  0.0450  0.0023
 3698W        W 7442   7.489   2.994   3.331  0.0655 -0.4251 -0.0674
 3699W        W 7443   8.958   5.943  10.974  0.0070  0.0099 -0.0436
 3700W        W 7444   4.052   5.148   2.526  0.2413 -0.3255  0.4240
 3701W        W 7445   7.045   4.653   2.164  0.0021 -0.1237 -0.0241
 3702W        W 7446   4.567   6.158  11.881  0.1357 -0.0251  0.1143
 3703W        W 7447   7.051   1.404  11.290  0.1847 -0.1726  0.2545
 3704W        W 7448   2.135   8.888   2.622 -0.2712 -0.2370 -0.3751
 3705W        W 7449   6.551   4.214   8.500 -0.0996 -0.2045  0.1522
 3706W        W 7450   5.130   3.336  12.556  0.0944 -0.1088 -0.1611
 3707W        W 7451   8.530   6.494   9.676  0.3312  0.0057  0.4782
 3708W        W 7452   0.729   5.430   3.423 -0.1157 -0.3206 -0.0032
 3709W        W 7453   4.531   2.014  12.256 -0.2614 -0.0042 -0.0676
 3710W        W 7454   9.329   9.772   3.678  0.0633 -0.1220  0.0943
 3711W        W 7455   9.108   8.317   3.522  0.0308 -0.0408 -0.1424
 3712W        W 7456   1.198   1.801  10.033 -0.1032 -0.1100 -0.1514
 3713W        W 7457   2.246   3.943  10.261  0.0091  0.0744 -0.0228
 3714W        W 7458   4.576   7.049   7.763 -0.1442 -0.1105  0.4416
 3715W        W 7459   1.815   2.751   1.317  0.2051 -0.0386  0.0004
 3716W        W 7460   9.828   1.894   0.360 -0.2383 -0.0741  0.2435
 3717W        W 7461   2.798   2.495  10.527 -0.3118 -0.0113 -0.0670
 3718W        W 7462   2.960   5.315  11.583  0.0577 -0.0377 -0.2262
 3719W        W 7463   4.066   4.730   0.351  0.0779 -0.1642 -0.2424
 3720W        W 7464   8.669   7.452   2.262 -0.0865 -0.0641 -0.0484
 3721W        W 7465   1.926   5.732   2.333  0.0775 -0.1886 -0.1542
 3722W        W 7466   4.133   9.353  12.606 -0.0771 -0.0385  0.2630
 3723W        W 7467   4.853   0.006   0.246  0.0844 -0.1455  0.1996
 3724W        W 7468   9.920   2.246   0.041  0.3532 -0.0481  0.0691
 3725W        W 7469   5.696   0.070  11.869  0.0274  0.0358  0.2337
 3726W        W 7470   6.701   1.207   1.326  0.0137  0.0440  0.4571
 3727W        W 7471   4.294   1.657   0.452 -0.0577 -0.1304  0.1085
 3728W        W 7472   0.792   0.890   2.658 -0.0397  0.1296 -0.0475
 3729W        W 7473   2.158   7.997  10.080  0.1720  0.0698 -0.0210
 3730W        W 7474   1.408   1.409  10.936  0.2020  0.2046  0.2559
 3731W        W 7475   8.962   4.709   9.313 -0.1387 -0.2031 -0.0697
 3732W        W 7476   0.280   8.432   9.798 -0.1899  0.2130 -0.3047
 3733W        W 7477   3.139   2.973   0.424 -0.3286 -0.0201 -0.3137
 3734W        W 7478   5.575   4.123  10.396 -0.2683  0.2854  0.0517
 3735W        W 7479   6.782   7.423  11.505  0.1471  0.0796  0.0145
 3736W        W 7480   3.294   8.712  11.365 -0.2165 -0.0112  0.0043
 3737W        W 7481   5.332   0.093   0.512 -0.2597  0.0600 -0.2286
 3738W        W 7482   1.010   7.706   9.844  0.0763 -0.2021 -0.1642
 3739W        W 7483   4.029   8.817   3.184  0.2626  0.0660 -0.2914
 3740W        W 7484   9.046   3.727   3.303  0.1474 -0.1255 -0.2396
 3741W        W 7485   6.344   5.055   1.372  0.0600 -0.0329  0.3826
 3742W        W 7486   5.200   9.403   4.001 -0.0447  0.2264 -0.1276
 3743W        W 7487   4.492   2.957   9.707 -0.0323  0.0361 -0.2533
 3744W        W 7488   6.044   1.840   9.175 -0.3579  0.1331  0.0686
 3745W        W 7489   3.382   5.592  11.636  0.1355 -0.2085 -0.0569
 3746W        W 7490   4.965   7.501   8.574  0.4559  0.0684  0.0085
 3747W        W 7491   4.585   7.173   9.821 -0.0448 -0.1339 -0.0909
 3748W        W 7492   0.052   1.131   9.927  0.1373 -0.0435 -0.2687
 3749W        W 7493   3.310   1.053   3.704  0.3385 -0.3911 -0.3315
 3750W        W 7494   9.220   3.072   1.852 -0.1014 -0.1886  0.0228
 3751W        W 7495   3.159   4.103  11.281 -0.3128 -0.0348  0.1001
 3752W        W 7496   5.990   4.172   0.018 -0.1907 -0.0251 -0.0986
 3753W        W 7497   7.526   7.155  10.489  0.2077  0.1853 -0.0398
 3754W        W 7498   4.224   4.367   8.985  0.0245 -0.0892 -0.0889
 3755W        W 7499   1.933   8.841   1.832  0.1943  0.0092 -0.0854
 3756W        W 7500   6.486   9.554  12.306 -0.0737 -0.1382 -0.1928
 3757W        W 7501   4.478   1.446   8.755 -0.0077  0.0099  0.3541
 3758W        W 7502   8.915   8.485   0.085 -0.0072 -0.0721  0.1072
 3759W        W 7503   6.359   3.119  12.305 -0.0555 -0.1366 -0.0092
 3760W        W 7504   4.572   9.803  10.714 -0.1872 -0.1240  0.2230
 3761W        W 7505   3.096   7.116  12.515  0.0863  0.2605  0.3265
 3762W        W 7506   9.968   1.437   1.174  0.4062 -0.2940  0.1588
 3763W        W 7507   4.222   4.505  10.358 -0.0379 -0.0385 -0.3520
 3764W        W 7508   7.837   9.684   0.926  0.0569 -0.1220  0.0591
 3765W        W 7509   5.859   2.342   3.170 -0.2747 -0.2671 -0.0547
 3766W        W 7510   9.175   8.706   2.655 -0.3840  0.1818  0.2404
 3767W        W 7511   8.005   9.418   2.572 -0.1331 -0.1415  0.2418
 3768W        W 7512   2.532   8.112  10.852  0.1792  0.0885 -0.0505
 3769W        W 7513   6.104   5.762  10.131 -0.0115  0.0534  0.0179
 3770W        W 7514   4.567   6.667   3.076  0.1366  0.0858  0.1352
 3771W        W 7515   6.456   2.050   1.429  0.1919  0.1344  0.1351
 3772W        W 7516   6.648   5.706   1.150  0.2286 -0.2340  0.0037
 3773W        W 7517   2.431   2.959   0.522 -0.3140 -0.1570  0.2227
 3774W        W 7518   3.767   7.660   3.795  0.1098 -0.1903 -0.0335
 3775W        W 7519   1.037   9.657  12.550 -0.1715  0.0007 -0.0475
 3776W        W 7520   5.477   2.748  11.391 -0.5457 -0.1359 -0.1675
 3777W        W 7521   2.636   2.828  12.078  0.1105 -0.0714 -0.0734
 3778W        W 7522   1.814   3.335   3.032 -0.1847  0.0597 -0.0157
 3779W        W 7523   8.638   4.385  10.615 -0.1193  0.0860  0.2255
 3780W        W 7524   9.632   6.631   1.908 -0.0282 -0.1059 -0.0641
 3781W        W 7525   5.701   3.003   2.716 -0.0865  0.0611 -0.2153
 3782W        W 7526   0.057   8.400  11.315 -0.1256 -0.1551  0.1237
 3783W        W 7527   8.539   1.290  12.154 -0.0167  0.1049 -0.0509
 3784W        W 7528   0.136   4.223   1.491 -0.1725  0.1167  0.0352
 3785W        W 7529   2.406   4.750   1.845  0.4085  0.1867  0.1129
 3786W        W 7530   7.663   4.152   7.949 -0.5061 -0.2759 -0.1604
 3787W        W 7531   0.511   6.631   1.851 -0.2305  0.0563 -0.4118
 3788W        W 7532   3.413   8.158   4.264  0.3562 -0.0193 -0.1378
 3789W        W 7533   6.248   2.258   9.520  0.1797  0.1882 -0.0815
 3790W        W 7534   8.791   5.393   9.787 -0.1788 -0.0213  0.0223
 3791W        W 7535   7.592   1.318   9.888  0.0365  0.0788  0.0407
 3792W        W 7536   6.204   1.298   8.946 -0.0163 -0.0500 -0.0910
 3793W        W 7537   7.055   9.034   0.564 -0.1570 -0.1114  0.0473
 3794W        W 7538   2.665   1.368  10.723  0.1159  0.1897 -0.0068
 3795W        W 7539   4.551   1.101   0.821 -0.1698  0.0918  0.1173
 3796W        W 7540   2.888   2.891  10.848 -0.1011 -0.2076 -0.0013
 3797W        W 7541   5.186   9.066   2.374  0.0428 -0.1791  0.0551
 3798W        W 7542   2.124   6.113   8.713  0.1534  0.1807 -0.0647
 3799W        W 7543   1.298   1.068   8.932 -0.0998 -0.1151  0.0327
 3800W        W 7544   9.643   2.755   0.751 -0.0276 -0.1976  0.2870
 3801W        W 7545   8.849   0.982   3.351 -0.0784  0.1905 -0.0158
 3802W        W 7546   9.689   7.128  12.700  0.0413  0.3911 -0.2820
 3803W        W 7547   5.955   5.459   9.687  0.2346  0.2007  0.1836
 3804W        W 7548   9.706   7.983  11.401  0.2339  0.3583 -0.2433
 3805W        W 7549   0.910   4.139  12.081  0.2155 -0.2385 -0.4123
 3806W        W 7550   8.453   6.496  12.342  0.4363 -0.1352  0.2217
 3807W        W 7551   8.785   8.109  10.860  0.0800 -0.3289  0.1682
 3808W        W 7552   1.633   7.007   0.960  0.1084  0.1846  0.2748
 3809W        W 7553   2.664   5.716   2.341 -0.0832  0.1435  0.1150
 3810W        W 7554   5.797   2.674  11.011 -0.0494 -0.0357  0.1529
 3811W        W 7555   6.615   8.958   1.981  0.0757 -0.0853  0.1879
 3812W        W 7556   4.107   5.936   8.366 -0.1657 -0.2269 -0.1113
 3813W        W 7557   5.092   4.405   3.463 -0.2654 -0.0829  0.1870
 3814W        W 7558   3.524   3.983   0.329  0.0769 -0.0249 -0.0401
 3815W        W 7559   7.341   8.115   3.616  0.4575 -0.1465  0.0780
 3816W        W 7560   4.265   0.236   0.692  0.2065  0.0940  0.0554
 3817W        W 7561   6.363   0.138   2.777  0.1738 -0.2870  0.1049
 3818W        W 7562   1.919   6.641   1.644 -0.0213  0.0089 -0.0621
 3819W        W 7563   5.430   2.218  11.114  0.1491  0.0021 -0.2508
 3820W        W 7564   1.256   2.576   1.206  0.0368  0.2200 -0.0151
 3821W        W 7565   9.929   1.767  11.314 -0.0418  0.2601  0.0076
 3822W        W 7566   7.503   3.983   1.919  0.0314 -0.1990 -0.1240
 3823W        W 7567   3.636   2.676  11.786  0.2524 -0.0201 -0.2778
 3824W        W 7568   1.208   5.572   9.906 -0.0529  0.3567  0.0101
 3825W        W 7569   9.408   4.589   9.499  0.1098  0.1127 -0.1626
 3826W        W 7570   0.429   2.962   0.036 -0.0357 -0.2886  0.0791
 3827W        W 7571   2.613   6.381   2.073  0.0199 -0.2203 -0.0905
 3828W        W 7572   6.411   8.860  11.124 -0.1268  0.0582 -0.0246
 3829W        W 7573   1.665   3.397   2.367 -0.1275  0.1260 -0.3176
 3830W        W 7574   1.888   5.883   9.949 -0.2144  0.1099 -0.0485
 3831W        W 7575   8.618   8.675   2.362 -0.0419  0.0217 -0.0352
 3832W        W 7576   3.226   0.587   2.884 -0.1514  0.5434 -0.2619
 3833W        W 7577   3.493   7.896  11.721  0.2184  0.2360  0.0294
 3834W        W 7578   1.940   5.338   8.602 -0.0613 -0.0553 -0.4729
 3835W        W 7579   2.681   7.078   1.627 -0.2781 -0.1938 -0.0163
 3836W        W 7580   0.201   7.145  12.297  0.1506 -0.3464 -0.2113
 3837W        W 7581   8.398   9.157   1.040 -0.0467  0.0035 -0.1738
 3838W        W 7582   9.902   6.933  10.895  0.0301  0.2175 -0.0486
 3839W        W 7583   2.167   4.852   1.332  0.0521 -0.2178 -0.4140
 3840W        W 7584   2.800   3.909  12.293 -0.0882 -0.0058  0.0062
 3841W        W 7585   2.048   5.933  12.291  0.2835  0.0316  0.1015
 3842W        W 7586   4.912   3.732   8.773 -0.1359 -0.2765 -0.0709
 3843W        W 7587   0.654   1.413   1.565  0.2927 -0.0701  0.2009
 3844W        W 7588   6.408   9.452   1.879  0.0721 -0.0061  0.2950
 3845W        W 7589   9.225   1.981   3.364 -0.0592 -0.1473  0.1445
 3846W        W 7590   3.876   9.294   3.363 -0.1023 -0.2059  0.1741
 3847W        W 7591   7.912   3.771   9.985  0.0259  0.0578  0.0596
 3848W        W 7592   3.539   8.884   0.872 -0.2185 -0.1539 -0.1752
 3849W        W 7593   2.620   1.003   3.214 -0.2003  0.0172 -0.0612
 3850W        W 7594   1.362   2.393   3.135 -0.3167  0.0202 -0.3365
 3851W        W 7595   9.531   4.493   3.365 -0.4641 -0.0648  0.2222
 3852W        W 7596   1.920   3.675  12.484 -0.0431 -0.1781  0.1797
 3853W        W 7597   6.303   5.108   3.354 -0.0468 -0.0256 -0.1764
 3854W        W 7598   0.113   2.528   3.253  0.0275  0.0226  0.2619
 3855W        W 7599   9.620   0.019   8.754  0.0644 -0.1513 -0.1826
 3856W        W 7600   4.091   5.091   1.209  0.2295  0.2447  0.1528
 3857W        W 7601   9.208   9.897  12.113  0.2125  0.1379 -0.0366
 3858W        W 7602   8.640   4.248   8.951  0.0305  0.0311  0.0379
 3859W        W 7603   8.000   4.191   1.187 -0.4681 -0.0743 -0.4612
 3860W        W 7604   9.168   8.642   9.799 -0.2022 -0.0448 -0.0073
 3861W        W 7605   2.819   9.186   9.389  0.0384  0.0675 -0.0378
 3862W        W 7606   7.837   9.225   1.068  0.0622 -0.1930 -0.2135
 3863W        W 7607   3.180   2.050  11.241  0.0495 -0.0980 -0.1628
 3864W        W 7608   5.533   0.024   9.629  0.0117  0.4518 -0.0680
 3865W        W 7609   6.237   1.582   2.204 -0.3821 -0.0046  0.0402
 3866W        W 7610   7.595   1.910  10.228 -0.1634 -0.0664 -0.3605
 3867W        W 7611   8.251   2.588   4.535  0.0973 -0.0976  0.0542
 3868W        W 7612   7.687   6.801  12.525 -0.3273  0.1139  0.0360
 3869W        W 7613   9.518   2.177   0.735 -0.2433  0.1616 -0.2339
 3870W        W 7614   7.942   3.380   4.042  0.1449 -0.5277 -0.1629
 3871W        W 7615   6.412   3.814   4.009 -0.3236  0.2833  0.1183
 3872W        W 7616   3.256   9.250   2.683 -0.0266  0.1511 -0.2358
 3873W        W 7617   3.815   2.275  12.428 -0.0959 -0.1207  0.2290
 3874W        W 7618   6.014   1.624   3.238  0.0064  0.1552 -0.2065
 3875W        W 7619   0.505   6.942   4.264 -0.0884 -0.1648 -0.0302
 3876W        W 7620   3.309   6.879  10.284  0.1465 -0.2190  0.0643
 3877W        W 7621   0.914   4.689   1.577 -0.1322 -0.1267 -0.1086
 3878W        W 7622   4.515   5.054   2.248 -0.2452 -0.1405  0.0271
 3879W        W 7623   4.086   4.565   8.165 -0.0962  0.1767  0.0099
 3880W        W 7624   6.781   7.330   9.080  0.1755  0.1993 -0.0073
 3881W        W 7625   5.134   2.082   9.046  0.4674 -0.1284  0.2481
 3882W        W 7626   9.366   8.299   1.499 -0.1013 -0.0275  0.0123
 3883W        W 7627   3.044   0.859   1.828  0.1087 -0.1591  0.2378
 3884W        W 7628   9.482   0.560   1.261 -0.1644  0.0432 -0.0464
 3885W        W 7629   7.094   4.148   2.493 -0.2150  0.2132  0.1141
 3886W        W 7630   7.782   9.707  11.388  0.1561  0.0347  0.0989
 3887W        W 7631   4.993   2.140   4.032  0.1296 -0.0511 -0.0346
 3888W        W 7632   2.066   0.536  12.182  0.2456  0.0920  0.2170
 3889W        W 7633   6.441   6.988  12.197  0.1235  0.1924  0.0161
 3890W        W 7634   0.756   2.938   9.830  0.0609 -0.0494  0.0925
 3891W        W 7635   3.702   4.076   1.416  0.4042 -0.1664 -0.0603
 3892W        W 7636   3.979   2.130   4.065  0.1579  0.1783  0.0266
 3893W        W 7637   5.975   2.917   2.229 -0.1244  0.0439 -0.1703
 3894W        W 7638   6.530   6.036   0.769  0.2443 -0.2100  0.0573
 3895W        W 7639   5.033   0.692   4.654 -0.0608  0.0631 -0.2583
 3896W        W 7640   5.434   7.740   3.624 -0.1917 -0.1406  0.1029
 3897W        W 7641   5.419   6.174   9.590 -0.0952 -0.1745 -0.2540
 3898W        W 7642   7.387   3.040  10.128  0.2319 -0.0676 -0.0620
 3899W        W 7643   8.611   2.706   0.654 -0.0633 -0.1133  0.0774
 3900W        W 7644   9.753   6.273   2.827 -0.2203  0.5548 -0.0987
 3901W        W 7645   1.159   3.287  11.134  0.0563 -0.1509 -0.2189
 3902W        W 7646   6.133   2.531   4.127 -0.1864 -0.3924  0.0981
 3903W        W 7647   2.835   3.854  10.874  0.1919 -0.0809 -0.0444
 3904W        W 7648   0.740   7.279   3.736 -0.1205  0.0767 -0.0643
 3905W        W 7649   7.499   0.466  11.439 -0.2488 -0.2374  0.0852
 3906W        W 7650   0.409   0.775   9.535 -0.1549  0.1239  0.0452
 3907W        W 7651   5.536   5.578   3.309  0.0203 -0.0654  0.1909
 3908W        W 7652   5.386   2.317   8.660 -0.0161  0.0133  0.2913
 3909W        W 7653   7.905   7.183   2.777 -0.2571 -0.1740 -0.1701
 3910W        W 7654   1.528   9.685  12.395  0.0996 -0.3456  0.2171
 3911W        W 7655   1.126   1.817  11.098  0.0578  0.0167 -0.0294
 3912W        W 7656   3.361   2.210   4.161  0.1943 -0.3069 -0.1111
 3913W        W 7657   0.644   6.651  11.777  0.2349  0.0988  0.0651
 3914W        W 7658   9.245   5.063   9.500  0.2676 -0.0165  0.2622
 3915W        W 7659   3.021   7.747  11.521  0.1384  0.0896  0.0189
 3916W        W 7660   5.088   3.341   9.066  0.1316 -0.3750  0.1365
 3917W        W 7661   2.302   0.280   1.262 -0.3575 -0.0774  0.0592
 3918W        W 7662   5.383   0.858   8.900 -0.1535  0.1645  0.0878
 3919W        W 7663   9.490   4.977   3.239  0.1307  0.2249 -0.0169
 3920W        W 7664   0.274   4.337  10.245 -0.0827 -0.2488 -0.1863
 3921W        W 7665   2.122   5.352   2.743 -0.0129  0.2577 -0.2297
 3922W        W 7666   9.415   7.079   0.934  0.2542  0.0364 -0.0357
 3923W        W 7667   9.110   7.635   9.206 -0.4633  0.1701 -0.1403
 3924W        W 7668   2.024   7.570   3.664  0.3760  0.3503  0.2110
 3925W        W 7669   4.187   6.359   9.513  0.3341  0.0332  0.3587
 3926W        W 7670   7.030   6.939  10.654 -0.0941  0.2550 -0.0790
 3927W        W 7671   1.869   5.834  10.871  0.1529  0.4771  0.0659
 3928W        W 7672   9.030   2.972  12.490 -0.1229 -0.0491  0.1157
 3929W        W 7673   2.945   8.049   7.907  0.0103 -0.0763 -0.0897
 3930W        W 7674   0.268   8.163   0.219  0.1914  0.0061 -0.2560
 3931W        W 7675   3.519   3.795  10.244  0.0783  0.2141 -0.1721
 3932W        W 7676   4.496   3.272   3.195  0.1365  0.1033 -0.1596
 3933W        W 7677   8.814   6.161   2.524  0.0537 -0.1495  0.1530
 3934W        W 7678   2.630   0.251   3.665  0.1550  0.0448 -0.4085
 3935W        W 7679   0.153   7.976   8.868 -0.3843 -0.1081  0.1701
 3936W        W 7680   9.868   5.534  10.467 -0.0665  0.2829  0.1054
 3937W        W 7681   5.799   2.317   9.298  0.1505 -0.3953 -0.2221
 3938W        W 7682   3.568   2.784   0.292 -0.1246  0.1061  0.1684
 3939W        W 7683   2.030   8.945   3.346  0.1884 -0.3976 -0.0801
 3940W        W 7684   4.276   0.095  10.456  0.3720  0.1848  0.2317
 3941W        W 7685   6.880   4.366   9.397  0.0127  0.2314 -0.0815
 3942W        W 7686   8.951   2.178   8.707  0.1163  0.0466  0.4132
 3943W        W 7687   5.918   9.980   9.202  0.0430 -0.0856  0.0716
 3944W        W 7688   9.755   4.941   9.750  0.2885  0.1881 -0.0835
 3945W        W 7689   4.393   9.623   9.264  0.0520 -0.2335  0.0756
 3946W        W 7690   6.840   2.929  11.164 -0.0878  0.0847 -0.1089
 3947W        W 7691   1.120   6.374   2.591  0.1651 -0.1836  0.0096
 3948W        W 7692   8.442   4.266   2.578 -0.1377  0.2525  0.1840
 3949W        W 7693   0.418   4.299  12.031 -0.0499  0.1542  0.2442
 3950W        W 7694   3.197   2.284   1.206 -0.1114 -0.3343  0.0622
 3951W        W 7695   7.194   0.671   9.986 -0.0006 -0.1400  0.3590
 3952W        W 7696   7.864   4.611  12.600 -0.0092 -0.3682  0.1481
 3953W        W 7697   6.658   4.149   1.562 -0.1372  0.2623 -0.0798
 3954W        W 7698   7.313   2.512  10.256 -0.0005  0.0375 -0.0102
 3955W        W 7699   2.158   6.436  11.784 -0.3709  0.4477 -0.0208
 3956W        W 7700   1.039   1.009   0.117  0.0384  0.1464  0.0159
 3957W        W 7701   4.131   4.123   2.679 -0.2810 -0.0517 -0.0532
 3958W        W 7702   4.884   1.765   2.336 -0.1062 -0.4674 -0.0873
 3959W        W 7703   0.012   1.021   0.827  0.1787  0.2289  0.1971
 3960W        W 7704   5.318   0.035   1.027  0.1496  0.3302  0.1460
 3961W        W 7705   4.951   6.607   1.770 -0.3985  0.2324  0.0920
 3962W        W 7706   5.734   6.308   8.942  0.3254 -0.5091  0.0500
 3963W        W 7707   3.132   6.886   3.459 -0.0227 -0.1575  0.2635
 3964W        W 7708   3.862   0.101   2.228 -0.2500  0.1299  0.3734
 3965W        W 7709   5.632   1.318   3.342  0.2778  0.2667 -0.0894
 3966W        W 7710   0.676   7.029   0.961 -0.2954  0.0100 -0.0452
 3967W        W 7711   2.017   8.192   0.219  0.0726  0.0443 -0.0714
 3968W        W 7712   3.602   7.538  10.769 -0.0601  0.0405 -0.0506
 3969W        W 7713   2.226   1.611   0.512 -0.0005  0.4084 -0.2769
 3970W        W 7714   4.118   6.080   9.087  0.1792 -0.1819  0.1758
 3971W        W 7715   8.012   4.844  11.626 -0.1587  0.3185  0.1781
 3972W        W 7716   4.209   8.815   0.137  0.1248 -0.1268  0.1640
 3973W        W 7717   9.225   6.271   8.613 -0.1404  0.1559 -0.1350
 3974W        W 7718   3.826   7.583   0.964 -0.0887  0.1712 -0.2943
 3975W        W 7719   4.132   7.465   4.140  0.3869 -0.0651  0.1086
 3976W        W 7720   2.772   3.932   0.449 -0.1020  0.4690 -0.1396
 3977W        W 7721   2.800   9.156   3.627 -0.1487  0.1411  0.3843
 3978W        W 7722   3.755   9.380   0.471 -0.2077 -0.1482 -0.0567
 3979W        W 7723   4.324   1.195   9.413  0.0230  0.0269  0.2406
 3980W        W 7724   0.305   0.563  11.767  0.1135  0.0201 -0.2132
 3981W        W 7725   6.224   5.677   2.144  0.1123  0.3446 -0.0032
 3982W        W 7726   7.274   7.294   1.988 -0.0891  0.0006  0.0230
 3983W        W 7727   2.251   2.548   0.246  0.0899 -0.1075  0.2948
 3984W        W 7728   4.061   8.998   3.814 -0.0957  0.0351  0.2257
 3985W        W 7729   6.950   4.860   9.543  0.1164 -0.1072 -0.1529
 3986W        W 7730   4.861   6.137   2.152  0.1916 -0.1564  0.3655
 3987W        W 7731   5.483   5.479   1.120 -0.0373  0.0671  0.0621
 3988W        W 7732   0.664   9.022  11.464  0.0187  0.1061 -0.1046
 3989W        W 7733   7.806   9.317   0.083 -0.2288 -0.0386  0.1839
 3990W        W 7734   5.356   2.007   3.738 -0.2644 -0.2697  0.1192
 3991W        W 7735   3.201   8.603   4.343  0.0933 -0.4373 -0.0010
 3992W        W 7736   9.764   4.353   3.827 -0.0459 -0.2231 -0.1689
 3993W        W 7737   9.973   4.760   2.053 -0.1193  0.0590  0.0722
 3994W        W 7738   8.661   8.448   2.871  0.1981 -0.1245 -0.1435
 3995W        W 7739   6.581   0.668   1.674  0.1261 -0.1799  0.1560
 3996W        W 7740   4.389   3.554   1.340 -0.2609 -0.3252 -0.1074
 3997W        W 7741   7.809   3.487   8.684  0.0797 -0.0866  0.0388
 3998W        W 7742   2.526   2.610  10.122  0.0218 -0.0390 -0.1019
 3999W        W 7743   2.196   6.514  11.282  0.1116  0.3884  0.0667
 4000W        W 7744   7.190   0.714  10.507 -0.3221  0.0863  0.1991
 4001W        W 7745   1.306   3.449   0.956  0.1662  0.1439  0.1267
 4002W        W 7746   6.134   3.682   3.650 -0.0735  0.0690 -0.0790
 4003W        W 7747   6.178   1.926   9.955  0.0001 -0.4003 -0.5181
 4004W        W 7748   8.731   6.678   1.504 -0.1833  0.0554  0.0798
 4005W        W 7749   4.074   5.802   9.689 -0.0302 -0.1333 -0.2282
 4006W        W 7750   2.295   5.884   2.656  0.2769 -0.1255 -0.0100
 4007W        W 7751   7.228   1.213  12.337  0.2768  0.1931  0.0015
 4008W        W 7752   0.565   3.237   9.402  0.2077 -0.1515 -0.1985
 4009W        W 7753   7.176   4.365   1.746 -0.0390 -0.2205  0.0774
 4010W        W 7754   4.471   2.822   0.067 -0.0134 -0.0579  0.0005
 4011W        W 7755   4.800   8.119  12.107  0.4631 -0.0474 -0.2039
 4012W        W 7756   1.059   5.242   3.792  0.0073 -0.2401  0.3254
 4013W        W 7757   2.167   3.869   0.304  0.0801  0.0440 -0.1442
 4014W        W 7758   6.868   8.091   3.487  0.2326  0.2267 -0.3701
 4015W        W 7759   6.327   4.862   7.570  0.4979 -0.0867  0.0545
 4016W        W 7760   6.055   6.349  11.827  0.0975  0.2572  0.0428
 4017W        W 7761   5.119   8.438  10.718  0.0054  0.0938  0.1834
 4018W        W 7762   7.895   3.124   2.319 -0.1870 -0.0374  0.1882
 4019W        W 7763   9.941   4.864   2.526 -0.1179 -0.2926  0.0135
 4020W        W 7764   7.381   0.021   1.023 -0.0327  0.0993  0.1059
 4021W        W 7765   7.948   4.390  11.309  0.1473 -0.5235 -0.0295
 4022W        W 7766   6.611   9.962  10.880  0.0128  0.3665  0.1002
 4023W        W 7767   6.894   6.560  10.941  0.1046 -0.1129 -0.3586
 4024W        W 7768   7.332   7.637   3.556 -0.0903 -0.0735 -0.1714
 4025W        W 7769   0.432   6.763   0.551 -0.0122  0.2615 -0.3495
 4026W        W 7770   7.203   7.145  11.453 -0.2754 -0.0315  0.1783
 4027W        W 7771   2.690   7.284   2.767 -0.3895 -0.1147 -0.2866
 4028W        W 7772   6.476   6.840  10.925 -0.0994 -0.1905 -0.0305
 4029W        W 7773   6.848   4.195   3.918  0.1594 -0.0487  0.0789
 4030W        W 7774   8.035   4.969   8.101 -0.0154 -0.0588 -0.1071
 4031W        W 7775   7.748   6.535  11.620  0.2604 -0.2986 -0.0537
 4032W        W 7776   7.003   4.699  12.374 -0.2776 -0.0618 -0.2825
 4033W        W 7777   6.641   2.271   2.707  0.1303 -0.0178 -0.6106
 4034W        W 7778   8.858   9.195  11.473 -0.3022 -0.2982  0.1346
 4035W        W 7779   2.444   6.415   8.474 -0.0869 -0.2196 -0.2439
 4036W        W 7780   5.485   1.161   2.865 -0.1640  0.2483  0.0023
 4037W        W 7781   4.347   3.527   2.669 -0.0323  0.0121  0.3260
 4038W        W 7782   3.492   4.340  12.653 -0.2258 -0.2712  0.0669
 4039W        W 7783   5.742   5.240   9.307  0.0482  0.1326 -0.1539
 4040W        W 7784   6.323   3.092   3.917 -0.2818 -0.2950 -0.0556
 4041W        W 7785   3.787   0.157   9.211  0.0582  0.0553  0.5888
 4042W        W 7786   8.264   3.620   3.060  0.0387  0.1646  0.1808
 4043W        W 7787   8.977   0.952   1.341 -0.1111  0.0985 -0.1405
 4044W        W 7788   7.911   0.977  11.673  0.0673  0.0031  0.1356
 4045W        W 7789   7.676   7.141   2.292  0.0028 -0.0060 -0.0524
 4046W        W 7790   3.722   8.176   3.837 -0.1123  0.3136 -0.0490
 4047W        W 7791   1.531   6.693   2.709  0.2413  0.0790 -0.0107
 4048W        W 7792   8.209   8.228   0.833  0.2424 -0.4175  0.2601
 4049W        W 7793   9.605   9.321  10.239  0.3376  0.1432 -0.0451
 4050W        W 7794   0.858   7.943   4.179 -0.3442 -0.0037  0.0931
 4051W        W 7795   1.386   6.733   9.671 -0.0115 -0.3910  0.0299
 4052W        W 7796   3.160   5.885   3.163 -0.0956  0.1429  0.0431
 4053W        W 7797   7.950   1.990  10.617  0.0162  0.2716  0.1070
 4054W        W 7798   3.244   3.955   1.620 -0.2155 -0.2148  0.1852
 4055W        W 7799   3.612   5.412   9.667 -0.2427  0.3958  0.3809
 4056W        W 7800   8.995   8.118  12.533  0.3283 -0.3207  0.1437
 4057W        W 7801   2.995   5.807  11.483  0.0026  0.1003  0.1537
 4058W        W 7802   8.135   5.190   2.754 -0.2129  0.2613  0.1562
 4059W        W 7803   3.910   0.568  10.173  0.1088  0.1017  0.1440
 4060W        W 7804   3.116   6.858   4.632 -0.0596  0.1188  0.2453
 4061W        W 7805   9.122   7.209   0.500  0.0143  0.1941  0.3386
 4062W        W 7806   5.035   5.723   2.508 -0.0961  0.2266  0.1659
 4063W        W 7807   5.233   3.132   2.529 -0.3321  0.1483 -0.0758
 4064W        W 7808   6.443   9.070   9.695 -0.1789  0.2908  0.3038
 4065W        W 7809   3.491   1.263  11.734  0.2582 -0.1664  0.1313
 4066W        W 7810   8.559   8.597  10.787  0.0473 -0.1848 -0.0418
 4067W        W 7811   2.983   4.413   3.863  0.0478  0.0078 -0.1194
 4068W        W 7812   9.879   6.975   1.497 -0.1669  0.0245  0.1001
 4069W        W 7813   3.195   0.855  10.326  0.1422  0.0511  0.0621
 4070W        W 7814   3.832   0.973   9.425 -0.0220  0.3645 -0.2244
 4071W        W 7815   7.447   6.072  10.965 -0.3278  0.0399  0.2918
 4072W        W 7816   5.953   1.674   4.265 -0.0519 -0.1804  0.0174
 4073W        W 7817   1.687   2.917   3.273 -0.2361  0.2520 -0.2561
 4074W        W 7818   7.066   3.410  11.350 -0.0084 -0.1412  0.1212
 4075W        W 7819   5.586   3.934   2.257 -0.1254 -0.0996  0.2084
 4076W        W 7820   7.257   6.850   2.371 -0.2672  0.4538 -0.0865
 4077W        W 7821   9.611   2.162   8.247  0.1003  0.0846 -0.0731
 4078W        W 7822   6.361   0.999  10.409 -0.2594 -0.4525 -0.0922
 4079W        W 7823   3.962   8.470   4.963  0.0210 -0.1884 -0.0444
 4080W        W 7824   1.698   6.162  11.880 -0.1059 -0.0606 -0.0289
 4081W        W 7825   5.687   7.294  10.894  0.0613  0.2600  0.2642
 4082W        W 7826   4.398   1.930   2.590  0.1073 -0.1279 -0.0920
 4083W        W 7827   0.960   8.324  11.187 -0.0851 -0.1919  0.0937
 4084W        W 7828   2.961   0.507   0.518 -0.0027 -0.2157  0.2990
 4085W        W 7829   0.995   9.939  11.307 -0.0617  0.0791 -0.2153
 4086W        W 7830   5.082   2.779  10.425 -0.0696  0.2537  0.0192
 4087W        W 7831   0.680   5.401   4.156 -0.1220 -0.2952  0.2202
 4088W        W 7832   8.261   3.392   1.110 -0.1430 -0.1734 -0.1011
 4089W        W 7833   5.092   7.261  11.956 -0.1769  0.1748 -0.1446
 4090W        W 7834   9.467   0.391   0.022 -0.1088 -0.2143 -0.2053
 4091W        W 7835   5.464   6.748   1.734  0.1574 -0.2279 -0.1821
 4092W        W 7836   3.481   4.622  11.357 -0.0489 -0.0999  0.1924
 4093W        W 7837   7.033   1.587  10.794 -0.0695  0.2008  0.2533
 4094W        W 7838   8.866   4.150   3.891 -0.2107  0.1440 -0.0458
 4095W        W 7839   6.408   1.316   0.304 -0.3783  0.1413 -0.1530
 4096W        W 7840   5.717   5.177   0.029  0.0858  0.0775  0.3205
 4097W        W 7841   8.254   0.523  10.929  0.0699  0.1625 -0.1589
 4098W        W 7842   0.290   9.967   1.242  0.1209  0.2878  0.0020
 4099W        W 7843   8.619   2.686   9.365  0.0278  0.2259  0.1358
 4100W        W 7844   5.755   4.318  11.374  0.3509  0.2637 -0.0239
 4101W        W 7845   1.921   8.205   1.988 -0.1006  0.0257  0.0825
 4102W        W 7846   6.081   6.878  11.905  0.4097  0.0382  0.1732
 4103W        W 7847   1.083   8.037   9.470  0.1722 -0.1421 -0.1856
 4104W        W 7848   5.887   5.064   3.097 -0.0315  0.0386  0.0959
 4105W        W 7849   6.827   8.257   0.322 -0.0001  0.0760  0.3132
 4106W        W 7850   2.272   3.285   8.545 -0.1169 -0.1369 -0.1035
 4107W        W 7851   0.532   1.584  11.255 -0.3307 -0.0565 -0.2905
 4108W        W 7852   6.087   4.280  12.195 -0.1918  0.2263  0.3163
 4109W        W 7853   1.277   5.063   2.772 -0.0528 -0.0717  0.2833
 4110W        W 7854   5.899   2.844   1.365 -0.0549 -0.3173  0.3175
 4111W        W 7855   5.285   6.102  10.501 -0.4280  0.0210  0.1052
 4112W        W 7856   7.346   3.519   3.205 -0.0073  0.0122 -0.1871
 4113W        W 7857   4.627   2.245   1.304 -0.0647 -0.0504 -0.1588
 4114W        W 7858   8.817   7.941   9.375  0.2224 -0.0343 -0.2430
 4115W        W 7859   2.712   0.990   2.309 -0.0323  0.0585 -0.0442
 4116W        W 7860   6.567   3.995   3.565  0.0162 -0.2094  0.1261
 4117W        W 7861   8.112   9.197   3.034  0.2084  0.2209  0.0100
 4118W        W 7862   4.562   9.278  11.705 -0.1090 -0.0605  0.2597
 4119W        W 7863   0.139   5.628   4.044  0.1600  0.0831 -0.2683
 4120W        W 7864   0.261   4.170   3.739 -0.0373 -0.0390  0.1676
 4121W        W 7865   2.629   9.590   3.022 -0.3303  0.3083 -0.2368
 4122W        W 7866   7.449   9.668  10.215  0.0034 -0.2172  0.0623
 4123W        W 7867   0.320   0.726   2.489  0.0806 -0.1564 -0.0577
 4124W        W 7868   8.134   3.233   2.723  0.1764 -0.0032 -0.2657
 4125W        W 7869   4.662   3.601  12.377  0.0038  0.2141  0.1259
 4126W        W 7870   9.774   4.600   0.627  0.0820  0.1273 -0.0464
 4127W        W 7871   8.436   1.853   3.972  0.3312  0.3636  0.0169
 4128W        W 7872   3.623   8.003  11.167  0.0177  0.2127  0.2048
 4129W        W 7873   0.611   1.590  12.574  0.0058  0.2704 -0.3126
 4130W        W 7874   2.533   5.407  12.073  0.4024  0.1274  0.0669
 4131W        W 7875   5.582   6.794   8.823  0.0229 -0.2908  0.2278
 4132W        W 7876   0.782   5.965   1.039 -0.2808 -0.1161  0.2172
 4133W        W 7877   4.437   5.324  10.131 -0.1246  0.2588  0.4085
 4134W        W 7878   0.650   0.237  11.997  0.0420  0.0126 -0.2106
 4135W        W 7879   4.625   3.927   2.629 -0.0151  0.0858 -0.0215
 4136W        W 7880   9.456   1.872  10.730 -0.1602 -0.0161  0.1171
 4137W        W 7881   4.866   1.317   9.647  0.0114  0.0585 -0.0154
 4138W        W 7882   8.231   1.770   0.027  0.1655 -0.1495  0.0411
 4139W        W 7883   7.063   5.847   2.293  0.3927 -0.0630  0.1064
 4140W        W 7884   0.266   1.046   3.868 -0.1914 -0.0586 -0.2244
 4141W        W 7885   0.793   6.768   1.445  0.4332 -0.3136  0.0713
 4142W        W 7886   6.737   5.614   2.006 -0.0972 -0.2708 -0.0359
 4143W        W 7887   6.432   8.095   9.799  0.0392 -0.1760  0.1798
 4144W        W 7888   8.678   4.014  12.585 -0.3496 -0.1309 -0.0839
 4145W        W 7889   8.624   2.298   0.922 -0.1163  0.0172 -0.4533
 4146W        W 7890   6.472   5.734  11.207 -0.3383  0.3595  0.1376
 4147W        W 7891   8.606   0.108   1.772 -0.1654 -0.0583 -0.2256
 4148W        W 7892   9.915   2.483   7.586  0.1171 -0.1541  0.0646
 4149W        W 7893   4.972   9.559   9.348  0.0167  0.1727  0.0736
 4150W        W 7894   9.913   6.141   3.520 -0.0374 -0.1388 -0.3132
 4151W        W 7895   1.296   0.144   1.330  0.0414  0.0414 -0.0755
 4152W        W 7896   1.729   5.627   1.437  0.0615 -0.2155  0.2617
 4153W        W 7897   9.412   9.159   9.858  0.0592  0.3370 -0.1407
 4154W        W 7898   4.582   4.161  10.554 -0.2314  0.3188  0.0362
 4155W        W 7899   6.575   4.451   1.976  0.0412  0.0518 -0.1578
 4156W        W 7900   4.749   3.360  10.984 -0.3261  0.0151 -0.1100
 4157W        W 7901   7.674   1.240   2.332 -0.3331 -0.3518 -0.1111
 4158W        W 7902   8.263   6.805   0.543 -0.3497  0.3071 -0.1722
 4159W        W 7903   0.308   8.088  12.470  0.0738 -0.0393  0.0262
 4160W        W 7904   6.788   4.680  10.936 -0.2130  0.0731  0.0672
 4161W        W 7905   5.248   3.742   1.192 -0.0829  0.0391 -0.1394
 4162W        W 7906   2.564   1.865  10.911  0.1434 -0.1534  0.1390
 4163W        W 7907   4.551   3.931   9.966 -0.0711 -0.0875 -0.0789
 4164W        W 7908   7.862   4.086   2.277  0.0521  0.0624  0.1513
 4165W        W 7909   6.159   5.775   0.900  0.1676  0.0362  0.0714
 4166W        W 7910   4.408   6.345  10.903  0.2792  0.2314  0.0024
 4167W        W 7911   8.480   1.462   9.187 -0.0453  0.1091  0.1041
 4168W        W 7912   3.557   2.891   0.808 -0.2376  0.2522  0.0184
 4169W        W 7913   2.841   5.350  12.541  0.0786 -0.1838 -0.0933
 4170W        W 7914   4.602   7.895   8.669  0.1345 -0.1349  0.0375
 4171W        W 7915   3.954   4.863  11.131  0.4480  0.0131  0.4015
 4172W        W 7916   1.884   3.753   1.028 -0.0958  0.0583 -0.2184
 4173W        W 7917   4.383   4.707  11.570  0.1140 -0.3102  0.0700
 4174W        W 7918   6.735   2.593   9.659  0.0425 -0.2446  0.1653
 4175W        W 7919   1.096   3.652   3.143  0.2218 -0.0387 -0.0497
 4176W        W 7920   5.022   7.988   9.570 -0.1145  0.0727 -0.0111
 4177W        W 7921   6.157   4.668   2.304  0.0473 -0.0175  0.0272
 4178W        W 7922   7.517   2.229  11.396 -0.4517  0.3199 -0.1587
 4179W        W 7923   9.105   4.644   0.619  0.0907  0.1285  0.1895
 4180W        W 7924   1.102   6.887   2.851 -0.0130 -0.1606 -0.1493
 4181W        W 7925   7.254   2.158  11.888  0.4452 -0.4484  0.2787
 4182W        W 7926   3.833   2.962   9.655  0.4129  0.3990 -0.0203
 4183W        W 7927   6.498   4.997   9.745 -0.2588 -0.1010  0.0953
 4184W        W 7928   1.415   2.105  12.366 -0.1482 -0.0838  0.2011
 4185W        W 7929   7.339   4.052   9.285  0.1307  0.4434  0.0045
 4186W        W 7930   0.476   9.323   9.748 -0.1341  0.2325  0.2469
 4187W        W 7931   2.538   9.728   0.335 -0.0388  0.1078 -0.2148
 4188W        W 7932   2.999   0.449   9.095 -0.2560  0.0256  0.0119
 4189W        W 7933   0.042   7.141   9.242 -0.3918 -0.0621 -0.0644
 4190W        W 7934   6.926   2.802  10.140  0.0817 -0.0477  0.3738
 4191W        W 7935   3.594   1.544   8.008  0.0254 -0.0830  0.1413
 4192W        W 7936   1.289   9.709   9.952  0.4667 -0.1987  0.0181
 4193W        W 7937   9.674   6.497   3.865 -0.1687 -0.2773 -0.1278
 4194W        W 7938   7.717   4.871   9.528  0.3309 -0.0490  0.2178
 4195W        W 7939   2.039   1.263  11.544 -0.0885  0.0324 -0.1627
 4196W        W 7940   8.366   3.683  10.187  0.0083 -0.5812 -0.0147
 4197W        W 7941   0.637   1.667   4.315  0.0817  0.0815  0.0766
 4198W        W 7942   2.673   3.085   0.961  0.1196 -0.0439 -0.1458
 4199W        W 7943   8.201   0.046  12.131 -0.4845 -0.1002 -0.1239
 4200W        W 7944   6.886   1.512   9.901 -0.0639 -0.0230 -0.0825
 4201W        W 7945   2.689   7.537   9.383  0.0029 -0.1846 -0.0090
 4202W        W 7946   1.581   5.878  12.375  0.2997 -0.1211 -0.0103
 4203W        W 7947   1.979   2.458  11.730  0.1190  0.2943 -0.0131
 4204W        W 7948   7.104   7.409   2.582 -0.0788  0.2701 -0.0222
 4205W        W 7949   3.665   2.528   9.364 -0.0048  0.0218 -0.1152
 4206W        W 7950   2.402   5.936   1.920 -0.0056 -0.1615  0.2333
 4207W        W 7951   0.128   9.628   0.806  0.0957  0.0673  0.3327
 4208W        W 7952   6.695   1.961   0.622 -0.1624 -0.0299  0.0092
 4209W        W 7953   1.900   6.832   0.058  0.2320  0.0113 -0.1550
 4210W        W 7954   7.835   8.086   9.679 -0.1336 -0.0149 -0.0528
 4211W        W 7955   6.320   2.328   3.334  0.3537  0.2741  0.0229
 4212W        W 7956   3.691   2.747  12.280  0.2547  0.0589  0.4080
 4213W        W 7957   6.214   0.657   2.078 -0.0977  0.1312 -0.3140
 4214W        W 7958   6.067   3.835  11.694  0.2232 -0.4184 -0.2910
 4215W        W 7959   0.444   1.999  11.704 -0.0114  0.2987 -0.0194
 4216W        W 7960   0.086   3.366   4.044  0.0158 -0.0244  0.2678
 4217W        W 7961   8.258   9.499  11.211  0.0440  0.3358  0.0022
 4218W        W 7962   0.701   3.323   1.536 -0.0428 -0.1663  0.0903
 4219W        W 7963   5.450   9.166  12.089 -0.1748  0.0975  0.0323
 4220W        W 7964   3.792   2.655   2.277 -0.0965 -0.0244 -0.0516
 4221W        W 7965   3.757   7.402   8.679 -0.0121  0.2807 -0.1327
 4222W        W 7966   4.339   5.665   4.138  0.0204 -0.1608 -0.1589
 4223W        W 7967   6.145   0.505   4.018 -0.1390 -0.0284  0.2939
 4224W        W 7968   0.966   8.919   2.710  0.1611  0.3398  0.3343
 4225W        W 7969   2.744   2.737   1.285  0.2212  0.0083  0.0444
 4226W        W 7970   7.320   9.190   0.137  0.3972 -0.3106 -0.0376
 4227W        W 7971   1.386   5.795   0.307  0.1973 -0.0873  0.0931
 4228W        W 7972   8.586   5.760   8.042 -0.2654 -0.0985 -0.1925
 4229W        W 7973   9.488   7.854  10.134  0.0734 -0.2157  0.0746
 4230W        W 7974   6.560   1.378  12.009 -0.1504 -0.0944  0.0529
 4231W        W 7975   6.823   3.895   9.527  0.4050 -0.3102  0.0211
 4232W        W 7976   2.296   5.559  10.926 -0.2522  0.2116 -0.0703
 4233W        W 7977   5.568   2.597  11.904 -0.0742 -0.1884  0.1622
 4234W        W 7978   2.231   3.766  12.106 -0.0375  0.1404 -0.0277
 4235W        W 7979   3.860   4.382  10.000  0.1532 -0.0890 -0.2480
 4236W        W 7980   6.055   9.629   0.739 -0.1850  0.1011 -0.0123
 4237W        W 7981   3.813   1.255   3.807 -0.2995 -0.0017  0.2414
 4238W        W 7982   8.101   5.444   0.227 -0.0246 -0.1696  0.0202
 4239W        W 7983   4.198   2.398  10.335  0.2504 -0.0516 -0.0753
 4240W        W 7984   8.005   7.463  10.425 -0.1130  0.0086  0.1208
 4241W        W 7985   2.897   7.047   0.722  0.1552 -0.2691  0.1226
 4242W        W 7986   2.540   3.694   8.233  0.1751  0.1051 -0.0719
 4243W        W 7987   0.771   4.423  11.670  0.0501  0.0337  0.2260
 4244W        W 7988   0.520   2.505  11.600 -0.3963 -0.2065 -0.1468
 4245W        W 7989   2.872   4.166   3.400  0.0575  0.4064 -0.3347
 4246W        W 7990   8.666   3.863   9.450 -0.4266 -0.1159  0.2734
 4247W        W 7991   2.036   9.967  12.237  0.1116 -0.0708 -0.2258
 4248W        W 7992   3.078   8.540   2.836 -0.0057 -0.1354 -0.1789
 4249W        W 7993   4.353   8.805   1.598 -0.1916  0.4959 -0.0264
 4250W        W 7994   2.992   0.341  10.521  0.2257 -0.2797 -0.0787
 4251W        W 7995   3.830   4.254   3.513  0.1282  0.1280 -0.3105
 4252W        W 7996   7.746   0.589  11.873 -0.0694 -0.3238  0.1288
 4253W        W 7997   9.345   6.243  11.626 -0.1804  0.2306 -0.1294
 4254W        W 7998   8.594   6.588  10.152 -0.1489 -0.1167  0.1048
 4255W        W 7999   2.010   7.453  11.583 -0.0673 -0.0795 -0.1688
 4256W        W 8000   5.503   6.333  11.822 -0.0137 -0.1718  0.0107
 4257W        W 8001   6.298   3.393  10.487  0.1931  0.1809 -0.2173
 4258W        W 8002   3.403   2.844   3.404  0.2559 -0.0963  0.0634
 4259W        W 8003   1.067   6.782  12.077 -0.0657 -0.0085 -0.3306
 4260W        W 8004   8.356   5.466   1.900  0.2005 -0.0958  0.1827
 4261W        W 8005   8.352   3.914   2.220  0.0427 -0.1407 -0.1737
 4262W        W 8006   2.217   4.138  11.788  0.5738  0.1470 -0.1269
 4263W        W 8007   0.850   3.200   3.002 -0.4291 -0.0106  0.1018
 4264W        W 8008   8.018   2.075   3.649  0.0007 -0.1012 -0.1292
 4265W        W 8009   0.452   1.963   3.395 -0.2463 -0.1800  0.1343
 4266W        W 8010   1.531   2.186  11.854  0.1704 -0.0298 -0.0471
 4267W        W 8011   7.697   3.726   2.933 -0.0255 -0.0195 -0.1077
 4268W        W 8012   7.790   2.421  10.412 -0.0529 -0.2047  0.2304
 4269W        W 8013   3.883   1.548   3.345 -0.0720 -0.1175  0.1343
 4270W        W 8014   3.822   6.347   3.933 -0.2660 -0.3596  0.2168
 4271W        W 8015   6.128   4.601   0.270 -0.3554  0.2037  0.0472
 4272W        W 8016   8.905   6.525   4.403 -0.0019 -0.2138 -0.0339
 4273W        W 8017   9.636   2.290   3.045 -0.0319 -0.0133 -0.2033
 4274W        W 8018   6.538   7.470   2.872  0.0370 -0.0627 -0.1666
 4275W        W 8019   9.039   5.247  10.225  0.1170  0.2465 -0.2532
 4276W        W 8020   8.634   5.578  10.203 -0.0570  0.0684 -0.2114
 4277W        W 8021   2.181   4.641   9.333 -0.1554  0.0927 -0.0118
 4278W        W 8022   6.704   9.817   2.293  0.0064 -0.0933  0.0101
 4279W        W 8023   9.443   5.731  10.759  0.2094  0.4034  0.1696
 4280W        W 8024   3.960   4.440  11.362  0.4578 -0.0400 -0.2153
 4281W        W 8025   7.732   8.428   0.882  0.0493  0.2826 -0.4007
 4282W        W 8026   9.726   1.572   2.310 -0.3313 -0.2655 -0.0412
 4283W        W 8027   7.847   5.485   1.136  0.1256  0.0615 -0.2297
 4284W        W 8028   1.639   9.517   2.062 -0.2797  0.2070  0.1788
 4285W        W 8029   0.010   0.357  11.482  0.0975  0.4995 -0.1502
 4286W        W 8030   2.330   8.441   1.684 -0.0153 -0.1445  0.0566
 4287W        W 8031   1.931   2.641   9.314 -0.1179  0.6228 -0.0522
 4288W        W 8032   1.484   9.269  12.680 -0.0802 -0.1829 -0.4148
 4289W        W 8033   6.708   8.263   9.205 -0.0871  0.0504 -0.0783
 4290W        W 8034   8.410   7.792   0.842 -0.3503 -0.1545 -0.0184
 4291W        W 8035   0.323   3.408   1.891  0.2759  0.3360  0.0323
 4292W        W 8036   8.222   6.562   1.313  0.3169  0.2178  0.0980
 4293W        W 8037   4.184   3.921   4.344  0.2065 -0.1553 -0.0497
 4294W        W 8038   3.105   6.177   0.133 -0.1032 -0.1381 -0.0884
 4295W        W 8039   7.382   4.482   9.567 -0.0303  0.0781 -0.2166
 4296W        W 8040   1.023   3.150  12.301 -0.1001 -0.1112 -0.1396
 4297W        W 8041   0.989   2.321   3.915 -0.0090 -0.0944  0.2077
 4298W        W 8042   7.637   7.186  11.872 -0.3821  0.1749 -0.0633
 4299W        W 8043   0.642   1.449   3.372 -0.0942 -0.1829 -0.0902
 4300W        W 8044   3.091   3.880   3.831 -0.1583 -0.1776 -0.1709
 4301W        W 8045   9.851   8.635   2.938  0.0269 -0.2180  0.0353
 4302W        W 8046   9.287   5.514   1.367  0.1593  0.1757 -0.0907
 4303W        W 8047   4.818   8.107  10.935  0.0085 -0.0743 -0.1243
 4304W        W 8048   4.120   8.469   3.991  0.1848  0.3058 -0.2057
 4305W        W 8049   8.869   1.440  10.743  0.0934  0.0848 -0.1243
 4306W        W 8050   0.334   7.629  12.280  0.0186 -0.1491 -0.2415
 4307W        W 8051   4.164   3.230   9.426 -0.1640  0.2434 -0.3478
 4308W        W 8052   7.679   0.648  10.691  0.0544 -0.0446 -0.0015
 4309W        W 8053   9.392   9.659   9.123  0.1645  0.0937  0.0416
 4310W        W 8054   2.909   5.497  11.063 -0.0928 -0.0095  0.0711
 4311W        W 8055   3.206   0.548   1.413  0.0731 -0.4479 -0.1934
 4312W        W 8056   8.464   1.899   1.610 -0.0571  0.3843  0.1593
 4313W        W 8057   7.968   9.645   9.859 -0.2102 -0.0440  0.2645
 4314W        W 8058   6.696   4.075   4.433  0.1139  0.2400  0.0093
 4315W        W 8059   4.937   0.624  10.687 -0.2608 -0.1912  0.1184
 4316W        W 8060   3.016   2.056  10.705 -0.1327  0.3324  0.0251
 4317W        W 8061   3.217   4.784   2.216 -0.0872  0.0583  0.1516
 4318W        W 8062   1.755   2.955  11.826 -0.4377 -0.1057  0.2233
 4319W        W 8063   5.455   7.548  11.669 -0.0177 -0.0740  0.3416
 4320W        W 8064   8.315   5.303   4.129 -0.3153  0.0766  0.1960
 4321W        W 8065   9.834   5.963   9.643  0.0554  0.0072 -0.3094
 4322W        W 8066   5.142   3.044  11.652 -0.1119  0.2595  0.1335
 4323W        W 8067   8.393   9.335   3.383  0.0138 -0.1439 -0.0902
 4324W        W 8068   4.040   4.759   9.753  0.0526 -0.2998 -0.0997
 4325W        W 8069   6.039   3.144   9.625  0.0082  0.1438 -0.2194
 4326W        W 8070   3.273   7.441   3.641  0.2010  0.0408 -0.1407
 4327W        W 8071   8.971   6.320  12.404  0.0561 -0.1121 -0.1129
 4328W        W 8072   2.209   9.791   1.576  0.1533  0.1741  0.1766
 4329W        W 8073   9.545   2.399   3.520 -0.1162 -0.0261 -0.1818
 4330W        W 8074   3.865   4.766   3.910 -0.2646 -0.2245  0.1847
 4331W        W 8075   8.502   4.467   9.912 -0.0188 -0.0357 -0.4042
 4332W        W 8076   0.192   4.021   1.993  0.3264 -0.1674 -0.0478
 4333W        W 8077   0.221   9.841  12.588 -0.1629 -0.0603  0.2806
 4334W        W 8078   7.691   6.566   1.285 -0.0434 -0.0187  0.3208
 4335W        W 8079   9.699   2.245  11.235  0.1174 -0.0291  0.3074
 4336W        W 8080   3.316   4.237   4.755  0.0716 -0.1151 -0.0981
 4337W        W 8081   6.925   7.673   3.234  0.2679  0.0277 -0.0812
 4338W        W 8082   3.183   1.227   2.185  0.0943 -0.3367 -0.3844
 4339W        W 8083   6.299   7.405   9.015 -0.2153  0.0915 -0.3046
 4340W        W 8084   2.295   7.550   2.597 -0.0368 -0.2142 -0.1170
 4341W        W 8085   4.941   5.787   0.431  0.1076 -0.0517 -0.1354
 4342W        W 8086   4.531   6.107   8.212 -0.1231  0.1526  0.1565
 4343W        W 8087   8.763   9.879  10.426 -0.1905 -0.2190 -0.1186
 4344W        W 8088   2.843   7.953   1.567  0.2433  0.1809 -0.0981
 4345W        W 8089   2.567   4.299  12.108  0.1911 -0.1619  0.0894
 4346W        W 8090   0.373   6.708   1.171 -0.0558 -0.2865  0.2316
 4347W        W 8091   2.529   0.727   3.884 -0.3646  0.1377 -0.2466
 4348W        W 8092   1.633   2.314   4.926 -0.1828 -0.1479  0.0619
 4349W        W 8093   9.788   5.381   2.484 -0.1411  0.2023 -0.1334
 4350W        W 8094   9.451   1.820   8.586  0.1514  0.1209  0.2801
 4351W        W 8095   5.253   0.873  10.398  0.2818 -0.1268 -0.1532
 4352W        W 8096   2.108   4.274   9.662 -0.0911  0.1352 -0.1580
 4353W        W 8097   4.332   9.744   0.063 -0.0618 -0.0085 -0.1443
 4354W        W 8098   4.109   6.037   2.651  0.1497 -0.1453 -0.2521
 4355W        W 8099   8.613   3.797   3.636  0.2594 -0.1476 -0.0085
 4356W        W 8100   3.245   2.769   2.185 -0.0355 -0.0809 -0.1552
 4357W        W 8101   5.082   9.819   9.752 -0.1869  0.0599 -0.2922
 4358W        W 8102   8.536   0.419   0.131  0.2028  0.2537  0.1159
 4359W        W 8103   9.490   8.271   2.033  0.2103  0.1312  0.1021
 4360W        W 8104   6.840   5.887   8.824  0.1234 -0.1374 -0.1164
 4361W        W 8105   4.816   5.760   8.550 -0.4263 -0.0488  0.0315
 4362W        W 8106   7.047   7.166   1.599 -0.1077 -0.1703  0.0146
 4363W        W 8107   1.665   1.416   3.028  0.1364 -0.2663  0.1157
 4364W        W 8108   1.180   1.459   1.535  0.0694  0.2865  0.0521
 4365W        W 8109   6.408   3.053  11.681  0.0729 -0.1253 -0.2911
 4366W        W 8110   6.390   2.550   1.336  0.0980  0.1548  0.2921
 4367W        W 8111   4.950   1.895  10.497  0.3914  0.0444  0.0976
 4368W        W 8112   0.300   4.455  10.992  0.0011  0.1078  0.3682
 4369W        W 8113   5.791   1.435   3.831 -0.0619 -0.1517 -0.3441
 4370W        W 8114   8.440   8.269   9.303  0.2659 -0.0312 -0.1839
 4371W        W 8115   2.552   1.313   1.509 -0.1821 -0.2149 -0.3819
 4372W        W 8116   2.935   9.246  10.362  0.0920 -0.0300  0.3068
 4373W        W 8117   8.204   4.319   8.270 -0.3646 -0.1828 -0.1404
 4374W        W 8118   3.455   0.482  10.457 -0.0547  0.6064 -0.0825
 4375W        W 8119   0.013   2.680   3.678 -0.2212 -0.6918  0.0207
 4376W        W 8120   8.910   8.450   8.968 -0.1637  0.2629  0.0505
 4377W        W 8121   6.869   6.258   3.760 -0.0235  0.0012 -0.3872
 4378W        W 8122   9.307   8.226  10.628 -0.2172  0.2456 -0.3002
 4379W        W 8123   2.130   3.185  10.787 -0.1484 -0.1931 -0.0767
 4380W        W 8124   3.227   4.658   9.219  0.0437 -0.1724 -0.0665
 4381W        W 8125   0.177   1.527   3.204  0.1490  0.0521 -0.1393
 4382W        W 8126   3.530   8.917  10.941 -0.3366 -0.0403 -0.1404
 4383W        W 8127   0.053   0.217  10.180  0.0318  0.2458 -0.0498
 4384W        W 8128   1.215   4.420  11.238 -0.0760  0.0379 -0.3055
 4385W        W 8129   3.758   8.846   8.862  0.5028 -0.0309  0.0802
 4386W        W 8130   7.069   3.552   1.081  0.2384 -0.0743  0.2818
 4387W        W 8131   8.448   9.005   9.569  0.0697 -0.1701  0.0686
 4388W        W 8132   2.591   8.541  10.662 -0.1536  0.0639  0.0321
 4389W        W 8133   9.463   4.035   4.059 -0.2414 -0.1866  0.1489
 4390W        W 8134   3.179   5.596   1.006  0.2851  0.0079 -0.3253
 4391W        W 8135   6.567   5.209   7.885  0.0414  0.1819  0.0285
 4392W        W 8136   4.955   8.263   8.424 -0.0923 -0.0807  0.0065
 4393W        W 8137   4.458   3.271   2.143 -0.2454  0.2923  0.0107
 4394W        W 8138   4.750   6.285   3.512  0.0762 -0.1517 -0.0071
 4395W        W 8139   4.961   6.028  10.142  0.0084 -0.0387 -0.0087
 4396W        W 8140   7.238   4.468   0.135  0.1601 -0.2158  0.1720
 4397W        W 8141   7.201   1.816  11.490  0.0041 -0.0852 -0.0777
 4398W        W 8142   9.138   9.940   2.080 -0.0057 -0.0086  0.4549
 4399W        W 8143   5.396   4.151   9.531  0.0736  0.0430  0.2226
 4400W        W 8144   9.526   9.651   0.785 -0.1893 -0.4013 -0.2068
 4401W        W 8145   7.028   3.588   2.792 -0.1576 -0.0054 -0.0945
 4402W        W 8146   8.059   2.820  10.682  0.1745 -0.0525 -0.0287
 4403W        W 8147   3.226   5.294  10.726 -0.0369 -0.1142 -0.0564
 4404W        W 8148   0.778   7.995  10.383 -0.3480  0.0295 -0.1175
 4405W        W 8149   8.514   9.129   0.573  0.1651  0.2650 -0.1002
 4406W        W 8150   5.545   1.212  10.737  0.2172  0.1730  0.0831
 4407W        W 8151   4.062   7.006  10.530 -0.1081  0.1117  0.0081
 4408W        W 8152   5.812   4.820   0.684 -0.2210  0.1866 -0.0031
 4409W        W 8153   4.374   7.637   3.251 -0.2771 -0.5758 -0.1969
 4410W        W 8154   2.116   3.671   8.849 -0.0180  0.0133  0.0868
 4411W        W 8155   5.586   9.208   2.811 -0.0097  0.0666 -0.1157
 4412W        W 8156   2.034   2.034   0.244 -0.0277 -0.1411  0.1077
 4413W        W 8157   3.104   7.304  10.437 -0.1230 -0.0469  0.3261
 4414W        W 8158   4.672   2.789   8.665  0.3782 -0.4385  0.1244
 4415W        W 8159   5.112   4.617   1.279  0.1850 -0.0116  0.1420
 4416W        W 8160   2.873   0.500   9.611 -0.0700 -0.0686  0.1554
 4417W        W 8161   1.262   3.579   8.692 -0.0092 -0.0542 -0.3499
 4418W        W 8162   2.866   5.603   9.111 -0.1480  0.0369 -0.2394
 4419W        W 8163   9.722   3.821  10.928  0.1770 -0.0160 -0.1743
 4420W        W 8164   8.871   5.272   3.437 -0.3146  0.1351 -0.0499
 4421W        W 8165   2.145   2.165   0.816 -0.2405 -0.3256  0.0100
 4422W        W 8166   9.837   6.256  11.422  0.1320  0.0313 -0.1973
 4423W        W 8167   4.937   5.248   0.566 -0.1861  0.0112  0.0898
 4424W        W 8168   5.692   4.027   9.123  0.1000  0.1344 -0.0422
 4425W        W 8169   0.459   1.223   2.442 -0.0923  0.2000 -0.1808
 4426W        W 8170   4.014   2.762   2.841 -0.1400 -0.0605  0.0243
 4427W        W 8171   5.222   0.971   1.239 -0.0374  0.3107  0.0871
 4428W        W 8172   8.361   5.871  11.243  0.0744 -0.1201 -0.0783
 4429W        W 8173   1.344   2.638   0.246 -0.3439  0.4039 -0.1556
 4430W        W 8174   0.154   2.255   9.748  0.2377 -0.0953  0.1335
 4431W        W 8175   6.535   6.587   8.726  0.0416 -0.1105 -0.1430
 4432W        W 8176   3.670   3.849   3.711 -0.0195  0.1740  0.0011
 4433W        W 8177   5.998   9.593   2.047  0.2405 -0.3268  0.0837
 4434W        W 8178   3.558   4.566   9.578  0.0677 -0.2649 -0.1167
 4435W        W 8179   0.679   7.041   9.383  0.1803  0.2797 -0.1273
 4436W        W 8180   2.655   9.029  10.851  0.2992 -0.5157  0.1539
 4437W        W 8181   3.900   8.449  11.026  0.1167 -0.1148  0.0689
 4438W        W 8182   7.651   3.432   3.604  0.0702  0.1472 -0.1034
 4439W        W 8183   7.195   6.743  12.620 -0.0295  0.3673  0.2291
 4440W        W 8184   7.499   7.488  10.168 -0.3367 -0.4159 -0.2737
 4441W        W 8185   5.466   3.581   3.590  0.0210 -0.3015  0.2140
 4442W        W 8186   2.266   3.820   9.495 -0.3186  0.1643  0.0092
 4443W        W 8187   6.992   8.042   9.566 -0.1630  0.4248  0.0896
 4444W        W 8188   6.385   5.280   2.466  0.6578 -0.1250 -0.2140
 4445W        W 8189   0.658   4.314   0.417  0.1081  0.1135  0.2122
 4446W        W 8190   8.286   4.608   0.232  0.0790  0.1954  0.0022
 4447W        W 8191   6.790   1.795  12.372 -0.0638  0.0955 -0.1247
 4448W        W 8192   2.391   3.043   1.972  0.0067  0.1403  0.1436
 4449W        W 8193   6.064   6.477   8.464  0.2562 -0.5184 -0.0914
 4450W        W 8194   3.945   7.742  12.285 -0.0342  0.1357  0.1358
 4451W        W 8195   2.645   6.132  11.442  0.0850 -0.3301  0.1201
 4452W        W 8196   5.174   8.172  10.325  0.1372 -0.1031  0.1787
 4453W        W 8197   8.567   5.764   9.531 -0.1897 -0.1977  0.0732
 4454W        W 8198   6.045   3.465  11.373 -0.0131  0.1042  0.1291
 4455W        W 8199   4.517   4.240   9.379  0.1250 -0.1820  0.4613
 4456W        W 8200   2.913   9.070   4.263  0.5001  0.1951 -0.0608
 4457W        W 8201   4.348   2.782   1.491 -0.1825 -0.2929  0.0055
 4458W        W 8202   4.822   3.253   4.287 -0.1938 -0.0349 -0.1285
 4459W        W 8203   8.189   1.307  12.615  0.0447 -0.0018 -0.1324
 4460W        W 8204   0.841   1.588   2.521 -0.2989 -0.0145 -0.0831
 4461W        W 8205   3.124   9.447   3.872  0.0211 -0.0830  0.1280
 4462W        W 8206   5.004   8.132   1.337  0.2894 -0.0624 -0.0545
 4463W        W 8207   0.548   2.784   2.260  0.1881  0.4195 -0.0101
 4464W        W 8208   5.941   2.835   3.231  0.0426  0.1594  0.2647
 4465W        W 8209   2.195   3.456   0.656 -0.0440  0.1185  0.0902
 4466W        W 8210   3.999   3.668   4.765  0.1645  0.1607 -0.2604
 4467W        W 8211   3.497   8.870   0.382  0.2376  0.0087  0.0090
 4468W        W 8212   1.206   3.353   2.493  0.0743 -0.2182  0.0509
 4469W        W 8213   2.077   4.458   0.024  0.0542  0.1536  0.0512
 4470W        W 8214   6.369   6.058  11.570 -0.0093  0.0382  0.2034
 4471W        W 8215   6.631   9.181  10.364  0.0944 -0.0200 -0.2636
 4472W        W 8216   0.992   7.985   2.220  0.1397 -0.1375  0.2050
 4473W        W 8217   6.702   8.584  10.072  0.4044 -0.1430 -0.3335
 4474W        W 8218   9.094   7.301   8.760  0.4583  0.0089 -0.1379
 4475W        W 8219   4.697   6.669  11.896  0.1760 -0.1966 -0.0586
 4476W        W 8220   0.072   6.533   2.462 -0.1782 -0.1689 -0.1101
 4477W        W 8221   9.018   9.263   1.717 -0.0756  0.1472  0.0314
 4478W        W 8222   4.294   3.879   2.293  0.2159  0.6008  0.2269
 4479W        W 8223   5.004   3.377   3.323  0.2484  0.4713  0.0372
 4480W        W 8224   7.951   8.238  11.440  0.0398 -0.0351 -0.0424
 4481W        W 8225   4.463   5.970   0.523  0.0203 -0.0902  0.0892
 4482W        W 8226   9.864   2.096   2.603 -0.3949  0.1062  0.3836
 4483W        W 8227   5.096   3.875   3.343 -0.3293 -0.1364 -0.2181
 4484W        W 8228   0.451   5.125  12.246 -0.0895 -0.1323  0.0407
 4485W        W 8229   6.562   8.115   1.808  0.2753 -0.1119  0.1405
 4486W        W 8230   5.635   2.080  11.805  0.0511 -0.3513  0.0319
 4487W        W 8231   1.196   2.885   3.294 -0.1483 -0.1598 -0.1370
 4488W        W 8232   5.741   4.431   1.959 -0.0740  0.0302  0.1671
 4489W        W 8233   4.169   1.903   1.563  0.2433 -0.0972 -0.1565
 4490W        W 8234   5.568   8.237   3.652 -0.4209  0.3252 -0.2007
 4491W        W 8235   7.645   0.447   9.642  0.0135 -0.3674 -0.2802
 4492W        W 8236   8.238   6.909   8.494 -0.0909  0.1068 -0.2440
 4493W        W 8237   6.294   3.067   1.806  0.1895 -0.1786 -0.1754
 4494W        W 8238   0.135   4.280   0.400  0.1683  0.2830  0.2248
 4495W        W 8239   7.512   0.465   0.376  0.0543  0.0047 -0.0456
 4496W        W 8240   6.013   2.993  10.685 -0.0752 -0.1132 -0.0530
 4497W        W 8241   4.784   0.990  10.297  0.1397  0.1923 -0.2707
 4498W        W 8242   2.086   6.530   3.424 -0.0031  0.0353 -0.3450
 4499W        W 8243   9.435   9.676   1.695 -0.0890 -0.0675  0.0600
 4500W        W 8244   7.379   3.061  11.956  0.1402 -0.1876  0.0400
 4501W        W 8245   4.584   2.469   3.715  0.1873 -0.0127  0.2716
 4502W        W 8246   1.391   1.386   0.156  0.0253 -0.0204  0.2790
 4503W        W 8247   6.204   3.901   1.358  0.0986 -0.1406  0.0063
 4504W        W 8248   0.045   9.943  11.057  0.2265 -0.1572  0.0011
 4505W        W 8249   3.047   7.003   1.258 -0.0820 -0.0240  0.2585
 4506W        W 8250   2.542   0.241   9.397  0.2467 -0.1440 -0.1794
 4507W        W 8251   8.555   4.820  11.869  0.1316 -0.0706 -0.3410
 4508W        W 8252   1.415   8.416  12.654  0.3961 -0.2349 -0.0075
 4509W        W 8253   8.270   4.292   3.737  0.2497  0.1063  0.0166
 4510W        W 8254   4.674   8.024   1.806 -0.1407  0.0263 -0.0430
 4511W        W 8255   4.876   7.605  12.215  0.1253  0.0530 -0.0429
 4512W        W 8256   9.140   2.544  11.356  0.1034 -0.1048  0.0956
 4513W        W 8257   5.783   9.588   2.534 -0.1402 -0.2160  0.1669
 4514W        W 8258   2.380   2.518   2.656 -0.0667 -0.1555  0.1263
 4515W        W 8259   2.396   4.142   2.601 -0.3183 -0.1857  0.0044
 4516W        W 8260   2.901   0.762   3.571  0.0237 -0.2490 -0.4333
 4517W        W 8261   3.840   2.077   9.040 -0.0473 -0.1502  0.0274
 4518W        W 8262   2.047   7.848  12.547 -0.0429 -0.2736  0.2434
 4519W        W 8263   9.508   5.023   0.546 -0.2582 -0.1428 -0.0572
 4520W        W 8264   0.397   4.770  11.832  0.1728  0.0049 -0.0426
 4521W        W 8265   0.927   2.978   2.512 -0.0431  0.0750  0.4073
 4522W        W 8266   5.174   8.032   3.127 -0.3202  0.0326 -0.2934
 4523W        W 8267   4.340   7.573  12.648 -0.1584  0.0033  0.4478
 4524W        W 8268   6.488   1.770   0.069  0.2556 -0.0216  0.0706
 4525W        W 8269   2.327   2.871  11.641 -0.1844 -0.3444 -0.2509
 4526W        W 8270   3.900   3.118   0.404 -0.1983 -0.1970  0.0087
 4527W        W 8271   7.886   3.053  11.688  0.2471 -0.1577 -0.1067
 4528W        W 8272   6.002   6.298   3.352  0.1203 -0.1574  0.3191
 4529W        W 8273   7.728   2.782  11.112  0.1851 -0.3396 -0.1739
 4530W        W 8274   0.020   3.984  10.492 -0.0060  0.0281 -0.2662
 4531W        W 8275   3.449   8.405   8.162 -0.0892  0.0995  0.0357
 4532W        W 8276   3.819   9.363   1.271 -0.0316 -0.2671 -0.3289
 4533W        W 8277   1.682   7.349  11.032 -0.1594  0.0494 -0.1164
 4534W        W 8278   7.097   3.936   3.510  0.1961  0.0484 -0.1761
 4535W        W 8279   0.111   2.444   1.689 -0.4554  0.0712 -0.0421
 4536W        W 8280   9.231   7.863  10.969  0.1190  0.0488  0.3049
 4537W        W 8281   1.191   9.717   8.947  0.0756  0.0150  0.0367
 4538W        W 8282   2.553   4.172   0.032 -0.0293  0.1511 -0.0493
 4539W        W 8283   8.877   0.509   3.166 -0.0425  0.0811  0.0945
 4540W        W 8284   6.222   3.557   0.550 -0.1680 -0.1545 -0.0053
 4541W        W 8285   5.239   7.782   9.965 -0.0708 -0.0863  0.2271
 4542W        W 8286   5.822   1.042   0.824  0.2461 -0.0979  0.1538
 4543W        W 8287   4.275   6.482  10.451 -0.4335  0.1239  0.1863
 4544W        W 8288   8.948   3.393  11.834 -0.2863 -0.0081 -0.0770
 4545W        W 8289   0.704   3.553   8.150 -0.3802  0.4469  0.0056
 4546W        W 8290   7.002   1.187  11.847 -0.0309  0.2606  0.2213
 4547W        W 8291   2.802   5.996   7.241 -0.1277  0.1008  0.1168
 4548W        W 8292   2.552   7.050   7.916  0.0958  0.0032 -0.0696
 4549W        W 8293   4.459   4.231  11.489 -0.0344  0.1281 -0.1661
 4550W        W 8294   2.434   1.898  12.244  0.0986  0.1757  0.1773
 4551W        W 8295   9.903   9.169   9.881  0.1453 -0.1577  0.2291
 4552W        W 8296   9.208   5.146  11.591  0.1060  0.3552  0.0901
 4553W        W 8297   2.366   0.938  12.043  0.2320  0.0700 -0.0783
 4554W        W 8298   4.567   3.823  11.858  0.3173 -0.2749 -0.1299
 4555W        W 8299   3.094   2.330   5.143 -0.0135 -0.0319  0.0050
 4556W        W 8300   3.850   9.605  11.820  0.3626 -0.2756  0.2141
 4557W        W 8301   9.825   5.679   2.094 -0.3528  0.3071 -0.1053
 4558W        W 8302   7.778   6.501   2.778 -0.0647 -0.2807  0.2493
 4559W        W 8303   0.951   2.402   3.423 -0.1486 -0.0218  0.0787
 4560W        W 8304   3.847   3.038   3.474  0.1241 -0.1989 -0.1056
 4561W        W 8305   1.524   3.274   9.984  0.3043  0.2193 -0.3300
 4562W        W 8306   9.367   8.682  12.294 -0.1069 -0.2366 -0.1193
 4563W        W 8307   7.060   4.299  10.722  0.2194  0.0148 -0.3379
 4564W        W 8308   1.022   6.061   4.006 -0.2753 -0.0638  0.0677
 4565W        W 8309   5.863   6.286   9.434  0.1577  0.1015 -0.0948
 4566W        W 8310   4.081   7.104   2.191  0.2038 -0.0388  0.1656
 4567W        W 8311   6.355   6.841   3.230  0.0838  0.1335 -0.0279
 4568W        W 8312   0.155   9.129   2.231 -0.0819  0.1747 -0.0822
 4569W        W 8313   8.672   2.135  10.243  0.1646 -0.0451 -0.0572
 4570W        W 8314   1.650   0.926  12.658 -0.3551 -0.2511 -0.0261
 4571W        W 8315   2.619   8.066  11.363  0.0293 -0.0345  0.1788
 4572W        W 8316   0.427   4.168   1.064 -0.5457  0.0813  0.1867
 4573W        W 8317   4.312   0.009  11.599  0.0845  0.0439 -0.1008
 4574W        W 8318   8.934   1.064  10.353  0.1820 -0.1078 -0.4569
 4575W        W 8319   0.128   1.426   1.661 -0.2021  0.1533  0.0382
 4576W        W 8320   1.738   3.921   9.423 -0.1514 -0.5114 -0.0615
 4577W        W 8321   5.470   5.111   2.724 -0.0481  0.3532 -0.5422
 4578W        W 8322   6.067   8.682   0.527 -0.2502 -0.5451  0.1040
 4579W        W 8323   0.389   6.416  10.854 -0.0572  0.3210  0.2313
 4580W        W 8324   5.642   6.296   1.834  0.0521  0.1194 -0.3250
 4581W        W 8325   8.236   6.912  12.480  0.2146 -0.1795  0.1378
 4582W        W 8326   7.651   2.396   0.536 -0.1635  0.0874 -0.1435
 4583W        W 8327   2.423   9.352  10.327 -0.2010 -0.2308  0.2697
 4584W        W 8328   9.140   8.164  12.032  0.0737 -0.1853  0.3809
 4585W        W 8329   9.025   9.448   2.762  0.0027 -0.2415 -0.1425
 4586W        W 8330   2.765   6.979  10.234 -0.0635  0.0922  0.0587
 4587W        W 8331   2.888   7.686   8.964 -0.2226  0.1863  0.2687
 4588W        W 8332   0.047   9.138   1.237  0.0826 -0.0089  0.1169
 4589W        W 8333   4.997   0.665   3.412  0.0123 -0.0335  0.1651
 4590W        W 8334   8.726   3.301  10.925 -0.0206 -0.0632 -0.2202
 4591W        W 8335   4.793   6.288   1.276  0.4333 -0.1327 -0.0789
 4592W        W 8336   3.253   0.815  11.440 -0.1388 -0.1847  0.0699
 4593W        W 8337   9.644   9.547   2.946  0.1021 -0.3077 -0.0724
 4594W        W 8338   7.662   3.525   2.016 -0.1209  0.3136 -0.1897
 4595W        W 8339   7.237   9.830   0.240  0.0663 -0.2173  0.1127
 4596W        W 8340   8.970   9.845   1.545  0.1944 -0.2014 -0.0880
 4597W        W 8341   7.480   5.581   2.269 -0.0460 -0.0075  0.1929
 4598W        W 8342   1.859   9.405   0.160 -0.0775 -0.2460  0.0823
 4599W        W 8343   1.401   1.793   9.556  0.3723 -0.0902 -0.0776
 4600W        W 8344   9.552   3.213   2.257  0.3719 -0.0153 -0.2310
 4601W        W 8345   2.813   7.579   3.918 -0.0528  0.3054  0.5829
 4602W        W 8346   7.750   7.406   1.109  0.3934 -0.2747  0.2331
 4603W        W 8347   4.606   3.751   3.060 -0.2095 -0.2619  0.0477
 4604W        W 8348   1.911   3.216   0.984 -0.4974 -0.0832 -0.2178
 4605W        W 8349   9.390   4.109  10.152  0.2579  0.0018 -0.0941
 4606W        W 8350   4.926   4.289   2.504 -0.2360  0.0384 -0.1609
 4607W        W 8351   1.881   5.648   0.376 -0.1707 -0.0113  0.1762
 4608W        W 8352   2.962   4.687   1.609  0.3736 -0.3472  0.1337
 4609W        W 8353   3.677   1.034   0.337 -0.1528  0.0300  0.1358
 4610W        W 8354   1.706   0.966   2.787 -0.2362 -0.0261 -0.1309
 4611W        W 8355   7.690   3.360  10.278 -0.3972  0.0319 -0.0935
 4612W        W 8356   8.093   8.990  12.485  0.1266  0.4016 -0.0375
 4613W        W 8357   4.809   5.054  12.361 -0.2712  0.2473  0.2563
 4614W        W 8358   0.575   8.509  11.428 -0.0080 -0.4024  0.0585
 4615W        W 8359   5.598   8.652   9.450  0.0594  0.2819 -0.2193
 4616W        W 8360   7.022   4.710  10.269 -0.3340 -0.1373 -0.0278
 4617W        W 8361   4.275   8.023   9.187 -0.2503 -0.1649  0.0543
 4618W        W 8362   8.810   5.886   2.930 -0.6313 -0.2116 -0.2285
 4619W        W 8363   4.266   7.403   7.897  0.0598  0.0179  0.1952
 4620W        W 8364   0.912   0.421   4.050 -0.2780 -0.0223  0.1768
 4621W        W 8365   7.210   6.663   3.691  0.2918 -0.3615 -0.0041
 4622W        W 8366   4.815   2.831   2.497  0.1168 -0.2090 -0.3180
 4623W        W 8367   2.383   2.262   1.722 -0.3293 -0.0152 -0.0901
 4624W        W 8368   9.655   9.565  11.069 -0.0544  0.0460  0.1742
 4625W        W 8369   9.230   4.195   1.573 -0.1289 -0.2067 -0.1976
 4626W        W 8370   3.196   5.886   8.803 -0.0828  0.2945 -0.0989
 4627W        W 8371   8.821   5.347   1.567 -0.0768  0.1912 -0.0630
 4628W        W 8372   6.271   8.605   1.830  0.3428 -0.0089 -0.0926
 4629W        W 8373   3.543   6.986  10.749 -0.1086 -0.1134 -0.0162
 4630W        W 8374   2.846   9.548   2.543 -0.4193  0.0602  0.0917
 4631W        W 8375   2.178   7.723   4.535  0.1894 -0.0441 -0.1682
 4632W        W 8376   9.556   3.693   8.667  0.5125 -0.4577 -0.0323
 4633W        W 8377   3.066   4.266   9.631  0.1009 -0.1019 -0.0272
 4634W        W 8378   1.883   1.263  10.095 -0.1087 -0.1816 -0.2510
 4635W        W 8379   6.572   8.302  11.772 -0.2026 -0.0506 -0.0572
 4636W        W 8380   9.497   8.453  11.176  0.2004 -0.0729  0.2001
 4637W        W 8381   8.334   7.010  10.264 -0.2285  0.0814 -0.3091
 4638W        W 8382   4.337   2.196  11.702 -0.0358  0.2279 -0.1572
 4639W        W 8383   0.470   4.846   4.578  0.3237  0.0393  0.0530
 4640W        W 8384   9.096   0.859   2.236  0.0957 -0.2460 -0.2852
 4641W        W 8385   3.344   6.390   9.477 -0.2939 -0.2574  0.1318
 4642W        W 8386   7.870   1.281   0.351 -0.1045 -0.2093  0.2367
 4643W        W 8387   6.773   3.638   3.244 -0.1487 -0.2429  0.2012
 4644W        W 8388   8.378   0.366  11.804 -0.0807  0.1138  0.2629
 4645W        W 8389   6.251   9.781   2.450  0.2025 -0.2044 -0.0946
 4646W        W 8390   2.261   2.277   9.371 -0.1794 -0.1434  0.0175
 4647W        W 8391   8.004   1.550  10.328  0.3129  0.4180  0.1022
 4648W        W 8392   2.753   6.527   9.448  0.1336 -0.2642 -0.1516
 4649W        W 8393   5.003   0.798   9.348 -0.0730 -0.1302 -0.1262
 4650W        W 8394   2.321   2.032  11.796  0.0964  0.0321 -0.0550
 4651W        W 8395   4.448   9.816   4.250 -0.0955 -0.1119  0.0218
 4652W        W 8396   8.082   3.911   3.403  0.0360  0.2146  0.1261
 4653W        W 8397   1.522   5.285   0.282  0.2143 -0.1637  0.0939
 4654W        W 8398   3.590   7.295   4.030  0.0934  0.1434  0.0619
 4655W        W 8399   8.146   0.199  12.598 -0.1824 -0.0584 -0.0186
 4656W        W 8400   0.691   4.344   3.741 -0.1134 -0.0758 -0.1498
 4657W        W 8401   5.766   3.912   1.793  0.0325  0.1459 -0.0257
 4658W        W 8402   2.181   4.906   0.859 -0.1728  0.1357 -0.2358
 4659W        W 8403   2.219   9.399  11.737 -0.2410  0.0039  0.0228
 4660W        W 8404   8.432   6.342   0.836  0.1541 -0.1009  0.3440
 4661W        W 8405   2.091   0.628  10.849 -0.0317  0.1591  0.1366
 4662W        W 8406   2.072   0.877   4.071 -0.0307  0.2258  0.1605
 4663W        W 8407   4.016   1.816   9.813  0.0575  0.0080  0.2213
 4664W        W 8408   0.083   1.172   2.056  0.1873 -0.0474 -0.0588
 4665W        W 8409   5.273   4.364  12.634  0.4261  0.2312  0.0820
 4666W        W 8410   5.042   1.051  11.126 -0.1499  0.3302  0.1296
 4667W        W 8411   8.242   9.857  11.578  0.2313 -0.1242 -0.2896
 4668W        W 8412   9.530   7.719  10.626  0.0901 -0.0065 -0.0174
 4669W        W 8413   8.943   6.652   2.552 -0.2044  0.1955 -0.0704
 4670W        W 8414   4.476   7.292  11.083 -0.0554 -0.0004  0.1123
 4671W        W 8415   8.190   3.500   0.630  0.0736 -0.0635  0.2343
 4672W        W 8416   6.727   1.785  11.279 -0.0715 -0.0552  0.2165
 4673W        W 8417   5.279   0.506   0.898  0.1026 -0.1431  0.2147
 4674W        W 8418   0.796   8.578  10.042  0.0200 -0.0224 -0.4609
 4675W        W 8419   5.450   6.071   2.578 -0.1118 -0.1132  0.1265
 4676W        W 8420   8.532   5.342   0.608  0.1539 -0.0024 -0.1209
 4677W        W 8421   4.971   5.397   8.963 -0.0920 -0.2288  0.2167
 4678W        W 8422   2.537   2.201   0.390  0.0532 -0.1146  0.1754
 4679W        W 8423   0.620   8.945   1.341  0.1061  0.1113 -0.0278
 4680W        W 8424   1.000   5.888   2.637  0.0628 -0.3475 -0.1569
 4681W        W 8425   3.416   9.913  11.310  0.0010 -0.4513 -0.0582
 4682W        W 8426   7.865   4.294   1.784 -0.1551 -0.2013  0.2096
 4683W        W 8427   6.409   3.880  10.388  0.2173  0.2335 -0.1966
 4684W        W 8428   8.152   6.245   2.984  0.1996 -0.0420 -0.0491
 4685W        W 8429   9.833   5.117   8.419  0.2695 -0.0390  0.2764
 4686W        W 8430   7.030   6.213  11.900  0.0831  0.0411 -0.0605
 4687W        W 8431   8.652   9.142  12.145 -0.0989 -0.0645  0.2707
 4688W        W 8432   1.287   8.868  12.404  0.0547 -0.0683 -0.1083
 4689W        W 8433   5.278   3.562  11.174  0.3186  0.0886  0.0545
 4690W        W 8434   8.987   0.720   9.858 -0.1266 -0.1440  0.2240
 4691W        W 8435   0.842   3.791   0.624 -0.2604  0.0387  0.1899
 4692W        W 8436   2.901   8.142   4.309  0.0530  0.3687 -0.0194
 4693W        W 8437   5.791   9.510   3.161  0.3903 -0.1858 -0.1607
 4694W        W 8438   7.076   2.748   3.598 -0.1291 -0.0702 -0.0880
 4695W        W 8439   2.226   3.447   9.983  0.1418 -0.0180  0.0592
 4696W        W 8440   7.504   3.570   1.517  0.1874  0.3263  0.2890
 4697W        W 8441   7.586   2.282   1.735 -0.1634 -0.0070  0.0174
 4698W        W 8442   2.019   4.827   2.306  0.1610  0.1347  0.1399
 4699W        W 8443   3.630   6.307   2.585  0.1748  0.0847 -0.0982
 4700W        W 8444   1.846   6.130  10.427 -0.1832  0.1116 -0.0506
 4701W        W 8445   7.676   4.666   2.209  0.0845  0.1274  0.0571
 4702W        W 8446   4.590   3.373   8.925 -0.1050  0.0218  0.0152
 4703W        W 8447   3.624   8.647   9.679 -0.0573 -0.0653  0.0707
 4704W        W 8448   2.854   0.521   1.052 -0.0871  0.3326  0.2705
 4705W        W 8449   7.871   3.268   3.162 -0.2141  0.0315 -0.1724
 4706W        W 8450   3.977   8.327  12.607 -0.2343  0.4196 -0.0059
 4707W        W 8451   2.129   8.905   8.467 -0.1473 -0.3371 -0.0554
 4708W        W 8452   8.088   1.428   3.731 -0.1339  0.0629 -0.1941
 4709W        W 8453   1.479   9.881  10.364  0.0588  0.0465 -0.1796
 4710W        W 8454   5.232   0.941   9.790 -0.4242 -0.1076  0.1972
 4711W        W 8455   2.899   0.122   8.681 -0.0581  0.0862 -0.5195
 4712W        W 8456   3.131   6.806   9.178 -0.0745  0.4176  0.0834
 4713W        W 8457   5.264   2.945   4.108  0.3204 -0.3635  0.3051
 4714W        W 8458   1.091   4.062  10.812  0.2012 -0.0483 -0.2119
 4715W        W 8459   4.827   9.769  11.550  0.1923 -0.2406 -0.1458
 4716W        W 8460   7.634   0.241  11.032 -0.1422  0.0863  0.1419
 4717W        W 8461   9.587   9.589  11.897 -0.1814  0.3245  0.1620
 4718W        W 8462   3.476   7.918   4.697  0.3812 -0.0955  0.3064
 4719W        W 8463   2.309   1.335  10.331 -0.0388  0.2756 -0.1860
 4720W        W 8464   7.164   8.929  11.849 -0.1215 -0.3644 -0.0513
 4721W        W 8465   9.361   0.824  12.448  0.1902 -0.3375  0.1542
 4722W        W 8466   6.580   1.276  10.978  0.2930 -0.2518  0.1414
 4723W        W 8467   7.629   8.205   1.800 -0.0701 -0.2099  0.3327
 4724W        W 8468   4.593   0.869   1.966 -0.2479  0.1315 -0.0896
 4725W        W 8469   5.506   4.516   9.259 -0.0986 -0.0602 -0.0334
 4726W        W 8470   4.884   5.601  12.563 -0.2470 -0.0345  0.0146
 4727W        W 8471   3.050   9.718   0.296 -0.0282  0.2046 -0.1547
 4728W        W 8472   4.809   2.699   1.346  0.0525 -0.1984  0.1420
 4729W        W 8473   1.805   0.478   2.072 -0.0056  0.0266  0.2031
 4730W        W 8474   5.754   6.563  12.194  0.1687 -0.1271  0.2424
 4731W        W 8475   6.233   4.377  11.717  0.1151 -0.3176 -0.0944
 4732W        W 8476   4.339   8.861   1.062 -0.3184 -0.0436  0.0755
 4733W        W 8477   5.575   4.337  10.839 -0.2977  0.0036 -0.4659
 4734W        W 8478   6.251   1.248   4.195 -0.1411  0.3306  0.0196
 4735W        W 8479   3.309   4.763   0.867 -0.2829 -0.1641  0.2665
 4736W        W 8480   1.296   4.886   8.597 -0.3166 -0.3259  0.4773
 4737W        W 8481   2.385   4.516   2.313 -0.0618 -0.1890 -0.2399
 4738W        W 8482   3.139   7.939   2.997 -0.0400  0.3601  0.2576
 4739W        W 8483   9.899   5.494   8.056  0.1056 -0.2342  0.0127
 4740W        W 8484   0.585   5.712  11.560 -0.0521 -0.0567  0.1499
 4741W        W 8485   4.273   1.533  12.645  0.2194 -0.0150 -0.0036
 4742W        W 8486   2.621   6.724   3.386  0.1872 -0.0839 -0.3543
 4743W        W 8487   3.083   9.901   4.721 -0.1097 -0.1297 -0.2882
 4744W        W 8488   0.578   4.164   2.285 -0.0656  0.0209  0.1892
 4745W        W 8489   3.277   5.219   0.100 -0.0229  0.1952  0.4390
 4746W        W 8490   8.169   8.544   9.770  0.0841 -0.2590  0.0431
 4747W        W 8491   8.388   7.827  10.902 -0.1542  0.2710  0.2514
 4748W        W 8492   3.635   5.314  11.979 -0.1246  0.1920  0.0436
 4749W        W 8493   1.927   0.923   4.541 -0.1137 -0.0786 -0.1732
 4750W        W 8494   6.413   6.859   4.017 -0.0749 -0.1894  0.2720
 4751W        W 8495   6.102   6.744  10.511 -0.1740  0.1980 -0.2987
 4752W        W 8496   2.484   2.293   3.049 -0.2255 -0.0742  0.0441
 4753W        W 8497   8.030   0.365   0.333 -0.0072  0.1999  0.3479
 4754W        W 8498   1.461   1.122   8.428  0.0878 -0.1036 -0.0344
 4755W        W 8499   4.602   9.256  10.063 -0.1037  0.0978 -0.4034
 4756W        W 8500   8.643   5.105   9.340  0.1866 -0.2109  0.1919
 4757W        W 8501   0.470   0.207   0.097 -0.1266  0.1104 -0.0771
 4758W        W 8502   9.271   0.584  11.957 -0.5112 -0.1842 -0.0572
 4759W        W 8503   0.355   2.907   3.976  0.3951 -0.2461  0.1178
 4760W        W 8504   2.417   2.183  10.455  0.0160  0.1680 -0.1318
 4761W        W 8505   8.403   4.120   0.347  0.2180 -0.2419 -0.0687
 4762W        W 8506   3.008   1.290  11.665  0.1923  0.1610 -0.1265
 4763W        W 8507   9.687   7.249   0.515 -0.0500 -0.1865  0.2260
 4764W        W 8508   3.838   2.476   4.482 -0.1824 -0.1471 -0.1468
 4765W        W 8509   2.989   6.165   8.470  0.0339 -0.1981 -0.2072
 4766W        W 8510   8.091   4.187   4.239  0.1196 -0.1285  0.1067
 4767W        W 8511   6.323   0.307   3.569 -0.0609  0.0598  0.0626
 4768W        W 8512   4.165   3.361  11.536 -0.0949  0.0472 -0.2214
 4769W        W 8513   3.480   4.004  12.212 -0.0671 -0.1740  0.3175
 4770W        W 8514   0.776   5.904  11.031  0.0499 -0.3877 -0.1402
 4771W        W 8515   9.614   0.321  12.278 -0.2521  0.2062 -0.2505
 4772W        W 8516   2.338   2.550   8.474 -0.0751  0.0952 -0.0616
 4773W        W 8517   9.690   4.575   2.831 -0.2886  0.1810  0.3771
 4774W        W 8518   1.986   2.701   0.844 -0.0246  0.2389 -0.2353
 4775W        W 8519   9.875   1.558   9.308 -0.0014 -0.1514 -0.3391
 4776W        W 8520   2.747   6.419   0.940  0.1519  0.1318 -0.1619
 4777W        W 8521   0.458   3.540   9.030  0.0340 -0.2864  0.1545
 4778W        W 8522   2.359   5.454   8.853 -0.1178 -0.1191  0.0328
 4779W        W 8523   6.700   8.808  11.708 -0.3515  0.2373  0.0967
 4780W        W 8524   7.672   8.364  11.038 -0.3425 -0.0207 -0.0288
 4781W        W 8525   5.391   9.328  11.111  0.1289  0.2028  0.0239
 4782W        W 8526   3.873   5.619   7.470  0.0859  0.3362  0.1102
 4783W        W 8527   1.340   6.145   3.495 -0.1225  0.1633 -0.1459
 4784W        W 8528   0.589   9.968  10.964 -0.0114 -0.1410 -0.0299
 4785W        W 8529   7.653   9.104  11.831  0.4808 -0.2237 -0.0673
 4786W        W 8530   1.309   7.960   3.260 -0.1471 -0.0235  0.2886
 4787W        W 8531   3.604   6.111   7.632 -0.0657  0.0556 -0.1932
 4788W        W 8532   9.306   1.339   2.413  0.0649  0.2913 -0.0259
 4789W        W 8533   4.041   0.808   5.143  0.4318  0.0958  0.0046
 4790W        W 8534   9.926   4.109   2.861 -0.0066 -0.2961  0.0177
 4791W        W 8535   2.652   8.993   2.448 -0.0201  0.1321  0.0856
 4792W        W 8536   4.386   4.487   8.545 -0.3620  0.2175 -0.0871
 4793W        W 8537   4.989   3.908   0.570 -0.2005  0.3610 -0.2357
 4794W        W 8538   5.912   8.329   2.705  0.2242 -0.0299  0.1245
 4795W        W 8539   7.379   6.386  12.279  0.1787 -0.3304  0.0113
 4796W        W 8540   0.869   0.635   9.872  0.1455  0.0965  0.1272
 4797W        W 8541   4.508   7.703   0.848 -0.0756 -0.1104 -0.2104
 4798W        W 8542   4.898   3.964   8.117 -0.0273 -0.1292 -0.1396
 4799W        W 8543   3.825   4.791   0.842 -0.1243  0.3887 -0.2127
 4800W        W 8544   1.275   3.817  12.035  0.2395  0.1071  0.1004
 4801W        W 8545   5.913   6.308  12.653 -0.1917  0.5431 -0.2283
 4802W        W 8546   2.075   6.369   2.028 -0.2769  0.2602  0.3608
 4803W        W 8547   5.223   9.320  12.499  0.1523  0.3618 -0.0783
 4804W        W 8548   0.333   6.062  11.784  0.1455 -0.2648  0.5584
 4805W        W 8549   3.618   8.379   1.615  0.0704  0.1252  0.2502
 4806W        W 8550   5.617   6.909   0.029  0.1187 -0.2825 -0.0674
 4807W        W 8551   4.401   5.995   0.998 -0.0523  0.2216 -0.0928
 4808W        W 8552   7.468   3.035   9.366  0.0482  0.1413 -0.1634
 4809W        W 8553   3.789   1.527   0.398  0.0869  0.0873  0.1346
 4810W        W 8554   7.077   1.514   0.760  0.2506 -0.2745  0.0414
 4811W        W 8555   4.058   9.704   2.676  0.1070  0.1205 -0.1701
 4812W        W 8556   1.183   4.055   1.822  0.1399 -0.0479 -0.0983
 4813W        W 8557   5.612   6.114  10.925  0.0831  0.3591 -0.1053
 4814W        W 8558   5.459   9.493   9.512  0.1685 -0.0372 -0.0162
 4815W        W 8559   0.798   0.380   9.393  0.3439 -0.3829  0.1940
 4816W        W 8560   1.190   1.527   8.628  0.1353  0.0339 -0.3008
 4817W        W 8561   6.021   8.059   3.730 -0.1340  0.2679  0.1542
 4818W        W 8562   9.684   0.574   2.553  0.1348  0.4491  0.2164
 4819W        W 8563   1.995   2.156   2.457 -0.1231  0.1433 -0.1630
 4820W        W 8564   0.865   2.969   0.302 -0.0486 -0.1402  0.2634
 4821W        W 8565   0.076   0.109   1.939 -0.2780  0.2775 -0.2583
 4822W        W 8566   1.365   6.067   2.910 -0.1416  0.0649  0.2658
 4823W        W 8567   5.988   8.933   2.585 -0.0575  0.2996 -0.1040
 4824W        W 8568   9.350   6.343   9.096 -0.4182 -0.1882  0.2024
 4825W        W 8569   9.134   1.505  11.568 -0.2539  0.2135 -0.4716
 4826W        W 8570   3.416   7.810   0.809 -0.0422 -0.3358  0.2059
 4827W        W 8571   2.690   3.427   0.547  0.1669  0.0607  0.0783
 4828W        W 8572   2.308   0.805  12.531  0.2483 -0.2315  0.2077
 4829W        W 8573   5.223   1.760   2.736 -0.0141 -0.2782 -0.1709
 4830W        W 8574   5.556   0.451   9.267 -0.1200 -0.0548  0.0122
 4831W        W 8575   3.415   1.722  10.958  0.3656  0.0132 -0.1222
 4832W        W 8576   0.384   0.743  10.156  0.2012 -0.0701 -0.0541
 4833W        W 8577   2.328   8.722   8.890  0.1364 -0.2152  0.1214
 4834W        W 8578   3.089   6.240   2.032  0.1037 -0.2454 -0.0554
 4835W        W 8579   8.790   6.563  11.902  0.3552  0.1682  0.6113
 4836W        W 8580   5.731   3.161  11.133  0.0744  0.2182 -0.0306
 4837W        W 8581   5.369   9.965   9.141 -0.0524 -0.1740 -0.2751
 4838W        W 8582   5.912   5.365   8.796  0.0351 -0.2354 -0.0933
 4839W        W 8583   6.523   9.696  10.443  0.3649 -0.1842 -0.3967
 4840W        W 8584   2.231   8.685  12.527  0.2891 -0.0232  0.1247
 4841W        W 8585   5.159   1.755   1.878  0.0516  0.2088  0.3801
 4842W        W 8586   3.487   9.727   9.343  0.1125  0.1847  0.1782
 4843W        W 8587   8.896   6.898  11.026 -0.3288  0.1668  0.0856
 4844W        W 8588   6.129   2.965   4.338 -0.0413 -0.0442 -0.0424
 4845W        W 8589   0.712   4.869   0.989 -0.3733  0.2486  0.3388
 4846W        W 8590   4.330   2.497   4.189 -0.3303 -0.1903  0.3403
 4847W        W 8591   0.945   9.714   1.439  0.2741  0.0124 -0.2885
 4848W        W 8592   0.399   2.741   9.523  0.1689 -0.0661  0.2238
 4849W        W 8593   2.632   5.005   2.366  0.0785  0.1947 -0.0432
 4850W        W 8594   0.667   8.621  11.877 -0.4046 -0.0520  0.2184
 4851W        W 8595   5.712   2.447   2.106  0.0919 -0.2476 -0.3671
 4852W        W 8596   3.132   5.825  10.639 -0.1806 -0.0656  0.0757
 4853W        W 8597   6.814   9.080  11.316  0.0459 -0.4473 -0.0923
 4854W        W 8598   6.933   5.615   2.972 -0.0764  0.1945 -0.0088
 4855W        W 8599   4.680   7.733  11.783  0.3351  0.0709  0.3445
 4856W        W 8600   0.581   2.940   1.139 -0.1058  0.1916 -0.0261
 4857W        W 8601   5.663   0.763   1.272  0.0766 -0.0461  0.0160
 4858W        W 8602   7.031   5.051  10.676 -0.1951  0.0000 -0.0523
 4859W        W 8603   9.789   7.955   1.785 -0.0196 -0.1508  0.2197
 4860W        W 8604   6.147   5.253  11.192 -0.2134 -0.3974  0.3265
 4861W        W 8605   6.914   9.010   9.938  0.0284  0.0206 -0.2006
 4862W        W 8606   6.320   1.532   2.702  0.1355 -0.4907 -0.1894
 4863W        W 8607   4.165   2.839  12.343  0.3452 -0.3433 -0.1627
 4864W        W 8608   1.285   5.812   1.283  0.1147  0.0744 -0.2381
 4865W        W 8609   0.445   9.386   1.426  0.2063  0.0240 -0.1438
 4866W        W 8610   8.322   4.140  10.972 -0.3522  0.1241 -0.0014
 4867W        W 8611   6.191   4.602   8.591 -0.1526  0.0318  0.0500
 4868W        W 8612   4.136   9.159   2.238  0.0558 -0.2367 -0.1278
 4869W        W 8613   6.602   6.425  11.829 -0.0797 -0.3786  0.0329
 4870W        W 8614   5.380   1.938  10.173 -0.0530 -0.1116 -0.1013
 4871W        W 8615   0.255   2.271   4.799 -0.0145 -0.3562  0.0429
 4872W        W 8616   1.550   6.777  10.672  0.0216  0.3154 -0.1025
 4873W        W 8617   0.394   3.401   0.395 -0.0043 -0.1731 -0.0179
 4874W        W 8618   2.272   6.189  10.706 -0.1217 -0.1145 -0.1744
 4875W        W 8619   5.775   2.314  10.594 -0.0110 -0.0716  0.3639
 4876W        W 8620   7.860   6.761   8.817  0.0411  0.2179  0.3801
 4877W        W 8621   6.252   8.623   2.960  0.0587  0.3974  0.2185
 4878W        W 8622   3.059   8.253   0.505 -0.2714 -0.0715  0.0176
 4879W        W 8623   5.909   3.939  11.194 -0.1983 -0.0285 -0.1779
 4880W        W 8624   4.706   6.250  11.358 -0.1493 -0.1808  0.1360
 4881W        W 8625   6.019   8.285  11.849  0.0825 -0.0581  0.1572
 4882W        W 8626   3.861   5.785   1.926 -0.1378  0.1212  0.0680
 4883W        W 8627   2.020   6.693  10.541  0.0136 -0.0108  0.1191
 4884W        W 8628   7.255   3.996   9.793 -0.0343 -0.0412 -0.1053
 4885W        W 8629   1.994   4.531   0.512 -0.0555 -0.3467 -0.1987
 4886W        W 8630   6.744   0.376  12.508  0.1578  0.2480 -0.1540
 4887W        W 8631   6.400   9.057  12.490 -0.2015 -0.2755  0.1863
 4888W        W 8632   7.299   4.344   3.666  0.2338  0.0071 -0.1074
 4889W        W 8633   9.306   9.932   1.196  0.1565 -0.3124  0.5006
 4890W        W 8634   8.998   4.130   0.733 -0.1013  0.2065 -0.1375
 4891W        W 8635   1.818   6.196   2.677 -0.3236  0.2379  0.1840
 4892W        W 8636   5.267   9.467  11.709  0.1604  0.0182  0.4825
 4893W        W 8637   3.219   3.584  12.152  0.1771  0.2416 -0.1953
 4894W        W 8638   2.850   2.179  10.086 -0.5694  0.0926 -0.0968
 4895W        W 8639   1.984   7.170   1.912 -0.2161 -0.1161 -0.2194
 4896W        W 8640   3.245   8.885   8.952  0.3254 -0.1142  0.0776
 4897W        W 8641   6.016   8.372   0.109  0.1428 -0.0296  0.1086
 4898W        W 8642   0.909   5.062   4.402 -0.2221 -0.1082 -0.1505
 4899W        W 8643   9.566   2.810   8.860  0.0244  0.2079  0.1411
 4900W        W 8644   1.609   1.962   5.457  0.1210 -0.1108 -0.0113
 4901W        W 8645   8.364   2.817   9.764  0.0900 -0.2092  0.0870
 4902W        W 8646   7.191   2.629   2.014 -0.0776 -0.0314 -0.0243
 4903W        W 8647   4.554   8.802   2.186 -0.1452 -0.1245  0.0671
 4904W        W 8648   5.212   3.025   8.143  0.2395 -0.2910 -0.1437
 4905W        W 8649   5.266   5.538   8.554 -0.2810 -0.0341  0.0009
 4906W        W 8650   5.107   3.679   2.871  0.0487  0.1593  0.0138
 4907W        W 8651   1.717   3.900   3.181 -0.2172 -0.2448 -0.3818
 4908W        W 8652   0.665   7.164  12.052 -0.1441  0.0066 -0.1190
 4909W        W 8653   1.848   0.531   3.008 -0.0203  0.1349 -0.2837
 4910W        W 8654   6.265   0.483  12.442  0.2562 -0.0267  0.3743
 4911W        W 8655   8.762   2.981   2.018 -0.1970  0.0172  0.2133
 4912W        W 8656   1.076   6.515  10.337  0.0702  0.2272  0.1755
 4913W        W 8657   9.116   1.400   1.908  0.0555 -0.3049 -0.3511
 4914W        W 8658   2.764   1.702   8.626  0.2003 -0.0527  0.4014
 4915W        W 8659   5.763   0.187   1.178 -0.2726 -0.1307 -0.1810
 4916W        W 8660   2.919   4.106  11.797  0.1356 -0.0389  0.0621
 4917W        W 8661   9.258   8.863  11.308  0.1476 -0.0234 -0.1485
 4918W        W 8662   4.508   3.165  12.443 -0.0024  0.0045 -0.1596
 4919W        W 8663   2.280   4.162   1.986  0.1430 -0.2003  0.2349
 4920W        W 8664   5.676   7.914   3.214 -0.2764 -0.2047  0.0277
 4921W        W 8665   9.851   7.724   9.793 -0.3384 -0.0058 -0.0078
 4922W        W 8666   6.031   3.697   0.018 -0.0285 -0.1564  0.0677
 4923W        W 8667   4.330   4.346   9.851 -0.0054 -0.0580  0.1999
 4924W        W 8668   4.228   0.117  11.128  0.0337 -0.0530 -0.2421
 4925W        W 8669   3.447   3.512   2.816 -0.0117 -0.0175 -0.2448
 4926W        W 8670   3.814   0.513   9.639 -0.3279  0.1007  0.5112
 4927W        W 8671   9.120   4.656   1.964 -0.0475  0.0150 -0.2317
 4928W        W 8672   0.173   6.720  12.572 -0.1284 -0.3863  0.0464
 4929W        W 8673   4.401   9.665  11.170  0.0096  0.0799 -0.3024
 4930W        W 8674   9.966   2.618  11.569 -0.2750  0.1303 -0.0694
 4931W        W 8675   0.678   9.180  11.939  0.1144  0.3879  0.3076
 4932W        W 8676   2.740   5.151   8.202 -0.1377 -0.0972  0.1170
 4933W        W 8677   1.327   9.602  11.275 -0.1971 -0.1578 -0.1585
 4934W        W 8678   1.711   8.109  10.468 -0.1341  0.3956 -0.4107
 4935W        W 8679   5.655   7.811   0.715  0.1323 -0.0614  0.0846
 4936W        W 8680   6.383   8.616   2.352  0.0430 -0.1279 -0.4002
 4937W        W 8681   4.703   5.216   7.938 -0.3045  0.3264 -0.1386
 4938W        W 8682   4.339   4.715   0.894  0.1455  0.1843  0.0528
 4939W        W 8683   6.461   9.573   0.142  0.0585  0.0326 -0.3443
 4940W        W 8684   8.623   9.907  12.739  0.3979  0.0816  0.3352
 4941W        W 8685   8.999   1.353   9.847 -0.0303 -0.0973 -0.0772
 4942W        W 8686   6.643   3.422   1.949 -0.1559  0.0863  0.0053
 4943W        W 8687   4.678   8.710  11.594 -0.2314  0.1632  0.1629
 4944W        W 8688   3.037   8.566   1.467  0.0172  0.2856  0.1945
 4945W        W 8689   5.409   5.596   1.646  0.0990 -0.1047 -0.1230
 4946W        W 8690   7.223   1.016   0.908  0.0105  0.2574 -0.0945
 4947W        W 8691   0.058   1.107   9.409  0.1442 -0.0882  0.3903
 4948W        W 8692   2.468   9.910   2.692 -0.3680 -0.0180 -0.1883
 4949W        W 8693   1.069   8.911   1.651  0.0420 -0.1616  0.4579
 4950W        W 8694   0.789   6.807   8.953 -0.1086  0.4491  0.2035
 4951W        W 8695   0.235   9.945   8.944 -0.1755 -0.1077  0.0664
 4952W        W 8696   9.599   5.213  10.153 -0.2274  0.1065  0.1310
 4953W        W 8697   4.963   2.691  11.353  0.0972  0.3676 -0.0992
 4954W        W 8698   9.940   8.569   0.293 -0.1076 -0.0803  0.3393
 4955W        W 8699   9.187   2.109   9.440 -0.1121 -0.0755  0.1940
 4956W        W 8700   8.364   8.342  11.721  0.1499  0.1228  0.0846
 4957W        W 8701   3.820   9.302  11.015 -0.4300  0.0545  0.1807
 4958W        W 8702   9.066   1.809   1.509  0.1424 -0.0134  0.0488
 4959W        W 8703   4.965   2.768   9.694 -0.0732 -0.0694  0.0976
 4960W        W 8704   7.451   8.363   9.821  0.5307 -0.1030 -0.3131
 4961W        W 8705   1.815   0.135   0.890  0.1088  0.2467  0.1067
 4962W        W 8706   3.606   5.539   0.730  0.3789 -0.1190  0.3885
 4963W        W 8707   2.215   7.090   3.448  0.1350 -0.1654  0.1362
 4964W        W 8708   3.875   8.978   9.391 -0.1515 -0.0303  0.0077
 4965W        W 8709   1.179   1.299  11.824  0.1292 -0.0124  0.1164
 4966W        W 8710   0.868   9.554   2.534 -0.0546 -0.2227  0.0690
 4967W        W 8711   1.391   6.749   8.307 -0.0198  0.1880  0.1665
 4968W        W 8712   5.302   5.511  11.698 -0.0799 -0.1617  0.2674
 4969W        W 8713   0.944   5.410   0.466  0.2302 -0.1212 -0.0936
 4970W        W 8714   5.667   8.720   0.209 -0.1239  0.1099 -0.1628
 4971W        W 8715   4.945   6.858  10.594 -0.2426 -0.1068  0.0825
 4972W        W 8716   5.991   9.640  12.608 -0.0059 -0.0774  0.0635
 4973W        W 8717   3.089   1.404   1.749  0.3097  0.1737  0.1589
 4974W        W 8718   4.807   8.635   3.435 -0.1167 -0.2009 -0.0733
 4975W        W 8719   4.292   1.805   3.624 -0.0082 -0.1276 -0.1843
 4976W        W 8720   1.588   1.373  11.468 -0.0575  0.0562  0.0382
 4977W        W 8721   6.741   1.687   1.115  0.1351  0.1912  0.1058
 4978W        W 8722   1.606   8.181   9.511 -0.0465 -0.1043  0.0804
 4979W        W 8723   2.023   2.066   2.929 -0.2849  0.2488 -0.2377
 4980W        W 8724   8.575   1.396   1.886 -0.1213  0.3328  0.2996
 4981W        W 8725   2.024   1.666   5.167  0.1092  0.0492 -0.1069
 4982W        W 8726   1.085   7.494   2.452 -0.0218  0.1094  0.1268
 4983W        W 8727   7.176   1.714  12.044  0.1530 -0.1837 -0.2573
 4984W        W 8728   1.333   5.249   1.105 -0.0814 -0.0119 -0.0701
 4985W        W 8729   1.802   2.058   3.731 -0.0654  0.0968 -0.0736
 4986W        W 8730   0.331   3.868   0.630  0.1190  0.0903 -0.3476
 4987W        W 8731   1.733   1.952  11.469 -0.0379  0.2746  0.0271
 4988W        W 8732   5.279   7.625   4.688  0.0465 -0.2447 -0.3502
 4989W        W 8733   3.828   3.045  11.363  0.0843  0.1537  0.0139
 4990W        W 8734   6.687   7.607   0.095 -0.2591 -0.1977  0.1645
 4991W        W 8735   4.928   5.006   3.495 -0.1288 -0.0749  0.0128
 4992W        W 8736   0.589   3.538   3.311 -0.0973 -0.2611 -0.0105
 4993W        W 8737   5.033   9.678   0.688 -0.0259 -0.0296 -0.1451
 4994W        W 8738   4.606   7.312   8.957  0.0813  0.3525  0.2503
 4995W        W 8739   5.072   4.299  10.760  0.3501 -0.1803 -0.2296
 4996W        W 8740   5.337   6.483  11.329 -0.2590  0.1993 -0.1186
 4997W        W 8741   9.786   0.986   3.068  0.0396 -0.1745 -0.1277
 4998W        W 8742   7.171   2.574  12.179 -0.3460  0.2494  0.0008
 4999W        W 8743   9.735   7.589   2.116  0.1436  0.3590  0.2796
 5000W        W 8744   8.967   0.580  10.380 -0.0952  0.1011  0.1063
 5001W        W 8745   4.164   2.216   2.119  0.3225 -0.1032 -0.0084
 5002W        W 8746   3.798   3.569   9.621 -0.1356 -0.1492  0.1470
 5003W        W 8747   5.124   2.319   1.391 -0.0120 -0.0009 -0.0561
 5004W        W 8748   6.587   7.436  12.223 -0.0594 -0.1418  0.1329
 5005W        W 8749   5.320   1.275   1.877  0.1369  0.1683 -0.0993
 5006W        W 8750   8.550   7.016  11.863 -0.1433  0.2770 -0.1716
 5007W        W 8751   2.389   1.491   3.481 -0.0123 -0.0820  0.2775
 5008W        W 8752   9.008   7.869  10.353 -0.2707  0.1097  0.0295
 5009W        W 8753   3.377   1.273   9.669  0.1553 -0.3861 -0.1479
 5010W        W 8754   1.898   9.815   0.428 -0.0593  0.1762  0.0923
 5011W        W 8755   9.837   0.634   1.611 -0.0534  0.0350 -0.1981
 5012W        W 8756   8.019   1.045  12.164 -0.1539 -0.0685  0.0165
 5013W        W 8757   9.921   4.517  11.968  0.1447  0.2877 -0.3259
 5014W        W 8758   0.982   8.424   8.278  0.0330  0.1802  0.0213
 5015W        W 8759   2.991   2.546   8.697  0.0743 -0.2284 -0.0425
 5016W        W 8760   2.796   3.556   4.069  0.2453 -0.1026  0.1222
 5017W        W 8761   0.204   7.590   2.469  0.0443  0.0291  0.4910
 5018W        W 8762   7.823   5.909   9.955 -0.1344  0.1079 -0.1030
 5019W        W 8763   9.411   0.225   1.739  0.4643 -0.1443  0.0385
 5020W        W 8764   9.575   7.333  10.120  0.2114 -0.2303 -0.0140
 5021W        W 8765   2.592   8.822   1.425 -0.1892 -0.0140 -0.2738
 5022W        W 8766   4.443   5.379  12.387 -0.0885  0.1508 -0.5223
 5023W        W 8767   5.650   1.878   0.297 -0.1702 -0.2048  0.1932
 5024W        W 8768   2.224   1.467   1.017 -0.4262  0.1659  0.2733
 5025W        W 8769   9.274   4.928   1.036  0.0797 -0.1967  0.2762
 5026W        W 8770   0.841   7.544   0.885  0.0190 -0.2139 -0.0139
 5027W        W 8771   6.729   7.138   9.951 -0.0213 -0.1948  0.2069
 5028W        W 8772   6.039   1.388   1.703  0.1006  0.0547  0.1447
 5029W        W 8773   0.644   7.540   2.206 -0.1032  0.1339 -0.3610
 5030W        W 8774   9.759   5.475   8.726 -0.2543 -0.1592  0.1754
 5031W        W 8775   9.185   0.288   0.836 -0.0656 -0.0134 -0.1246
 5032W        W 8776   8.587   2.307   9.816  0.0394 -0.0130  0.2897
 5033W        W 8777   0.159   3.999  11.097 -0.2333  0.0925 -0.3568
 5034W        W 8778   5.212   7.882  11.989 -0.3001  0.1826 -0.2070
 5035W        W 8779   8.038   1.380  11.359  0.1467 -0.0436  0.0389
 5036W        W 8780   6.659   0.651   0.219  0.0081 -0.0993 -0.1728
 5037W        W 8781   6.675   1.388   2.323 -0.0352  0.1953  0.0080
 5038W        W 8782   0.080   3.769   9.234  0.0990 -0.5568 -0.2054
 5039W        W 8783   8.945   9.453  10.620  0.2570 -0.3671 -0.1160
 5040W        W 8784   7.457   4.830  12.593  0.1496  0.1575  0.4101
 5041W        W 8785   8.867   0.925   1.816  0.2030  0.1448 -0.0618
 5042W        W 8786   7.958   6.499   0.889  0.0787  0.1269 -0.2849
 5043W        W 8787   5.277   2.651  10.865 -0.0752 -0.0287 -0.2530
 5044W        W 8788   0.253   4.678  12.374  0.1309  0.0841 -0.1107
 5045W        W 8789   7.559   8.131   1.284  0.1066  0.1784 -0.1335
 5046W        W 8790   6.589   4.943  11.852 -0.2116  0.0563  0.0014
 5047W        W 8791   3.765   5.231   7.851  0.0975 -0.0541  0.1059
 5048W        W 8792   1.879   4.332   1.507  0.0035  0.1694 -0.3111
 5049W        W 8793   2.510   4.794   0.459  0.0231 -0.0448 -0.2211
 5050W        W 8794   5.693   5.928   3.626  0.3259  0.0772 -0.2145
 5051W        W 8795   0.060   3.025   0.565 -0.1069  0.0438  0.3403
 5052W        W 8796   6.224   1.007   1.164  0.1226  0.1294 -0.1189
 5053W        W 8797   1.172   7.107   0.118 -0.1758 -0.0495  0.0529
 5054W        W 8798   6.852   8.372  12.161  0.1400 -0.0261  0.1978
 5055W        W 8799   1.903   4.751   1.772 -0.1384 -0.2711 -0.0422
 5056W        W 8800   7.628   7.645   1.996 -0.1490  0.7262  0.3033
 5057W        W 8801   3.067   0.561   0.015 -0.0840  0.1290  0.0935
 5058W        W 8802   3.921   7.341   3.115 -0.0857  0.1348  0.1379
 5059W        W 8803   7.956   7.083  10.759  0.3428  0.1748 -0.1417
 5060W        W 8804   6.577   6.501   2.860 -0.1322  0.5327 -0.3263
 5061W        W 8805   1.072   1.409   9.550 -0.2651 -0.0207 -0.1181
 5062W        W 8806   3.528   8.336   0.688  0.2090  0.1888  0.1831
 5063W        W 8807   7.824   2.705   9.433 -0.2286  0.1159  0.0821
 5064W        W 8808   3.676   3.133   3.975  0.2774  0.0224  0.1642
 5065W        W 8809   2.178   0.610   8.505 -0.0379 -0.1763  0.1858
 5066W        W 8810   9.665   2.926   3.302  0.1218  0.0921 -0.0549
 5067W        W 8811   8.039   9.277   0.594  0.3161 -0.0958  0.1313
 5068W        W 8812   4.597   7.189  11.832 -0.1213  0.1705 -0.1036
 5069W        W 8813   0.513   5.763  12.391  0.0904  0.1097 -0.2100
 5070W        W 8814   5.092   9.457   2.696 -0.0698 -0.0637  0.0192
 5071W        W 8815   0.820   3.228   2.047  0.2404  0.2378  0.3559
 5072W        W 8816   2.861   2.313   1.583  0.2474  0.3984  0.1571
 5073W        W 8817   3.282   1.548   0.186 -0.0975  0.3480  0.2300
 5074W        W 8818   4.010   6.994   4.258  0.2086  0.1726  0.0383
 5075W        W 8819   6.029   7.669   9.774  0.1232  0.0809  0.1254
 5076W        W 8820   9.190   1.604  12.615 -0.3164 -0.0771 -0.1767
 5077W        W 8821   3.874   4.126   2.151 -0.2842 -0.1528  0.2073
 5078W        W 8822   8.338   9.596  10.669  0.1873  0.0225  0.0491
 5079W        W 8823   9.487   5.519   0.930 -0.0339 -0.2365 -0.1678
 5080W        W 8824   1.676   1.469   9.298  0.2240 -0.1569  0.1220
 5081W        W 8825   3.845   8.864   1.279 -0.1972 -0.1294 -0.2247
 5082W        W 8826   6.394   9.549   9.928 -0.2045  0.1405  0.0638
 5083W        W 8827   1.951   1.995   1.587 -0.2303  0.0490 -0.1891
 5084W        W 8828   0.940   7.370  10.326 -0.0344 -0.0360  0.0352
 5085W        W 8829   8.750   7.352   4.082 -0.2738  0.1264 -0.1792
 5086W        W 8830   0.794   2.593  12.715  0.2592 -0.0018  0.1332
 5087W        W 8831   6.805   8.574   1.689  0.1662 -0.1326 -0.0169
 5088W        W 8832   3.161   8.862   3.841  0.0344 -0.0613 -0.1809
 5089W        W 8833   9.358   1.505  11.122 -0.3972 -0.1793 -0.0599
 5090W        W 8834   9.681   8.673   1.783  0.1218 -0.0041 -0.1119
 5091W        W 8835   5.551   1.693   9.305 -0.2648 -0.1115 -0.0490
 5092W        W 8836   5.428   3.256   3.123 -0.6090  0.0424  0.0550
 5093W        W 8837   3.290   1.965   1.696 -0.1447  0.1967  0.3187
 5094W        W 8838   3.940   6.869   8.495 -0.0841 -0.0073  0.0919
 5095W        W 8839   7.253   4.477   9.017 -0.0408 -0.3717 -0.2929
 5096W        W 8840   1.369   1.768   9.028  0.2802  0.1115 -0.0718
 5097W        W 8841   6.753   2.480  10.964  0.1035  0.2019  0.0290
 5098W        W 8842   0.920   5.969   8.592  0.4683  0.4178  0.2236
 5099W        W 8843   3.394   9.081   4.438  0.2042  0.2575  0.1857
 5100W        W 8844   5.053   1.239   2.668  0.2203  0.3169  0.0962
 5101W        W 8845   5.856   4.780   8.923  0.0840  0.0556  0.1498
 5102W        W 8846   4.364   8.173   0.238 -0.1345  0.1333 -0.4725
 5103W        W 8847   3.716   6.330   1.253 -0.0068  0.1238  0.3040
 5104W        W 8848   3.479   7.956   0.315 -0.0322  0.1402  0.1000
 5105W        W 8849   5.662   4.674   1.504  0.3730  0.0502 -0.0427
 5106W        W 8850   0.599   2.734   3.309  0.0508  0.0658 -0.1824
 5107W        W 8851   7.945   4.214  12.230 -0.0862  0.2408  0.1427
 5108W        W 8852   3.599   8.997  11.780  0.0047 -0.2221  0.2450
 5109W        W 8853   4.040   7.151  10.037  0.1790  0.1943  0.1189
 5110W        W 8854   3.285   0.545   3.888 -0.1128  0.1798  0.0123
 5111W        W 8855   8.274   6.473  11.803 -0.1125 -0.0237  0.0307
 5112W        W 8856   2.265   0.867   2.746 -0.3407  0.2957 -0.1437
 5113W        W 8857   1.258   3.615   2.086 -0.0533  0.0850 -0.0050
 5114W        W 8858   3.134   9.180  11.670 -0.1458  0.1357 -0.1168
 5115W        W 8859   4.497   1.990   4.120 -0.1033  0.1108  0.0276
 5116W        W 8860   3.674   7.145   1.806 -0.0293  0.0322 -0.3089
 5117W        W 8861   7.485   2.420  10.787  0.2334 -0.1194  0.0487
 5118W        W 8862   4.488   0.624   1.022 -0.1802  0.3832 -0.1360
 5119W        W 8863   3.100   0.987   0.321 -0.0820 -0.1885  0.0742
 5120W        W 8864   1.068   4.426   3.434  0.0458  0.1523 -0.0296
 5121W        W 8865   5.175   0.674   2.021 -0.3058 -0.0681  0.3863
 5122W        W 8866   3.350   8.171   2.059  0.1836 -0.0351 -0.0866
 5123W        W 8867   9.023   0.433   1.914 -0.0407 -0.2428  0.1853
 5124W        W 8868   8.653   0.213  11.460  0.2465 -0.0555  0.2280
 5125W        W 8869   9.553   6.554  10.264 -0.0578  0.4502 -0.2023
 5126W        W 8870   9.586   0.949   2.196  0.2738  0.1907  0.2635
 5127W        W 8871   9.624   2.372   9.258 -0.1085 -0.3158  0.1808
 5128W        W 8872   1.976   0.322  12.697  0.2287 -0.1320 -0.0384
 5129W        W 8873   4.239   3.905   0.895 -0.3116  0.2661 -0.0457
 5130W        W 8874   8.342   7.215   0.880  0.1194 -0.1168 -0.0989
 5131W        W 8875   7.929   3.031  12.205  0.2300 -0.0860  0.1396
 5132W        W 8876   0.351   5.479  10.912  0.0995 -0.1330 -0.0677
 5133W        W 8877   9.298   5.186  10.699  0.0122  0.0631 -0.1470
 5134W        W 8878   2.565   1.366   2.619 -0.3887 -0.0294 -0.5907
 5135W        W 8879   5.942   8.369   1.492  0.1707 -0.1142  0.0079
 5136W        W 8880   9.350   6.293   4.861  0.0403  0.1198  0.1994
 5137W        W 8881   9.569   1.636   1.852  0.1120 -0.1064  0.2660
 5138W        W 8882   6.964   5.860   9.412 -0.0552  0.2635  0.0741
 5139W        W 8883   2.664   2.191   8.575  0.3596 -0.0718 -0.2148
 5140W        W 8884   2.338   9.741   9.929  0.0885  0.0336  0.0383
 5141W        W 8885   9.705   0.178   0.963  0.0559  0.2819 -0.0126
 5142W        W 8886   1.320   0.689   2.610 -0.1015  0.1073  0.0299
 5143W        W 8887   8.721   8.208   0.736 -0.1026 -0.0228 -0.0640
 5144W        W 8888   4.508   9.946   3.370 -0.2052 -0.0680  0.3529
 5145W        W 8889   6.449   1.920   3.020 -0.1227  0.2524  0.0138
 5146W        W 8890   5.140   6.963   1.430  0.2127 -0.0631 -0.0723
 5147W        W 8891   7.432   0.977   0.301  0.4632 -0.0372  0.0735
 5148W        W 8892   4.559   7.085   2.026 -0.0336 -0.1690 -0.0387
 5149W        W 8893   8.375   3.069   3.157  0.3894 -0.0182 -0.0359
 5150W        W 8894   0.551   5.807   3.781 -0.0742 -0.1901 -0.0477
 5151W        W 8895   1.780   3.947  11.964 -0.1071  0.1528  0.0102
 5152W        W 8896   8.286   0.151   2.215 -0.0463  0.0201  0.0892
 5153W        W 8897   9.348   5.996   0.562  0.1825 -0.0176  0.1960
 5154W        W 8898   4.197   6.962  12.083  0.0780  0.3645 -0.0190
 5155W        W 8899   3.081   5.946   3.689  0.0013 -0.0185  0.2559
 5156W        W 8900   9.390   4.258   0.456 -0.3684 -0.1737  0.0019
 5157W        W 8901   3.937   2.454   1.733  0.1305 -0.1569  0.3753
 5158W        W 8902   7.437   2.942  11.474 -0.0034 -0.0494  0.0824
 5159W        W 8903   3.695   6.781  11.765 -0.0561  0.1323 -0.1165
 5160W        W 8904   2.216   2.596   9.718 -0.0073  0.2029 -0.1628
 5161W        W 8905   0.014   4.547   1.071  0.1702  0.3885  0.2535
 5162W        W 8906   8.387   5.860   3.902 -0.1803 -0.0587 -0.0552
 5163W        W 8907   5.047   4.598   9.773 -0.0297  0.3258  0.0266
 5164W        W 8908   8.210   7.228   9.491 -0.3195 -0.2018 -0.2202
 5165W        W 8909   4.871   1.963   3.054 -0.0183 -0.0969  0.1096
 5166W        W 8910   9.411   2.215   1.438  0.0909 -0.2658 -0.2421
 5167W        W 8911   2.961   2.750   9.239 -0.0570 -0.4014 -0.1378
 5168W        W 8912   3.256   2.176  12.280  0.0802 -0.3445 -0.1167
 5169W        W 8913   9.854   8.120  12.186 -0.1744 -0.0517  0.0074
 5170W        W 8914   8.100   0.323   1.806 -0.1252 -0.0299  0.1324
 5171W        W 8915   5.167   6.345  12.180 -0.1472  0.1567 -0.2697
 5172W        W 8916   4.011   6.467   4.603 -0.1212  0.4193 -0.0469
 5173W        W 8917   3.418   7.446   1.378 -0.0597  0.1159 -0.0492
 5174W        W 8918   9.085   4.200   9.283 -0.3681  0.1674  0.1239
 5175W        W 8919   8.243   3.197   8.571 -0.0350 -0.0545 -0.0754
 5176W        W 8920   5.095   3.872  12.628  0.0557 -0.1107  0.0855
 5177W        W 8921   7.760   0.292  12.338  0.0045  0.0527 -0.0948
 5178W        W 8922   1.773   6.239   3.822 -0.0937 -0.2290 -0.1155
 5179W        W 8923   9.801   2.327  12.344 -0.3594 -0.1398 -0.0993
 5180W        W 8924   9.197   2.111  10.410 -0.0270 -0.0140 -0.1311
 5181W        W 8925   5.996   2.028  12.703 -0.1350 -0.1113 -0.2279
 5182W        W 8926   3.283   2.734  10.608  0.1429  0.0793  0.1981
 5183W        W 8927   1.263   4.117   3.100 -0.1618 -0.0704 -0.2997
 5184W        W 8928   6.761   9.293   1.607 -0.2326  0.0030  0.1970
 5185W        W 8929   2.284   2.193   3.513 -0.0409 -0.1636 -0.1330
 5186W        W 8930   6.287   3.767   3.110  0.0390  0.1583 -0.0006
 5187W        W 8931   9.567   2.758   2.345 -0.1392 -0.0315  0.2383
 5188W        W 8932   7.551   5.710  10.474 -0.4372  0.4455  0.0617
 5189W        W 8933   7.177   2.028   0.887  0.1056 -0.0714  0.0153
 5190W        W 8934   8.764   4.093   1.390  0.1227 -0.2683  0.0662
 5191W        W 8935   9.684   4.185   0.052  0.1294 -0.2885 -0.0587
 5192W        W 8936   8.271   7.796   3.288 -0.0606  0.0739 -0.0673
 5193W        W 8937   6.314   3.060  11.088  0.1921  0.1453  0.0729
 5194W        W 8938   6.865   1.620   0.286  0.0909  0.2521  0.0248
 5195W        W 8939   3.404   8.480   9.265  0.0701 -0.0790  0.0264
 5196W        W 8940   5.901   6.929   2.360  0.1607  0.1054 -0.0952
 5197W        W 8941   2.540   7.639  11.630 -0.1661 -0.2902 -0.2786
 5198W        W 8942   5.821   5.654  12.723 -0.1705  0.4939  0.3845
 5199W        W 8943   0.018   4.512  10.627  0.2127  0.0084  0.2623
 5200W        W 8944   8.718   8.412  12.106 -0.1914  0.0617  0.1367
 5201W        W 8945   2.717   8.595   5.151 -0.0456  0.3046  0.2231
 5202W        W 8946   2.003   9.561   1.042  0.0535  0.3078 -0.3499
 5203W        W 8947   3.951   4.917   1.698 -0.1569 -0.1177 -0.2417
 5204W        W 8948   7.950   7.574   9.844 -0.1923 -0.0210  0.0238
 5205W        W 8949   2.977   4.542  11.369 -0.1312 -0.0758  0.2071
 5206W        W 8950   5.674   4.524  12.296 -0.2038  0.0640 -0.1548
 5207W        W 8951   0.587   0.979  11.175  0.3169 -0.0111 -0.1588
 5208W        W 8952   4.930   8.662  10.274 -0.2896  0.1510 -0.3165
 5209W        W 8953   7.436   9.825  12.126  0.2828 -0.1445 -0.4788
 5210W        W 8954   1.838   0.162   1.452 -0.1579  0.2336  0.0800
 5211W        W 8955   0.203   7.194   0.167 -0.0489 -0.0084  0.0248
 5212W        W 8956   9.181   0.868   0.836  0.5643 -0.1758 -0.3191
 5213W        W 8957   1.892   8.989   0.916  0.2578  0.2402  0.2874
 5214W        W 8958   4.747   4.175   0.125  0.0505 -0.5971 -0.1222
 5215W        W 8959   7.502   1.916  10.910 -0.2172 -0.1190  0.2372
 5216W        W 8960   0.604   4.879   2.708  0.0942  0.0856 -0.0385
 5217W        W 8961   3.683   4.743   3.375  0.3347 -0.1913  0.1651
 5218W        W 8962   1.124   5.104  10.828 -0.0266  0.4348 -0.3531
 5219W        W 8963   3.502   6.629   4.393 -0.0781 -0.1030  0.0530
 5220W        W 8964   5.952   5.699   1.346 -0.1631  0.0199 -0.0610
 5221W        W 8965   6.261   7.300  10.147  0.0425 -0.2537 -0.0742
 5222W        W 8966   5.151   6.186   4.326  0.0521 -0.0916 -0.1245
 5223W        W 8967   8.095   2.715  12.529 -0.0635 -0.0413  0.2041
 5224W        W 8968   3.144   8.539  12.344  0.0712  0.0484 -0.0806
 5225W        W 8969   0.846   6.217   3.552 -0.1227 -0.1212 -0.0465
 5226W        W 8970   5.345   5.421   2.235 -0.0319  0.1648 -0.2442
 5227W        W 8971   2.717   5.108  10.839 -0.2676 -0.2118 -0.1289
 5228W        W 8972   1.024   3.939   2.684 -0.0011  0.3183  0.0554
 5229W        W 8973   7.468   4.661  10.553  0.1418 -0.0684 -0.1061
 5230W        W 8974   4.618   8.497   1.260  0.2261  0.0143 -0.1485
 5231W        W 8975   3.750   6.665  10.426 -0.0141  0.1828  0.2046
 5232W        W 8976   0.946   2.261  10.287 -0.1499  0.0926 -0.3715
 5233W        W 8977   0.798   8.893  12.336  0.0970 -0.0703  0.0461
 5234W        W 8978   3.271   8.569  10.164 -0.3283  0.0463  0.2415
 5235W        W 8979   4.676   1.469   0.179  0.1837 -0.0900  0.1917
 5236W        W 8980   3.705   4.027   0.903  0.0907  0.3703  0.2237
 5237W        W 8981   9.733   3.629  11.405  0.2926  0.1511  0.1853
 5238W        W 8982   3.382   3.740  10.959 -0.0103  0.4179  0.1241
 5239W        W 8983   0.580   3.933   0.089  0.0917 -0.1268 -0.2593
 5240W        W 8984   4.970   3.080   2.097  0.2998 -0.2096 -0.1320
 5241W        W 8985   1.152   3.364  10.327 -0.1040  0.0961 -0.1653
 5242W        W 8986   0.101   3.791   1.197  0.1327  0.0873  0.2860
 5243W        W 8987   4.208   2.140   9.381 -0.0096 -0.1865 -0.0172
 5244W        W 8988   4.467   1.969  12.744 -0.0279  0.0377  0.0860
 5245W        W 8989   6.312   6.490  12.218  0.1882  0.1409  0.0051
 5246W        W 8990   2.846   1.346   4.421 -0.1717 -0.0942  0.0848
 5247W        W 8991   5.698   3.495   0.791  0.1542 -0.0516 -0.0400
 5248W        W 8992   0.504   0.269   2.177  0.3125 -0.0255 -0.0905
 5249W        W 8993   3.147   9.771  10.538  0.0858 -0.0899 -0.0030
 5250W        W 8994   0.330   2.188   0.656 -0.1619  0.3145  0.0387
 5251W        W 8995   1.227   3.028   8.683 -0.2394 -0.0470  0.0935
 5252W        W 8996   5.871   6.197  11.373 -0.0169  0.1027  0.0911
 5253W        W 8997   9.570   7.732   1.406  0.3032  0.0660  0.1871
 5254W        W 8998   0.443   2.185  12.566  0.1611  0.3366 -0.1355
 5255W        W 8999   4.314   5.201  11.419  0.0520 -0.2677  0.2213
 5256W        W 9000   3.767   8.347   3.389  0.2636  0.0490  0.2239
 5257W        W 9001   4.427   3.836   9.054 -0.1480 -0.0628  0.0578
 5258W        W 9002   1.092   8.165   4.601  0.4556  0.0892  0.0134
 5259W        W 9003   9.807   3.243   9.860  0.2545  0.2122 -0.0327
 5260W        W 9004   3.195   5.636   0.431  0.1401  0.1470  0.0807
 5261W        W 9005   3.974   3.317   4.363 -0.0180  0.0833  0.1064
 5262W        W 9006   4.422   7.574   1.886  0.0257 -0.0329 -0.0435
 5263W        W 9007   4.913   9.085   1.933 -0.0177 -0.1337 -0.1638
 5264W        W 9008   4.828   4.408  11.840  0.0560  0.3585  0.1196
 5265W        W 9009   7.647   6.492   4.299 -0.0526  0.1681  0.1803
 5266W        W 9010   8.094   4.858  11.118 -0.2054  0.1817 -0.0830
 5267W        W 9011   2.787   0.821  10.658  0.0288 -0.2756 -0.2534
 5268W        W 9012   7.064   4.513  11.292  0.1903 -0.1447 -0.0782
 5269W        W 9013   8.086   0.086   9.573  0.1522 -0.1448 -0.1246
 5270W        W 9014   9.371   9.320   3.880  0.0437  0.1309 -0.2030
 5271W        W 9015   8.549   3.840  10.620 -0.0896  0.1933  0.1985
 5272W        W 9016   9.107   6.318   1.629  0.0887 -0.2932 -0.0044
 5273W        W 9017   0.612   6.836   0.087 -0.3123 -0.0509  0.0263
 5274W        W 9018   5.296   6.597  10.781  0.5437 -0.0546 -0.0221
 5275W        W 9019   2.875   6.487   3.781 -0.3015  0.0787 -0.1321
 5276W        W 9020   1.623   9.965  11.434 -0.0097  0.1409  0.0501
 5277W        W 9021   4.886   5.240   8.480 -0.2376 -0.0276 -0.1438
 5278W        W 9022   6.459   4.485   9.668  0.0447 -0.0711 -0.1333
 5279W        W 9023   4.818   4.738   0.916  0.1185  0.0570  0.0713
 5280W        W 9024   4.320   1.123   0.331 -0.0936 -0.2256  0.1708
 5281W        W 9025   6.978   9.163   3.020 -0.0421 -0.0961 -0.2163
 5282W        W 9026   2.282   3.342  11.797  0.0883  0.1859  0.1713
 5283W        W 9027   3.562   4.028   2.533 -0.1322 -0.0311  0.0119
 5284W        W 9028   1.206   7.260   3.442  0.0440 -0.1232  0.2425
 5285W        W 9029   3.146   9.140   0.675 -0.1698 -0.0933 -0.3547
 5286W        W 9030   8.109   5.745   0.655 -0.2887  0.0463  0.1466
 5287W        W 9031   1.674   6.063   1.064 -0.0687 -0.0190 -0.0388
 5288W        W 9032   2.995   9.752  11.056  0.0332 -0.4227  0.0077
 5289W        W 9033   3.927   7.110  11.143 -0.0111 -0.0884  0.1074
 5290W        W 9034   2.802   9.054  12.425 -0.2917  0.0423  0.2857
 5291W        W 9035   6.384   7.249  11.770  0.3367 -0.3561 -0.0728
 5292W        W 9036   9.006   6.978   0.093 -0.0398  0.0521 -0.0566
 5293W        W 9037   8.645   4.436   8.492  0.1006 -0.0207  0.1007
 5294W        W 9038   6.062   4.771   1.142 -0.1117  0.1751 -0.1152
 5295W        W 9039   5.520   9.783  10.984 -0.1580 -0.4650 -0.0900
 5296W        W 9040   6.832   2.214  11.534  0.1693 -0.2237 -0.0619
 5297W        W 9041   4.929   1.712   4.297  0.0271  0.2397  0.3492
 5298W        W 9042   4.775   9.224  10.542  0.1383  0.2223  0.1951
 5299W        W 9043   5.759   0.637  12.637 -0.1790  0.0108 -0.1105
 5300W        W 9044   5.443   2.856   2.166  0.1002 -0.0202 -0.1190
 5301W        W 9045   2.905   8.158   9.244  0.0649  0.0015 -0.0204
 5302W        W 9046   2.336   4.504  10.145  0.1376  0.4310 -0.1736
 5303W        W 9047   9.850   4.033   3.437  0.2164  0.0853  0.3130
 5304W        W 9048   3.213   4.093   0.773 -0.0031  0.0826  0.0721
 5305W        W 9049   5.969   1.271  11.346 -0.1613 -0.2212  0.1757
 5306W        W 9050   7.438   9.906   2.888  0.0567  0.1024  0.3332
 5307W        W 9051   7.615   3.122   1.719 -0.2131  0.0235 -0.3000
 5308W        W 9052   8.633   9.500   1.323 -0.2390  0.1527 -0.1173
 5309W        W 9053   4.453   5.679  11.392  0.0758 -0.0762 -0.1392
 5310W        W 9054   9.015   7.615  12.539  0.1378  0.1403  0.2494
 5311W        W 9055   8.830   6.508   9.017  0.0680 -0.0861 -0.1977
 5312W        W 9056   7.364   1.757   9.717  0.0996  0.0568 -0.0698
 5313W        W 9057   9.507   9.034   0.111 -0.0910 -0.1813  0.2570
 5314W        W 9058   1.867   5.828   8.408  0.2231  0.0780 -0.0187
 5315W        W 9059   8.116   6.339  11.354 -0.3207  0.2539  0.1807
 5316W        W 9060   7.074   3.985   0.743 -0.0199 -0.1687  0.1772
 5317W        W 9061   1.469   2.736  11.092 -0.0985  0.0343  0.1839
 5318W        W 9062   7.673   2.441   3.350  0.1487 -0.4165 -0.1369
 5319W        W 9063   9.014   8.493  10.997 -0.3282 -0.1991 -0.2780
 5320W        W 9064   6.220   5.476   8.376 -0.0982 -0.0092 -0.0850
 5321W        W 9065   5.981   9.845   9.717 -0.4436  0.1432  0.0307
 5322W        W 9066   1.810   3.721   9.892  0.1778 -0.0155  0.0645
 5323W        W 9067   8.053   8.687  10.750  0.2711  0.0176 -0.0092
 5324W        W 9068   3.704   6.223   2.099 -0.0387 -0.1097 -0.5274
 5325W        W 9069   7.408   4.426   3.151 -0.2394  0.2136 -0.2234
 5326W        W 9070   1.742   8.047  12.061  0.1678  0.1994  0.0292
 5327W        W 9071   9.717   6.434   8.718 -0.2314 -0.3536 -0.1774
 5328W        W 9072   4.944   0.310   2.221 -0.0512  0.2864  0.2532
 5329W        W 9073   6.071   7.773   2.983  0.1139 -0.2426  0.1517
 5330W        W 9074   9.122   6.544   3.897  0.1882  0.1882  0.0310
 5331W        W 9075   6.859   9.100   0.087  0.0587 -0.2682  0.2426
 5332W        W 9076   8.844   4.381  12.306  0.0379  0.0577  0.1572
 5333W        W 9077   7.929   4.849  10.299  0.2629  0.1582 -0.1246
 5334W        W 9078   6.560   1.594   1.593 -0.0932  0.2493 -0.0645
 5335W        W 9079   7.556   7.098   3.417 -0.2234  0.0329  0.1216
 5336W        W 9080   5.182   3.255   9.586 -0.0302  0.0594  0.2158
 5337W        W 9081   3.710   9.493   2.412  0.0150 -0.0041  0.3656
 5338W        W 9082   3.228   2.741   2.733 -0.0247 -0.1594 -0.1455
 5339W        W 9083   5.337   7.466  11.176 -0.1402  0.2907 -0.0780
 5340W        W 9084   2.079   8.931  11.712 -0.0912 -0.2151  0.1572
 5341W        W 9085   0.973   0.896   4.221 -0.0734 -0.2310 -0.3689
 5342W        W 9086   2.341   7.475  10.208 -0.1694  0.5583 -0.0559
 5343W        W 9087   3.305   4.799  12.567 -0.3117  0.2458  0.1560
 5344W        W 9088   7.121   4.344  11.998  0.1266 -0.1571 -0.1428
 5345W        W 9089   7.493   2.244   2.306 -0.1397 -0.1368 -0.1223
 5346W        W 9090   7.274   9.353   9.786  0.3264 -0.3364 -0.0796
 5347W        W 9091   2.683   8.403   2.441 -0.0521  0.0816 -0.0591
 5348W        W 9092   8.633   4.993   1.940 -0.3164 -0.3083  0.1547
 5349W        W 9093   2.623   0.539   1.545 -0.1640 -0.2133 -0.2797
 5350W        W 9094   6.931   4.023  11.151 -0.0822  0.1113 -0.0360
 5351W        W 9095   6.863   9.566  11.365 -0.1760  0.0262  0.1409
 5352W        W 9096   1.155   8.908  11.927 -0.3749  0.1687 -0.3723
 5353W        W 9097   8.749   4.602   1.668 -0.1825 -0.0121  0.2715
 5354W        W 9098   4.307   3.356  10.458  0.0744  0.2570 -0.3925
 5355W        W 9099   3.463   9.437   0.935  0.0717 -0.0440  0.1482
 5356W        W 9100   2.262   7.453   1.514 -0.0470 -0.1105 -0.2257
 5357W        W 9101   5.006   4.418   9.271 -0.0046 -0.1028  0.0033
 5358W        W 9102   8.547   2.947  10.685 -0.3223 -0.1432 -0.1110
 5359W        W 9103   4.135   8.233   8.669 -0.2022  0.0967 -0.2271
 5360W        W 9104   4.975   9.134  11.365  0.1879  0.2834  0.0374
 5361W        W 9105   7.051   8.108  10.039  0.1400  0.1414  0.0543
 5362W        W 9106   0.064   4.896   8.861 -0.2746  0.1309 -0.1771
 5363W        W 9107   4.592   9.006   8.569  0.0333 -0.0006 -0.1289
 5364W        W 9108   3.479   8.068   9.713 -0.1141 -0.3000 -0.1902
 5365W        W 9109   2.933   7.914   3.446 -0.1245 -0.0465 -0.0751
 5366W        W 9110   5.344   6.432  10.114 -0.4305 -0.0218  0.1149
 5367W        W 9111   9.571   6.532  11.151  0.0305  0.1548 -0.0313
 5368W        W 9112   8.467   1.367   0.356 -0.1996 -0.1098  0.3418
 5369W        W 9113   4.495   3.927   0.459 -0.2490  0.3954 -0.2938
 5370W        W 9114   2.989   5.403   2.188 -0.1391 -0.4382  0.2472
 5371W        W 9115   8.005   8.144   9.122 -0.2305 -0.4987  0.1557
 5372W        W 9116   3.990   3.514   3.816 -0.0512  0.0047  0.0793
 5373W        W 9117   6.086   1.427  11.987 -0.0134  0.0861 -0.1437
 5374W        W 9118   2.259   3.936   3.509 -0.2596  0.0876  0.0572
 5375W        W 9119   7.926   3.608   2.503  0.0118 -0.0122  0.1738
 5376W        W 9120   8.736   1.628  11.930 -0.1773  0.1294  0.1244
 5377W        W 9121   5.953   3.180  10.150 -0.2465 -0.0090  0.0436
 5378W        W 9122   7.700   6.229  10.530  0.1977 -0.0372  0.3180
 5379W        W 9123   3.136   4.438   3.106 -0.2371 -0.0825 -0.2840
 5380W        W 9124   0.074   0.482   1.091 -0.1034 -0.1232  0.0475
 5381W        W 9125   2.856   4.849   7.825 -0.1597 -0.0265 -0.1403
 5382W        W 9126   1.153   1.390   0.666 -0.2409 -0.1456  0.0245
 5383W        W 9127   8.809   5.559   3.845  0.2066 -0.2488  0.0495
 5384W        W 9128   7.327   6.994  12.218 -0.1094  0.0055 -0.0733
 5385W        W 9129   5.611   8.254   1.119  0.0610  0.0308 -0.2257
 5386W        W 9130   6.542   0.588   3.160  0.0727 -0.2806 -0.1794
 5387W        W 9131   5.932   3.774  12.171 -0.1244  0.0484  0.2125
 5388W        W 9132   7.074   2.140  11.052 -0.0422 -0.3058  0.0410
 5389W        W 9133   7.593   7.061   1.450 -0.0712 -0.2968 -0.2539
 5390W        W 9134   6.376   6.932   1.614  0.2562  0.2440 -0.2793
 5391W        W 9135   2.417   6.346   9.093  0.3027  0.0922  0.0566
 5392W        W 9136   2.745   1.311   1.028 -0.2515 -0.1480 -0.2667
 5393W        W 9137   2.708   5.224   4.311  0.0912  0.0621  0.2408
 5394W        W 9138   6.604   5.410  10.805  0.1134 -0.2152  0.1937
 5395W        W 9139   9.863   3.619   8.302 -0.1775  0.1010 -0.1124
 5396W        W 9140   5.899   8.704  11.019  0.0589  0.2153 -0.0057
 5397W        W 9141   1.969   3.245   1.529  0.1408 -0.1004  0.1080
 5398W        W 9142   2.268   0.480   4.317 -0.2337  0.0035 -0.0250
 5399W        W 9143   6.837   2.327   3.618  0.3583 -0.0996  0.0672
 5400W        W 9144   9.462   2.485   0.261 -0.2631  0.1439  0.1377
 5401W        W 9145   7.944   1.892   2.528  0.0792 -0.1370 -0.0843
 5402W        W 9146   8.417   9.936   1.294 -0.0888 -0.0967 -0.0949
 5403W        W 9147   5.094   5.901   9.308  0.1204 -0.0970  0.1076
 5404W        W 9148   6.291   5.187   4.699 -0.0686  0.0473  0.1902
 5405W        W 9149   3.138   6.537   0.646  0.0700 -0.1906 -0.0319
 5406W        W 9150   1.525   6.984  12.510  0.2528 -0.1316 -0.0230
 5407W        W 9151   6.861   8.466  10.516  0.1826  0.0017 -0.4576
 5408W        W 9152   8.157   5.380   9.352  0.3464 -0.0684  0.3211
 5409W        W 9153   0.911   6.122   9.143  0.1657 -0.0136 -0.0372
 5410W        W 9154   1.290   0.579   9.597  0.0387  0.0966 -0.0557
 5411W        W 9155   4.060   3.055   0.959 -0.1653 -0.1060 -0.0778
 5412W        W 9156   5.867   0.999   0.350 -0.1239  0.0217  0.3466
 5413W        W 9157   2.253   6.967  10.168 -0.2198  0.2418 -0.1591
 5414W        W 9158   1.840   6.238   9.134  0.0067 -0.0918  0.0165
 5415W        W 9159   3.904   0.710  12.235 -0.1662 -0.1263 -0.0441
 5416W        W 9160   3.539   4.806  12.118 -0.2004  0.1208 -0.0393
 5417W        W 9161   0.357   1.463  10.803 -0.2241  0.0042 -0.1696
 5418W        W 9162   7.466   1.462  10.613  0.1723  0.2298 -0.1532
 5419W        W 9163   7.033   8.253  10.978  0.1524  0.3245 -0.0238
 5420W        W 9164   5.744   4.573  10.417 -0.0101 -0.0903  0.2912
 5421W        W 9165   5.059   0.761   4.186 -0.1657 -0.0044  0.3412
 5422W        W 9166   8.814   5.112   2.924 -0.1160 -0.2832  0.1639
 5423W        W 9167   7.941   7.891   1.064 -0.0402 -0.0258  0.1321
 5424W        W 9168   5.731   1.099  11.769  0.1929  0.5749 -0.1565
 5425W        W 9169   6.929   8.291   3.951  0.0789 -0.2140 -0.0297
 5426W        W 9170   3.866   8.524   4.485 -0.0577 -0.1127 -0.2033
 5427W        W 9171   9.098   3.338   0.372 -0.0882 -0.0477 -0.0499
 5428W        W 9172   9.275   2.625   3.147  0.1304 -0.0203  0.2572
 5429W        W 9173   3.258   7.532  11.172  0.0078 -0.3880 -0.0593
 5430W        W 9174   9.501   3.080   2.808  0.0281 -0.3907 -0.1196
 5431W        W 9175   6.992   2.905   0.149 -0.0413  0.2005 -0.1207
 5432W        W 9176   6.464   6.501   1.958 -0.1467 -0.1277  0.2521
 5433W        W 9177   4.407   3.481   4.165  0.1318  0.0578 -0.0335
 5434W        W 9178   1.419   6.267  10.697 -0.1454  0.2607  0.0570
 5435W        W 9179   0.215   5.772   4.585 -0.0398  0.2806 -0.2362
 5436W        W 9180   0.960   8.063   3.680 -0.3667  0.2530  0.1524
 5437W        W 9181   3.211   7.895   3.886 -0.1258 -0.3822 -0.2014
 5438W        W 9182   2.629   6.842   4.611  0.2236  0.0434  0.1261
 5439W        W 9183   4.098   0.399   2.669  0.2289 -0.0981 -0.1323
 5440W        W 9184   1.445   6.490   0.290  0.0436 -0.0608  0.2550
 5441W        W 9185   0.679   7.769   1.274 -0.3037 -0.2586 -0.0219
 5442W        W 9186   7.518   3.535   9.759 -0.0483  0.0806  0.0742
 5443W        W 9187   6.529   9.649  11.837 -0.1333 -0.0756 -0.2998
 5444W        W 9188   6.342   4.885   0.712 -0.0353  0.1617  0.0657
 5445W        W 9189   9.238   0.716   0.346  0.2256  0.3059 -0.0201
 5446W        W 9190   7.945   7.872   2.631 -0.1579 -0.2770  0.2798
 5447W        W 9191   6.345   7.408   0.811 -0.1098  0.0396  0.3872
 5448W        W 9192   3.321   4.664  10.741  0.0480  0.0670  0.0496
 5449W        W 9193   1.874   8.386   1.508 -0.1891  0.0731 -0.2776
 5450W        W 9194   0.965   5.768   1.669  0.2061  0.2112  0.2963
 5451W        W 9195   4.713   1.389   3.349  0.0800  0.1007 -0.0301
 5452W        W 9196   3.020   6.713   9.819 -0.1519  0.1574 -0.2488
 5453W        W 9197   0.212   6.300   9.575 -0.1804 -0.1585  0.0201
 5454W        W 9198   6.765   4.216  11.616 -0.3658  0.0499  0.0054
 5455W        W 9199   6.979   6.665   1.087  0.0105  0.0503 -0.0756
 5456W        W 9200   0.522   2.883   0.610 -0.0145 -0.2355 -0.2462
 5457W        W 9201   3.251   5.510   1.500  0.1158 -0.4817  0.1884
 5458W        W 9202   2.396   5.583   8.366  0.0862 -0.0257 -0.0667
 5459W        W 9203   2.063   0.655   5.283 -0.2035 -0.0470  0.1424
 5460W        W 9204   0.832   9.029   4.074 -0.0192  0.2609 -0.6123
 5461W        W 9205   1.841   0.830  10.319  0.2354  0.0096  0.1656
 5462W        W 9206   0.269   5.192  10.494  0.1062  0.2236  0.2404
 5463W        W 9207   9.155   9.945  10.954  0.0141 -0.1454 -0.2068
 5464W        W 9208   2.297   5.050   8.365  0.2814 -0.0222 -0.1479
 5465W        W 9209   1.030   3.211   9.558 -0.2551 -0.1999 -0.0322
 5466W        W 9210   8.489   6.236   9.219 -0.1996 -0.1420  0.2033
 5467W        W 9211   2.597   3.653   2.732 -0.0440 -0.0018 -0.0776
 5468W        W 9212   4.896   7.562  10.934  0.1591 -0.1839  0.1184
 5469W        W 9213   4.761   4.056  12.306 -0.0331 -0.3095 -0.2886
 5470W        W 9214   7.364   3.917  10.734 -0.2233 -0.1348 -0.0786
 5471W        W 9215   8.072   8.708   3.739  0.2502  0.0700  0.2449
 5472W        W 9216   5.124   3.466   0.782  0.0185 -0.0654 -0.0457
 5473W        W 9217   8.662   6.697  11.430 -0.0026  0.2564 -0.0996
 5474W        W 9218   9.872   2.719   9.560 -0.0410  0.1702 -0.0686
 5475W        W 9219   9.875   5.966  10.997 -0.0040 -0.4858  0.0163
 5476W        W 9220   3.250   1.005  12.084 -0.1189  0.1464 -0.1541
 5477W        W 9221   4.962   8.963  11.897  0.1587  0.2847 -0.1169
 5478W        W 9222   2.319   2.696   3.299 -0.2973 -0.1108  0.0186
 5479W        W 9223   8.189   6.077  12.320 -0.0170 -0.0317  0.0959
 5480W        W 9224   4.773   8.820   9.791  0.0517  0.0632  0.0780
 5481W        W 9225   6.850   3.720  12.308  0.0536 -0.0545 -0.4386
 5482W        W 9226   3.319   3.517   8.491  0.0496 -0.0073 -0.0246
 5483W        W 9227   9.854   9.484  12.622 -0.0516 -0.1157  0.0832
 5484W        W 9228   8.769   3.485   9.891 -0.3261 -0.2132 -0.2782
 5485W        W 9229   9.704   8.947   9.492  0.0988 -0.2166 -0.2748
 5486W        W 9230   9.623   8.358  11.816 -0.1213  0.1739  0.0119
 5487W        W 9231   8.717   3.605   0.716  0.1445  0.2165  0.1244
 5488W        W 9232   6.910   5.184  10.051 -0.2811 -0.3262  0.1509
 5489W        W 9233   2.725   9.714  12.635  0.2347  0.1711 -0.4990
 5490W        W 9234   2.077   6.233   9.594  0.0260  0.2037  0.1412
 5491W        W 9235   5.035   4.036  10.316 -0.1109  0.0218  0.1546
 5492W        W 9236   7.296   8.952  12.413  0.1975  0.1162 -0.0929
 5493W        W 9237   2.855   6.548  12.345  0.1974  0.0436 -0.1185
 5494W        W 9238   3.248   3.738  11.676 -0.1468  0.2893 -0.0572
 5495W        W 9239   6.502   4.832   4.302 -0.1543 -0.5103 -0.0035
 5496W        W 9240   9.362   6.871   3.442 -0.1979  0.0103 -0.0363
 5497W        W 9241   2.419   8.894   9.318  0.0354 -0.0589  0.0418
 5498W        W 9242   1.591   6.618   3.509 -0.0089  0.1026  0.1480
 5499W        W 9243   7.233   2.780   1.510 -0.0135  0.0207 -0.0002
 5500W        W 9244   8.660   9.534   1.875 -0.0321  0.0652  0.0761
 5501W        W 9245   9.318   5.926  12.080 -0.1976 -0.0224 -0.1382
 5502W        W 9246   9.176   0.147  10.481 -0.1100 -0.0496  0.2150
 5503W        W 9247   2.592   6.246   3.443 -0.0195 -0.1001 -0.2053
 5504W        W 9248   6.096   7.413   2.627  0.2390 -0.0485  0.1254
 5505W        W 9249   9.844   2.213   1.095  0.0479 -0.0891  0.1558
 5506W        W 9250   1.120   9.382  10.315  0.2002  0.0418 -0.0260
 5507W        W 9251   3.965   1.927   0.051 -0.4719 -0.0369 -0.1206
 5508W        W 9252   9.915   5.470   0.773 -0.0727 -0.1294  0.1502
 5509W        W 9253   4.873   1.198   4.122  0.1903  0.1330 -0.1589
 5510W        W 9254   8.452   2.573   3.269 -0.3114 -0.1430  0.0870
 5511W        W 9255   5.621   5.295  10.743  0.1260  0.1520  0.1399
 5512W        W 9256   9.203   6.955   2.200 -0.0173  0.3501  0.0976
 5513W        W 9257   4.360   1.319   1.575  0.1397 -0.1867  0.2870
 5514W        W 9258   0.765   5.213  10.349  0.3338  0.0103  0.2480
 5515W        W 9259   2.232   6.002  11.194  0.1003 -0.1284 -0.1429
 5516W        W 9260   4.600   4.132   3.436  0.3561 -0.0102  0.1531
 5517W        W 9261   8.778   6.656   2.057 -0.1245  0.2032  0.0229
 5518W        W 9262   4.137   0.959   4.137 -0.1066 -0.1837  0.0221
 5519W        W 9263   5.309   9.810   3.053 -0.1735  0.2128 -0.3816
 5520W        W 9264   8.222   3.074  11.179  0.0958 -0.2299 -0.0030
 5521W        W 9265   1.634   9.730   3.111  0.2183 -0.0830  0.0063
 5522W        W 9266   9.172   5.819   3.605  0.1914  0.1156 -0.0415
 5523W        W 9267   4.454   5.404   3.676  0.0530 -0.0957  0.2819
 5524W        W 9268   8.420   9.621   0.856 -0.2420  0.4723  0.1577
 5525W        W 9269   3.211   8.908  12.697 -0.1500 -0.1945  0.0830
 5526W        W 9270   4.153   8.465  10.559  0.0828 -0.0930 -0.3935
 5527W        W 9271   9.887   6.440  10.788  0.1437  0.3597 -0.0842
 5528W        W 9272   1.834   1.433   2.000  0.2483 -0.1132 -0.2817
 5529W        W 9273   9.554   4.221  10.661  0.1418  0.0817 -0.0805
 5530W        W 9274   6.836   2.953  12.258 -0.1468  0.0004  0.2301
 5531W        W 9275   2.816   0.462   3.163  0.1072  0.2323 -0.1039
 5532W        W 9276   5.827   0.100   0.690 -0.0648 -0.3157 -0.2521
 5533W        W 9277   6.011   0.549   0.803  0.0080  0.2454 -0.1614
 5534W        W 9278   3.273   3.448   9.810  0.4064 -0.1740  0.2439
 5535W        W 9279   5.160   1.551   0.317 -0.0786 -0.1735  0.3445
 5536W        W 9280   2.251   6.214   3.052 -0.0824  0.4147  0.0528
 5537W        W 9281   7.695   5.725   0.200 -0.0692 -0.1846 -0.0561
 5538W        W 9282   3.978   7.552   2.630 -0.2219 -0.2065 -0.0837
 5539W        W 9283   4.024   2.421  11.991  0.0858 -0.1419 -0.0760
 5540W        W 9284   6.599   6.625   0.748  0.0121  0.2775 -0.0647
 5541W        W 9285   0.216   5.383   3.256  0.0766 -0.2394 -0.1026
 5542W        W 9286   9.137   9.844  12.622  0.0883 -0.0017  0.0506
 5543W        W 9287   3.424   1.321  10.183 -0.2087 -0.1127 -0.0162
 5544W        W 9288   1.831   5.964   1.946 -0.1492  0.1301 -0.3768
 5545W        W 9289   2.154   8.848   0.282 -0.0253  0.0644 -0.0166
 5546W        W 9290   7.801   8.256  12.255 -0.3506  0.1565  0.1727
 5547W        W 9291   0.199   8.508   2.484  0.1993 -0.0266 -0.2048
 5548W        W 9292   6.872   7.074   3.946 -0.0247  0.0413  0.2098
 5549W        W 9293   6.253   5.966   3.591 -0.2011 -0.0853 -0.1076
 5550W        W 9294   1.475   3.792  10.303 -0.2226  0.3150 -0.0936
 5551W        W 9295   6.128   4.122   8.700  0.0912 -0.0442  0.0943
 5552W        W 9296   8.466   5.672  12.259  0.4016  0.2504  0.0990
 5553W        W 9297   2.997   7.681   1.139 -0.2777 -0.1985 -0.0645
 5554W        W 9298   8.142   5.944   0.043  0.1302  0.0463 -0.4695
 5555W        W 9299   1.757   0.522   3.586 -0.2883 -0.0151  0.1106
 5556W        W 9300   5.520   0.905   8.156 -0.0614  0.0850 -0.1939
 5557W        W 9301   7.614   9.823   9.621 -0.2912  0.1312 -0.0222
 5558W        W 9302   3.946   9.222   2.789  0.1195 -0.1085 -0.0133
 5559W        W 9303   7.251   9.875  11.103 -0.0597  0.1310 -0.0703
 5560W        W 9304   0.763   8.760  11.011  0.0032 -0.3165 -0.1376
 5561W        W 9305   5.328   9.876   2.467 -0.2459  0.0902  0.4258
 5562W        W 9306   5.346   4.879   0.320  0.2559 -0.1205 -0.3131
 5563W        W 9307   4.275   7.991  10.292 -0.1831  0.1325 -0.0403
 5564W        W 9308   3.931   4.160   8.616 -0.4518  0.0896 -0.3673
 5565W        W 9309   6.998   4.977   1.244 -0.2431  0.2690 -0.1899
 5566W        W 9310   1.681   1.555   1.541  0.1247 -0.2213 -0.0798
 5567W        W 9311   2.291   6.433   2.587 -0.2074  0.1504  0.2001
 5568W        W 9312   1.745   0.418   4.519 -0.4218 -0.2564 -0.2423
 5569W        W 9313   1.466   0.978   1.400 -0.1911  0.1264  0.0644
 5570W        W 9314   3.594   2.591   7.836 -0.1334  0.2147  0.0976
 5571W        W 9315   6.249   0.095  11.701 -0.0959 -0.0907 -0.0406
 5572W        W 9316   9.463   4.921   4.315  0.3172  0.0367  0.1373
 5573W        W 9317   8.385   3.172   9.447  0.2477 -0.0184  0.2549
 5574W        W 9318   4.562   2.292   3.228  0.0347 -0.1043  0.0426
 5575W        W 9319   9.321   8.421   3.081 -0.2072 -0.2184 -0.0484
 5576W        W 9320   2.693   2.090  11.384 -0.0066 -0.1906  0.0669
 5577W        W 9321   6.381   3.256   2.368 -0.1249  0.2034  0.1292
 5578W        W 9322   0.226   0.281   9.363  0.1572  0.2679  0.1764
 5579W        W 9323   2.602   6.475   0.463  0.1412  0.2618 -0.0549
 5580W        W 9324   4.218   3.857  10.327 -0.1270  0.0459  0.0686
 5581W        W 9325   1.276   8.837   4.061 -0.0194 -0.1850  0.2416
 5582W        W 9326   0.343   7.362   1.190 -0.0869 -0.2076 -0.1241
 5583W        W 9327   6.675   1.024   9.997  0.2822 -0.1412 -0.0151
 5584W        W 9328   0.329   7.188  11.140  0.0049  0.0876  0.4227
 5585W        W 9329   6.497   3.166  10.067  0.2686 -0.1605 -0.0098
 5586W        W 9330   2.337   2.732  10.592  0.3514  0.1593  0.0844
 5587W        W 9331   8.313   5.822  11.789 -0.0814  0.0037  0.1395
 5588W        W 9332   1.259   1.187   2.721  0.0577 -0.3946 -0.2032
 5589W        W 9333   3.239   4.428   2.553 -0.0073 -0.0109 -0.2651
 5590W        W 9334   1.512   0.064   9.731 -0.0296 -0.1580  0.2624
 5591W        W 9335   8.306   6.826  11.031 -0.0057  0.0347  0.1416
 5592W        W 9336   4.210   5.250   9.662  0.0906 -0.0739  0.2943
 5593W        W 9337   0.376   1.773   1.254 -0.0684 -0.1257 -0.0775
 5594W        W 9338   2.033   6.947  11.817 -0.1257  0.4798  0.0205
 5595W        W 9339   7.198   8.579  10.189  0.1356  0.2345 -0.0283
 5596W        W 9340   2.806   2.281  12.151  0.1727 -0.1651  0.1797
 5597W        W 9341   8.832   9.645   2.353  0.1161 -0.0814 -0.0240
 5598W        W 9342   1.857   9.421   3.466  0.0697 -0.3901 -0.2010
 5599W        W 9343   9.624   3.678   3.762  0.0052 -0.1549  0.2094
 5600W        W 9344   9.030   2.453   0.631 -0.0805  0.0759 -0.3446
 5601W        W 9345   9.710   5.296  11.518  0.4953  0.1002 -0.1242
 5602W        W 9346   4.807   3.419   2.539  0.1423  0.0373 -0.4280
 5603W        W 9347   9.917   4.466   9.533  0.1354 -0.2996  0.3308
 5604W        W 9348   5.524   0.854   1.707  0.1542 -0.2755  0.1813
 5605W        W 9349   1.670   7.127   3.596  0.3598  0.0957  0.3220
 5606W        W 9350   0.207   3.047   3.365  0.0088  0.2545 -0.0124
 5607W        W 9351   4.030   2.519   9.844 -0.1570 -0.0666  0.1035
 5608W        W 9352   8.514   4.764   8.994 -0.2239  0.1810  0.1222
 5609W        W 9353   1.832   2.963   2.065 -0.2536 -0.0128 -0.0413
 5610W        W 9354   9.481   3.827   1.768  0.3717 -0.2871 -0.2057
 5611W        W 9355   4.287   2.377  12.539  0.1694  0.0084 -0.0060
 5612W        W 9356   1.341   7.444   1.062 -0.0080  0.1095 -0.0444
 5613W        W 9357   3.469   2.979  10.062  0.0842  0.1341  0.1156
 5614W        W 9358   8.267   1.764  12.192 -0.3515 -0.0623 -0.4022
 5615W        W 9359   1.370   3.532   9.500  0.0417  0.0541 -0.1583
 5616W        W 9360   6.240   7.634   1.636 -0.0364  0.0214  0.1351
 5617W        W 9361   8.180   4.140   9.699  0.1388 -0.1800 -0.1950
 5618W        W 9362   1.213   6.877   1.187  0.0443 -0.0557  0.0051
 5619W        W 9363   3.673   4.373   2.903 -0.3892 -0.1333 -0.1535
 5620W        W 9364   7.487   5.822  11.800 -0.0726  0.1759 -0.1253
 5621W        W 9365   0.279   7.823   3.043 -0.2938  0.0970  0.1643
 5622W        W 9366   3.452   0.019   3.876 -0.2118 -0.2607 -0.2148
 5623W        W 9367   5.631   6.893  10.568 -0.3120  0.1752  0.1385
 5624W        W 9368   6.431   5.420   2.925  0.1369  0.1967 -0.2017
 5625W        W 9369   9.207   9.468   2.127 -0.0940  0.0395 -0.1259
 5626W        W 9370   5.762   5.063  12.253 -0.1795  0.3389  0.0998
 5627W        W 9371   4.712   9.352   3.926 -0.1901 -0.3841  0.1157
 5628W        W 9372   5.114   7.020   2.100  0.1363  0.1210  0.1367
 5629W        W 9373   1.527   2.364  10.769 -0.3053  0.0522 -0.3388
 5630W        W 9374   6.538   1.680   9.187  0.0494  0.1203  0.1034
 5631W        W 9375   8.340   8.098   0.234  0.1256 -0.1412 -0.0738
 5632W        W 9376   9.385   3.819   0.706  0.0403  0.2075 -0.0724
 5633W        W 9377   9.833   0.640   3.757  0.0534 -0.2413  0.0950
 5634W        W 9378   7.285   9.467   1.735 -0.2398  0.0095 -0.2765
 5635W        W 9379   1.166   0.253  10.074  0.1084  0.0102  0.0516
 5636W        W 9380   1.373   6.009   8.982 -0.1725  0.1617  0.3602
 5637W        W 9381   5.211   2.309  11.578 -0.1155  0.3044  0.2246
 5638W        W 9382   5.764   9.613  11.592  0.0186  0.2619  0.0731
 5639W        W 9383   4.556   6.706   9.646  0.1333  0.0452 -0.0949
 5640W        W 9384   6.238   8.374  11.203  0.4086 -0.2086  0.0695
 5641W        W 9385   1.715   3.231  11.355  0.1826 -0.3040 -0.2435
 5642W        W 9386   3.315   0.749   4.326  0.1474 -0.0837 -0.0390
 5643W        W 9387   1.715   9.658  10.919 -0.2591 -0.1900  0.1772
 5644W        W 9388   4.766   4.242   8.841  0.1058  0.0665 -0.0545
 5645W        W 9389   4.761   7.837   2.415  0.2279 -0.1389  0.1705
 5646W        W 9390   0.761   9.285  10.734  0.3360  0.0735 -0.5067
 5647W        W 9391   8.790   1.175  11.165 -0.0289 -0.2322  0.1300
 5648W        W 9392   9.401   9.477  12.340 -0.0390 -0.0423  0.2819
 5649W        W 9393   2.735   4.059   1.778  0.1757 -0.0769  0.0491
 5650W        W 9394   5.119   4.358   0.532  0.1603  0.3076 -0.1614
 5651W        W 9395   0.849   5.929   9.555  0.0373 -0.0232 -0.2184
 5652W        W 9396   1.667   1.892  10.047 -0.0311 -0.2396 -0.0153
 5653W        W 9397   6.379   4.783   9.233  0.0177  0.0624 -0.0067
 5654W        W 9398   5.762   8.178  11.145 -0.1460 -0.0275  0.0308
 5655W        W 9399   5.417   9.763  12.724 -0.1698  0.1973 -0.1081
 5656W        W 9400   6.495   9.195   0.629 -0.1714  0.2363 -0.3981
 5657W        W 9401   0.238   3.409  11.175 -0.0656 -0.2491  0.0587
 5658W        W 9402   1.524   3.780   0.105 -0.1148  0.0012 -0.2973
 5659W        W 9403   7.515   6.758  10.777  0.0704  0.0278 -0.0816
 5660W        W 9404   2.315   2.380  12.171 -0.0511 -0.2326 -0.0627
 5661W        W 9405   9.808   5.662   3.571  0.0261  0.3121  0.2555
 5662W        W 9406   0.719   9.455   1.856 -0.0640 -0.1058 -0.1135
 5663W        W 9407   3.533   6.800   8.850  0.0034  0.1007 -0.3451
 5664W        W 9408   1.688   0.995  10.840 -0.1513  0.1938 -0.2231
 5665W        W 9409   3.630   8.730  12.507 -0.1174  0.0553 -0.0864
 5666W        W 9410   8.996   6.208   9.399 -0.0042  0.2685 -0.1080
 5667W        W 9411   7.566   9.809  10.712 -0.1497  0.0396 -0.1963
 5668W        W 9412   5.269   8.168   0.701  0.0294  0.2286  0.3589
 5669W        W 9413   2.831   0.398   4.121 -0.0503  0.1224 -0.0281
 5670W        W 9414   2.599   6.818   1.210 -0.1843  0.1251  0.0058
 5671W        W 9415   3.748   0.969  11.339 -0.4318  0.2500  0.3149
 5672W        W 9416   4.033   6.689   1.443 -0.3274  0.0921 -0.0674
 5673W        W 9417   8.890   2.458  11.822 -0.0094 -0.1338 -0.1307
 5674W        W 9418   7.553   1.210   3.416 -0.0584  0.2267 -0.0760
 5675W        W 9419   0.894   3.885   8.488 -0.1694  0.0717  0.0288
 5676W        W 9420   1.556   8.453   3.175  0.2002  0.2532 -0.1589
 5677W        W 9421   6.576   7.829   0.530  0.1273  0.3004  0.1106
 5678W        W 9422   0.154   8.474   8.561  0.0492  0.2226  0.1425
 5679W        W 9423   5.359   7.795   2.221  0.0532  0.2942  0.4332
 5680W        W 9424   7.679   7.075   9.924  0.1591  0.0716  0.2275
 5681W        W 9425   0.785   7.731  12.463 -0.2229 -0.1021  0.2916
 5682W        W 9426   4.732   4.068  11.085  0.1796  0.2678  0.1967
 5683W        W 9427   8.925   4.062   2.476  0.1604  0.0699 -0.1297
 5684W        W 9428   4.922   7.017   3.865 -0.1138 -0.1414 -0.1054
 5685W        W 9429   7.186   8.008  11.996  0.0866 -0.0422  0.0987
 5686W        W 9430   4.703   4.449  10.112 -0.2404 -0.1098 -0.0508
 5687W        W 9431   9.672   1.203   1.651 -0.0211  0.1887 -0.2775
 5688W        W 9432   9.282   7.615  11.435  0.0092  0.0944  0.2620
 5689W        W 9433   6.927   1.121   1.769  0.0514  0.1744 -0.1911
 5690W        W 9434   9.455   3.280  12.656  0.0504  0.1506  0.1748
 5691W        W 9435   2.075   8.845   1.361  0.1132 -0.1658 -0.1568
 5692W        W 9436   7.109   3.611   9.264 -0.0159  0.0259  0.1570
 5693W        W 9437   6.816   4.661   8.610  0.1658 -0.0495  0.1603
 5694W        W 9438   1.351   4.316   1.485  0.0995 -0.2084 -0.0912
 5695W        W 9439   9.300   3.698   2.317  0.0971 -0.1968  0.0378
 5696W        W 9440   8.402   8.175  12.488  0.0379 -0.1786  0.2133
 5697W        W 9441   6.431   8.556  12.561 -0.0426 -0.4454 -0.1231
 5698W        W 9442   1.171   4.684  11.740 -0.2183 -0.1060  0.1057
 5699W        W 9443   1.389   7.960  10.004  0.4325  0.0226  0.0148
 5700W        W 9444   4.095   7.004  11.584 -0.1918 -0.3215 -0.2266
 5701W        W 9445   7.405   3.691  11.190  0.1322 -0.1868  0.1903
 5702W        W 9446   2.852   2.576   4.119 -0.1092 -0.2171  0.0639
 5703W        W 9447   1.865   4.425   2.661 -0.2840 -0.0278  0.0621
 5704W        W 9448   6.506   6.472   4.655 -0.1084 -0.1757  0.2011
 5705W        W 9449   2.596   1.791   0.808 -0.2068 -0.0395 -0.0459
 5706W        W 9450   5.239   0.225  10.893  0.0616 -0.3156 -0.4070
 5707W        W 9451   1.784   7.539   8.843 -0.0900  0.4559 -0.2235
 5708W        W 9452   3.696   5.968   3.004 -0.0850  0.2749 -0.2235
 5709W        W 9453   7.924   1.580  10.893 -0.4884  0.1949  0.2583
 5710W        W 9454   7.534   1.773   2.109 -0.0788  0.3680 -0.1480
 5711W        W 9455   9.007   0.251   0.125  0.1459  0.1634  0.0454
 5712W        W 9456   2.775   3.208  11.447  0.1306 -0.0672 -0.2207
 5713W        W 9457   2.892   4.453   0.630  0.0045 -0.1633  0.1577
 5714W        W 9458   5.446   6.407   0.797  0.1677 -0.1180 -0.0503
 5715W        W 9459   9.043   2.555   9.585  0.1660  0.0189  0.1172
 5716W        W 9460   6.087   7.316  12.167 -0.0391 -0.4717 -0.1895
 5717W        W 9461   2.390   3.687  11.152  0.0501 -0.0160 -0.3285
 5718W        W 9462   4.819   2.229  11.897 -0.1895  0.3723  0.0369
 5719W        W 9463   5.500   7.630   1.163 -0.0769  0.1183 -0.0209
 5720W        W 9464   5.525   6.034   8.516  0.1545  0.1217  0.1357
 5721W        W 9465   5.977   2.547   1.003  0.2322 -0.0204  0.0922
 5722W        W 9466   0.696   0.522   1.807  0.2901 -0.1891  0.0890
 5723W        W 9467   0.317   9.652   3.692 -0.3340 -0.0754 -0.1405
 5724W        W 9468   8.388   1.697  10.584 -0.0882 -0.2078 -0.4315
 5725W        W 9469   8.982   5.488   9.317  0.1191  0.2002 -0.1390
 5726W        W 9470   6.702   0.825   0.842  0.0528 -0.2510  0.1170
 5727W        W 9471   6.428   8.665   1.331 -0.0881  0.0217  0.3074
 5728W        W 9472   7.505   6.900   1.891  0.0607  0.2250  0.0807
 5729W        W 9473   4.898   0.497   1.229 -0.2401 -0.2162 -0.2577
 5730W        W 9474   5.661   1.516   0.983 -0.1132 -0.2330  0.1956
 5731W        W 9475   5.765   0.836  10.430 -0.3170 -0.2636  0.1204
 5732W        W 9476   2.471   3.573   1.826  0.0665  0.3396 -0.1541
 5733W        W 9477   0.745   6.283  11.411 -0.1328 -0.1920 -0.1030
 5734W        W 9478   7.312   3.806   8.827  0.3718 -0.2570  0.3557
 5735W        W 9479   7.039   3.034   9.651  0.2750 -0.1681 -0.0589
 5736W        W 9480   8.241   4.683   1.783  0.0416  0.0291 -0.1010
 5737W        W 9481   0.377   7.803   0.903  0.3288 -0.0481 -0.2543
 5738W        W 9482   4.778   2.358  10.480  0.2132  0.1420  0.1753
 5739W        W 9483   9.443   2.279   2.364 -0.0231 -0.0313 -0.1089
 5740W        W 9484   9.265   3.272   9.566 -0.1464 -0.3509  0.3077
 5741W        W 9485   8.905   4.501  10.192  0.1052 -0.3232 -0.2095
 5742W        W 9486   0.846   8.751   9.062 -0.0799 -0.3603 -0.1745
 5743W        W 9487   0.519   7.457  10.622 -0.0258  0.0244 -0.2273
 5744W        W 9488   6.371   6.623  10.090  0.0611  0.0882  0.0066
 5745W        W 9489   9.090   5.828   0.184 -0.0699  0.3718  0.0846
 5746W        W 9490   9.638   0.113  11.281  0.3807  0.1511  0.1938
 5747W        W 9491   1.161   7.767   1.422  0.4854  0.3781 -0.0652
 5748W        W 9492   3.631   3.229   1.208 -0.2613  0.1452  0.0185
 5749W        W 9493   4.294   8.043   2.232 -0.4046  0.0088 -0.2797
 5750W        W 9494   2.564   4.898  11.933 -0.3035 -0.2615 -0.1386
 5751W        W 9495   1.487   7.306   2.074 -0.3228 -0.0191 -0.0382
 5752W        W 9496   0.439   8.958  10.541  0.2858 -0.1552 -0.0294
 5753W        W 9497   1.856   2.531   2.857  0.1037 -0.0601 -0.0820
 5754W        W 9498   5.522   4.315   4.095  0.1576 -0.1617  0.1226
 5755W        W 9499   9.036   0.451   1.421  0.0794  0.5078 -0.0617
 5756W        W 9500   0.164   8.047   9.499 -0.1743  0.1607 -0.3748
 5757W        W 9501   4.078   2.207   3.131  0.0762 -0.0637  0.2397
 5758W        W 9502   1.225   3.577   3.948  0.1463  0.0631 -0.0319
 5759W        W 9503   2.159   7.474  10.921 -0.1507 -0.0519  0.4666
 5760W        W 9504   7.418   1.735   4.094 -0.0476  0.0566  0.0860
 5761W        W 9505   9.426   5.671   1.800 -0.4130  0.2501  0.2494
 5762W        W 9506   4.934   5.308   3.945 -0.1912 -0.2472  0.1192
 5763W        W 9507   0.165   6.140   8.779 -0.0262  0.2004  0.2077
 5764W        W 9508   9.374   5.480   2.233 -0.2010 -0.0462  0.0388
 5765W        W 9509   9.192   9.347   0.561 -0.3437  0.2422  0.1695
 5766W        W 9510   1.364   0.269   3.767  0.0869 -0.0214  0.2462
 5767W        W 9511   5.809   1.742   1.416  0.1116  0.2370  0.1728
 5768W        W 9512   5.027   1.755  11.012  0.0002  0.1138 -0.0189
 5769W        W 9513   2.073   0.119   9.200 -0.2172 -0.1787  0.0648
 5770W        W 9514   9.561   7.853  11.881 -0.1155 -0.4103  0.1158
 5771W        W 9515   2.738   2.890   2.484 -0.3025  0.1584 -0.0006
 5772W        W 9516   3.904   5.683  10.154  0.3635 -0.0421 -0.2893
 5773W        W 9517   4.507   8.657   3.012 -0.0958 -0.0875 -0.1488
 5774W        W 9518   4.896   4.688   0.173  0.1372  0.3042 -0.0280
 5775W        W 9519   4.409   4.859  10.066 -0.3023 -0.2421  0.1083
 5776W        W 9520   7.690   2.177   1.093  0.0589  0.0597 -0.0279
 5777W        W 9521   3.046   7.897   4.920 -0.1189  0.0959  0.1255
 5778W        W 9522   7.242   8.060  10.466  0.3655 -0.0382  0.0102
 5779W        W 9523   7.426   6.515   0.832  0.1078 -0.0927  0.0501
 5780W        W 9524   2.479   8.507   0.437  0.1132 -0.2234  0.0969
 5781W        W 9525   7.673   3.236   1.129 -0.1992  0.0838 -0.0065
 5782W        W 9526   8.402   2.610  11.054  0.0576  0.0212  0.2867
 5783W        W 9527   4.044   9.226  12.062  0.0523 -0.4262  0.1342
 5784W        W 9528   6.212   5.932   0.415 -0.2638  0.1164  0.0572
 5785W        W 9529   6.419   1.593  10.646  0.0931 -0.1891 -0.1255
 5786W        W 9530   0.976   5.834   3.116  0.2536  0.2961  0.4400
 5787W        W 9531   2.498   6.505  10.381 -0.2047  0.1520 -0.2308
 5788W        W 9532   1.772   3.764   8.456 -0.2075 -0.0492  0.1797
 5789W        W 9533   5.522   2.154   1.750 -0.3524 -0.0713  0.0418
 5790W        W 9534   7.430   7.358  12.593 -0.1513 -0.4439 -0.5427
 5791W        W 9535   2.833   9.707   3.487 -0.1306 -0.1727 -0.0172
 5792W        W 9536   8.743   0.319  10.767  0.4296  0.0394 -0.0627
 5793W        W 9537   2.348   9.458   2.562  0.1462 -0.1018 -0.3472
 5794W        W 9538   5.772   9.361  10.679 -0.1622  0.4063  0.0114
 5795W        W 9539   8.831   8.451  11.578  0.0519 -0.0900 -0.2859
 5796W        W 9540   6.782   6.025   0.331  0.1324  0.0441  0.1273
 5797W        W 9541   3.743   5.209   3.616  0.2507  0.0437  0.0032
 5798W        W 9542   6.172   7.060   3.635  0.2404 -0.3801  0.0793
 5799W        W 9543   5.876   3.695  10.168 -0.2517  0.0309 -0.0639
 5800W        W 9544   1.510   0.508   1.606  0.1409 -0.1851  0.1576
 5801W        W 9545   2.647   3.355  10.874 -0.2568 -0.0585 -0.0906
 5802W        W 9546   0.894   4.384  10.248 -0.0365 -0.1596 -0.0627
 5803W        W 9547   2.869   2.158   8.043 -0.3421 -0.3785 -0.0536
 5804W        W 9548   1.493   1.684   4.021 -0.3215 -0.0719 -0.5094
 5805W        W 9549   2.413   3.892   0.832 -0.1926  0.0934 -0.1658
 5806W        W 9550   6.944   4.438   9.854 -0.2508  0.0555 -0.1610
 5807W        W 9551   2.067   0.597   9.044  0.0969 -0.0035 -0.4607
 5808W        W 9552   5.231   4.582   8.773  0.4832  0.2300 -0.1648
 5809W        W 9553   1.640   3.195  10.874 -0.1251  0.1510  0.1561
 5810W        W 9554   4.390   0.281   0.194  0.2779  0.2975  0.2363
 5811W        W 9555   9.833   4.795  11.482 -0.1179  0.2874  0.0489
 5812W        W 9556   8.278   3.250   9.993  0.1913  0.0876  0.2084
 5813W        W 9557   9.354   7.294  12.284  0.1659 -0.3408 -0.1470
 5814W        W 9558   7.859   5.278   0.643  0.0784  0.1214  0.3906
 5815W        W 9559   0.249   3.533   9.652  0.1972 -0.0009  0.1272
 5816W        W 9560   7.380   2.819   0.463 -0.1019  0.1071 -0.0557
 5817W        W 9561   4.794   6.578  11.005 -0.0770  0.0660  0.0753
 5818W        W 9562   1.941   7.488  12.090 -0.0759 -0.0181 -0.0902
 5819W        W 9563   9.732   4.282   1.782 -0.0885 -0.1347  0.0791
 5820W        W 9564   9.326   3.214   3.583 -0.3025  0.2288 -0.0899
 5821W        W 9565   6.789   5.545   0.253 -0.1406  0.2298  0.0070
 5822W        W 9566   9.434   7.974   3.246 -0.0783 -0.2789  0.4869
 5823W        W 9567   4.710   7.175  12.414  0.1818 -0.1987  0.0965
 5824W        W 9568   5.101   2.664  11.986 -0.0566  0.3054 -0.1472
 5825W        W 9569   8.743   8.968   1.439 -0.3980  0.1861 -0.0037
 5826W        W 9570   1.196   9.716   9.440  0.3036  0.0220  0.1777
 5827W        W 9571   0.479   8.235  10.957  0.2860 -0.1485  0.3893
 5828W        W 9572   9.038   7.233   3.723 -0.0281 -0.2664  0.0195
 5829W        W 9573   1.364   2.895  10.503  0.1591 -0.0435  0.0236
 5830W        W 9574   3.048   1.593   9.992 -0.2023 -0.0281 -0.0389
 5831W        W 9575   5.107   0.413   9.056  0.1986  0.1621  0.0381
 5832W        W 9576   1.273   2.368   4.595 -0.2316  0.3575 -0.0088
 5833W        W 9577   6.603   1.472   8.666 -0.0047  0.2157  0.0068
 5834W        W 9578   2.330   0.879  10.449  0.1087 -0.0115 -0.0147
 5835W        W 9579   4.051   1.814  12.291 -0.3268  0.2884  0.2012
 5836W        W 9580   0.013   2.324  10.335 -0.0133  0.1053 -0.0750
 5837W        W 9581   0.816   4.022   3.293  0.1627  0.0747 -0.0082
 5838W        W 9582   8.671   0.015   9.394 -0.1605  0.1423  0.0523
 5839W        W 9583   7.126   3.500  11.982  0.2064  0.3825  0.4944
 5840W        W 9584   7.932   6.141  11.850  0.5837  0.3674 -0.4048
 5841W        W 9585   3.602   9.324  12.421  0.2257  0.2726 -0.2947
 5842W        W 9586   8.217   5.442  11.016 -0.0009  0.0443 -0.2021
 5843W        W 9587   0.604   6.743   3.728 -0.0671  0.3230 -0.0742
 5844W        W 9588   2.306   1.105  11.187 -0.0457 -0.2012  0.2309
 5845W        W 9589   3.000   6.861   2.995 -0.0550  0.0545 -0.3531
 5846W        W 9590   5.192   0.413   3.826 -0.0892  0.3174  0.3386
 5847W        W 9591   7.679   7.148   0.176 -0.1007  0.1701 -0.0386
 5848W        W 9592   2.334   7.735   4.081 -0.0653 -0.1143  0.2927
 5849W        W 9593   3.144   3.294  10.824 -0.0258  0.1448 -0.1547
 5850W        W 9594   4.832   9.690   3.037  0.3185 -0.0789 -0.3623
 5851W        W 9595   2.509   7.682   3.520  0.1482  0.4506 -0.3358
 5852W        W 9596   3.776   0.392   0.782  0.1214 -0.2745 -0.0074
 5853W        W 9597   6.687   2.114   9.216  0.1701 -0.3495  0.1488
 5854W        W 9598   7.076   5.006  11.170  0.0325  0.0944  0.1434
 5855W        W 9599   7.787   1.814  12.384 -0.1144  0.3109  0.0118
 5856W        W 9600   9.836   9.858   3.900 -0.4645 -0.2657 -0.1621
 5857W        W 9601   8.599   8.708  12.431 -0.3295 -0.2191 -0.3413
 5858W        W 9602   0.426   4.688   0.167 -0.0021  0.0472  0.4016
 5859W        W 9603   8.772   2.253  11.168 -0.0958 -0.0840 -0.0498
 5860W        W 9604   9.034   4.377   9.751  0.1884  0.2634 -0.1211
 5861W        W 9605   9.564   0.623  11.459  0.3582  0.0414  0.0479
 5862W        W 9606   3.757   9.963   3.431  0.1189 -0.0224  0.1749
 5863W        W 9607   8.690   6.980   9.885  0.2817 -0.1419 -0.2279
 5864W        W 9608   5.707   9.274  12.678  0.3719 -0.0829 -0.2025
 5865W        W 9609   0.973   2.173   1.162 -0.1040 -0.1287 -0.0278
 5866W        W 9610   3.181   5.570   9.803  0.0885 -0.0210  0.0647
 5867W        W 9611   8.820   6.209   0.579  0.0980  0.3272  0.0199
 5868W        W 9612   5.028   4.940   9.148 -0.1726  0.2961  0.0392
 5869W        W 9613   2.978   5.136   1.787  0.0378 -0.0533 -0.1089
 5870W        W 9614   3.032   3.293   3.622  0.2315 -0.1035  0.0661
 5871W        W 9615   6.940   0.755   1.313 -0.0573  0.1857  0.5314
 5872W        W 9616   5.087   8.113   3.620 -0.1058 -0.0658 -0.2391
 5873W        W 9617   5.261   8.557   2.186  0.0705 -0.1544  0.1377
 5874W        W 9618   7.575   2.706   0.952 -0.0243 -0.1349  0.0321
 5875W        W 9619   1.272   7.196   9.666  0.0902 -0.1319  0.1982
 5876W        W 9620   7.689   9.152   2.264  0.0614 -0.1477  0.0035
 5877W        W 9621   7.580   4.199   2.758  0.1828  0.1768 -0.0336
 5878W        W 9622   9.393   2.142  12.510  0.0203  0.0941  0.0849
 5879W        W 9623   3.878   6.434   0.012  0.2575  0.0927  0.1525
 5880W        W 9624   3.382   7.699   8.795  0.0192  0.1473 -0.0347
 5881W        W 9625   7.714   7.038  11.375  0.1294 -0.1428 -0.0991
 5882W        W 9626   6.110   6.184   2.062  0.1514 -0.0935 -0.1422
 5883W        W 9627   2.146   9.825  11.182 -0.0425  0.1479 -0.1824
 5884W        W 9628   6.995   1.909   1.505  0.1665  0.1462 -0.0918
 5885W        W 9629   5.962   5.921   3.019  0.3145 -0.0406 -0.1845
 5886W        W 9630   3.304   9.100   5.218 -0.1100 -0.3339  0.1809
 5887W        W 9631   6.613   4.746   3.213 -0.0982  0.0662 -0.1627
 5888W        W 9632   7.317   0.990   2.106  0.2859  0.0663 -0.2187
 5889W        W 9633   7.258   1.651  12.618  0.2223 -0.0561 -0.3023
 5890W        W 9634   0.883   9.120   0.949  0.2219  0.2145  0.4098
 5891W        W 9635   6.111   9.454  10.285 -0.2532  0.0622 -0.1806
 5892W        W 9636   8.773   7.328  12.195 -0.2423  0.1739  0.1296
 5893W        W 9637   9.014   1.048  11.813  0.1231  0.0356 -0.0367
 5894W        W 9638   2.134   7.072   9.151  0.0885  0.1969  0.0169
 5895W        W 9639   7.619   6.760   9.494 -0.0353  0.1493 -0.1036
 5896W        W 9640   8.414   0.865  11.942  0.0496 -0.3734  0.5046
 5897W        W 9641   3.129   2.053   9.704  0.2176  0.1662  0.0373
 5898W        W 9642   3.359   1.543   3.484  0.0863  0.3239 -0.0138
 5899W        W 9643   3.909   9.508   9.411  0.0775  0.3044  0.0865
 5900W        W 9644   5.247   9.826   1.611 -0.1219  0.0903 -0.0807
 5901W        W 9645   5.746   2.837   4.031  0.0202  0.2613  0.2638
 5902W        W 9646   8.783   2.741   4.560  0.0250 -0.1406 -0.1847
 5903W        W 9647   1.769   9.060  10.844 -0.0163 -0.1464  0.0229
 5904W        W 9648   1.768   0.031   2.286 -0.2115 -0.2186 -0.0851
 5905W        W 9649   3.157   3.750   9.356  0.1117 -0.1172 -0.1897
 5906W        W 9650   8.303   7.745   9.534 -0.2100  0.1071 -0.0696
 5907W        W 9651   9.630   7.060   3.855 -0.1739 -0.2115  0.0009
 5908W        W 9652   3.192   2.546   3.735 -0.2318 -0.0618  0.0215
 5909W        W 9653   6.699   2.634  11.848 -0.0267 -0.1043 -0.1442
 5910W        W 9654   7.797   7.774  11.647  0.0178  0.2439  0.1858
 5911W        W 9655   4.130   4.097  10.803  0.0901  0.3336 -0.0484
 5912W        W 9656   7.163   1.394   2.368 -0.0701  0.2572  0.0622
 5913W        W 9657   4.015   5.889   1.446 -0.1904  0.1514  0.1963
 5914W        W 9658   1.688   2.042   0.618 -0.3704  0.2028 -0.5495
 5915W        W 9659   3.471   0.586   1.871  0.0777 -0.1363  0.1584
 5916W        W 9660   1.172   1.033   9.892  0.4137 -0.0463 -0.1702
 5917W        W 9661   3.789   2.608   3.254 -0.3124 -0.0078 -0.2148
 5918W        W 9662   8.259   6.630  10.555  0.0104  0.0172 -0.1508
 5919W        W 9663   4.907   0.761   8.784 -0.1009  0.0147  0.0286
 5920W        W 9664   2.600   6.130   1.471  0.2203  0.2869 -0.1802
 5921W        W 9665   3.992   3.812   1.760 -0.1426  0.1344  0.0019
 5922W        W 9666   1.831   2.772  10.628 -0.1734 -0.0294 -0.4311
 5923W        W 9667   4.821   9.856   2.574  0.1392 -0.0757  0.0717
 5924W        W 9668   3.578   5.883  12.066 -0.1363 -0.0552  0.3249
 5925W        W 9669   3.241   8.387   3.819 -0.3348  0.0470 -0.1905
 5926W        W 9670   7.871   8.652  11.728 -0.2020 -0.1234 -0.1900
 5927W        W 9671   8.531   8.809  11.720  0.4444  0.0886 -0.3589
 5928W        W 9672   0.472   1.219   1.151 -0.1636 -0.0289  0.0563
 5929W        W 9673   7.866   9.488  10.400  0.0636 -0.0347  0.2192
 5930W        W 9674   7.858   2.941  10.175  0.0606 -0.2021  0.4305
 5931W        W 9675   5.873   2.141   3.646 -0.1366  0.0180  0.2297
 5932W        W 9676   8.454   7.259  10.783  0.0216  0.2864 -0.0404
 5933W        W 9677   5.238   5.945  12.593  0.1652  0.1258 -0.1558
 5934W        W 9678   3.080   8.112   8.748 -0.2095  0.0106  0.2794
 5935W        W 9679   2.509   5.753  12.442 -0.1737 -0.0754  0.1456
 5936W        W 9680   8.098   2.109  11.855  0.0540 -0.1340  0.1382
 5937W        W 9681   9.569   0.149   0.470 -0.2291 -0.0405  0.0767
 5938W        W 9682   2.467   9.959   4.135 -0.2118 -0.0446 -0.1048
 5939W        W 9683   3.739   0.991  10.416  0.4721  0.0363  0.1853
 5940W        W 9684   3.724   5.885   8.909  0.1569  0.1250 -0.0084
 5941W        W 9685   2.513   5.797   3.608  0.2058  0.0910  0.0058
 5942W        W 9686   9.055   3.495   8.747 -0.2296  0.1770  0.0052
 5943W        W 9687   4.098   6.869   9.538  0.0009 -0.1206  0.3001
 5944W        W 9688   4.615   3.222   1.628  0.0950 -0.1920  0.0446
 5945W        W 9689   8.123   8.701  11.250  0.1364  0.3131 -0.1787
 5946W        W 9690   3.533   5.350   2.561 -0.2154  0.2321  0.1309
 5947W        W 9691   2.206   7.819  10.599 -0.0228  0.1807  0.5512
 5948W        W 9692   6.235   7.261  11.303 -0.1371  0.0832  0.1365
 5949W        W 9693   0.716   8.364   0.474 -0.3556  0.0298 -0.1503
 5950W        W 9694   5.724   6.073  12.222  0.0522 -0.1108 -0.1948
 5951W        W 9695   6.668   5.866  12.562  0.0556 -0.0371 -0.0637
 5952W        W 9696   8.899   3.980   1.915 -0.1064  0.2809  0.0323
 5953W        W 9697   1.116   3.684   9.933 -0.1413  0.2723 -0.3111
 5954W        W 9698   4.085   1.598   4.103 -0.0105 -0.2569 -0.0251
 5955W        W 9699   2.199   1.123   0.678 -0.1041 -0.2633  0.2587
 5956W        W 9700   1.188   7.043   8.672 -0.2239 -0.1657 -0.0287
 5957W        W 9701   1.418   6.035   8.491  0.2687  0.1355  0.2570
 5958W        W 9702   5.885   0.097  12.345 -0.2590 -0.2044 -0.1033
 5959W        W 9703   8.208   7.156   0.155 -0.1534 -0.1439 -0.4032
 5960W        W 9704   0.365   8.342   1.288  0.1037  0.0144  0.0412
 5961W        W 9705   5.305   4.066  11.184  0.1334 -0.0329 -0.0447
 5962W        W 9706   8.083   2.288   3.055 -0.2206 -0.0610  0.1790
 5963W        W 9707   1.592   6.840   2.039 -0.0472  0.1976  0.1154
 5964W        W 9708   5.232   8.585  12.146 -0.0305  0.0625  0.1152
 5965W        W 9709   6.194   6.202  10.346 -0.0554  0.1089  0.3169
 5966W        W 9710   1.873   1.905   9.239  0.1341  0.1291 -0.2019
 5967W        W 9711   5.223   0.761  12.475  0.0651  0.2040  0.1440
 5968W        W 9712   4.304   7.639   0.386  0.1806  0.1216  0.1868
 5969W        W 9713   4.725   1.574   2.839  0.0333 -0.2572 -0.0028
 5970W        W 9714   1.376   0.702  10.197 -0.0874  0.3756  0.0720
 5971W        W 9715   0.465   0.761   0.731  0.1232  0.0418 -0.3347
 5972W        W 9716   3.543   5.976   0.394  0.0328  0.1400  0.1452
 5973W        W 9717   5.294   5.714  10.899 -0.1228  0.1213 -0.1547
 5974W        W 9718   5.265   7.905  10.809 -0.1649  0.1758  0.1302
 5975W        W 9719   8.062   1.224   9.475  0.1384 -0.0132  0.3903
 5976W        W 9720   9.436   0.950   2.679  0.0494 -0.1723 -0.0383
 5977W        W 9721   1.293   7.749  10.433 -0.1041 -0.2242  0.0866
 5978W        W 9722   1.634   3.617   9.021  0.1731 -0.2207  0.0437
 5979W        W 9723   3.084   3.706   3.333  0.0709  0.2370  0.1690
 5980W        W 9724   7.599   9.237   9.378 -0.0738  0.0524 -0.2378
 5981W        W 9725   3.353   0.629   3.398 -0.1392  0.0231  0.0248
 5982W        W 9726   5.467   4.861   9.654 -0.2013  0.1493 -0.1883
 5983W        W 9727   2.821   4.535  10.131 -0.0820  0.0969 -0.0959
 5984W        W 9728   4.775   5.635   0.895  0.1149  0.1090 -0.0976
 5985W        W 9729   6.970   6.322   0.721 -0.0533 -0.3409 -0.0154
 5986W        W 9730   8.594   6.893   9.344 -0.1274 -0.1196  0.0984
 5987W        W 9731   3.040   5.959   1.351  0.1195  0.0556  0.2252
 5988W        W 9732   2.124   8.067   8.094  0.1648 -0.1150 -0.0291
 5989W        W 9733   4.728   5.494   2.217 -0.2361  0.0576 -0.1483
 5990W        W 9734   9.852   4.085   0.808  0.0252 -0.1862  0.1896
 5991W        W 9735   6.839   6.735  12.139 -0.4106 -0.3043 -0.0397
 5992W        W 9736   5.301   0.448   1.491  0.1061  0.1505  0.0174
 5993W        W 9737   7.412   5.491   9.408 -0.2280 -0.2704 -0.1672
 5994W        W 9738   6.739   7.815  11.883  0.1761 -0.2181 -0.3018
 5995W        W 9739   2.087   7.325  12.585 -0.1587  0.0053  0.1928
 5996W        W 9740   4.625   6.029   8.903 -0.0700  0.0430 -0.1754
 5997W        W 9741   4.179   2.647   9.295 -0.3974 -0.1106 -0.0553
 5998W        W 9742   6.523   2.771   0.315  0.1637  0.2497  0.4286
 5999W        W 9743   1.741   2.632   9.902 -0.1714  0.0206 -0.1917
 6000W        W 9744   0.784   7.831  10.892 -0.0421  0.0753  0.2003
 6001W        W 9745   8.612   5.118   3.824  0.0130  0.1230 -0.2070
 6002W        W 9746   1.954   0.066   2.788 -0.3203  0.1226 -0.1333
 6003W        W 9747   5.509   5.924   4.139  0.1712 -0.0081 -0.1574
 6004W        W 9748   8.249   2.394   9.478  0.1020  0.1535  0.0548
 6005W        W 9749   0.389   3.763  10.210  0.2336  0.1482  0.1482
 6006W        W 9750   6.519   3.300   9.591  0.0171  0.0505  0.0577
 6007W        W 9751   4.756   0.085  11.125  0.1137  0.1020 -0.2097
 6008W        W 9752   3.574   5.304  11.228 -0.0567  0.0420 -0.0419
 6009W        W 9753   5.260   1.287   4.547  0.3433  0.1440  0.2528
 6010W        W 9754   7.419   7.520   3.043  0.2036  0.4075  0.1692
 6011W        W 9755   7.727   2.842   0.116  0.1478  0.4362 -0.2236
 6012W        W 9756   3.838   6.301   8.656  0.4469  0.3941  0.0368
 6013W        W 9757   8.426   7.779  10.399  0.0457  0.1599 -0.0845
 6014W        W 9758   1.347   5.668  10.797  0.0245  0.0793  0.1147
 6015W        W 9759   1.575   5.170  10.096 -0.0963  0.0512 -0.2810
 6016W        W 9760   3.446   1.208   9.186 -0.2852 -0.0064 -0.2597
 6017W        W 9761   4.603   5.377   2.719 -0.2816 -0.1124 -0.2852
 6018W        W 9762   7.333   8.876   9.169  0.1203 -0.2898  0.4760
 6019W        W 9763   9.972   3.415  10.421  0.1562  0.0357  0.0479
 6020W        W 9764   5.536   9.584   0.780  0.1992 -0.0116 -0.0782
 6021W        W 9765   9.860   6.679   3.372 -0.2377 -0.0266  0.0598
 6022W        W 9766   6.747   2.848   1.678  0.1333  0.1510 -0.0664
 6023W        W 9767   2.383   1.864   3.843  0.0574 -0.4575 -0.0281
 6024W        W 9768   4.919   4.576   4.792  0.0149 -0.0302  0.0196
 6025W        W 9769   1.912   1.901   4.202 -0.0976 -0.3733 -0.2620
 6026W        W 9770   2.320   9.342   3.450 -0.2764 -0.1319  0.1698
 6027W        W 9771   8.788   6.538   8.484 -0.0395 -0.1515 -0.1879
 6028W        W 9772   0.730   4.248   9.335 -0.2530 -0.2859  0.0443
 6029W        W 9773   3.579   5.224   1.101 -0.0440 -0.2177  0.2675
 6030W        W 9774   4.884   4.915  10.232  0.0157 -0.0056  0.1535
 6031W        W 9775   9.057   2.982  11.557 -0.2664 -0.2495  0.4545
 6032W        W 9776   0.448   1.197   0.246  0.1410  0.2426 -0.0536
 6033W        W 9777   3.438   9.055  10.314 -0.2700  0.2968 -0.0102
 6034W        W 9778   3.493   3.119   2.465  0.1478  0.0441  0.0883
 6035W        W 9779   5.875   5.208   1.522  0.1550 -0.0176 -0.1625
 6036W        W 9780   3.962   6.816   3.797  0.4149 -0.1856 -0.1807
 6037W        W 9781   7.114   7.236   1.131 -0.0696 -0.0930 -0.2058
 6038W        W 9782   1.503   6.650  11.944  0.0117 -0.0495 -0.1814
 6039W        W 9783   1.790   0.534   0.641 -0.2453 -0.0728 -0.0628
 6040W        W 9784   2.343   7.580   8.827 -0.3043  0.1407 -0.0273
 6041W        W 9785   2.399   6.549   3.789  0.0921 -0.2642 -0.1367
 6042W        W 9786   5.515   6.529   2.872  0.0526 -0.1071  0.4923
 6043W        W 9787   5.188   0.253  12.727 -0.0865 -0.0412 -0.0877
 6044W        W 9788   9.577   9.972  10.224 -0.2865 -0.0241  0.1663
 6045W        W 9789   3.154   2.869   4.565 -0.1575 -0.0267 -0.1175
 6046W        W 9790   5.559   9.626   1.322 -0.4086 -0.0037  0.1634
 6047W        W 9791   3.595   6.974   9.306  0.0815 -0.2577 -0.2352
 6048W        W 9792   3.369   1.004   1.539  0.0800 -0.0542  0.1778
 6049W        W 9793   1.987   9.066   3.874 -0.1193  0.2188 -0.0956
 6050W        W 9794   8.026   1.203   8.968  0.1577 -0.2100 -0.2190
 6051W        W 9795   4.661   9.582  12.526  0.3998  0.1310  0.0679
 6052W        W 9796   6.106   8.962   0.980 -0.3005 -0.0606  0.0152
 6053W        W 9797   8.163   2.544   0.312 -0.3140  0.0019 -0.2070
 6054W        W 9798   5.083   5.115   1.029  0.1016 -0.2332  0.0127
 6055W        W 9799   9.305   3.463  10.130 -0.1291  0.1007  0.5353
 6056W        W 9800   0.669   6.636   2.364 -0.0531  0.3496 -0.1859
 6057W        W 9801   5.059   8.547   9.447  0.2047 -0.2275  0.0381
 6058W        W 9802   6.907   5.988   3.288  0.1798 -0.1163 -0.0784
 6059W        W 9803   3.440   7.073  11.247 -0.4025 -0.0718  0.0723
 6060W        W 9804   4.585   7.836  11.291  0.0636 -0.1228 -0.1140
 6061W        W 9805   3.999   3.131   2.490 -0.0036  0.4134  0.4145
 6062W        W 9806   1.326   4.609   3.024  0.0012 -0.0091 -0.1731
 6063W        W 9807   1.670   4.762  11.529  0.1590 -0.0026 -0.1851
 6064W        W 9808   3.987   9.359   1.763  0.2363  0.2824  0.1555
 6065W        W 9809   6.198   5.201  11.958 -0.1471 -0.0148 -0.1676
 6066W        W 9810   9.514   8.815   0.571 -0.2313 -0.0928  0.0448
 6067W        W 9811   5.536   3.838  10.828  0.3084  0.2038  0.1199
 6068W        W 9812   8.693   4.610   3.755 -0.4655 -0.1000 -0.0166
 6069W        W 9813   1.435   9.010  10.416  0.3002 -0.1307 -0.1607
 6070W        W 9814   4.429   6.849  10.847  0.0041 -0.0225  0.0195
 6071W        W 9815   6.071   5.907  11.002 -0.0032 -0.0278 -0.2018
 6072W        W 9816   5.638   9.157   2.221  0.1283  0.1808 -0.1348
 6073W        W 9817   1.422   1.036   9.426  0.1992  0.1210  0.0564
 6074W        W 9818   3.161   1.506   8.863  0.1905 -0.2163  0.3528
 6075W        W 9819   5.032   3.577   9.922 -0.0000 -0.0295 -0.0386
 6076W        W 9820   7.472   2.150   3.730 -0.0516  0.2972  0.1902
 6077W        W 9821   6.951   3.170   4.028  0.0675 -0.1853 -0.0333
 6078W        W 9822   4.616   1.237   2.396  0.3099  0.0553  0.0542
 6079W        W 9823   8.690   3.426   3.043  0.1625 -0.2422 -0.0207
 6080W        W 9824   2.802   4.115  10.395  0.1322  0.0238  0.2456
 6081W        W 9825   1.540   5.390   3.692  0.0415  0.0295  0.1044
 6082W        W 9826   6.261   1.518   9.657  0.0246  0.0300 -0.0636
 6083W        W 9827   7.569   7.549   2.577 -0.0150  0.0207 -0.2257
 6084W        W 9828   9.427   6.357   3.511  0.0000  0.0650 -0.2952
 6085W        W 9829   1.768   6.590   0.659 -0.0809  0.1647 -0.1355
 6086W        W 9830   1.753   2.288  12.635 -0.0188  0.3738  0.0377
 6087W        W 9831   6.810   2.805   1.139  0.2018 -0.3329  0.1010
 6088W        W 9832   1.803   2.478   0.415  0.2824  0.1817 -0.0617
 6089W        W 9833   8.253   4.072   9.157  0.2679  0.0571 -0.0341
 6090W        W 9834   2.907   4.733   3.514 -0.0757  0.1136  0.0251
 6091W        W 9835   6.649   4.816   2.454 -0.0543  0.2770 -0.0988
 6092W        W 9836   5.912   7.505  11.767  0.0012 -0.1438 -0.1114
 6093W        W 9837   4.940   8.209   2.670  0.1990 -0.1707 -0.1647
 6094W        W 9838   8.169   4.830   8.554 -0.1839 -0.0292  0.1417
 6095W        W 9839   1.488   8.196   3.678  0.2594 -0.3614 -0.2386
 6096W        W 9840   0.841   5.896  10.039  0.0701 -0.3077  0.0551
 6097W        W 9841   8.330   5.325   1.039 -0.3160 -0.0179 -0.2310
 6098W        W 9842   5.164   0.415   9.639 -0.1208  0.0633 -0.0260
 6099W        W 9843   8.661   7.486   1.281 -0.2140  0.1703 -0.0272
 6100W        W 9844   1.076   0.631   1.422 -0.0942 -0.0419 -0.2644
 6101W        W 9845   6.563   6.481  10.592  0.0539 -0.3561  0.0021
 6102W        W 9846   8.337   2.355   1.423 -0.3960 -0.0626  0.1236
 6103W        W 9847   8.752   1.438   1.418 -0.3440  0.0111 -0.0282
 6104W        W 9848   2.399   8.638   1.008 -0.2632  0.1268  0.6250
 6105W        W 9849   9.325   7.442   4.060 -0.3800  0.2868  0.2614
 6106W        W 9850   6.672   1.447   3.690  0.1640 -0.1140  0.0323
 6107W        W 9851   3.707   0.675   1.308  0.0162 -0.2019  0.0112
 6108W        W 9852   3.537   0.336  12.543 -0.0068 -0.1422  0.0963
 6109W        W 9853   8.123   9.170  10.851 -0.2111 -0.0483 -0.0654
 6110W        W 9854   2.408   6.935   0.763  0.2052  0.1651 -0.1588
 6111W        W 9855   4.733   4.657  10.631 -0.0828 -0.2703 -0.0215
 6112W        W 9856   7.492   7.875  12.636  0.0819 -0.0247 -0.2047
 6113W        W 9857   5.721   5.580  11.166 -0.0424  0.1633 -0.1800
 6114W        W 9858   3.418   6.453   1.762 -0.1811  0.1792  0.0175
 6115W        W 9859   5.424   6.433  12.625 -0.0964  0.0781 -0.2160
 6116W        W 9860   2.022   5.423  10.088  0.2969  0.1443  0.1131
 6117W        W 9861   9.547   9.139   0.943 -0.1330  0.0445  0.1938
 6118W        W 9862   8.578   0.544   2.051  0.2482 -0.1578  0.1850
 6119W        W 9863   5.741   9.917   1.673  0.0323  0.1081 -0.3329
 6120W        W 9864   0.240   7.773  11.324 -0.1377 -0.0848 -0.3271
 6121W        W 9865   3.763   6.433   9.690 -0.1248  0.1809 -0.2497
 6122W        W 9866   6.002   4.029  10.621  0.3721  0.2319 -0.1560
 6123W        W 9867   5.885   7.474  10.484 -0.2335  0.0420  0.2660
 6124W        W 9868   6.646   8.052  10.386 -0.1900  0.0131 -0.1545
 6125W        W 9869   1.688   1.372   8.796  0.0544  0.0763 -0.0041
 6126W        W 9870   8.743   6.035  12.059 -0.2685 -0.0498  0.0816
 6127W        W 9871   2.554   5.426   1.897 -0.0209 -0.0924  0.1070
 6128W        W 9872   7.017   3.751   0.125 -0.1457  0.0562 -0.1350
 6129W        W 9873   3.110   3.224   1.465 -0.2730  0.2301  0.1220
 6130W        W 9874   7.425   3.907  12.028 -0.0611 -0.3085  0.2570
 6131W        W 9875   3.041   2.709   0.847  0.1201 -0.1180 -0.3139
 6132W        W 9876   4.611   3.947   4.076 -0.2395 -0.1476  0.0111
 6133W        W 9877   1.109   2.154   9.306  0.1572  0.0024  0.0620
 6134W        W 9878   1.670   8.717   2.796 -0.2774  0.1428 -0.1242
 6135W        W 9879   8.458   2.204  12.694 -0.0932  0.1922 -0.0326
 6136W        W 9880   1.025   1.088   2.276  0.0234 -0.0484 -0.0145
 6137W        W 9881   4.037   1.408  11.831  0.0014 -0.3082  0.0380
 6138W        W 9882   1.500   9.763   4.080  0.0922 -0.2322  0.1846
 6139W        W 9883   6.466   2.647  11.355  0.1047 -0.4049  0.5184
 6140W        W 9884   0.538   6.098   1.823  0.4845  0.1597  0.2803
 6141W        W 9885   9.273   1.121   0.063  0.0123 -0.2012 -0.2852
 6142W        W 9886   8.792   4.067   2.966 -0.0591 -0.0130  0.0671
 6143W        W 9887   5.522   5.364   9.830  0.0670  0.2376  0.0011
 6144W        W 9888   8.858   6.431  10.689  0.1265 -0.3566  0.1848
 6145W        W 9889   5.659   7.227   1.390  0.0207 -0.0179 -0.1037
 6146W        W 9890   1.579   6.467  12.486  0.1758  0.2057 -0.3321
 6147W        W 9891   0.868   1.854   1.539  0.3062  0.1610 -0.0678
 6148W        W 9892   2.679   7.730   3.033 -0.4211 -0.1560 -0.1637
 6149W        W 9893   7.909   4.589   2.645  0.0305 -0.1183 -0.1515
 6150W        W 9894   1.241   3.008  11.516 -0.1296  0.0939 -0.0267
 6151W        W 9895   0.254   3.804   2.517  0.2873  0.0042  0.0620
 6152W        W 9896   4.324   4.058   1.433 -0.0638 -0.0284 -0.2507
 6153W        W 9897   0.926   6.778   9.751 -0.0181  0.2512 -0.0195
 6154W        W 9898   7.107   7.220   3.311  0.0578 -0.0901  0.2183
 6155W        W 9899   5.695   4.360   0.559 -0.1802 -0.2686  0.1427
 6156W        W 9900   3.413   5.529   1.979  0.0471  0.0915  0.2017
 6157W        W 9901   5.794   1.368   9.542 -0.1314  0.2413  0.1123
 6158W        W 9902   3.179   2.979   8.551  0.2418  0.4264 -0.2147
 6159W        W 9903   9.945   3.974   8.650 -0.3082 -0.0219  0.1746
 6160W        W 9904   1.640   1.273   4.911  0.2882  0.2138  0.1127
 6161W        W 9905   5.912   8.731  10.452 -0.0474  0.1475 -0.1055
 6162W        W 9906   9.860   3.446  11.876  0.6106 -0.1535  0.2321
 6163W        W 9907   3.810   5.378   1.555 -0.1653 -0.1107  0.2197
 6164W        W 9908   2.689   9.494   0.761  0.2931 -0.1943 -0.2753
 6165W        W 9909   0.480   3.927   7.579  0.0821  0.1851  0.0128
 6166W        W 9910   0.145   9.934   2.861  0.1369  0.1952  0.1140
 6167W        W 9911   3.924   3.723  11.123  0.1428 -0.1842 -0.1066
 6168W        W 9912   5.310   7.030   9.327  0.0453  0.1501 -0.1809
 6169W        W 9913   1.727   1.455   0.704 -0.2209  0.0273 -0.3467
 6170W        W 9914   2.367   5.368   1.097  0.1702  0.3678 -0.0332
 6171W        W 9915   2.353   4.226  10.802 -0.1034 -0.2472 -0.1536
 6172W        W 9916   6.089   5.620  11.493  0.0024  0.1670 -0.1605
 6173W        W 9917   7.493   3.779   2.385 -0.1950  0.1164 -0.4070
 6174W        W 9918   1.365   3.848   0.681 -0.1790 -0.0254  0.0955
 6175W        W 9919   4.386   6.292   0.010  0.0090 -0.3824  0.4430
 6176W        W 9920   1.593   8.077   0.611  0.1041  0.0377  0.2672
 6177W        W 9921   4.532   0.694   9.292 -0.3908 -0.2191 -0.1966
 6178W        W 9922   3.867   3.396   1.992 -0.2097 -0.0087 -0.1168
 6179W        W 9923   6.885   5.320   2.411 -0.0147  0.1492  0.1110
 6180W        W 9924   7.679   1.984   3.166 -0.1694 -0.0048 -0.0406
 6181W        W 9925   4.058   9.719  10.796  0.0085  0.0827 -0.0329
 6182W        W 9926   4.096   5.252   0.048  0.0643 -0.1890 -0.0064
 6183W        W 9927   0.210   4.298  11.535 -0.0645 -0.2029 -0.2564
 6184W        W 9928   0.761   5.278  11.313 -0.1801 -0.0705 -0.3063
 6185W        W 9929   5.482   9.660   2.040  0.4125  0.1498  0.3204
 6186W        W 9930   0.241   1.822  12.274 -0.1347  0.0139 -0.1146
 6187W        W 9931   6.599   7.766   1.060 -0.0514 -0.1615 -0.2971
 6188W        W 9932   3.701   6.018   9.381  0.0975 -0.0619  0.2325
 6189W        W 9933   1.056   9.687  10.869  0.1035 -0.1468  0.1354
 6190W        W 9934   0.615   4.161  10.638  0.2378 -0.0541  0.0373
 6191W        W 9935   8.739   0.276   9.984  0.1904 -0.3526  0.0505
 6192W        W 9936   6.268   5.381   3.812 -0.0386  0.2366 -0.1077
 6193W        W 9937   5.729   5.283  11.685  0.1929 -0.0140 -0.0576
 6194W        W 9938   9.283   7.578   2.988 -0.1909 -0.1157 -0.1792
 6195W        W 9939   9.152   6.712  11.597  0.0119 -0.0061  0.2227
 6196W        W 9940   1.269   3.053  12.731  0.0953  0.0080 -0.1449
 6197W        W 9941   4.173   5.467  10.487  0.0297  0.4090  0.0673
 6198W        W 9942   4.131   6.648   9.985 -0.0747 -0.1080 -0.0241
 6199W        W 9943   6.707   4.651   1.019  0.2115  0.0371  0.0777
 6200W        W 9944   5.453   0.446  10.504  0.0343 -0.0052  0.2284
 6201W        W 9945   8.813   7.172   1.845  0.1554  0.1320  0.0346
 6202W        W 9946   6.279   4.845   2.808  0.0043  0.0224 -0.0225
 6203W        W 9947   7.499   1.807   1.621  0.0380  0.0580  0.3293
 6204W        W 9948   8.629   7.145   0.430 -0.0357  0.2849 -0.0840
 6205W        W 9949   8.556   3.199   2.501 -0.5325 -0.2306 -0.2650
 6206W        W 9950   7.411   9.616  12.590 -0.1218 -0.1810  0.0683
 6207W        W 9951   7.396   8.871   9.693 -0.0217  0.2012  0.1082
 6208W        W 9952   5.475   8.762   2.623 -0.0779 -0.0921  0.0845
 6209W        W 9953   0.370   2.282   1.267  0.3256  0.1641  0.1866
 6210W        W 9954   4.039   4.341   0.628 -0.2839  0.1393  0.3426
 6211W        W 9955   1.018   6.957  10.593 -0.0540 -0.2609  0.0548
 6212W        W 9956   9.800   8.800  11.524  0.2599 -0.0203 -0.1412
 6213W        W 9957   2.410   0.086   5.212  0.1295  0.1058 -0.0612
 6214W        W 9958   7.744   3.307  11.268 -0.1969 -0.0003 -0.0285
 6215W        W 9959   5.453   3.051   0.037 -0.0817  0.0490 -0.1947
 6216W        W 9960   5.042   9.115   3.618 -0.0049  0.0045  0.1027
 6217W        W 9961   2.292   1.045   3.605  0.0243  0.2503 -0.1209
 6218W        W 9962   7.386   3.036   2.253  0.3029  0.2035  0.0401
 6219W        W 9963   6.903   7.895   2.745 -0.1041 -0.2893 -0.2051
 6220W        W 9964   7.323   3.730  10.224 -0.0045 -0.0551  0.1397
 6221W        W 9965   3.211   3.255   4.929 -0.2463  0.1464 -0.1968
 6222W        W 9966   7.672   2.356   2.786 -0.1042  0.0905  0.1449
 6223W        W 9967   3.282   8.763   1.897 -0.2320 -0.0299  0.3311
 6224W        W 9968   8.803   7.718   8.563 -0.1587 -0.2452  0.3376
 6225W        W 9969   1.359   6.035  11.116  0.1787 -0.1520  0.1520
 6226W        W 9970   8.901   5.940   8.418  0.0440  0.0730 -0.0058
 6227W        W 9971   3.928   8.613  10.109 -0.3957  0.4265  0.2551
 6228W        W 9972   5.935   6.405   9.949  0.0332 -0.0765 -0.3476
 6229W        W 9973   9.477   3.036   8.012 -0.0169  0.2210  0.1343
 6230W        W 9974   9.379   2.238  11.683 -0.0706  0.1985 -0.1632
 6231W        W 9975   0.537   3.040  12.301  0.3112  0.0284 -0.1983
 6232W        W 9976   4.044   0.854   3.594  0.4288  0.2816 -0.1999
 6233W        W 9977   0.306   1.813   9.487 -0.1640  0.1690 -0.4280
 6234W        W 9978   2.978   1.986   8.949 -0.1619  0.2090 -0.1425
 6235W        W 9979   1.607   6.859   4.221  0.0109  0.0956  0.1652
 6236W        W 9980   0.362   2.881  11.877  0.0215  0.0358  0.0269
 6237W        W 9981   7.937   4.409   3.373 -0.2736  0.1669  0.3826
 6238W        W 9982   9.154   9.772  11.573  0.2711 -0.1724  0.1383
 6239W        W 9983   0.425   5.521   0.175  0.1779 -0.5157 -0.4502
 6240W        W 9984   0.974   9.849   0.402  0.1128 -0.3804  0.0679
 6241W        W 9985   4.066   5.263   3.951 -0.1083  0.2777 -0.4355
 6242W        W 9986   9.790   7.136   3.189 -0.1293 -0.2915  0.1235
 6243W        W 9987   1.622   9.422   0.764  0.0215 -0.0909  0.1061
 6244W        W 9988   1.142   9.293   3.702 -0.1762 -0.0543 -0.1984
 6245W        W 9989   7.077   4.796   3.122 -0.3115 -0.1420  0.0310
 6246W        W 9990   7.478   9.399   0.599  0.0686  0.1380 -0.1504
 6247W        W 9991   7.496   8.205   0.379  0.0382  0.1617  0.0111
 6248W        W 9992   6.377   2.148  11.232  0.0833 -0.3880  0.1847
 6249W        W 9993   5.433   8.711   4.488 -0.0744  0.0606 -0.0304
 6250W        W 9994   4.561   0.580  10.403  0.2106  0.1843  0.1661
 6251W        W 9995   8.863   6.398   0.143 -0.0539  0.2303 -0.1089
 6252W        W 9996   3.859   7.148   1.256  0.0504  0.0195 -0.1592
 6253W        W 9997   8.282   3.841   1.343 -0.3064 -0.0126  0.0524
 6254W        W 9998   2.241   5.618   3.141 -0.1211  0.0487 -0.1914
 6255W        W 9999   9.550   4.765   1.815  0.3530  0.2027  0.1396
 6256W        W10000   5.720   8.843   1.810 -0.1738 -0.0400  0.4327
 6257W        W10001   5.348   6.912  10.208  0.2413  0.0962 -0.1856
 6258W        W10002   3.436   5.965   1.681 -0.2080  0.1467  0.1543
 6259W        W10003   2.881   1.063  11.106  0.1024  0.0374 -0.1565
 6260W        W10004   1.255   1.755  11.550  0.0541  0.1119 -0.0536
 6261W        W10005   0.671   5.790   2.286 -0.0142 -0.2870 -0.1814
 6262W        W10006   4.788   6.395   8.556 -0.1717  0.0757  0.2102
 6263W        W10007   5.693   4.438   9.980  0.1714  0.0306  0.0647
 6264W        W10008   2.950   9.953   3.973 -0.2518 -0.0575 -0.1265
 6265W        W10009   3.387   1.256  11.214 -0.2051 -0.0792 -0.0575
 6266W        W10010   2.382   1.000   1.194 -0.1138  0.2773 -0.2016
 6267W        W10011   1.373   0.333   0.859 -0.0406 -0.1724 -0.2229
 6268W        W10012   3.972   8.525   0.886  0.0122  0.0177 -0.1660
 6269W        W10013   9.944   0.687  10.496  0.0037  0.0080 -0.1517
 6270W        W10014   7.609   9.946   0.533 -0.2861  0.1093  0.3157
 6271W        W10015   2.738   0.627  10.171 -0.0774 -0.0391  0.0969
 6272W        W10016   3.577   5.940   8.407  0.2312  0.1309 -0.0242
 6273W        W10017   1.831   0.440  11.666  0.0855 -0.2337  0.1366
 6274W        W10018   0.258   8.884  11.182  0.3820  0.0748  0.2110
 6275W        W10019   4.450   0.221   1.420  0.1859  0.3290 -0.1766
 6276W        W10020   3.115   0.837   5.004 -0.1622 -0.1660  0.2308
 6277W        W10021   5.242   9.328   1.641  0.2601 -0.1259 -0.0776
 6278W        W10022   2.218   3.761   2.340  0.1730  0.0361 -0.0974
 6279W        W10023   7.671   4.676  12.083 -0.1478  0.1304 -0.1509
 6280W        W10024   3.626   0.748  11.777  0.0437  0.1155  0.1242
 6281W        W10025   2.034   1.766  12.571  0.0672  0.1787  0.0706
 6282W        W10026   9.119   7.542   1.711 -0.2629 -0.1799 -0.0741
 6283W        W10027   6.773   5.674   4.601 -0.0694 -0.1549  0.0736
 6284W        W10028   2.959   2.761   1.736 -0.1181 -0.2059 -0.1476
 6285W        W10029   0.040   2.434   2.194  0.1838  0.0685 -0.1259
 6286W        W10030   4.905   5.686   1.779 -0.0434  0.1510  0.0597
 6287W        W10031   8.141   0.005   0.710  0.2005  0.1162  0.0165
 6288W        W10032   0.113   1.813   0.819  0.1952  0.1911  0.0020
 6289W        W10033   1.781   3.261   8.721  0.3464  0.1335  0.2703
 6290W        W10034   0.960   6.407  10.831  0.3734 -0.3936  0.0603
 6291W        W10035   0.385   3.025   8.929  0.0758  0.0437  0.1613
 6292W        W10036   8.494   0.864   3.013  0.1878  0.3138 -0.0621
 6293W        W10037   7.539   0.917   9.560 -0.0011 -0.3358  0.3842
 6294W        W10038   1.460   2.605  11.582 -0.4584  0.0495  0.2766
 6295W        W10039   7.723   3.957  11.643 -0.0088  0.0675  0.0084
 6296W        W10040   5.708   6.404   0.370  0.0215  0.3988  0.0408
 6297W        W10041   0.898   8.916   9.563 -0.0714  0.2057 -0.3282
 6298W        W10042   8.302   4.748  10.567  0.0944  0.0242 -0.1334
 6299W        W10043   2.220   3.294   0.142 -0.0616 -0.3412 -0.2005
 6300W        W10044   0.042   8.821   8.993  0.0234 -0.0143 -0.1158
 6301W        W10045   4.556   4.921   3.867 -0.1205  0.0543  0.1204
 6302W        W10046   0.978   8.899   8.528 -0.0801 -0.2545 -0.0580
 6303W        W10047   0.029   7.647   0.486  0.0059 -0.2323  0.0292
 6304W        W10048   7.390   2.689   9.791 -0.0520  0.0260  0.1516
 6305W        W10049   0.364   2.518   0.195  0.3071  0.0781 -0.1151
 6306W        W10050   5.803   6.883   0.481 -0.0248  0.1518  0.0009
 6307W        W10051   8.385   7.078   1.514 -0.0067 -0.0862  0.1231
 6308W        W10052   5.486   8.863  10.705 -0.0810 -0.0365 -0.6909
 6309W        W10053   9.717   9.352   2.081 -0.1244  0.1164  0.0177
 6310W        W10054   3.211   5.847   9.370 -0.1743 -0.1589  0.2870
 6311W        W10055   5.365   5.101   8.806 -0.1037  0.3364  0.1047
 6312W        W10056   1.617   7.104  11.494 -0.1333 -0.0456 -0.0434
 6313W        W10057   6.888   3.245   1.430 -0.1075 -0.1524 -0.0984
 6314W        W10058   6.163   4.687  12.536  0.1429 -0.4254  0.3211
 6315W        W10059   9.018   2.781   0.242 -0.1463  0.3717 -0.0802
 6316W        W10060   3.686   8.108  10.190  0.1779 -0.0038 -0.2877
 6317W        W10061   2.150   7.979   1.581 -0.0779  0.2136 -0.2059
 6318W        W10062   5.698   4.956  11.175  0.2726 -0.0106  0.1067
 6319W        W10063   3.219   9.265   8.537 -0.1510 -0.0119 -0.1601
 6320W        W10064   5.658   1.596  11.687  0.3315  0.0683 -0.0557
 6321W        W10065   3.894   7.308   9.590  0.2154 -0.1116 -0.1579
 6322W        W10066   5.280   8.401   4.086 -0.1905  0.0546  0.1741
 6323W        W10067   0.661   7.243   9.837  0.0163 -0.2657 -0.2199
 6324W        W10068   5.289   7.976  12.498  0.0059 -0.0244 -0.1269
 6325W        W10069   3.808   1.937   3.590  0.0179 -0.1602  0.0649
 6326W        W10070   2.524   2.193   4.163 -0.0098  0.3377 -0.0495
 6327W        W10071   0.142   0.668   2.048 -0.0925 -0.3489  0.2455
 6328W        W10072   4.785   3.159  10.067  0.2682 -0.3712 -0.0537
 6329W        W10073   3.520   3.143   9.330 -0.1805  0.3399 -0.1799
 6330W        W10074   3.576   0.496  11.186  0.0123 -0.0949  0.1551
 6331W        W10075   1.780   7.651  10.243  0.2003  0.1092  0.2261
 6332W        W10076   6.263   6.093   1.227  0.0169  0.1084 -0.1394
 6333W        W10077   6.038   6.750   1.941  0.1680  0.2175  0.2546
 6334W        W10078   3.994   1.532   1.310  0.4375  0.0713  0.0646
 6335W        W10079   1.567   8.974   3.573  0.1557  0.1355  0.0725
 6336W        W10080   9.458   1.631   0.681  0.1165  0.0741 -0.0749
 6337W        W10081   9.181   5.710   8.842 -0.1928 -0.0553  0.2336
 6338W        W10082   1.571   5.649   7.906 -0.0391  0.0429  0.0951
 6339W        W10083   0.127   2.027   3.020 -0.0082 -0.3399 -0.0877
 6340W        W10084   9.758   9.705   1.199 -0.2819 -0.3198 -0.0207
 6341W        W10085   0.796   2.868   8.583  0.0428  0.0104 -0.2245
 6342W        W10086   8.072   6.142   4.154  0.3208 -0.0030 -0.1350
 6343W        W10087   0.962   1.134   1.211  0.0625 -0.0565  0.3698
 6344W        W10088   5.277   4.351  11.612 -0.4057 -0.0857 -0.0139
 6345W        W10089   3.916   8.559   2.229  0.0201  0.1334  0.4471
 6346W        W10090   2.778   2.724   2.955  0.0961  0.2048 -0.0346
 6347W        W10091   1.875   3.939  10.658  0.0537  0.0516  0.1917
 6348W        W10092   6.623   8.256   0.907 -0.1227  0.2266  0.0738
 6349W        W10093   5.307   9.414   9.014 -0.0255  0.0715  0.0226
 6350W        W10094   3.090   2.631  11.461 -0.0770 -0.1364  0.1844
 6351W        W10095   5.742   9.766  10.457 -0.2530  0.0959  0.0916
 6352W        W10096   2.886   8.689   9.281 -0.0608  0.0059 -0.1842
 6353W        W10097   9.350   1.039   3.609 -0.2891 -0.0177  0.0890
 6354W        W10098   9.525   4.081   9.589 -0.0012 -0.1103  0.1599
 6355W        W10099   2.492   4.352   3.610 -0.2419 -0.1857 -0.0394
 6356W        W10100   3.431   6.549  11.043 -0.0666 -0.0885  0.1111
 6357W        W10101   9.805   7.612   3.259  0.1112  0.1349 -0.1237
 6358W        W10102   3.748   9.258   8.523  0.0256  0.3160  0.2146
 6359W        W10103   7.865   5.074  10.763  0.0665  0.1615 -0.1285
 6360W        W10104   2.327   9.253   0.021 -0.1398 -0.1814 -0.3384
 6361W        W10105   0.218   6.277   2.980 -0.1532  0.1907 -0.2684
 6362W        W10106   1.497   5.733   3.284  0.1935  0.0444  0.3378
 6363W        W10107   1.129   3.777  11.242 -0.0497  0.1828 -0.0486
 6364W        W10108   0.622   7.983   9.261 -0.2451  0.5206 -0.1183
 6365W        W10109   2.166   0.349   3.785 -0.0781  0.0015  0.0715
 6366W        W10110   3.463   2.437   9.805 -0.0782 -0.0266  0.2012
 6367W        W10111   4.358   7.523  12.148 -0.2933 -0.3592  0.0511
 6368W        W10112   8.537   3.685   1.717  0.1879  0.1143 -0.0708
 6369W        W10113   4.176   8.826  12.420  0.0916  0.1820  0.0519
 6370W        W10114   8.789   6.940   8.836 -0.2404  0.0417  0.3254
 6371W        W10115   5.654   7.237   3.327 -0.3539 -0.0368  0.3742
 6372W        W10116   6.760   3.306  12.571 -0.1916  0.0652 -0.0518
 6373W        W10117   8.091   9.227   1.985 -0.0322 -0.0506  0.2109
 6374W        W10118   1.900   2.035  12.137 -0.3023  0.2145 -0.1111
 6375W        W10119   9.286   4.035   3.576 -0.0180  0.1918  0.1340
 6376W        W10120   0.854   0.420   3.554 -0.0323 -0.1421  0.0428
 6377W        W10121   7.208   8.969   1.465  0.0177 -0.0815 -0.2938
 6378W        W10122   4.416   8.549   0.542 -0.0551  0.0117  0.0691
 6379W        W10123   6.035   3.451   2.774 -0.1804 -0.1001 -0.0425
 6380W        W10124   5.834   7.675  11.273  0.0080  0.0009 -0.4275
 6381W        W10125   0.794   2.001   0.118  0.6415  0.0244 -0.1360
 6382W        W10126   5.082   9.296   9.840  0.1070 -0.2723  0.1913
 6383W        W10127   1.424   7.252  10.541  0.0039  0.1696  0.1641
 6384W        W10128   3.455   1.247   0.764  0.3270 -0.1447  0.1726
 6385W        W10129   9.930   3.126  12.421  0.1126 -0.0013 -0.1680
 6386W        W10130   3.876   8.044   1.890 -0.0633  0.3422  0.3134
 6387W        W10131   8.115   2.465   1.826 -0.2364  0.1934 -0.1375
 6388W        W10132   9.894   9.139   2.642 -0.0901  0.2005  0.1944
 6389W        W10133   2.860   3.267   9.372 -0.0450 -0.1913 -0.0980
 6390W        W10134   4.749   9.218   2.409  0.0524 -0.3074 -0.1197
 6391W        W10135   7.711   4.174  10.345  0.3057  0.0460 -0.0423
 6392W        W10136   6.272   1.630  11.182 -0.0835 -0.0174  0.2790
 6393W        W10137   3.557   6.180   3.530  0.0216 -0.0160 -0.2139
 6394W        W10138   6.520   6.033  10.033  0.2326 -0.1254 -0.3131
 6395W        W10139   5.300   1.419   8.946 -0.0898  0.0765  0.2512
 6396W        W10140   8.398   4.291   3.235 -0.0161  0.0421  0.0705
 6397W        W10141   7.297   2.441   0.035 -0.0088 -0.0615  0.0856
 6398W        W10142   9.537   2.838   3.866 -0.1560  0.2436 -0.2442
 6399W        W10143   0.500   0.700  10.641 -0.1555 -0.2044 -0.0528
 6400W        W10144   5.643   3.329   9.309  0.1626 -0.0238 -0.1274
 6401W        W10145   7.095   0.309   0.145  0.0080  0.1665  0.0543
 6402W        W10146   0.936   5.116   1.852 -0.0683 -0.0794  0.1468
 6403W        W10147   5.079   6.620   9.625  0.1822  0.1980 -0.2367
 6404W        W10148   7.861   1.238   1.298  0.1275  0.0001  0.0470
 6405W        W10149   1.043   1.301  12.297  0.2708 -0.3390 -0.1048
 6406W        W10150   3.572   6.006  11.486 -0.0033 -0.3070 -0.1470
 6407W        W10151   1.950   2.536   8.087 -0.0942 -0.0743  0.0901
 6408W        W10152   3.886   3.993   9.172 -0.0060  0.0116  0.1427
 6409W        W10153   4.348   3.354   0.161 -0.0846 -0.2164  0.2244
 6410W        W10154   9.566   6.548   1.359  0.1685 -0.0669  0.1731
 6411W        W10155   7.711   8.806   0.029  0.0779 -0.1359  0.0219
 6412W        W10156   2.203   0.786   8.040  0.1640 -0.2186  0.0185
 6413W        W10157   1.047   3.816  12.571  0.2033 -0.2009 -0.1286
 6414W        W10158   0.741   6.180  12.616 -0.3114 -0.4501 -0.1048
 6415W        W10159   6.687   1.908   1.910 -0.2145  0.0621 -0.1598
 6416W        W10160   2.439   7.947   9.288 -0.1245 -0.0197 -0.1917
 6417W        W10161   3.877   1.132   2.784  0.0268  0.0278 -0.1638
 6418W        W10162   2.045   2.370  10.205 -0.2030  0.1358 -0.1252
 6419W        W10163   4.514   1.912  10.210 -0.1781 -0.2250  0.0363
 6420W        W10164   3.392   0.451   9.939  0.1720 -0.2390  0.4561
 6421W        W10165   3.266   0.412   4.758 -0.1778  0.1480  0.0047
 6422W        W10166   1.523   2.819   0.800 -0.2219 -0.0798 -0.2377
 6423W        W10167   1.308   1.870  10.543 -0.1032  0.3040  0.4300
 6424W        W10168   4.179   2.825  11.706  0.3230 -0.1414  0.0405
 6425W        W10169   7.712   0.246   3.268  0.0609  0.0109  0.0188
 6426W        W10170   8.519   4.980   1.452 -0.3521  0.1101 -0.4804
 6427W        W10171   7.533   0.212   2.494 -0.1120 -0.3328  0.2023
 6428W        W10172   0.910   4.866   3.096 -0.1825  0.0370 -0.2026
 6429W        W10173   6.617   1.947   9.697  0.0543  0.0014  0.2700
 6430W        W10174   0.648   2.461  11.031 -0.1485 -0.2188  0.2074
 6431W        W10175   3.298   0.513  12.139  0.1230  0.1825 -0.0524
 6432W        W10176   9.303   1.518  12.048 -0.0554  0.3060 -0.1041
 6433W        W10177   2.922   0.251  11.781 -0.0454 -0.0107 -0.0286
 6434W        W10178   1.228   1.956   2.345 -0.2439 -0.1512 -0.0460
 6435W        W10179   4.567   8.546  12.608  0.3272  0.2163 -0.3616
 6436W        W10180   8.721   0.730   0.973 -0.0434 -0.5364  0.1118
 6437W        W10181   1.568   0.995   0.404 -0.2309 -0.2747 -0.0294
 6438W        W10182   8.633   9.026  10.538  0.0389  0.0905 -0.0471
 6439W        W10183   0.363   3.384   0.899 -0.0028  0.1210 -0.1131
 6440W        W10184   5.929   2.755   8.984  0.0940  0.0557  0.3495
 6441W        W10185   6.514   1.092   2.867  0.0891  0.2761  0.0698
 6442W        W10186   9.039   2.248   0.054 -0.1670 -0.2417  0.0058
 6443W        W10187   2.704   5.570   9.594 -0.2480 -0.5650  0.1399
 6444W        W10188   2.556   8.350  10.193 -0.2951 -0.0056  0.0056
 6445W        W10189   6.686   4.978   1.980 -0.2767  0.0433  0.2332
 6446W        W10190   7.964   0.691   1.434 -0.3099 -0.0058  0.2580
 6447W        W10191   8.170   2.779   9.043 -0.2048 -0.2763  0.0392
 6448W        W10192   8.476   8.304  11.194  0.2287  0.0662 -0.2546
 6449W        W10193   9.489   2.974   0.296  0.1620  0.0540  0.0905
 6450W        W10194   9.343   6.767  12.471 -0.2620 -0.1220 -0.1305
 6451W        W10195   2.348   3.483   1.147  0.4557  0.2197 -0.1426
 6452W        W10196   1.280   5.153  11.315  0.1254  0.2416  0.2706
 6453W        W10197   7.589   7.517  11.303  0.1674 -0.0284 -0.2498
 6454W        W10198   7.152   7.665   0.248  0.0057  0.0187  0.1950
 6455W        W10199   4.478   1.970  10.728  0.2803 -0.1626 -0.1285
 6456W        W10200   8.339   3.579   0.097  0.0717 -0.0395  0.2032
 6457W        W10201   3.136   9.440   9.065 -0.1930  0.0595 -0.1350
 6458W        W10202   9.191   2.275  10.896 -0.1288 -0.2362  0.3813
 6459W        W10203   5.779   3.113   1.815  0.0341 -0.0408 -0.1473
 6460W        W10204   5.830   6.750   3.323 -0.0065 -0.3866  0.1955
 6461W        W10205   2.414   2.149   9.830 -0.0249  0.0236  0.2627
 6462W        W10206   0.572   4.080   4.542  0.0204  0.2318  0.2079
 6463W        W10207   7.560   1.359  11.671 -0.1194 -0.1721  0.0992
 6464W        W10208   6.800   5.143   8.704  0.0696  0.1266 -0.0515
 6465W        W10209   5.724   0.603   2.240 -0.0513  0.1518  0.1098
 6466W        W10210   5.335   1.729   1.418  0.0482  0.0812 -0.0928
 6467W        W10211   4.590   0.952  10.711 -0.0042 -0.4123 -0.3344
 6468W        W10212   0.778   6.309   3.020 -0.2060  0.3026 -0.0931
 6469W        W10213   2.757   4.606   2.695  0.0527  0.1655  0.1858
 6470W        W10214   9.895   1.640   9.847 -0.3908 -0.0176  0.1026
 6471W        W10215   3.497   2.320   8.770  0.0377  0.0550 -0.0661
 6472W        W10216   4.303   0.562   2.247  0.3487 -0.2733  0.0871
 6473W        W10217   7.862   0.770  11.224 -0.1658 -0.3019 -0.1015
 6474W        W10218   4.249   3.754   9.489 -0.2386 -0.2663  0.0538
 6475W        W10219   5.982   6.041   4.082 -0.1338  0.1050  0.0296
 6476W        W10220   2.563   6.030   9.456 -0.0396  0.3351 -0.2127
 6477W        W10221   0.263   7.302   2.047 -0.0109 -0.1385 -0.0413
 6478W        W10222   8.662   5.195  12.361 -0.2178  0.0635 -0.1344
 6479W        W10223   6.505   5.975  10.723  0.2681  0.0918  0.1291
 6480W        W10224   9.308   5.348   3.605  0.1189  0.2553  0.0491
 6481W        W10225   1.145   8.709   2.281 -0.0961  0.1460 -0.0241
 6482W        W10226   7.278   5.144   0.820 -0.3714  0.1627  0.1934
 6483W        W10227   2.187   6.693   7.599 -0.2538 -0.1325 -0.1594
 6484W        W10228   7.330   7.326   0.646 -0.3949 -0.2897 -0.2280
 6485W        W10229   0.996   8.401   1.861  0.1440 -0.1140  0.0357
 6486W        W10230   5.804   7.786   1.770 -0.0733 -0.1446 -0.0281
 6487W        W10231   7.036   3.397   0.532  0.2482 -0.1471 -0.1586
 6488W        W10232   1.766   6.552   1.183  0.2762 -0.0638 -0.0984
 6489W        W10233   1.017   2.150   2.825 -0.2253 -0.2258  0.2092
 6490W        W10234   2.842   1.352  12.715 -0.1192 -0.0430 -0.1161
 6491W        W10235   5.093   4.769   3.971 -0.0530 -0.1189 -0.0356
 6492W        W10236   9.588   8.197   9.706 -0.1990 -0.1097 -0.0371
 6493W        W10237   6.001   8.758  12.561  0.1287 -0.0044 -0.2204
 6494W        W10238   3.135   0.049  10.142 -0.1518  0.0548 -0.1966
 6495W        W10239   9.378   6.384   0.892 -0.1933 -0.0640  0.1861
 6496W        W10240   2.004   4.469  10.557  0.0932  0.1099  0.1289
 6497W        W10241   2.754   2.305   3.467  0.0171  0.0947  0.1583
 6498W        W10242   9.945   3.916   4.027 -0.1239 -0.3386 -0.0944
 6499W        W10243   6.854   3.877  10.163  0.2206 -0.0798 -0.2759
 6500W        W10244   8.798   1.744   0.225  0.0699  0.2116  0.0501
 6501W        W10245   0.021   9.046   0.079 -0.1114 -0.1572  0.1679
 6502W        W10246   4.567   6.231   1.737 -0.5022 -0.4144  0.1899
 6503W        W10247   0.849   9.457  11.551 -0.0725  0.0489  0.0634
 6504W        W10248   8.120   3.528  11.519  0.3750 -0.0584 -0.1449
 6505W        W10249   9.030   4.099  11.510 -0.0061  0.1766 -0.0088
 6506W        W10250   2.548   2.501   8.977  0.2077 -0.2275  0.0062
 6507W        W10251   3.628   4.022  11.468 -0.0510  0.0085 -0.1467
 6508W        W10252   6.467   5.939   3.068 -0.0246 -0.3328 -0.0467
 6509W        W10253   9.927   3.977   7.716 -0.1402 -0.1390  0.2536
 6510W        W10254   0.469   4.500   9.683 -0.0003  0.1472  0.2463
 6511W        W10255   9.523   3.263   8.445  0.1403 -0.1219 -0.2477
 6512W        W10256   6.837   0.953  11.274 -0.1739  0.0953  0.0276
 6513W        W10257   1.728   2.016   8.073 -0.2176 -0.2618  0.2493
 6514W        W10258   6.975   4.313   1.185 -0.1105 -0.0003  0.1214
 6515W        W10259   3.184   8.186  11.469  0.1193 -0.0225  0.0198
 6516W        W10260   4.999   3.221  10.575  0.0154  0.2741  0.3377
 6517W        W10261   4.642   8.698  12.154  0.0779  0.1059  0.0997
 6518W        W10262   8.538   1.523   3.450 -0.0647 -0.2830  0.3222
 6519W        W10263   7.489   3.158   3.995 -0.1899 -0.1641 -0.0225
 6520W        W10264   8.263   2.884   1.211 -0.2724  0.0515 -0.2065
 6521W        W10265   3.856   1.875   2.304 -0.0504 -0.4036  0.0921
 6522W        W10266   9.640   2.804   1.805 -0.1373 -0.1342 -0.1289
 6523W        W10267   5.255   7.468   8.196 -0.1455 -0.1597 -0.1165
 6524W        W10268   3.988   2.864   4.183  0.2145 -0.2544 -0.0433
 6525W        W10269   7.618   2.569  11.884  0.2496  0.0328  0.3202
 6526W        W10270   8.011   0.278  11.332 -0.1852  0.2274 -0.0547
 6527W        W10271   0.512   1.982  10.073 -0.0159  0.1395  0.0340
 6528W        W10272   2.958   9.127   1.611 -0.2597  0.0900 -0.0409
 6529W        W10273   1.113   0.274   1.820 -0.2517 -0.1003  0.1498
 6530W        W10274   1.998   3.538   1.954 -0.1090  0.0716  0.2772
 6531W        W10275   0.937   5.573   9.030 -0.4417  0.0373  0.1501
 6532W        W10276   5.328   6.462   2.147 -0.0555 -0.1841 -0.0561
 6533W        W10277   5.116   8.458   8.860 -0.0143 -0.0120 -0.0623
 6534W        W10278   5.002   1.409  11.952 -0.1531  0.1206  0.1211
 6535W        W10279   0.794   8.447   9.438 -0.0480 -0.1939  0.1050
 6536W        W10280   7.536   1.281   3.907 -0.1613  0.0227 -0.2768
 6537W        W10281   1.681   0.895   9.851  0.0699  0.3373  0.3490
 6538W        W10282   5.196   7.264  10.696 -0.2253 -0.1009 -0.0604
 6539W        W10283   0.480   2.242  10.492 -0.1780  0.3508  0.0235
 6540W        W10284   1.679   4.086   8.871 -0.2687 -0.2225  0.0100
 6541W        W10285   9.832   7.560  12.559 -0.0206 -0.3244  0.0623
 6542W        W10286   8.835   5.133   4.388  0.1454 -0.3014  0.2361
 6543W        W10287   0.088   4.991   0.508 -0.2007  0.0583  0.0884
 6544W        W10288   6.135   5.982   9.721 -0.0087  0.0473 -0.1359
 6545W        W10289   3.347   4.803   3.866 -0.1184  0.2053 -0.2640
 6546W        W10290   7.208   6.382   9.444  0.4718 -0.0193  0.4053
 6547W        W10291   3.899   7.111   0.743  0.1737  0.0653 -0.0171
 6548W        W10292   4.446   0.823   4.906  0.0563  0.2587 -0.1020
 6549W        W10293   9.892   5.820   9.166 -0.2235  0.3904  0.2332
 6550W        W10294   6.530   4.935  10.440  0.0386 -0.1024 -0.0143
 6551W        W10295   4.275   8.787   8.979 -0.2614 -0.3177 -0.0203
 6552W        W10296   5.503   8.880  12.476 -0.0031  0.2501  0.0477
 6553W        W10297   6.514   0.870   3.841 -0.0577 -0.0839  0.0293
 6554W        W10298   5.411   4.218   1.387 -0.0600  0.1718 -0.4233
 6555W        W10299   0.494   3.808   1.486  0.1893  0.0408 -0.0182
 6556W        W10300   2.269   2.860   8.802 -0.0824 -0.3284  0.0613
 6557W        W10301   4.268   4.620   1.445  0.3023  0.0404 -0.0152
 6558W        W10302   3.578   6.741   0.908 -0.0940  0.2841 -0.0255
 6559W        W10303   6.122   0.355   8.722  0.1932  0.0558  0.0927
 6560W        W10304   4.650   0.435   3.126  0.2011  0.1379  0.0774
 6561W        W10305   0.873   2.509   8.917 -0.1847  0.0582  0.1600
 6562W        W10306   4.592   4.789   9.579  0.1162  0.0984 -0.0033
 6563W        W10307   7.799   6.289   1.697  0.2340  0.3738  0.1423
 6564W        W10308   0.511   0.162   3.249 -0.2546  0.3279  0.1793
 6565W        W10309   4.986   0.491  10.183 -0.0554 -0.2520  0.0604
 6566W        W10310   7.013   5.109  12.126  0.0156  0.2395  0.3982
 6567W        W10311   1.806   2.323   4.470  0.0481  0.0493  0.4979
 6568W        W10312   2.005   7.947   2.412 -0.0929  0.1461  0.1292
 6569W        W10313   1.544   2.992   9.472 -0.4142 -0.2624  0.3005
 6570W        W10314   5.530   2.076  12.541  0.2640  0.0977  0.3753
 6571W        W10315   4.046   1.071  12.640  0.0705  0.2806  0.1141
 6572W        W10316   1.836   0.869  11.378 -0.2324 -0.3274 -0.0921
 6573W        W10317   6.581   0.538  10.143  0.1177  0.3099 -0.2611
 6574W        W10318   0.862   2.842   3.764  0.2655 -0.1357 -0.3467
 6575W        W10319   3.356   4.224   3.553  0.0930  0.0856  0.0183
 6576W        W10320   3.419   2.805   8.982 -0.1124  0.0904 -0.0918
 6577W        W10321   0.642   0.320  10.266  0.3578  0.1171 -0.0341
 6578W        W10322   0.703   9.258  10.158 -0.1739 -0.0542 -0.0509
 6579W        W10323   6.791   5.392   9.180  0.3190 -0.0094  0.4624
 6580W        W10324   7.204   9.584   9.287  0.2620  0.2096 -0.0551
 6581W        W10325   0.613   2.432   1.896  0.0987 -0.2027  0.3643
 6582W        W10326   6.198   4.689  10.089 -0.1165 -0.2478  0.2754
 6583W        W10327   0.675   0.020   8.573  0.1932  0.3528  0.0358
 6584W        W10328   8.404   5.649   2.765  0.1396  0.0289  0.0149
 6585W        W10329   2.023   9.318   1.634 -0.0355 -0.2507  0.0178
 6586W        W10330   6.383   4.355   1.214 -0.3293 -0.3334 -0.0051
 6587W        W10331   1.261   1.193   7.795 -0.1940 -0.0147 -0.1483
 6588W        W10332   8.943   5.662   0.619 -0.1280 -0.0813 -0.1617
 6589W        W10333   4.768   3.857   1.430 -0.5105  0.1913  0.0495
 6590W        W10334   8.110   2.947   1.759  0.3426 -0.0215  0.0969
 6591W        W10335   3.307   9.285  10.722 -0.0377 -0.3271  0.1842
 6592W        W10336   8.059   5.546   2.313  0.1943  0.0840 -0.1627
 6593W        W10337   0.216   6.668  10.305  0.3401  0.1795  0.2395
 6594W        W10338   5.328   5.856  12.005  0.1025  0.0972 -0.2175
 6595W        W10339   9.446   7.708   9.512 -0.0357  0.0466 -0.1318
 6596W        W10340   9.612   9.910  12.729 -0.1498 -0.2551  0.1254
 6597W        W10341   1.826   2.429   1.837  0.1165  0.1375 -0.0787
 6598W        W10342   4.968   5.033   2.560 -0.0115 -0.0128  0.2942
 6599W        W10343   8.633   7.847  12.180  0.1162 -0.0798 -0.1923
 6600W        W10344   3.310   2.114  10.283  0.1150  0.4814  0.1594
 6601W        W10345   1.883   8.321  12.510 -0.1143  0.1007 -0.1038
 6602W        W10346   4.141   2.889   1.917  0.1008 -0.4618  0.0519
 6603W        W10347   2.791   3.380  11.926 -0.1240  0.0885 -0.0235
 6604W        W10348   2.673   5.906   3.060 -0.2663 -0.1948 -0.1478
 6605W        W10349   1.286   9.131   4.538 -0.0590 -0.1458 -0.1068
 6606W        W10350   4.474   7.789   3.842 -0.0374 -0.1115 -0.2012
 6607W        W10351   6.221   0.064   1.977 -0.2245 -0.1062 -0.1047
 6608W        W10352   4.836   7.186   3.126  0.0422 -0.0476 -0.1027
 6609W        W10353   4.003   4.677   2.669 -0.2046  0.1100 -0.1054
 6610W        W10354   0.863   2.059  11.383  0.3756 -0.0621 -0.0620
 6611W        W10355   2.473   1.822   3.047 -0.0117  0.1913 -0.1507
 6612W        W10356   6.253   9.716   3.079 -0.2936  0.1173 -0.0977
 6613W        W10357   3.362   0.717   9.484 -0.1794 -0.2611  0.2079
 6614W        W10358   3.825   4.156  10.472  0.2376 -0.1582  0.1899
 6615W        W10359   8.105   6.672   9.310 -0.0805 -0.0886 -0.0149
 6616W        W10360   6.566   5.482  11.632 -0.0777  0.1373  0.1758
 6617W        W10361   9.443   2.309   8.719  0.1812 -0.0940  0.2839
 6618W        W10362   6.259   4.499  10.540 -0.3211 -0.1270  0.0577
 6619W        W10363   0.723   9.677  12.034 -0.4668 -0.0822  0.3315
 6620W        W10364   2.933   7.864   2.121  0.2289  0.3594 -0.1278
 6621W        W10365   8.829   2.865  11.097 -0.1809  0.2111 -0.1573
 6622W        W10366   4.839   1.216   9.118 -0.2607  0.2491 -0.1253
 6623W        W10367   6.451   5.001   0.138  0.1252 -0.1893  0.1562
 6624W        W10368   8.992   4.597   8.793  0.0164 -0.1350  0.1385
 6625W        W10369   4.775   4.758   8.691 -0.2471 -0.1988 -0.0298
 6626W        W10370   0.171   0.992  10.847  0.1173 -0.0890 -0.3320
 6627W        W10371   5.591   1.655   4.601 -0.0102  0.2734 -0.0948
 6628W        W10372   5.434   1.737  10.731  0.2290  0.4033 -0.1525
 6629W        W10373   2.431   6.563   7.988 -0.0124  0.0366 -0.1486
 6630W        W10374   5.154   1.664   3.287  0.2573  0.0652 -0.0983
 6631W        W10375   5.529   0.356  11.273  0.0203 -0.3935 -0.0401
 6632W        W10376   2.201   8.377   2.566  0.2802  0.0268 -0.2176
 6633W        W10377   3.869   1.776   2.818 -0.1723  0.1559 -0.1633
 6634W        W10378   4.165   3.504  12.456 -0.0179  0.0655 -0.3494
 6635W        W10379   6.456   8.684   0.807 -0.1419  0.0422  0.0231
 6636W        W10380   4.439   8.853  10.394  0.0765 -0.1837  0.2738
 6637W        W10381   9.525   5.714   2.690 -0.0291 -0.0515 -0.1098
 6638W        W10382   8.154   9.780   0.244  0.1802  0.3806  0.1678
 6639W        W10383   1.001   7.509  11.940  0.1562  0.2297  0.1645
 6640W        W10384   8.213   5.049   9.890 -0.0534 -0.0324  0.1152
 6641W        W10385   0.761   2.011   2.163 -0.2498  0.2186 -0.0254
 6642W        W10386   6.138   8.230   4.420  0.2602 -0.0744 -0.1266
 6643W        W10387   1.624   8.782  11.636  0.0011  0.2565 -0.0993
 6644W        W10388   8.814   3.311   3.579  0.0340 -0.3964 -0.2908
 6645W        W10389   3.316   0.154   0.184  0.1065 -0.1982 -0.1138
 6646W        W10390   6.971   8.996   2.478  0.1591 -0.0498 -0.0656
 6647W        W10391   7.138   4.541   0.777  0.1901  0.1902  0.1353
 6648W        W10392   5.794   7.013   2.866  0.0194 -0.0388  0.0959
 6649W        W10393   1.486   8.286   2.267  0.4443 -0.0767  0.3084
 6650W        W10394   0.785   5.364  12.604  0.1610 -0.0301 -0.1039
 6651W        W10395   5.905   1.958   0.900 -0.0067  0.0880 -0.3967
 6652W        W10396   6.086   4.378   9.119 -0.0796 -0.3063  0.1225
 6653W        W10397   0.411   0.406  11.180 -0.1481  0.1148 -0.1998
 6654W        W10398   4.061   2.334   2.581  0.1648 -0.0456  0.2916
 6655W        W10399   7.608   4.057   8.463 -0.2125 -0.0714 -0.2176
 6656W        W10400   1.839   5.904   7.520  0.0659 -0.2809  0.1373
 6657W        W10401   0.599   0.737   1.280  0.2742  0.0851 -0.0993
 6658W        W10402   7.500   4.052   0.348  0.1601  0.1485 -0.1037
 6659W        W10403   1.337   1.895   4.471 -0.1973  0.1709  0.1809
 6660W        W10404   4.117   0.281   3.349  0.1742 -0.2141 -0.2116
 6661W        W10405   2.703   8.889   1.958 -0.2859 -0.0276  0.1126
 6662W        W10406   6.956   6.072  11.082 -0.0336  0.1787 -0.1489
 6663W        W10407   1.796   2.043  10.488 -0.0742  0.1128  0.1285
 6664W        W10408   4.271   2.786   3.350 -0.1124  0.0583 -0.1285
 6665W        W10409   6.767   0.378  11.946  0.0985  0.3588 -0.1800
 6666W        W10410   0.149   9.612   8.542 -0.2234  0.2464  0.2728
 6667W        W10411   3.384   6.405   8.408 -0.1605 -0.1308 -0.2377
 6668W        W10412   2.949   4.266   9.090  0.0239 -0.1162 -0.0851
 6669W        W10413   0.425   5.574   1.855 -0.0698  0.3244 -0.2840
 6670W        W10414   4.915   4.066   9.678 -0.0818  0.3478 -0.1273
 6671W        W10415   5.607   8.390  10.745  0.1738 -0.2330  0.0726
 6672W        W10416   9.630   0.672   0.763 -0.0783 -0.2983 -0.1846
 6673W        W10417   8.655   4.499   0.732 -0.0514  0.0457  0.1395
 6674W        W10418   5.385   2.468   4.076  0.0031  0.1744 -0.0639
 6675W        W10419   4.476   9.307   1.855  0.1345 -0.0591  0.1809
 6676W        W10420   5.315   5.624   3.832 -0.3680  0.1523  0.2570
 6677W        W10421   3.266   0.768   0.919 -0.2849  0.4135  0.1618
 6678W        W10422   2.279   1.278   2.086 -0.1659  0.2277 -0.0076
 6679W        W10423   0.338   4.028   3.205  0.1765  0.4423 -0.2192
 6680W        W10424   3.837   3.840  12.631  0.1259 -0.2103 -0.1302
 6681W        W10425   6.526   2.599   0.746  0.0082 -0.1451 -0.0733
 6682W        W10426   1.031   0.168  12.722 -0.0381  0.0086 -0.0572
 6683W        W10427   1.407   0.906   0.889 -0.1580  0.1287 -0.0738
 6684W        W10428   2.129   8.215   1.123  0.1853 -0.0264 -0.2290
 6685W        W10429   9.086   4.949   1.467 -0.2610  0.1820 -0.1699
 6686W        W10430   3.484   5.088   1.768  0.2555  0.0363 -0.0105
 6687W        W10431   9.938   4.254   9.051 -0.0032 -0.1248 -0.0054
 6688W        W10432   9.805   8.657   9.917 -0.1157 -0.1720 -0.1038
 6689W        W10433   2.387   0.977   9.921  0.1428 -0.0410  0.0083
 6690W        W10434   6.304   5.575   0.055 -0.1362  0.1350  0.0472
 6691W        W10435   9.158   8.590   2.159  0.1761 -0.1707  0.5579
 6692W        W10436   5.216   8.595   0.507 -0.1586  0.0569 -0.1275
 6693W        W10437   6.099   6.871   8.759 -0.0725  0.1418  0.3328
 6694W        W10438   3.928   3.673   1.208  0.1566  0.1521  0.0572
 6695W        W10439   2.519   6.577   9.897  0.1721 -0.4093 -0.1916
 6696W        W10440   6.568   7.631   9.936 -0.0622  0.2531  0.0575
 6697W        W10441   2.611   0.679   0.156 -0.3198 -0.1519  0.4153
 6698W        W10442   8.262   8.641  10.267  0.0013 -0.0557 -0.3234
 6699W        W10443   0.722   1.134  10.728 -0.1188  0.0658  0.1645
 6700W        W10444   2.627   3.181   1.550  0.1919 -0.0511  0.1087
 6701W        W10445   1.157   5.479   2.355 -0.0063  0.1107 -0.2533
 6702W        W10446   1.512   4.754   2.406 -0.1052  0.3074 -0.1305
 6703W        W10447   8.141   4.322  11.814 -0.4131  0.1817 -0.2082
 6704W        W10448   2.141   4.073   3.988  0.2246 -0.0509  0.3604
 6705W        W10449   3.111   6.701   8.695 -0.2368 -0.1611  0.0028
 6706W        W10450   9.894   0.501  10.958 -0.4821  0.0501  0.0256
 6707W        W10451   0.253   7.945  10.618  0.1361 -0.1283  0.0404
 6708W        W10452   2.542   2.527   0.773 -0.0493 -0.1923  0.1181
 6709W        W10453   8.461   9.916   2.694 -0.1012  0.0719 -0.0854
 6710W        W10454   3.712   5.839   2.420 -0.0092  0.0823 -0.0967
 6711W        W10455   9.948   1.931   2.031  0.0846  0.1676 -0.0068
 6712W        W10456   0.746   9.561   3.508  0.2839 -0.2038  0.1067
 6713W        W10457   3.093   0.204   3.501  0.1279  0.0461 -0.0521
 6714W        W10458   5.735   5.889  11.763  0.0750 -0.0818  0.2088
 6715W        W10459   8.947   1.241   3.753 -0.1392 -0.1629 -0.1319
 6716W        W10460   8.075   5.446  11.552  0.3353 -0.0555 -0.0981
 6717W        W10461   0.457   3.348  11.666 -0.0514 -0.0093 -0.0257
 6718W        W10462   3.107   5.017  11.163  0.1423  0.2004  0.0651
 6719W        W10463   6.758   0.403  11.091 -0.0770 -0.2868 -0.2495
 6720W        W10464   8.719   5.542  11.782 -0.0692 -0.2552 -0.1192
 6721W        W10465   0.520   8.989   8.795 -0.0172  0.0978  0.2112
 6722W        W10466   1.985   1.629   9.708  0.3014 -0.4018  0.2637
 6723W        W10467   0.097   5.914   1.662 -0.3160 -0.3162 -0.1917
 6724W        W10468   7.191   5.923   8.492  0.0532  0.3126 -0.3075
 6725W        W10469   4.878   8.360   9.891 -0.2592 -0.3611  0.1657
 6726W        W10470   8.574   2.763   4.078  0.3305 -0.0253 -0.0744
 6727W        W10471   3.912   9.537   9.917 -0.1322  0.0157 -0.0325
 6728W        W10472   1.305   6.527   0.744  0.3213  0.2043 -0.1190
 6729W        W10473   7.062   0.140   0.624 -0.0156  0.0205 -0.0046
 6730W        W10474   7.215   6.367  10.655  0.0136 -0.2615  0.2664
 6731W        W10475   4.132   7.963   3.553 -0.2658 -0.1490  0.1915
 6732W        W10476   6.213   6.069   2.596  0.1732  0.2007 -0.1209
 6733W        W10477   2.572   5.479   2.821  0.4017  0.0302 -0.0083
 6734W        W10478   1.751   0.262   5.055 -0.3339 -0.3281 -0.0210
 6735W        W10479   3.380   6.835   3.951  0.2439 -0.0261  0.1277
 6736W        W10480   2.523   1.195  11.644  0.0211  0.3058  0.1252
 6737W        W10481   6.138   0.428   2.473  0.0103 -0.1826  0.2623
 6738W        W10482   3.346   9.251   3.311  0.0708 -0.0691 -0.2196
 6739W        W10483   0.297   1.218  10.404  0.0493  0.2218 -0.0238
 6740W        W10484   0.700   2.257   9.663  0.1866 -0.1655 -0.3139
 6741W        W10485   1.852   8.629   2.257 -0.2541  0.0677 -0.2473
 6742W        W10486   4.939   3.947  11.544  0.1158  0.1893  0.0260
 6743W        W10487   8.480   5.722   4.870 -0.2648 -0.0764  0.0706
 6744W        W10488   9.198   6.787   1.716 -0.0076 -0.1930  0.1610
 6745W        W10489   7.805   3.432  10.781  0.1963  0.1404  0.0934
 6746W        W10490   7.695   1.116  10.901 -0.0211  0.1391 -0.1382
 6747W        W10491   6.739   6.359  12.453 -0.2701  0.1885 -0.2041
 6748W        W10492   6.891   9.394   2.086  0.1807  0.0783 -0.1129
 6749W        W10493   1.629   7.865   8.522  0.0689  0.1417  0.0291
 6750W        W10494   9.889   1.953   8.878 -0.2688 -0.0866 -0.2394
 6751W        W10495   5.200   9.366   3.180  0.2963 -0.1359  0.0994
 6752W        W10496   5.093   5.698   9.744  0.2284 -0.0319 -0.0452
 6753W        W10497   3.428   0.222  11.701  0.1498 -0.0503 -0.2308
 6754W        W10498   0.744   9.271   0.467 -0.2575 -0.1131  0.1908
 6755W        W10499   8.557   7.965   8.899 -0.0864 -0.4107 -0.0013
 6756W        W10500   4.796   2.906   3.398 -0.2299  0.1314 -0.0499
 6757W        W10501   7.910   1.899   4.095  0.3004 -0.0614  0.1367
 6758W        W10502   7.886   6.201   0.458  0.0258 -0.2548  0.2011
 6759W        W10503   4.430   5.896  12.437 -0.0850 -0.0344  0.2730
 6760W        W10504   0.821   9.323   3.054 -0.3941 -0.1118  0.1021
 6761W        W10505   5.303   7.206   8.862 -0.2093 -0.2404  0.0115
 6762W        W10506   5.261   2.854   9.191  0.0451 -0.3150  0.1616
 6763W        W10507   4.281   0.993  10.253 -0.2232  0.2262 -0.1382
 6764W        W10508   1.950   7.232  10.513 -0.0707  0.0372 -0.0581
 6765W        W10509   9.810   1.795  12.519  0.1288  0.1890 -0.1838
 6766W        W10510   9.344   2.499  12.123 -0.0805  0.1305 -0.0102
 6767W        W10511   5.460   0.283  12.231 -0.2217 -0.4505 -0.0885
 6768W        W10512   4.936   5.560   3.494 -0.0181 -0.0709 -0.3329
 6769W        W10513   1.835   2.284   3.330  0.2206 -0.3125 -0.3098
 6770W        W10514   8.961   8.287   1.861 -0.0997  0.2669 -0.0727
 6771W        W10515   3.528   5.886   3.924  0.1462  0.0984 -0.2097
 6772W        W10516   9.863   4.675   0.135  0.5193  0.1233 -0.0702
 6773W        W10517   3.093   8.798   2.401  0.5863  0.2666  0.0053
 6774W        W10518   7.025   3.746   1.570  0.0209 -0.0744 -0.3173
 6775W        W10519   8.626   5.425   0.086  0.1052 -0.0208  0.1785
 6776W        W10520   8.473   7.056   2.515 -0.1281 -0.0334 -0.1095
 6777W        W10521   4.643   7.281  10.611  0.1844  0.4037 -0.0022
 6778W        W10522   2.980   5.284  10.205 -0.1737  0.1465 -0.0863
 6779W        W10523   8.602   6.202   1.466  0.2249 -0.0459  0.1109
 6780W        W10524   1.525   0.248   0.321 -0.2868 -0.0539  0.1740
 6781W        W10525   0.046   0.871  11.448 -0.0630  0.5466 -0.0625
 6782W        W10526   3.305   4.413   1.333 -0.2010  0.1665 -0.2481
 6783W        W10527   0.569   6.416   9.920  0.2545 -0.3947  0.2408
 6784W        W10528   9.209   9.662   3.172 -0.1189 -0.0347  0.0786
 6785W        W10529   0.059   7.592  10.338  0.1826  0.1231  0.1332
 6786W        W10530   7.540   5.732   3.179  0.0584 -0.1935  0.2021
 6787W        W10531   7.914   6.542  10.882 -0.0670 -0.0968  0.2909
 6788W        W10532   8.545   4.737  10.995 -0.3092  0.2589 -0.1861
 6789W        W10533   1.396   4.943   9.580 -0.3341  0.1367  0.1998
 6790W        W10534   9.117   2.465   9.100  0.2477  0.1896  0.1382
 6791W        W10535   0.895   7.756   8.924  0.0033  0.0508 -0.2395
 6792W        W10536   8.277   9.502  12.195 -0.0373 -0.3243  0.1477
 6793W        W10537   7.344   3.320   8.711  0.0195  0.1540 -0.0613
 6794W        W10538   0.734   0.467  11.562 -0.0484  0.1688 -0.0090
 6795W        W10539   9.449   4.322   0.943 -0.4476  0.0736  0.0388
 6796W        W10540   8.965   5.831   9.878 -0.1244 -0.1107 -0.0592
 6797W        W10541   0.879   8.377  10.673 -0.0590 -0.1055 -0.0710
 6798W        W10542   4.056   5.646   0.494 -0.0035 -0.2009 -0.0259
 6799W        W10543   2.388   3.306  12.269 -0.1074 -0.0940 -0.2672
 6800W        W10544   6.692   0.330   2.016  0.1054 -0.0924  0.1830
 6801W        W10545   5.031   0.912   1.640  0.2439  0.2807 -0.1548
 6802W        W10546   5.316   0.498   2.471  0.1262 -0.0102 -0.1756
 6803W        W10547   7.036   0.638  11.582 -0.0792  0.1952 -0.2333
 6804W        W10548   2.911   6.922   2.110  0.2237  0.1435  0.3349
 6805W        W10549   2.045   5.975   4.444 -0.0318 -0.4141 -0.1299
 6806W        W10550   8.930   3.119   1.327 -0.0428 -0.1837 -0.1836
 6807W        W10551   8.429   1.514  11.049 -0.0863 -0.0571  0.3096
 6808W        W10552   3.813   2.100  10.147 -0.2279 -0.0030 -0.0270
 6809W        W10553   5.900   0.369   9.666 -0.0212 -0.1853  0.1419
 6810W        W10554   2.046   9.850  11.734  0.1401  0.0884  0.1571
 6811W        W10555   6.396   4.277   3.211 -0.2203 -0.1489  0.1670
 6812W        W10556   2.628   5.562   7.900  0.1375 -0.2381 -0.1498
 6813W        W10557   2.106   8.541   3.055 -0.3628  0.0515  0.1387
 6814W        W10558   4.006   4.311   9.509  0.1863  0.2499 -0.0382
 6815W        W10559   3.057   0.122  12.475 -0.2682 -0.0160  0.0293
 6816W        W10560   3.399   6.840   2.146 -0.1223  0.2271 -0.3076
 6817W        W10561   1.938   5.582  11.294  0.1800 -0.0877  0.1060
 6818W        W10562   0.802   9.907   2.154  0.0496  0.0426 -0.1256
 6819W        W10563   6.424   0.078  12.151 -0.1358 -0.0395 -0.0030
 6820W        W10564   0.086   3.248   1.512  0.1535 -0.3189  0.0302
 6821W        W10565   7.337   3.413  10.606 -0.2386 -0.2513 -0.0105
 6822W        W10566   5.027   4.178   1.038 -0.3707 -0.2251 -0.0505
 6823W        W10567   2.925   1.038   2.773 -0.0054 -0.1420 -0.2868
 6824W        W10568   8.732   9.652  11.310  0.0819  0.0772 -0.0719
 6825W        W10569   3.207   2.471   3.171 -0.3274 -0.0978  0.0436
 6826W        W10570   2.143   5.205   1.653  0.0752  0.1419  0.0367
 6827W        W10571   7.209   3.990   3.009 -0.1073  0.1173  0.0144
 6828W        W10572   7.187   3.078   0.991 -0.0146  0.0204  0.1431
 6829W        W10573   5.347   5.270  11.291  0.5484 -0.2106  0.0535
 6830W        W10574   2.427   0.909   1.814  0.1387  0.2434  0.0196
 6831W        W10575   1.200   9.749  11.771  0.3044  0.0242  0.0397
 6832W        W10576   3.714   7.530   0.464  0.2248  0.0081  0.1544
 6833W        W10577   0.204   4.719   8.317 -0.1390 -0.0187  0.1817
 6834W        W10578   0.648   9.652   0.984  0.1169  0.0056 -0.2114
 6835W        W10579   3.376   8.418  10.989  0.0778  0.0757 -0.2318
 6836W        W10580   6.208   2.696   9.438  0.0648  0.0346 -0.0174
 6837W        W10581   5.137   1.299  12.525  0.1348  0.1676  0.0826
 6838W        W10582   0.876   4.256   0.870 -0.0078 -0.2928 -0.0369
 6839W        W10583   0.717   7.339   0.347 -0.0707  0.1765 -0.0013
 6840W        W10584   2.924   1.504   9.549 -0.0739 -0.0512  0.2082
 6841W        W10585   9.188   8.109   1.057  0.0059  0.0435  0.1752
 6842W        W10586   1.652   9.607  11.920  0.5117  0.0191  0.4326
 6843W        W10587   4.536   6.840   0.986  0.1994 -0.1965 -0.0560
 6844W        W10588   4.107   7.984  11.289 -0.0955  0.1343  0.1843
 6845W        W10589   4.173   2.283   1.192 -0.0677  0.2180  0.0148
 6846W        W10590   1.679   5.222   2.442 -0.0877 -0.2764  0.1161
 6847W        W10591   2.394   6.702  12.699 -0.4535  0.1669 -0.1625
 6848W        W10592   7.654   9.409  11.006 -0.0779 -0.1101 -0.0322
 6849W        W10593   2.087   5.438  12.316 -0.0522  0.0960  0.1685
 6850W        W10594   3.226   2.056   3.548 -0.0662  0.0149 -0.0201
 6851W        W10595   2.235   5.888   0.058  0.0031 -0.2096  0.1861
 6852W        W10596   4.808   7.524   0.014  0.0727  0.2512 -0.2536
 6853W        W10597   4.764   1.363   1.928  0.0437 -0.1680 -0.3313
 6854W        W10598   6.590   8.807   3.705  0.1388 -0.1942  0.0018
 6855W        W10599   9.810   3.863  10.065  0.0441  0.6355  0.1508
 6856W        W10600   7.718   9.235   9.972  0.3113 -0.2091 -0.1806
 6857W        W10601   4.052   5.187   0.691 -0.0166  0.1060 -0.1186
 6858W        W10602   0.233   9.467   0.244 -0.2489 -0.0456  0.2827
 6859W        W10603   0.389   3.634  10.734  0.3945  0.0925  0.1677
 6860W        W10604   6.621   4.570  12.709  0.1889 -0.0035  0.0440
 6861W        W10605   7.252   2.604  11.157  0.1373  0.3408 -0.1424
 6862W        W10606   0.988   0.878  11.536 -0.0360  0.2528 -0.0226
 6863W        W10607   0.212   6.198   0.109 -0.2383 -0.1966 -0.0416
 6864W        W10608   6.135   9.119   3.319  0.0302  0.2284 -0.0382
 6865W        W10609   2.766   8.548  11.596  0.1238 -0.1739  0.1265
 6866W        W10610   8.070   6.924  11.966 -0.1271  0.1036 -0.0187
 6867W        W10611   6.148   0.476   0.214 -0.0956 -0.0107  0.1544
 6868W        W10612   4.523   5.608   1.317 -0.0469 -0.0278  0.3952
 6869W        W10613   9.907   1.899   1.505 -0.0268  0.4257 -0.0066
 6870W        W10614   4.807   7.658   2.940  0.0819 -0.0644  0.0732
 6871W        W10615   0.423   7.518   9.143 -0.1102  0.0896  0.0866
 6872W        W10616   5.630   5.942  10.009  0.1444 -0.3725  0.1518
 6873W        W10617   6.055   2.624   1.797 -0.0602 -0.0429  0.2393
 6874W        W10618   1.702   5.601  10.445  0.3181 -0.0943 -0.2339
 6875W        W10619   0.138   7.287   9.717  0.0100 -0.0202 -0.2523
 6876W        W10620   5.341   3.740   9.330 -0.3386  0.0861  0.0331
 6877W        W10621   5.359   6.018   4.723  0.0369 -0.1549  0.2526
 6878W        W10622   0.435   4.949   1.720 -0.3714 -0.1261  0.2298
 6879W        W10623   9.338   1.926   0.240 -0.1640  0.4904 -0.0229
 6880W        W10624   2.661   3.056   3.861 -0.4349  0.2693 -0.0882
 6881W        W10625   7.856   9.562  11.868 -0.0490 -0.1788  0.0965
 6882W        W10626   8.532   4.402   4.261  0.3089  0.2303  0.0846
 6883W        W10627   3.948   8.954   0.559  0.0959 -0.1535  0.0713
 6884W        W10628   1.333   2.702   9.089  0.1707 -0.1588 -0.1957
 6885W        W10629   5.278   8.845   1.498  0.0016 -0.0230  0.3229
 6886W        W10630   5.498   1.259  12.193  0.2749  0.0841  0.1328
 6887W        W10631   5.997   1.531   0.156  0.0331  0.2951  0.3247
 6888W        W10632   7.051   4.821   3.675 -0.1442  0.0722  0.2465
 6889W        W10633   8.738   8.789  11.238 -0.2606  0.2799  0.1613
 6890W        W10634   2.278   9.799   0.769  0.1344 -0.1716  0.2033
 6891W        W10635   8.996   8.053   2.993  0.0602 -0.0510 -0.0110
 6892W        W10636   7.806   5.939  11.418  0.0933  0.1757 -0.0681
 6893W        W10637   1.074   5.889  11.803  0.0082 -0.1860  0.1152
 6894W        W10638   3.184   5.450   2.875  0.1762 -0.2804  0.0140
 6895W        W10639   1.562   0.122  11.933  0.3240  0.1469 -0.4997
 6896W        W10640   7.268   2.826   8.890  0.0394  0.1267  0.0718
 6897W        W10641   8.033   0.722   2.277 -0.2092  0.3057  0.0705
 6898W        W10642   2.735   0.569   2.559 -0.1385 -0.1438 -0.0603
 6899W        W10643   7.785   2.712   1.441  0.0805 -0.0989 -0.0217
 6900W        W10644   2.391   8.497  11.166 -0.2530  0.1076 -0.0120
 6901W        W10645   3.649   3.495   3.329  0.1932 -0.0260  0.1403
 6902W        W10646   6.628   0.129   0.269  0.0434  0.1384 -0.2007
 6903W        W10647   1.213   8.884   9.997 -0.1999  0.2138  0.3380
 6904W        W10648   8.581   9.010   1.892 -0.0992 -0.2145  0.0990
 6905W        W10649   7.122   8.412   0.736 -0.0441  0.2247 -0.2659
 6906W        W10650   9.822   1.436  10.810 -0.1543 -0.0231  0.2272
 6907W        W10651   3.917   2.969  10.362  0.0338  0.1912 -0.2528
 6908W        W10652   1.302   7.592   0.438 -0.0053 -0.0657 -0.1081
 6909W        W10653   1.465   7.556  12.265  0.0573  0.1291  0.1544
 6910W        W10654   7.919   3.175   9.168  0.1716  0.0182  0.0845
 6911W        W10655   5.929   2.927  12.104  0.1763  0.1389 -0.4940
 6912W        W10656   1.818   6.398  10.959 -0.2585  0.2050  0.0008
 6913W        W10657   0.615   6.399  10.413  0.1547 -0.0769  0.2692
 6914W        W10658   7.583   0.382   1.602 -0.1526 -0.1542 -0.1406
 6915W        W10659   4.519   3.061  11.302  0.0206  0.0094 -0.1754
 6916W        W10660   2.684   6.785   7.470 -0.0254  0.1291  0.1462
 6917W        W10661   5.551   0.897  11.317 -0.0262  0.0290 -0.3863
 6918W        W10662   7.190   2.585   9.342  0.1635 -0.1204  0.0053
 6919W        W10663   4.785   9.837   3.785 -0.0287  0.3596 -0.2041
 6920W        W10664   0.929   1.923   3.284  0.0158 -0.1240 -0.1675
 6921W        W10665   1.079   4.819  10.355  0.0516 -0.0699 -0.1978
 6922W        W10666   3.576   6.062  10.421 -0.0233  0.1525  0.1695
 6923W        W10667   1.516   9.569   1.579  0.4069 -0.2931  0.1482
 6924W        W10668   5.272   3.477   0.320  0.0265 -0.2237  0.0909
 6925W        W10669   9.445   7.702   0.724 -0.0381 -0.0172 -0.1725
 6926W        W10670   1.636   6.371   9.803 -0.1984  0.1007 -0.0811
 6927W        W10671   1.080   6.209   0.412  0.0713 -0.2436 -0.3752
 6928W        W10672   8.115   7.336   2.201 -0.3056 -0.0069  0.0652
 6929W        W10673   2.962   6.495  10.270 -0.4587 -0.1199  0.2329
 6930W        W10674   1.927   6.736   2.403  0.2275 -0.1448  0.0554
 6931W        W10675   5.872   6.787   9.216  0.0574  0.0219 -0.2099
 6932W        W10676   6.924   4.615   4.330  0.3676  0.0045 -0.0257
 6933W        W10677   7.014   6.587   4.633 -0.1564 -0.2782 -0.1181
 6934W        W10678   8.834   2.530  12.351 -0.0454  0.2757  0.1691
 6935W        W10679   0.144   1.564   2.664 -0.0765 -0.1118 -0.1459
 6936W        W10680   3.362   4.197   4.138  0.1623 -0.0387 -0.2363
 6937W        W10681   2.252   3.556   3.915  0.0104 -0.0262 -0.0722
 6938W        W10682   0.205   2.617   0.961 -0.0328  0.1234  0.0664
 6939W        W10683   5.556   3.385   4.093  0.5031  0.3457 -0.0080
 6940W        W10684   2.108   4.924   8.957 -0.1275  0.0383 -0.0555
 6941W        W10685   7.176   1.711  10.269  0.1582 -0.0924  0.0994
 6942W        W10686   4.858   7.387  11.416  0.1888 -0.3013  0.0250
 6943W        W10687   7.898   4.441   9.322 -0.0686  0.0398  0.2405
 6944W        W10688   4.844   5.425  11.968 -0.1554 -0.2256  0.1188
 6945W        W10689   3.907   8.049   0.611  0.0979  0.0877  0.0710
 6946W        W10690   3.542   5.943   9.870 -0.1161 -0.2172 -0.0214
 6947W        W10691   4.574   9.048   9.378  0.2373  0.0972 -0.0176
 6948W        W10692   3.137   4.225   0.204  0.0569 -0.1898 -0.3341
 6949W        W10693   3.785   0.298  10.751 -0.0639 -0.2194  0.2449
 6950W        W10694   0.292   0.396   1.577 -0.1094  0.0716 -0.0094
 6951W        W10695   0.693   4.928   3.587  0.0983 -0.1692  0.0892
 6952W        W10696   5.901   2.935   0.339  0.1747  0.3450  0.0046
 6953W        W10697   0.686   8.111   9.817 -0.0151  0.1224 -0.2713
 6954W        W10698   3.076   9.232   2.155  0.2845 -0.3603  0.0520
 6955W        W10699   9.604   4.104  12.291  0.2280 -0.0722 -0.0810
 6956W        W10700   4.236   6.083   2.137  0.2201 -0.0852 -0.1046
 6957W        W10701   6.166   9.937   0.373  0.2358 -0.1281 -0.1155
 6958W        W10702   8.155   0.545  12.238  0.3115 -0.2113 -0.1561
 6959W        W10703   2.534   8.214   4.743  0.0324  0.3298 -0.0169
 6960W        W10704   4.382   5.735   1.849  0.0209  0.1761 -0.1082
 6961W        W10705   4.303   2.283   0.411 -0.2690  0.1482  0.0967
 6962W        W10706   5.243   4.893   8.370  0.0638 -0.0697  0.2634
 6963W        W10707   3.437   9.749   1.417  0.2006  0.0302  0.3696
 6964W        W10708   7.416   5.152  10.387  0.0697  0.0212 -0.1139
 6965W        W10709   1.755   3.715   3.998  0.0787  0.0085  0.0048
 6966W        W10710   6.826   4.209   0.272 -0.2508  0.0932  0.0970
 6967W        W10711   3.595   4.496   0.408 -0.0480  0.2121  0.2504
 6968W        W10712   0.018   3.860   0.168 -0.4851  0.0909  0.0839
 6969W        W10713   2.991   3.322   4.452  0.2791  0.2333 -0.2558
 6970W        W10714   6.138   7.281   3.132  0.3131  0.1080  0.3393
 6971W        W10715   7.972   2.373  10.953  0.1599 -0.1971 -0.1035
 6972W        W10716   7.662   9.327  12.261  0.0673 -0.0849 -0.2460
 6973W        W10717   8.423   0.366  10.367 -0.2205  0.1824 -0.0057
 6974W        W10718   8.303   0.974   1.848  0.0793  0.0339  0.2206
 6975W        W10719   5.275   6.499   1.352 -0.3205  0.4767 -0.0393
 6976W        W10720   4.296   9.328   9.697 -0.2011  0.2054 -0.2656
 6977W        W10721   2.729   2.559   9.677  0.0602  0.5080 -0.3732
 6978W        W10722   2.233   1.470  11.981 -0.1190 -0.1563 -0.0927
 6979W        W10723   9.572   8.634  10.727  0.0747  0.1496 -0.2731
 6980W        W10724   5.724   2.821   9.415  0.0212  0.1710  0.2277
 6981W        W10725   5.611   6.708   9.681  0.0915 -0.0832  0.1615
 6982W        W10726   5.238   6.722   4.152  0.1746 -0.0566  0.0114
 6983W        W10727   9.320   0.301   2.395 -0.2398 -0.1062  0.0764
 6984W        W10728   6.845   7.407   0.647  0.0572 -0.1044  0.1154
 6985W        W10729   5.349   5.741   0.709 -0.0775  0.0343 -0.1468
 6986W        W10730   5.966   7.666   9.252 -0.0144  0.2017 -0.1887
 6987W        W10731   5.150   9.920  11.923 -0.2872 -0.0756  0.3237
 6988W        W10732   3.950   2.579   8.800 -0.0053 -0.0139  0.2559
 6989W        W10733   1.844   5.038  12.527  0.0025 -0.0822  0.2712
 6990W        W10734   6.608   5.713   2.568  0.2867 -0.3881 -0.2721
 6991W        W10735   4.433   2.865  10.516  0.1229  0.1296  0.2400
 6992W        W10736   4.559   9.721   9.670 -0.0805  0.0398 -0.0233
 6993W        W10737   6.562   4.308   2.435 -0.1053 -0.0036 -0.0359
 6994W        W10738   1.128   0.463  11.897  0.1986 -0.1810 -0.3065
 6995W        W10739   6.963   5.786   9.921  0.0879 -0.1919 -0.0414
 6996W        W10740   8.089   7.310  11.171  0.0635 -0.3170 -0.0859
 6997W        W10741   0.963   3.872  10.360 -0.0266 -0.4747  0.1371
 6998W        W10742   2.485   7.988   0.403  0.0126 -0.0545 -0.0834
 6999W        W10743   7.196   7.087   9.303  0.0390 -0.0993 -0.1682
 7000W        W10744   3.294   0.474   8.644 -0.1958  0.5227  0.4148
 7001W        W10745   6.768   0.869  10.644  0.0947  0.2987  0.1628
 7002W        W10746   9.587   3.625   0.287  0.3693 -0.1468  0.2141
 7003W        W10747   3.560   8.205   2.844  0.2449  0.0115  0.0369
 7004W        W10748   0.424   2.187   4.354  0.6227  0.0718 -0.4645
 7005W        W10749   8.240   3.818   3.958 -0.0479  0.0817  0.1806
 7006W        W10750   4.963   2.306   9.955  0.0131 -0.0403  0.1062
 7007W        W10751   7.413   2.425   8.578 -0.1267 -0.0539  0.3314
 7008W        W10752   1.941   8.897  10.311 -0.0729  0.0865  0.1900
 7009W        W10753   6.369   0.100   9.928  0.4127  0.3883  0.0115
 7010W        W10754   3.034   8.314  10.615  0.1228  0.1427 -0.1135
 7011W        W10755   4.003   7.953  10.701 -0.0732 -0.3045 -0.1074
 7012W        W10756   9.120   3.013   8.965 -0.0029  0.2231  0.3603
 7013W        W10757   1.863   7.989   3.266  0.1263 -0.1832  0.0415
 7014W        W10758   3.808   6.087   0.861  0.1296  0.2170  0.0059
 7015W        W10759   0.731   7.055   2.085  0.2043 -0.2717 -0.2293
 7016W        W10760   8.135   0.579   3.174 -0.1953  0.0889 -0.3485
 7017W        W10761   7.885   2.509   9.903 -0.0969 -0.0870  0.2672
 7018W        W10762   5.329   9.928  11.449 -0.0268  0.2195 -0.1403
 7019W        W10763   5.559   1.884   3.240 -0.1072 -0.0464 -0.1801
 7020W        W10764   5.160   1.145   3.246  0.1149 -0.0970  0.2853
 7021W        W10765   7.810   5.913   2.097 -0.1931 -0.1205  0.0175
 7022W        W10766   6.004   8.934   9.435 -0.3207 -0.2428  0.0499
 7023W        W10767   0.342   0.807  12.247  0.0710  0.3454  0.2427
 7024W        W10768   1.455   5.550   9.207 -0.1393 -0.3590  0.2733
 7025W        W10769   6.908   4.349   3.302  0.3102  0.3016  0.0985
 7026W        W10770   3.686   5.574  10.643 -0.1551  0.1977  0.1692
 7027W        W10771   5.453   2.612   1.711  0.1400 -0.2306 -0.1947
 7028W        W10772   2.050   4.912  10.288 -0.0338 -0.0261 -0.3372
 7029W        W10773   4.792   5.218  11.446  0.1188 -0.0389  0.1151
 7030W        W10774   8.937   5.703  12.463 -0.3816  0.1995  0.1869
 7031W        W10775   5.775   7.271   9.014  0.0930 -0.3628  0.3070
 7032W        W10776   9.516   4.894  11.881  0.0296 -0.3087  0.0369
 7033W        W10777   5.933   3.419   2.169 -0.0359  0.0216 -0.0710
 7034W        W10778   4.605   9.355   0.964 -0.3110 -0.1688 -0.3548
 7035W        W10779   3.605   5.250   3.072 -0.0181 -0.0962  0.0404
 7036W        W10780   9.921   4.185   8.208  0.2358 -0.2433 -0.2034
 7037W        W10781   1.408   3.859   4.388 -0.1576  0.0909 -0.4451
 7038W        W10782   9.937   0.419   8.683 -0.1108  0.1884  0.3423
 7039W        W10783   8.070   6.839   2.361 -0.0429 -0.1609  0.0008
 7040W        W10784   9.228   1.340   1.470 -0.1627 -0.0381 -0.3301
 7041W        W10785   0.030   1.428   0.543  0.1185  0.0664 -0.0152
 7042W        W10786   6.171   6.892   0.857  0.1866 -0.1378 -0.1010
 7043W        W10787   0.118   8.579  10.767 -0.0699  0.0832 -0.1923
 7044W        W10788   6.568   7.996  12.374  0.2536 -0.1593 -0.4181
 7045W        W10789   6.989   7.654  10.185  0.2647 -0.1279 -0.0552
 7046W        W10790   8.421   2.939   3.655 -0.0604  0.3727  0.1150
 7047W        W10791   3.589   2.345   0.871 -0.1745 -0.2973 -0.1429
 7048W        W10792   6.630   1.247   9.449  0.0407  0.3982 -0.0806
 7049W        W10793   8.605   2.245   2.877  0.0453  0.1338  0.4420
 7050W        W10794   4.907   6.163   9.669  0.1422  0.0336 -0.0859
 7051W        W10795   9.475   9.737   9.712 -0.0895  0.0424  0.1697
 7052W        W10796   2.111   3.793   1.486 -0.0617  0.2873 -0.1446
 7053W        W10797   5.203   9.039  10.309 -0.1150  0.0873 -0.1124
 7054W        W10798   9.374   5.868   9.366  0.0875 -0.1272 -0.0119
 7055W        W10799   0.494   9.643  10.556 -0.1237 -0.1158  0.0438
 7056W        W10800   7.331   6.195   3.545 -0.2158 -0.1238  0.1130
 7057W        W10801   8.585   2.310   1.951  0.0178 -0.1718 -0.0562
 7058W        W10802   4.972   7.735  10.426  0.0659  0.0520  0.2612
 7059W        W10803   2.431   7.293   3.835  0.0323 -0.0849 -0.0405
 7060W        W10804   9.642   1.370   2.788 -0.2050 -0.5035 -0.0551
 7061W        W10805   0.095   2.169   3.638  0.1400 -0.1218  0.0423
 7062W        W10806   3.613   2.933   1.685  0.0325  0.2859  0.0932
 7063W        W10807   2.746   5.541   1.443 -0.0581  0.1128 -0.1505
 7064W        W10808   7.003   4.144  12.530 -0.1235 -0.1251 -0.1535
 7065W        W10809   7.200   5.976   1.042 -0.0299 -0.2085  0.0783
 7066W        W10810   2.390   4.200   1.469 -0.1952 -0.0003  0.3355
 7067W        W10811   3.428   4.134   9.181  0.1024  0.1286 -0.1468
 7068W        W10812   3.820   4.707   7.776 -0.1359  0.1285 -0.2690
 7069W        W10813   9.554   0.061   2.834 -0.2663 -0.1344  0.0143
 7070W        W10814   3.493   4.890   2.747  0.2463 -0.1884 -0.0137
 7071W        W10815   1.154   2.282   9.780 -0.2353  0.2115  0.0893
 7072W        W10816   7.943   5.706   1.614 -0.0833 -0.1354  0.0249
 7073W        W10817   2.818   9.576   8.677 -0.0786 -0.1010 -0.0728
 7074W        W10818   1.797   5.532  12.680  0.2660 -0.3047 -0.1798
 7075W        W10819   7.975   1.988   1.996  0.1389 -0.1060  0.1290
 7076W        W10820   2.399   8.172  12.651 -0.5984  0.1071  0.0278
 7077W        W10821   8.946   1.126   9.424 -0.1523  0.0551 -0.0510
 7078W        W10822   7.446   7.848   9.802  0.0808  0.0837 -0.0469
 7079W        W10823   1.732   8.841  12.631  0.1359 -0.1314 -0.0470
 7080W        W10824   2.738   1.844   2.614  0.0355  0.0508  0.1375
 7081W        W10825   7.142   3.627   2.069 -0.1971 -0.0435  0.0086
 7082W        W10826   6.334   8.277   0.512 -0.0126  0.0069 -0.2361
 7083W        W10827   6.380   9.190  11.973 -0.1395 -0.3353 -0.1853
 7084W        W10828   7.707   7.645   0.285 -0.0259 -0.1002  0.0303
 7085W        W10829   0.616   3.353  10.433 -0.0559  0.3386  0.3046
 7086W        W10830   0.949   6.017  10.566  0.0648 -0.2463  0.1414
 7087W        W10831   4.282   8.862  11.817 -0.1877 -0.2978  0.2485
 7088W        W10832   7.684   5.254   9.134  0.0929  0.3424 -0.0789
 7089W        W10833   4.156   2.269   3.636  0.2633 -0.2098 -0.0199
 7090W        W10834   8.714   4.359   2.145 -0.0205 -0.0216  0.0154
 7091W        W10835   9.601   5.078   1.411  0.1028 -0.0762 -0.2151
 7092W        W10836   5.516   4.141   3.584  0.0109 -0.1335  0.0696
 7093W        W10837   4.059   5.275   2.024  0.2595  0.1983  0.2579
 7094W        W10838   1.212   6.959  10.119 -0.0518  0.0798  0.0453
 7095W        W10839   5.857   3.994   9.694 -0.3131 -0.0196 -0.2797
 7096W        W10840   1.502   4.737  10.986 -0.2060  0.1101  0.0392
 7097W        W10841   5.167   4.904  11.612  0.1283 -0.2590 -0.0751
 7098W        W10842   1.599   6.590  10.244 -0.1178  0.0114 -0.3377
 7099W        W10843   5.875   1.041   2.080 -0.0251 -0.1283  0.1212
 7100W        W10844   2.598   8.834   0.074 -0.0571 -0.0546  0.0749
 7101W        W10845   2.212   2.522   2.160  0.0789 -0.0086 -0.0560
 7102W        W10846   4.435   2.475  10.835  0.0627 -0.0071  0.0577
 7103W        W10847   1.796   0.511   2.547  0.1158  0.1401 -0.1281
 7104W        W10848   6.685   8.481  11.354 -0.2709  0.3948  0.3008
 7105W        W10849   6.148   1.895   0.464  0.1583 -0.0091  0.1296
 7106W        W10850   9.227   6.162   2.743  0.0119 -0.0352  0.2231
 7107W        W10851   8.589   4.408   9.418 -0.0625 -0.0244 -0.3488
 7108W        W10852   8.845   7.476   0.201 -0.0291  0.0160 -0.1261
 7109W        W10853   0.469   6.027   8.399 -0.1619 -0.1712 -0.1662
 7110W        W10854   1.823   3.187   3.824 -0.1818 -0.0699  0.0675
 7111W        W10855   9.647   7.227   9.606 -0.2040 -0.0649  0.2239
 7112W        W10856   6.730   6.843   2.426  0.2224 -0.1284  0.1531
 7113W        W10857   4.109   5.989  11.793  0.0239 -0.2386  0.1260
 7114W        W10858   6.819   3.738  11.623 -0.0989 -0.0195  0.1122
 7115W        W10859   3.697   3.777   4.181 -0.2813 -0.0928 -0.1919
 7116W        W10860   6.279   1.566  12.434  0.1325 -0.1622 -0.1243
 7117W        W10861   8.836   1.325   2.319  0.0723  0.0294  0.2140
 7118W        W10862   4.532   1.963   9.068  0.0695  0.0674 -0.0976
 7119W        W10863   3.894   7.856   9.534  0.1674  0.0370  0.1035
 7120W        W10864   6.083   6.865  12.490 -0.1546  0.2371 -0.0813
 7121W        W10865   0.496   9.795   0.529  0.5364 -0.1773  0.0530
 7122W        W10866   1.806   7.446   1.208  0.2263 -0.0609 -0.0754
 7123W        W10867   9.707   5.588  12.105  0.0775 -0.1712 -0.2130
 7124W        W10868   5.206   3.997   1.853  0.2657  0.1608 -0.1912
 7125W        W10869   9.496   1.459   3.388  0.1953 -0.4399  0.2922
 7126W        W10870   2.545   4.985   8.788  0.0326 -0.1213 -0.0473
 7127W        W10871   8.691   1.293  12.644  0.0096  0.1556 -0.0691
 7128W        W10872   0.864   3.049  11.804 -0.1678 -0.1705 -0.4544
 7129W        W10873   0.926   3.616  10.822  0.0993  0.2865  0.3721
 7130W        W10874   9.339   4.102   3.073 -0.0246  0.0025 -0.1405
 7131W        W10875   4.058   6.370   3.468  0.1059 -0.2210 -0.1729
 7132W        W10876   5.072   6.753   0.955 -0.2380 -0.1716  0.1404
 7133W        W10877   5.559   8.392   3.054  0.0315  0.1160  0.0480
 7134W        W10878   6.408   2.132  12.488 -0.2297  0.0374 -0.3266
 7135W        W10879   1.049   3.144   1.205 -0.4158  0.1488  0.1993
 7136W        W10880   3.474   7.880   3.396 -0.0665 -0.0402  0.1610
 7137W        W10881   2.742   1.700  11.762 -0.1528 -0.3639  0.3160
 7138W        W10882   4.096   1.683  10.932 -0.2462  0.2819 -0.1198
 7139W        W10883   7.739   4.851   1.667  0.0541  0.0468 -0.4376
 7140W        W10884   9.128   2.037  12.069  0.1840  0.0593 -0.3792
 7141W        W10885   9.673   4.054   1.297  0.1656 -0.1790  0.0782
 7142W        W10886   5.514   9.593   9.962  0.3258  0.1579  0.0195
 7143W        W10887   0.837   4.659  12.124  0.0007  0.2291 -0.0087
 7144W        W10888   9.396   1.564  10.036 -0.1195 -0.0713  0.0575
 7145W        W10889   1.449   4.389  10.629  0.0258 -0.2905  0.3892
 7146W        W10890   9.754   2.647   1.317  0.1426  0.0763  0.0216
 7147W        W10891   9.861   8.737  12.054 -0.0450  0.0524 -0.4379
 7148W        W10892   6.778   6.686   9.657  0.0989  0.0001  0.0798
 7149W        W10893   9.880   3.122   1.043 -0.1185  0.0088 -0.0226
 7150W        W10894   3.583   6.674   3.566  0.2888 -0.0903 -0.0216
 7151W        W10895   0.421   2.750  10.453  0.0826  0.0919  0.2242
 7152W        W10896   4.638   0.758   3.908  0.1842  0.1289  0.0341
 7153W        W10897   1.272   5.372   1.608  0.3700  0.0994  0.0233
 7154W        W10898   9.964   3.502   2.208 -0.0221 -0.4063 -0.0346
 7155W        W10899   8.313   0.886   0.305 -0.1252 -0.2104 -0.1481
 7156W        W10900   0.206   4.722   3.652  0.0181 -0.1812 -0.0679
 7157W        W10901   5.625   7.325   0.389  0.2095  0.1647  0.3056
 7158W        W10902   2.090   6.187   0.816  0.0391  0.1833 -0.0350
 7159W        W10903   3.939   5.532  11.646 -0.3471 -0.0245  0.0405
 7160W        W10904   1.716   7.711  10.727 -0.2164  0.1389  0.0093
 7161W        W10905   0.799   5.050  11.770  0.0468  0.2233 -0.0617
 7162W        W10906   9.163   3.584  10.889 -0.2323  0.0106 -0.0170
 7163W        W10907   9.009   1.647  10.313  0.0352  0.0087  0.1536
 7164W        W10908   5.810   5.860  10.538 -0.0844 -0.1305  0.0598
 7165W        W10909   3.141   9.493   9.635  0.1423  0.1377  0.0103
 7166W        W10910   1.242   9.339  12.237  0.0464 -0.0885  0.0769
 7167W        W10911   0.989   6.365   1.618  0.1839  0.2813  0.1860
 7168W        W10912   1.470   3.446  12.393 -0.3059 -0.3242  0.1579
 7169W        W10913   2.494   7.827   1.235  0.0824  0.0411  0.1829
 7170W        W10914   1.796   9.462  11.443 -0.2632 -0.0360 -0.0555
 7171W        W10915   3.450   1.998  12.743  0.1128 -0.1862  0.2570
 7172W        W10916   1.466   0.176  12.507 -0.0502 -0.2736  0.0861
 7173W        W10917   8.280   1.836   2.908  0.1308 -0.1281 -0.2817
 7174W        W10918   3.943   1.083   1.593  0.0841  0.0688  0.1933
 7175W        W10919   1.707   4.511  12.401  0.0541 -0.1977 -0.0084
 7176W        W10920   7.532   8.413   3.226 -0.0390  0.3788 -0.1121
 7177W        W10921   6.082   0.716  11.834 -0.1403  0.2997 -0.0622
 7178W        W10922   2.937   6.167   9.748  0.0102 -0.1468 -0.0077
 7179W        W10923   4.388   4.384   4.207 -0.0845  0.1722 -0.1238
 7180W        W10924   9.076   5.125   3.956  0.2920 -0.1667  0.1957
 7181W        W10925   6.059   4.211   3.744  0.0568  0.1358 -0.3593
 7182W        W10926   9.718   8.869   2.272  0.0329 -0.1050 -0.0967
 7183W        W10927   9.331   2.524   1.039  0.1728 -0.1828  0.1072
 7184W        W10928   5.181   2.629   0.181 -0.1316  0.0481 -0.1971
 7185W        W10929   3.547   9.137   3.925 -0.0141 -0.2330  0.2785
 7186W        W10930   8.659   3.745  11.664  0.0592 -0.0892  0.0711
 7187W        W10931   1.328   1.688   7.949 -0.1818  0.0869 -0.3255
 7188W        W10932   3.392   1.954   2.596  0.0357  0.1112  0.1034
 7189W        W10933   9.696   6.613  11.765 -0.1551  0.2054 -0.1985
 7190W        W10934   8.820   1.945  10.730  0.3370 -0.1031  0.0494
 7191W        W10935   0.483   1.785   0.419 -0.2202  0.0870 -0.1701
 7192W        W10936   5.541   5.754   8.934  0.1639  0.1557 -0.3716
 7193W        W10937   1.637   1.845   0.069 -0.1734  0.0369 -0.4524
 7194W        W10938   3.226   4.120  10.635 -0.1310 -0.2759 -0.1703
 7195W        W10939   0.888   0.882  10.333 -0.0956 -0.1366 -0.0166
 7196W        W10940   0.835   7.279   8.934  0.1815 -0.3545 -0.0102
 7197W        W10941   2.877   1.295   3.599  0.1563 -0.0237 -0.3084
 7198W        W10942   6.631   7.026   1.093 -0.0921  0.3359  0.1192
 7199W        W10943   8.365   1.813  11.531 -0.4592 -0.3379  0.3505
 7200W        W10944   2.909   9.138   2.997  0.0107  0.0718 -0.0112
 7201W        W10945   7.347   2.665   2.984 -0.0325 -0.2151  0.1093
 7202W        W10946   1.753   5.481   1.889 -0.1497  0.0628 -0.1823
 7203W        W10947   1.714   1.520   4.458  0.0903 -0.1313  0.1117
 7204W        W10948   5.697   0.749  12.195 -0.3780  0.2612  0.1274
 7205W        W10949   6.236   2.506  12.742 -0.0413 -0.4850  0.0757
 7206W        W10950   8.076   7.055   3.623  0.0361  0.0846  0.0489
 7207W        W10951   9.853   6.446  12.224 -0.0239 -0.2377 -0.0028
 7208W        W10952   3.328   9.727   3.412  0.0115 -0.1515 -0.0300
 7209W        W10953   2.250   5.727   1.427  0.1098  0.0523 -0.2919
 7210W        W10954   7.670   5.897   4.404 -0.0414  0.0332  0.2007
 7211W        W10955   6.266   1.072   2.451 -0.1254  0.0919  0.0768
 7212W        W10956   8.272   2.484  10.194 -0.2374 -0.2445  0.0016
 7213W        W10957   7.895   1.860  11.321  0.2190 -0.1693 -0.0697
 7214W        W10958   9.848   6.722   9.464 -0.1218  0.1327 -0.0834
 7215W        W10959   4.103   9.316   0.886 -0.0073 -0.0998 -0.1439
 7216W        W10960   3.390   5.096   9.962  0.1518 -0.2433  0.1323
 7217W        W10961   3.299   9.718   4.253  0.0677  0.4568 -0.2641
 7218W        W10962   0.332   6.933   3.305  0.2754  0.0600  0.0078
 7219W        W10963   0.564   6.724   2.823 -0.1620  0.0342  0.2330
 7220W        W10964   1.062   5.810  12.350  0.0021  0.1774  0.2359
 7221W        W10965   4.665   8.258  10.433 -0.0103 -0.0613  0.4777
 7222W        W10966   6.782   8.940  10.815  0.3834 -0.0610 -0.0331
 7223W        W10967   6.293   2.153   3.916  0.0714 -0.0703  0.0481
 7224W        W10968   3.409   1.031   2.738 -0.3683 -0.0400  0.0124
 7225W        W10969   0.842   1.614  10.715 -0.1658  0.0519  0.0772
 7226W        W10970   0.368   6.438   3.388 -0.2339  0.2380 -0.0708
 7227W        W10971   6.787   0.529   3.585  0.3597 -0.1039 -0.1649
 7228W        W10972   4.313   9.250   1.415  0.2274 -0.3582  0.2357
 7229W        W10973   6.370   3.843   1.895  0.0377  0.0591 -0.1620
 7230ION    NA+10974   2.945   1.246   8.494 -0.0517  0.1536  0.1283
 7231ION    NA+10975   0.588   5.954   4.296 -0.1980  0.0274  0.0221
 7232ION    NA+10976   6.188   1.851  11.607  0.0076  0.0417 -0.0141
 7233ION    NA+10977   9.461   2.521  10.358 -0.0608 -0.2403  0.0160
 7234ION    NA+10978   5.078   1.663   4.792  0.1085  0.2741 -0.4112
 7235ION    NA+10979   4.696   0.978   2.984 -0.3207  0.0519  0.2541
 7236ION    NA+10980   5.478   8.521  10.294 -0.1692 -0.2841 -0.2438
 7237ION    NA+10981   8.825   4.982   8.488 -0.1128  0.0299 -0.0370
 7238ION    NA+10982   1.541   9.245  10.012  0.1079 -0.0401 -0.0410
 7239ION    NA+10983   2.009   1.153   8.436  0.1052 -0.0345  0.2619
 7240ION    NA+10984   7.322   4.718   4.106 -0.0025  0.1499  0.2080
 7241ION    NA+10985   1.605   8.405   1.026 -0.3544 -0.1783  0.1979
 7242ION    NA+10986   2.664   0.652  11.314  0.0118 -0.0282 -0.0161
 7243ION    NA+10987   1.005   8.807   0.512 -0.2853 -0.1255  0.1189
 7244ION    NA+10988   8.605   5.179  10.773 -0.3516  0.1986  0.0831
 7245ION    NA+10989   3.608   7.287  10.289 -0.2245 -0.1580  0.0611
 7246ION    NA+10990   3.944   1.896  11.617  0.1568 -0.2182 -0.0927
 7247ION    NA+10991   2.460   4.696  10.646 -0.1918 -0.1264  0.5315
 7248ION    NA+10992   2.392   1.797   1.367  0.0736 -0.1237  0.0103
 7249ION    NA+10993   9.308   4.466  11.341  0.0641 -0.3119  0.3182
 7250ION    NA+10994   8.405   4.476  11.349 -0.1008 -0.3475  0.1200
 7251ION    NA+10995   6.762   6.725   8.302 -0.1397 -0.0475  0.3461
 7252ION    NA+10996   7.119   7.634  11.176  0.0223  0.1571  0.0081
 7253ION    NA+10997   7.884   7.988   3.081  0.0740  0.2021  0.1126
 7254ION    NA+10998   6.110   4.721  12.048  0.0371 -0.1531  0.2676
 7255ION    NA+10999   7.648   6.223  12.682  0.0100  0.1891  0.0500
 7256ION    NA+11000   9.075   4.807   3.466  0.3839  0.1774  0.2160
 7257ION    NA+11001   9.035   7.472  10.016 -0.1744  0.0280  0.0972
 7258ION    NA+11002   8.763   6.913  10.543  0.3673  0.2990  0.1926
 7259ION    NA+11003   3.208   7.381   9.308  0.3023  0.0968 -0.2374
 7260ION    NA+11004   5.555   2.217   1.128  0.1524  0.0048  0.0203
 7261ION    NA+11005   6.095   6.513   2.864  0.0397  0.1474  0.0945
 7262ION    NA+11006   6.103   0.456   9.232 -0.1393 -0.1932  0.0719
 7263ION    NA+11007   2.459   0.729   9.342  0.3253  0.1418 -0.0635
 7264ION    NA+11008   1.124   8.005   8.530  0.0458 -0.3449  0.3078
 7265ION    NA+11009   2.556   2.787  11.197  0.0659 -0.0480 -0.0033
 7266ION    NA+11010   0.256   0.700  12.682  0.2885  0.0235 -0.1849
 7267ION    NA+11011   8.476   3.070  12.365  0.3016 -0.2065 -0.2738
 7268ION    NA+11012   7.651   8.854  11.003  0.0137 -0.1466 -0.0966
 7269ION    NA+11013   2.786   5.111   9.775  0.1414  0.0930 -0.2019
 7270ION    NA+11014   6.842   1.832   3.361 -0.2504 -0.4930  0.0355
 7271ION    NA+11015   0.302   6.262  12.230  0.0568  0.3724  0.0132
 7272ION    NA+11016   9.806   4.582   8.575 -0.2423  0.3644 -0.2847
 7273ION    NA+11017   2.748   4.896   3.932 -0.0522 -0.0506 -0.1360
 7274ION    NA+11018   3.203   3.701   2.350  0.1250  0.1707  0.1318
 7275ION    NA+11019   8.589   0.351  12.382 -0.2324  0.3468  0.1942
 7276ION    NA+11020   8.496   7.934   2.374 -0.3851 -0.0460  0.0457
 7277ION    NA+11021   2.070   4.451   8.273  0.0963 -0.1606 -0.0161
 7278ION    NA+11022   5.573   1.399   0.494  0.1485 -0.0683  0.2856
 7279ION    NA+11023   8.960   7.402  10.923 -0.0501  0.1306 -0.2675
 7280ION    NA+11024   5.556   5.980   1.412 -0.2400 -0.0300 -0.1442
 7281ION    NA+11025   9.817   9.825  12.275  0.0781 -0.4327  0.1429
 7282ION    NA+11026   9.209   5.500   4.216  0.4381 -0.3256  0.1112
 7283ION    NA+11027   4.497   2.507  11.341  0.4125 -0.0794  0.2578
 7284ION    NA+11028   2.002   7.587   8.243  0.1422  0.2796  0.1318
 7285ION    NA+11029   6.509   4.444   3.678 -0.0887 -0.0238 -0.4243
 7286ION    NA+11030   5.960   0.538  11.427 -0.1427  0.1473  0.1464
 7287ION    NA+11031   4.709   4.851   1.379  0.1291  0.2650  0.1886
 7288ION    NA+11032   5.778   1.669  10.001  0.0698  0.2345  0.0879
 7289ION    NA+11033   3.820   7.727   8.067  0.0923 -0.2357 -0.1126
 7290ION    NA+11034   4.576   5.899   2.499  0.0684 -0.0521 -0.1323
 7291ION    NA+11035   9.478   6.320   9.603  0.1542 -0.0275  0.3979
 7292ION    NA+11036   0.492   0.347   9.802  0.1047 -0.1109 -0.1803
 7293ION    NA+11037   1.400   4.309  12.018 -0.0764 -0.0222 -0.3256
 7294ION    NA+11038   7.182   7.136   0.232 -0.0602 -0.0123  0.2899
 7295ION    NA+11039   8.193   9.805   1.817  0.3700  0.1618 -0.0749
 7296ION    NA+11040   2.275   9.554   4.367  0.1693  0.2638  0.0729
 7297ION    NA+11041   2.589   1.465   9.879  0.1552  0.1528 -0.1839
 7298ION    NA+11042   8.506   6.748   0.122  0.3067 -0.1472 -0.3874
 7299ION    NA+11043   9.384   8.718   9.141 -0.2826 -0.2753 -0.3542
 7300ION    NA+11044   1.202   8.894   3.144  0.0471 -0.3106  0.0059
 7301ION    NA+11045   2.894   6.776  11.179  0.1557  0.4686  0.0768
 7302ION    NA+11046   6.653   2.842   2.675 -0.1460  0.5443  0.0441
 7303ION    NA+11047   6.152   7.912   0.835 -0.0304  0.0984 -0.0276
 7304ION    NA+11048   9.462   6.001   1.429  0.0385 -0.1932  0.1187
 7305ION    NA+11049   4.885   5.515  10.149 -0.1651  0.1327  0.0816
 7306ION    CL-11050   5.330   5.665  10.298  0.1521  0.0367  0.2561
 7307ION    CL-11051   1.943   0.962   3.215 -0.0478  0.1146  0.3168
 7308ION    CL-11052   1.633   1.187   4.094  0.3944  0.2808  0.1178
 7309ION    CL-11053   5.253   8.777   9.922 -0.0402  0.1131 -0.2243
 7310ION    CL-11054   2.246   5.072   9.849 -0.0797 -0.0824 -0.0960
 7311ION    CL-11055   2.648   7.058   9.309 -0.2667  0.0107  0.1182
 7312ION    CL-11056   0.506   2.401   3.695 -0.0175 -0.2188 -0.0421
 7313ION    CL-11057   4.813   6.939   0.568 -0.1013 -0.2699  0.1701
 7314ION    CL-11058   5.378   1.211   9.377 -0.0394  0.2798 -0.0839
 7315ION    CL-11059   2.428   7.693   9.753  0.0424  0.0456  0.0618
 7316ION    CL-11060   1.176   4.090  11.634 -0.3396  0.0876  0.0893
 7317ION    CL-11061   4.482   6.373   2.566  0.0023  0.0771 -0.2226
 7318ION    CL-11062   7.919   6.467  12.225 -0.1820 -0.0649  0.3182
 7319ION    CL-11063   4.929   5.302   1.472 -0.2778 -0.0128  0.3580
 7320ION    CL-11064   0.202   0.312  12.307 -0.1838  0.2514 -0.0952
 7321ION    CL-11065   8.793   7.490   9.546  0.1013  0.1487 -0.0644
 7322ION    CL-11066   3.021   4.006   2.783 -0.5311  0.2930  0.3346
 7323ION    CL-11067   2.866   7.041   3.842  0.1517 -0.1976 -0.0930
 7324ION    CL-11068   2.372   7.174  11.324 -0.1022  0.0817  0.1074
 7325ION    CL-11069   4.514   0.870   3.435 -0.1382  0.2005 -0.0723
 7326ION    CL-11070   2.481   1.232   9.405 -0.2016  0.3729 -0.1588
 7327ION    CL-11071   9.546   4.982   8.841  0.0000 -0.1196  0.0324
 7328ION    CL-11072   3.165   1.758  12.039  0.1368  0.1159 -0.2405
 7329ION    CL-11073   5.410   1.897   0.726 -0.1572  0.2230 -0.1992
 7330ION    CL-11074   4.021   4.794   8.634  0.0910 -0.0408 -0.1049
 7331ION    CL-11075   2.461   8.429   9.320  0.0314 -0.2061 -0.2029
 7332ION    CL-11076   2.893   1.742   1.278 -0.0736  0.0951 -0.0823
 7333ION    CL-11077   7.544   2.955  10.621 -0.0392 -0.4851 -0.2804
 7334ION    CL-11078   8.834   2.942  11.980 -0.1305  0.2062 -0.1886
 7335ION    CL-11079   9.116   0.352  12.405 -0.0827  0.0654  0.3690
 7336ION    CL-11080   1.292   9.765   2.340 -0.0670  0.1132 -0.1406
 7337ION    CL-11081   6.272   0.303  11.124 -0.1098  0.3798  0.0365
 7338ION    CL-11082   6.795   8.014  11.397 -0.0434  0.5641 -0.1365
 7339ION    CL-11083   6.394   8.128   1.290  0.6520  0.2287  0.0402
 7340ION    CL-11084   6.906   2.512   3.169 -0.0877  0.1034  0.1203
 7341ION    CL-11085   8.724   7.368  10.394  0.1763 -0.2901 -0.2214
 7342ION    CL-11086   1.369   8.900   0.837 -0.4001 -0.0958 -0.0625
 7343ION    CL-11087   3.732   7.466   9.147 -0.2523  0.0123 -0.1917
 7344ION    CL-11088   8.616   4.787   3.318 -0.0845  0.0355 -0.3444
 7345ION    CL-11089   8.012   3.846   1.835  0.1338  0.0628 -0.3278
 7346ION    CL-11090   1.918   3.075   9.149 -0.1846  0.2361 -0.1521
 7347ION    CL-11091   5.379   1.996   9.701 -0.3030  0.1078 -0.1778
 7348ION    CL-11092   5.654   4.662  11.787  0.1533  0.2255  0.1600
 7349ION    CL-11093   0.001   9.866   0.349  0.1823 -0.1625 -0.0627
 7350ION    CL-11094   1.339   7.354   9.066 -0.2232 -0.1167 -0.1399
 7351ION    CL-11095   6.195   2.997   2.775 -0.0604  0.1058  0.0987
 7352ION    CL-11096   5.869   8.222   0.572  0.2086 -0.2260 -0.2600
 7353ION    CL-11097   5.914   8.211   9.858  0.1588 -0.0191 -0.0476
 7354ION    CL-11098   2.681   2.370  10.986 -0.2116  0.0489 -0.1854
 7355ION    CL-11099   7.351   6.621   0.310 -0.0156 -0.0208 -0.0024
 7356ION    CL-11100   0.503   1.309   9.454 -0.2082  0.0293 -0.2570
 7357ION    CL-11101   7.422   7.940  10.913 -0.1251 -0.3731 -0.1713
 7358ION    CL-11102   6.502   6.420   3.454 -0.2322 -0.0116  0.0365
 7359ION    CL-11103   3.541   3.803   2.030  0.0623 -0.0972  0.0497
 7360ION    CL-11104   3.429   1.755   9.192  0.0516  0.3989 -0.1883
 7361ION    CL-11105   6.583   1.314  11.519  0.4063 -0.3608  0.1803
 7362ION    CL-11106   0.284   9.749   9.402  0.1966 -0.2263  0.1367
 7363ION    CL-11107   6.481   2.358  10.011 -0.1544 -0.0861 -0.0259
 7364ION    CL-11108   1.379   9.715   3.574  0.0247 -0.1104  0.3516
 7365ION    CL-11109   9.111   0.875  10.843  0.3767 -0.0231 -0.0394
 7366ION    CL-11110   8.913   4.740  11.464 -0.1026  0.1660  0.0699
 7367ION    CL-11111   1.699   3.998   1.828  0.2199 -0.0637 -0.0474
 7368ION    CL-11112   8.465   8.034   1.869  0.0375  0.1096 -0.2424
 7369ION    CL-11113   1.119   8.493   3.428  0.1762 -0.2320 -0.2200
 7370ION    CL-11114   3.091   0.356  11.246  0.0395 -0.1561 -0.3248
 7371ION    CL-11115   9.261   7.317  10.510 -0.2919 -0.2176  0.0148
 7372ION    CL-11116   2.028   9.531   3.995 -0.3993  0.1628  0.2851
 7373ION    CL-11117   8.297   4.023  11.449 -0.0192  0.2969  0.1179
 7374ION    CL-11118   0.233   9.550  12.134 -0.0182 -0.1320 -0.3808
 7375ION    CL-11119   9.143   3.651   3.853 -0.1220 -0.2697 -0.0553
 7376ION    CL-11120   1.735   2.333   8.506 -0.1263  0.3088 -0.0643
 7377ION    CL-11121   4.284   0.149   9.177 -0.1660  0.0051 -0.1139
 7378ION    CL-11122   0.172   1.270  12.433  0.0551 -0.1584 -0.1738
 7379ION    CL-11123   3.804   1.536  11.347  0.1362 -0.1559 -0.0651
 7380ION    CL-11124   2.428   4.586  11.164  0.0127 -0.1044  0.0612
 7381ION    CL-11125   2.598   1.446   4.009  0.1678 -0.1019  0.1199
   9.98035   9.98035  12.75101
