Protein in INSANE! Membrane UpperLeaflet>POPC=1.0 LowerLeaflet>POPC=1.0
11125
    1AU     AUC    1   4.783   2.502   6.532 -0.0803 -0.0402 -0.0466
    1AU     AUC    2   4.806   2.454   6.841 -0.1167 -0.0340 -0.0054
    1AU     AUC    3   4.517   2.610   6.716 -0.0131 -0.0510  0.0856
    1AU     AUC    4   4.953   2.393   6.313  0.0161 -0.0788  0.0285
    1AU     AUC    5   4.691   2.630   6.205 -0.0027 -0.0091  0.0099
    1AU     AUC    6   4.963   2.743   6.376  0.0422  0.0013 -0.1154
    1AU     AUC    7   4.839   2.753   6.714  0.0514 -0.0344  0.0062
    1AU     AUC    8   4.670   2.289   6.338  0.0150  0.0112  0.0085
    1AU     AUC    9   4.553   2.295   6.682 -0.0153 -0.0920  0.1071
    1AU     AUC   10   4.444   2.529   6.452  0.0084  0.0482 -0.0695
    1AU     AUC   11   4.640   2.820   6.447  0.0235 -0.0589  0.0297
    1AU     AUC   12   4.895   2.240   6.619  0.0390  0.0010  0.0654
    1AU     AUC   13   5.069   2.518   6.651 -0.0473  0.0790 -0.0015
    1AU     AUC   14   4.817   2.429   7.209 -0.0061 -0.0956 -0.0165
    1AU     AUC   15   4.543   2.561   7.076 -0.0243 -0.0270 -0.0145
    1AU     AUC   16   4.278   2.753   6.921 -0.0031 -0.0063 -0.0588
    1AU     AUC   17   5.182   2.267   6.092  0.1328  0.0477  0.1084
    1AU     AUC   18   4.906   2.502   5.947 -0.0371  0.0771 -0.0243
    1AU     AUC   19   4.648   2.709   5.877 -0.0822 -0.0082  0.0612
    1AU     AUC   20   5.176   2.965   6.240  0.0922  0.1113  0.0183
    1AU     AUC   21   5.113   3.009   6.579  0.0102 -0.0670 -0.0598
    1AU     AUC   22   4.954   3.021   6.894 -0.0145 -0.0605 -0.0694
    1AU     AUC   23   4.576   2.016   6.135 -0.0040 -0.0210 -0.0114
    1AU     AUC   24   4.449   2.006   6.479 -0.0559 -0.0330  0.0333
    1AU     AUC   25   4.342   2.032   6.817 -0.0089 -0.0980 -0.1320
    1AU     AUC   26   4.117   2.511   6.343  0.1070 -0.0442 -0.0235
    1AU     AUC   27   4.293   2.857   6.352  0.0755 -0.0161  0.0665
    1AU     AUC   28   4.500   3.135   6.388  0.0561 -0.0200 -0.0318
    1AU     AUC   29   5.012   1.946   6.752  0.0254  0.0182  0.0428
    1AU     AUC   30   5.213   2.212   6.761 -0.0057 -0.0011  0.0100
    1AU     AUC   31   5.384   2.487   6.750 -0.0830  0.0620  0.0262
    1AU     AUC   32   4.162   2.623   6.606  0.0402  0.0056 -0.0350
    1AU     AUC   33   4.373   2.951   6.659 -0.0611  0.0759  0.0441
    1AU     AUC   34   4.967   2.187   7.023  0.0708 -0.0002 -0.0477
    1AU     AUC   35   5.123   2.483   7.027  0.0056  0.0042  0.0181
    1AU     AUC   36   4.373   2.652   6.071 -0.0487  0.0008  0.0069
    1AU     AUC   37   4.596   2.971   6.117 -0.0366  0.0216 -0.0356
    1AU     AUC   38   5.121   2.103   6.370 -0.1020 -0.0032  0.0278
    1AU     AUC   39   5.318   2.335   6.392 -0.0216 -0.0164 -0.0610
    1AU     AUC   40   4.880   2.730   7.116 -0.0110  0.0292  0.1036
    1AU     AUC   41   4.617   2.887   6.929  0.0400 -0.0195  0.0417
    1AU     AUC   42   5.181   2.610   6.140 -0.1173  0.0331 -0.0079
    1AU     AUC   43   4.919   2.862   6.034  0.0391 -0.0287 -0.0206
    1AU     AUC   44   4.572   2.220   7.029  0.0331  0.0259  0.0002
    1AU     AUC   45   4.274   2.369   6.871 -0.0355  0.0660  0.0443
    1AU     AUC   46   4.854   2.136   6.058  0.0288  0.1125 -0.0520
    1AU     AUC   47   4.594   2.372   6.007  0.0202 -0.0074  0.0011
    1AU     AUC   48   4.873   3.093   6.309  0.0114 -0.0381 -0.0317
    1AU     AUC   49   4.739   3.086   6.645 -0.0165 -0.0441  0.0058
    1AU     AUC   50   4.318   2.262   6.247  0.0747  0.0157  0.0098
    1AU     AUC   51   4.217   2.211   6.561  0.0724 -0.0062  0.0034
    1AU     AUC   52   5.284   2.700   6.481  0.0623 -0.1107  0.0922
    1AU     AUC   53   5.196   2.760   6.856 -0.0786 -0.0221  0.0242
    1AU     AUC   54   4.800   1.969   6.430 -0.1214  0.0740  0.0734
    1AU     AUC   55   4.702   2.001   6.811  0.0051  0.1052  0.0896
    1AU    AUSL   56   3.965   2.883   6.802  0.0280  0.0355 -0.0857
    1AU    AUSL   57   3.855   2.460   6.544  0.0419  0.0181  0.0602
    1AU     AUL   58   3.661   2.694   6.775 -0.0205  0.0165 -0.0117
    1AU       S   59   3.562   2.237   6.876 -0.2377  0.0702 -0.0344
    1AU     LIG   60   3.173   2.322   6.613 -0.3719  0.0684 -0.3390
    1AU     LIG   61   2.765   2.371   6.667  0.2891 -0.0744  0.2069
    1AU     LIG   62   2.405   2.394   7.000 -0.0846 -0.2862 -0.0277
    1AU     LIG   63   2.327   2.240   7.386 -0.0569  0.1924  0.2488
    1AU       S   64   3.517   3.062   6.551 -0.0026 -0.0011 -0.7573
    1AU     LIG   65   3.517   3.485   6.659 -0.2369  0.1224  0.2825
    1AU     LIG   66   3.146   3.666   6.419  0.0917 -0.0969 -0.2331
    1AU     LIG   67   2.954   4.063   6.423  0.3217  0.0108  0.1244
    1AU     LIG   68   2.893   4.569   6.552 -0.1316  0.3764  0.0678
    1AU    AUSL   69   3.898   2.848   6.334 -0.0129  0.0009  0.0390
    1AU    AUSL   70   4.147   3.158   6.112 -0.0978 -0.0567  0.0963
    1AU     AUL   71   3.828   3.239   6.281  0.0452 -0.0978  0.0482
    1AU       S   72   3.652   2.823   6.289  0.1653  0.2360  0.1104
    1AU     LIG   73   3.310   2.731   6.263 -0.2332 -0.1186 -0.6032
    1AU     LIG   74   2.824   2.750   6.329 -0.3587 -0.1121 -0.2243
    1AU     LIG   75   2.418   2.843   6.515  0.1657  0.0947 -0.3759
    1AU     LIG   76   1.996   2.600   6.495 -0.0323 -0.0692 -0.0439
    1AU       S   77   3.820   3.083   5.852 -0.0511  0.2258  0.1595
    1AU     LIG   78   3.390   3.197   6.060 -0.0135 -0.0632 -0.1680
    1AU     LIG   79   3.090   3.209   6.396 -0.0347 -0.1566 -0.0567
    1AU     LIG   80   3.000   3.298   6.831 -0.1594 -0.1419  0.2119
    1AU     LIG   81   3.165   3.489   7.218  0.1822  0.2020  0.2901
    1AU    AUSL   82   4.246   3.063   6.510 -0.0158 -0.1064  0.0178
    1AU    AUSL   83   4.241   3.171   6.950  0.0061  0.0118 -0.0553
    1AU     AUL   84   3.962   3.182   6.744 -0.0163  0.0670  0.0743
    1AU       S   85   4.162   3.573   6.296 -0.6147  0.5129 -0.3290
    1AU     LIG   86   4.504   3.893   6.444 -0.1766  0.2308  0.2566
    1AU     LIG   87   4.563   4.394   6.360  0.2120  0.1920  0.0493
    1AU     LIG   88   4.735   4.831   6.278 -0.0223  0.0136  0.1408
    1AU     LIG   89   4.696   5.253   6.217 -0.0395 -0.0156 -0.4388
    1AU       S   90   4.125   3.522   7.066 -0.0016  0.2111 -0.1171
    1AU     LIG   91   3.769   3.552   7.148 -0.2713 -0.3342 -0.2304
    1AU     LIG   92   3.586   3.935   7.023 -0.0451 -0.0381 -0.2825
    1AU     LIG   93   3.121   3.963   7.032  0.1427  0.0086 -0.1193
    1AU     LIG   94   2.813   4.178   6.876  0.0288 -0.1422  0.1523
    1AU    AUSL   95   5.155   2.303   7.267 -0.0279 -0.0235  0.0184
    1AU    AUSL   96   5.392   2.668   7.174  0.0724 -0.0453 -0.0375
    1AU     AUL   97   5.380   2.472   7.460  0.0525 -0.0181  0.0002
    1AU       S   98   5.698   2.168   7.328  0.1713 -0.1924 -0.3259
    1AU     LIG   99   5.940   2.570   7.397  0.0334  0.1747  0.3570
    1AU     LIG  100   6.104   3.034   7.411 -0.0841  0.3291  0.3900
    1AU     LIG  101   6.054   3.245   7.145  0.0518  0.5993  0.3412
    1AU     LIG  102   6.201   3.616   6.981 -0.1787  0.1196 -0.5324
    1AU       S  103   5.448   2.922   7.511 -0.4406  0.0423  0.1106
    1AU     LIG  104   5.735   3.323   7.511 -0.0512  0.0222  0.0585
    1AU     LIG  105   5.809   3.655   7.248 -0.2850  0.1152 -0.2238
    1AU     LIG  106   6.169   4.023   7.297 -0.0265  0.1400 -0.2681
    1AU     LIG  107   6.532   4.257   7.377  0.3999 -0.2023 -0.1684
    1AU    AUSL  108   5.304   1.910   7.133 -0.0520  0.0318  0.0131
    1AU    AUSL  109   4.823   2.109   7.435  0.0144  0.0595 -0.0522
    1AU     AUL  110   5.168   2.009   7.470  0.0134  0.0083  0.0479
    1AU       S  111   4.817   1.796   7.639 -0.1590  0.1365 -0.0704
    1AU     LIG  112   4.509   1.936   7.987  0.2282 -0.0827  0.2168
    1AU     LIG  113   4.196   2.195   8.091  0.0146 -0.3309  0.2051
    1AU     LIG  114   3.792   2.439   7.934 -0.0237  0.1945 -0.1836
    1AU     LIG  115   3.718   2.713   7.642  0.1338 -0.1514  0.1112
    1AU       S  116   5.592   2.066   7.303 -0.2493 -0.0606  0.1166
    1AU     LIG  117   5.941   1.765   7.162 -0.0312  0.1056 -0.1213
    1AU     LIG  118   6.123   1.585   6.817  0.1786 -0.0715  0.2138
    1AU     LIG  119   6.233   1.206   6.658 -0.2818  0.2281 -0.1231
    1AU     LIG  120   6.274   0.815   6.907 -0.2238 -0.1311  0.1450
    1AU    AUSL  121   5.418   2.311   6.915  0.0432 -0.0339 -0.0333
    1AU    AUSL  122   5.255   1.959   6.698  0.0330 -0.0582 -0.0254
    1AU     AUL  123   5.491   1.846   6.916 -0.0192  0.1005 -0.0636
    1AU       S  124   5.730   1.681   6.557 -0.6223 -0.3193 -0.0193
    1AU     LIG  125   5.671   1.354   6.756  0.1568  0.0559  0.0880
    1AU     LIG  126   5.800   0.967   6.703  0.0908 -0.0410  0.0919
    1AU     LIG  127   6.145   0.765   6.417 -0.0401  0.1425  0.0069
    1AU     LIG  128   6.462   1.044   6.219  0.0194  0.0362 -0.1904
    1AU       S  129   5.644   2.289   7.077  0.2034  0.0015  0.1238
    1AU     LIG  130   6.058   2.257   6.983 -0.2995  0.0283 -0.2444
    1AU     LIG  131   6.479   1.941   6.919  0.1540 -0.0276 -0.2800
    1AU     LIG  132   6.607   1.537   6.655 -0.1752 -0.0790 -0.4534
    1AU     LIG  133   6.672   1.047   6.643  0.0952  0.2105 -0.1377
    1AU    AUSL  134   4.356   2.961   5.781 -0.1166  0.0650 -0.1187
    1AU    AUSL  135   4.576   3.237   6.113 -0.0285 -0.0685 -0.0129
    1AU     AUL  136   4.333   3.328   5.858 -0.0135  0.1268  0.0047
    1AU       S  137   3.943   3.118   5.652 -0.3647  0.1396 -0.3461
    1AU     LIG  138   3.885   3.545   5.874  0.3040  0.2916  0.2194
    1AU     LIG  139   3.680   3.697   6.206 -0.1482 -0.0639  0.1344
    1AU     LIG  140   3.560   3.930   6.430  0.0018 -0.1330 -0.1027
    1AU     LIG  141   3.348   4.263   6.640 -0.1894  0.2165  0.1712
    1AU       S  142   4.762   3.495   5.704  0.3563  0.3207 -0.2651
    1AU     LIG  143   4.367   3.809   5.865 -0.0965  0.0176 -0.3226
    1AU     LIG  144   4.114   4.027   6.189  0.0709 -0.2391 -0.0553
    1AU     LIG  145   4.018   4.403   6.306  0.0130 -0.1898 -0.1618
    1AU     LIG  146   4.286   4.820   6.453  0.2883  0.0063 -0.2509
    1AU    AUSL  147   4.235   2.717   6.105  0.0137 -0.0228  0.0331
    1AU    AUSL  148   4.262   2.517   5.700  0.0077  0.0806  0.0498
    1AU     AUL  149   4.300   2.765   5.603 -0.0758 -0.1790 -0.0235
    1AU       S  150   3.916   2.463   5.578  0.0752  0.0289 -0.1017
    1AU     LIG  151   3.377   2.286   5.531  0.0418 -0.1534 -0.1911
    1AU     LIG  152   3.007   2.488   5.612  0.0505 -0.0064 -0.1483
    1AU     LIG  153   2.687   2.765   5.337  0.0096 -0.1433  0.0419
    1AU     LIG  154   2.893   3.112   4.956  0.0231 -0.0929  0.4044
    1AU       S  155   3.881   2.882   5.839  0.0115 -0.2942 -0.1629
    1AU     LIG  156   3.421   2.750   5.755 -0.2124  0.0338  0.0390
    1AU     LIG  157   3.002   2.973   5.847 -0.2746  0.2946 -0.3257
    1AU     LIG  158   2.709   3.252   6.023 -0.3257 -0.0061  0.2823
    1AU     LIG  159   2.530   3.323   6.447 -0.4695  0.2766 -0.0232
    1AU    AUSL  160   5.417   1.959   6.281 -0.0569  0.0348  0.0184
    1AU    AUSL  161   5.028   1.782   6.391 -0.0458  0.0513 -0.0787
    1AU     AUL  162   5.273   1.631   6.552 -0.0653 -0.0915 -0.0302
    1AU       S  163   5.701   1.686   6.340  0.4019 -0.1131 -0.3206
    1AU     LIG  164   6.028   1.401   6.281  0.0582 -0.2068 -0.0579
    1AU     LIG  165   6.173   1.367   5.889 -0.0027  0.2184 -0.3457
    1AU     LIG  166   6.472   1.767   5.628  0.1638  0.2318  0.0680
    1AU     LIG  167   6.796   2.058   5.799 -0.2918 -0.1751  0.1095
    1AU       S  168   5.169   1.543   6.119  0.1288  0.3743 -0.1090
    1AU     LIG  169   5.483   1.193   6.298  0.3936  0.0555  0.3882
    1AU     LIG  170   5.408   0.764   6.406  0.0479  0.1060 -0.1763
    1AU     LIG  171   5.229   0.417   6.067 -0.1098 -0.0855 -0.2638
    1AU     LIG  172   4.809   0.281   6.135 -0.4232  0.1696 -0.0474
    1AU    AUSL  173   5.651   2.155   6.598 -0.0429 -0.0000 -0.0030
    1AU    AUSL  174   5.538   2.319   6.059  0.0283  0.0233  0.0102
    1AU     AUL  175   5.726   2.140   6.240 -0.0447 -0.0557 -0.0106
    1AU       S  176   5.889   2.387   5.865 -0.0673 -0.4012 -0.3319
    1AU     LIG  177   6.006   2.692   5.553  0.1833 -0.2771 -0.2766
    1AU     LIG  178   6.209   3.052   5.669  0.3335 -0.0463  0.1125
    1AU     LIG  179   6.400   3.195   5.977  0.2024  0.0403 -0.6149
    1AU     LIG  180   6.520   3.585   6.106 -0.2890 -0.2554  0.2151
    1AU       S  181   5.844   1.985   6.658 -0.1501  0.1288 -0.2348
    1AU     LIG  182   6.208   1.864   6.437  0.0481 -0.1415 -0.1431
    1AU     LIG  183   6.665   2.045   6.423  0.0659 -0.0669 -0.1574
    1AU     LIG  184   6.984   2.335   6.290 -0.2529 -0.1293 -0.4102
    1AU     LIG  185   7.118   2.721   6.377  0.2853  0.0325 -0.3544
    1AU    AUSL  186   4.751   3.054   7.319  0.0038  0.0020  0.0929
    1AU    AUSL  187   5.005   2.703   7.382  0.0081  0.1020 -0.0632
    1AU     AUL  188   4.908   2.957   7.662  0.0579 -0.0596  0.0350
    1AU       S  189   5.311   3.013   7.477 -0.3808 -0.1505  0.0310
    1AU     LIG  190   5.190   3.328   7.785 -0.0206 -0.2413  0.1455
    1AU     LIG  191   5.221   3.800   7.712 -0.3039 -0.1397  0.1967
    1AU     LIG  192   5.468   4.178   7.461  0.3295  0.0141  0.0785
    1AU     LIG  193   5.740   4.148   7.088  0.0754  0.0259 -0.2572
    1AU       S  194   4.402   3.077   7.582 -0.2358  0.2626  0.0126
    1AU     LIG  195   4.273   3.490   7.511  0.0793  0.0862 -0.0318
    1AU     LIG  196   3.804   3.380   7.636 -0.1298 -0.2046  0.2767
    1AU     LIG  197   3.376   3.158   7.629  0.2957  0.1296 -0.0655
    1AU     LIG  198   3.021   3.020   7.295 -0.2218 -0.1526  0.1396
    1AU    AUSL  199   4.584   2.660   7.474  0.0853  0.0405  0.0227
    1AU    AUSL  200   4.191   2.521   7.312 -0.0417  0.0274 -0.0301
    1AU     AUL  201   4.349   2.494   7.695  0.0015 -0.0200  0.0666
    1AU       S  202   4.357   2.949   7.544 -0.0116 -0.3823  0.1457
    1AU     LIG  203   4.127   2.843   7.964  0.0827 -0.0319 -0.0163
    1AU     LIG  204   4.191   2.638   8.345 -0.0956 -0.1162  0.3506
    1AU     LIG  205   4.326   2.245   8.657 -0.2208  0.1711  0.1453
    1AU     LIG  206   4.486   1.907   8.912  0.0790 -0.0438  0.2269
    1AU       S  207   3.982   2.243   7.537 -0.2341 -0.2072  0.5303
    1AU     LIG  208   3.532   2.164   7.490 -0.0439 -0.1070 -0.0567
    1AU     LIG  209   3.181   2.145   7.214  0.3638 -0.1973  0.0623
    1AU     LIG  210   2.939   2.035   6.973  0.2118  0.3263 -0.0184
    1AU     LIG  211   2.505   1.877   7.030  0.1886  0.1094  0.1758
    1AU    AUSL  212   4.430   2.819   7.102 -0.0470 -0.0064 -0.0041
    1AU    AUSL  213   4.684   3.159   6.902  0.1208 -0.0525 -0.0181
    1AU     AUL  214   4.518   3.253   7.159 -0.0576 -0.0074  0.0355
    1AU       S  215   4.312   3.667   7.028 -0.2088  0.1359 -0.0462
    1AU     LIG  216   4.522   3.943   6.990 -0.4660  0.6042  0.4226
    1AU     LIG  217   4.776   4.155   6.704  0.1214  0.2177 -0.3595
    1AU     LIG  218   5.054   4.440   6.451 -0.2583 -0.3808  0.2438
    1AU     LIG  219   5.407   4.820   6.334 -0.2711  0.3465 -0.2227
    1AU       S  220   4.191   2.992   7.406 -0.3220  0.1550  0.3693
    1AU     LIG  221   3.813   2.987   7.233  0.0181 -0.2106 -0.2654
    1AU     LIG  222   3.475   3.077   7.009  0.0125  0.0702 -0.1699
    1AU     LIG  223   3.084   2.835   6.724 -0.2865  0.0187  0.2564
    1AU     LIG  224   2.695   2.819   6.934 -0.2364 -0.1309  0.1228
    1AU    AUSL  225   5.212   2.919   5.943 -0.0343  0.0637 -0.1477
    1AU    AUSL  226   4.771   3.002   5.808 -0.1265 -0.0649 -0.0109
    1AU     AUL  227   5.179   3.139   5.634  0.0775  0.0041  0.0145
    1AU       S  228   4.712   3.179   5.611 -0.0582 -0.0351 -0.2389
    1AU     LIG  229   4.321   3.468   5.399  0.1367  0.3712  0.2586
    1AU     LIG  230   4.022   3.797   5.430 -0.0860  0.0377  0.2573
    1AU     LIG  231   3.840   4.084   5.754  0.1836  0.3062  0.0244
    1AU     LIG  232   3.619   4.294   6.051  0.0419 -0.0366 -0.2044
    1AU       S  233   5.499   3.236   5.948  0.3621 -0.2079 -0.3113
    1AU     LIG  234   5.567   3.611   5.829 -0.0728 -0.1810  0.1032
    1AU     LIG  235   5.823   3.988   5.889 -0.3246  0.3421  0.1466
    1AU     LIG  236   5.810   4.390   5.864  0.1185 -0.0303 -0.3431
    1AU     LIG  237   5.964   4.847   5.848 -0.3431 -0.1707 -0.2152
    1AU    AUSL  238   5.173   2.488   5.919 -0.0714 -0.0005  0.0210
    1AU    AUSL  239   5.564   2.753   6.106 -0.0106 -0.0616 -0.0196
    1AU     AUL  240   5.458   2.659   5.793  0.0272  0.0376  0.0604
    1AU       S  241   5.491   2.114   5.658  0.4277  0.0884 -0.1499
    1AU     LIG  242   5.448   1.784   5.458 -0.3565 -0.0990 -0.0494
    1AU     LIG  243   5.594   1.404   5.250  0.1571 -0.0671 -0.0838
    1AU     LIG  244   6.049   1.498   5.211  0.3378  0.4202 -0.2879
    1AU     LIG  245   6.319   1.748   5.113 -0.0688  0.2353  0.0509
    1AU       S  246   5.820   2.857   6.015  0.1883 -0.1988 -0.0266
    1AU     LIG  247   6.206   2.938   6.346 -0.2151 -0.0693  0.1345
    1AU     LIG  248   6.642   3.061   6.364  0.1944  0.2149 -0.1531
    1AU     LIG  249   7.015   3.320   6.300  0.1884  0.4302  0.1386
    1AU     LIG  250   7.410   3.239   6.209 -0.0696 -0.1979  0.1072
    1AU    AUSL  251   4.992   2.714   5.593  0.0997 -0.0458 -0.0339
    1AU    AUSL  252   5.026   2.213   5.647  0.1229  0.0468  0.1257
    1AU     AUL  253   5.165   2.452   5.513 -0.0615 -0.0376 -0.0391
    1AU       S  254   4.778   2.248   5.327  0.1374  0.3415 -0.1917
    1AU     LIG  255   4.821   2.079   4.876 -0.1565  0.0368 -0.1914
    1AU     LIG  256   4.743   2.217   4.488  0.2973 -0.1349 -0.2019
    1AU     LIG  257   4.720   2.599   4.228  0.0020  0.0991  0.0656
    1AU     LIG  258   4.697   2.957   3.954  0.1955 -0.0245  0.1662
    1AU       S  259   4.934   2.828   5.383  0.1099  0.3833  0.1525
    1AU     LIG  260   5.141   2.534   5.051  0.1945  0.0529 -0.0381
    1AU     LIG  261   5.390   2.177   5.138  0.4088  0.0007 -0.0880
    1AU     LIG  262   5.892   2.010   5.136 -0.1069  0.1900  0.2754
    1AU     LIG  263   6.004   1.925   5.463  0.1352  0.1408 -0.2799
    1AU    AUSL  264   4.195   2.122   7.119 -0.0128  0.0036 -0.0462
    1AU    AUSL  265   4.119   2.494   6.892  0.0185 -0.0254 -0.0072
    1AU     AUL  266   3.919   2.512   7.168 -0.0481 -0.0050 -0.0287
    1AU       S  267   4.017   2.048   7.287 -0.2382 -0.3127 -0.0465
    1AU     LIG  268   3.910   1.624   7.231  0.2988  0.0267 -0.1455
    1AU     LIG  269   3.633   1.448   7.397  0.0269  0.1567 -0.2065
    1AU     LIG  270   3.320   1.181   7.517  0.1317  0.1146 -0.0015
    1AU     LIG  271   3.062   1.016   7.897 -0.0863  0.0416  0.0138
    1AU       S  272   3.641   2.183   6.989 -0.5425  0.0526 -0.1573
    1AU     LIG  273   3.361   2.586   7.211  0.2068 -0.3236  0.1540
    1AU     LIG  274   2.872   2.529   7.271 -0.4518  0.2057 -0.2058
    1AU     LIG  275   2.551   2.769   7.384 -0.2888 -0.0670 -0.1509
    1AU     LIG  276   2.454   3.001   7.713 -0.0912 -0.2464  0.1631
    1AU    AUSL  277   4.557   2.327   7.203  0.0215 -0.0722  0.0137
    1AU    AUSL  278   4.520   1.860   7.221 -0.0181 -0.0338 -0.0132
    1AU     AUL  279   4.500   2.098   7.454 -0.2062 -0.0165 -0.0527
    1AU       S  280   4.065   2.089   7.559  0.1994  0.0905 -0.0337
    1AU     LIG  281   3.774   1.790   7.767 -0.3151 -0.2326 -0.0017
    1AU     LIG  282   3.286   1.702   7.702 -0.0844  0.1260  0.0014
    1AU     LIG  283   2.993   1.758   7.439 -0.2114 -0.0993 -0.0175
    1AU     LIG  284   2.631   1.805   7.529  0.0924  0.1291  0.0756
    1AU       S  285   4.665   1.618   7.519  0.2556  0.0866  0.1564
    1AU     LIG  286   4.700   1.102   7.568  0.0142 -0.2508  0.1689
    1AU     LIG  287   4.754   0.729   7.381 -0.0481  0.5852 -0.1190
    1AU     LIG  288   5.075   0.540   7.010 -0.1462 -0.0318 -0.2660
    1AU     LIG  289   5.394   0.727   6.887 -0.2482 -0.3046 -0.1184
    1AU    AUSL  290   4.655   2.028   5.782 -0.0503 -0.0183  0.0093
    1AU    AUSL  291   5.069   2.034   6.029 -0.0103 -0.0516  0.0022
    1AU     AUL  292   4.969   1.910   5.628  0.0578 -0.0205  0.0202
    1AU       S  293   5.224   1.681   5.944  0.1391 -0.1871  0.5145
    1AU     LIG  294   5.686   1.525   5.854 -0.1405  0.2320 -0.2213
    1AU     LIG  295   6.028   1.846   5.948 -0.2777 -0.3871 -0.2382
    1AU     LIG  296   6.337   2.192   6.026  0.3936  0.0639 -0.2068
    1AU     LIG  297   6.552   2.539   6.200 -0.1618 -0.2498  0.0635
    1AU       S  298   4.678   2.189   5.314 -0.0516  0.2527 -0.0612
    1AU     LIG  299   4.545   1.782   5.207 -0.1642  0.0309 -0.2086
    1AU     LIG  300   4.618   1.381   5.219 -0.3334  0.1980 -0.4525
    1AU     LIG  301   4.731   1.090   5.640 -0.1245 -0.0172 -0.0327
    1AU     LIG  302   4.771   0.746   6.003  0.1022 -0.1215  0.1109
    1AU    AUSL  303   4.687   2.486   5.773  0.0213  0.0321  0.0290
    1AU    AUSL  304   4.342   2.224   5.994 -0.0511  0.0647  0.0037
    1AU     AUL  305   4.352   2.172   5.665  0.0548  0.0434  0.0111
    1AU       S  306   3.861   2.242   5.630 -0.0467  0.0601 -0.3694
    1AU     LIG  307   3.702   1.893   5.670 -0.1784  0.3661 -0.2999
    1AU     LIG  308   3.392   1.606   5.828 -0.3037 -0.2459 -0.1138
    1AU     LIG  309   3.037   1.357   6.053 -0.3162  0.2649  0.1498
    1AU     LIG  310   2.637   1.143   6.084 -0.0656  0.3865  0.2986
    1AU       S  311   4.647   2.407   5.391 -0.5630 -0.2823 -0.1162
    1AU     LIG  312   4.406   2.793   5.157 -0.2340 -0.0588  0.1451
    1AU     LIG  313   4.364   3.182   4.992  0.2780 -0.1160  0.0883
    1AU     LIG  314   4.369   3.684   4.951 -0.3168  0.1581 -0.0509
    1AU     LIG  315   4.524   4.018   4.934 -0.0699 -0.0515 -0.2973
    1AU    AUSL  316   4.802   3.319   6.462  0.0023  0.1272 -0.0063
    1AU    AUSL  317   5.013   3.278   6.066  0.0592  0.0158 -0.0653
    1AU     AUL  318   4.685   3.547   6.180 -0.0694 -0.0017  0.0111
    1AU       S  319   5.070   3.510   5.920  0.1163  0.1230  0.4403
    1AU     LIG  320   5.206   3.742   5.550 -0.2276  0.0304 -0.4146
    1AU     LIG  321   5.503   4.024   5.483  0.0213 -0.4330  0.1011
    1AU     LIG  322   5.624   4.440   5.387  0.4082  0.0471  0.1407
    1AU     LIG  323   5.587   4.729   5.544 -0.3254  0.3409  0.0691
    1AU       S  324   5.001   3.758   6.458 -0.1574  0.0861  0.3731
    1AU     LIG  325   4.834   3.996   6.101  0.0594 -0.0486  0.0322
    1AU     LIG  326   4.722   4.265   5.851  0.2487  0.0549 -0.3119
    1AU     LIG  327   4.283   4.405   5.860 -0.1654  0.1686  0.0979
    1AU     LIG  328   3.927   4.579   5.762 -0.1423  0.0031  0.3263
    1AU    AUSL  329   5.236   3.322   6.434  0.0604 -0.0757 -0.0050
    1AU    AUSL  330   5.392   3.140   6.820 -0.0559 -0.0200  0.0437
    1AU     AUL  331   5.478   3.466   6.672 -0.0656  0.0350  0.0125
    1AU       S  332   5.213   3.664   6.337 -0.1143  0.1257 -0.0578
    1AU     LIG  333   5.334   3.975   6.110  0.0076 -0.1748  0.0904
    1AU     LIG  334   5.289   4.378   5.996  0.1914  0.1940 -0.2095
    1AU     LIG  335   5.135   4.446   5.611 -0.2249  0.0883  0.0641
    1AU     LIG  336   4.832   4.395   5.278  0.2334 -0.1374 -0.1372
    1AU       S  337   5.821   3.156   6.619 -0.3068  0.2151 -0.1074
    1AU     LIG  338   6.198   3.397   6.515 -0.5402  0.0935 -0.3893
    1AU     LIG  339   6.611   3.507   6.596  0.2087  0.1328  0.1772
    1AU     LIG  340   6.891   3.819   6.545  0.1419  0.0494 -0.1094
    1AU     LIG  341   6.951   4.308   6.605  0.3247  0.2204  0.1187
    1AU    AUSL  342   5.033   3.379   6.835 -0.0086  0.0094 -0.0285
    1AU    AUSL  343   4.445   3.426   6.627  0.0717  0.0106  0.0303
    1AU     AUL  344   4.708   3.530   6.796 -0.0867 -0.0596  0.0051
    1AU       S  345   4.228   3.599   6.764 -0.0788 -0.4261  0.1046
    1AU     LIG  346   4.048   4.017   6.752  0.0655 -0.0541  0.2509
    1AU     LIG  347   4.251   4.455   6.746  0.2235 -0.2502 -0.1816
    1AU     LIG  348   4.112   4.921   6.893 -0.1186  0.0885  0.3378
    1AU     LIG  349   3.936   5.214   6.638 -0.0208  0.1389 -0.0594
    1AU       S  350   5.109   3.748   6.675  0.0572 -0.0545  0.0286
    1AU     LIG  351   5.499   3.956   6.640 -0.0037 -0.0678  0.0334
    1AU     LIG  352   5.710   4.216   6.321  0.1701  0.1629 -0.2847
    1AU     LIG  353   6.135   4.419   6.309  0.3375  0.0601 -0.2070
    1AU     LIG  354   6.476   4.649   6.216  0.0002 -0.0316  0.2881
    1AU    AUSL  355   4.046   2.155   6.315  0.0530 -0.0212 -0.0799
    1AU    AUSL  356   4.016   2.094   6.738 -0.1253 -0.0375 -0.0056
    1AU     AUL  357   3.738   2.180   6.428 -0.0681  0.0731  0.0028
    1AU       S  358   3.723   1.748   6.239 -0.1881 -0.0299  0.1143
    1AU     LIG  359   3.297   1.721   6.561  0.0229 -0.1495  0.0412
    1AU     LIG  360   2.962   1.453   6.557 -0.0086  0.1559 -0.4909
    1AU     LIG  361   2.739   1.141   6.626 -0.0003  0.4754  0.4104
    1AU     LIG  362   2.310   0.938   6.674 -0.2839  0.1309 -0.3587
    1AU       S  363   3.806   1.978   6.844 -0.3113 -0.1086 -0.4223
    1AU     LIG  364   3.451   1.736   7.061 -0.1110  0.0382  0.1338
    1AU     LIG  365   3.166   1.443   7.052  0.4943 -0.1014 -0.0633
    1AU     LIG  366   2.719   1.440   7.030  0.2713  0.0527 -0.0835
    1AU     LIG  367   2.359   1.441   6.942 -0.1518  0.1699 -0.0894
    1AU    AUSL  368   4.287   1.829   6.099  0.0606  0.0723 -0.0983
    1AU    AUSL  369   3.945   2.427   6.030 -0.0583 -0.1030 -0.0982
    1AU     AUL  370   4.024   2.020   5.981  0.0518 -0.0220  0.0481
    1AU       S  371   3.922   1.582   6.060 -0.1301  0.3402 -0.1562
    1AU     LIG  372   3.993   1.112   6.030  0.1180 -0.3198 -0.4156
    1AU     LIG  373   4.241   0.736   6.144 -0.1851  0.3233  0.0324
    1AU     LIG  374   4.545   0.677   6.445  0.1594 -0.1157 -0.1986
    1AU     LIG  375   4.968   0.598   6.539 -0.0629 -0.3173 -0.3195
    1AU       S  376   3.801   2.455   5.910  0.0234  0.0846  0.0729
    1AU     LIG  377   3.451   2.359   6.027 -0.1180  0.0751 -0.2111
    1AU     LIG  378   3.290   1.990   6.169 -0.4684 -0.2221 -0.1735
    1AU     LIG  379   2.937   1.973   6.361  0.0523  0.0052  0.1652
    1AU     LIG  380   2.602   1.783   6.536 -0.1346  0.1408 -0.4067
    1AU    AUSL  381   4.153   1.766   6.511 -0.0008  0.0155 -0.0975
    1AU    AUSL  382   4.581   1.837   6.405  0.0184  0.0165 -0.0376
    1AU     AUL  383   4.347   1.547   6.277  0.0631  0.0141  0.0686
    1AU       S  384   4.387   1.383   6.687  0.1350 -0.1428 -0.0372
    1AU     LIG  385   4.135   1.076   6.586  0.2562 -0.1160  0.6883
    1AU     LIG  386   4.139   0.610   6.655  0.1083  0.1772 -0.0126
    1AU     LIG  387   4.082   0.185   6.329 -0.4418  0.1036 -0.2658
    1AU     LIG  388   4.119  -0.217   6.037 -0.0923 -0.2329 -0.0614
    1AU       S  389   3.891   1.695   6.408 -0.1149  0.1478  0.3297
    1AU     LIG  390   3.803   1.482   6.728 -0.0614  0.2521 -0.0048
    1AU     LIG  391   3.783   1.196   6.953  0.0640 -0.0493 -0.2095
    1AU     LIG  392   3.679   0.802   6.697  0.1112  0.3483  0.2796
    1AU     LIG  393   3.729   0.491   6.845  0.2852  0.1954 -0.2089
    1AU    AUSL  394   5.586   2.732   6.793 -0.0314 -0.0681 -0.0204
    1AU    AUSL  395   5.098   2.965   7.057 -0.0189 -0.0695  0.0506
    1AU     AUL  396   5.554   2.995   7.040 -0.0051 -0.0207 -0.0179
    1AU       S  397   5.906   2.985   6.728 -0.0746 -0.0694 -0.3412
    1AU     LIG  398   6.106   2.703   6.921  0.2087 -0.2168 -0.1838
    1AU     LIG  399   6.423   2.601   7.269  0.3184  0.3621  0.0507
    1AU     LIG  400   6.567   2.853   7.556  0.4591 -0.2269  0.0204
    1AU     LIG  401   6.711   3.236   7.702 -0.1253 -0.2855  0.1302
    1AU       S  402   5.213   3.199   7.301  0.1633  0.1234  0.0972
    1AU     LIG  403   5.254   3.601   7.207  0.2970  0.0489  0.1588
    1AU     LIG  404   5.106   4.053   7.085 -0.2466 -0.1028  0.1879
    1AU     LIG  405   5.192   4.413   7.015  0.1078 -0.2914 -0.3247
    1AU     LIG  406   5.541   4.644   6.777 -0.5735 -0.3068 -0.0376
    1AU    AUSL  407   5.385   2.925   6.448 -0.0499  0.0075 -0.1051
    1AU    AUSL  408   5.470   2.501   6.455  0.0421 -0.0066 -0.0530
    1AU     AUL  409   5.739   2.662   6.465 -0.0438  0.0053 -0.0008
    1AU       S  410   5.695   3.123   6.395  0.5312  0.0788 -0.2653
    1AU     LIG  411   5.795   3.560   6.254  0.3276 -0.3252  0.0541
    1AU     LIG  412   6.137   3.900   6.286  0.1756  0.0278 -0.0009
    1AU     LIG  413   6.465   4.060   6.328 -0.2617 -0.1838 -0.1015
    1AU     LIG  414   6.870   4.236   6.077  0.1890 -0.0063 -0.3696
    1AU       S  415   5.968   2.553   6.096 -0.0437  0.3915 -0.0600
    1AU     LIG  416   6.097   2.380   6.478  0.2947 -0.2320  0.0225
    1AU     LIG  417   6.574   2.455   6.680 -0.0088 -0.1402 -0.0879
    1AU     LIG  418   6.830   2.750   6.851 -0.1338  0.0189 -0.2945
    1AU     LIG  419   7.073   3.125   6.700  0.0432 -0.2859  0.0955
    1AU    AUSL  420   4.820   1.627   6.729  0.0588 -0.0530 -0.0793
    1AU    AUSL  421   4.749   1.708   6.052  0.0225  0.0486  0.0285
    1AU     AUL  422   4.801   1.492   6.390  0.0911  0.0536  0.0898
    1AU       S  423   4.940   1.555   5.921 -0.1447  0.0837 -0.1172
    1AU     LIG  424   4.473   1.565   5.712 -0.0662  0.0828 -0.2296
    1AU     LIG  425   4.168   1.599   5.594 -0.1045  0.1445  0.0659
    1AU     LIG  426   3.778   1.359   5.681 -0.0871  0.0422  0.0411
    1AU     LIG  427   3.561   1.298   6.184  0.1339 -0.1377  0.1651
    1AU       S  428   4.536   1.288   6.724  0.1590 -0.2590  0.0473
    1AU     LIG  429   4.671   0.817   6.883 -0.2698  0.2869 -0.1405
    1AU     LIG  430   4.650   0.337   6.908 -0.1622 -0.1703  0.0558
    1AU     LIG  431   4.485  -0.059   6.793 -0.0791  0.0717  0.3305
    1AU     LIG  432   4.587  -0.098   6.290  0.4895  0.1784 -0.2426
    1AU    AUSL  433   4.435   1.832   6.820 -0.0023  0.0800  0.1041
    1AU    AUSL  434   4.893   1.935   7.020 -0.0207 -0.0868 -0.0202
    1AU     AUL  435   4.700   1.602   7.047  0.0671 -0.0002  0.0149
    1AU       S  436   4.254   1.523   6.901 -0.1420  0.2508  0.2462
    1AU     LIG  437   4.307   1.212   7.205  0.0796  0.2507 -0.0551
    1AU     LIG  438   4.175   0.881   7.168 -0.2116  0.2323 -0.1634
    1AU     LIG  439   4.248   0.410   7.202  0.2597 -0.1455 -0.1557
    1AU     LIG  440   4.043   0.210   6.974 -0.2932  0.1116  0.1978
    1AU       S  441   5.010   1.591   7.427  0.2057 -0.0673  0.1372
    1AU     LIG  442   5.252   1.387   7.003 -0.1252 -0.1881 -0.0857
    1AU     LIG  443   5.058   1.102   6.635  0.1713 -0.1504 -0.0110
    1AU     LIG  444   5.015   1.071   6.266  0.2909 -0.0384  0.0830
    1AU     LIG  445   4.594   1.161   6.097  0.1084 -0.0428  0.3184
    2POPC   NC3  446   3.209   0.830   9.816  0.4287 -0.3312 -0.3550
    2POPC   PO4  447   3.254   1.027   9.419  0.3165 -0.0519  0.2372
    2POPC   GL1  448   3.421   1.272   9.155  0.1063 -0.1780  0.0890
    2POPC   GL2  449   3.251   1.194   8.916 -0.0700 -0.1243  0.1138
    2POPC   C1A  450   3.475   1.674   9.176  0.2515  0.1849 -0.0219
    2POPC   D2A  451   3.459   2.002   8.923 -0.0331 -0.2780  0.2320
    2POPC   C3A  452   3.254   2.187   8.465  0.0306  0.0800  0.2308
    2POPC   C4A  453   3.187   2.063   8.019  0.2525  0.1255 -0.0375
    2POPC   C1B  454   3.220   1.536   8.606  0.1219 -0.1654  0.0244
    2POPC   C2B  455   3.029   1.611   8.240 -0.1494  0.1519 -0.0538
    2POPC   C3B  456   2.854   1.501   7.891 -0.0245 -0.0181 -0.0041
    2POPC   C4B  457   2.774   1.197   7.548  0.2254  0.0407 -0.1368
    3POPC   NC3  458   8.498   6.229   8.517 -0.1612 -0.4450 -0.0461
    3POPC   PO4  459   8.489   6.700   8.486  0.0743 -0.2656 -0.0996
    3POPC   GL1  460   8.170   6.732   8.268 -0.3327 -0.1292 -0.0527
    3POPC   GL2  461   7.835   6.825   8.329 -0.1314 -0.2642 -0.0297
    3POPC   C1A  462   8.196   6.750   7.780  0.1195 -0.1279 -0.3467
    3POPC   D2A  463   8.091   6.698   7.407 -0.3350  0.0626  0.0804
    3POPC   C3A  464   7.940   6.363   7.210  0.1667 -0.1123 -0.0166
    3POPC   C4A  465   7.984   6.028   6.877 -0.0691  0.0362 -0.2966
    3POPC   C1B  466   7.723   6.881   7.888  0.2473  0.2887  0.1772
    3POPC   C2B  467   7.914   7.123   7.585 -0.2387 -0.3914  0.2809
    3POPC   C3B  468   8.223   7.138   7.211  0.0924 -0.2583 -0.1590
    3POPC   C4B  469   8.553   7.038   7.186 -0.0662  0.0191 -0.0387
    4POPC   NC3  470   9.755   0.255   9.090 -0.3255 -0.1174  0.0006
    4POPC   PO4  471  10.010  -0.161   9.214 -0.2791 -0.0958 -0.1338
    4POPC   GL1  472   9.953  -0.027   8.768  0.2227 -0.1296  0.0623
    4POPC   GL2  473  10.183   0.080   8.600  0.0529  0.1401 -0.1775
    4POPC   C1A  474   9.778  -0.128   8.402  0.0175 -0.1142 -0.3432
    4POPC   D2A  475   9.661  -0.184   8.042  0.0229  0.1577 -0.0046
    4POPC   C3A  476   9.457  -0.083   7.597  0.2560  0.3444  0.1530
    4POPC   C4A  477   9.167  -0.239   7.296 -0.2175  0.0767  0.0141
    4POPC   C1B  478  10.323  -0.270   8.355  0.1691 -0.0358  0.0059
    4POPC   C2B  479   9.928  -0.561   8.226 -0.1707  0.0984  0.0352
    4POPC   C3B  480   9.729  -0.638   7.758  0.1310 -0.1908 -0.0193
    4POPC   C4B  481   9.672  -0.722   7.365  0.1700 -0.0423  0.2360
    5POPC   NC3  482   1.438   0.762   8.660  0.0878  0.0506  0.3965
    5POPC   PO4  483   1.830   0.573   8.894 -0.0739 -0.0933 -0.0601
    5POPC   GL1  484   1.982   0.582   8.414 -0.1640  0.0735 -0.1721
    5POPC   GL2  485   1.954   0.352   8.084 -0.0404  0.2928  0.1473
    5POPC   C1A  486   2.261   0.737   8.233 -0.1875 -0.1097  0.0052
    5POPC   D2A  487   2.273   1.152   8.325  0.0428  0.0618 -0.0196
    5POPC   C3A  488   2.173   1.406   7.935  0.1743  0.0569  0.0204
    5POPC   C4A  489   2.245   1.455   7.612  0.1377 -0.2664 -0.0454
    5POPC   C1B  490   1.870   0.555   7.621  0.0542 -0.1833  0.1657
    5POPC   C2B  491   1.768   0.747   7.187 -0.2252  0.0450 -0.1567
    5POPC   C3B  492   1.525   0.738   6.775 -0.2942  0.1183 -0.0494
    5POPC   C4B  493   1.269   0.682   6.515  0.1683 -0.0772  0.1857
    6POPC   NC3  494   0.854   5.080   8.299  0.0241 -0.0756  0.0034
    6POPC   PO4  495   0.767   5.493   8.435 -0.1362 -0.1380 -0.0268
    6POPC   GL1  496   0.866   5.544   8.009 -0.1393 -0.1197 -0.0374
    6POPC   GL2  497   0.597   5.387   7.896  0.1384 -0.4266  0.1382
    6POPC   C1A  498   0.941   5.980   7.761  0.0128  0.0214  0.2418
    6POPC   D2A  499   1.190   6.133   7.453  0.2679 -0.2705 -0.1690
    6POPC   C3A  500   1.216   5.862   7.070 -0.2105 -0.0134 -0.2339
    6POPC   C4A  501   1.184   5.630   6.699 -0.0077  0.2976  0.1559
    6POPC   C1B  502   0.468   5.277   7.394  0.3081 -0.1262 -0.1662
    6POPC   C2B  503   0.442   5.155   6.917 -0.1457  0.1583 -0.1231
    6POPC   C3B  504   0.516   4.890   6.573  0.0530 -0.0492  0.5394
    6POPC   C4B  505   0.666   4.558   6.061 -0.0538  0.3247 -0.0531
    7POPC   NC3  506   7.072   2.544   9.081  0.0996 -0.0682  0.3714
    7POPC   PO4  507   6.922   2.122   9.083  0.2997 -0.1522 -0.0862
    7POPC   GL1  508   6.902   2.178   8.665  0.0762  0.0559  0.2491
    7POPC   GL2  509   7.021   1.986   8.364  0.0084  0.1415  0.2321
    7POPC   C1A  510   6.574   2.103   8.295  0.1989 -0.0229  0.2418
    7POPC   D2A  511   6.557   2.467   8.153  0.2988 -0.1423 -0.1973
    7POPC   C3A  512   6.421   2.411   7.775 -0.1415 -0.2843  0.1554
    7POPC   C4A  513   6.264   2.164   7.533 -0.0669  0.1099  0.0642
    7POPC   C1B  514   7.021   1.614   7.934 -0.2592 -0.0211 -0.0581
    7POPC   C2B  515   6.863   1.631   7.504 -0.1477 -0.2325 -0.0412
    7POPC   C3B  516   6.956   1.710   7.081 -0.0173  0.2191  0.2432
    7POPC   C4B  517   7.182   1.639   6.707  0.0424 -0.1506  0.2608
    8POPC   NC3  518   3.931   5.176   8.927 -0.1759  0.0763 -0.0216
    8POPC   PO4  519   4.025   4.886   8.657  0.0336  0.1955 -0.2762
    8POPC   GL1  520   4.133   4.721   8.249  0.0618 -0.2727  0.0582
    8POPC   GL2  521   4.441   4.921   8.150  0.0499  0.0441  0.2099
    8POPC   C1A  522   4.205   4.513   7.879 -0.1034 -0.1680  0.0034
    8POPC   D2A  523   4.274   4.313   7.540  0.1018 -0.2343  0.1452
    8POPC   C3A  524   4.565   3.888   7.478  0.0837  0.0652  0.0933
    8POPC   C4A  525   4.759   3.540   7.488  0.0188 -0.3449  0.3084
    8POPC   C1B  526   4.481   4.914   7.722 -0.0937  0.1256 -0.1562
    8POPC   C2B  527   4.452   5.132   7.380 -0.6250  0.1036 -0.1219
    8POPC   C3B  528   4.552   5.358   7.048  0.0089  0.1336  0.0331
    8POPC   C4B  529   4.371   5.437   6.625  0.1841 -0.2944  0.0835
    9POPC   NC3  530   0.104   4.172   8.262  0.2785  0.1226 -0.0288
    9POPC   PO4  531  -0.043   4.679   8.410  0.2587  0.2130  0.3470
    9POPC   GL1  532  -0.100   4.707   7.899  0.1702 -0.1173 -0.3668
    9POPC   GL2  533  -0.311   4.475   7.834  0.2036  0.2441 -0.0259
    9POPC   C1A  534  -0.205   4.839   7.505  0.1599  0.3176  0.1139
    9POPC   D2A  535  -0.005   5.060   7.243 -0.0730  0.2041  0.0851
    9POPC   C3A  536   0.093   4.770   6.817  0.1991 -0.0190 -0.1513
    9POPC   C4A  537  -0.085   4.504   6.595 -0.1000  0.0565 -0.3136
    9POPC   C1B  538  -0.294   4.239   7.409 -0.2628 -0.1378  0.1309
    9POPC   C2B  539  -0.381   4.559   7.055  0.0062 -0.4419 -0.5044
    9POPC   C3B  540  -0.583   4.641   6.634  0.1067  0.0703 -0.2668
    9POPC   C4B  541  -0.662   4.927   6.314  0.0321  0.1499  0.0815
   10POPC   NC3  542   1.778   9.196   8.511  0.1387  0.1715  0.3206
   10POPC   PO4  543   1.558   9.561   8.638 -0.2546  0.0537  0.1109
   10POPC   GL1  544   1.624   9.811   8.253  0.1712  0.1256 -0.5360
   10POPC   GL2  545   1.565   9.460   8.124 -0.0732 -0.0854  0.0880
   10POPC   C1A  546   1.563   9.990   7.933  0.2477 -0.0560  0.0183
   10POPC   D2A  547   1.168  10.027   7.807 -0.2247  0.1752  0.2486
   10POPC   C3A  548   1.059   9.870   7.464  0.2045  0.0355 -0.1439
   10POPC   C4A  549   1.250   9.733   7.089 -0.1844  0.1446  0.0777
   10POPC   C1B  550   1.882   9.526   7.787  0.0671 -0.1995  0.0282
   10POPC   C2B  551   2.022   9.401   7.388 -0.0249 -0.0464 -0.0118
   10POPC   C3B  552   1.982   9.662   7.031  0.2268 -0.0563  0.2139
   10POPC   C4B  553   1.606   9.815   6.770 -0.0480 -0.1392 -0.1465
   11POPC   NC3  554   9.461   8.542   8.856  0.0630  0.3047  0.0122
   11POPC   PO4  555   9.202   8.199   8.662 -0.3311  0.1632 -0.1669
   11POPC   GL1  556   9.167   8.495   8.378  0.2732 -0.2796 -0.1116
   11POPC   GL2  557   9.334   8.310   8.154  0.2311 -0.1146  0.2549
   11POPC   C1A  558   9.045   8.786   8.007  0.1030 -0.0876  0.1297
   11POPC   D2A  559   8.763   8.789   7.511  0.0143  0.2087 -0.0988
   11POPC   C3A  560   8.861   9.135   7.287 -0.0491  0.0751 -0.2367
   11POPC   C4A  561   9.247   9.001   7.019  0.1422  0.1070  0.2528
   11POPC   C1B  562   9.485   8.244   7.728  0.2172 -0.2271  0.3308
   11POPC   C2B  563   9.566   8.140   7.327 -0.0360  0.0778 -0.1637
   11POPC   C3B  564   9.729   8.168   6.903 -0.0795 -0.2091  0.1185
   11POPC   C4B  565   9.932   8.105   6.576  0.2371 -0.0634 -0.0063
   12POPC   NC3  566   7.608   6.027   8.628 -0.2887 -0.2238  0.2553
   12POPC   PO4  567   7.895   5.790   8.475  0.1554  0.1168 -0.1573
   12POPC   GL1  568   8.080   5.638   8.106 -0.1334 -0.0042  0.2954
   12POPC   GL2  569   8.002   5.856   7.958  0.1209 -0.0057  0.0327
   12POPC   C1A  570   7.863   5.428   7.781  0.1035 -0.5731 -0.0602
   12POPC   D2A  571   7.541   5.117   7.641  0.0261 -0.2439  0.1667
   12POPC   C3A  572   7.103   5.067   7.860 -0.0530  0.1597 -0.0677
   12POPC   C4A  573   6.666   5.102   7.854  0.0071 -0.1007 -0.0055
   12POPC   C1B  574   8.066   6.255   7.678  0.0642 -0.1067  0.1803
   12POPC   C2B  575   7.618   6.474   7.555 -0.1180  0.0618  0.0124
   12POPC   C3B  576   7.625   6.816   7.212 -0.0469  0.1421  0.0111
   12POPC   C4B  577   7.604   7.141   6.906 -0.0109 -0.0028  0.0832
   13POPC   NC3  578   0.008   1.548   8.909  0.0286  0.2560 -0.2350
   13POPC   PO4  579  -0.410   1.613   8.793 -0.1457  0.1771 -0.0295
   13POPC   GL1  580  -0.451   1.409   8.401  0.2288 -0.5297  0.1254
   13POPC   GL2  581  -0.534   1.678   8.213 -0.0798 -0.0736 -0.1956
   13POPC   C1A  582  -0.300   1.334   7.980 -0.1444 -0.0243  0.0058
   13POPC   D2A  583  -0.316   1.102   7.648 -0.2493  0.3477 -0.0803
   13POPC   C3A  584  -0.363   1.441   7.350 -0.4335 -0.0099  0.0072
   13POPC   C4A  585  -0.072   1.725   7.120  0.2507  0.1619 -0.2965
   13POPC   C1B  586  -0.315   2.050   7.910 -0.2840  0.2792  0.1673
   13POPC   C2B  587  -0.521   2.072   7.538 -0.0405 -0.1232 -0.0156
   13POPC   C3B  588  -0.698   2.390   7.283 -0.1132  0.1536  0.0129
   13POPC   C4B  589  -1.123   2.180   7.091 -0.2276  0.1301  0.0743
   14POPC   NC3  590   0.311   7.515   8.765  0.1951 -0.3879 -0.0895
   14POPC   PO4  591   0.489   7.446   8.397  0.0141 -0.1366 -0.2920
   14POPC   GL1  592   0.328   7.321   7.991  0.1966 -0.5039  0.2294
   14POPC   GL2  593   0.227   6.991   7.952  0.3267  0.2440  0.1605
   14POPC   C1A  594   0.157   7.486   7.699  0.1726  0.0881  0.2032
   14POPC   D2A  595   0.062   7.826   7.341  0.0947  0.0808 -0.4116
   14POPC   C3A  596   0.184   7.755   6.965  0.0203 -0.2534 -0.0007
   14POPC   C4A  597   0.361   7.531   6.650  0.0090  0.1417 -0.0645
   14POPC   C1B  598   0.090   7.034   7.528  0.0710 -0.1291 -0.0476
   14POPC   C2B  599  -0.178   7.334   7.350 -0.0403  0.1900 -0.0178
   14POPC   C3B  600  -0.372   7.685   7.117  0.1129 -0.1059 -0.2980
   14POPC   C4B  601  -0.493   7.874   6.769 -0.0017  0.3694  0.1964
   15POPC   NC3  602   7.200   7.660   8.759 -0.1825  0.3564  0.1292
   15POPC   PO4  603   7.559   7.559   8.794 -0.1565 -0.2207  0.1549
   15POPC   GL1  604   7.798   7.359   8.462 -0.1828  0.1813  0.0285
   15POPC   GL2  605   8.086   7.241   8.358 -0.2515  0.0709 -0.1120
   15POPC   C1A  606   7.699   7.330   8.013  0.3287 -0.1534 -0.1033
   15POPC   D2A  607   7.580   7.564   7.667  0.2884 -0.4422 -0.3130
   15POPC   C3A  608   7.455   7.640   7.183  0.1671  0.1537 -0.0631
   15POPC   C4A  609   7.276   7.554   6.741  0.2522  0.0359  0.1173
   15POPC   C1B  610   8.218   7.183   8.002  0.2219  0.0296 -0.3856
   15POPC   C2B  611   8.201   7.544   7.638  0.3706 -0.0968 -0.1148
   15POPC   C3B  612   8.110   7.637   7.313  0.0446  0.2120 -0.0811
   15POPC   C4B  613   7.924   7.631   6.957  0.2334  0.0684 -0.1018
   16POPC   NC3  614   5.333   0.074   9.195  0.1956 -0.0394 -0.4052
   16POPC   PO4  615   5.499   0.435   9.040  0.0195  0.0207 -0.2487
   16POPC   GL1  616   5.356   0.552   8.609  0.4187  0.0425 -0.2563
   16POPC   GL2  617   5.642   0.512   8.431  0.2153 -0.2106  0.2670
   16POPC   C1A  618   5.273   0.683   8.153  0.0935 -0.5014  0.1617
   16POPC   D2A  619   5.145   0.886   7.775 -0.1367  0.0162  0.2470
   16POPC   C3A  620   5.184   0.981   7.306  0.2492 -0.3797 -0.0118
   16POPC   C4A  621   4.849   1.170   7.126 -0.1813  0.2267  0.0036
   16POPC   C1B  622   5.787   0.661   8.060  0.4996  0.2780  0.0056
   16POPC   C2B  623   5.640   0.704   7.643  0.0137 -0.0579  0.1670
   16POPC   C3B  624   5.695   0.985   7.291 -0.1862  0.1803  0.2252
   16POPC   C4B  625   5.979   1.256   7.133 -0.1443 -0.0202 -0.1523
   17POPC   NC3  626   0.503   2.469   8.573 -0.1375 -0.2775 -0.2534
   17POPC   PO4  627   0.340   2.036   8.635  0.1520  0.3743 -0.1945
   17POPC   GL1  628   0.439   2.033   8.210  0.1895 -0.0613 -0.0253
   17POPC   GL2  629   0.207   1.942   8.063 -0.0499  0.6315  0.0144
   17POPC   C1A  630   0.737   2.221   7.964 -0.0523  0.1398 -0.1496
   17POPC   D2A  631   0.540   2.484   7.653 -0.1392 -0.3207 -0.0586
   17POPC   C3A  632   0.735   2.404   7.299 -0.4778  0.5028 -0.2778
   17POPC   C4A  633   0.810   2.134   6.999  0.0199  0.1062  0.1911
   17POPC   C1B  634   0.060   1.672   7.731 -0.1150 -0.2500  0.1113
   17POPC   C2B  635   0.316   1.469   7.404 -0.1053  0.3657  0.0109
   17POPC   C3B  636   0.662   1.527   7.294 -0.3033 -0.3257 -0.1378
   17POPC   C4B  637   0.943   1.913   7.412  0.0154  0.1873  0.1566
   18POPC   NC3  638   3.499   6.304   8.370  0.1911 -0.1130 -0.0892
   18POPC   PO4  639   3.358   6.723   8.371  0.1073  0.0723  0.1641
   18POPC   GL1  640   3.455   6.806   7.957 -0.0016  0.2130  0.0138
   18POPC   GL2  641   3.761   6.759   7.920 -0.1989  0.0209 -0.0859
   18POPC   C1A  642   3.536   7.152   7.697  0.0836  0.3434 -0.0286
   18POPC   D2A  643   3.767   7.224   7.216 -0.2184  0.1847 -0.1837
   18POPC   C3A  644   3.913   7.542   6.924 -0.0679 -0.0266 -0.0137
   18POPC   C4A  645   4.007   7.429   6.493 -0.0632 -0.0973  0.2397
   18POPC   C1B  646   3.643   6.611   7.443  0.0013 -0.1074  0.0581
   18POPC   C2B  647   3.665   6.375   7.008 -0.0815 -0.2822 -0.2482
   18POPC   C3B  648   3.654   6.071   6.807 -0.0518 -0.0049  0.0020
   18POPC   C4B  649   3.583   5.704   6.680 -0.0845 -0.0574  0.0004
   19POPC   NC3  650   3.770   4.685   9.145  0.0680  0.1276 -0.1591
   19POPC   PO4  651   3.523   4.909   8.892 -0.2278  0.0492  0.0690
   19POPC   GL1  652   3.627   4.571   8.591 -0.1058 -0.3614  0.2684
   19POPC   GL2  653   3.823   4.376   8.704  0.0963  0.1723  0.0551
   19POPC   C1A  654   3.378   4.345   8.424  0.1079 -0.1628  0.1697
   19POPC   D2A  655   3.196   4.129   7.979 -0.1568  0.0847 -0.0547
   19POPC   C3A  656   3.382   4.352   7.608  0.0469  0.0762 -0.2247
   19POPC   C4A  657   3.399   4.394   7.176 -0.0772  0.2478  0.0962
   19POPC   C1B  658   3.973   3.973   8.674 -0.0716 -0.1314  0.0373
   19POPC   C2B  659   4.063   3.659   8.396  0.1000 -0.0885 -0.0522
   19POPC   C3B  660   4.427   3.500   8.185 -0.1035 -0.1128  0.1509
   19POPC   C4B  661   4.669   3.391   7.894  0.1527 -0.0044 -0.0108
   20POPC   NC3  662   0.443   4.388   8.629 -0.1530 -0.1266  0.1735
   20POPC   PO4  663   1.002   4.406   8.438 -0.2861  0.0270  0.0414
   20POPC   GL1  664   1.284   4.409   8.072  0.2332 -0.3295 -0.0896
   20POPC   GL2  665   1.236   4.147   8.074  0.0985 -0.1575  0.1016
   20POPC   C1A  666   1.198   4.520   7.706  0.1427 -0.2823 -0.0223
   20POPC   D2A  667   1.236   4.432   7.309  0.1711  0.1366 -0.0358
   20POPC   C3A  668   0.989   4.531   6.988 -0.2395  0.1915  0.2331
   20POPC   C4A  669   0.609   4.706   7.114  0.1392 -0.1605  0.4007
   20POPC   C1B  670   1.016   4.081   7.731 -0.0463  0.0114 -0.1888
   20POPC   C2B  671   0.854   3.921   7.289  0.4625 -0.0810 -0.2220
   20POPC   C3B  672   0.788   3.890   6.874 -0.0459  0.1047  0.1265
   20POPC   C4B  673   0.859   3.567   6.516  0.1150 -0.1190  0.2036
   21POPC   NC3  674   2.872   9.023   8.841  0.0784  0.1145 -0.1153
   21POPC   PO4  675   2.921   9.360   8.705  0.0401  0.0447  0.0023
   21POPC   GL1  676   2.921   9.568   8.297 -0.1275 -0.2739  0.1517
   21POPC   GL2  677   3.225   9.616   8.191 -0.3023  0.1169 -0.0104
   21POPC   C1A  678   2.841   9.764   7.920 -0.1012  0.0214  0.1387
   21POPC   D2A  679   2.822  10.055   7.609 -0.0183  0.1648  0.1604
   21POPC   C3A  680   2.422  10.242   7.661  0.1017  0.1010 -0.0023
   21POPC   C4A  681   2.048   9.995   7.660 -0.1222 -0.0233  0.0850
   21POPC   C1B  682   3.328   9.806   7.774 -0.1690  0.0038 -0.3193
   21POPC   C2B  683   3.277   9.931   7.373 -0.0311 -0.2452  0.0799
   21POPC   C3B  684   3.235  10.039   6.943 -0.0624  0.2410 -0.1087
   21POPC   C4B  685   3.395  10.228   6.474  0.0937  0.0681  0.0311
   22POPC   NC3  686   1.857   2.098   8.808  0.2138  0.3826  0.3630
   22POPC   PO4  687   1.724   2.548   8.944  0.2750  0.2208 -0.1788
   22POPC   GL1  688   1.794   2.533   8.482 -0.1079 -0.0165 -0.0518
   22POPC   GL2  689   1.677   2.278   8.324 -0.0037  0.1801 -0.0279
   22POPC   C1A  690   1.766   2.803   8.111  0.0379 -0.0958 -0.2200
   22POPC   D2A  691   1.851   2.832   7.642  0.0067 -0.1659  0.2475
   22POPC   C3A  692   2.052   3.166   7.405 -0.2065 -0.1563 -0.1297
   22POPC   C4A  693   1.953   3.356   7.059  0.1450  0.3881  0.2066
   22POPC   C1B  694   1.812   2.366   7.895 -0.0398 -0.1269 -0.0334
   22POPC   C2B  695   1.832   2.328   7.441  0.2063 -0.2147  0.0245
   22POPC   C3B  696   1.819   2.343   6.947  0.1852 -0.0476  0.1296
   22POPC   C4B  697   2.164   2.159   6.624 -0.1400  0.0689  0.0834
   23POPC   NC3  698   8.826   3.487   7.987  0.2937  0.1143  0.1047
   23POPC   PO4  699   8.650   3.111   7.937  0.3382 -0.3231  0.1381
   23POPC   GL1  700   8.619   3.424   7.494 -0.2714  0.2055 -0.0521
   23POPC   GL2  701   8.731   3.725   7.261 -0.1384  0.0033  0.0138
   23POPC   C1A  702   8.598   3.286   6.983 -0.2621  0.2005  0.0937
   23POPC   D2A  703   8.436   3.379   6.635 -0.0262 -0.1551 -0.0760
   23POPC   C3A  704   7.970   3.383   6.716  0.3112  0.0886 -0.2606
   23POPC   C4A  705   7.578   3.215   6.684  0.2397  0.0717 -0.1858
   23POPC   C1B  706   8.369   3.712   7.081  0.0383  0.1349 -0.1975
   23POPC   C2B  707   8.120   3.910   6.741 -0.1603  0.1939  0.2767
   23POPC   C3B  708   7.955   4.235   6.512 -0.2293 -0.1805  0.0184
   23POPC   C4B  709   7.974   4.559   6.273  0.0855  0.0528 -0.2000
   24POPC   NC3  710   8.301   2.688   8.836  0.0273  0.0637  0.0631
   24POPC   PO4  711   7.997   2.527   8.634  0.1571 -0.1428  0.0800
   24POPC   GL1  712   7.955   2.424   8.238 -0.1283 -0.1367  0.0347
   24POPC   GL2  713   7.627   2.379   8.234  0.3694 -0.3055  0.1856
   24POPC   C1A  714   7.991   2.617   7.822  0.0480  0.1444 -0.1923
   24POPC   D2A  715   7.930   2.563   7.408 -0.1138  0.0888 -0.0014
   24POPC   C3A  716   7.547   2.638   7.430 -0.0529 -0.1696 -0.0243
   24POPC   C4A  717   7.355   2.372   7.682 -0.3593  0.2521  0.3457
   24POPC   C1B  718   7.857   2.143   7.857  0.0644  0.1838  0.0935
   24POPC   C2B  719   7.793   2.058   7.449  0.0585 -0.4336  0.1363
   24POPC   C3B  720   7.982   1.898   7.084  0.0165  0.0384  0.1988
   24POPC   C4B  721   7.723   1.514   6.910  0.1288 -0.0762 -0.0452
   25POPC   NC3  722   7.852   8.874   8.504  0.2861 -0.1022  0.3100
   25POPC   PO4  723   8.002   9.065   8.912 -0.3236  0.0053 -0.2080
   25POPC   GL1  724   8.096   9.339   8.591 -0.3027  0.1845 -0.1974
   25POPC   GL2  725   8.518   9.296   8.518  0.0880 -0.1837 -0.0693
   25POPC   C1A  726   7.880   9.618   8.233 -0.0579  0.4915 -0.0249
   25POPC   D2A  727   7.640   9.921   7.900  0.0910  0.2092 -0.0004
   25POPC   C3A  728   7.553   9.812   7.544 -0.0327 -0.0156 -0.1406
   25POPC   C4A  729   7.410   9.711   7.239  0.0695 -0.0377  0.1997
   25POPC   C1B  730   8.275   9.370   8.078 -0.0060  0.1186  0.2482
   25POPC   C2B  731   7.948   9.191   7.935  0.0791  0.0314  0.0390
   25POPC   C3B  732   7.792   8.832   7.835  0.2707  0.0099 -0.0989
   25POPC   C4B  733   7.814   8.477   7.576  0.2036 -0.0941  0.2255
   26POPC   NC3  734   8.224   9.609   8.953 -0.0679  0.0237  0.0044
   26POPC   PO4  735   8.585   9.939   9.048 -0.1142 -0.1907 -0.1801
   26POPC   GL1  736   8.478   9.941   8.669  0.0219 -0.2593  0.3783
   26POPC   GL2  737   8.277   9.789   8.478  0.2209  0.0859  0.4795
   26POPC   C1A  738   8.758  10.014   8.359 -0.2580 -0.2847 -0.0107
   26POPC   D2A  739   9.059  10.335   8.302  0.1351  0.2912  0.0382
   26POPC   C3A  740   9.378  10.175   8.066 -0.2719  0.2962  0.2391
   26POPC   C4A  741   9.764  10.195   7.745  0.0727  0.0445  0.0849
   26POPC   C1B  742   8.316   9.931   8.046  0.1550  0.2031  0.1825
   26POPC   C2B  743   8.267  10.097   7.654  0.2119  0.0798  0.0934
   26POPC   C3B  744   8.235   9.942   7.274  0.0613  0.1347  0.2779
   26POPC   C4B  745   8.164   9.758   6.829  0.1027 -0.0757 -0.0439
   27POPC   NC3  746   4.435   5.125   8.719 -0.1815  0.0786  0.1036
   27POPC   PO4  747   4.366   5.499   8.762  0.2139  0.1393  0.0699
   27POPC   GL1  748   4.176   5.526   8.318 -0.2369 -0.1070 -0.1753
   27POPC   GL2  749   4.013   5.283   8.285 -0.1481 -0.1251  0.1977
   27POPC   C1A  750   4.448   5.418   7.885 -0.2442  0.2312  0.1590
   27POPC   D2A  751   4.811   5.482   7.596 -0.0135  0.0505  0.1477
   27POPC   C3A  752   4.964   5.407   7.291 -0.1496  0.0433 -0.0982
   27POPC   C4A  753   5.280   5.561   7.008 -0.3121  0.0523 -0.2844
   27POPC   C1B  754   3.994   4.974   7.854  0.2553 -0.2345  0.0890
   27POPC   C2B  755   3.769   4.779   7.657  0.0224  0.2284 -0.1484
   27POPC   C3B  756   3.667   4.784   7.232 -0.1283 -0.3085 -0.0829
   27POPC   C4B  757   3.683   4.658   6.747 -0.0170 -0.3879  0.2251
   28POPC   NC3  758   5.933   0.395   8.807 -0.1183  0.2284  0.0444
   28POPC   PO4  759   5.740   0.024   8.779  0.1310  0.1808 -0.0292
   28POPC   GL1  760   5.553  -0.146   8.379  0.1365 -0.3575 -0.1603
   28POPC   GL2  761   5.632  -0.403   8.169 -0.0887 -0.0284 -0.0887
   28POPC   C1A  762   5.222   0.206   8.280 -0.0204  0.1246 -0.0517
   28POPC   D2A  763   4.921   0.315   7.985 -0.2111  0.0454  0.0137
   28POPC   C3A  764   4.641   0.760   7.892 -0.0640  0.0698 -0.0513
   28POPC   C4A  765   4.311   1.069   7.958 -0.4980  0.0220  0.0518
   28POPC   C1B  766   5.562  -0.329   7.707  0.1255  0.0785  0.0974
   28POPC   C2B  767   5.762  -0.081   7.416 -0.0123 -0.1081  0.2293
   28POPC   C3B  768   5.956  -0.041   7.020  0.0024 -0.1004  0.1012
   28POPC   C4B  769   6.262   0.289   6.990 -0.0283  0.0402  0.0191
   29POPC   NC3  770   8.998   3.958   8.071 -0.2427  0.1737  0.3169
   29POPC   PO4  771   9.278   3.646   8.069  0.3443 -0.0693  0.1489
   29POPC   GL1  772   9.169   3.471   7.691  0.0079  0.0228  0.0514
   29POPC   GL2  773   9.510   3.380   7.627 -0.1088  0.3951  0.1371
   29POPC   C1A  774   9.024   3.113   7.398  0.1662 -0.0084  0.1631
   29POPC   D2A  775   8.908   2.788   7.111 -0.2844  0.0611 -0.0017
   29POPC   C3A  776   9.095   2.577   6.866  0.1925  0.0860  0.0601
   29POPC   C4A  777   9.188   2.171   6.773  0.0744 -0.0084  0.1439
   29POPC   C1B  778   9.764   3.204   7.241  0.1156  0.1967  0.3646
   29POPC   C2B  779  10.025   3.419   7.090 -0.2873 -0.0401  0.1550
   29POPC   C3B  780  10.172   3.814   7.082  0.2509 -0.0776 -0.0691
   29POPC   C4B  781  10.156   4.060   7.457  0.0995  0.2672 -0.2625
   30POPC   NC3  782   6.300   8.151   8.323 -0.0801 -0.1433  0.0466
   30POPC   PO4  783   6.617   7.884   8.135  0.0772  0.0606 -0.1972
   30POPC   GL1  784   6.415   8.015   7.762  0.2983  0.0511  0.2390
   30POPC   GL2  785   6.078   7.916   7.858 -0.0468  0.2674 -0.3304
   30POPC   C1A  786   6.300   8.370   7.474  0.0604  0.3578  0.0532
   30POPC   D2A  787   5.969   8.499   7.150  0.0282 -0.3309  0.0209
   30POPC   C3A  788   6.010   8.797   6.802  0.2238 -0.1587 -0.2264
   30POPC   C4A  789   6.370   8.825   6.489  0.0305  0.2919  0.0706
   30POPC   C1B  790   5.970   7.741   7.467  0.0547 -0.0039 -0.2008
   30POPC   C2B  791   5.797   7.992   7.167 -0.0701  0.1035  0.1834
   30POPC   C3B  792   5.651   8.236   6.834  0.0738  0.2023  0.2048
   30POPC   C4B  793   5.492   8.142   6.406 -0.0597 -0.1929  0.3113
   31POPC   NC3  794   5.881   7.538   8.718  0.2460  0.0821 -0.1481
   31POPC   PO4  795   5.915   7.178   8.417 -0.1125  0.3536 -0.0916
   31POPC   GL1  796   5.788   7.342   8.076 -0.1475 -0.1662  0.0335
   31POPC   GL2  797   5.940   7.267   7.880 -0.0139 -0.5749  0.3414
   31POPC   C1A  798   5.579   7.436   7.586 -0.1022  0.1350 -0.0635
   31POPC   D2A  799   5.467   7.849   7.550 -0.1180  0.3039  0.2522
   31POPC   C3A  800   5.313   7.994   7.119 -0.1238  0.0544 -0.1718
   31POPC   C4A  801   4.870   7.902   6.890  0.2190  0.2041 -0.1723
   31POPC   C1B  802   6.160   7.215   7.458  0.2718  0.0621 -0.2513
   31POPC   C2B  803   6.577   7.232   7.154  0.0340 -0.1110 -0.2166
   31POPC   C3B  804   6.666   7.355   6.701  0.0813 -0.1179 -0.0014
   31POPC   C4B  805   6.631   7.117   6.316  0.0168  0.2016 -0.0578
   32POPC   NC3  806   0.873   8.208   8.210  0.2980  0.1560  0.3334
   32POPC   PO4  807   0.639   7.914   8.403  0.0878  0.0492 -0.0757
   32POPC   GL1  808   0.534   7.863   8.006  0.1918  0.1645 -0.0411
   32POPC   GL2  809   0.253   7.866   7.939 -0.1079  0.1217 -0.0722
   32POPC   C1A  810   0.694   7.557   7.714  0.1351 -0.1655  0.0453
   32POPC   D2A  811   0.588   7.541   7.245 -0.0778  0.1645 -0.0576
   32POPC   C3A  812   0.242   7.271   7.044 -0.0849 -0.0925 -0.3445
   32POPC   C4A  813  -0.165   7.417   6.717  0.0627 -0.3006 -0.2240
   32POPC   C1B  814   0.466   7.934   7.528 -0.1424  0.1749 -0.1727
   32POPC   C2B  815   0.599   8.132   7.197  0.1964  0.1613 -0.0665
   32POPC   C3B  816   0.468   8.173   6.809  0.0987 -0.2031 -0.0967
   32POPC   C4B  817   0.369   8.430   6.426  0.1410 -0.1825 -0.1991
   33POPC   NC3  818   7.122   9.662   9.056 -0.2893 -0.3120 -0.2099
   33POPC   PO4  819   7.548   9.720   8.760 -0.3831  0.0848  0.1003
   33POPC   GL1  820   7.351   9.856   8.377  0.2343 -0.5617  0.1754
   33POPC   GL2  821   7.395  10.219   8.265 -0.0674 -0.0071  0.1634
   33POPC   C1A  822   7.203   9.665   8.006  0.2986 -0.1078 -0.1194
   33POPC   D2A  823   7.091   9.560   7.599  0.1736 -0.0058 -0.0862
   33POPC   C3A  824   6.838   9.764   7.339  0.0275 -0.0442 -0.0806
   33POPC   C4A  825   6.715  10.040   7.055 -0.0160  0.1599  0.2916
   33POPC   C1B  826   7.332  10.455   7.834  0.1273 -0.3867 -0.0291
   33POPC   C2B  827   7.192  10.170   7.620  0.3554  0.2654  0.0257
   33POPC   C3B  828   7.170  10.145   7.253  0.0485  0.1281 -0.0861
   33POPC   C4B  829   7.175   9.996   6.887  0.0703 -0.0528  0.2853
   34POPC   NC3  830   9.859   5.974   8.243  0.1348  0.1500 -0.0787
   34POPC   PO4  831   9.560   6.342   8.239  0.1347  0.1412  0.1106
   34POPC   GL1  832   9.346   6.506   7.853  0.1905 -0.1870 -0.2924
   34POPC   GL2  833   9.252   6.175   7.824  0.1384 -0.0938  0.2328
   34POPC   C1A  834   9.000   6.561   7.577 -0.1540  0.3579 -0.0592
   34POPC   D2A  835   8.603   6.570   7.382  0.3583 -0.1078 -0.2791
   34POPC   C3A  836   8.376   6.448   6.988 -0.0874 -0.1774 -0.0695
   34POPC   C4A  837   8.054   6.469   6.439 -0.0012  0.3092 -0.0786
   34POPC   C1B  838   9.424   6.232   7.439 -0.2756 -0.0984 -0.0465
   34POPC   C2B  839   9.559   6.151   7.022 -0.2741  0.1722  0.2366
   34POPC   C3B  840   9.655   5.963   6.531  0.1939 -0.1771 -0.1990
   34POPC   C4B  841   9.817   5.675   6.261 -0.1290 -0.1695 -0.0804
   35POPC   NC3  842   5.178   0.665   9.700  0.1545  0.3052  0.0311
   35POPC   PO4  843   5.432   0.871   9.329 -0.1107 -0.0395 -0.1693
   35POPC   GL1  844   5.264   1.133   8.960  0.1718  0.1851 -0.0975
   35POPC   GL2  845   5.559   1.260   8.823 -0.2300  0.1391  0.1096
   35POPC   C1A  846   4.992   0.968   8.523 -0.0220 -0.1716 -0.1546
   35POPC   D2A  847   4.674   1.241   8.374 -0.0116  0.2210  0.0586
   35POPC   C3A  848   4.608   1.512   8.034  0.1981  0.0471  0.0501
   35POPC   C4A  849   4.254   1.610   7.773  0.3039  0.0520 -0.1816
   35POPC   C1B  850   5.548   1.027   8.411 -0.0481 -0.3057 -0.0598
   35POPC   C2B  851   5.530   1.113   8.036  0.1098 -0.3223 -0.0527
   35POPC   C3B  852   5.518   1.228   7.691 -0.3450  0.0032  0.2463
   35POPC   C4B  853   5.529   1.462   7.417  0.0129  0.1859 -0.2161
   36POPC   NC3  854   1.387   9.866   9.014  0.0711  0.1073  0.1041
   36POPC   PO4  855   1.003   9.626   8.837 -0.2510 -0.0662  0.1648
   36POPC   GL1  856   0.858   9.863   8.474  0.4032  0.2126  0.1279
   36POPC   GL2  857   1.130   9.755   8.236 -0.0185 -0.1485 -0.2296
   36POPC   C1A  858   0.784  10.063   8.102 -0.1035 -0.0365  0.2673
   36POPC   D2A  859   0.607  10.065   7.629 -0.0481  0.0167 -0.1319
   36POPC   C3A  860   0.394   9.697   7.408 -0.2715  0.1476 -0.4795
   36POPC   C4A  861   0.403   9.392   7.015  0.1666 -0.0684  0.2291
   36POPC   C1B  862   0.816   9.569   7.985  0.1199  0.2146 -0.0859
   36POPC   C2B  863   0.842   9.425   7.583  0.1477  0.1327  0.2059
   36POPC   C3B  864   0.991   9.326   7.159  0.3019 -0.0248 -0.0201
   36POPC   C4B  865   0.856   9.230   6.804 -0.1758 -0.4742  0.5244
   37POPC   NC3  866   0.767   1.689   8.519  0.0072 -0.2728  0.0621
   37POPC   PO4  867   0.395   1.501   8.618  0.0113  0.0147 -0.1145
   37POPC   GL1  868   0.377   1.531   8.245 -0.3472 -0.1093  0.2158
   37POPC   GL2  869   0.617   1.318   8.161  0.1876  0.0148  0.0473
   37POPC   C1A  870   0.241   1.245   7.890  0.2875  0.0124 -0.0631
   37POPC   D2A  871   0.540   1.009   7.730  0.1644 -0.3522 -0.0681
   37POPC   C3A  872   0.563   0.998   7.314 -0.0561 -0.0542 -0.0319
   37POPC   C4A  873   0.324   0.730   7.068 -0.2001  0.0565 -0.1324
   37POPC   C1B  874   0.649   1.545   7.810 -0.0701  0.0270 -0.2756
   37POPC   C2B  875   0.526   1.895   7.607  0.0167 -0.3669 -0.1581
   37POPC   C3B  876   0.364   1.975   7.187 -0.2382  0.3327  0.0580
   37POPC   C4B  877   0.307   1.693   6.835 -0.1249  0.0687 -0.0139
   38POPC   NC3  878   4.335   7.561   8.722  0.2147 -0.0874  0.1518
   38POPC   PO4  879   3.896   7.446   8.535  0.1253  0.1605  0.0088
   38POPC   GL1  880   3.815   7.296   8.107  0.3054 -0.2368  0.0223
   38POPC   GL2  881   3.481   7.473   8.097  0.1853 -0.1150  0.0049
   38POPC   C1A  882   4.056   7.490   7.836  0.1290 -0.0597  0.3465
   38POPC   D2A  883   4.248   7.547   7.441  0.0144  0.0811  0.0286
   38POPC   C3A  884   4.282   7.293   7.100  0.0313 -0.1657 -0.0451
   38POPC   C4A  885   4.397   7.545   6.804 -0.2094 -0.6096  0.2674
   38POPC   C1B  886   3.588   7.594   7.607  0.0948 -0.0062 -0.0177
   38POPC   C2B  887   3.797   7.775   7.323  0.0344 -0.1339 -0.0152
   38POPC   C3B  888   4.251   7.926   7.075 -0.3941  0.0347  0.0252
   38POPC   C4B  889   4.632   7.868   7.352  0.2798 -0.4536 -0.0149
   39POPC   NC3  890   7.498   6.946   8.791  0.0389 -0.1804 -0.0316
   39POPC   PO4  891   7.206   6.748   8.510  0.2182  0.2991 -0.1454
   39POPC   GL1  892   7.496   6.537   8.329 -0.2432 -0.0851 -0.2558
   39POPC   GL2  893   7.292   6.224   8.257 -0.0107  0.2455 -0.0446
   39POPC   C1A  894   7.747   6.315   8.067 -0.1265  0.0509 -0.0457
   39POPC   D2A  895   7.611   5.992   7.702 -0.0854  0.3553  0.1212
   39POPC   C3A  896   7.460   6.053   7.277  0.0929 -0.2046 -0.0730
   39POPC   C4A  897   7.378   5.984   6.890 -0.1931 -0.2663  0.3621
   39POPC   C1B  898   7.247   6.298   7.846  0.0172 -0.1925  0.2918
   39POPC   C2B  899   7.161   6.746   7.545 -0.2341 -0.2994  0.1610
   39POPC   C3B  900   7.153   6.892   7.086 -0.0361  0.1747  0.1041
   39POPC   C4B  901   7.108   6.913   6.668 -0.2999  0.1643 -0.1319
   40POPC   NC3  902   0.223   9.246   9.109  0.2327 -0.2979 -0.0112
   40POPC   PO4  903   0.366   8.895   8.816  0.0534 -0.1810 -0.1880
   40POPC   GL1  904   0.134   8.841   8.419 -0.2082 -0.1768  0.0575
   40POPC   GL2  905  -0.137   8.583   8.435  0.4686 -0.0467  0.0297
   40POPC   C1A  906   0.281   8.760   8.002 -0.3893 -0.0149 -0.0421
   40POPC   D2A  907   0.509   8.362   7.854 -0.0122  0.0048  0.0736
   40POPC   C3A  908   0.614   8.565   7.511  0.2030  0.2686  0.0453
   40POPC   C4A  909   0.640   8.981   7.236  0.2170 -0.1243  0.1764
   40POPC   C1B  910  -0.031   8.375   8.003 -0.0116 -0.0765  0.2023
   40POPC   C2B  911   0.086   8.223   7.645  0.2509  0.1220  0.0942
   40POPC   C3B  912   0.119   8.342   7.288  0.0509  0.0551  0.0810
   40POPC   C4B  913   0.266   8.732   7.031 -0.1272  0.0747 -0.2016
   41POPC   NC3  914   5.984   4.302   9.404  0.2620 -0.2672 -0.0086
   41POPC   PO4  915   6.183   4.467   8.879  0.0172 -0.0806  0.0415
   41POPC   GL1  916   6.014   4.242   8.581  0.1220  0.1217  0.0963
   41POPC   GL2  917   6.071   4.567   8.297  0.2470  0.0527 -0.1688
   41POPC   C1A  918   6.023   4.045   8.229  0.0216 -0.3616  0.0617
   41POPC   D2A  919   6.246   4.106   7.882  0.2225 -0.0018  0.0121
   41POPC   C3A  920   6.000   4.351   7.552  0.3624 -0.0093 -0.3004
   41POPC   C4A  921   5.813   4.640   7.236  0.0076 -0.2105  0.0075
   41POPC   C1B  922   5.775   4.635   7.943 -0.3099  0.0567 -0.0159
   41POPC   C2B  923   5.593   4.655   7.676  0.1313 -0.2056  0.0227
   41POPC   C3B  924   5.199   4.650   7.440 -0.0184 -0.0028  0.0588
   41POPC   C4B  925   4.741   4.731   7.363  0.0840 -0.2050  0.0622
   42POPC   NC3  926   2.671   7.306   8.300  0.3772  0.0669  0.2979
   42POPC   PO4  927   2.680   6.887   8.121  0.0134 -0.2722 -0.0433
   42POPC   GL1  928   2.835   6.706   7.745  0.0318  0.2038 -0.2062
   42POPC   GL2  929   2.682   6.472   7.605  0.0798  0.0493  0.0306
   42POPC   C1A  930   3.139   6.891   7.526  0.0920  0.3177 -0.1642
   42POPC   D2A  931   3.285   7.109   7.110  0.1196 -0.1631  0.0844
   42POPC   C3A  932   3.543   6.829   6.912 -0.2242 -0.0206  0.0591
   42POPC   C4A  933   3.561   6.535   6.549  0.0656 -0.0677 -0.0543
   42POPC   C1B  934   2.668   6.657   7.173  0.1592 -0.1500 -0.3530
   42POPC   C2B  935   2.785   6.999   7.001  0.0114  0.0554  0.1515
   42POPC   C3B  936   2.619   7.415   6.852 -0.0613  0.0244  0.0517
   42POPC   C4B  937   2.590   7.693   6.524  0.1100 -0.1167 -0.2896
   43POPC   NC3  938   6.343   6.318   8.660  0.2193 -0.1501 -0.3281
   43POPC   PO4  939   6.224   5.931   8.484 -0.2530 -0.1962 -0.3781
   43POPC   GL1  940   6.292   5.985   8.027 -0.0308 -0.1192  0.1425
   43POPC   GL2  941   6.528   5.748   7.848  0.2718  0.0879  0.2009
   43POPC   C1A  942   6.141   6.063   7.522 -0.1644 -0.0147 -0.2161
   43POPC   D2A  943   5.788   5.817   7.309  0.0264  0.0258 -0.1813
   43POPC   C3A  944   5.789   5.595   6.962 -0.2439 -0.1738  0.5269
   43POPC   C4A  945   5.627   5.224   6.794  0.0703 -0.0502  0.1000
   43POPC   C1B  946   6.508   5.790   7.453 -0.0263 -0.0067  0.0147
   43POPC   C2B  947   6.236   5.817   7.076 -0.1663  0.4388 -0.1081
   43POPC   C3B  948   6.096   5.914   6.722 -0.0475 -0.2348  0.0998
   43POPC   C4B  949   6.151   6.260   6.385 -0.2778  0.2826 -0.1466
   44POPC   NC3  950   2.220   2.285   9.230  0.1184  0.0985  0.3350
   44POPC   PO4  951   2.461   2.638   9.341 -0.1059  0.2515 -0.2621
   44POPC   GL1  952   2.329   2.736   8.945  0.0089  0.1029 -0.1520
   44POPC   GL2  953   2.236   2.483   8.741  0.1057 -0.0807 -0.1468
   44POPC   C1A  954   2.438   2.951   8.581  0.2159  0.0580 -0.1942
   44POPC   D2A  955   2.218   3.058   8.121 -0.0322  0.3929  0.0382
   44POPC   C3A  956   1.926   3.322   7.905 -0.1556  0.2208  0.0439
   44POPC   C4A  957   1.480   3.243   7.919 -0.1457 -0.2446  0.4742
   44POPC   C1B  958   2.267   2.464   8.258 -0.0851  0.0790  0.0341
   44POPC   C2B  959   2.253   2.605   7.811  0.2133 -0.0319  0.0780
   44POPC   C3B  960   2.145   2.666   7.279  0.0212 -0.3370  0.1914
   44POPC   C4B  961   2.095   2.774   6.950  0.0181 -0.1027  0.3427
   45POPC   NC3  962   5.676   4.556   8.905  0.1044  0.0317  0.0412
   45POPC   PO4  963   5.777   4.922   8.543  0.2698 -0.1933 -0.0574
   45POPC   GL1  964   5.431   5.040   8.224 -0.1639  0.2243 -0.1413
   45POPC   GL2  965   5.742   5.099   8.085  0.1688 -0.5044 -0.1396
   45POPC   C1A  966   5.368   5.080   7.795  0.1905  0.0543  0.0429
   45POPC   D2A  967   5.455   5.095   7.324  0.2961  0.0141  0.0402
   45POPC   C3A  968   5.213   4.961   7.049  0.2453 -0.3392  0.1164
   45POPC   C4A  969   5.002   5.099   6.670 -0.1183  0.3077 -0.2663
   45POPC   C1B  970   5.869   5.054   7.638 -0.0677  0.1699  0.0954
   45POPC   C2B  971   5.945   5.195   7.286  0.3684  0.0134  0.1797
   45POPC   C3B  972   6.056   4.913   6.811  0.1506 -0.0678  0.0336
   45POPC   C4B  973   6.224   4.954   6.494  0.0262 -0.0280  0.2030
   46POPC   NC3  974   8.134   8.688   9.247  0.1998 -0.2784  0.0134
   46POPC   PO4  975   8.265   8.603   8.803  0.0765  0.2068  0.3405
   46POPC   GL1  976   8.332   8.823   8.441  0.2799  0.0157 -0.1013
   46POPC   GL2  977   8.183   8.777   8.171 -0.0802  0.1170  0.1701
   46POPC   C1A  978   8.597   8.994   8.075 -0.4839  0.0109 -0.0827
   46POPC   D2A  979   8.705   9.244   7.782 -0.1395  0.3660  0.0284
   46POPC   C3A  980   8.408   9.448   7.576 -0.0120 -0.0206 -0.1208
   46POPC   C4A  981   8.015   9.640   7.642  0.2539 -0.1266 -0.3178
   46POPC   C1B  982   8.292   8.942   7.698  0.0991  0.0796  0.2779
   46POPC   C2B  983   8.363   8.976   7.180 -0.1617 -0.0955  0.0126
   46POPC   C3B  984   8.601   9.139   6.901  0.2169  0.0465  0.2269
   46POPC   C4B  985   8.519   9.479   6.571  0.1464 -0.0714 -0.0801
   47POPC   NC3  986   8.683   1.273   9.181  0.1749 -0.0867 -0.1420
   47POPC   PO4  987   8.512   1.654   9.101  0.0511  0.1475  0.2287
   47POPC   GL1  988   8.280   1.749   8.584  0.3816 -0.2358 -0.1031
   47POPC   GL2  989   8.186   1.993   8.390  0.0024  0.0566  0.0310
   47POPC   C1A  990   8.371   1.623   8.156  0.0029 -0.1860  0.3230
   47POPC   D2A  991   8.359   1.319   7.755 -0.0704  0.2308  0.1544
   47POPC   C3A  992   8.779   1.378   7.574  0.1287  0.1653 -0.0262
   47POPC   C4A  993   9.216   1.582   7.703 -0.0112 -0.0525  0.1289
   47POPC   C1B  994   8.341   2.162   8.001 -0.1889 -0.0838  0.0657
   47POPC   C2B  995   8.292   2.215   7.531  0.1444 -0.1911  0.2260
   47POPC   C3B  996   8.298   2.281   7.102 -0.0462  0.0626 -0.1139
   47POPC   C4B  997   8.446   2.560   6.830 -0.1103  0.2508  0.2540
   48POPC   NC3  998   2.488   9.571   8.650  0.1556  0.1475  0.0079
   48POPC   PO4  999   2.047   9.600   8.573 -0.1115 -0.1742  0.2609
   48POPC   GL1 1000   2.214   9.378   8.237  0.0180 -0.3033 -0.2032
   48POPC   GL2 1001   2.457   9.451   8.167  0.2906 -0.0572 -0.2608
   48POPC   C1A 1002   2.172   9.075   7.846 -0.1788  0.0340  0.0046
   48POPC   D2A 1003   2.033   8.945   7.466 -0.0782  0.3996 -0.1669
   48POPC   C3A 1004   2.221   8.925   7.053 -0.3157 -0.1573  0.0926
   48POPC   C4A 1005   2.465   9.022   6.806  0.1784 -0.2454 -0.0031
   48POPC   C1B 1006   2.412   9.509   7.723  0.2724  0.0769  0.0940
   48POPC   C2B 1007   2.493   9.790   7.413  0.0924 -0.0474 -0.1710
   48POPC   C3B 1008   2.305  10.008   7.095 -0.0657 -0.4188  0.1119
   48POPC   C4B 1009   2.446  10.343   6.709 -0.1028  0.0854  0.0318
   49POPC   NC3 1010   7.624   0.424   8.694 -0.2460 -0.0184 -0.4321
   49POPC   PO4 1011   7.965   0.722   8.858  0.2089 -0.1224 -0.0068
   49POPC   GL1 1012   8.213   0.587   8.500 -0.0514 -0.2858 -0.3350
   49POPC   GL2 1013   8.059   0.466   8.280 -0.1929 -0.3989  0.0017
   49POPC   C1A 1014   8.541   0.526   8.219  0.1035  0.4265 -0.1454
   49POPC   D2A 1015   8.727   0.432   7.666 -0.0697 -0.1978 -0.4629
   49POPC   C3A 1016   8.789   0.027   7.419 -0.1156  0.3247  0.1004
   49POPC   C4A 1017   8.574  -0.320   7.137 -0.1020  0.2591 -0.0211
   49POPC   C1B 1018   7.807   0.602   7.983  0.1142 -0.0198 -0.0742
   49POPC   C2B 1019   7.844   0.467   7.589 -0.0285 -0.1246 -0.0132
   49POPC   C3B 1020   7.807   0.672   7.212  0.2076 -0.0263  0.1950
   49POPC   C4B 1021   7.660   1.024   7.022 -0.1833  0.0725 -0.0963
   50POPC   NC3 1022   1.175   9.318   8.448 -0.0160  0.2721  0.0671
   50POPC   PO4 1023   1.308   8.871   8.410  0.1733  0.0071 -0.2136
   50POPC   GL1 1024   1.190   8.939   7.927  0.0455  0.2066  0.0680
   50POPC   GL2 1025   1.167   9.213   7.962  0.1747 -0.0762 -0.0468
   50POPC   C1A 1026   1.170   8.982   7.465  0.0196  0.1621 -0.1022
   50POPC   D2A 1027   1.194   8.954   6.984 -0.0784 -0.1402  0.0114
   50POPC   C3A 1028   1.372   8.789   6.720 -0.1152  0.1273  0.0918
   50POPC   C4A 1029   1.440   8.318   6.705 -0.2664 -0.0368 -0.0656
   50POPC   C1B 1030   1.388   9.566   7.624  0.0117  0.0725 -0.4214
   50POPC   C2B 1031   1.633   9.845   7.400  0.0973 -0.0074 -0.1783
   50POPC   C3B 1032   1.848  10.119   7.183  0.2004 -0.2251 -0.4458
   50POPC   C4B 1033   1.879  10.243   6.850 -0.1187  0.1988  0.1826
   51POPC   NC3 1034   5.040   5.368   9.325  0.0291 -0.2355 -0.2614
   51POPC   PO4 1035   5.265   5.054   9.029 -0.0083 -0.0918  0.3383
   51POPC   GL1 1036   5.168   4.842   8.621  0.1019  0.0194 -0.1432
   51POPC   GL2 1037   4.912   4.964   8.565  0.1375 -0.0165  0.3497
   51POPC   C1A 1038   5.086   4.344   8.500 -0.1246  0.2733  0.0865
   51POPC   D2A 1039   5.084   3.987   8.195 -0.0087  0.1869 -0.3958
   51POPC   C3A 1040   4.740   3.873   7.952 -0.2352  0.0751 -0.2806
   51POPC   C4A 1041   4.256   3.859   7.883  0.1947  0.1234  0.0001
   51POPC   C1B 1042   4.969   4.802   8.058 -0.2748 -0.0423  0.2060
   51POPC   C2B 1043   5.195   4.371   7.973  0.1631 -0.1945  0.4446
   51POPC   C3B 1044   5.512   4.152   7.970 -0.0735  0.0538  0.1871
   51POPC   C4B 1045   5.820   3.862   7.721 -0.0567 -0.0778 -0.3361
   52POPC   NC3 1046   9.231   3.123   8.024 -0.0219  0.1183  0.1594
   52POPC   PO4 1047   9.638   3.377   8.212 -0.0343  0.0758 -0.1465
   52POPC   GL1 1048   9.991   3.449   7.815  0.1145  0.0705 -0.0031
   52POPC   GL2 1049  10.381   3.528   7.728 -0.0204 -0.0399  0.3414
   52POPC   C1A 1050   9.847   3.700   7.459 -0.1099  0.0658 -0.1455
   52POPC   D2A 1051   9.540   3.720   7.215 -0.1680 -0.0095  0.0236
   52POPC   C3A 1052   9.301   3.350   7.024 -0.0639  0.1235 -0.1897
   52POPC   C4A 1053   9.389   2.921   7.080 -0.2936  0.1177  0.3149
   52POPC   C1B 1054  10.467   3.413   7.321 -0.0580  0.2193  0.1209
   52POPC   C2B 1055  10.582   3.244   6.938 -0.0072 -0.1702  0.1064
   52POPC   C3B 1056  10.950   3.189   6.784  0.3048 -0.0759 -0.2347
   52POPC   C4B 1057  11.415   3.088   6.911  0.1239 -0.0950 -0.1252
   53POPC   NC3 1058   3.036   0.810   9.008  0.2327  0.1876 -0.0582
   53POPC   PO4 1059   2.674   0.887   9.220  0.0678  0.2332  0.1940
   53POPC   GL1 1060   2.686   1.155   8.826 -0.1178  0.1853  0.0271
   53POPC   GL2 1061   2.831   1.050   8.600 -0.2077 -0.0514 -0.3731
   53POPC   C1A 1062   2.643   1.482   8.537  0.3082 -0.4914 -0.0514
   53POPC   D2A 1063   2.515   1.761   8.211 -0.1155  0.4943 -0.4136
   53POPC   C3A 1064   2.745   2.212   8.192 -0.0533  0.0447 -0.0441
   53POPC   C4A 1065   2.680   2.468   8.552 -0.0907  0.0028 -0.4872
   53POPC   C1B 1066   2.738   1.100   8.264  0.2585 -0.2096 -0.1051
   53POPC   C2B 1067   2.492   1.012   7.878 -0.4611  0.2258 -0.2036
   53POPC   C3B 1068   2.317   0.817   7.586  0.1163 -0.1724 -0.2600
   53POPC   C4B 1069   2.268   0.609   7.226 -0.1079  0.1141  0.2506
   54POPC   NC3 1070   0.442   0.954   8.653  0.0766 -0.0690 -0.1477
   54POPC   PO4 1071   0.838   1.177   8.597 -0.0268 -0.2522 -0.2520
   54POPC   GL1 1072   0.994   0.989   8.190  0.1099  0.1091  0.2513
   54POPC   GL2 1073   0.787   0.855   8.160  0.1504 -0.1768  0.1532
   54POPC   C1A 1074   0.987   1.118   7.711 -0.4258 -0.0985  0.2211
   54POPC   D2A 1075   1.047   1.097   7.266 -0.4466  0.1490  0.1119
   54POPC   C3A 1076   1.068   0.745   6.975 -0.1449 -0.3382 -0.1898
   54POPC   C4A 1077   0.864   0.399   6.619  0.2554  0.0986 -0.0086
   54POPC   C1B 1078   0.531   0.623   8.008 -0.0875  0.2419 -0.1120
   54POPC   C2B 1079   0.307   0.570   7.671  0.2267 -0.0331  0.1125
   54POPC   C3B 1080  -0.009   0.671   7.406  0.3099 -0.0799 -0.0757
   54POPC   C4B 1081   0.083   1.060   7.322  0.1108  0.2180 -0.0132
   55POPC   NC3 1082   0.334   5.293   8.304 -0.1353  0.1215  0.1833
   55POPC   PO4 1083   0.153   5.563   8.023 -0.2489  0.1205  0.1716
   55POPC   GL1 1084   0.183   5.658   7.592  0.0672  0.1412  0.0039
   55POPC   GL2 1085  -0.040   5.427   7.593  0.1841  0.1329  0.0106
   55POPC   C1A 1086   0.267   5.652   7.135  0.0969 -0.0701 -0.0302
   55POPC   D2A 1087   0.165   5.586   6.744 -0.1257  0.3839  0.2104
   55POPC   C3A 1088   0.370   5.358   6.354 -0.0271 -0.0458  0.0340
   55POPC   C4A 1089   0.493   5.070   6.082 -0.0110 -0.0162 -0.1569
   55POPC   C1B 1090  -0.245   5.706   7.322 -0.0903 -0.1486  0.4349
   55POPC   C2B 1091  -0.278   5.667   6.941  0.2336  0.3133  0.0016
   55POPC   C3B 1092  -0.517   5.510   6.521 -0.0900 -0.0453 -0.0820
   55POPC   C4B 1093  -0.584   5.849   6.166 -0.3630  0.2952  0.1357
   56POPC   NC3 1094   3.534   6.074   8.791 -0.0323  0.1124 -0.1488
   56POPC   PO4 1095   3.272   5.904   8.531 -0.1264  0.0703 -0.0458
   56POPC   GL1 1096   3.331   5.945   8.056 -0.5189 -0.1286  0.2207
   56POPC   GL2 1097   3.362   6.336   7.907  0.0518  0.3117 -0.3317
   56POPC   C1A 1098   3.011   5.875   7.712 -0.2461  0.0911  0.0743
   56POPC   D2A 1099   2.956   6.043   7.337 -0.0100 -0.0628  0.0392
   56POPC   C3A 1100   2.752   6.240   7.013  0.1564  0.2139 -0.0781
   56POPC   C4A 1101   2.613   6.427   6.683  0.2444  0.0081  0.0459
   56POPC   C1B 1102   3.187   6.412   7.540 -0.1390  0.0655  0.2292
   56POPC   C2B 1103   3.171   6.529   7.151  0.0329  0.0609 -0.0057
   56POPC   C3B 1104   3.027   6.672   6.806 -0.4556  0.0882  0.2421
   56POPC   C4B 1105   3.049   6.930   6.521  0.1209 -0.0348 -0.0519
   57POPC   NC3 1106   9.115   4.500   8.590  0.1308  0.0595 -0.0390
   57POPC   PO4 1107   8.818   4.237   8.415 -0.0731 -0.0111 -0.1608
   57POPC   GL1 1108   8.641   4.320   8.028 -0.0086  0.0694  0.0623
   57POPC   GL2 1109   9.000   4.413   7.880  0.0202 -0.0949  0.1297
   57POPC   C1A 1110   8.621   4.698   7.719  0.0448  0.4998  0.0713
   57POPC   D2A 1111   8.573   4.757   7.327  0.2376  0.0738  0.2712
   57POPC   C3A 1112   8.212   4.653   7.202  0.2077  0.0492  0.0124
   57POPC   C4A 1113   7.797   4.695   7.539  0.1212  0.0940 -0.1522
   57POPC   C1B 1114   9.068   4.416   7.426 -0.0367  0.1530 -0.1794
   57POPC   C2B 1115   9.166   4.140   7.094 -0.0019 -0.3220 -0.0185
   57POPC   C3B 1116   9.145   3.776   6.856  0.2356 -0.2557  0.1440
   57POPC   C4B 1117   8.951   3.491   6.688  0.2012  0.3675 -0.1227
   58POPC   NC3 1118   6.755   6.039   8.193  0.0969  0.0504 -0.0593
   58POPC   PO4 1119   7.023   5.628   8.330  0.1357  0.2519  0.1317
   58POPC   GL1 1120   7.013   5.524   7.932  0.0094 -0.0890  0.4202
   58POPC   GL2 1121   7.173   5.820   7.847  0.1063 -0.1800  0.1736
   58POPC   C1A 1122   6.902   5.375   7.489 -0.0393  0.1305 -0.0122
   58POPC   D2A 1123   6.851   5.403   7.059 -0.0320  0.2402  0.0463
   58POPC   C3A 1124   6.885   5.083   6.737  0.1946 -0.2635 -0.1257
   58POPC   C4A 1125   6.657   4.701   6.700  0.0533 -0.0251 -0.1217
   58POPC   C1B 1126   7.393   5.561   7.588  0.1152 -0.0991 -0.2541
   58POPC   C2B 1127   7.537   5.475   7.227 -0.2037  0.0745  0.0926
   58POPC   C3B 1128   7.278   5.506   6.810 -0.2397 -0.0409 -0.1061
   58POPC   C4B 1129   6.913   5.467   6.431  0.0750  0.1672 -0.3646
   59POPC   NC3 1130   1.108   6.645   8.276  0.2325  0.2258 -0.0116
   59POPC   PO4 1131   0.775   6.425   8.194 -0.3173  0.2000  0.3532
   59POPC   GL1 1132   0.858   6.531   7.744  0.0490  0.0496 -0.2171
   59POPC   GL2 1133   1.115   6.553   7.776 -0.0989  0.2022  0.2003
   59POPC   C1A 1134   0.788   6.476   7.411  0.1471  0.1158  0.3997
   59POPC   D2A 1135   0.851   6.610   6.933 -0.1187  0.1702  0.2581
   59POPC   C3A 1136   0.572   6.398   6.557 -0.3927 -0.0719 -0.3879
   59POPC   C4A 1137   0.794   6.106   6.323  0.0106  0.0414  0.1358
   59POPC   C1B 1138   1.195   6.807   7.329  0.2111  0.2973  0.1866
   59POPC   C2B 1139   1.130   6.989   6.813 -0.0008 -0.0231  0.1768
   59POPC   C3B 1140   1.121   7.066   6.409  0.2149  0.2197  0.0319
   59POPC   C4B 1141   0.915   6.850   6.004 -0.3319  0.3346  0.2988
   60POPC   NC3 1142   4.146   4.307  10.016  0.1654 -0.0988  0.0957
   60POPC   PO4 1143   3.867   3.973   9.771  0.0438  0.1308 -0.5095
   60POPC   GL1 1144   3.947   3.697   9.400  0.1770  0.2331  0.0327
   60POPC   GL2 1145   4.217   3.387   9.384 -0.4544 -0.2528 -0.3522
   60POPC   C1A 1146   3.972   3.537   8.962 -0.2247 -0.0480 -0.1512
   60POPC   D2A 1147   3.689   3.486   8.688 -0.0918  0.0688  0.0539
   60POPC   C3A 1148   3.649   3.412   8.208 -0.0357  0.1353 -0.0754
   60POPC   C4A 1149   3.359   3.606   7.934  0.2350  0.1845 -0.1227
   60POPC   C1B 1150   4.562   3.274   9.118  0.2777  0.0152 -0.2488
   60POPC   C2B 1151   4.990   3.479   8.955 -0.2307 -0.0047 -0.0530
   60POPC   C3B 1152   5.295   3.699   8.751 -0.2383  0.0776  0.1954
   60POPC   C4B 1153   5.471   4.026   8.469 -0.1964 -0.2444 -0.3065
   61POPC   NC3 1154   0.509   6.942   8.345  0.0200 -0.0125 -0.1144
   61POPC   PO4 1155   1.059   7.105   8.407  0.0420  0.1261 -0.1870
   61POPC   GL1 1156   0.916   7.037   8.004 -0.0731  0.3734  0.1671
   61POPC   GL2 1157   1.195   7.206   7.815  0.1149 -0.1627 -0.2438
   61POPC   C1A 1158   0.740   7.053   7.610 -0.0417  0.1307 -0.2489
   61POPC   D2A 1159   0.676   7.010   7.229  0.1027  0.2277 -0.2673
   61POPC   C3A 1160   0.718   7.229   6.884 -0.0170 -0.2339 -0.0919
   61POPC   C4A 1161   0.941   7.424   6.840 -0.1672 -0.4418 -0.0746
   61POPC   C1B 1162   1.075   7.380   7.408  0.1606  0.0272  0.1810
   61POPC   C2B 1163   1.020   7.770   7.246 -0.2957 -0.3385 -0.2441
   61POPC   C3B 1164   0.972   8.194   7.519 -0.1532 -0.1151 -0.0560
   61POPC   C4B 1165   1.107   8.526   7.708 -0.1877 -0.1500 -0.4612
   62POPC   NC3 1166   3.581   5.548   8.342 -0.3432 -0.0794 -0.4272
   62POPC   PO4 1167   3.820   5.856   8.327  0.1845 -0.2859  0.1636
   62POPC   GL1 1168   3.975   5.748   7.914 -0.1713  0.1838  0.0233
   62POPC   GL2 1169   3.761   5.437   7.862 -0.3449  0.1180  0.1584
   62POPC   C1A 1170   4.160   5.565   7.518  0.0154 -0.0737 -0.3096
   62POPC   D2A 1171   3.990   5.149   7.347 -0.1325  0.0460 -0.3444
   62POPC   C3A 1172   4.170   4.743   7.337 -0.1099  0.0762 -0.2976
   62POPC   C4A 1173   3.971   4.354   7.120  0.1738  0.0058 -0.2459
   62POPC   C1B 1174   3.443   5.222   7.549 -0.1808 -0.2480 -0.0162
   62POPC   C2B 1175   3.187   4.960   7.278  0.1809  0.2821 -0.0181
   62POPC   C3B 1176   3.224   4.817   6.812  0.0397 -0.0031 -0.1353
   62POPC   C4B 1177   3.482   5.091   6.524 -0.3150  0.2803 -0.1157
   63POPC   NC3 1178   6.779   0.717   8.959 -0.0515 -0.0480 -0.1529
   63POPC   PO4 1179   7.312   0.674   9.006 -0.0285 -0.0375  0.0601
   63POPC   GL1 1180   7.182   0.707   8.574 -0.0169 -0.0563 -0.2427
   63POPC   GL2 1181   6.947   0.574   8.488 -0.2401 -0.2430 -0.0325
   63POPC   C1A 1182   7.178   0.990   8.309  0.0221 -0.0209 -0.0523
   63POPC   D2A 1183   7.450   1.225   8.032 -0.1031  0.0264 -0.1338
   63POPC   C3A 1184   7.466   1.438   7.664  0.0662 -0.0199 -0.0738
   63POPC   C4A 1185   7.399   1.469   7.360 -0.1176 -0.0806  0.0625
   63POPC   C1B 1186   6.887   0.322   8.097 -0.2808 -0.1862  0.3188
   63POPC   C2B 1187   6.748   0.025   7.816 -0.1317 -0.1534  0.1454
   63POPC   C3B 1188   6.561  -0.422   7.652 -0.1964 -0.1295 -0.2819
   63POPC   C4B 1189   6.652  -0.686   7.294 -0.1043  0.1554  0.1032
   64POPC   NC3 1190   1.428   7.460   8.302  0.0408  0.1910 -0.0248
   64POPC   PO4 1191   1.646   7.306   8.044 -0.0174  0.1964 -0.1782
   64POPC   GL1 1192   1.848   7.012   7.743  0.3350 -0.0349 -0.0149
   64POPC   GL2 1193   1.640   6.791   7.689  0.0911 -0.4076 -0.1175
   64POPC   C1A 1194   1.941   6.999   7.338 -0.1370 -0.2114  0.0787
   64POPC   D2A 1195   2.081   7.346   6.964  0.3043  0.0873 -0.1643
   64POPC   C3A 1196   1.977   7.540   6.666 -0.2372 -0.0238 -0.1075
   64POPC   C4A 1197   1.672   7.510   6.414  0.1052 -0.0739  0.3441
   64POPC   C1B 1198   1.602   6.512   7.285 -0.1710 -0.1257  0.2567
   64POPC   C2B 1199   1.318   6.318   7.003  0.1038  0.1284  0.0192
   64POPC   C3B 1200   1.130   6.266   6.636  0.2290 -0.0485 -0.1317
   64POPC   C4B 1201   1.092   6.581   6.372  0.0564  0.0645  0.0269
   65POPC   NC3 1202   4.465   6.576   8.500 -0.0441 -0.1297  0.0287
   65POPC   PO4 1203   4.843   6.812   8.440  0.1278  0.1065 -0.0897
   65POPC   GL1 1204   4.430   6.985   8.212  0.0196  0.0663  0.1445
   65POPC   GL2 1205   4.316   7.362   8.246  0.0420 -0.0491 -0.2663
   65POPC   C1A 1206   4.195   7.011   7.865 -0.1864  0.3238 -0.0162
   65POPC   D2A 1207   4.038   6.896   7.527 -0.1309 -0.0671  0.2250
   65POPC   C3A 1208   4.037   6.842   7.142  0.0864  0.1904  0.1312
   65POPC   C4A 1209   4.015   7.008   6.808  0.0493 -0.1023  0.3466
   65POPC   C1B 1210   4.509   7.363   7.867  0.0341  0.0622 -0.1256
   65POPC   C2B 1211   4.719   7.251   7.350 -0.0156  0.0965 -0.3839
   65POPC   C3B 1212   4.892   7.316   6.891  0.1873  0.0520 -0.0534
   65POPC   C4B 1213   4.906   7.056   6.475 -0.2224 -0.0111 -0.2338
   66POPC   NC3 1214   1.934   6.372   8.804  0.4197  0.0001 -0.4717
   66POPC   PO4 1215   1.703   6.253   8.469  0.3203  0.1975  0.0682
   66POPC   GL1 1216   1.866   6.277   7.996  0.4249  0.2384 -0.4172
   66POPC   GL2 1217   1.539   6.218   7.743 -0.0445  0.0977  0.0155
   66POPC   C1A 1218   2.017   6.518   7.578 -0.0495  0.1119 -0.3200
   66POPC   D2A 1219   2.059   6.590   7.089  0.2454 -0.0701 -0.0736
   66POPC   C3A 1220   2.296   6.913   6.899  0.2619  0.2467 -0.0726
   66POPC   C4A 1221   2.580   6.920   6.546  0.1462 -0.1093  0.0236
   66POPC   C1B 1222   1.833   6.065   7.491  0.0230 -0.1061 -0.1222
   66POPC   C2B 1223   1.787   6.110   7.063 -0.1322 -0.4029  0.0199
   66POPC   C3B 1224   1.701   6.232   6.733  0.0072 -0.1806  0.1984
   66POPC   C4B 1225   1.485   6.040   6.379 -0.0146  0.1021 -0.0067
   67POPC   NC3 1226   3.013   5.006   9.005  0.2722  0.0464  0.2749
   67POPC   PO4 1227   2.907   4.704   9.323  0.3344  0.0927  0.1531
   67POPC   GL1 1228   2.778   4.483   8.972  0.2590 -0.0544  0.2921
   67POPC   GL2 1229   2.677   4.635   8.643  0.2433  0.1378 -0.1332
   67POPC   C1A 1230   3.011   4.206   8.730  0.0034  0.0491  0.0138
   67POPC   D2A 1231   2.944   3.790   8.634 -0.4327  0.1523  0.1068
   67POPC   C3A 1232   3.183   3.484   8.418  0.2886  0.2109  0.1667
   67POPC   C4A 1233   3.180   3.198   8.082 -0.2079 -0.0991 -0.0293
   67POPC   C1B 1234   2.679   4.552   8.113  0.3134  0.1532  0.2091
   67POPC   C2B 1235   2.810   4.299   7.710  0.0891  0.1371  0.0818
   67POPC   C3B 1236   2.994   3.970   7.560 -0.0130 -0.2071 -0.3040
   67POPC   C4B 1237   3.391   3.841   7.465  0.3487  0.4625 -0.0150
   68POPC   NC3 1238   5.404   9.209   8.625 -0.0308  0.2729  0.1011
   68POPC   PO4 1239   5.249   8.778   8.670 -0.0373  0.1795  0.0138
   68POPC   GL1 1240   5.073   8.910   8.250 -0.0252  0.0974 -0.3598
   68POPC   GL2 1241   5.201   9.189   8.205  0.0438  0.1332  0.0389
   68POPC   C1A 1242   5.056   8.868   7.837  0.0463  0.2533  0.1856
   68POPC   D2A 1243   5.199   8.757   7.492 -0.2832 -0.0576 -0.0495
   68POPC   C3A 1244   5.160   8.814   7.047 -0.1578 -0.1237 -0.0978
   68POPC   C4A 1245   5.082   8.932   6.694  0.1463  0.0220 -0.0615
   68POPC   C1B 1246   5.071   9.622   8.251  0.0913  0.3989 -0.0133
   68POPC   C2B 1247   5.061   9.794   7.861 -0.2064  0.1335  0.0409
   68POPC   C3B 1248   5.246   9.736   7.399  0.2488  0.0537  0.1722
   68POPC   C4B 1249   4.999   9.759   6.997 -0.0602 -0.1781 -0.2140
   69POPC   NC3 1250   1.925   3.951   8.689 -0.2269 -0.3224  0.1629
   69POPC   PO4 1251   1.707   3.581   8.585  0.0954 -0.1883  0.1277
   69POPC   GL1 1252   1.757   3.845   8.214  0.2213 -0.0296 -0.2830
   69POPC   GL2 1253   1.760   4.154   8.096  0.1704  0.0753  0.1032
   69POPC   C1A 1254   1.992   3.837   7.745 -0.0411  0.0005  0.1095
   69POPC   D2A 1255   2.083   3.677   7.389 -0.0805  0.4505 -0.1154
   69POPC   C3A 1256   2.129   3.859   6.969  0.2860  0.2686 -0.0763
   69POPC   C4A 1257   2.238   3.788   6.549  0.0707 -0.1989  0.0453
   69POPC   C1B 1258   1.948   4.486   7.748 -0.0975  0.2421 -0.0766
   69POPC   C2B 1259   1.740   4.659   7.372  0.0875  0.1712 -0.0960
   69POPC   C3B 1260   1.534   4.753   6.921  0.1702  0.0913 -0.2686
   69POPC   C4B 1261   1.425   5.155   6.562 -0.1400 -0.1296 -0.1889
   70POPC   NC3 1262   6.813   7.062   8.276  0.1679 -0.1200 -0.0368
   70POPC   PO4 1263   6.823   7.558   8.399  0.2094 -0.0252 -0.1414
   70POPC   GL1 1264   7.031   7.639   8.076 -0.3242  0.1991  0.0124
   70POPC   GL2 1265   7.027   7.458   7.887  0.0272  0.0526  0.1568
   70POPC   C1A 1266   7.212   7.978   7.848  0.1316  0.1875  0.7335
   70POPC   D2A 1267   7.342   8.060   7.380 -0.0227 -0.3953 -0.1473
   70POPC   C3A 1268   7.047   8.465   7.197  0.2292  0.0881 -0.2099
   70POPC   C4A 1269   6.754   8.242   7.092  0.1251  0.0044 -0.1955
   70POPC   C1B 1270   6.984   7.366   7.483  0.0467  0.1488 -0.1752
   70POPC   C2B 1271   6.872   7.660   7.079 -0.0694  0.0083 -0.2287
   70POPC   C3B 1272   7.024   7.938   6.825  0.1496  0.1269  0.0143
   70POPC   C4B 1273   7.417   8.115   6.743 -0.0493  0.1388  0.3358
   71POPC   NC3 1274   1.118   3.935   8.515 -0.0131  0.0661 -0.0401
   71POPC   PO4 1275   0.739   3.627   8.487 -0.0487  0.1680  0.0575
   71POPC   GL1 1276   0.736   3.298   8.164  0.1184 -0.2816  0.1621
   71POPC   GL2 1277   1.017   3.160   8.016 -0.0428 -0.2954 -0.1485
   71POPC   C1A 1278   0.492   3.020   7.862  0.0348 -0.0390  0.2442
   71POPC   D2A 1279   0.299   3.070   7.513  0.1418  0.1670  0.1956
   71POPC   C3A 1280   0.323   2.904   7.189 -0.2257 -0.1153 -0.0450
   71POPC   C4A 1281  -0.004   2.816   6.854 -0.1173  0.1495 -0.0099
   71POPC   C1B 1282   0.858   3.049   7.550 -0.0962 -0.2813  0.2096
   71POPC   C2B 1283   0.872   2.887   7.235 -0.3982  0.1931  0.0224
   71POPC   C3B 1284   0.874   2.692   6.797  0.1047 -0.1872  0.0099
   71POPC   C4B 1285   0.955   2.957   6.378 -0.1184  0.3445  0.3785
   72POPC   NC3 1286   6.025   2.234   9.583  0.0072  0.1357  0.0051
   72POPC   PO4 1287   5.916   2.591   9.719 -0.1775 -0.1176  0.0591
   72POPC   GL1 1288   5.957   2.690   9.231 -0.0768 -0.4075  0.1696
   72POPC   GL2 1289   6.120   2.372   9.028 -0.3580 -0.0049  0.0141
   72POPC   C1A 1290   5.782   2.715   8.815 -0.0255 -0.0364  0.2207
   72POPC   D2A 1291   5.616   3.106   8.697 -0.1336  0.0842  0.3020
   72POPC   C3A 1292   5.230   3.244   8.527 -0.0173 -0.0355  0.0270
   72POPC   C4A 1293   5.048   3.052   8.306 -0.2790 -0.1297  0.1111
   72POPC   C1B 1294   6.259   2.807   8.840  0.3991  0.0473 -0.0793
   72POPC   C2B 1295   6.141   2.966   8.406 -0.1266 -0.1664 -0.0097
   72POPC   C3B 1296   6.153   3.260   8.063  0.0303  0.1405  0.0058
   72POPC   C4B 1297   6.144   3.489   7.726  0.1250  0.1950  0.0961
   73POPC   NC3 1298   2.407   5.616   8.535  0.0051  0.4082  0.2143
   73POPC   PO4 1299   2.916   5.640   8.340  0.0280 -0.1969  0.0990
   73POPC   GL1 1300   2.711   5.459   8.009 -0.0772 -0.3498  0.0749
   73POPC   GL2 1301   2.555   5.624   7.894 -0.1585  0.0309  0.0570
   73POPC   C1A 1302   2.843   5.262   7.658  0.4486 -0.1526 -0.2524
   73POPC   D2A 1303   2.924   5.468   7.410 -0.0422  0.0303  0.0444
   73POPC   C3A 1304   2.805   5.324   6.979 -0.3565 -0.2021  0.0400
   73POPC   C4A 1305   2.860   5.072   6.578 -0.1685 -0.1924  0.0362
   73POPC   C1B 1306   2.472   5.723   7.583 -0.1223  0.2999  0.2413
   73POPC   C2B 1307   2.593   5.746   7.175 -0.1726 -0.0709 -0.0884
   73POPC   C3B 1308   3.003   5.786   6.921  0.0060  0.0797 -0.1216
   73POPC   C4B 1309   3.109   5.491   6.652 -0.0023  0.0830 -0.2102
   74POPC   NC3 1310   4.866   5.371   8.877 -0.0056 -0.2642 -0.0539
   74POPC   PO4 1311   5.119   5.548   8.389 -0.0901 -0.2963 -0.0245
   74POPC   GL1 1312   5.196   5.451   8.031 -0.0348 -0.0197  0.0111
   74POPC   GL2 1313   5.477   5.611   8.016 -0.1770 -0.0721  0.1087
   74POPC   C1A 1314   5.192   5.796   7.584  0.2270 -0.2732 -0.1343
   74POPC   D2A 1315   5.317   6.088   7.257  0.0873 -0.2117 -0.1890
   74POPC   C3A 1316   5.617   6.080   6.923 -0.1193  0.2704 -0.1868
   74POPC   C4A 1317   5.657   6.264   6.515  0.0081  0.2582 -0.0123
   74POPC   C1B 1318   5.689   5.587   7.731 -0.4033  0.3142  0.1585
   74POPC   C2B 1319   6.176   5.493   7.605  0.3502 -0.5669  0.2135
   74POPC   C3B 1320   6.425   5.200   7.452 -0.3530 -0.1129 -0.2685
   74POPC   C4B 1321   6.684   4.991   7.212 -0.2531 -0.0464 -0.0147
   75POPC   NC3 1322   4.274   8.779   8.963  0.1630  0.0402 -0.1384
   75POPC   PO4 1323   4.221   9.116   9.260  0.1331  0.4170  0.0783
   75POPC   GL1 1324   4.433   9.327   8.907  0.2237 -0.3436  0.4375
   75POPC   GL2 1325   4.144   9.481   8.832 -0.0617 -0.0147 -0.0297
   75POPC   C1A 1326   4.646   9.383   8.405 -0.0705 -0.0514 -0.2637
   75POPC   D2A 1327   4.748   9.233   7.940 -0.3629  0.4279 -0.1566
   75POPC   C3A 1328   5.042   9.325   7.613 -0.2634  0.1007 -0.1747
   75POPC   C4A 1329   5.201   9.271   7.149 -0.2202  0.2017  0.1264
   75POPC   C1B 1330   4.192   9.645   8.379 -0.1929 -0.0647 -0.2313
   75POPC   C2B 1331   4.154   9.853   7.928 -0.0903  0.0371 -0.0012
   75POPC   C3B 1332   4.100   9.933   7.508  0.1208  0.0949  0.1556
   75POPC   C4B 1333   3.741   9.816   7.249 -0.2421 -0.2864  0.0406
   76POPC   NC3 1334   9.768   0.661   8.751 -0.0537  0.2251  0.2932
   76POPC   PO4 1335  10.176   0.515   8.785 -0.0102 -0.2081 -0.0720
   76POPC   GL1 1336  10.067   0.531   8.317 -0.0770 -0.2323  0.1400
   76POPC   GL2 1337   9.831   0.345   8.317 -0.0286  0.0212 -0.0386
   76POPC   C1A 1338   9.864   0.798   7.959  0.1887 -0.1090  0.0241
   76POPC   D2A 1339   9.348   0.600   7.651  0.0652  0.1553  0.0350
   76POPC   C3A 1340   9.161   0.382   7.294  0.0941 -0.1663 -0.2972
   76POPC   C4A 1341   9.121   0.103   6.944 -0.2275 -0.0911  0.0253
   76POPC   C1B 1342  10.133   0.112   8.078 -0.1658 -0.1382  0.1425
   76POPC   C2B 1343  10.125  -0.178   7.852 -0.0799  0.3453 -0.1267
   76POPC   C3B 1344  10.296  -0.600   7.837 -0.0999 -0.0662 -0.3486
   76POPC   C4B 1345  10.607  -0.859   7.836  0.0290  0.0421  0.0260
   77POPC   NC3 1346   7.457   4.362   8.488  0.3346  0.2350 -0.0337
   77POPC   PO4 1347   7.799   4.147   8.322 -0.3756  0.0374 -0.1877
   77POPC   GL1 1348   7.698   4.246   7.964  0.3528 -0.0331 -0.2462
   77POPC   GL2 1349   7.426   4.413   7.882 -0.2618  0.1923  0.2178
   77POPC   C1A 1350   7.389   3.958   7.736 -0.2720 -0.0313  0.1461
   77POPC   D2A 1351   7.398   3.880   7.266 -0.1669  0.0352 -0.0077
   77POPC   C3A 1352   7.058   4.022   6.992  0.2272 -0.0106 -0.0984
   77POPC   C4A 1353   6.592   4.070   6.931  0.2186  0.3298 -0.0245
   77POPC   C1B 1354   7.299   4.702   7.451 -0.1248  0.0816  0.1351
   77POPC   C2B 1355   7.219   5.100   7.238 -0.4328  0.1028 -0.0574
   77POPC   C3B 1356   7.511   5.070   6.941 -0.0342 -0.1788 -0.0249
   77POPC   C4B 1357   7.725   4.674   6.940 -0.2774 -0.2122  0.2471
   78POPC   NC3 1358   2.125   7.312   8.092  0.3164  0.0584  0.4545
   78POPC   PO4 1359   2.332   7.619   8.232  0.0201  0.1459 -0.0617
   78POPC   GL1 1360   2.204   7.734   7.788 -0.0220 -0.1008 -0.0738
   78POPC   GL2 1361   2.063   7.472   7.611  0.0441  0.1669 -0.0343
   78POPC   C1A 1362   2.044   8.139   7.704  0.1150  0.5555  0.2260
   78POPC   D2A 1363   1.932   8.255   7.343  0.1001 -0.1243 -0.3908
   78POPC   C3A 1364   1.816   8.019   7.005  0.4603  0.1458  0.0570
   78POPC   C4A 1365   1.711   7.953   6.585 -0.2194 -0.1026  0.2191
   78POPC   C1B 1366   1.772   7.717   7.347 -0.0718  0.1471 -0.3340
   78POPC   C2B 1367   1.431   7.558   6.944 -0.2536  0.3566 -0.0247
   78POPC   C3B 1368   1.218   7.848   6.754  0.0937 -0.3441 -0.0943
   78POPC   C4B 1369   0.976   8.196   6.891 -0.2386 -0.0405 -0.2698
   79POPC   NC3 1370   4.357   2.775   9.863  0.2168 -0.2882 -0.0373
   79POPC   PO4 1371   4.585   2.375   9.836 -0.0769  0.3524 -0.1121
   79POPC   GL1 1372   4.844   2.656   9.527 -0.1250 -0.1935  0.3326
   79POPC   GL2 1373   5.164   2.650   9.527 -0.3807 -0.2699 -0.0140
   79POPC   C1A 1374   4.729   2.846   9.254 -0.0268  0.0631  0.0422
   79POPC   D2A 1375   4.795   2.983   8.824  0.2305  0.1451 -0.0888
   79POPC   C3A 1376   4.672   2.637   8.587 -0.3497 -0.1958  0.2851
   79POPC   C4A 1377   4.664   2.279   8.270 -0.3151  0.1548  0.1372
   79POPC   C1B 1378   5.119   2.571   9.142  0.1332  0.1222  0.2883
   79POPC   C2B 1379   5.202   2.732   8.702  0.3078  0.1854  0.2010
   79POPC   C3B 1380   5.116   2.549   8.307  0.0161  0.0761  0.0470
   79POPC   C4B 1381   5.265   2.765   7.939  0.1430 -0.0555  0.4278
   80POPC   NC3 1382   2.312   0.219   8.739 -0.0833  0.0706  0.3996
   80POPC   PO4 1383   2.707   0.112   8.529  0.2410  0.1102  0.3209
   80POPC   GL1 1384   2.836   0.353   8.176  0.0552  0.0485  0.0430
   80POPC   GL2 1385   2.768   0.602   7.939  0.4435  0.1683 -0.1993
   80POPC   C1A 1386   3.248   0.457   7.935  0.4082 -0.0762 -0.1991
   80POPC   D2A 1387   3.409   0.718   7.627  0.0994  0.0792  0.0524
   80POPC   C3A 1388   3.404   0.794   7.129 -0.1911  0.1236 -0.1337
   80POPC   C4A 1389   3.305   1.093   6.755  0.2459  0.2797  0.0591
   80POPC   C1B 1390   2.809   0.630   7.553 -0.0566 -0.1465  0.1440
   80POPC   C2B 1391   2.743   0.403   7.149  0.0234 -0.5543 -0.0187
   80POPC   C3B 1392   2.711  -0.009   6.857  0.2514  0.1350  0.0393
   80POPC   C4B 1393   2.755  -0.195   6.434 -0.1594 -0.4630 -0.3667
   81POPC   NC3 1394   0.748   0.221   8.921 -0.0713 -0.2301  0.0756
   81POPC   PO4 1395   1.123   0.312   8.670 -0.3407  0.1217 -0.2261
   81POPC   GL1 1396   1.119   0.458   8.265 -0.0388 -0.1764  0.0740
   81POPC   GL2 1397   1.390   0.555   8.223 -0.1738 -0.4041  0.0907
   81POPC   C1A 1398   0.999   0.593   7.777 -0.2721 -0.1547 -0.3149
   81POPC   D2A 1399   0.702   0.566   7.375  0.1519 -0.0662 -0.1778
   81POPC   C3A 1400   0.802   0.299   7.119  0.1247  0.0623  0.0317
   81POPC   C4A 1401   0.744  -0.090   7.041 -0.1071 -0.0102  0.1629
   81POPC   C1B 1402   1.447   0.823   7.882  0.0356  0.0064 -0.1541
   81POPC   C2B 1403   1.367   0.804   7.491  0.0819 -0.1865 -0.4790
   81POPC   C3B 1404   1.322   0.380   7.307 -0.1157  0.1868 -0.1339
   81POPC   C4B 1405   1.264   0.281   6.957 -0.4540 -0.1216  0.2846
   82POPC   NC3 1406   6.818   8.573   8.550 -0.1988 -0.2084 -0.2317
   82POPC   PO4 1407   6.410   8.661   8.416  0.2447  0.2403 -0.0107
   82POPC   GL1 1408   6.621   8.719   8.043 -0.0919 -0.0482 -0.0773
   82POPC   GL2 1409   6.570   8.493   7.963 -0.1207 -0.1873  0.1585
   82POPC   C1A 1410   6.429   8.988   7.754 -0.4501 -0.1829  0.0929
   82POPC   D2A 1411   6.105   8.858   7.406 -0.4389  0.1469  0.1402
   82POPC   C3A 1412   6.230   9.059   7.149 -0.1920  0.2217 -0.1163
   82POPC   C4A 1413   6.505   9.121   6.873  0.0366  0.1169  0.1527
   82POPC   C1B 1414   6.808   8.284   7.638  0.3622 -0.0666 -0.0240
   82POPC   C2B 1415   6.787   7.857   7.496 -0.2566 -0.1668 -0.2561
   82POPC   C3B 1416   6.448   7.688   7.292 -0.1528 -0.4114 -0.0430
   82POPC   C4B 1417   6.194   7.551   6.947 -0.0183  0.0370  0.0648
   83POPC   NC3 1418   1.754   3.686   9.074  0.2254 -0.1700 -0.2034
   83POPC   PO4 1419   2.177   3.627   8.993 -0.0582 -0.0066 -0.0743
   83POPC   GL1 1420   2.204   3.440   8.540 -0.1589 -0.1942 -0.3256
   83POPC   GL2 1421   2.533   3.576   8.500 -0.0278  0.0187  0.2191
   83POPC   C1A 1422   2.174   3.658   8.159 -0.0130 -0.0578  0.3439
   83POPC   D2A 1423   2.421   3.506   7.892  0.1243 -0.0891  0.1912
   83POPC   C3A 1424   2.517   3.426   7.432  0.1234 -0.1380 -0.0142
   83POPC   C4A 1425   2.501   3.304   7.051  0.0804 -0.1481 -0.3535
   83POPC   C1B 1426   2.708   3.266   8.248  0.0339  0.2416 -0.0700
   83POPC   C2B 1427   2.711   2.783   8.150 -0.0055 -0.5027  0.3037
   83POPC   C3B 1428   3.131   2.663   8.197  0.0565 -0.1054 -0.1296
   83POPC   C4B 1429   3.609   2.554   8.439  0.0209 -0.1810 -0.2444
   84POPC   NC3 1430   3.692   9.018   9.293 -0.2687  0.0775 -0.3573
   84POPC   PO4 1431   3.812   8.844   8.887  0.1986  0.0675 -0.1314
   84POPC   GL1 1432   3.975   9.101   8.576  0.0406 -0.1060  0.0976
   84POPC   GL2 1433   4.280   8.976   8.534 -0.2616 -0.2856  0.0114
   84POPC   C1A 1434   3.777   9.237   8.229 -0.1217  0.0339 -0.2457
   84POPC   D2A 1435   3.803   9.546   7.867  0.1536 -0.0489  0.1713
   84POPC   C3A 1436   3.589   9.373   7.521  0.0456  0.5448 -0.2278
   84POPC   C4A 1437   3.616   9.374   7.094  0.0249  0.2358 -0.1144
   84POPC   C1B 1438   4.262   9.202   8.069  0.0313  0.0317  0.0954
   84POPC   C2B 1439   4.245   9.349   7.678 -0.0336  0.1573  0.1393
   84POPC   C3B 1440   4.081   9.429   7.266  0.0153  0.0172 -0.1700
   84POPC   C4B 1441   4.090   9.507   6.813 -0.0713 -0.0562  0.4341
   85POPC   NC3 1442   5.172   7.931   8.294  0.1013 -0.0994  0.1468
   85POPC   PO4 1443   4.911   7.771   8.650  0.0008  0.0680  0.0719
   85POPC   GL1 1444   4.622   7.822   8.318  0.0075  0.2397  0.1170
   85POPC   GL2 1445   4.649   7.846   7.929 -0.2630 -0.1095 -0.0114
   85POPC   C1A 1446   4.231   7.805   8.157 -0.0809 -0.4488  0.1334
   85POPC   D2A 1447   3.873   7.855   8.149 -0.2966  0.0812 -0.2349
   85POPC   C3A 1448   3.828   8.063   7.800 -0.0723 -0.0199 -0.0208
   85POPC   C4A 1449   3.468   8.329   7.742 -0.1459 -0.3467 -0.0591
   85POPC   C1B 1450   5.004   7.981   7.635 -0.0723  0.1331 -0.0996
   85POPC   C2B 1451   5.256   8.278   7.753 -0.0425  0.0168  0.0089
   85POPC   C3B 1452   5.514   8.582   7.851  0.1881 -0.0820  0.0046
   85POPC   C4B 1453   5.501   9.097   7.826  0.2400  0.0368 -0.1576
   86POPC   NC3 1454   7.999   1.733   9.199  0.1432 -0.1497 -0.1180
   86POPC   PO4 1455   7.790   1.571   8.885  0.0778 -0.0496  0.1639
   86POPC   GL1 1456   7.631   1.670   8.526 -0.0914 -0.0431  0.0590
   86POPC   GL2 1457   7.703   1.900   8.330 -0.2212  0.2198  0.0772
   86POPC   C1A 1458   7.214   1.544   8.389  0.0235  0.1110 -0.0312
   86POPC   D2A 1459   6.773   1.547   8.357  0.2437 -0.2867  0.1303
   86POPC   C3A 1460   6.499   1.380   8.086  0.3067 -0.2280 -0.0378
   86POPC   C4A 1461   6.500   1.294   7.673 -0.6224 -0.0614  0.0946
   86POPC   C1B 1462   7.420   1.889   7.937  0.1960 -0.0493  0.2205
   86POPC   C2B 1463   7.296   1.962   7.461  0.1460 -0.2895  0.0294
   86POPC   C3B 1464   7.432   1.866   7.077 -0.1843 -0.0268 -0.0172
   86POPC   C4B 1465   7.557   2.283   6.994  0.1823  0.0729  0.0530
   87POPC   NC3 1466   3.603   8.219   8.433  0.1013  0.0319  0.2770
   87POPC   PO4 1467   3.491   7.802   8.445 -0.2252  0.2194 -0.0650
   87POPC   GL1 1468   3.344   7.983   8.091 -0.2089  0.0318 -0.1654
   87POPC   GL2 1469   3.196   8.229   8.113 -0.1232  0.0829 -0.0285
   87POPC   C1A 1470   3.205   7.933   7.603  0.0043  0.2076 -0.0785
   87POPC   D2A 1471   3.395   8.000   7.212 -0.1712  0.1051 -0.2218
   87POPC   C3A 1472   3.182   8.189   6.893 -0.1067 -0.2912 -0.0929
   87POPC   C4A 1473   2.749   8.233   6.731 -0.0281  0.0378  0.3607
   87POPC   C1B 1474   3.008   8.454   7.711 -0.0995  0.0153 -0.2828
   87POPC   C2B 1475   2.860   8.792   7.650 -0.3217 -0.0764  0.0357
   87POPC   C3B 1476   2.530   9.054   7.413  0.0283  0.0229  0.0799
   87POPC   C4B 1477   2.603   9.405   7.171 -0.2465  0.3545 -0.1485
   88POPC   NC3 1478   8.401   8.178   9.039 -0.1931  0.1780  0.0398
   88POPC   PO4 1479   8.003   7.996   8.885  0.1290 -0.1817 -0.0889
   88POPC   GL1 1480   7.902   7.933   8.474  0.0699 -0.2643 -0.3237
   88POPC   GL2 1481   7.895   8.270   8.438 -0.2960  0.1473 -0.2567
   88POPC   C1A 1482   8.100   7.763   8.141  0.0060 -0.1125 -0.0043
   88POPC   D2A 1483   8.476   7.889   7.945  0.0496 -0.4143 -0.0419
   88POPC   C3A 1484   8.452   7.939   7.491  0.2254 -0.1538 -0.2771
   88POPC   C4A 1485   8.472   8.017   6.995 -0.2138  0.2219 -0.0604
   88POPC   C1B 1486   8.075   8.281   7.987 -0.0724 -0.0868 -0.2300
   88POPC   C2B 1487   8.301   8.430   7.666 -0.3147  0.2088  0.2667
   88POPC   C3B 1488   8.564   8.364   7.374 -0.0602  0.1294  0.0641
   88POPC   C4B 1489   8.686   8.578   7.062  0.0343  0.1153  0.2493
   89POPC   NC3 1490   8.956   8.122   9.114 -0.0667 -0.0292  0.5524
   89POPC   PO4 1491   9.183   8.458   9.236 -0.0992 -0.0802 -0.1871
   89POPC   GL1 1492   8.875   8.596   8.848 -0.0806 -0.0568  0.0308
   89POPC   GL2 1493   8.742   8.405   8.680 -0.0995 -0.0231 -0.0650
   89POPC   C1A 1494   8.874   8.923   8.504  0.2860 -0.2728  0.0435
   89POPC   D2A 1495   8.987   9.229   8.246  0.1459 -0.0405 -0.0101
   89POPC   C3A 1496   8.788   9.583   8.115 -0.2851  0.1957  0.2209
   89POPC   C4A 1497   8.934   9.972   7.901 -0.1856 -0.2787  0.3619
   89POPC   C1B 1498   8.668   8.498   8.210  0.1278 -0.1680  0.1547
   89POPC   C2B 1499   8.823   8.397   7.883  0.0037  0.2115 -0.3329
   89POPC   C3B 1500   9.084   8.438   7.473 -0.2585 -0.0310 -0.1097
   89POPC   C4B 1501   9.198   8.458   7.008  0.0374 -0.0779  0.3146
   90POPC   NC3 1502   6.457   4.844   8.455 -0.2022  0.3198  0.2777
   90POPC   PO4 1503   6.846   4.627   8.499 -0.0639 -0.2324  0.0021
   90POPC   GL1 1504   6.745   4.665   8.070 -0.0097  0.1492  0.3388
   90POPC   GL2 1505   6.537   4.397   8.092  0.0566  0.1924  0.1112
   90POPC   C1A 1506   6.816   4.668   7.607 -0.1000 -0.1607  0.0730
   90POPC   D2A 1507   6.866   4.511   7.127 -0.1321  0.1850 -0.2667
   90POPC   C3A 1508   7.139   4.703   6.865  0.2331 -0.0430 -0.3665
   90POPC   C4A 1509   7.285   5.063   6.509 -0.1554 -0.0944  0.2889
   90POPC   C1B 1510   6.283   4.620   7.819 -0.0941  0.0302  0.2118
   90POPC   C2B 1511   6.274   4.748   7.418  0.1400  0.0534 -0.0465
   90POPC   C3B 1512   6.292   4.513   6.989  0.1094  0.2517 -0.2364
   90POPC   C4B 1513   6.132   4.122   6.745  0.2003 -0.2998  0.1105
   91POPC   NC3 1514   5.999   6.377   8.195  0.3475 -0.1210  0.0606
   91POPC   PO4 1515   6.375   6.500   8.179 -0.2196 -0.1595  0.0066
   91POPC   GL1 1516   6.495   6.362   7.718  0.2132  0.1057  0.0995
   91POPC   GL2 1517   6.796   6.391   7.728 -0.0538 -0.2587  0.3020
   91POPC   C1A 1518   6.585   6.243   7.250 -0.1791  0.0041 -0.2208
   91POPC   D2A 1519   6.567   6.165   6.824  0.3447  0.2727  0.1970
   91POPC   C3A 1520   6.552   5.693   6.714 -0.1073 -0.1764  0.0294
   91POPC   C4A 1521   6.323   5.340   6.919 -0.1285 -0.1511 -0.2554
   91POPC   C1B 1522   6.987   6.094   7.498 -0.0773 -0.0414 -0.0527
   91POPC   C2B 1523   6.944   5.900   7.054  0.3065  0.2451 -0.1040
   91POPC   C3B 1524   7.010   6.011   6.552  0.2997 -0.0572  0.1320
   91POPC   C4B 1525   7.072   6.127   6.176 -0.0462  0.1718  0.2101
   92POPC   NC3 1526   9.500   5.622   7.959 -0.0591 -0.0446 -0.1578
   92POPC   PO4 1527   9.204   5.260   8.140  0.0349  0.0234 -0.0273
   92POPC   GL1 1528   9.175   5.172   7.704 -0.0091 -0.1301  0.0860
   92POPC   GL2 1529   9.121   4.840   7.669 -0.0358  0.0849  0.1692
   92POPC   C1A 1530   9.400   5.254   7.394  0.2051 -0.1002 -0.0621
   92POPC   D2A 1531   9.503   5.187   6.887  0.2203  0.1777 -0.1062
   92POPC   C3A 1532   9.776   5.177   6.591  0.1030 -0.0074  0.0095
   92POPC   C4A 1533   9.835   4.857   6.266 -0.1219  0.2077 -0.1915
   92POPC   C1B 1534   9.121   4.912   7.275  0.0354 -0.1702 -0.0486
   92POPC   C2B 1535   9.001   4.992   6.804 -0.3626  0.2564  0.1805
   92POPC   C3B 1536   8.831   5.183   6.439  0.2920 -0.3439 -0.0112
   92POPC   C4B 1537   8.545   5.409   6.207  0.1964 -0.3193  0.1271
   93POPC   NC3 1538   5.243   9.088   9.087  0.0235  0.1848  0.3867
   93POPC   PO4 1539   4.872   8.738   9.052 -0.1099  0.1185  0.1018
   93POPC   GL1 1540   4.683   8.566   8.634 -0.1199 -0.1975  0.1091
   93POPC   GL2 1541   4.847   8.302   8.364  0.4251 -0.1428  0.0222
   93POPC   C1A 1542   4.621   8.734   8.245  0.2663  0.0567  0.3548
   93POPC   D2A 1543   4.394   8.719   7.805 -0.1260 -0.1589  0.1591
   93POPC   C3A 1544   4.690   8.929   7.487 -0.0998  0.0006 -0.2675
   93POPC   C4A 1545   4.556   9.263   7.226 -0.3415  0.0863  0.1692
   93POPC   C1B 1546   4.831   8.339   7.995 -0.0011  0.1412  0.0975
   93POPC   C2B 1547   4.809   8.421   7.621 -0.0233  0.1144 -0.2442
   93POPC   C3B 1548   4.955   8.357   7.171  0.1063 -0.1072 -0.1574
   93POPC   C4B 1549   5.105   8.323   6.709  0.1886  0.0099 -0.2970
   94POPC   NC3 1550   6.290   0.283   9.156 -0.1160  0.0057 -0.1488
   94POPC   PO4 1551   6.369   0.746   9.194  0.0285  0.0071 -0.1075
   94POPC   GL1 1552   6.262   0.856   8.816  0.0718  0.1155  0.2648
   94POPC   GL2 1553   5.936   0.876   8.767  0.1767 -0.0614  0.1443
   94POPC   C1A 1554   6.142   0.861   8.302 -0.1835  0.0953 -0.1968
   94POPC   D2A 1555   6.133   0.993   7.828  0.0435  0.1621 -0.2087
   94POPC   C3A 1556   6.329   0.886   7.449 -0.2871  0.0145  0.3279
   94POPC   C4A 1557   6.543   1.242   7.109 -0.1004 -0.1472 -0.3865
   94POPC   C1B 1558   6.087   1.292   8.571 -0.0834 -0.1742 -0.1067
   94POPC   C2B 1559   5.943   1.335   8.108 -0.0438  0.0831  0.4259
   94POPC   C3B 1560   6.051   1.473   7.680  0.0818  0.1081 -0.1567
   94POPC   C4B 1561   6.366   1.647   7.368  0.0520 -0.0542 -0.1271
   95POPC   NC3 1562   3.202   0.351   9.232 -0.0718  0.2494  0.0008
   95POPC   PO4 1563   3.663   0.122   9.196 -0.0628 -0.1621 -0.2570
   95POPC   GL1 1564   3.451   0.398   8.798  0.0246  0.2488  0.0898
   95POPC   GL2 1565   3.102   0.495   8.615  0.0712  0.0089 -0.1366
   95POPC   C1A 1566   3.723   0.625   8.510 -0.2556  0.0148  0.0138
   95POPC   D2A 1567   4.006   0.795   8.247 -0.0117  0.1979 -0.1822
   95POPC   C3A 1568   4.104   0.624   7.942 -0.1140 -0.1255 -0.1542
   95POPC   C4A 1569   4.239   0.742   7.615 -0.1285 -0.1167  0.0802
   95POPC   C1B 1570   3.168   0.785   8.329 -0.3270 -0.4000  0.2608
   95POPC   C2B 1571   3.529   0.827   8.098 -0.1289  0.1398  0.1968
   95POPC   C3B 1572   3.817   1.040   7.838 -0.0204  0.0900  0.0999
   95POPC   C4B 1573   3.967   1.171   7.552 -0.2307 -0.4229 -0.0715
   96POPC   NC3 1574   4.533   8.387   9.102 -0.2293  0.1622  0.0353
   96POPC   PO4 1575   4.475   8.064   8.739 -0.1896  0.1522 -0.0731
   96POPC   GL1 1576   4.234   8.342   8.480  0.1935 -0.2874 -0.1601
   96POPC   GL2 1577   3.959   8.566   8.509  0.1485 -0.0365 -0.1652
   96POPC   C1A 1578   4.214   8.284   8.023 -0.1660 -0.0652 -0.0328
   96POPC   D2A 1579   4.316   8.171   7.643 -0.2737  0.1734  0.1391
   96POPC   C3A 1580   4.371   8.436   7.377 -0.2774  0.1568  0.6094
   96POPC   C4A 1581   4.602   8.773   7.063 -0.1120 -0.2421 -0.1184
   96POPC   C1B 1582   4.060   8.753   8.171  0.5346  0.1019 -0.0491
   96POPC   C2B 1583   3.927   8.539   7.661 -0.0271 -0.0051  0.3155
   96POPC   C3B 1584   3.899   8.299   7.253  0.1738 -0.0287  0.0307
   96POPC   C4B 1585   3.814   8.109   6.875 -0.0514 -0.0746 -0.0395
   97POPC   NC3 1586   3.507   8.030   8.943 -0.3548 -0.1585 -0.0706
   97POPC   PO4 1587   3.473   8.466   8.828  0.0054 -0.0896 -0.1809
   97POPC   GL1 1588   3.425   8.798   8.453 -0.0192 -0.3346  0.0984
   97POPC   GL2 1589   3.312   9.139   8.334 -0.3277 -0.0180 -0.0735
   97POPC   C1A 1590   3.597   8.769   8.011 -0.0571  0.0740 -0.0556
   97POPC   D2A 1591   3.859   8.996   7.760 -0.3493 -0.0053  0.0374
   97POPC   C3A 1592   4.164   8.903   7.378  0.2070  0.0830  0.2792
   97POPC   C4A 1593   4.097   8.960   6.966 -0.1473  0.4739  0.2171
   97POPC   C1B 1594   3.373   9.258   7.920 -0.1685  0.1281 -0.0744
   97POPC   C2B 1595   3.366   8.964   7.578 -0.0118  0.0175 -0.0485
   97POPC   C3B 1596   3.014   9.009   7.248 -0.0753  0.1270 -0.0848
   97POPC   C4B 1597   2.700   8.722   7.062  0.4457 -0.0696 -0.1076
   98POPC   NC3 1598   1.009   3.193   8.570  0.0887  0.2969  0.0766
   98POPC   PO4 1599   1.222   3.503   8.702  0.1127 -0.0859 -0.1672
   98POPC   GL1 1600   1.227   3.628   8.137 -0.3229  0.1716  0.1532
   98POPC   GL2 1601   0.916   3.783   8.067  0.3055 -0.2356 -0.3785
   98POPC   C1A 1602   1.451   3.794   7.715 -0.1533 -0.1498 -0.3810
   98POPC   D2A 1603   1.596   4.148   7.637 -0.0091  0.2823 -0.2432
   98POPC   C3A 1604   1.666   4.266   7.111 -0.2673  0.2911 -0.1927
   98POPC   C4A 1605   2.027   4.439   6.902 -0.0768 -0.0476  0.1313
   98POPC   C1B 1606   1.030   3.554   7.602 -0.0139  0.0990 -0.1777
   98POPC   C2B 1607   1.102   3.448   7.270  0.0230 -0.0673  0.2985
   98POPC   C3B 1608   1.254   3.753   6.995  0.0630 -0.0596 -0.0039
   98POPC   C4B 1609   1.228   4.009   6.616 -0.1906 -0.0924  0.1151
   99POPC   NC3 1610   9.623   9.652   9.446  0.1306 -0.0891 -0.2275
   99POPC   PO4 1611   9.661   9.357   9.089  0.3616  0.1357 -0.2978
   99POPC   GL1 1612   9.581   9.330   8.572 -0.1014  0.0654  0.0964
   99POPC   GL2 1613   9.326   9.525   8.573 -0.0034  0.1179  0.2665
   99POPC   C1A 1614   9.454   9.012   8.256  0.0005 -0.0181  0.2511
   99POPC   D2A 1615   9.585   8.768   7.864  0.2803 -0.0379 -0.0657
   99POPC   C3A 1616   9.693   8.667   7.522  0.0691 -0.1861  0.1577
   99POPC   C4A 1617  10.093   8.908   7.505 -0.1844 -0.2782  0.0458
   99POPC   C1B 1618   9.221   9.760   8.233 -0.2315 -0.2647 -0.3964
   99POPC   C2B 1619   9.173   9.500   7.820 -0.0557  0.1997  0.1322
   99POPC   C3B 1620   9.249   9.116   7.649 -0.0442  0.1083 -0.1400
   99POPC   C4B 1621   9.235   8.869   7.514 -0.0119 -0.4045  0.1991
  100POPC   NC3 1622   1.238   1.427   9.322  0.1323 -0.1271  0.1643
  100POPC   PO4 1623   1.686   1.501   9.048  0.2256 -0.2573  0.0146
  100POPC   GL1 1624   1.753   1.613   8.610 -0.1876 -0.1795 -0.3135
  100POPC   GL2 1625   1.941   1.505   8.394 -0.1723  0.0285  0.1088
  100POPC   C1A 1626   1.518   1.800   8.237  0.1570  0.2571 -0.2355
  100POPC   D2A 1627   1.592   1.893   7.809  0.1644  0.2120 -0.3559
  100POPC   C3A 1628   2.043   1.883   7.572  0.0022  0.1897 -0.0023
  100POPC   C4A 1629   2.082   1.779   7.232 -0.2078  0.0179  0.2593
  100POPC   C1B 1630   2.004   1.920   8.148  0.3849 -0.0354 -0.1173
  100POPC   C2B 1631   2.322   2.082   7.926  0.0433  0.1393  0.1991
  100POPC   C3B 1632   2.748   2.374   7.751  0.1359  0.0443 -0.1640
  100POPC   C4B 1633   3.263   2.476   7.764  0.3151 -0.1212 -0.0070
  101POPC   NC3 1634   1.828   8.206   8.413 -0.0989  0.0056 -0.1555
  101POPC   PO4 1635   1.849   7.707   8.286 -0.1837 -0.3121 -0.0946
  101POPC   GL1 1636   1.641   7.934   8.018 -0.1157  0.1661 -0.1537
  101POPC   GL2 1637   1.251   7.842   8.050  0.3461 -0.2925  0.1209
  101POPC   C1A 1638   1.515   8.161   7.683 -0.0389 -0.1112 -0.1882
  101POPC   D2A 1639   1.362   8.268   7.253 -0.1415 -0.0989  0.2161
  101POPC   C3A 1640   1.035   8.582   7.184 -0.1657  0.0774 -0.2686
  101POPC   C4A 1641   0.716   8.672   6.784 -0.1879 -0.0858  0.0637
  101POPC   C1B 1642   1.367   7.687   7.635 -0.0219  0.2385 -0.0947
  101POPC   C2B 1643   1.528   7.245   7.360 -0.0682  0.0895 -0.1156
  101POPC   C3B 1644   1.629   6.999   6.986  0.1910  0.1902 -0.0841
  101POPC   C4B 1645   1.507   6.672   6.691 -0.1034 -0.1800  0.1058
  102POPC   NC3 1646   2.540   8.197   8.620  0.0112 -0.1769 -0.0895
  102POPC   PO4 1647   2.307   8.545   8.468 -0.1819 -0.1425  0.1424
  102POPC   GL1 1648   2.073   8.671   8.117  0.2474 -0.1054  0.0118
  102POPC   GL2 1649   1.703   8.869   8.081 -0.0177 -0.1723 -0.2953
  102POPC   C1A 1650   1.857   8.596   7.764 -0.0423 -0.1123 -0.2289
  102POPC   D2A 1651   1.581   8.625   7.493 -0.0231  0.0106 -0.1419
  102POPC   C3A 1652   1.672   8.686   7.095  0.2887  0.0179 -0.2038
  102POPC   C4A 1653   1.909   8.583   6.778  0.3890  0.0799  0.1895
  102POPC   C1B 1654   1.603   9.122   7.644 -0.3222  0.0202 -0.0794
  102POPC   C2B 1655   1.583   9.248   7.177  0.0403 -0.1340  0.2516
  102POPC   C3B 1656   1.783   9.231   6.811  0.1099 -0.1164  0.0838
  102POPC   C4B 1657   1.768   9.391   6.412 -0.0560 -0.1428 -0.3821
  103POPC   NC3 1658   1.684   5.785   8.262  0.0656  0.0297  0.1697
  103POPC   PO4 1659   1.948   5.462   8.374 -0.0504  0.2132  0.2770
  103POPC   GL1 1660   1.898   5.344   7.977 -0.1022  0.0069  0.0235
  103POPC   GL2 1661   1.947   5.652   7.661  0.0027  0.2911 -0.0268
  103POPC   C1A 1662   2.118   5.205   7.625 -0.1221  0.2804  0.0579
  103POPC   D2A 1663   2.383   5.246   7.310 -0.3853 -0.0762 -0.2584
  103POPC   C3A 1664   2.673   4.924   7.284 -0.3633 -0.1519 -0.4434
  103POPC   C4A 1665   2.823   4.540   7.205 -0.1015 -0.0535 -0.1677
  103POPC   C1B 1666   2.011   5.633   7.190  0.1684 -0.1263 -0.1313
  103POPC   C2B 1667   2.215   5.414   6.918 -0.0948 -0.0491  0.0607
  103POPC   C3B 1668   2.380   5.036   6.775 -0.3480 -0.0997 -0.0570
  103POPC   C4B 1669   2.507   4.611   6.857  0.0407 -0.0498  0.1813
  104POPC   NC3 1670   2.529   4.329   9.336  0.1051  0.4438  0.0263
  104POPC   PO4 1671   2.523   4.029   8.988  0.2675  0.3295 -0.0886
  104POPC   GL1 1672   2.522   4.199   8.556 -0.1347  0.3271  0.0664
  104POPC   GL2 1673   2.276   4.297   8.321  0.2255  0.0609  0.2222
  104POPC   C1A 1674   2.638   3.908   8.184 -0.4733 -0.2562 -0.0604
  104POPC   D2A 1675   2.881   3.730   7.972 -0.1602  0.0812 -0.0018
  104POPC   C3A 1676   2.867   3.345   7.743  0.0277 -0.1260 -0.3283
  104POPC   C4A 1677   2.956   2.900   7.771 -0.1746  0.0903  0.3683
  104POPC   C1B 1678   2.308   4.170   7.935 -0.2707 -0.1451 -0.1291
  104POPC   C2B 1679   2.460   3.898   7.607 -0.0336  0.0666 -0.1437
  104POPC   C3B 1680   2.572   3.864   7.172 -0.3186 -0.3570 -0.0831
  104POPC   C4B 1681   2.694   3.690   6.729 -0.1597  0.0833  0.0025
  105POPC   NC3 1682   9.416   7.779   8.470 -0.1115 -0.1077 -0.0123
  105POPC   PO4 1683   9.720   7.520   8.763 -0.0496 -0.2798 -0.1553
  105POPC   GL1 1684   9.790   7.537   8.206  0.2877 -0.0522  0.0036
  105POPC   GL2 1685   9.682   7.867   8.037 -0.1087  0.3171 -0.1464
  105POPC   C1A 1686   9.476   7.238   7.853 -0.2161  0.1258  0.0978
  105POPC   D2A 1687   9.448   6.941   7.518  0.3501  0.1939  0.2379
  105POPC   C3A 1688   9.382   7.120   7.010  0.0216  0.0398 -0.0145
  105POPC   C4A 1689   9.147   7.038   6.685 -0.0902 -0.1766 -0.2168
  105POPC   C1B 1690   9.567   7.702   7.646  0.2140 -0.1648 -0.1251
  105POPC   C2B 1691   9.171   7.596   7.427  0.0442  0.1707 -0.1562
  105POPC   C3B 1692   9.080   7.540   7.004 -0.1819 -0.0419  0.0719
  105POPC   C4B 1693   8.820   7.466   6.737  0.3626  0.0266  0.2085
  106POPC   NC3 1694   4.413   0.193   9.468 -0.0828  0.1479 -0.3513
  106POPC   PO4 1695   4.758  -0.214   9.331  0.3773 -0.0567 -0.0398
  106POPC   GL1 1696   4.830   0.174   9.090  0.1264  0.0401 -0.0915
  106POPC   GL2 1697   4.952   0.223   8.803 -0.2570  0.2398 -0.2545
  106POPC   C1A 1698   4.451   0.425   8.803  0.3144 -0.2696  0.1249
  106POPC   D2A 1699   4.266   0.350   8.398 -0.0214  0.1203 -0.2513
  106POPC   C3A 1700   4.439   0.308   8.115 -0.3917  0.0389  0.2560
  106POPC   C4A 1701   4.509   0.352   7.624 -0.0647  0.2094 -0.1586
  106POPC   C1B 1702   4.693  -0.048   8.491 -0.2911  0.0252 -0.5465
  106POPC   C2B 1703   4.628  -0.164   8.120 -0.0538 -0.2349  0.2277
  106POPC   C3B 1704   4.616  -0.211   7.688  0.2113  0.1448 -0.0282
  106POPC   C4B 1705   4.481  -0.078   7.262  0.1390  0.0596  0.0899
  107POPC   NC3 1706   1.241   5.709   8.355  0.3261  0.0249 -0.1188
  107POPC   PO4 1707   1.315   5.304   8.276  0.1317  0.0537 -0.1083
  107POPC   GL1 1708   1.360   5.474   7.913 -0.1446  0.0165  0.1263
  107POPC   GL2 1709   1.424   5.757   7.811  0.0307 -0.1340 -0.3437
  107POPC   C1A 1710   1.075   5.509   7.545  0.0162  0.0962 -0.4580
  107POPC   D2A 1711   0.684   5.715   7.492  0.0803  0.1845  0.0496
  107POPC   C3A 1712   0.718   5.967   7.229 -0.2188 -0.1312 -0.1669
  107POPC   C4A 1713   0.637   6.146   7.015  0.4601  0.1184 -0.0298
  107POPC   C1B 1714   1.535   5.584   7.325  0.0642  0.2166 -0.1781
  107POPC   C2B 1715   1.416   5.280   7.073  0.3497 -0.0727 -0.3042
  107POPC   C3B 1716   1.190   4.974   7.225 -0.1615  0.1389 -0.3374
  107POPC   C4B 1717   0.846   4.892   7.504 -0.0143 -0.1761  0.3705
  108POPC   NC3 1718   9.650   3.163   8.794 -0.2110 -0.1327 -0.3182
  108POPC   PO4 1719   9.997   2.858   8.644  0.2105  0.1402  0.0698
  108POPC   GL1 1720  10.153   2.687   8.203 -0.1259  0.0286 -0.2012
  108POPC   GL2 1721  10.432   2.635   8.158  0.0439 -0.5213 -0.3654
  108POPC   C1A 1722  10.011   2.464   7.942 -0.2618  0.1994 -0.0343
  108POPC   D2A 1723  10.041   2.173   7.577 -0.3505 -0.1446 -0.0143
  108POPC   C3A 1724  10.132   2.440   7.247 -0.1774  0.1446  0.0606
  108POPC   C4A 1725  10.321   2.497   6.926  0.0354 -0.0518  0.1447
  108POPC   C1B 1726  10.829   2.720   7.937  0.0898 -0.1629 -0.0921
  108POPC   C2B 1727  11.129   2.780   7.728 -0.1302 -0.1274 -0.0134
  108POPC   C3B 1728  11.366   3.062   7.431  0.0567  0.1029  0.2416
  108POPC   C4B 1729  11.529   3.412   7.447 -0.3462  0.0942 -0.0444
  109POPC   NC3 1730   2.055   1.057   9.124  0.0041 -0.3253 -0.1362
  109POPC   PO4 1731   1.822   1.065   8.715 -0.0467  0.1855 -0.1116
  109POPC   GL1 1732   1.592   1.102   8.292 -0.0197 -0.1330 -0.1232
  109POPC   GL2 1733   1.863   1.032   8.111 -0.0373 -0.2058  0.0983
  109POPC   C1A 1734   1.586   1.413   7.909  0.1478 -0.0234 -0.0758
  109POPC   D2A 1735   1.749   1.470   7.447 -0.2255  0.1057  0.0556
  109POPC   C3A 1736   1.568   1.900   7.283 -0.0355 -0.0922  0.0897
  109POPC   C4A 1737   1.347   2.067   6.937  0.2222  0.1269  0.2279
  109POPC   C1B 1738   1.842   1.052   7.621  0.2763  0.0047  0.1449
  109POPC   C2B 1739   2.102   1.097   7.217 -0.2810  0.0787  0.0224
  109POPC   C3B 1740   2.626   0.923   7.115  0.1075 -0.3347  0.0574
  109POPC   C4B 1741   2.955   0.916   7.167 -0.1018 -0.0966 -0.1824
  110POPC   NC3 1742   2.390   7.726   9.087 -0.2467  0.0224 -0.1835
  110POPC   PO4 1743   2.636   7.728   8.643  0.0044  0.0206  0.0776
  110POPC   GL1 1744   2.810   7.872   8.182 -0.4727  0.2260  0.3147
  110POPC   GL2 1745   2.976   7.655   7.982  0.2664 -0.1882  0.0277
  110POPC   C1A 1746   2.692   8.006   7.784 -0.0835  0.1607  0.1486
  110POPC   D2A 1747   2.847   8.207   7.294 -0.3209 -0.1149  0.4475
  110POPC   C3A 1748   3.252   8.524   7.320 -0.2527  0.0679  0.0522
  110POPC   C4A 1749   3.666   8.855   7.236  0.1676  0.2113 -0.0322
  110POPC   C1B 1750   3.096   7.371   7.648 -0.0965 -0.2937 -0.0319
  110POPC   C2B 1751   3.034   7.568   7.187 -0.1397  0.2757 -0.0811
  110POPC   C3B 1752   2.911   7.801   6.971  0.0158 -0.2671 -0.0018
  110POPC   C4B 1753   3.102   7.890   6.476 -0.0259  0.1600 -0.0055
  111POPC   NC3 1754   9.171   6.622   8.323  0.1956 -0.0418 -0.1788
  111POPC   PO4 1755   9.006   6.294   8.263  0.1385 -0.0114  0.0233
  111POPC   GL1 1756   8.676   6.613   8.015 -0.0452  0.0802 -0.4253
  111POPC   GL2 1757   8.432   6.370   8.040  0.1128  0.0751  0.0851
  111POPC   C1A 1758   8.633   6.971   7.702  0.1883  0.0481 -0.3254
  111POPC   D2A 1759   8.930   7.172   7.451  0.0043 -0.0124 -0.0022
  111POPC   C3A 1760   8.999   6.900   7.210 -0.3166 -0.0333  0.2102
  111POPC   C4A 1761   9.327   6.584   6.971 -0.3648 -0.1946  0.0949
  111POPC   C1B 1762   8.622   6.112   7.688  0.0681  0.1681  0.3721
  111POPC   C2B 1763   8.497   6.011   7.294 -0.1114 -0.1638 -0.0684
  111POPC   C3B 1764   8.407   5.756   6.905  0.4337 -0.1770 -0.1970
  111POPC   C4B 1765   8.338   5.342   6.740  0.0542 -0.0227 -0.0191
  112POPC   NC3 1766   3.081   8.141   8.588 -0.0989  0.1941 -0.1108
  112POPC   PO4 1767   2.990   8.365   8.902  0.1619  0.2498 -0.0079
  112POPC   GL1 1768   2.921   8.592   8.494 -0.0633  0.2303 -0.1594
  112POPC   GL2 1769   2.734   8.464   8.183  0.1202 -0.1367 -0.2347
  112POPC   C1A 1770   3.067   8.824   8.091 -0.3164 -0.0109 -0.1212
  112POPC   D2A 1771   2.853   9.220   7.882  0.1509 -0.2972  0.3462
  112POPC   C3A 1772   3.031   9.477   7.573  0.1373 -0.0864  0.0951
  112POPC   C4A 1773   3.127   9.482   7.154  0.1406 -0.1449 -0.0528
  112POPC   C1B 1774   2.455   8.552   7.837  0.1265  0.1235 -0.1319
  112POPC   C2B 1775   2.414   8.532   7.430 -0.2259 -0.1552  0.0680
  112POPC   C3B 1776   2.345   8.329   7.036  0.0526  0.2256 -0.2860
  112POPC   C4B 1777   2.330   7.845   6.933 -0.0477  0.0043  0.2566
  113POPC   NC3 1778   0.894   4.779   8.808  0.1707  0.2412  0.0102
  113POPC   PO4 1779   0.448   4.924   8.648 -0.0683  0.0931 -0.0174
  113POPC   GL1 1780   0.446   4.677   8.218  0.2342  0.1491  0.2057
  113POPC   GL2 1781   0.337   4.898   7.975 -0.2318 -0.6987 -0.2472
  113POPC   C1A 1782   0.681   4.541   7.916 -0.1797 -0.2379 -0.0238
  113POPC   D2A 1783   0.665   4.385   7.488 -0.0234  0.1727 -0.1070
  113POPC   C3A 1784   0.543   4.234   7.078  0.0735 -0.1520  0.0019
  113POPC   C4A 1785   0.436   4.402   6.800  0.2118 -0.0256  0.2008
  113POPC   C1B 1786   0.288   4.782   7.531 -0.2314  0.0146  0.0068
  113POPC   C2B 1787   0.078   4.496   7.219  0.2351 -0.2924  0.0794
  113POPC   C3B 1788  -0.087   4.179   6.972 -0.1555 -0.2066  0.0535
  113POPC   C4B 1789  -0.126   3.777   6.750 -0.2394  0.2694  0.0104
  114POPC   NC3 1790   4.089   1.217   9.864 -0.1810 -0.0394  0.1635
  114POPC   PO4 1791   4.348   1.583   9.740 -0.3061  0.4050 -0.0708
  114POPC   GL1 1792   4.511   1.580   9.337  0.0466 -0.0114  0.1620
  114POPC   GL2 1793   4.759   1.459   9.347  0.0248  0.2789 -0.0521
  114POPC   C1A 1794   4.338   1.485   8.902  0.0368  0.1732  0.3794
  114POPC   D2A 1795   4.211   1.190   8.469 -0.0014  0.2395 -0.1370
  114POPC   C3A 1796   4.472   0.800   8.408  0.0885 -0.0363 -0.1111
  114POPC   C4A 1797   4.824   0.504   8.390 -0.1807  0.2241 -0.0421
  114POPC   C1B 1798   4.852   1.564   8.847 -0.0650  0.1515  0.0716
  114POPC   C2B 1799   4.685   1.732   8.467 -0.0147 -0.2177 -0.1927
  114POPC   C3B 1800   4.233   1.780   8.471  0.0609 -0.2090  0.1998
  114POPC   C4B 1801   3.977   1.561   8.238  0.1461  0.0561 -0.0130
  115POPC   NC3 1802   5.282   7.006   8.400 -0.0860  0.2414  0.0068
  115POPC   PO4 1803   5.311   7.401   8.433  0.0615 -0.1754  0.0301
  115POPC   GL1 1804   5.022   7.465   8.090  0.1136 -0.1114  0.0190
  115POPC   GL2 1805   4.879   7.121   8.028 -0.3787 -0.0748 -0.2620
  115POPC   C1A 1806   5.029   7.531   7.667  0.2230  0.1636 -0.0154
  115POPC   D2A 1807   5.051   7.567   7.275 -0.2380  0.1524  0.1132
  115POPC   C3A 1808   5.411   7.494   7.135 -0.0074  0.2895 -0.5495
  115POPC   C4A 1809   5.761   7.294   7.155 -0.1299  0.0881  0.3981
  115POPC   C1B 1810   5.059   6.961   7.623  0.0396 -0.1205  0.2405
  115POPC   C2B 1811   5.240   7.042   7.231  0.1328  0.0124 -0.1593
  115POPC   C3B 1812   5.287   6.978   6.833 -0.1014 -0.1416 -0.1981
  115POPC   C4B 1813   5.489   6.886   6.449 -0.2693 -0.1606  0.1184
  116POPC   NC3 1814   4.707   4.468   9.105 -0.0918 -0.1919 -0.1893
  116POPC   PO4 1815   4.537   4.618   8.649  0.1978 -0.0711  0.0612
  116POPC   GL1 1816   4.592   4.292   8.290 -0.0254 -0.3734  0.1355
  116POPC   GL2 1817   4.428   3.998   8.372 -0.0195 -0.1444  0.3937
  116POPC   C1A 1818   4.642   4.336   7.903 -0.0165  0.2163 -0.0269
  116POPC   D2A 1819   4.918   4.218   7.539  0.0655  0.0953 -0.0664
  116POPC   C3A 1820   4.611   4.341   7.180 -0.0593  0.0889  0.2133
  116POPC   C4A 1821   4.714   4.643   6.836 -0.0914 -0.0271  0.0558
  116POPC   C1B 1822   4.105   4.216   8.241  0.1579 -0.3597  0.1447
  116POPC   C2B 1823   3.724   4.427   8.065 -0.1335  0.1795  0.2495
  116POPC   C3B 1824   3.302   4.664   7.966 -0.2199  0.3617 -0.2204
  116POPC   C4B 1825   2.949   4.774   7.663  0.2564 -0.1075 -0.3310
  117POPC   NC3 1826   6.451   8.846   8.905 -0.0285  0.0482 -0.1518
  117POPC   PO4 1827   6.688   9.087   8.496 -0.1189 -0.0780 -0.1473
  117POPC   GL1 1828   6.957   9.123   8.191  0.1972 -0.0462  0.2827
  117POPC   GL2 1829   6.902   9.205   7.926  0.1189  0.0095  0.1104
  117POPC   C1A 1830   7.328   9.017   7.895 -0.0676 -0.0211  0.1464
  117POPC   D2A 1831   7.509   9.318   7.668 -0.0910  0.0315  0.0658
  117POPC   C3A 1832   7.654   9.283   7.303 -0.0543 -0.1287  0.0038
  117POPC   C4A 1833   8.067   9.392   7.184 -0.0075  0.1870 -0.0668
  117POPC   C1B 1834   6.856   8.826   7.620 -0.0062  0.2748  0.0060
  117POPC   C2B 1835   6.610   8.730   7.330  0.0179  0.0920  0.1218
  117POPC   C3B 1836   6.478   8.646   6.914  0.1556  0.0585 -0.0697
  117POPC   C4B 1837   6.295   8.338   6.739 -0.0266  0.0122 -0.3145
  118POPC   NC3 1838   5.151   6.045   8.247 -0.0536  0.2174 -0.5024
  118POPC   PO4 1839   4.892   6.278   8.470  0.2027  0.1639 -0.5988
  118POPC   GL1 1840   4.739   6.279   8.055  0.2833  0.0954 -0.0368
  118POPC   GL2 1841   4.647   6.556   8.036 -0.1577  0.1923 -0.0521
  118POPC   C1A 1842   4.808   6.204   7.687  0.0952 -0.1023  0.4341
  118POPC   D2A 1843   4.542   5.938   7.532  0.1625  0.0949 -0.3863
  118POPC   C3A 1844   4.877   5.892   7.222 -0.2263 -0.0153 -0.2543
  118POPC   C4A 1845   4.835   5.679   6.709 -0.3436 -0.3123 -0.1927
  118POPC   C1B 1846   4.661   6.728   7.717 -0.0264 -0.1202  0.0016
  118POPC   C2B 1847   4.485   6.743   7.377  0.0269  0.1970  0.0351
  118POPC   C3B 1848   4.591   6.369   7.164 -0.0360  0.1323 -0.0484
  118POPC   C4B 1849   4.443   5.860   6.974  0.4432  0.0614  0.1288
  119POPC   NC3 1850   4.367   6.058   8.278  0.2678  0.1575  0.1319
  119POPC   PO4 1851   4.018   6.203   8.591 -0.0524  0.1441 -0.3656
  119POPC   GL1 1852   4.004   6.435   8.254 -0.0740  0.0508 -0.0447
  119POPC   GL2 1853   3.889   6.286   8.037 -0.3644  0.1901  0.2384
  119POPC   C1A 1854   4.226   6.497   7.781  0.2073  0.0130 -0.1325
  119POPC   D2A 1855   4.128   6.389   7.331 -0.0609  0.1103 -0.2596
  119POPC   C3A 1856   3.992   6.000   7.218  0.0610  0.2141  0.0650
  119POPC   C4A 1857   3.939   5.574   7.113  0.0994  0.0497  0.2014
  119POPC   C1B 1858   3.737   6.155   7.619  0.3547  0.2282 -0.0782
  119POPC   C2B 1859   3.420   6.032   7.327  0.0096  0.3228 -0.2687
  119POPC   C3B 1860   3.430   5.637   7.161  0.1223  0.1009 -0.1661
  119POPC   C4B 1861   3.571   5.262   6.979  0.0634 -0.2707 -0.0166
  120POPC   NC3 1862   8.492   2.914   8.425 -0.1824 -0.1374  0.0059
  120POPC   PO4 1863   8.407   3.377   8.331  0.3509 -0.1178  0.0748
  120POPC   GL1 1864   8.219   3.381   7.898 -0.4461  0.1325  0.1712
  120POPC   GL2 1865   8.188   3.089   7.767  0.3127  0.1079 -0.1087
  120POPC   C1A 1866   8.159   3.543   7.506 -0.3128  0.0031  0.0518
  120POPC   D2A 1867   7.851   3.578   7.208 -0.1181 -0.4175  0.2059
  120POPC   C3A 1868   7.585   3.787   6.818 -0.0964 -0.0431 -0.4036
  120POPC   C4A 1869   7.351   3.635   6.552 -0.1111  0.0136  0.0258
  120POPC   C1B 1870   7.919   3.071   7.444 -0.3739 -0.0082  0.0443
  120POPC   C2B 1871   7.672   3.138   7.208  0.2386  0.0635  0.1684
  120POPC   C3B 1872   7.339   3.439   7.048  0.0945  0.3097  0.1766
  120POPC   C4B 1873   6.958   3.539   6.918 -0.2077  0.1297  0.0201
  121POPC   NC3 1874   5.050   0.617   9.105 -0.0943 -0.2674  0.0887
  121POPC   PO4 1875   4.711   0.620   9.466  0.1320  0.1836  0.1584
  121POPC   GL1 1876   4.271   0.675   9.288 -0.1110  0.1448 -0.1782
  121POPC   GL2 1877   4.049   0.390   9.142 -0.1071  0.0716 -0.0677
  121POPC   C1A 1878   4.073   0.791   8.829 -0.0265 -0.0723  0.2417
  121POPC   D2A 1879   3.833   1.185   8.771  0.0642  0.3822  0.0051
  121POPC   C3A 1880   3.577   1.156   8.461 -0.0746  0.2225  0.1050
  121POPC   C4A 1881   3.464   1.342   8.058  0.3152 -0.1607 -0.1647
  121POPC   C1B 1882   4.028   0.095   8.748 -0.2740 -0.4550  0.2889
  121POPC   C2B 1883   3.813   0.113   8.354  0.1038  0.1745 -0.0368
  121POPC   C3B 1884   3.704   0.287   7.967  0.2490  0.0109  0.0473
  121POPC   C4B 1885   3.804   0.449   7.555  0.1031  0.2255  0.2119
  122POPC   NC3 1886   3.714   2.149  10.046  0.2187  0.0740  0.1477
  122POPC   PO4 1887   3.893   2.612   9.924  0.0097  0.0551 -0.0994
  122POPC   GL1 1888   4.069   2.743   9.479 -0.0886  0.3066  0.2617
  122POPC   GL2 1889   4.272   2.492   9.456 -0.4661  0.0446 -0.0172
  122POPC   C1A 1890   4.265   2.754   9.017 -0.0812  0.1773 -0.1753
  122POPC   D2A 1891   4.233   3.084   8.802  0.3840 -0.0678  0.1190
  122POPC   C3A 1892   3.994   3.143   8.398 -0.1917  0.3621  0.5026
  122POPC   C4A 1893   3.675   2.935   8.117  0.0517 -0.1268 -0.2896
  122POPC   C1B 1894   4.166   2.120   9.222 -0.2805  0.2180 -0.3109
  122POPC   C2B 1895   3.985   1.884   8.999  0.2427  0.3178  0.0741
  122POPC   C3B 1896   3.764   1.679   8.707  0.1054  0.0745  0.1850
  122POPC   C4B 1897   3.559   1.830   8.310 -0.0326  0.1873  0.2397
  123POPC   NC3 1898   7.483   2.859   8.372  0.1155 -0.0674  0.2893
  123POPC   PO4 1899   7.285   2.578   8.643  0.1028 -0.1053  0.1336
  123POPC   GL1 1900   7.075   2.496   8.244 -0.0136  0.2074  0.1978
  123POPC   GL2 1901   7.185   2.654   8.009 -0.0166 -0.2495 -0.2809
  123POPC   C1A 1902   6.964   2.159   7.919  0.2253 -0.2136 -0.1638
  123POPC   D2A 1903   6.753   2.174   7.542  0.0331 -0.0893  0.2055
  123POPC   C3A 1904   6.885   2.181   7.160  0.1781  0.1264  0.1039
  123POPC   C4A 1905   7.006   2.153   6.751 -0.5015 -0.1190 -0.1614
  123POPC   C1B 1906   6.937   2.650   7.783  0.2660 -0.1255  0.0736
  123POPC   C2B 1907   7.009   2.598   7.361 -0.2837 -0.1153  0.0524
  123POPC   C3B 1908   7.320   2.788   6.945  0.1289  0.2379  0.0950
  123POPC   C4B 1909   7.601   2.609   6.544 -0.0616  0.1724 -0.1880
  124POPC   NC3 1910   6.776   9.799   8.637 -0.1985  0.1135  0.2703
  124POPC   PO4 1911   6.615  10.204   8.774  0.2368  0.1445 -0.1708
  124POPC   GL1 1912   6.487  10.383   8.349  0.3072 -0.0765  0.2468
  124POPC   GL2 1913   6.149  10.296   8.350  0.2159 -0.2291 -0.1731
  124POPC   C1A 1914   6.645  10.704   8.048 -0.1470 -0.0758  0.2815
  124POPC   D2A 1915   6.949  11.023   7.880  0.1030 -0.0820  0.2461
  124POPC   C3A 1916   6.994  11.058   7.472 -0.0420  0.0658  0.0381
  124POPC   C4A 1917   7.031  11.086   7.054 -0.1361  0.1270 -0.0727
  124POPC   C1B 1918   6.245  10.229   7.937  0.1203 -0.1416 -0.2398
  124POPC   C2B 1919   6.040  10.364   7.536 -0.2191  0.3225 -0.2078
  124POPC   C3B 1920   5.727  10.312   7.228  0.1828 -0.3291  0.1623
  124POPC   C4B 1921   5.433  10.100   6.950  0.0243 -0.2869 -0.2329
  125POPC   NC3 1922   9.401   2.069   8.560 -0.2279  0.1728  0.0085
  125POPC   PO4 1923   9.021   2.395   8.673 -0.0792  0.1206 -0.0712
  125POPC   GL1 1924   8.899   2.115   8.298  0.0481  0.0626  0.0943
  125POPC   GL2 1925   9.098   2.152   8.050  0.0395  0.2627  0.0486
  125POPC   C1A 1926   8.853   1.717   7.973  0.1091 -0.0917  0.1885
  125POPC   D2A 1927   8.461   1.788   7.668 -0.0781 -0.4597  0.2794
  125POPC   C3A 1928   8.416   1.660   7.269  0.0544  0.2607 -0.3613
  125POPC   C4A 1929   8.572   1.154   7.141  0.2928  0.2673  0.0694
  125POPC   C1B 1930   8.855   2.158   7.763 -0.2854  0.0422 -0.2519
  125POPC   C2B 1931   8.883   1.846   7.461  0.1519 -0.0402  0.3573
  125POPC   C3B 1932   9.137   1.834   7.154  0.3652 -0.2607  0.0857
  125POPC   C4B 1933   9.423   1.545   6.889  0.1132  0.2539  0.1659
  126POPC   NC3 1934   8.438   0.917   8.851  0.1510 -0.0973  0.0068
  126POPC   PO4 1935   8.622   1.311   8.702 -0.0294 -0.3522 -0.0335
  126POPC   GL1 1936   8.261   1.203   8.472  0.1731 -0.2243  0.1864
  126POPC   GL2 1937   8.060   1.029   8.309  0.2815 -0.0193  0.0840
  126POPC   C1A 1938   7.936   1.468   8.205  0.0393 -0.1289 -0.3092
  126POPC   D2A 1939   7.868   1.633   7.833  0.0333 -0.0308  0.1079
  126POPC   C3A 1940   7.959   1.456   7.417 -0.2984 -0.4335  0.1993
  126POPC   C4A 1941   8.075   1.084   7.352 -0.2358  0.4201 -0.3512
  126POPC   C1B 1942   7.958   1.101   7.873  0.1694  0.3361 -0.1364
  126POPC   C2B 1943   7.604   0.962   7.542  0.0154  0.2054  0.1465
  126POPC   C3B 1944   7.232   0.723   7.296  0.0472 -0.0078  0.1353
  126POPC   C4B 1945   6.819   0.657   7.000 -0.1273  0.0422 -0.4251
  127POPC   NC3 1946   6.534   7.444   7.920 -0.0343 -0.1209 -0.1808
  127POPC   PO4 1947   6.350   7.039   8.180 -0.2035  0.0247  0.0352
  127POPC   GL1 1948   6.299   6.869   7.805 -0.4554 -0.0964 -0.0546
  127POPC   GL2 1949   5.968   6.670   7.774 -0.3801  0.3486  0.0737
  127POPC   C1A 1950   6.294   6.749   7.405  0.1226 -0.0483  0.0199
  127POPC   D2A 1951   6.684   6.715   7.305 -0.0833 -0.2010 -0.0487
  127POPC   C3A 1952   7.038   6.399   7.092 -0.0489 -0.0463  0.0969
  127POPC   C4A 1953   7.513   6.468   6.865 -0.0797 -0.1378  0.2301
  127POPC   C1B 1954   5.739   6.921   7.538  0.0510  0.0914 -0.0317
  127POPC   C2B 1955   5.789   6.843   7.059  0.2926  0.0147  0.0461
  127POPC   C3B 1956   5.473   6.550   6.962 -0.3273 -0.3445  0.0451
  127POPC   C4B 1957   5.023   6.322   6.914 -0.0119 -0.1660  0.1564
  128POPC   NC3 1958   9.615   2.944   8.339  0.0061 -0.4079 -0.0434
  128POPC   PO4 1959   9.450   2.621   8.219 -0.0643 -0.2415 -0.0171
  128POPC   GL1 1960   9.250   2.561   7.810  0.2525  0.1025 -0.0539
  128POPC   GL2 1961   9.299   2.824   7.673  0.1712  0.3842 -0.2563
  128POPC   C1A 1962   8.847   2.587   7.583  0.1635 -0.0422 -0.0253
  128POPC   D2A 1963   8.473   2.942   7.391  0.4902 -0.2052  0.0722
  128POPC   C3A 1964   8.201   3.004   7.046  0.0246  0.2870  0.2682
  128POPC   C4A 1965   7.867   2.766   6.867  0.1988 -0.0467  0.0637
  128POPC   C1B 1966   9.677   2.681   7.453  0.2070 -0.1036 -0.2177
  128POPC   C2B 1967   9.657   2.218   7.176  0.0096 -0.2999  0.2078
  128POPC   C3B 1968   9.888   2.127   6.781  0.0491  0.1786 -0.1113
  128POPC   C4B 1969  10.144   2.307   6.504 -0.0289  0.3636  0.1348
  129POPC   NC3 1970   9.852   6.456   8.650 -0.0961 -0.0788 -0.0797
  129POPC   PO4 1971  10.037   6.576   8.336  0.1102  0.0930  0.0243
  129POPC   GL1 1972  10.114   6.401   7.964  0.3552 -0.1722  0.1926
  129POPC   GL2 1973   9.856   6.580   7.723 -0.1950  0.1260 -0.1147
  129POPC   C1A 1974  10.323   6.218   7.673  0.0636 -0.0537 -0.0475
  129POPC   D2A 1975  10.086   6.169   7.360 -0.1273 -0.2676 -0.1547
  129POPC   C3A 1976   9.823   6.513   7.206  0.0155  0.0089  0.1687
  129POPC   C4A 1977   9.817   6.921   6.937 -0.0270 -0.1468  0.1251
  129POPC   C1B 1978  10.222   6.653   7.412  0.0733 -0.3729  0.1266
  129POPC   C2B 1979  10.224   6.692   7.021 -0.1825 -0.0587 -0.0768
  129POPC   C3B 1980  10.210   6.882   6.654  0.0420 -0.1375  0.1005
  129POPC   C4B 1981  10.543   6.935   6.490 -0.0016  0.2036  0.0230
  130POPC   NC3 1982   8.283   4.173   8.389  0.2320  0.2863  0.1226
  130POPC   PO4 1983   8.457   3.823   8.098 -0.0383  0.0978  0.1246
  130POPC   GL1 1984   8.478   3.926   7.708  0.0610 -0.0081 -0.1070
  130POPC   GL2 1985   8.749   4.059   7.620  0.1420 -0.0751  0.1243
  130POPC   C1A 1986   8.135   4.079   7.367  0.0585  0.2162 -0.0712
  130POPC   D2A 1987   7.717   4.215   7.377 -0.0082 -0.1346 -0.1959
  130POPC   C3A 1988   7.442   4.279   6.898 -0.0936 -0.2750  0.2090
  130POPC   C4A 1989   7.407   4.471   6.414 -0.1456 -0.1335 -0.3266
  130POPC   C1B 1990   8.633   4.241   7.298 -0.0670 -0.1584 -0.1468
  130POPC   C2B 1991   8.445   4.271   6.933 -0.1576 -0.1391  0.2821
  130POPC   C3B 1992   8.421   4.334   6.507 -0.1432 -0.3116  0.3001
  130POPC   C4B 1993   8.294   4.058   6.123  0.0734 -0.1542  0.1153
  131POPC   NC3 1994   2.914   3.123  10.007  0.3006 -0.3381  0.0420
  131POPC   PO4 1995   2.678   3.301   9.604 -0.0290  0.2245 -0.0580
  131POPC   GL1 1996   3.008   3.183   9.372 -0.1705 -0.2085  0.2034
  131POPC   GL2 1997   3.242   3.350   9.528 -0.0609 -0.0216 -0.0304
  131POPC   C1A 1998   3.349   2.953   9.067  0.2385  0.1426  0.0117
  131POPC   D2A 1999   3.565   2.564   9.097 -0.0101  0.1692  0.2765
  131POPC   C3A 2000   3.835   2.361   8.857  0.0857 -0.3965  0.0751
  131POPC   C4A 2001   3.883   2.190   8.466  0.0525  0.0570  0.1155
  131POPC   C1B 2002   3.585   3.315   9.322 -0.0192 -0.0510 -0.0816
  131POPC   C2B 2003   3.837   3.097   9.115  0.1579  0.1590 -0.4015
  131POPC   C3B 2004   3.761   2.923   8.752  0.2008  0.1020 -0.0832
  131POPC   C4B 2005   3.383   3.070   8.521 -0.0747  0.0021 -0.1869
  132POPC   NC3 2006   1.882   5.056   9.066 -0.1525  0.0877 -0.1477
  132POPC   PO4 2007   1.802   4.674   8.714 -0.2061  0.1763 -0.2182
  132POPC   GL1 2008   1.810   4.599   8.266 -0.1754 -0.1191 -0.0776
  132POPC   GL2 2009   1.783   4.927   8.297  0.2055 -0.0046 -0.2410
  132POPC   C1A 2010   1.611   4.812   7.865 -0.0748  0.0758 -0.0366
  132POPC   D2A 2011   1.534   5.070   7.487 -0.1993  0.1312 -0.0580
  132POPC   C3A 2012   1.843   5.109   7.182 -0.5506 -0.0050  0.0290
  132POPC   C4A 2013   2.157   4.882   7.118  0.1002  0.2897 -0.3232
  132POPC   C1B 2014   2.199   4.833   7.973 -0.0543 -0.2060 -0.2161
  132POPC   C2B 2015   2.399   4.742   7.641  0.1656 -0.1341  0.1056
  132POPC   C3B 2016   2.370   4.398   7.285  0.1250 -0.0794 -0.0738
  132POPC   C4B 2017   2.085   4.177   7.373 -0.1463  0.0419 -0.1880
  133POPC   NC3 2018   5.232   6.517   8.741  0.0553  0.0609  0.0803
  133POPC   PO4 2019   5.386   6.439   8.424  0.2277  0.0241  0.0293
  133POPC   GL1 2020   5.469   6.326   7.936  0.1258  0.1952 -0.1348
  133POPC   GL2 2021   5.636   6.127   7.785  0.1995 -0.1671  0.1673
  133POPC   C1A 2022   5.361   6.559   7.618  0.1717 -0.1855 -0.0404
  133POPC   D2A 2023   5.015   6.535   7.357  0.2978 -0.0462  0.0945
  133POPC   C3A 2024   4.875   6.771   7.001  0.0950  0.0048 -0.2106
  133POPC   C4A 2025   4.648   6.699   6.711  0.0417  0.0534  0.5051
  133POPC   C1B 2026   5.741   6.415   7.404 -0.1977 -0.0368  0.1406
  133POPC   C2B 2027   6.080   6.414   7.112 -0.2874 -0.0938 -0.3852
  133POPC   C3B 2028   6.352   6.632   6.895  0.1265 -0.2661  0.0315
  133POPC   C4B 2029   6.621   6.887   6.810 -0.6264  0.1632 -0.1671
  134POPC   NC3 2030   5.299   4.075   9.796 -0.0263 -0.0029 -0.3518
  134POPC   PO4 2031   4.873   4.130   9.488  0.2171 -0.2494 -0.2557
  134POPC   GL1 2032   4.602   3.948   9.036 -0.0359 -0.0453  0.0974
  134POPC   GL2 2033   4.429   3.722   8.861  0.0589  0.0244 -0.1783
  134POPC   C1A 2034   4.835   3.914   8.683 -0.0118  0.0507  0.1312
  134POPC   D2A 2035   4.922   3.567   8.301 -0.0525  0.2306 -0.2334
  134POPC   C3A 2036   5.447   3.581   8.221 -0.1647  0.0773  0.1549
  134POPC   C4A 2037   5.746   3.590   8.543  0.1094 -0.0693  0.1822
  134POPC   C1B 2038   4.587   3.403   8.628 -0.0251  0.0056 -0.4120
  134POPC   C2B 2039   4.503   3.024   8.321 -0.1101  0.0396  0.4684
  134POPC   C3B 2040   4.628   2.700   8.061  0.3267 -0.0884  0.2021
  134POPC   C4B 2041   4.909   2.451   7.777  0.0609  0.0071 -0.0479
  135POPC   NC3 2042   5.376   7.785   8.749 -0.0812  0.4453 -0.2566
  135POPC   PO4 2043   5.715   7.868   8.391  0.2327  0.4093 -0.3022
  135POPC   GL1 2044   5.709   8.178   8.045 -0.2030  0.2106  0.0625
  135POPC   GL2 2045   5.994   8.453   7.993  0.1289 -0.3754 -0.3521
  135POPC   C1A 2046   5.772   8.210   7.621  0.1165  0.1732 -0.2262
  135POPC   D2A 2047   5.476   8.404   7.270 -0.2459 -0.3645 -0.5125
  135POPC   C3A 2048   5.651   8.918   7.367 -0.1265 -0.0129  0.1058
  135POPC   C4A 2049   5.723   9.358   7.211  0.3802  0.2949 -0.0957
  135POPC   C1B 2050   5.977   8.826   7.884  0.1145  0.2335 -0.1164
  135POPC   C2B 2051   5.964   9.265   7.664 -0.1535 -0.0541 -0.2445
  135POPC   C3B 2052   6.158   9.529   7.361  0.1269  0.0346  0.0946
  135POPC   C4B 2053   6.396   9.615   7.019 -0.0510 -0.2329 -0.1819
  136POPC   NC3 2054   8.789   7.370   9.074 -0.2181 -0.0938 -0.1661
  136POPC   PO4 2055   8.911   7.470   8.552 -0.0633 -0.3127 -0.0812
  136POPC   GL1 2056   8.972   7.525   8.132 -0.0830 -0.3306  0.2783
  136POPC   GL2 2057   9.091   7.819   7.978 -0.0879  0.1542 -0.4416
  136POPC   C1A 2058   8.746   7.507   7.753 -0.0448  0.0328 -0.0454
  136POPC   D2A 2059   8.702   7.580   7.298 -0.0567  0.0915 -0.0490
  136POPC   C3A 2060   8.413   7.492   6.940 -0.1788  0.1589  0.0381
  136POPC   C4A 2061   8.424   7.557   6.456 -0.0086  0.0638 -0.0433
  136POPC   C1B 2062   8.928   8.001   7.627 -0.2154  0.0681  0.0138
  136POPC   C2B 2063   8.971   7.980   7.174  0.2108 -0.5241  0.1385
  136POPC   C3B 2064   8.895   8.133   6.758  0.2311  0.3279 -0.0906
  136POPC   C4B 2065   8.922   7.862   6.434 -0.0294 -0.3926  0.0062
  137POPC   NC3 2066   8.761   5.500   8.288  0.5273  0.1849  0.3456
  137POPC   PO4 2067   9.000   5.771   8.028 -0.2482 -0.0192 -0.0001
  137POPC   GL1 2068   9.093   5.694   7.581  0.2614  0.0215 -0.0940
  137POPC   GL2 2069   9.045   5.979   7.333  0.1497  0.1287 -0.0052
  137POPC   C1A 2070   8.930   5.448   7.281 -0.1037  0.5530 -0.1969
  137POPC   D2A 2071   8.953   5.476   6.840  0.2757 -0.0813  0.1484
  137POPC   C3A 2072   9.121   5.831   6.834 -0.0118 -0.1740  0.0303
  137POPC   C4A 2073   9.102   6.227   6.635  0.0881  0.3505  0.1449
  137POPC   C1B 2074   8.839   6.315   7.074  0.1900  0.0343  0.2268
  137POPC   C2B 2075   8.820   6.664   6.778  0.0554 -0.2827 -0.0890
  137POPC   C3B 2076   8.583   6.574   6.456 -0.0646  0.2194  0.1953
  137POPC   C4B 2077   8.417   6.492   6.028  0.0903  0.1437 -0.1090
  138POPC   NC3 2078   1.834   7.049   8.400  0.0424 -0.0353  0.3357
  138POPC   PO4 2079   2.016   6.645   8.391  0.1011  0.0686  0.3253
  138POPC   GL1 2080   2.190   6.779   8.001 -0.0351 -0.1528  0.2897
  138POPC   GL2 2081   2.389   6.474   8.008  0.1659  0.1168 -0.0402
  138POPC   C1A 2082   2.338   6.954   7.613  0.1385  0.1003 -0.0171
  138POPC   D2A 2083   2.422   7.160   7.272  0.2561 -0.3168 -0.1347
  138POPC   C3A 2084   2.506   7.603   7.329 -0.1431  0.1244  0.0876
  138POPC   C4A 2085   2.366   7.939   7.392 -0.0993  0.2052 -0.5618
  138POPC   C1B 2086   2.328   6.113   7.770 -0.1299 -0.1645 -0.4230
  138POPC   C2B 2087   2.343   6.149   7.304  0.0419  0.1963  0.0136
  138POPC   C3B 2088   2.265   6.046   6.856 -0.0907 -0.0416 -0.0528
  138POPC   C4B 2089   2.067   5.916   6.550  0.1301  0.2061  0.1078
  139POPC   NC3 2090   7.998   3.630   8.250  0.2924 -0.0145  0.1646
  139POPC   PO4 2091   7.667   3.327   8.387 -0.2108  0.0688  0.0554
  139POPC   GL1 2092   7.744   3.255   7.973 -0.1220 -0.2590  0.0236
  139POPC   GL2 2093   7.677   2.953   7.886  0.2489 -0.1030 -0.0278
  139POPC   C1A 2094   7.544   3.522   7.643 -0.1087  0.2635 -0.2261
  139POPC   D2A 2095   7.056   3.599   7.523 -0.0959  0.0696 -0.1595
  139POPC   C3A 2096   6.913   3.938   7.513  0.1748  0.0928  0.1552
  139POPC   C4A 2097   6.890   4.189   7.838  0.0515 -0.0571  0.0569
  139POPC   C1B 2098   7.313   3.064   7.580  0.4297  0.1995  0.0538
  139POPC   C2B 2099   7.020   3.144   7.274  0.1897 -0.0883 -0.0903
  139POPC   C3B 2100   6.640   3.239   7.130 -0.0682  0.1319 -0.0703
  139POPC   C4B 2101   6.413   3.082   6.857  0.1164  0.0910 -0.3969
  140POPC   NC3 2102   4.733   1.882   9.705  0.2352  0.0855  0.0716
  140POPC   PO4 2103   5.077   2.174   9.836 -0.2711  0.1559 -0.2927
  140POPC   GL1 2104   5.124   2.113   9.374  0.0145 -0.4357 -0.0301
  140POPC   GL2 2105   4.730   2.157   9.301 -0.0274 -0.3177 -0.2838
  140POPC   C1A 2106   5.104   1.942   9.082 -0.1374  0.5184  0.1515
  140POPC   D2A 2107   5.401   1.734   8.687 -0.0187 -0.0576 -0.1284
  140POPC   C3A 2108   5.232   1.436   8.346 -0.0798 -0.2877  0.1798
  140POPC   C4A 2109   5.090   1.375   7.961 -0.0548  0.1749  0.0897
  140POPC   C1B 2110   4.839   2.249   8.915 -0.0453  0.0529  0.0563
  140POPC   C2B 2111   5.089   2.057   8.514  0.0374 -0.1938  0.1869
  140POPC   C3B 2112   4.980   1.887   8.102 -0.0191  0.1184 -0.2889
  140POPC   C4B 2113   5.367   1.745   7.840  0.2754 -0.1963  0.0357
  141POPC   NC3 2114   3.392   4.033  10.046 -0.0317  0.1911  0.2142
  141POPC   PO4 2115   3.359   3.903   9.632  0.1590 -0.0354 -0.0341
  141POPC   GL1 2116   3.299   3.771   9.266 -0.0672  0.4642  0.4403
  141POPC   GL2 2117   3.519   3.897   8.904  0.2787 -0.0154  0.0599
  141POPC   C1A 2118   3.243   3.476   8.972  0.3775  0.2417 -0.1149
  141POPC   D2A 2119   2.871   3.259   8.764  0.0723 -0.1874  0.0120
  141POPC   C3A 2120   2.924   2.904   8.640 -0.2655 -0.1487 -0.0176
  141POPC   C4A 2121   3.184   2.597   8.714 -0.0762 -0.0458  0.2780
  141POPC   C1B 2122   3.493   3.872   8.490 -0.1627 -0.1344  0.1103
  141POPC   C2B 2123   3.648   3.938   8.162 -0.0552 -0.0210 -0.4635
  141POPC   C3B 2124   3.785   4.040   7.716 -0.0509  0.1625 -0.0228
  141POPC   C4B 2125   4.039   3.893   7.387  0.3740  0.0125  0.1625
  142POPC   NC3 2126   8.148   5.344   8.544 -0.0887 -0.0235 -0.1226
  142POPC   PO4 2127   8.509   5.087   8.405  0.2483 -0.0333 -0.3210
  142POPC   GL1 2128   8.447   5.217   7.952  0.2804 -0.1217 -0.0506
  142POPC   GL2 2129   8.761   5.380   7.796 -0.1981 -0.0737 -0.0363
  142POPC   C1A 2130   8.163   4.978   7.587  0.1439  0.1365 -0.1874
  142POPC   D2A 2131   7.944   5.175   7.311 -0.2487 -0.3414 -0.0049
  142POPC   C3A 2132   8.017   5.046   6.975 -0.2427  0.0281  0.1373
  142POPC   C4A 2133   7.873   4.989   6.586  0.0182  0.2600 -0.0046
  142POPC   C1B 2134   8.288   5.608   7.581 -0.3265  0.1272 -0.0441
  142POPC   C2B 2135   8.029   5.776   7.393  0.1484 -0.3138  0.1616
  142POPC   C3B 2136   7.969   5.530   6.998  0.1339  0.0637  0.1060
  142POPC   C4B 2137   7.695   5.401   6.595  0.0065 -0.1079 -0.2134
  143POPC   NC3 2138   6.987   3.374   9.100  0.2711 -0.1149  0.2231
  143POPC   PO4 2139   6.849   2.999   9.112 -0.0858 -0.3296  0.1237
  143POPC   GL1 2140   6.707   2.793   8.661 -0.2169  0.2050 -0.2019
  143POPC   GL2 2141   6.893   2.892   8.405 -0.1465 -0.2953  0.2295
  143POPC   C1A 2142   6.434   2.406   8.660 -0.1211  0.3130  0.4148
  143POPC   D2A 2143   6.023   2.476   8.424 -0.2752 -0.0148 -0.0341
  143POPC   C3A 2144   5.679   2.785   8.350 -0.2752 -0.0756  0.0946
  143POPC   C4A 2145   5.664   3.145   8.001 -0.1325  0.1049  0.2012
  143POPC   C1B 2146   6.577   2.954   8.044  0.2376 -0.0009  0.1627
  143POPC   C2B 2147   6.112   2.774   7.935  0.2610  0.2272 -0.0313
  143POPC   C3B 2148   5.864   2.435   7.810  0.0541  0.1267 -0.2031
  143POPC   C4B 2149   5.391   2.259   7.870  0.0736  0.1762 -0.2889
  144POPC   NC3 2150   8.980   1.606   8.592  0.0817  0.0243  0.2452
  144POPC   PO4 2151   9.096   1.213   8.874 -0.0166  0.2257 -0.0207
  144POPC   GL1 2152   9.102   1.076   8.470  0.2757  0.0569  0.1932
  144POPC   GL2 2153   8.886   0.939   8.349 -0.0565  0.2073 -0.2092
  144POPC   C1A 2154   9.031   1.209   7.987 -0.0428 -0.3407 -0.1004
  144POPC   D2A 2155   8.902   0.896   7.613 -0.0888  0.0320 -0.4512
  144POPC   C3A 2156   9.170   0.945   7.334  0.2281 -0.1633 -0.2766
  144POPC   C4A 2157   9.442   0.980   7.037 -0.1170  0.3966 -0.0909
  144POPC   C1B 2158   8.607   0.997   8.086  0.0365 -0.1161 -0.0046
  144POPC   C2B 2159   8.319   0.761   7.806 -0.3097 -0.0891  0.1615
  144POPC   C3B 2160   8.448   0.724   7.359  0.1069 -0.2820  0.0962
  144POPC   C4B 2161   8.647   0.468   7.108 -0.1071 -0.0880 -0.0503
  145POPC   NC3 2162   6.258   9.223   8.641  0.2380 -0.0027 -0.0724
  145POPC   PO4 2163   5.960   9.364   8.552 -0.0286 -0.0686 -0.0364
  145POPC   GL1 2164   6.139   9.577   8.149  0.3092 -0.1000 -0.2888
  145POPC   GL2 2165   6.003   9.835   8.270 -0.4683  0.1486 -0.0122
  145POPC   C1A 2166   6.082   9.730   7.827  0.2947 -0.0284 -0.2561
  145POPC   D2A 2167   6.357   9.981   7.464 -0.2939 -0.0524  0.0561
  145POPC   C3A 2168   6.544  10.405   7.570 -0.0966  0.2704 -0.0508
  145POPC   C4A 2169   6.792  10.576   7.550 -0.1915  0.1572  0.2420
  145POPC   C1B 2170   5.694  10.033   7.969  0.0638  0.2275 -0.0845
  145POPC   C2B 2171   5.404  10.141   7.741 -0.1865  0.0277 -0.2443
  145POPC   C3B 2172   5.213  10.369   7.474  0.4159 -0.2280 -0.1105
  145POPC   C4B 2173   4.885  10.085   7.350 -0.2326  0.2852 -0.3101
  146POPC   NC3 2174   5.954   3.298  10.002  0.2901 -0.1749  0.3817
  146POPC   PO4 2175   5.692   3.437   9.586 -0.1840  0.0132 -0.0368
  146POPC   GL1 2176   5.825   3.296   9.174 -0.1171 -0.0592 -0.4208
  146POPC   GL2 2177   5.752   3.583   9.080  0.1302  0.2167 -0.0050
  146POPC   C1A 2178   6.056   3.278   8.820  0.0219 -0.0752 -0.0059
  146POPC   D2A 2179   6.536   3.255   8.614  0.2385 -0.1515 -0.1080
  146POPC   C3A 2180   6.787   3.369   8.282 -0.0043 -0.0055  0.0208
  146POPC   C4A 2181   7.027   3.733   8.109 -0.1119 -0.0781 -0.2326
  146POPC   C1B 2182   6.206   3.736   8.750  0.2421 -0.0166  0.1884
  146POPC   C2B 2183   6.450   3.765   8.338 -0.2855 -0.1844 -0.0080
  146POPC   C3B 2184   6.566   3.720   7.891  0.0369 -0.3683 -0.0772
  146POPC   C4B 2185   6.513   3.646   7.421 -0.0746 -0.0909  0.0702
  147POPC   NC3 2186   1.325   2.840   8.767  0.4586  0.2940  0.0490
  147POPC   PO4 2187   0.966   2.660   8.632 -0.2428 -0.1652 -0.2007
  147POPC   GL1 2188   0.955   2.365   8.325 -0.0215  0.0284 -0.3181
  147POPC   GL2 2189   1.009   2.013   8.273 -0.0161 -0.0010 -0.3340
  147POPC   C1A 2190   1.263   2.286   7.973 -0.3079  0.3999 -0.1288
  147POPC   D2A 2191   1.340   2.284   7.516 -0.1359  0.1533  0.0166
  147POPC   C3A 2192   1.364   2.663   7.178  0.2840  0.0397  0.2156
  147POPC   C4A 2193   1.410   2.526   6.695 -0.0830 -0.3275  0.1015
  147POPC   C1B 2194   1.076   1.830   7.894 -0.0655  0.0890  0.1127
  147POPC   C2B 2195   1.243   1.559   7.558  0.0791 -0.2027 -0.2014
  147POPC   C3B 2196   1.201   1.564   7.178  0.1356  0.4548 -0.1331
  147POPC   C4B 2197   1.541   1.272   6.936  0.0232 -0.1785  0.2339
  148POPC   NC3 2198   6.030   1.378   9.610  0.0186 -0.1114 -0.1749
  148POPC   PO4 2199   5.880   1.764   9.498  0.1065  0.1070 -0.0678
  148POPC   GL1 2200   5.758   2.005   9.208  0.1619  0.0307 -0.0903
  148POPC   GL2 2201   5.600   2.352   9.303  0.1367  0.1343 -0.2550
  148POPC   C1A 2202   5.927   2.011   8.744  0.3301 -0.1742 -0.0307
  148POPC   D2A 2203   6.159   1.775   8.501  0.0895 -0.2297  0.0621
  148POPC   C3A 2204   6.257   1.790   8.048  0.1298 -0.1367  0.1824
  148POPC   C4A 2205   6.566   1.827   7.857 -0.0051 -0.0806 -0.1571
  148POPC   C1B 2206   5.422   2.254   8.855  0.0921  0.1706  0.2801
  148POPC   C2B 2207   5.566   2.206   8.493 -0.3353 -0.1030  0.0443
  148POPC   C3B 2208   5.762   1.989   8.132 -0.2127 -0.3067  0.2743
  148POPC   C4B 2209   5.815   1.868   7.698 -0.2188 -0.3601  0.0386
  149POPC   NC3 2210   7.504   8.059   8.856 -0.1388 -0.2633 -0.1059
  149POPC   PO4 2211   7.237   8.445   8.831  0.1862 -0.2742 -0.2292
  149POPC   GL1 2212   7.345   8.284   8.429 -0.2979  0.2151 -0.1898
  149POPC   GL2 2213   7.360   7.889   8.359  0.3240 -0.0634  0.0533
  149POPC   C1A 2214   7.405   8.503   8.106 -0.1191 -0.2443 -0.0533
  149POPC   D2A 2215   7.312   8.494   7.647 -0.1775 -0.0136  0.0878
  149POPC   C3A 2216   7.328   8.897   7.387  0.0791  0.1854 -0.1603
  149POPC   C4A 2217   7.157   9.237   7.133  0.1465 -0.0224  0.1714
  149POPC   C1B 2218   7.647   8.012   8.094  0.2136 -0.2104 -0.0706
  149POPC   C2B 2219   7.949   7.979   7.643 -0.1194 -0.1988  0.0335
  149POPC   C3B 2220   7.845   8.054   7.181  0.1600 -0.1799  0.1931
  149POPC   C4B 2221   7.996   8.078   6.732 -0.2246 -0.2661  0.1038
  150POPC   NC3 2222   2.235   0.093   4.669 -0.0141  0.1302  0.1214
  150POPC   PO4 2223   1.869   0.082   4.962 -0.0603  0.1112 -0.0031
  150POPC   GL1 2224   2.184   0.330   5.116  0.1650 -0.1522 -0.0550
  150POPC   GL2 2225   2.438   0.125   5.120  0.1736 -0.2370  0.0449
  150POPC   C1A 2226   2.321   0.665   5.369 -0.0308 -0.2572  0.2669
  150POPC   D2A 2227   2.084   0.957   5.698 -0.1788  0.3865  0.1077
  150POPC   C3A 2228   2.012   0.980   6.148  0.1614  0.0600 -0.6486
  150POPC   C4A 2229   2.117   0.585   6.416  0.2521  0.1033  0.0071
  150POPC   C1B 2230   2.450   0.266   5.632  0.2015  0.2964  0.1579
  150POPC   C2B 2231   2.618   0.616   5.996 -0.3697  0.2785 -0.2987
  150POPC   C3B 2232   2.733   0.729   6.341 -0.2681 -0.1443 -0.0476
  150POPC   C4B 2233   3.022   0.650   6.696  0.1325 -0.0206  0.1879
  151POPC   NC3 2234   2.459   6.747   4.616 -0.3030  0.0700 -0.0060
  151POPC   PO4 2235   2.637   7.153   4.785  0.0458 -0.0632 -0.3407
  151POPC   GL1 2236   2.817   7.167   5.104 -0.1126 -0.2885  0.1365
  151POPC   GL2 2237   2.642   7.374   5.305  0.2693 -0.0667  0.1075
  151POPC   C1A 2238   2.930   6.899   5.421 -0.1158  0.1938  0.0045
  151POPC   D2A 2239   3.057   6.973   5.825 -0.1308  0.1823  0.1931
  151POPC   C3A 2240   2.758   6.784   6.063 -0.0948 -0.0880  0.1531
  151POPC   C4A 2241   2.568   6.426   6.116  0.1440  0.2096 -0.3727
  151POPC   C1B 2242   2.609   7.128   5.674 -0.0714 -0.1960 -0.0915
  151POPC   C2B 2243   2.620   7.270   6.115 -0.2442 -0.0654  0.0131
  151POPC   C3B 2244   2.290   7.318   6.393 -0.1384 -0.0625 -0.0271
  151POPC   C4B 2245   1.880   7.055   6.521 -0.2234  0.3702 -0.3632
  152POPC   NC3 2246   8.688   5.546   4.036 -0.3070 -0.0255 -0.0269
  152POPC   PO4 2247   8.600   5.369   4.383 -0.2037  0.2728  0.0151
  152POPC   GL1 2248   8.701   5.532   4.928  0.0218 -0.1096  0.0775
  152POPC   GL2 2249   8.428   5.311   4.932 -0.1754  0.0220 -0.1804
  152POPC   C1A 2250   8.623   5.808   5.231  0.4186 -0.1053  0.1263
  152POPC   D2A 2251   8.442   5.861   5.605 -0.0096  0.0015  0.1289
  152POPC   C3A 2252   8.471   5.950   6.039 -0.2376  0.1825 -0.4951
  152POPC   C4A 2253   8.263   5.831   6.404  0.2094  0.0452 -0.2072
  152POPC   C1B 2254   8.365   5.416   5.351  0.1350 -0.3412 -0.2650
  152POPC   C2B 2255   8.715   5.451   5.663  0.1459  0.2286 -0.0621
  152POPC   C3B 2256   9.046   5.377   6.061 -0.2632  0.0514 -0.1327
  152POPC   C4B 2257   9.532   5.213   6.104 -0.0675  0.0182 -0.1428
  153POPC   NC3 2258   4.116   6.475   4.725  0.0860 -0.1335 -0.0251
  153POPC   PO4 2259   3.890   6.154   4.558  0.5341 -0.0743  0.1222
  153POPC   GL1 2260   3.922   5.983   4.890 -0.3255  0.2276 -0.1344
  153POPC   GL2 2261   3.778   6.269   5.058  0.0797  0.2433  0.2725
  153POPC   C1A 2262   3.674   5.730   5.222 -0.2472 -0.2979  0.2781
  153POPC   D2A 2263   3.333   5.538   5.522  0.1587  0.0546 -0.1758
  153POPC   C3A 2264   2.948   5.566   5.724  0.2242 -0.1538 -0.1004
  153POPC   C4A 2265   2.473   5.554   5.915  0.0932 -0.0464  0.2663
  153POPC   C1B 2266   3.790   6.407   5.517 -0.1765  0.1457 -0.4034
  153POPC   C2B 2267   3.993   6.484   6.003 -0.1654 -0.1183 -0.2611
  153POPC   C3B 2268   3.932   6.215   6.380  0.0804  0.2007 -0.1215
  153POPC   C4B 2269   4.034   5.820   6.692 -0.1796  0.0795  0.3887
  154POPC   NC3 2270   7.091   1.299   3.174  0.3402  0.1510 -0.0226
  154POPC   PO4 2271   7.301   1.548   3.559  0.1686 -0.0986  0.1115
  154POPC   GL1 2272   7.076   1.736   3.938 -0.1805  0.0043  0.1520
  154POPC   GL2 2273   6.858   1.467   4.035  0.3838 -0.0414  0.1090
  154POPC   C1A 2274   6.806   1.920   4.298  0.3481 -0.3828 -0.1048
  154POPC   D2A 2275   6.700   2.267   4.614 -0.2418 -0.0250  0.3490
  154POPC   C3A 2276   6.574   2.182   5.106  0.0567 -0.2336  0.1415
  154POPC   C4A 2277   6.977   2.002   5.258 -0.1182  0.4663  0.1525
  154POPC   C1B 2278   6.763   1.418   4.490 -0.3225 -0.0342 -0.0248
  154POPC   C2B 2279   6.929   1.082   4.798 -0.4334 -0.0074 -0.0151
  154POPC   C3B 2280   7.239   0.922   5.142  0.3779  0.0083  0.1735
  154POPC   C4B 2281   7.106   1.095   5.517 -0.0069 -0.2222  0.3398
  155POPC   NC3 2282   5.976   6.565   4.227  0.0465 -0.2656  0.1308
  155POPC   PO4 2283   6.127   6.264   4.469  0.1604  0.2067 -0.1182
  155POPC   GL1 2284   6.251   6.096   4.855 -0.4263  0.1704 -0.4927
  155POPC   GL2 2285   6.128   6.203   5.094  0.2163  0.1612 -0.2396
  155POPC   C1A 2286   6.456   5.843   5.207  0.0218  0.1187  0.0164
  155POPC   D2A 2287   6.761   5.878   5.460 -0.1290 -0.0912 -0.1990
  155POPC   C3A 2288   6.757   5.863   5.831 -0.2046 -0.1358  0.2352
  155POPC   C4A 2289   6.569   5.917   6.186 -0.0893  0.2281 -0.0260
  155POPC   C1B 2290   6.284   6.147   5.599 -0.4331  0.3226  0.2588
  155POPC   C2B 2291   6.391   6.405   5.930 -0.2544  0.1003 -0.0412
  155POPC   C3B 2292   6.531   6.614   6.337  0.1525 -0.1182 -0.0085
  155POPC   C4B 2293   6.839   6.464   6.530  0.0924 -0.0734 -0.1478
  156POPC   NC3 2294   8.917   9.502   4.945 -0.1797 -0.2223 -0.0829
  156POPC   PO4 2295   9.124   9.105   5.172  0.0443 -0.2000  0.1178
  156POPC   GL1 2296   9.253   9.239   5.595  0.1800 -0.1447 -0.4831
  156POPC   GL2 2297   9.263   9.065   5.845 -0.0020  0.1150  0.0195
  156POPC   C1A 2298   9.125   9.500   5.971  0.1168 -0.1223 -0.1609
  156POPC   D2A 2299   9.144   9.354   6.331 -0.0706 -0.0959 -0.2940
  156POPC   C3A 2300   8.912   9.010   6.539 -0.1129  0.0570  0.2706
  156POPC   C4A 2301   8.908   8.616   6.654  0.1062  0.0693  0.1988
  156POPC   C1B 2302   9.607   9.285   6.091 -0.0401  0.0552 -0.2210
  156POPC   C2B 2303   9.944   9.321   6.374 -0.3117 -0.2596  0.0633
  156POPC   C3B 2304  10.373   9.461   6.542  0.1356  0.0399  0.0803
  156POPC   C4B 2305  10.534   9.843   6.474  0.0108 -0.1263 -0.0037
  157POPC   NC3 2306   8.123   2.203   4.030  0.1520 -0.1667  0.0204
  157POPC   PO4 2307   8.068   2.104   4.431  0.0501 -0.1048 -0.1041
  157POPC   GL1 2308   8.102   2.044   4.913  0.1860 -0.0461  0.2204
  157POPC   GL2 2309   7.880   1.771   4.932 -0.4503  0.0847  0.2350
  157POPC   C1A 2310   8.006   1.975   5.397  0.0573  0.0934 -0.2371
  157POPC   D2A 2311   7.775   1.993   5.765  0.2073 -0.0169  0.0508
  157POPC   C3A 2312   7.441   1.869   6.003  0.3671  0.0875  0.1170
  157POPC   C4A 2313   7.049   1.767   6.225  0.0810  0.0163 -0.4721
  157POPC   C1B 2314   7.546   1.941   4.965  0.2838 -0.1477  0.1366
  157POPC   C2B 2315   7.471   2.016   5.340 -0.2381  0.0764  0.2281
  157POPC   C3B 2316   7.332   2.251   5.539 -0.3289 -0.0908 -0.2589
  157POPC   C4B 2317   7.136   2.451   5.859  0.1400 -0.3233  0.1737
  158POPC   NC3 2318   1.522   9.674   4.826 -0.1413  0.1218 -0.0776
  158POPC   PO4 2319   1.198   9.424   4.688 -0.1607 -0.0503 -0.3239
  158POPC   GL1 2320   1.068   9.485   5.138 -0.1783 -0.0701  0.2109
  158POPC   GL2 2321   0.909   9.830   5.374  0.0440  0.0046 -0.2844
  158POPC   C1A 2322   0.675   9.347   5.466 -0.0128  0.2237 -0.0976
  158POPC   D2A 2323   0.801   8.884   5.661  0.0390 -0.1797  0.1856
  158POPC   C3A 2324   0.979   8.573   5.508  0.0959 -0.1361  0.3025
  158POPC   C4A 2325   1.380   8.326   5.642 -0.2256  0.2829 -0.0467
  158POPC   C1B 2326   1.188  10.000   5.777 -0.0683  0.0848 -0.0449
  158POPC   C2B 2327   1.011   9.955   6.206  0.2538 -0.0778  0.2011
  158POPC   C3B 2328   1.139   9.844   6.587  0.1154  0.1950 -0.1066
  158POPC   C4B 2329   1.324   9.429   6.727 -0.0015  0.0364  0.1015
  159POPC   NC3 2330   5.555   8.484   4.695  0.2594  0.2447  0.0940
  159POPC   PO4 2331   5.917   8.838   4.891 -0.0213 -0.1196 -0.4726
  159POPC   GL1 2332   5.894   9.124   5.327  0.3332 -0.2563  0.2155
  159POPC   GL2 2333   5.644   9.083   5.414  0.1938  0.2019  0.1771
  159POPC   C1A 2334   5.994   9.492   5.599  0.2278  0.0860  0.0136
  159POPC   D2A 2335   6.151   9.717   6.030  0.0746 -0.0495 -0.2753
  159POPC   C3A 2336   6.270  10.147   6.065  0.3085 -0.2977 -0.2221
  159POPC   C4A 2337   6.139  10.479   5.929  0.3495 -0.2248 -0.3512
  159POPC   C1B 2338   5.341   9.095   5.812 -0.2511 -0.1033  0.1490
  159POPC   C2B 2339   5.279   9.094   6.215 -0.5338  0.0855 -0.0492
  159POPC   C3B 2340   5.377   9.423   6.493 -0.0183  0.2616 -0.2398
  159POPC   C4B 2341   5.471   9.632   6.864  0.2691 -0.2622  0.0142
  160POPC   NC3 2342   4.742   7.804   4.908 -0.3000 -0.0342 -0.0108
  160POPC   PO4 2343   5.194   7.964   4.834 -0.0771  0.2812  0.0815
  160POPC   GL1 2344   5.073   7.978   5.283 -0.2513 -0.0323 -0.0762
  160POPC   GL2 2345   5.228   8.188   5.543 -0.0555 -0.0766  0.0285
  160POPC   C1A 2346   4.952   7.820   5.751  0.2067 -0.1388 -0.1456
  160POPC   D2A 2347   4.599   7.884   5.944 -0.0528  0.5276 -0.0379
  160POPC   C3A 2348   4.420   7.550   6.231 -0.1641 -0.3510  0.4580
  160POPC   C4A 2349   4.425   7.205   6.431  0.0040  0.2801 -0.2826
  160POPC   C1B 2350   5.190   8.367   5.983 -0.2542  0.4006 -0.4188
  160POPC   C2B 2351   5.258   8.596   6.281 -0.1429  0.0387  0.2391
  160POPC   C3B 2352   5.545   8.759   6.639 -0.0825  0.2653  0.1353
  160POPC   C4B 2353   5.636   9.119   6.779  0.0761 -0.0231  0.0963
  161POPC   NC3 2354   0.274   7.847   4.508  0.3143  0.2553 -0.1400
  161POPC   PO4 2355   0.657   8.081   4.531 -0.3841 -0.1760 -0.1086
  161POPC   GL1 2356   0.631   7.968   4.956  0.2112 -0.1870  0.0769
  161POPC   GL2 2357   0.376   7.824   5.038  0.1997 -0.1829 -0.0446
  161POPC   C1A 2358   0.747   8.183   5.293 -0.2561  0.1727  0.0387
  161POPC   D2A 2359   0.828   8.121   5.718  0.2992 -0.2242 -0.1714
  161POPC   C3A 2360   0.906   7.717   5.868  0.3348  0.0827  0.0866
  161POPC   C4A 2361   1.086   7.277   5.936 -0.4120  0.0704 -0.1594
  161POPC   C1B 2362   0.086   7.746   5.385  0.1882 -0.0210 -0.0933
  161POPC   C2B 2363  -0.254   7.480   5.686 -0.1014  0.0916  0.1637
  161POPC   C3B 2364  -0.180   7.330   6.018  0.1554  0.1592  0.0120
  161POPC   C4B 2365   0.053   7.226   6.322 -0.0118 -0.0614  0.2061
  162POPC   NC3 2366   4.223   0.539   3.459  0.1763 -0.2386  0.0041
  162POPC   PO4 2367   4.066   0.936   3.557 -0.0350  0.1228  0.2391
  162POPC   GL1 2368   4.059   1.145   3.993  0.1250  0.0286 -0.1760
  162POPC   GL2 2369   3.787   1.011   4.130  0.0840  0.0983 -0.3783
  162POPC   C1A 2370   4.240   1.163   4.364  0.4292  0.0579 -0.2661
  162POPC   D2A 2371   4.151   1.347   4.610 -0.1863 -0.0819  0.2863
  162POPC   C3A 2372   3.766   1.555   4.786 -0.2297 -0.0585 -0.0564
  162POPC   C4A 2373   3.491   1.612   4.748  0.1297 -0.0579  0.1612
  162POPC   C1B 2374   3.658   1.088   4.543  0.0356 -0.1665 -0.0115
  162POPC   C2B 2375   3.866   1.101   4.969  0.0847  0.2157  0.4652
  162POPC   C3B 2376   3.942   1.039   5.342  0.0019  0.1031  0.0324
  162POPC   C4B 2377   4.257   1.084   5.594 -0.1857 -0.3314 -0.0703
  163POPC   NC3 2378   9.137   6.958   4.408 -0.1639  0.3085  0.0934
  163POPC   PO4 2379   9.425   7.194   4.611 -0.0658 -0.0112 -0.2412
  163POPC   GL1 2380   9.758   7.073   4.906  0.0623  0.0281 -0.0186
  163POPC   GL2 2381   9.718   6.821   5.076  0.2108  0.0482 -0.3295
  163POPC   C1A 2382  10.026   7.259   5.238 -0.0273 -0.1454  0.2793
  163POPC   D2A 2383  10.062   7.279   5.697  0.0698  0.0409  0.1272
  163POPC   C3A 2384  10.321   7.579   6.007 -0.0968  0.0828 -0.0194
  163POPC   C4A 2385  10.434   8.089   6.125 -0.2953  0.1080  0.0593
  163POPC   C1B 2386   9.671   6.385   5.332  0.0249 -0.1210  0.1304
  163POPC   C2B 2387   9.502   5.942   5.578 -0.0510  0.2228 -0.0218
  163POPC   C3B 2388   9.858   5.652   5.743  0.0811 -0.4698 -0.2962
  163POPC   C4B 2389   9.954   5.201   5.868 -0.1206 -0.1775 -0.1181
  164POPC   NC3 2390   0.783   4.086   5.008  0.0599  0.0599 -0.3886
  164POPC   PO4 2391   1.115   3.736   4.864  0.3457 -0.0777 -0.0578
  164POPC   GL1 2392   1.271   4.091   5.167  0.0374 -0.1673 -0.1321
  164POPC   GL2 2393   1.536   4.285   5.169 -0.1092  0.1622  0.0130
  164POPC   C1A 2394   1.381   4.039   5.598  0.0882 -0.1404 -0.2814
  164POPC   D2A 2395   1.411   3.993   6.110  0.1376 -0.2196 -0.1471
  164POPC   C3A 2396   1.566   4.408   6.496  0.0804 -0.2157  0.1462
  164POPC   C4A 2397   1.954   4.599   6.336  0.1870  0.1362  0.2579
  164POPC   C1B 2398   1.892   4.379   5.187  0.0179 -0.0723  0.2399
  164POPC   C2B 2399   2.192   4.623   5.492  0.2184 -0.1353 -0.0560
  164POPC   C3B 2400   2.275   4.597   5.931  0.3874 -0.1604  0.2276
  164POPC   C4B 2401   2.466   4.699   6.310  0.0653 -0.2195  0.2478
  165POPC   NC3 2402   6.345   8.771   4.584  0.0478  0.1020  0.0106
  165POPC   PO4 2403   6.722   8.663   4.676 -0.0992  0.3233  0.2661
  165POPC   GL1 2404   6.528   8.741   5.063 -0.2422  0.1487  0.0479
  165POPC   GL2 2405   6.411   9.053   4.976  0.1810 -0.1602 -0.1635
  165POPC   C1A 2406   6.266   8.756   5.470 -0.1053 -0.4964  0.1759
  165POPC   D2A 2407   6.045   8.908   5.777  0.4155  0.2227  0.0936
  165POPC   C3A 2408   6.344   9.115   6.060 -0.1048 -0.0636 -0.1988
  165POPC   C4A 2409   6.430   9.335   6.425  0.4327  0.0501  0.1963
  165POPC   C1B 2410   6.407   9.227   5.390 -0.0883 -0.2615  0.2112
  165POPC   C2B 2411   6.462   9.490   5.681 -0.1122  0.1835  0.4181
  165POPC   C3B 2412   6.620   9.781   6.027 -0.0433  0.2366 -0.0926
  165POPC   C4B 2413   6.690   9.878   6.422  0.0038  0.0179  0.1601
  166POPC   NC3 2414   5.530   6.198   4.532 -0.0860  0.1826 -0.3597
  166POPC   PO4 2415   5.698   6.644   4.670  0.1071  0.0694  0.0939
  166POPC   GL1 2416   5.632   6.332   4.992 -0.0401  0.1762 -0.1066
  166POPC   GL2 2417   5.753   5.936   4.917  0.0388 -0.2224 -0.3254
  166POPC   C1A 2418   5.673   6.221   5.399 -0.1707 -0.2419 -0.1443
  166POPC   D2A 2419   5.694   5.832   5.720  0.1097 -0.0427 -0.0608
  166POPC   C3A 2420   5.510   5.643   5.947 -0.2129 -0.2345  0.1481
  166POPC   C4A 2421   5.558   5.669   6.455 -0.0394  0.2738  0.1319
  166POPC   C1B 2422   6.009   5.808   5.330  0.1293  0.1417 -0.2096
  166POPC   C2B 2423   6.283   5.608   5.681  0.2409 -0.0409  0.2012
  166POPC   C3B 2424   6.250   5.442   6.083  0.0987 -0.0042 -0.1280
  166POPC   C4B 2425   6.045   5.465   6.549 -0.0882 -0.1491 -0.0386
  167POPC   NC3 2426   3.785   7.375   4.471  0.0832 -0.0659  0.0134
  167POPC   PO4 2427   3.884   7.026   4.819 -0.4485 -0.1255 -0.0266
  167POPC   GL1 2428   3.849   7.130   5.288  0.1421 -0.1073 -0.0974
  167POPC   GL2 2429   4.145   7.179   5.243  0.0403  0.0478 -0.3082
  167POPC   C1A 2430   3.817   6.923   5.683  0.1223  0.0791  0.2154
  167POPC   D2A 2431   3.501   6.747   5.927  0.1089 -0.1008  0.1684
  167POPC   C3A 2432   3.392   7.014   6.202 -0.1787 -0.0835 -0.0208
  167POPC   C4A 2433   3.503   7.195   6.583  0.0078 -0.0507  0.2058
  167POPC   C1B 2434   4.537   7.033   5.538  0.0953  0.0391 -0.1469
  167POPC   C2B 2435   4.802   7.146   5.963 -0.0531 -0.1146 -0.1891
  167POPC   C3B 2436   4.860   7.465   6.044  0.0677 -0.0611 -0.1361
  167POPC   C4B 2437   4.792   7.601   6.485  0.0789 -0.1066 -0.2135
  168POPC   NC3 2438   6.378   0.193   4.428 -0.2552 -0.2071 -0.0012
  168POPC   PO4 2439   6.083  -0.177   4.429 -0.4671  0.3042 -0.2209
  168POPC   GL1 2440   6.229   0.062   4.922  0.1641  0.2974  0.2082
  168POPC   GL2 2441   6.140  -0.096   5.240 -0.1001 -0.0212 -0.0695
  168POPC   C1A 2442   6.397   0.387   5.222  0.0144 -0.1371 -0.1697
  168POPC   D2A 2443   6.217   0.642   5.444 -0.0494  0.0610 -0.2078
  168POPC   C3A 2444   5.830   0.970   5.543 -0.0236  0.0167  0.1461
  168POPC   C4A 2445   5.825   1.018   6.022 -0.2999 -0.1101  0.1095
  168POPC   C1B 2446   6.008   0.165   5.461  0.1040  0.0883  0.0431
  168POPC   C2B 2447   5.807   0.161   5.827  0.2149  0.2907  0.2046
  168POPC   C3B 2448   5.767   0.294   6.252 -0.1596 -0.0186 -0.3178
  168POPC   C4B 2449   5.793   0.442   6.653 -0.1531  0.0295  0.1044
  169POPC   NC3 2450   9.702   6.380   4.717 -0.1016 -0.0246  0.0351
  169POPC   PO4 2451   9.845   5.972   4.748 -0.0217  0.1171  0.1022
  169POPC   GL1 2452   9.931   5.900   5.169  0.2055  0.3046 -0.1089
  169POPC   GL2 2453  10.124   5.656   5.285  0.1578 -0.0528  0.0443
  169POPC   C1A 2454  10.158   6.134   5.462  0.0539 -0.4509 -0.4104
  169POPC   D2A 2455   9.986   6.358   5.760 -0.1602 -0.5112  0.5640
  169POPC   C3A 2456   9.722   6.189   6.084 -0.0510 -0.2676  0.1094
  169POPC   C4A 2457   9.477   6.403   6.435 -0.1530 -0.0854 -0.1942
  169POPC   C1B 2458  10.348   5.447   5.662 -0.0498 -0.0413  0.3079
  169POPC   C2B 2459  10.569   5.614   6.028  0.0282 -0.0336  0.0512
  169POPC   C3B 2460  10.592   5.676   6.602  0.2722 -0.1924 -0.3720
  169POPC   C4B 2461  10.701   5.464   7.037  0.2044 -0.1399 -0.1285
  170POPC   NC3 2462   0.723   3.533   5.065 -0.2717 -0.1017  0.4374
  170POPC   PO4 2463   0.480   3.745   5.146 -0.0457 -0.0129 -0.2093
  170POPC   GL1 2464   0.796   3.886   5.439 -0.1202  0.2733 -0.0037
  170POPC   GL2 2465   1.082   3.658   5.421  0.0653  0.0810 -0.0200
  170POPC   C1A 2466   0.874   3.885   5.847 -0.4335  0.3804  0.3422
  170POPC   D2A 2467   0.875   3.988   6.321 -0.0594 -0.0293 -0.0219
  170POPC   C3A 2468   0.891   4.372   6.479 -0.3443  0.1108  0.1743
  170POPC   C4A 2469   1.126   4.676   6.505 -0.0750  0.0955  0.3999
  170POPC   C1B 2470   1.284   3.550   5.777 -0.1239  0.2028 -0.0476
  170POPC   C2B 2471   1.234   3.456   6.155 -0.1598  0.0522  0.0567
  170POPC   C3B 2472   1.428   3.573   6.488 -0.0482 -0.1455  0.0276
  170POPC   C4B 2473   1.724   3.847   6.571  0.3520  0.0110  0.2761
  171POPC   NC3 2474   3.525   1.546   3.301 -0.1243  0.0062 -0.0248
  171POPC   PO4 2475   3.707   1.285   3.598 -0.0117 -0.0510 -0.0464
  171POPC   GL1 2476   3.746   1.656   3.921  0.0183 -0.0592 -0.1553
  171POPC   GL2 2477   3.662   1.524   4.182 -0.0841 -0.2018  0.3895
  171POPC   C1A 2478   3.701   2.087   4.131  0.0540 -0.0750 -0.2572
  171POPC   D2A 2479   3.590   2.092   4.591 -0.2470 -0.1189  0.3186
  171POPC   C3A 2480   3.941   2.067   4.751  0.5675  0.1881  0.1620
  171POPC   C4A 2481   4.093   1.957   5.219  0.1219 -0.2190 -0.0226
  171POPC   C1B 2482   3.960   1.733   4.351 -0.1317  0.0138  0.0132
  171POPC   C2B 2483   4.387   1.722   4.199  0.1249 -0.0979 -0.0742
  171POPC   C3B 2484   4.657   2.061   4.059 -0.0769  0.0726  0.0589
  171POPC   C4B 2485   5.037   2.246   4.064  0.3536 -0.2272  0.0256
  172POPC   NC3 2486   6.353   2.853   3.171 -0.3694 -0.1162 -0.0542
  172POPC   PO4 2487   5.962   2.868   3.317  0.2063 -0.1348  0.0599
  172POPC   GL1 2488   6.083   3.006   3.765  0.0191 -0.1188  0.0877
  172POPC   GL2 2489   6.355   3.009   3.789  0.1206 -0.2914 -0.0405
  172POPC   C1A 2490   6.067   3.018   4.195 -0.0727 -0.2151  0.3073
  172POPC   D2A 2491   6.161   2.933   4.657  0.1134  0.2486 -0.4851
  172POPC   C3A 2492   5.909   2.751   4.950 -0.2322 -0.4337 -0.3787
  172POPC   C4A 2493   5.651   2.574   5.257  0.0487  0.0627  0.0972
  172POPC   C1B 2494   6.567   2.795   4.160  0.0720 -0.0124 -0.1669
  172POPC   C2B 2495   6.742   2.764   4.588  0.3061  0.1289 -0.0305
  172POPC   C3B 2496   6.675   2.686   5.011  0.1244 -0.3351 -0.1173
  172POPC   C4B 2497   6.251   2.932   5.194  0.5731  0.1787 -0.1603
  173POPC   NC3 2498   8.496   8.581   4.886  0.3409 -0.2827  0.0912
  173POPC   PO4 2499   8.389   8.720   5.253  0.1015  0.3819 -0.1436
  173POPC   GL1 2500   8.385   8.795   5.679 -0.1782  0.1026  0.2241
  173POPC   GL2 2501   8.273   9.112   5.870 -0.0518 -0.2680  0.1579
  173POPC   C1A 2502   8.131   8.652   6.081  0.0976 -0.1411  0.3708
  173POPC   D2A 2503   7.926   8.363   6.270  0.3454  0.0003  0.0846
  173POPC   C3A 2504   7.529   8.170   6.221 -0.2206 -0.0824  0.2221
  173POPC   C4A 2505   7.070   8.091   6.282  0.2044 -0.2402 -0.1840
  173POPC   C1B 2506   8.280   9.088   6.306 -0.1215  0.0607  0.0773
  173POPC   C2B 2507   8.097   9.255   6.735 -0.1737 -0.2492  0.3638
  173POPC   C3B 2508   7.848   9.001   6.930  0.1491 -0.1877 -0.1167
  173POPC   C4B 2509   8.108   8.549   7.115  0.1632 -0.2619  0.0325
  174POPC   NC3 2510   8.244   8.215   5.171  0.3902  0.0090 -0.1533
  174POPC   PO4 2511   7.989   8.583   4.984 -0.0195 -0.3235 -0.1505
  174POPC   GL1 2512   7.929   8.532   5.380  0.1052 -0.0727 -0.1587
  174POPC   GL2 2513   7.779   8.795   5.525  0.1148 -0.2522 -0.1108
  174POPC   C1A 2514   7.700   8.452   5.792 -0.3196  0.0194 -0.2675
  174POPC   D2A 2515   7.397   8.644   6.088  0.0062  0.2764  0.0613
  174POPC   C3A 2516   7.234   8.626   6.488  0.0529 -0.1096  0.2391
  174POPC   C4A 2517   6.944   8.778   6.811  0.0553  0.1754 -0.0722
  174POPC   C1B 2518   7.750   9.011   5.925  0.0817  0.0805  0.2224
  174POPC   C2B 2519   7.814   8.871   6.416  0.3146  0.3326  0.0838
  174POPC   C3B 2520   7.697   8.496   6.696 -0.2260 -0.2497 -0.0728
  174POPC   C4B 2521   7.519   8.509   7.130 -0.0898  0.1536  0.3502
  175POPC   NC3 2522   7.384   2.640   3.539  0.3364 -0.1882 -0.1635
  175POPC   PO4 2523   7.640   2.317   3.666  0.1710  0.0934  0.1018
  175POPC   GL1 2524   7.414   2.283   4.039 -0.3332  0.1847  0.0059
  175POPC   GL2 2525   7.647   2.352   4.268  0.0350 -0.0638 -0.0878
  175POPC   C1A 2526   7.331   1.928   4.328 -0.1005 -0.1499  0.0277
  175POPC   D2A 2527   7.234   1.547   4.438  0.1915 -0.2211  0.1655
  175POPC   C3A 2528   7.383   1.364   4.842 -0.2127 -0.1085  0.1597
  175POPC   C4A 2529   7.343   1.554   5.180  0.0530  0.0440  0.1988
  175POPC   C1B 2530   7.625   2.524   4.686  0.0938  0.0499  0.2419
  175POPC   C2B 2531   7.789   2.391   5.106  0.0327 -0.2909  0.1750
  175POPC   C3B 2532   7.799   2.448   5.563  0.1820 -0.0742  0.2931
  175POPC   C4B 2533   7.516   2.801   5.856 -0.4382  0.0918  0.1965
  176POPC   NC3 2534   0.572   3.141   4.542  0.1988 -0.1258 -0.0930
  176POPC   PO4 2535   0.974   2.814   4.513  0.1228 -0.0325  0.0388
  176POPC   GL1 2536   1.070   2.852   5.047  0.0694 -0.0757 -0.0289
  176POPC   GL2 2537   0.966   3.171   5.280 -0.0966 -0.1380 -0.2541
  176POPC   C1A 2538   1.173   2.627   5.368  0.0060  0.0877 -0.0565
  176POPC   D2A 2539   1.055   2.646   5.815 -0.2511 -0.2119 -0.2510
  176POPC   C3A 2540   1.314   2.717   6.178 -0.0994 -0.1610 -0.0380
  176POPC   C4A 2541   1.616   2.865   6.363  0.2134  0.1820  0.0646
  176POPC   C1B 2542   1.325   3.115   5.438  0.1478 -0.1945 -0.2337
  176POPC   C2B 2543   1.532   3.132   5.923  0.2744  0.0905  0.1913
  176POPC   C3B 2544   1.982   2.884   6.049 -0.1180 -0.0340  0.0141
  176POPC   C4B 2545   2.017   2.423   5.956  0.0284  0.2361 -0.0124
  177POPC   NC3 2546   6.194   3.830   3.472 -0.0323 -0.0333  0.1080
  177POPC   PO4 2547   6.530   3.827   3.518  0.0927 -0.0555  0.2240
  177POPC   GL1 2548   6.446   3.684   3.871 -0.0267 -0.4395  0.6185
  177POPC   GL2 2549   6.186   3.501   3.910  0.0412 -0.0256  0.0484
  177POPC   C1A 2550   6.439   3.861   4.274  0.1032 -0.0812  0.0905
  177POPC   D2A 2551   6.610   3.940   4.633 -0.0442 -0.0440 -0.2973
  177POPC   C3A 2552   6.346   3.845   4.969 -0.0058  0.0657 -0.1676
  177POPC   C4A 2553   5.996   3.648   4.863 -0.0219  0.0262 -0.0564
  177POPC   C1B 2554   5.933   3.559   4.288  0.0125 -0.0370 -0.1416
  177POPC   C2B 2555   5.798   3.313   4.611  0.2762 -0.1786 -0.0647
  177POPC   C3B 2556   5.815   3.213   4.989  0.1668  0.0952  0.0217
  177POPC   C4B 2557   5.643   3.138   5.465  0.1148  0.1840 -0.0257
  178POPC   NC3 2558   7.179   5.294   4.125  0.0402  0.1197  0.1427
  178POPC   PO4 2559   6.870   5.354   4.362  0.1910 -0.1576  0.1803
  178POPC   GL1 2560   6.678   5.299   4.616 -0.1358  0.1334 -0.4291
  178POPC   GL2 2561   6.467   5.575   4.714 -0.0254  0.3240 -0.4394
  178POPC   C1A 2562   6.529   5.189   4.985 -0.0376  0.2912  0.0782
  178POPC   D2A 2563   6.603   5.371   5.369 -0.0608  0.0720  0.1614
  178POPC   C3A 2564   6.751   5.346   5.796 -0.1716 -0.1423  0.2142
  178POPC   C4A 2565   7.164   5.169   5.959  0.1181  0.0809 -0.3140
  178POPC   C1B 2566   6.007   5.380   4.848  0.0757  0.0831  0.0930
  178POPC   C2B 2567   5.717   5.064   4.590 -0.1517 -0.0567 -0.0133
  178POPC   C3B 2568   5.737   4.540   4.826  0.0384  0.1829  0.1175
  178POPC   C4B 2569   5.785   4.116   5.010  0.1456 -0.0716 -0.3222
  179POPC   NC3 2570   5.733   9.783   4.796 -0.1035 -0.0399  0.5435
  179POPC   PO4 2571   5.634   9.379   4.870  0.0643 -0.1872  0.0415
  179POPC   GL1 2572   5.576   9.557   5.270 -0.0702  0.1136 -0.3419
  179POPC   GL2 2573   5.505   9.880   5.254  0.0407 -0.2388 -0.0428
  179POPC   C1A 2574   5.422   9.612   5.697  0.0556  0.2183  0.4990
  179POPC   D2A 2575   5.689   9.594   6.119 -0.0742 -0.2050  0.1726
  179POPC   C3A 2576   5.822   9.748   6.500 -0.0529  0.1082 -0.0790
  179POPC   C4A 2577   6.221   9.873   6.567 -0.2325  0.0330 -0.1133
  179POPC   C1B 2578   5.410  10.157   5.583  0.0138 -0.1154 -0.2425
  179POPC   C2B 2579   5.508  10.505   5.728 -0.0815  0.0225  0.0597
  179POPC   C3B 2580   5.208  10.831   5.773 -0.0510  0.3186 -0.2416
  179POPC   C4B 2581   5.141  11.233   5.512 -0.0886 -0.1955 -0.0947
  180POPC   NC3 2582   5.019   6.029   3.881  0.0892 -0.0645  0.0648
  180POPC   PO4 2583   5.046   6.186   4.256 -0.0949  0.1752 -0.1518
  180POPC   GL1 2584   4.932   6.056   4.690 -0.1021  0.2086  0.0906
  180POPC   GL2 2585   5.110   5.990   4.873  0.2974 -0.0373  0.0257
  180POPC   C1A 2586   4.787   6.090   5.283  0.0899  0.1300 -0.1193
  180POPC   D2A 2587   4.780   5.931   5.738  0.0329  0.2118  0.3440
  180POPC   C3A 2588   4.506   5.618   5.910 -0.1058 -0.1637  0.0664
  180POPC   C4A 2589   4.136   5.446   6.170 -0.0704  0.0518  0.0393
  180POPC   C1B 2590   5.268   5.956   5.269 -0.1589 -0.0743 -0.0504
  180POPC   C2B 2591   5.199   5.714   5.586  0.0486  0.0184 -0.2239
  180POPC   C3B 2592   5.040   5.490   5.880  0.0992 -0.3100 -0.0963
  180POPC   C4B 2593   5.197   5.347   6.280 -0.1893  0.0687  0.0388
  181POPC   NC3 2594   0.290   4.509   4.553  0.2700  0.0171  0.0663
  181POPC   PO4 2595   0.320   4.185   4.852  0.0914 -0.0314 -0.0043
  181POPC   GL1 2596   0.332   4.267   5.368  0.1567  0.0518 -0.0995
  181POPC   GL2 2597   0.669   4.360   5.407 -0.1587  0.1777  0.1807
  181POPC   C1A 2598   0.393   4.143   5.759 -0.1638 -0.0565 -0.1577
  181POPC   D2A 2599   0.458   3.760   6.158  0.1694 -0.3376  0.1368
  181POPC   C3A 2600   0.691   3.471   6.047  0.2164  0.3036  0.2369
  181POPC   C4A 2601   0.962   3.173   5.848  0.2219 -0.0325  0.0902
  181POPC   C1B 2602   0.908   4.360   5.650 -0.1474 -0.2402  0.4624
  181POPC   C2B 2603   1.200   4.394   5.937  0.0209  0.1024 -0.1733
  181POPC   C3B 2604   1.472   4.734   6.122  0.3082  0.0558  0.2326
  181POPC   C4B 2605   1.780   5.146   6.174  0.3200  0.0545 -0.4499
  182POPC   NC3 2606   2.937   5.813   4.698 -0.0619  0.1495  0.1130
  182POPC   PO4 2607   2.443   5.784   4.838 -0.2840 -0.2705  0.1232
  182POPC   GL1 2608   2.657   5.633   5.172  0.3282  0.1277 -0.0043
  182POPC   GL2 2609   2.920   5.703   5.192 -0.1796  0.0820 -0.1713
  182POPC   C1A 2610   2.474   5.348   5.460  0.2274 -0.5372 -0.0152
  182POPC   D2A 2611   2.212   5.143   5.760 -0.1285  0.0602  0.2478
  182POPC   C3A 2612   2.284   5.167   6.191  0.2443 -0.2348 -0.0730
  182POPC   C4A 2613   2.539   5.477   6.470 -0.0177  0.0393  0.3669
  182POPC   C1B 2614   2.953   5.273   5.286  0.1281  0.0147 -0.1542
  182POPC   C2B 2615   3.131   5.097   5.650  0.1870  0.0776  0.3278
  182POPC   C3B 2616   3.335   5.227   6.025 -0.1171 -0.2054  0.2374
  182POPC   C4B 2617   3.652   5.668   6.155 -0.3662 -0.1443  0.1622
  183POPC   NC3 2618   2.895   0.733   4.361 -0.1671  0.0340 -0.1641
  183POPC   PO4 2619   3.230   0.400   4.499 -0.0579  0.1719 -0.0885
  183POPC   GL1 2620   3.621   0.222   4.675  0.1283  0.0130  0.2944
  183POPC   GL2 2621   3.863   0.148   4.633  0.0928  0.0021  0.0736
  183POPC   C1A 2622   3.580   0.038   5.128  0.3233 -0.0413 -0.1141
  183POPC   D2A 2623   3.502   0.094   5.436  0.1675 -0.1823  0.0788
  183POPC   C3A 2624   3.383  -0.208   5.741  0.2598 -0.0571 -0.0188
  183POPC   C4A 2625   3.345  -0.589   5.749  0.2502 -0.2092 -0.3553
  183POPC   C1B 2626   4.114  -0.029   5.060 -0.2295 -0.1520 -0.0945
  183POPC   C2B 2627   4.139   0.061   5.415  0.2042 -0.1569  0.0016
  183POPC   C3B 2628   3.866   0.141   5.795 -0.2514  0.4356  0.1329
  183POPC   C4B 2629   3.547   0.155   6.053 -0.1313  0.1175  0.1667
  184POPC   NC3 2630   5.440   5.219   3.674 -0.0813 -0.2313 -0.0675
  184POPC   PO4 2631   5.038   4.992   3.767  0.0051  0.1686  0.0392
  184POPC   GL1 2632   5.094   4.974   4.301  0.3022 -0.0712  0.2928
  184POPC   GL2 2633   5.206   5.292   4.499  0.0291  0.5347  0.3548
  184POPC   C1A 2634   5.024   4.849   4.751 -0.2106  0.0245  0.1432
  184POPC   D2A 2635   5.294   4.762   5.113 -0.0267  0.2169 -0.2715
  184POPC   C3A 2636   5.694   5.021   5.095 -0.1569  0.2048 -0.3250
  184POPC   C4A 2637   6.097   5.242   5.317  0.5291  0.3443  0.1384
  184POPC   C1B 2638   5.527   5.395   4.878  0.0105 -0.2064 -0.2675
  184POPC   C2B 2639   5.603   5.513   5.276 -0.2545  0.1314  0.1296
  184POPC   C3B 2640   5.784   5.330   5.627 -0.1497  0.0258  0.0088
  184POPC   C4B 2641   5.739   5.226   6.034  0.0828 -0.0536 -0.1992
  185POPC   NC3 2642   8.388   1.437   4.845 -0.1904 -0.4305 -0.0300
  185POPC   PO4 2643   8.664   1.378   5.169  0.3810 -0.1606  0.1788
  185POPC   GL1 2644   8.742   1.531   5.440 -0.5067  0.1107 -0.3444
  185POPC   GL2 2645   8.308   1.504   5.488 -0.2374  0.1045  0.0812
  185POPC   C1A 2646   8.687   1.542   5.879  0.1432 -0.0682  0.3404
  185POPC   D2A 2647   8.512   1.730   6.244  0.4139  0.3506  0.2717
  185POPC   C3A 2648   8.194   1.545   6.515 -0.1332 -0.0787  0.2536
  185POPC   C4A 2649   8.178   1.436   6.877 -0.0019 -0.1310  0.3144
  185POPC   C1B 2650   8.133   1.643   5.872  0.3080  0.0191  0.0959
  185POPC   C2B 2651   7.808   1.542   6.105  0.0021  0.0741 -0.1790
  185POPC   C3B 2652   7.614   1.534   6.427  0.0133  0.2511  0.1246
  185POPC   C4B 2653   7.257   1.142   6.647  0.0588 -0.2271 -0.4631
  186POPC   NC3 2654   9.833   3.944   5.002 -0.2154 -0.2814 -0.0254
  186POPC   PO4 2655   9.410   3.789   4.982  0.2080 -0.0504 -0.0850
  186POPC   GL1 2656   9.442   3.681   5.341  0.1872  0.1382  0.2214
  186POPC   GL2 2657   9.389   3.415   5.430  0.3298 -0.0084 -0.2593
  186POPC   C1A 2658   9.833   3.669   5.613 -0.1621  0.3859  0.1189
  186POPC   D2A 2659   9.884   3.299   5.845 -0.2706 -0.0582  0.1375
  186POPC   C3A 2660  10.144   3.316   6.173  0.1041 -0.0933 -0.2614
  186POPC   C4A 2661  10.242   3.551   6.647 -0.1447 -0.0101  0.1892
  186POPC   C1B 2662   9.309   3.481   5.834 -0.2533 -0.2051  0.0474
  186POPC   C2B 2663   8.969   3.477   6.150 -0.4259 -0.0673  0.1183
  186POPC   C3B 2664   8.742   3.664   6.268  0.3347  0.0053 -0.2696
  186POPC   C4B 2665   8.572   3.880   6.596 -0.0666  0.1985 -0.1263
  187POPC   NC3 2666   6.498   8.181   4.970 -0.0223  0.0195 -0.0682
  187POPC   PO4 2667   6.141   8.334   4.830  0.1454 -0.0806  0.0035
  187POPC   GL1 2668   5.997   8.351   5.305 -0.1366  0.0060 -0.1545
  187POPC   GL2 2669   5.764   8.556   5.431  0.1390 -0.0521  0.0550
  187POPC   C1A 2670   6.095   8.348   5.737 -0.0273  0.0219 -0.0195
  187POPC   D2A 2671   6.255   8.097   5.978  0.1027 -0.0086  0.1176
  187POPC   C3A 2672   6.075   7.970   6.418 -0.0525  0.1166 -0.1765
  187POPC   C4A 2673   5.879   7.803   6.719  0.0100 -0.0073 -0.1431
  187POPC   C1B 2674   5.489   8.651   5.706 -0.3044 -0.0611 -0.0479
  187POPC   C2B 2675   5.718   8.787   6.096 -0.0087 -0.0118 -0.0838
  187POPC   C3B 2676   5.958   9.029   6.381  0.1562  0.0800  0.2789
  187POPC   C4B 2677   6.065   9.330   6.749  0.2121  0.0701 -0.1063
  188POPC   NC3 2678   9.364   2.659   5.036  0.2728 -0.0154  0.0048
  188POPC   PO4 2679   9.108   2.955   4.770  0.4169  0.0924 -0.1101
  188POPC   GL1 2680   8.849   2.993   5.108  0.2208  0.0351 -0.0611
  188POPC   GL2 2681   9.122   3.012   5.348  0.0665 -0.1001 -0.1229
  188POPC   C1A 2682   8.543   2.882   5.418  0.1467 -0.1257  0.1717
  188POPC   D2A 2683   8.102   2.913   5.519  0.3655  0.0126 -0.0545
  188POPC   C3A 2684   8.021   3.057   5.884 -0.0867  0.0298 -0.1363
  188POPC   C4A 2685   7.845   3.005   6.307  0.4026  0.0801  0.2014
  188POPC   C1B 2686   8.945   3.148   5.753  0.1754 -0.2896 -0.3023
  188POPC   C2B 2687   9.016   2.926   6.170  0.1060 -0.0685 -0.2503
  188POPC   C3B 2688   8.719   2.916   6.616  0.3012  0.1608 -0.0555
  188POPC   C4B 2689   8.258   2.952   6.569 -0.2722 -0.2827  0.1550
  189POPC   NC3 2690   4.321   8.781   4.231  0.2377  0.2139 -0.1010
  189POPC   PO4 2691   4.534   8.734   4.673 -0.0297  0.0153  0.0056
  189POPC   GL1 2692   4.423   8.609   5.051 -0.0245  0.1187 -0.2363
  189POPC   GL2 2693   4.089   8.620   5.107  0.0651  0.1130 -0.2752
  189POPC   C1A 2694   4.501   8.697   5.514  0.2976 -0.2264  0.0243
  189POPC   D2A 2695   4.332   8.599   5.936 -0.0408  0.2543 -0.1277
  189POPC   C3A 2696   4.330   8.822   6.340  0.1359 -0.2407 -0.1116
  189POPC   C4A 2697   4.458   9.180   6.665  0.2544 -0.4162 -0.0442
  189POPC   C1B 2698   4.032   8.791   5.575  0.0412  0.1122 -0.1154
  189POPC   C2B 2699   3.956   8.925   6.013 -0.0946  0.2665 -0.0688
  189POPC   C3B 2700   3.835   8.804   6.377 -0.1771 -0.2815 -0.1267
  189POPC   C4B 2701   3.622   8.816   6.754  0.0935 -0.0570 -0.0484
  190POPC   NC3 2702   7.951   6.212   4.666  0.0429  0.1455 -0.0797
  190POPC   PO4 2703   7.758   5.949   4.399  0.3089  0.1665 -0.0591
  190POPC   GL1 2704   8.019   5.743   4.747  0.4020 -0.0654  0.2689
  190POPC   GL2 2705   8.287   5.878   4.889 -0.1261 -0.2431  0.1589
  190POPC   C1A 2706   7.878   5.434   5.056 -0.0000 -0.0251  0.4001
  190POPC   D2A 2707   7.951   5.077   5.331  0.2646  0.0710 -0.1368
  190POPC   C3A 2708   7.872   4.935   5.724 -0.0196 -0.2172 -0.0033
  190POPC   C4A 2709   7.586   4.917   6.117  0.1645 -0.1037 -0.2075
  190POPC   C1B 2710   8.187   5.904   5.224  0.2656  0.1418 -0.0056
  190POPC   C2B 2711   7.967   5.676   5.476 -0.3241  0.0896 -0.2650
  190POPC   C3B 2712   8.015   5.555   5.821  0.0941 -0.2660  0.0895
  190POPC   C4B 2713   7.985   5.311   6.161  0.0648  0.0637  0.1637
  191POPC   NC3 2714   1.856   5.348   4.428  0.2519 -0.2420 -0.1517
  191POPC   PO4 2715   1.507   5.334   4.747  0.0296 -0.1094  0.1315
  191POPC   GL1 2716   1.588   5.481   5.171 -0.1806 -0.1491 -0.0975
  191POPC   GL2 2717   1.830   5.310   5.331 -0.2401 -0.2235 -0.0404
  191POPC   C1A 2718   1.559   5.615   5.585  0.1502  0.1381  0.0908
  191POPC   D2A 2719   1.562   5.795   5.927  0.0706  0.0350 -0.1429
  191POPC   C3A 2720   1.564   5.556   6.323  0.0871  0.0718 -0.1276
  191POPC   C4A 2721   1.662   5.696   6.754 -0.3995  0.0979  0.1837
  191POPC   C1B 2722   1.581   5.079   5.648 -0.1734 -0.1065 -0.3788
  191POPC   C2B 2723   1.345   5.237   5.930 -0.3081  0.2131 -0.1729
  191POPC   C3B 2724   0.998   5.162   6.345 -0.4389 -0.4140  0.1701
  191POPC   C4B 2725   0.961   5.063   6.772  0.2044 -0.0198 -0.0323
  192POPC   NC3 2726   9.009   8.538   5.095  0.0921 -0.1876  0.1859
  192POPC   PO4 2727   8.722   8.343   5.285 -0.0645  0.3298  0.1186
  192POPC   GL1 2728   8.764   8.287   5.684  0.0091  0.1465  0.2464
  192POPC   GL2 2729   8.452   8.375   5.830 -0.0255 -0.0756 -0.0460
  192POPC   C1A 2730   9.234   8.189   5.934  0.2033  0.1861  0.2910
  192POPC   D2A 2731   9.635   8.297   6.122 -0.0441 -0.0787 -0.0911
  192POPC   C3A 2732   9.633   8.555   6.530 -0.3900 -0.2501 -0.1904
  192POPC   C4A 2733   9.668   8.643   7.043  0.0649  0.0412 -0.2198
  192POPC   C1B 2734   8.125   8.186   5.819  0.0098 -0.0818 -0.0827
  192POPC   C2B 2735   8.059   7.882   6.124 -0.0728 -0.2024 -0.4902
  192POPC   C3B 2736   7.727   7.691   6.447  0.0419  0.1407 -0.0597
  192POPC   C4B 2737   7.516   7.262   6.414  0.2819 -0.0206 -0.0596
  193POPC   NC3 2738   4.576   6.041   4.335 -0.2279  0.0358 -0.1686
  193POPC   PO4 2739   4.433   6.123   4.763  0.0887 -0.2826  0.3260
  193POPC   GL1 2740   4.303   6.262   5.193 -0.1760 -0.0352  0.0777
  193POPC   GL2 2741   4.152   6.616   5.194  0.1789 -0.1144 -0.0100
  193POPC   C1A 2742   4.169   6.094   5.512 -0.0923 -0.1307 -0.2694
  193POPC   D2A 2743   3.987   5.899   5.894  0.2142 -0.0950  0.1526
  193POPC   C3A 2744   4.373   5.982   6.238  0.0142 -0.2154  0.2461
  193POPC   C4A 2745   4.680   6.127   6.589  0.2010 -0.3106 -0.1224
  193POPC   C1B 2746   4.208   6.650   5.582  0.3507  0.0019 -0.3603
  193POPC   C2B 2747   4.474   6.392   5.808  0.1510  0.3140  0.0408
  193POPC   C3B 2748   4.793   6.242   6.085 -0.0046  0.1118  0.0446
  193POPC   C4B 2749   4.908   5.786   6.243 -0.0348  0.0601 -0.1550
  194POPC   NC3 2750   3.886   1.930   2.583  0.1359 -0.2696 -0.1007
  194POPC   PO4 2751   3.804   1.895   3.037 -0.2035  0.2497  0.0483
  194POPC   GL1 2752   4.028   1.922   3.415 -0.1929  0.3372 -0.1385
  194POPC   GL2 2753   4.129   2.245   3.470  0.1018 -0.1792 -0.1978
  194POPC   C1A 2754   4.453   1.856   3.653 -0.0778  0.2533  0.0634
  194POPC   D2A 2755   4.835   1.570   3.730  0.3194  0.0421  0.1256
  194POPC   C3A 2756   4.861   1.335   4.090  0.1025  0.0876  0.5879
  194POPC   C4A 2757   5.138   1.338   4.446 -0.1880 -0.0778 -0.1681
  194POPC   C1B 2758   4.094   2.154   3.882  0.0863 -0.2627 -0.0747
  194POPC   C2B 2759   4.294   2.368   4.210  0.0457  0.0753  0.0847
  194POPC   C3B 2760   4.223   2.522   4.689 -0.1405  0.2695 -0.0823
  194POPC   C4B 2761   4.034   2.441   5.102  0.0995  0.1135 -0.2900
  195POPC   NC3 2762   8.056   9.483   4.995 -0.2218 -0.1537  0.1647
  195POPC   PO4 2763   8.484   9.335   5.194 -0.0109 -0.2707  0.1349
  195POPC   GL1 2764   8.725   9.213   5.607 -0.0852 -0.0432 -0.2206
  195POPC   GL2 2765   8.783   8.959   5.460 -0.2034  0.3282 -0.1096
  195POPC   C1A 2766   8.723   9.201   6.084  0.0754  0.1704 -0.1642
  195POPC   D2A 2767   8.590   8.720   6.235 -0.0783 -0.3786  0.0589
  195POPC   C3A 2768   8.856   8.370   6.242 -0.0916 -0.0462 -0.3585
  195POPC   C4A 2769   9.211   8.256   6.411 -0.2185  0.2978 -0.0617
  195POPC   C1B 2770   8.886   8.716   5.850  0.0418 -0.0575  0.0266
  195POPC   C2B 2771   9.223   8.716   6.234  0.3535  0.2072  0.0251
  195POPC   C3B 2772   9.423   8.987   6.483  0.0584  0.0907  0.1032
  195POPC   C4B 2773   9.701   9.035   6.731  0.5819 -0.0098 -0.0155
  196POPC   NC3 2774   3.019   2.299   3.595  0.0050 -0.2321 -0.4172
  196POPC   PO4 2775   3.068   2.650   3.513 -0.0796 -0.1135  0.2238
  196POPC   GL1 2776   3.415   2.933   3.655 -0.1711  0.5745  0.2051
  196POPC   GL2 2777   3.755   2.768   3.683  0.1943  0.3625  0.0459
  196POPC   C1A 2778   3.501   3.233   4.016  0.1864 -0.2569 -0.0166
  196POPC   D2A 2779   3.641   3.486   4.381 -0.0855  0.0762 -0.1995
  196POPC   C3A 2780   3.427   3.576   4.811  0.0489 -0.1339 -0.1821
  196POPC   C4A 2781   3.255   3.623   5.155 -0.0539 -0.0081  0.3785
  196POPC   C1B 2782   3.639   2.572   4.020 -0.1458  0.2409  0.1805
  196POPC   C2B 2783   3.771   2.609   4.454  0.1513 -0.0326  0.1596
  196POPC   C3B 2784   3.611   2.579   4.902  0.0438  0.1697 -0.0772
  196POPC   C4B 2785   3.182   2.421   5.078  0.0072  0.0637  0.1740
  197POPC   NC3 2786   6.796   4.622   3.988  0.0446  0.0319  0.1153
  197POPC   PO4 2787   7.282   4.798   4.109  0.1199  0.1027 -0.3048
  197POPC   GL1 2788   7.044   4.660   4.416  0.0041  0.1474 -0.0422
  197POPC   GL2 2789   6.943   4.328   4.430 -0.3918  0.0399 -0.3034
  197POPC   C1A 2790   6.930   4.866   4.798 -0.0393 -0.1131 -0.1322
  197POPC   D2A 2791   7.174   5.190   4.852  0.0582 -0.0586  0.4286
  197POPC   C3A 2792   7.473   5.229   5.203  0.1246  0.1115 -0.3332
  197POPC   C4A 2793   7.556   5.366   5.659 -0.0980  0.0974  0.1556
  197POPC   C1B 2794   6.840   4.278   4.950  0.2222  0.4406  0.1734
  197POPC   C2B 2795   6.559   4.176   5.295  0.1797  0.4286  0.0708
  197POPC   C3B 2796   6.421   3.772   5.478 -0.4314  0.2008  0.0089
  197POPC   C4B 2797   6.598   3.399   5.597 -0.1500  0.2053  0.1056
  198POPC   NC3 2798   2.086   0.984   4.438  0.0525  0.0285  0.2108
  198POPC   PO4 2799   2.411   0.529   4.471  0.0883 -0.2449 -0.1123
  198POPC   GL1 2800   2.650   0.525   4.874  0.2709  0.0224 -0.1145
  198POPC   GL2 2801   3.021   0.631   4.854  0.2246  0.0835  0.2636
  198POPC   C1A 2802   2.865   0.406   5.294  0.4161 -0.0483  0.1833
  198POPC   D2A 2803   3.162   0.395   5.633  0.0305 -0.0431  0.0031
  198POPC   C3A 2804   3.240   0.600   5.966 -0.0479 -0.2445  0.0733
  198POPC   C4A 2805   3.245   0.937   6.285 -0.0238  0.1535 -0.0651
  198POPC   C1B 2806   3.416   0.546   5.107  0.3165 -0.0313  0.3174
  198POPC   C2B 2807   3.576   0.593   5.418 -0.3275  0.1415 -0.1862
  198POPC   C3B 2808   3.737   0.615   5.843 -0.1034  0.0522 -0.0988
  198POPC   C4B 2809   3.738   0.678   6.257 -0.3696 -0.0618  0.0346
  199POPC   NC3 2810   0.389   6.896   4.240 -0.1893 -0.0686  0.0607
  199POPC   PO4 2811   0.234   6.607   4.676 -0.0433  0.2630  0.3454
  199POPC   GL1 2812   0.391   6.763   5.057  0.0309  0.1296 -0.0079
  199POPC   GL2 2813   0.311   6.653   5.315 -0.3076 -0.2816 -0.2709
  199POPC   C1A 2814   0.557   7.113   5.099 -0.2371 -0.1248 -0.3750
  199POPC   D2A 2815   0.958   7.428   5.051  0.2012 -0.0491 -0.1338
  199POPC   C3A 2816   1.286   7.401   5.324  0.2939 -0.3810  0.0256
  199POPC   C4A 2817   1.306   7.039   5.570 -0.2843  0.0437 -0.2563
  199POPC   C1B 2818   0.340   6.825   5.728  0.2500  0.0186  0.0252
  199POPC   C2B 2819   0.491   7.098   6.028  0.1037  0.1403  0.1077
  199POPC   C3B 2820   0.739   7.434   6.340 -0.0116  0.0034 -0.1147
  199POPC   C4B 2821   0.755   7.820   6.565 -0.0393  0.0629  0.0004
  200POPC   NC3 2822   9.080   6.379   3.826 -0.2393  0.2256  0.1427
  200POPC   PO4 2823   8.957   6.187   4.227  0.0452  0.2163  0.0841
  200POPC   GL1 2824   8.965   6.322   4.715  0.1176 -0.1355  0.0071
  200POPC   GL2 2825   8.930   5.970   4.793 -0.0456  0.0187  0.0512
  200POPC   C1A 2826   8.887   6.375   5.109 -0.1339  0.2844  0.0007
  200POPC   D2A 2827   9.123   6.591   5.316 -0.1523  0.1770  0.1307
  200POPC   C3A 2828   9.024   6.847   5.542 -0.2756 -0.1301 -0.1435
  200POPC   C4A 2829   8.795   6.867   5.969 -0.1793  0.3863 -0.0876
  200POPC   C1B 2830   9.082   5.870   5.294  0.0898  0.1238  0.2234
  200POPC   C2B 2831   8.939   5.878   5.858  0.1697 -0.1166 -0.2464
  200POPC   C3B 2832   8.834   5.843   6.400 -0.0319 -0.3690 -0.0205
  200POPC   C4B 2833   8.613   6.088   6.669 -0.1967 -0.0532 -0.1008
  201POPC   NC3 2834   8.032   7.598   4.732  0.0043  0.0032  0.2070
  201POPC   PO4 2835   7.834   7.954   4.777 -0.1128  0.2889 -0.2562
  201POPC   GL1 2836   7.840   7.815   5.180  0.0850  0.2935 -0.1953
  201POPC   GL2 2837   8.142   7.720   5.213  0.2477 -0.0095  0.0263
  201POPC   C1A 2838   7.735   7.971   5.577 -0.1487  0.0223 -0.1609
  201POPC   D2A 2839   7.496   7.758   5.954  0.1712 -0.0494 -0.1076
  201POPC   C3A 2840   7.384   7.421   5.868  0.1759 -0.0759 -0.1012
  201POPC   C4A 2841   7.147   7.131   5.654 -0.1664  0.2802  0.0254
  201POPC   C1B 2842   8.115   7.564   5.694 -0.0457  0.0502  0.2318
  201POPC   C2B 2843   8.017   7.358   6.130  0.0843  0.1076  0.0653
  201POPC   C3B 2844   8.008   7.206   6.569 -0.0625 -0.1600  0.1270
  201POPC   C4B 2845   8.081   6.800   6.804  0.1255  0.0206  0.1533
  202POPC   NC3 2846   5.622   7.626   4.925  0.0112  0.1828 -0.0482
  202POPC   PO4 2847   6.027   7.795   4.906  0.1663 -0.2367  0.1895
  202POPC   GL1 2848   6.294   7.878   5.295  0.0538 -0.2526  0.0139
  202POPC   GL2 2849   6.470   7.602   5.443  0.2325  0.1415 -0.2252
  202POPC   C1A 2850   6.055   7.701   5.703  0.0655 -0.1973 -0.1243
  202POPC   D2A 2851   5.842   7.539   6.053 -0.0530  0.0931  0.5482
  202POPC   C3A 2852   5.398   7.704   5.962 -0.1674  0.1313  0.0449
  202POPC   C4A 2853   5.100   7.883   6.231  0.1118  0.1148  0.0932
  202POPC   C1B 2854   6.386   7.514   6.002  0.0303  0.0622  0.0542
  202POPC   C2B 2855   6.250   7.471   6.445  0.0433  0.0806  0.0125
  202POPC   C3B 2856   6.180   7.065   6.692 -0.0817 -0.0750 -0.1196
  202POPC   C4B 2857   5.926   6.783   6.592  0.3416  0.0283  0.0955
  203POPC   NC3 2858   7.222   2.052   3.606 -0.1129  0.1131 -0.1113
  203POPC   PO4 2859   6.818   2.284   3.430 -0.2170 -0.1870  0.2429
  203POPC   GL1 2860   6.888   2.321   3.861  0.2275 -0.0860  0.2508
  203POPC   GL2 2861   6.637   2.066   3.793 -0.1550  0.2354 -0.2072
  203POPC   C1A 2862   7.020   2.680   4.131  0.1199  0.0305  0.0157
  203POPC   D2A 2863   7.287   2.930   4.464 -0.0996  0.3296  0.0134
  203POPC   C3A 2864   7.203   2.798   4.868 -0.0954  0.0476  0.1009
  203POPC   C4A 2865   7.227   2.381   5.078 -0.0702 -0.2421  0.0771
  203POPC   C1B 2866   6.470   2.288   4.107  0.0502  0.0741 -0.0028
  203POPC   C2B 2867   6.308   2.483   4.458 -0.0098 -0.0901 -0.2357
  203POPC   C3B 2868   5.830   2.565   4.500  0.0572 -0.0751 -0.0412
  203POPC   C4B 2869   5.552   2.427   4.758  0.1030 -0.1381 -0.0561
  204POPC   NC3 2870   4.735   8.277   4.745 -0.0580 -0.0454  0.2029
  204POPC   PO4 2871   4.222   8.164   4.838  0.3670  0.2213  0.0140
  204POPC   GL1 2872   4.037   8.139   5.177  0.1814 -0.1172  0.0643
  204POPC   GL2 2873   3.812   7.937   5.307 -0.1155 -0.0184  0.6584
  204POPC   C1A 2874   4.093   8.311   5.580  0.1244 -0.3125  0.2209
  204POPC   D2A 2875   4.045   8.193   6.075  0.3030 -0.4782 -0.0417
  204POPC   C3A 2876   4.169   8.369   6.428  0.1740 -0.1273 -0.0979
  204POPC   C4A 2877   4.135   8.519   6.859  0.1797 -0.0409 -0.1847
  204POPC   C1B 2878   3.973   7.824   5.759  0.2469  0.0232 -0.2392
  204POPC   C2B 2879   3.809   7.768   6.156  0.0035 -0.0109 -0.0166
  204POPC   C3B 2880   3.638   7.787   6.517  0.1045  0.1591 -0.2138
  204POPC   C4B 2881   3.433   7.710   6.847  0.0350  0.2003  0.0226
  205POPC   NC3 2882   3.274   5.020   4.162 -0.0964 -0.0232  0.1023
  205POPC   PO4 2883   3.529   4.608   4.080  0.0630  0.0945 -0.2095
  205POPC   GL1 2884   3.481   4.655   4.506  0.2184 -0.0568  0.0648
  205POPC   GL2 2885   3.229   4.461   4.645 -0.0609  0.1752  0.1164
  205POPC   C1A 2886   3.549   4.533   4.984 -0.2537  0.0690  0.2485
  205POPC   D2A 2887   3.711   4.314   5.265  0.0573 -0.1852 -0.0452
  205POPC   C3A 2888   3.614   3.957   5.310 -0.0999 -0.1191 -0.0106
  205POPC   C4A 2889   3.450   3.766   5.700  0.1296  0.1353 -0.0183
  205POPC   C1B 2890   2.818   4.441   4.700  0.0961  0.0585  0.0012
  205POPC   C2B 2891   2.551   4.157   4.779  0.1739 -0.1739 -0.0951
  205POPC   C3B 2892   2.357   4.048   5.141 -0.3725  0.0413 -0.2740
  205POPC   C4B 2893   2.253   4.097   5.636  0.1158 -0.2569  0.3001
  206POPC   NC3 2894   6.767   3.326   3.698 -0.1683 -0.3402  0.1625
  206POPC   PO4 2895   6.981   3.651   3.905  0.0333 -0.0300  0.1164
  206POPC   GL1 2896   7.140   3.822   4.302 -0.0091 -0.5138  0.2591
  206POPC   GL2 2897   7.007   3.668   4.486  0.1346 -0.1339  0.0742
  206POPC   C1A 2898   7.225   4.022   4.787 -0.0004  0.3392  0.3512
  206POPC   D2A 2899   7.455   4.120   5.142 -0.2996 -0.4493 -0.1117
  206POPC   C3A 2900   7.785   3.816   5.404 -0.1441 -0.0096  0.1593
  206POPC   C4A 2901   7.861   3.809   5.871 -0.0896  0.2345 -0.0946
  206POPC   C1B 2902   6.881   3.661   5.000 -0.1745 -0.0632 -0.1708
  206POPC   C2B 2903   7.053   3.921   5.304  0.0205  0.0005 -0.0436
  206POPC   C3B 2904   6.892   3.883   5.727  0.3935 -0.0649 -0.0445
  206POPC   C4B 2905   7.088   3.724   6.017  0.1315 -0.0750  0.0431
  207POPC   NC3 2906   5.817   7.184   4.773 -0.1632  0.0693 -0.3171
  207POPC   PO4 2907   5.359   7.081   4.710  0.1003 -0.2902 -0.1894
  207POPC   GL1 2908   5.435   6.931   5.055 -0.3466 -0.2028 -0.1048
  207POPC   GL2 2909   5.449   7.228   5.203 -0.1205  0.1540  0.1693
  207POPC   C1A 2910   5.700   6.710   5.287 -0.1256 -0.0393 -0.0802
  207POPC   D2A 2911   6.009   6.552   5.569 -0.0185  0.1195 -0.0066
  207POPC   C3A 2912   5.899   6.197   5.877 -0.2542 -0.2117  0.2374
  207POPC   C4A 2913   5.932   5.892   6.142 -0.1613  0.0159  0.1836
  207POPC   C1B 2914   5.423   7.643   5.476  0.3784  0.0972  0.2427
  207POPC   C2B 2915   5.679   7.985   5.626 -0.0710  0.0724  0.0079
  207POPC   C3B 2916   5.749   8.273   6.016  0.3252 -0.0717 -0.1183
  207POPC   C4B 2917   5.988   8.503   6.349 -0.0430 -0.0978  0.1399
  208POPC   NC3 2918   9.837   9.829   5.038 -0.1078  0.1195 -0.0034
  208POPC   PO4 2919   9.483  10.092   5.203  0.2097  0.2065  0.1467
  208POPC   GL1 2920   9.315   9.924   5.529  0.2658 -0.0161 -0.0018
  208POPC   GL2 2921   9.567   9.683   5.586  0.2635  0.2754 -0.0614
  208POPC   C1A 2922   9.204  10.073   5.960 -0.1155 -0.0132 -0.2151
  208POPC   D2A 2923   9.142  10.133   6.455  0.1289  0.0278 -0.0429
  208POPC   C3A 2924   8.868  10.299   6.554  0.2808 -0.0307 -0.2171
  208POPC   C4A 2925   8.977  10.656   6.903  0.0056  0.1094  0.2559
  208POPC   C1B 2926   9.568   9.776   6.104  0.1134 -0.0269 -0.0094
  208POPC   C2B 2927   9.457   9.679   6.456 -0.0537  0.1419  0.0677
  208POPC   C3B 2928   9.473   9.487   6.852  0.2190 -0.0729  0.0326
  208POPC   C4B 2929   9.734   9.587   7.145  0.4767  0.0670 -0.0329
  209POPC   NC3 2930   7.942   0.794   4.380  0.0493 -0.4386  0.1079
  209POPC   PO4 2931   7.987   1.326   4.588 -0.0594  0.1510  0.0848
  209POPC   GL1 2932   7.995   1.208   5.087  0.0817  0.1546  0.0508
  209POPC   GL2 2933   7.892   0.889   5.000  0.2748  0.0267  0.3910
  209POPC   C1A 2934   7.961   1.211   5.525  0.0126  0.0252  0.1007
  209POPC   D2A 2935   7.554   1.321   5.666 -0.1296  0.3357  0.3194
  209POPC   C3A 2936   7.294   1.295   6.002  0.1192 -0.2220  0.1108
  209POPC   C4A 2937   6.951   1.240   6.254 -0.0510  0.0012 -0.2080
  209POPC   C1B 2938   7.623   0.890   5.389  0.1209  0.4500  0.2965
  209POPC   C2B 2939   7.361   0.801   5.818 -0.2248  0.2333  0.4960
  209POPC   C3B 2940   7.095   0.754   6.136  0.3663  0.1236  0.0750
  209POPC   C4B 2941   7.057   0.693   6.514  0.1002 -0.1909  0.3190
  210POPC   NC3 2942   1.160   2.100   4.636  0.1905 -0.0950 -0.0020
  210POPC   PO4 2943   0.803   2.280   4.636 -0.1243 -0.3212 -0.1117
  210POPC   GL1 2944   0.905   2.103   5.100 -0.2307  0.2169 -0.2503
  210POPC   GL2 2945   0.730   1.901   5.317 -0.2303  0.2800 -0.0075
  210POPC   C1A 2946   0.807   2.305   5.541 -0.1429 -0.1540  0.1515
  210POPC   D2A 2947   0.558   2.459   5.934 -0.0870 -0.3211 -0.2962
  210POPC   C3A 2948   0.668   2.414   6.355 -0.1043 -0.0738  0.0513
  210POPC   C4A 2949   0.701   1.934   6.472  0.0975 -0.0098  0.1816
  210POPC   C1B 2950   0.995   1.679   5.620 -0.1021 -0.0028  0.0719
  210POPC   C2B 2951   0.933   1.568   6.026  0.2283  0.2032 -0.2590
  210POPC   C3B 2952   1.097   1.586   6.286 -0.0031 -0.1556  0.0892
  210POPC   C4B 2953   1.322   1.636   6.683 -0.0578  0.0985  0.2469
  211POPC   NC3 2954   1.210   1.441   4.589  0.0164  0.1204 -0.3893
  211POPC   PO4 2955   1.139   1.679   4.871  0.2793 -0.4180 -0.0880
  211POPC   GL1 2956   1.368   1.844   5.124  0.0720  0.0436  0.2102
  211POPC   GL2 2957   1.382   2.147   5.182 -0.0868 -0.0233  0.0106
  211POPC   C1A 2958   1.480   1.648   5.515 -0.0952 -0.2661  0.0113
  211POPC   D2A 2959   1.827   1.412   5.678  0.1643  0.1318  0.2873
  211POPC   C3A 2960   2.144   1.431   5.995 -0.0757 -0.3610  0.0378
  211POPC   C4A 2961   2.278   1.434   6.372 -0.1902 -0.1370 -0.1062
  211POPC   C1B 2962   1.292   2.121   5.625 -0.6670  0.0374 -0.1939
  211POPC   C2B 2963   1.410   1.827   5.932  0.2489 -0.1425 -0.1172
  211POPC   C3B 2964   1.726   1.630   6.239 -0.3172 -0.1029  0.0798
  211POPC   C4B 2965   1.813   1.729   6.720  0.0035  0.0224 -0.0584
  212POPC   NC3 2966   7.577   6.403   4.248 -0.2549  0.1942 -0.0959
  212POPC   PO4 2967   7.981   6.553   4.301  0.1108 -0.2481 -0.2280
  212POPC   GL1 2968   8.242   6.625   4.680  0.0610 -0.0372 -0.1891
  212POPC   GL2 2969   8.493   6.328   4.809 -0.3656 -0.0299  0.2599
  212POPC   C1A 2970   8.494   6.791   5.067 -0.2213 -0.0505 -0.2962
  212POPC   D2A 2971   8.509   6.745   5.506  0.0724 -0.0241  0.0916
  212POPC   C3A 2972   8.150   6.451   5.590  0.0518 -0.2179  0.2697
  212POPC   C4A 2973   7.769   6.485   5.792 -0.1140 -0.1836 -0.0485
  212POPC   C1B 2974   8.461   6.275   5.304  0.1006 -0.1073 -0.1825
  212POPC   C2B 2975   8.709   6.297   5.610 -0.1363 -0.0469 -0.0355
  212POPC   C3B 2976   9.115   6.267   5.646 -0.2362 -0.1006 -0.0505
  212POPC   C4B 2977   9.406   6.491   5.862 -0.2672 -0.0927 -0.0591
  213POPC   NC3 2978   4.860   6.939   4.579 -0.0251 -0.1088  0.4842
  213POPC   PO4 2979   4.630   6.581   4.529 -0.0692 -0.1683 -0.0009
  213POPC   GL1 2980   4.785   6.486   4.942 -0.2723  0.1313  0.1936
  213POPC   GL2 2981   4.950   6.676   4.985  0.2181  0.0803  0.0573
  213POPC   C1A 2982   4.694   6.607   5.380 -0.3068 -0.1283 -0.3870
  213POPC   D2A 2983   4.958   6.539   5.698  0.2262  0.1199  0.3708
  213POPC   C3A 2984   5.084   6.754   6.084  0.0808  0.1468 -0.3270
  213POPC   C4A 2985   5.066   6.584   6.444  0.0205  0.1506 -0.0900
  213POPC   C1B 2986   5.268   6.509   5.327 -0.0796  0.0348 -0.0232
  213POPC   C2B 2987   5.296   6.195   5.737 -0.1720 -0.0924  0.0214
  213POPC   C3B 2988   5.410   6.093   6.138 -0.2282  0.0753  0.3204
  213POPC   C4B 2989   5.218   6.013   6.568 -0.1370 -0.1253 -0.2347
  214POPC   NC3 2990   2.153   3.704   3.985 -0.1189  0.0116  0.4492
  214POPC   PO4 2991   2.395   3.959   4.068  0.0066 -0.1382  0.1798
  214POPC   GL1 2992   2.476   3.545   4.323  0.1332 -0.3527 -0.1043
  214POPC   GL2 2993   2.137   3.494   4.456 -0.0480  0.3253 -0.0945
  214POPC   C1A 2994   2.580   3.199   4.582 -0.0977 -0.2426 -0.0109
  214POPC   D2A 2995   2.566   2.820   4.797  0.0988 -0.0334 -0.3537
  214POPC   C3A 2996   2.238   2.747   5.098 -0.3833 -0.0807 -0.0403
  214POPC   C4A 2997   2.247   2.380   5.473  0.1128  0.1805  0.0807
  214POPC   C1B 2998   2.073   3.560   4.928 -0.1481 -0.1337  0.1064
  214POPC   C2B 2999   2.228   3.623   5.402 -0.0691  0.2229 -0.0295
  214POPC   C3B 3000   2.284   3.651   5.880  0.1922  0.0790  0.0004
  214POPC   C4B 3001   2.649   3.737   6.200 -0.0568 -0.0737 -0.1105
  215POPC   NC3 3002   9.179   0.513   4.689 -0.0176 -0.0771 -0.1569
  215POPC   PO4 3003   9.056   0.112   4.945  0.1733  0.0297 -0.2937
  215POPC   GL1 3004   8.912   0.011   5.282  0.1249  0.0967  0.2057
  215POPC   GL2 3005   8.927  -0.284   5.449 -0.0186 -0.1303 -0.1074
  215POPC   C1A 3006   8.775   0.261   5.581  0.1082 -0.0848 -0.2251
  215POPC   D2A 3007   8.710   0.245   6.021 -0.1381  0.0209 -0.1456
  215POPC   C3A 3008   8.819  -0.126   6.306  0.1063  0.1916  0.0244
  215POPC   C4A 3009   8.987  -0.407   6.797  0.1723  0.0226 -0.1353
  215POPC   C1B 3010   8.703  -0.231   5.750  0.0739  0.3593  0.1842
  215POPC   C2B 3011   8.414  -0.244   6.038  0.1001 -0.1774 -0.1522
  215POPC   C3B 3012   8.072  -0.260   6.355 -0.4321  0.0682  0.1047
  215POPC   C4B 3013   7.771  -0.497   6.348 -0.2064 -0.0179  0.1601
  216POPC   NC3 3014   7.334   0.381   4.269  0.0931 -0.1265  0.2963
  216POPC   PO4 3015   7.347   0.102   4.521 -0.0072  0.2719  0.2540
  216POPC   GL1 3016   7.273   0.119   4.944 -0.2800  0.4241  0.1571
  216POPC   GL2 3017   7.327  -0.044   5.235 -0.1602 -0.2658  0.0061
  216POPC   C1A 3018   6.920   0.201   5.243  0.2231  0.1288 -0.2862
  216POPC   D2A 3019   6.617   0.221   5.667 -0.1069 -0.1850 -0.1498
  216POPC   C3A 3020   6.783   0.379   6.161 -0.1123 -0.2687 -0.2016
  216POPC   C4A 3021   6.564   0.427   6.568 -0.1448  0.0781 -0.1662
  216POPC   C1B 3022   7.129   0.099   5.684 -0.1348 -0.3697 -0.1424
  216POPC   C2B 3023   7.250   0.242   6.047 -0.2759 -0.1905 -0.2526
  216POPC   C3B 3024   7.275   0.271   6.419  0.2757 -0.0558  0.0010
  216POPC   C4B 3025   7.461   0.550   6.809  0.1915  0.2030 -0.2046
  217POPC   NC3 3026   0.852   1.179   4.995 -0.2670  0.2401  0.1918
  217POPC   PO4 3027   0.624   0.733   5.057 -0.1084  0.0352 -0.1444
  217POPC   GL1 3028   0.541   0.915   5.404 -0.1463 -0.2881 -0.3989
  217POPC   GL2 3029   0.316   0.728   5.489 -0.0202  0.0863  0.0704
  217POPC   C1A 3030   0.649   1.154   5.782  0.1045  0.0088  0.0759
  217POPC   D2A 3031   0.548   1.194   6.202 -0.1399  0.0103 -0.0214
  217POPC   C3A 3032   0.623   1.471   6.420 -0.0381  0.0176  0.1041
  217POPC   C4A 3033   0.828   1.666   6.834 -0.1528 -0.0736 -0.0996
  217POPC   C1B 3034   0.273   0.715   5.893 -0.4498  0.0241 -0.0817
  217POPC   C2B 3035   0.095   0.815   6.231  0.1782 -0.0389 -0.0702
  217POPC   C3B 3036   0.013   0.795   6.627 -0.0981 -0.0381  0.0339
  217POPC   C4B 3037  -0.084   0.530   6.920  0.1554  0.0490  0.1713
  218POPC   NC3 3038   0.902   0.447   4.783  0.2161 -0.1658 -0.0213
  218POPC   PO4 3039   0.493   0.200   4.879 -0.2922 -0.0918 -0.0999
  218POPC   GL1 3040   0.490   0.216   5.377  0.0618 -0.3527 -0.0314
  218POPC   GL2 3041   0.243   0.071   5.426 -0.2165  0.2789 -0.2297
  218POPC   C1A 3042   0.618   0.087   5.780  0.1461 -0.2602  0.0086
  218POPC   D2A 3043   0.421  -0.304   6.035 -0.0688  0.1570  0.1880
  218POPC   C3A 3044   0.170  -0.115   6.268 -0.2960  0.2039  0.1081
  218POPC   C4A 3045   0.135  -0.036   6.781 -0.1118 -0.1870 -0.1077
  218POPC   C1B 3046   0.134   0.197   5.903 -0.1690  0.4386 -0.0723
  218POPC   C2B 3047   0.341   0.367   6.309  0.2321  0.1780  0.1896
  218POPC   C3B 3048   0.347   0.421   6.700 -0.1467 -0.0079  0.0758
  218POPC   C4B 3049   0.302   0.237   7.183  0.1602 -0.3943 -0.1624
  219POPC   NC3 3050   9.237   8.040   4.608 -0.0233 -0.2159 -0.0734
  219POPC   PO4 3051   9.377   7.775   4.844 -0.1283 -0.0857  0.1372
  219POPC   GL1 3052   9.368   7.408   5.109 -0.0907  0.3849 -0.0012
  219POPC   GL2 3053   9.076   7.476   5.328  0.2317 -0.3409 -0.2856
  219POPC   C1A 3054   9.453   7.078   5.375 -0.1371  0.2349 -0.1621
  219POPC   D2A 3055   9.727   6.919   5.744  0.1821  0.4018 -0.1138
  219POPC   C3A 3056   9.728   6.766   6.111 -0.2504 -0.0197 -0.2126
  219POPC   C4A 3057   9.564   6.937   6.464  0.0057  0.0701 -0.0025
  219POPC   C1B 3058   9.020   7.322   5.662 -0.0862 -0.1859 -0.0198
  219POPC   C2B 3059   9.220   7.060   6.032 -0.3327 -0.0498 -0.4471
  219POPC   C3B 3060   9.136   6.703   6.252 -0.0439 -0.0143  0.1489
  219POPC   C4B 3061   8.935   6.345   6.109  0.0037 -0.0760  0.2598
  220POPC   NC3 3062   1.580   6.612   4.555 -0.2544  0.0374 -0.3445
  220POPC   PO4 3063   1.943   6.759   4.419 -0.4278 -0.1017  0.1515
  220POPC   GL1 3064   2.042   6.621   4.830  0.0999  0.2398 -0.2230
  220POPC   GL2 3065   1.835   6.568   5.000 -0.0422  0.2400  0.2229
  220POPC   C1A 3066   2.167   7.063   5.208  0.0862  0.1292  0.1032
  220POPC   D2A 3067   2.271   6.816   5.571 -0.0375 -0.1728  0.4661
  220POPC   C3A 3068   2.329   6.378   5.561 -0.4203 -0.1718  0.2838
  220POPC   C4A 3069   2.425   5.976   5.706 -0.0702  0.0420  0.0222
  220POPC   C1B 3070   1.799   6.604   5.472  0.1087  0.2948 -0.1828
  220POPC   C2B 3071   1.771   6.653   5.861 -0.0131 -0.1506 -0.0974
  220POPC   C3B 3072   1.760   6.482   6.270 -0.3357  0.0417 -0.2227
  220POPC   C4B 3073   2.124   6.580   6.611  0.2674  0.0843  0.1055
  221POPC   NC3 3074   3.336   1.160   3.918 -0.0673  0.0704  0.1232
  221POPC   PO4 3075   2.928   1.140   4.061 -0.0786 -0.0152 -0.0530
  221POPC   GL1 3076   3.178   1.192   4.410  0.1609 -0.2351  0.1793
  221POPC   GL2 3077   2.929   1.431   4.556 -0.0465 -0.1335  0.1974
  221POPC   C1A 3078   3.312   1.062   4.906 -0.3422  0.1410 -0.1767
  221POPC   D2A 3079   3.426   1.321   5.303 -0.2759  0.0248  0.0904
  221POPC   C3A 3080   3.657   1.603   5.251 -0.2652 -0.0961 -0.3464
  221POPC   C4A 3081   3.562   2.024   5.115  0.2198  0.2085  0.0377
  221POPC   C1B 3082   3.050   1.553   4.979 -0.4424  0.3119 -0.0551
  221POPC   C2B 3083   3.221   1.783   5.393  0.1115 -0.0208 -0.2482
  221POPC   C3B 3084   2.938   1.867   5.805  0.0320  0.1637  0.1082
  221POPC   C4B 3085   2.574   1.682   5.975 -0.0486  0.0749 -0.1562
  222POPC   NC3 3086   6.575   7.075   4.682  0.0177 -0.2093  0.3346
  222POPC   PO4 3087   6.248   7.352   4.617 -0.3381 -0.0608 -0.1113
  222POPC   GL1 3088   6.243   7.172   5.050  0.1603  0.1817  0.2459
  222POPC   GL2 3089   5.985   7.405   5.219  0.0190  0.0342  0.2234
  222POPC   C1A 3090   6.333   7.106   5.381 -0.0872  0.1041 -0.0013
  222POPC   D2A 3091   6.128   7.005   5.788  0.3479 -0.1365  0.1630
  222POPC   C3A 3092   5.943   7.072   6.193  0.4199 -0.0168 -0.0967
  222POPC   C4A 3093   5.781   7.287   6.576  0.0414 -0.2686  0.4531
  222POPC   C1B 3094   5.782   7.300   5.601 -0.1468 -0.0412 -0.0549
  222POPC   C2B 3095   5.429   7.128   5.998 -0.2085 -0.2792  0.1137
  222POPC   C3B 3096   5.322   7.322   6.366 -0.1509  0.0450 -0.0926
  222POPC   C4B 3097   5.276   7.631   6.687  0.1159 -0.2790  0.2488
  223POPC   NC3 3098   1.232   4.165   4.690  0.3023  0.1312 -0.0671
  223POPC   PO4 3099   0.931   4.558   4.954 -0.1713  0.0469 -0.0493
  223POPC   GL1 3100   1.097   4.652   5.273 -0.0527 -0.0702 -0.0181
  223POPC   GL2 3101   1.397   4.751   5.306 -0.0482 -0.0419  0.0626
  223POPC   C1A 3102   1.130   4.833   5.700  0.1095  0.0429 -0.1493
  223POPC   D2A 3103   0.888   5.228   5.780  0.3673 -0.1332 -0.0569
  223POPC   C3A 3104   1.048   5.657   5.657 -0.1256  0.2915 -0.1603
  223POPC   C4A 3105   1.279   6.067   5.502  0.1526 -0.0584  0.1956
  223POPC   C1B 3106   1.603   4.538   5.564  0.1164  0.0896 -0.1216
  223POPC   C2B 3107   1.761   4.353   5.841  0.0854 -0.3357  0.0856
  223POPC   C3B 3108   2.067   4.175   6.225 -0.0525  0.0735 -0.1787
  223POPC   C4B 3109   2.416   4.259   6.561 -0.1120  0.2502  0.0125
  224POPC   NC3 3110   1.949   0.588   4.189 -0.0646  0.1536 -0.0325
  224POPC   PO4 3111   1.544   0.737   4.435 -0.1858  0.0435  0.0784
  224POPC   GL1 3112   1.725   0.963   4.798  0.0750 -0.2829 -0.0025
  224POPC   GL2 3113   1.545   1.222   5.052 -0.0977 -0.0608 -0.0699
  224POPC   C1A 3114   1.824   0.740   5.204 -0.1012 -0.2350 -0.0950
  224POPC   D2A 3115   1.792   0.463   5.562  0.1626  0.2929  0.0456
  224POPC   C3A 3116   2.052   0.465   5.910  0.2156  0.0982 -0.2662
  224POPC   C4A 3117   2.442   0.153   6.172 -0.0087  0.1457 -0.1839
  224POPC   C1B 3118   1.582   1.073   5.453  0.2584 -0.1367 -0.0785
  224POPC   C2B 3119   1.633   0.825   5.833 -0.0735 -0.1005  0.0697
  224POPC   C3B 3120   1.634   0.605   6.129 -0.1789  0.2958 -0.4745
  224POPC   C4B 3121   1.536   0.270   6.340 -0.2687  0.0080 -0.0480
  225POPC   NC3 3122   6.063   1.353   3.068  0.2330  0.2335  0.2406
  225POPC   PO4 3123   6.238   1.294   3.437 -0.0913 -0.1800  0.0538
  225POPC   GL1 3124   6.344   1.391   3.804  0.0666 -0.0450 -0.0362
  225POPC   GL2 3125   6.323   1.715   4.020  0.3834 -0.1372 -0.1118
  225POPC   C1A 3126   6.274   1.318   4.272  0.0234  0.1331 -0.0108
  225POPC   D2A 3127   6.081   1.307   4.703 -0.1280  0.0499 -0.0512
  225POPC   C3A 3128   5.781   1.635   4.825  0.1504  0.1565 -0.1444
  225POPC   C4A 3129   5.373   1.915   4.724 -0.3115  0.0822 -0.2465
  225POPC   C1B 3130   6.362   1.841   4.507 -0.1473  0.1458 -0.0814
  225POPC   C2B 3131   6.733   1.761   4.812  0.1934  0.0707  0.0422
  225POPC   C3B 3132   7.073   1.966   4.724 -0.0497 -0.2290  0.2391
  225POPC   C4B 3133   7.156   2.400   4.466 -0.3671  0.0962  0.1187
  226POPC   NC3 3134   1.026   7.748   4.390 -0.1854  0.1443  0.3252
  226POPC   PO4 3135   1.187   7.815   4.689 -0.1891 -0.1552 -0.0527
  226POPC   GL1 3136   1.197   8.034   5.056  0.3349 -0.0980 -0.2692
  226POPC   GL2 3137   1.513   8.128   5.123  0.0747  0.1043  0.0353
  226POPC   C1A 3138   1.257   7.887   5.504  0.0478 -0.1939  0.2748
  226POPC   D2A 3139   1.480   7.763   5.758  0.1003  0.0227  0.1266
  226POPC   C3A 3140   1.864   7.625   5.896  0.1073  0.2420  0.1960
  226POPC   C4A 3141   2.118   7.891   6.204 -0.0566 -0.0913  0.3466
  226POPC   C1B 3142   1.691   7.707   5.316  0.2261  0.0930  0.0348
  226POPC   C2B 3143   1.806   7.320   5.531  0.1261  0.0806  0.0812
  226POPC   C3B 3144   1.636   7.170   5.886  0.0074  0.1233 -0.0149
  226POPC   C4B 3145   1.458   6.859   6.157 -0.0150  0.0046  0.0012
  227POPC   NC3 3146   0.006   1.972   4.855 -0.2572  0.0162  0.0141
  227POPC   PO4 3147  -0.171   2.156   5.151 -0.1234  0.0864  0.1547
  227POPC   GL1 3148  -0.434   2.201   5.470  0.0651  0.1616  0.1953
  227POPC   GL2 3149  -0.535   2.442   5.647  0.2359  0.1847  0.0748
  227POPC   C1A 3150  -0.542   2.038   5.882  0.4091  0.1081  0.1221
  227POPC   D2A 3151  -0.654   1.992   6.257  0.1010 -0.1181  0.3177
  227POPC   C3A 3152  -0.872   1.772   6.527  0.1485  0.3136  0.2241
  227POPC   C4A 3153  -1.225   1.699   6.824 -0.4028  0.3053  0.3051
  227POPC   C1B 3154  -0.547   2.530   6.053  0.1014  0.0387 -0.5104
  227POPC   C2B 3155  -0.865   2.412   6.349  0.4095  0.0283 -0.2497
  227POPC   C3B 3156  -1.198   2.165   6.499  0.1289 -0.2401 -0.0714
  227POPC   C4B 3157  -1.558   2.027   6.704  0.1830  0.1473 -0.0070
  228POPC   NC3 3158   5.049   9.515   4.284  0.0219  0.3844  0.0379
  228POPC   PO4 3159   5.266   9.691   4.554  0.2990 -0.0950  0.1800
  228POPC   GL1 3160   5.199   9.563   4.964  0.0021 -0.1718  0.1296
  228POPC   GL2 3161   5.142   9.326   5.157 -0.0927  0.0343 -0.1567
  228POPC   C1A 3162   5.022   9.725   5.416  0.1336  0.1213 -0.3274
  228POPC   D2A 3163   4.924   9.961   5.741  0.0955  0.4052  0.2796
  228POPC   C3A 3164   5.156   9.728   6.089  0.2595 -0.1347  0.2831
  228POPC   C4A 3165   5.199   9.857   6.466  0.0397  0.0585 -0.0496
  228POPC   C1B 3166   4.895   9.286   5.510  0.2309 -0.2505 -0.1123
  228POPC   C2B 3167   4.871   9.387   5.915 -0.1488 -0.0154 -0.1450
  228POPC   C3B 3168   4.863   9.329   6.336  0.1070  0.0944  0.2063
  228POPC   C4B 3169   4.830   9.500   6.645  0.3033 -0.1570 -0.0955
  229POPC   NC3 3170   3.125   7.351   4.632 -0.2111 -0.0916 -0.0405
  229POPC   PO4 3171   3.389   7.072   4.567  0.1449  0.2675 -0.1007
  229POPC   GL1 3172   3.337   6.926   5.036 -0.0050 -0.4214  0.0572
  229POPC   GL2 3173   3.603   6.720   5.111 -0.0911 -0.1095 -0.2850
  229POPC   C1A 3174   3.412   7.140   5.464 -0.0703 -0.1766 -0.2030
  229POPC   D2A 3175   3.652   7.439   5.664  0.1418 -0.1060  0.0560
  229POPC   C3A 3176   3.741   7.319   6.056  0.1799 -0.1169  0.0235
  229POPC   C4A 3177   3.901   6.975   6.209  0.3136  0.0189 -0.0211
  229POPC   C1B 3178   3.356   6.624   5.464  0.2426 -0.1544 -0.2141
  229POPC   C2B 3179   3.087   6.491   5.795  0.0295 -0.0283  0.3476
  229POPC   C3B 3180   3.107   6.478   6.295  0.0159 -0.0088  0.2964
  229POPC   C4B 3181   3.138   6.220   6.705 -0.0704  0.1722  0.2641
  230POPC   NC3 3182   8.094   9.112   5.347  0.1178 -0.0925 -0.0882
  230POPC   PO4 3183   7.744   9.076   5.065 -0.4838  0.0373  0.0489
  230POPC   GL1 3184   7.586   9.308   5.439  0.0660  0.0690  0.1803
  230POPC   GL2 3185   7.748   9.623   5.330 -0.1627 -0.1790  0.3473
  230POPC   C1A 3186   7.439   9.467   5.867  0.0499  0.0669 -0.2282
  230POPC   D2A 3187   7.154   9.686   6.173  0.0346  0.2097 -0.3025
  230POPC   C3A 3188   7.317   9.624   6.544  0.0114  0.1584  0.0578
  230POPC   C4A 3189   7.691   9.570   6.844  0.1495  0.2309 -0.1887
  230POPC   C1B 3190   7.714  10.063   5.600  0.0238 -0.0913 -0.2216
  230POPC   C2B 3191   7.688  10.334   6.003 -0.1241 -0.0457 -0.1789
  230POPC   C3B 3192   7.685  10.451   6.318 -0.1287  0.2884 -0.2508
  230POPC   C4B 3193   7.948  10.502   6.547 -0.0559 -0.1852  0.1852
  231POPC   NC3 3194   2.273   8.593   4.765  0.0533 -0.3379 -0.1892
  231POPC   PO4 3195   2.700   8.856   4.662  0.0660 -0.1418 -0.1183
  231POPC   GL1 3196   2.609   8.724   5.071  0.0028  0.2357  0.0289
  231POPC   GL2 3197   2.915   8.692   5.200 -0.2526  0.3457  0.1758
  231POPC   C1A 3198   2.487   8.917   5.429 -0.2139 -0.1437 -0.3292
  231POPC   D2A 3199   2.465   9.103   5.808  0.0313  0.0944  0.2134
  231POPC   C3A 3200   2.049   9.136   5.997  0.5773 -0.1683  0.1456
  231POPC   C4A 3201   1.568   9.109   5.920  0.0337 -0.1315 -0.2055
  231POPC   C1B 3202   3.093   8.718   5.525  0.1228 -0.0979  0.3212
  231POPC   C2B 3203   2.968   8.948   5.923  0.2334 -0.1030  0.0678
  231POPC   C3B 3204   2.637   9.143   6.289 -0.1434 -0.3382 -0.1350
  231POPC   C4B 3205   2.367   9.472   6.182  0.2339 -0.0967 -0.0304
  232POPC   NC3 3206   0.255   1.815   5.314  0.1919  0.0413 -0.0081
  232POPC   PO4 3207  -0.098   1.555   5.134  0.3527 -0.0476 -0.1311
  232POPC   GL1 3208  -0.323   1.721   5.555  0.2303  0.0322  0.0288
  232POPC   GL2 3209  -0.715   1.738   5.567  0.0024 -0.2146  0.2599
  232POPC   C1A 3210  -0.107   1.648   6.010 -0.0712  0.4354 -0.0248
  232POPC   D2A 3211  -0.041   1.297   6.180 -0.2881 -0.2333  0.0430
  232POPC   C3A 3212   0.083   1.266   6.547 -0.1576 -0.3090 -0.1573
  232POPC   C4A 3213  -0.069   1.277   6.891  0.4196  0.1360  0.1161
  232POPC   C1B 3214  -0.999   2.053   5.769  0.2986 -0.1346  0.0624
  232POPC   C2B 3215  -1.186   2.285   5.978 -0.0979  0.1784  0.0147
  232POPC   C3B 3216  -1.486   2.519   6.326  0.1585  0.3979  0.0408
  232POPC   C4B 3217  -1.858   2.394   6.552 -0.0162 -0.0305  0.3106
  233POPC   NC3 3218   7.591   4.982   4.519 -0.0778  0.0092  0.1742
  233POPC   PO4 3219   7.557   4.509   4.515  0.0292 -0.2424  0.0391
  233POPC   GL1 3220   7.287   4.588   4.850  0.1109 -0.0053 -0.0664
  233POPC   GL2 3221   7.566   4.676   5.094 -0.2216 -0.0335 -0.1439
  233POPC   C1A 3222   7.145   4.517   5.269  0.3276  0.1565  0.1225
  233POPC   D2A 3223   6.901   4.470   5.609  0.1742 -0.0053 -0.2066
  233POPC   C3A 3224   6.781   4.832   5.773  0.1561 -0.0689 -0.2526
  233POPC   C4A 3225   6.374   5.075   5.746  0.4991  0.1200  0.1240
  233POPC   C1B 3226   7.597   4.546   5.520  0.2830  0.0232  0.1855
  233POPC   C2B 3227   7.252   4.596   5.922 -0.1593 -0.3238 -0.2932
  233POPC   C3B 3228   6.981   4.744   6.268  0.0829 -0.0845 -0.1627
  233POPC   C4B 3229   6.663   5.079   6.255 -0.0083 -0.1832 -0.2262
  234POPC   NC3 3230   1.941   1.911   3.942 -0.0573  0.2465  0.2620
  234POPC   PO4 3231   2.081   1.911   4.421  0.0956 -0.0550  0.2117
  234POPC   GL1 3232   2.137   1.936   4.795  0.2175 -0.1681 -0.0370
  234POPC   GL2 3233   2.411   1.749   5.021 -0.1512  0.1460 -0.0109
  234POPC   C1A 3234   1.947   2.189   5.123  0.2345  0.2408 -0.0261
  234POPC   D2A 3235   1.791   2.093   5.543 -0.0711 -0.3154 -0.1621
  234POPC   C3A 3236   1.968   1.941   5.939  0.0237 -0.0513 -0.1024
  234POPC   C4A 3237   2.205   1.910   6.207 -0.2208  0.0368  0.1566
  234POPC   C1B 3238   2.522   1.296   5.050 -0.1374 -0.3817 -0.1232
  234POPC   C2B 3239   2.815   1.099   5.069 -0.1103 -0.0092  0.0591
  234POPC   C3B 3240   3.136   0.811   5.409 -0.2966 -0.0247  0.0008
  234POPC   C4B 3241   3.443   1.007   5.766 -0.0710 -0.0235  0.1256
  235POPC   NC3 3242   8.035   3.530   4.526 -0.0655 -0.0084  0.2906
  235POPC   PO4 3243   7.948   3.233   4.167  0.0415  0.1999 -0.1773
  235POPC   GL1 3244   7.731   3.100   4.554  0.2588  0.0287  0.4498
  235POPC   GL2 3245   7.840   2.928   4.830 -0.1682  0.0784  0.0540
  235POPC   C1A 3246   7.404   3.275   4.810  0.0767  0.1070 -0.2265
  235POPC   D2A 3247   7.348   3.550   5.157  0.2183  0.3458  0.0136
  235POPC   C3A 3248   7.062   3.459   5.472  0.1805  0.0323 -0.0176
  235POPC   C4A 3249   7.102   3.182   5.805  0.1600 -0.4553  0.0437
  235POPC   C1B 3250   7.645   2.817   5.220  0.0411  0.0843 -0.0981
  235POPC   C2B 3251   7.267   2.743   5.427  0.5109 -0.2770  0.3130
  235POPC   C3B 3252   6.854   2.466   5.413  0.0204 -0.1765  0.1854
  235POPC   C4B 3253   6.475   2.490   5.556 -0.2473 -0.2050  0.0535
  236POPC   NC3 3254   7.522   8.449   5.002 -0.0622 -0.1566 -0.2713
  236POPC   PO4 3255   7.060   8.387   4.916  0.0886 -0.3032  0.0655
  236POPC   GL1 3256   6.913   8.547   5.273  0.0906  0.2556  0.0122
  236POPC   GL2 3257   6.727   8.368   5.467  0.1688 -0.2260  0.4017
  236POPC   C1A 3258   7.218   8.700   5.596  0.2645 -0.1631  0.0302
  236POPC   D2A 3259   7.192   9.014   5.893  0.5687 -0.3996  0.1728
  236POPC   C3A 3260   7.391   9.123   6.224 -0.0007 -0.0463  0.3280
  236POPC   C4A 3261   7.396   9.069   6.658  0.0100 -0.0445 -0.0411
  236POPC   C1B 3262   6.616   8.077   5.641 -0.0478 -0.0892  0.2759
  236POPC   C2B 3263   6.720   7.882   5.944 -0.0086 -0.4000 -0.1331
  236POPC   C3B 3264   6.558   7.842   6.388  0.2266  0.2813  0.1797
  236POPC   C4B 3265   6.492   7.894   6.768  0.1807  0.0451 -0.1720
  237POPC   NC3 3266   5.366   8.869   5.039  0.1168  0.3191 -0.2220
  237POPC   PO4 3267   5.269   8.441   5.092 -0.0347 -0.1062  0.1143
  237POPC   GL1 3268   4.870   8.496   5.259  0.2230 -0.1366  0.1104
  237POPC   GL2 3269   4.987   8.762   5.489 -0.1984  0.2258  0.0626
  237POPC   C1A 3270   4.769   8.283   5.698 -0.0110 -0.0431 -0.1299
  237POPC   D2A 3271   4.709   8.366   6.156 -0.3381 -0.0275  0.0374
  237POPC   C3A 3272   4.542   8.114   6.360  0.0495  0.3420 -0.1576
  237POPC   C4A 3273   4.183   7.926   6.506  0.2161  0.2104 -0.1624
  237POPC   C1B 3274   4.809   8.930   5.864 -0.2016  0.2057  0.0588
  237POPC   C2B 3275   4.804   8.861   6.237 -0.3914  0.2332 -0.0029
  237POPC   C3B 3276   4.690   8.608   6.632 -0.0039 -0.1399  0.0567
  237POPC   C4B 3277   4.604   8.283   6.883 -0.2801 -0.2952 -0.0706
  238POPC   NC3 3278   1.389   9.226   3.940 -0.2113 -0.0548 -0.1328
  238POPC   PO4 3279   1.539   9.150   4.423 -0.1187  0.2684  0.0984
  238POPC   GL1 3280   1.627   9.118   4.918 -0.0110  0.0948 -0.2202
  238POPC   GL2 3281   1.786   8.915   5.041  0.1159 -0.1568 -0.0663
  238POPC   C1A 3282   1.521   9.240   5.332  0.0688 -0.0238 -0.2801
  238POPC   D2A 3283   1.154   9.230   5.607  0.4168 -0.3316  0.0126
  238POPC   C3A 3284   0.938   9.531   5.863 -0.1896  0.2392 -0.4894
  238POPC   C4A 3285   0.906   9.469   6.344 -0.2532  0.2867  0.2033
  238POPC   C1B 3286   1.954   9.024   5.502 -0.0365  0.1432  0.1731
  238POPC   C2B 3287   1.781   8.683   5.868  0.1566 -0.2145 -0.0838
  238POPC   C3B 3288   1.736   8.835   6.315 -0.4720 -0.4335 -0.1407
  238POPC   C4B 3289   2.062   8.984   6.499 -0.2382 -0.0329  0.1188
  239POPC   NC3 3290   3.701   8.310   4.873  0.3118  0.2336 -0.1442
  239POPC   PO4 3291   3.272   8.446   4.862 -0.0633  0.2425 -0.1229
  239POPC   GL1 3292   2.903   8.219   5.112  0.0238 -0.2941  0.1831
  239POPC   GL2 3293   2.605   8.076   5.031 -0.0727 -0.2332 -0.0904
  239POPC   C1A 3294   2.942   8.258   5.543 -0.0483 -0.0361  0.2313
  239POPC   D2A 3295   3.082   8.212   5.977 -0.0026  0.0602  0.3294
  239POPC   C3A 3296   3.506   8.154   6.220  0.1000  0.1134 -0.1826
  239POPC   C4A 3297   3.702   8.335   6.449 -0.2305  0.2439 -0.0964
  239POPC   C1B 3298   2.604   7.838   5.344 -0.1087  0.1407 -0.1182
  239POPC   C2B 3299   2.515   8.057   5.742  0.3501 -0.0640 -0.0065
  239POPC   C3B 3300   2.289   8.358   6.022 -0.2791  0.1226 -0.0071
  239POPC   C4B 3301   2.250   8.688   6.223  0.1101 -0.2446  0.0388
  240POPC   NC3 3302   3.583   6.580   4.646  0.1690  0.1000 -0.0277
  240POPC   PO4 3303   3.244   6.334   4.616  0.2222  0.0104  0.3159
  240POPC   GL1 3304   3.273   6.371   5.073  0.1658  0.0590  0.0082
  240POPC   GL2 3305   2.962   6.417   5.193  0.0002  0.1197  0.0017
  240POPC   C1A 3306   3.370   6.094   5.357  0.3331  0.0952  0.1869
  240POPC   D2A 3307   3.456   5.999   5.790 -0.0769  0.4573 -0.0602
  240POPC   C3A 3308   3.530   6.273   6.043  0.0715  0.1120  0.0358
  240POPC   C4A 3309   3.414   6.094   6.356 -0.0328  0.0263  0.1060
  240POPC   C1B 3310   2.887   6.133   5.571  0.3596  0.0755  0.0142
  240POPC   C2B 3311   2.988   6.021   5.972  0.0505  0.2448 -0.2753
  240POPC   C3B 3312   3.010   5.672   6.214  0.1860  0.1555  0.0954
  240POPC   C4B 3313   2.835   5.302   6.144 -0.1886  0.2130  0.1843
  241POPC   NC3 3314   1.565   6.955   4.213 -0.0610 -0.0428 -0.0780
  241POPC   PO4 3315   1.189   6.881   4.406  0.3000 -0.1098 -0.3425
  241POPC   GL1 3316   1.123   6.782   4.792  0.1772  0.3977 -0.4940
  241POPC   GL2 3317   1.203   6.490   4.923  0.0227  0.1217  0.1688
  241POPC   C1A 3318   1.029   6.956   5.166 -0.1471  0.0141  0.2364
  241POPC   D2A 3319   0.791   6.922   5.523  0.2131 -0.1550 -0.2910
  241POPC   C3A 3320   0.798   7.227   5.573  0.0906 -0.0562  0.0293
  241POPC   C4A 3321   0.617   7.623   5.463 -0.0637  0.2082  0.1495
  241POPC   C1B 3322   1.180   6.552   5.384 -0.1302  0.2164 -0.3392
  241POPC   C2B 3323   1.286   6.444   5.808 -0.0079 -0.1768  0.2633
  241POPC   C3B 3324   1.107   6.076   5.975 -0.0023  0.2134 -0.0195
  241POPC   C4B 3325   1.096   5.712   6.218 -0.0633  0.2967 -0.0513
  242POPC   NC3 3326   3.751   4.271   3.762  0.4298 -0.0476 -0.0089
  242POPC   PO4 3327   4.235   4.100   3.846  0.0193  0.1655  0.0164
  242POPC   GL1 3328   4.125   3.905   4.300  0.0661  0.0055  0.0303
  242POPC   GL2 3329   4.411   3.769   4.421  0.1769  0.0730  0.1894
  242POPC   C1A 3330   3.916   3.724   4.714  0.2019  0.2010  0.0753
  242POPC   D2A 3331   3.905   3.455   5.081 -0.4382  0.2649  0.0307
  242POPC   C3A 3332   3.677   3.432   5.383 -0.0255 -0.0292 -0.0109
  242POPC   C4A 3333   3.449   3.188   5.515 -0.0458 -0.0631 -0.1107
  242POPC   C1B 3334   4.178   3.419   4.497 -0.0947  0.1082 -0.4511
  242POPC   C2B 3335   3.882   3.064   4.606  0.2601  0.2073  0.1253
  242POPC   C3B 3336   3.972   2.914   4.944  0.2250 -0.1548  0.2901
  242POPC   C4B 3337   3.673   2.801   5.320 -0.0469  0.2678 -0.1767
  243POPC   NC3 3338   5.365   4.220   2.877  0.0885  0.2591  0.0019
  243POPC   PO4 3339   5.431   4.000   3.292  0.2660  0.1214 -0.0155
  243POPC   GL1 3340   5.640   3.964   3.630  0.0258 -0.0328  0.3250
  243POPC   GL2 3341   5.803   4.364   3.862  0.4064  0.0904  0.1105
  243POPC   C1A 3342   5.704   3.761   3.947 -0.0862  0.1274  0.2823
  243POPC   D2A 3343   5.663   3.270   3.982  0.1391  0.1582  0.0384
  243POPC   C3A 3344   5.536   3.097   4.268  0.0074  0.1545 -0.1574
  243POPC   C4A 3345   5.443   2.883   4.661 -0.1386  0.3371  0.1024
  243POPC   C1B 3346   5.890   4.156   4.156 -0.2148  0.1954 -0.2915
  243POPC   C2B 3347   5.708   3.959   4.543 -0.0283  0.0622  0.0109
  243POPC   C3B 3348   5.490   3.701   4.939  0.0753  0.1424  0.0214
  243POPC   C4B 3349   5.663   3.647   5.309  0.0187  0.1300 -0.1790
  244POPC   NC3 3350   9.515   3.143   4.968  0.2336 -0.1596  0.2272
  244POPC   PO4 3351   9.995   3.042   4.849 -0.4772  0.0456  0.1931
  244POPC   GL1 3352  10.008   2.951   5.364  0.0680 -0.3724  0.0636
  244POPC   GL2 3353   9.727   3.051   5.417  0.0236 -0.1420  0.1530
  244POPC   C1A 3354   9.919   2.790   5.767  0.2843  0.0457 -0.0702
  244POPC   D2A 3355   9.937   2.631   6.139 -0.0093  0.0980 -0.0038
  244POPC   C3A 3356   9.830   2.930   6.342 -0.3149  0.1206 -0.1698
  244POPC   C4A 3357   9.861   3.221   6.621  0.4320 -0.3321  0.1687
  244POPC   C1B 3358   9.446   3.002   5.874  0.1776  0.0927  0.0653
  244POPC   C2B 3359   9.526   3.296   6.236 -0.0331 -0.0923  0.2466
  244POPC   C3B 3360   9.784   3.644   6.266 -0.0517 -0.2668 -0.0012
  244POPC   C4B 3361   9.894   3.954   5.955  0.0157 -0.0965 -0.2478
  245POPC   NC3 3362   4.461   3.272   3.065  0.0862 -0.3154  0.1055
  245POPC   PO4 3363   4.458   3.092   3.371  0.0047  0.0038  0.1354
  245POPC   GL1 3364   4.164   3.247   3.755  0.0202  0.0112  0.0879
  245POPC   GL2 3365   4.422   3.532   3.987  0.0085  0.0663 -0.0706
  245POPC   C1A 3366   4.019   3.074   4.115  0.0196  0.0862  0.0324
  245POPC   D2A 3367   4.299   2.823   4.376  0.4754  0.0980  0.2715
  245POPC   C3A 3368   4.593   3.049   4.516 -0.1578 -0.3729 -0.4022
  245POPC   C4A 3369   4.910   3.073   4.916  0.1055  0.2193  0.1299
  245POPC   C1B 3370   4.761   3.420   4.266 -0.0967  0.0975 -0.1279
  245POPC   C2B 3371   5.033   3.017   4.376  0.0072 -0.0736  0.1260
  245POPC   C3B 3372   5.216   2.827   4.011  0.0033  0.0794 -0.1534
  245POPC   C4B 3373   5.500   2.584   3.981  0.2025  0.0454 -0.0086
  246POPC   NC3 3374   7.325   5.700   4.190 -0.1729 -0.1618  0.3525
  246POPC   PO4 3375   7.160   6.116   4.273 -0.2021 -0.3307  0.2817
  246POPC   GL1 3376   7.069   5.803   4.669  0.2449 -0.3161  0.2432
  246POPC   GL2 3377   6.780   5.984   4.846  0.0265  0.0716 -0.0694
  246POPC   C1A 3378   7.155   6.059   5.143  0.3072  0.1708 -0.1571
  246POPC   D2A 3379   7.255   6.030   5.558  0.0114  0.1116  0.4561
  246POPC   C3A 3380   7.607   5.978   5.789  0.1716  0.1304  0.2155
  246POPC   C4A 3381   7.960   5.993   6.067  0.3075  0.0169  0.0317
  246POPC   C1B 3382   6.981   5.626   5.133  0.1065  0.0589 -0.0271
  246POPC   C2B 3383   7.119   5.481   5.475  0.1243 -0.0550 -0.1193
  246POPC   C3B 3384   7.272   5.651   5.898  0.2532 -0.1085 -0.1971
  246POPC   C4B 3385   7.486   5.825   6.260  0.0224 -0.4164 -0.1514
  247POPC   NC3 3386   3.742   9.664   3.255 -0.0594 -0.3789 -0.3750
  247POPC   PO4 3387   3.760  10.172   3.487 -0.3647  0.2350 -0.1140
  247POPC   GL1 3388   3.946  10.346   3.873  0.1355 -0.1111 -0.0682
  247POPC   GL2 3389   4.232  10.571   3.952 -0.0974  0.0490  0.0662
  247POPC   C1A 3390   3.884  10.425   4.292 -0.0475  0.0331  0.0566
  247POPC   D2A 3391   3.821  10.528   4.687 -0.0106  0.4894 -0.0362
  247POPC   C3A 3392   4.002  10.358   5.021  0.1849  0.0856 -0.1354
  247POPC   C4A 3393   4.352  10.180   4.789 -0.0747  0.1669 -0.0680
  247POPC   C1B 3394   4.380  10.541   4.269 -0.2276 -0.0184 -0.4388
  247POPC   C2B 3395   4.314  10.662   4.627  0.4257 -0.0306  0.1809
  247POPC   C3B 3396   4.352  10.947   4.990  0.2291 -0.0711 -0.0576
  247POPC   C4B 3397   4.166  11.366   5.083  0.1399  0.1430 -0.0751
  248POPC   NC3 3398   6.265   0.667   4.168  0.0434  0.1389  0.2289
  248POPC   PO4 3399   6.069   0.248   4.032 -0.0980 -0.2437  0.2034
  248POPC   GL1 3400   5.956   0.446   4.503 -0.1117  0.2626 -0.0090
  248POPC   GL2 3401   5.883   0.919   4.518  0.0632 -0.1843  0.1434
  248POPC   C1A 3402   5.954   0.449   5.025  0.0451 -0.2157  0.1379
  248POPC   D2A 3403   5.661   0.523   5.249 -0.1685  0.3815  0.3166
  248POPC   C3A 3404   5.438   0.862   5.231  0.2463  0.0971  0.1754
  248POPC   C4A 3405   5.035   1.012   5.127  0.0883 -0.1146 -0.1841
  248POPC   C1B 3406   5.594   0.642   4.723  0.1247 -0.2408 -0.1522
  248POPC   C2B 3407   5.313   0.433   4.936 -0.1782  0.2285 -0.2775
  248POPC   C3B 3408   4.906   0.167   5.069  0.2140  0.1322  0.4076
  248POPC   C4B 3409   4.601   0.025   5.325  0.0772  0.2265 -0.0733
  249POPC   NC3 3410   6.562   7.587   4.968  0.0039 -0.1064  0.0987
  249POPC   PO4 3411   7.023   7.476   4.893  0.0984 -0.0581 -0.1634
  249POPC   GL1 3412   6.886   7.371   5.285  0.0237  0.0282  0.1193
  249POPC   GL2 3413   6.818   7.092   5.236 -0.0802 -0.3079  0.2030
  249POPC   C1A 3414   7.051   7.662   5.603 -0.2978 -0.1239 -0.0438
  249POPC   D2A 3415   7.150   8.072   5.828  0.3328 -0.0498 -0.1872
  249POPC   C3A 3416   6.931   8.447   5.953  0.1471  0.2385 -0.0609
  249POPC   C4A 3417   6.890   8.818   6.201 -0.1022  0.1920  0.0398
  249POPC   C1B 3418   7.010   6.698   5.326 -0.2681 -0.3541 -0.2293
  249POPC   C2B 3419   7.255   6.628   5.715  0.0291 -0.1010  0.0344
  249POPC   C3B 3420   7.396   6.537   6.116 -0.3230  0.1371 -0.1345
  249POPC   C4B 3421   7.550   6.274   6.412 -0.1529 -0.0357 -0.1440
  250POPC   NC3 3422   2.002   4.027   4.415  0.1773  0.0927 -0.0841
  250POPC   PO4 3423   1.725   3.998   4.645  0.4411  0.1154 -0.1455
  250POPC   GL1 3424   1.653   3.802   5.068 -0.0866 -0.0786  0.2157
  250POPC   GL2 3425   1.511   3.479   5.137 -0.3683  0.1335 -0.0314
  250POPC   C1A 3426   1.832   3.905   5.382 -0.1789  0.0062  0.0283
  250POPC   D2A 3427   1.789   3.831   5.842 -0.0973  0.1023  0.0545
  250POPC   C3A 3428   1.873   3.518   6.192  0.0575 -0.2145  0.1353
  250POPC   C4A 3429   1.930   3.161   6.579  0.0523  0.1446  0.0437
  250POPC   C1B 3430   1.705   3.429   5.480 -0.0015  0.0616 -0.1749
  250POPC   C2B 3431   1.995   3.250   5.715 -0.2909 -0.0946 -0.3034
  250POPC   C3B 3432   2.423   3.191   5.593  0.0702  0.1115 -0.2021
  250POPC   C4B 3433   2.800   3.273   5.438 -0.1994  0.0850 -0.5769
  251POPC   NC3 3434   6.649   6.256   4.432  0.1043  0.3530 -0.2561
  251POPC   PO4 3435   6.649   6.588   4.585  0.2171  0.0304  0.0544
  251POPC   GL1 3436   6.650   6.642   5.001  0.2524 -0.1631 -0.0809
  251POPC   GL2 3437   6.267   6.708   5.140 -0.1765  0.0916  0.4248
  251POPC   C1A 3438   6.605   6.312   5.249 -0.1937  0.0550 -0.0240
  251POPC   D2A 3439   6.842   6.298   5.692  0.1130 -0.0782 -0.0646
  251POPC   C3A 3440   6.878   6.594   6.023 -0.1277 -0.0271  0.1778
  251POPC   C4A 3441   7.151   6.972   6.154  0.2530  0.1032  0.2065
  251POPC   C1B 3442   6.528   6.697   5.564  0.2049 -0.2527  0.1198
  251POPC   C2B 3443   6.614   7.125   5.801 -0.2797 -0.2550  0.1404
  251POPC   C3B 3444   6.857   7.410   6.035 -0.0930  0.0142 -0.0527
  251POPC   C4B 3445   7.085   7.594   6.280 -0.0449 -0.0244 -0.5083
  252POPC   NC3 3446   2.119   7.735   4.523  0.0234  0.1994 -0.1266
  252POPC   PO4 3447   2.359   8.037   4.573  0.0936 -0.2430 -0.1454
  252POPC   GL1 3448   2.138   7.966   4.997  0.0010 -0.2757 -0.0713
  252POPC   GL2 3449   2.055   8.197   5.156  0.0912  0.0898 -0.0788
  252POPC   C1A 3450   2.147   7.805   5.467 -0.2527 -0.0160  0.0846
  252POPC   D2A 3451   2.318   7.553   5.784 -0.1600 -0.1960 -0.2993
  252POPC   C3A 3452   2.141   7.131   5.896  0.1952 -0.1744  0.0324
  252POPC   C4A 3453   2.217   6.866   6.179 -0.3473 -0.1217  0.0824
  252POPC   C1B 3454   2.417   8.374   5.399 -0.2154  0.1464  0.1774
  252POPC   C2B 3455   2.658   8.594   5.799  0.1139 -0.0833  0.2050
  252POPC   C3B 3456   2.748   8.566   6.179 -0.1832 -0.1538  0.1686
  252POPC   C4B 3457   2.691   8.675   6.483  0.2200 -0.2822  0.2888
  253POPC   NC3 3458   8.962   7.542   4.837  0.1151 -0.1930  0.3392
  253POPC   PO4 3459   8.519   7.666   4.922 -0.1249  0.2076  0.0170
  253POPC   GL1 3460   8.618   7.717   5.362 -0.2685 -0.1572 -0.1877
  253POPC   GL2 3461   8.438   7.926   5.562 -0.1669 -0.1089  0.2806
  253POPC   C1A 3462   8.990   7.840   5.655 -0.0718 -0.0462 -0.1658
  253POPC   D2A 3463   9.305   7.679   6.034 -0.0699  0.0533 -0.1129
  253POPC   C3A 3464   9.518   7.852   6.292  0.1764  0.0326 -0.1105
  253POPC   C4A 3465   9.931   7.725   6.321  0.1311  0.0395 -0.0234
  253POPC   C1B 3466   8.567   7.860   5.911 -0.5616 -0.0014 -0.0527
  253POPC   C2B 3467   8.475   8.098   6.346  0.1632  0.0975 -0.0729
  253POPC   C3B 3468   8.409   8.377   6.611  0.1245 -0.0290  0.1074
  253POPC   C4B 3469   8.355   8.762   6.693  0.4890 -0.1864  0.1775
  254POPC   NC3 3470   8.439   6.997   4.267  0.1218 -0.3133  0.0133
  254POPC   PO4 3471   8.421   7.279   4.556  0.0970  0.0921 -0.1276
  254POPC   GL1 3472   8.363   7.210   4.970  0.1158 -0.2162 -0.0536
  254POPC   GL2 3473   8.094   7.079   5.134 -0.1357 -0.1577 -0.3029
  254POPC   C1A 3474   8.528   7.262   5.491 -0.1827  0.2160  0.0817
  254POPC   D2A 3475   8.535   7.293   5.944 -0.1991  0.0854  0.3690
  254POPC   C3A 3476   8.841   7.372   6.247  0.2848 -0.1797 -0.2462
  254POPC   C4A 3477   9.285   7.470   6.479  0.4540 -0.0930  0.2233
  254POPC   C1B 3478   8.105   7.032   5.587  0.0187  0.2244  0.0009
  254POPC   C2B 3479   8.126   6.879   5.875 -0.0982  0.1689 -0.1891
  254POPC   C3B 3480   8.231   6.919   6.253 -0.0675  0.1130  0.0007
  254POPC   C4B 3481   8.504   7.092   6.646 -0.2746 -0.1471 -0.2464
  255POPC   NC3 3482   9.884   8.840   4.722 -0.0135 -0.1245  0.3581
  255POPC   PO4 3483   9.449   8.858   4.882 -0.2445  0.1932 -0.1505
  255POPC   GL1 3484   9.446   8.731   5.321 -0.4237  0.1679  0.0829
  255POPC   GL2 3485   9.209   8.737   5.462  0.0207  0.1637 -0.0479
  255POPC   C1A 3486   9.647   8.290   5.523  0.1820 -0.2759 -0.0915
  255POPC   D2A 3487   9.815   7.997   5.788 -0.0038  0.1306  0.0334
  255POPC   C3A 3488  10.220   8.125   5.617  0.3278  0.1492  0.3088
  255POPC   C4A 3489  10.372   8.591   5.399  0.1819 -0.0185  0.1971
  255POPC   C1B 3490   9.429   8.595   5.819 -0.0150 -0.3343  0.2013
  255POPC   C2B 3491   9.758   8.825   6.026 -0.1268  0.1016 -0.0415
  255POPC   C3B 3492  10.003   8.828   6.334 -0.3108  0.0386  0.0299
  255POPC   C4B 3493  10.223   9.008   6.649 -0.0929 -0.1082  0.0464
  256POPC   NC3 3494   9.847   5.386   4.867  0.1923  0.2024 -0.0801
  256POPC   PO4 3495   9.932   4.950   4.878 -0.1112 -0.3066 -0.1415
  256POPC   GL1 3496  10.152   5.139   5.244 -0.0084  0.1349 -0.0865
  256POPC   GL2 3497   9.858   5.187   5.338 -0.0224 -0.1543 -0.0022
  256POPC   C1A 3498  10.289   4.903   5.627  0.1503  0.3107 -0.2115
  256POPC   D2A 3499  10.064   4.585   5.907 -0.0288  0.0051  0.1764
  256POPC   C3A 3500  10.211   4.418   6.329  0.0036 -0.2805  0.1418
  256POPC   C4A 3501  10.131   4.088   6.453 -0.1864 -0.0204  0.0080
  256POPC   C1B 3502   9.664   4.847   5.681 -0.2198 -0.0263 -0.0714
  256POPC   C2B 3503   9.461   4.640   5.970 -0.1879  0.1172 -0.2712
  256POPC   C3B 3504   9.612   4.268   6.242 -0.2621 -0.4402  0.3682
  256POPC   C4B 3505   9.480   4.142   6.632 -0.2457 -0.1877  0.2796
  257POPC   NC3 3506   8.715   2.644   4.744 -0.1232 -0.0145 -0.0143
  257POPC   PO4 3507   8.557   2.298   4.710  0.0985  0.0576  0.1158
  257POPC   GL1 3508   8.541   2.148   5.045 -0.3282  0.1572 -0.1501
  257POPC   GL2 3509   8.449   1.878   5.224  0.0465  0.3267  0.0603
  257POPC   C1A 3510   8.802   2.453   5.337  0.1798  0.2436 -0.0054
  257POPC   D2A 3511   8.898   2.642   5.686  0.1811 -0.1050  0.1129
  257POPC   C3A 3512   8.629   2.788   5.904 -0.0017 -0.3551  0.2450
  257POPC   C4A 3513   8.557   3.180   6.216  0.0093 -0.0788 -0.0190
  257POPC   C1B 3514   8.424   2.011   5.733  0.0868 -0.1706  0.0007
  257POPC   C2B 3515   8.253   2.083   6.115  0.1237 -0.1858  0.0719
  257POPC   C3B 3516   7.903   1.923   6.406  0.0530 -0.0544 -0.0705
  257POPC   C4B 3517   7.519   2.031   6.539 -0.0213 -0.1348 -0.2238
  258POPC   NC3 3518   5.547   1.929   2.558  0.2247  0.0506 -0.1258
  258POPC   PO4 3519   5.513   2.081   3.001 -0.2637  0.2384  0.0502
  258POPC   GL1 3520   5.574   2.221   3.378  0.1427  0.0183  0.0853
  258POPC   GL2 3521   5.743   2.469   3.527  0.0297 -0.0672 -0.1664
  258POPC   C1A 3522   5.442   2.088   3.773  0.0193 -0.1576  0.2935
  258POPC   D2A 3523   5.492   2.164   4.298 -0.1668 -0.1264  0.0123
  258POPC   C3A 3524   5.179   2.532   4.473  0.3911  0.1312 -0.0792
  258POPC   C4A 3525   4.696   2.632   4.761  0.1862 -0.2073 -0.2839
  258POPC   C1B 3526   5.992   2.575   3.986  0.2122  0.2060 -0.0506
  258POPC   C2B 3527   6.005   2.177   4.188  0.1461 -0.5063  0.0541
  258POPC   C3B 3528   5.954   2.070   4.615 -0.0644  0.3421  0.3172
  258POPC   C4B 3529   6.164   2.380   4.997  0.0855 -0.1401 -0.6557
  259POPC   NC3 3530   9.670   1.213   4.780 -0.2341  0.2969  0.0571
  259POPC   PO4 3531   9.278   1.382   4.967  0.3504 -0.0682 -0.0605
  259POPC   GL1 3532   9.165   1.158   5.293  0.0975 -0.1221  0.1611
  259POPC   GL2 3533   9.416   1.262   5.454 -0.1077  0.1324  0.2685
  259POPC   C1A 3534   8.996   1.156   5.773 -0.1508  0.1598  0.0317
  259POPC   D2A 3535   8.932   1.326   6.274  0.1788 -0.0215 -0.1850
  259POPC   C3A 3536   9.072   1.245   6.731 -0.3078  0.0374 -0.0524
  259POPC   C4A 3537   8.995   1.361   7.130 -0.2865 -0.0716  0.1837
  259POPC   C1B 3538   9.360   1.437   5.922 -0.0544 -0.1915 -0.0787
  259POPC   C2B 3539   9.371   1.492   6.325 -0.0288  0.2426 -0.1989
  259POPC   C3B 3540   9.735   1.744   6.511  0.2000 -0.0458  0.3206
  259POPC   C4B 3541  10.134   1.813   6.317  0.0168 -0.0517 -0.4039
  260POPC   NC3 3542   0.727   9.274   4.746  0.1908 -0.0209 -0.2842
  260POPC   PO4 3543   0.216   9.211   4.884 -0.1844 -0.2010 -0.2373
  260POPC   GL1 3544   0.060   8.982   5.273  0.1235  0.0149 -0.0630
  260POPC   GL2 3545  -0.225   9.154   5.196 -0.0624  0.0832  0.0296
  260POPC   C1A 3546   0.029   8.685   5.588 -0.1426 -0.2785 -0.2029
  260POPC   D2A 3547   0.270   8.502   5.911 -0.0631  0.3610 -0.1974
  260POPC   C3A 3548   0.747   8.573   6.133  0.0267  0.0366  0.0045
  260POPC   C4A 3549   0.997   8.392   6.423 -0.1690  0.0281  0.0914
  260POPC   C1B 3550  -0.050   9.188   5.695 -0.2322 -0.0681 -0.0814
  260POPC   C2B 3551   0.315   9.024   5.855 -0.3580 -0.1522  0.0284
  260POPC   C3B 3552   0.593   9.058   6.238 -0.1801 -0.0271 -0.1719
  260POPC   C4B 3553   1.046   8.960   6.384  0.2931  0.2168  0.4216
  261POPC   NC3 3554   4.895   1.124   3.411  0.2161 -0.0413 -0.0097
  261POPC   PO4 3555   4.688   0.706   3.434  0.0024 -0.2436 -0.1543
  261POPC   GL1 3556   4.933   0.697   3.684  0.1256  0.0555  0.2716
  261POPC   GL2 3557   4.796   0.626   3.935 -0.2370  0.0453  0.1416
  261POPC   C1A 3558   5.216   0.952   3.937  0.3015 -0.0983  0.0213
  261POPC   D2A 3559   5.445   0.957   4.245  0.0756 -0.1294  0.1963
  261POPC   C3A 3560   5.656   1.331   4.334 -0.1650 -0.0066  0.1705
  261POPC   C4A 3561   5.775   1.733   4.182  0.1164 -0.3634  0.0471
  261POPC   C1B 3562   4.800   0.852   4.401  0.0850 -0.1666 -0.2494
  261POPC   C2B 3563   4.668   1.304   4.596 -0.2865 -0.1234  0.3316
  261POPC   C3B 3564   4.976   1.556   4.881 -0.1879  0.0125  0.0783
  261POPC   C4B 3565   5.091   1.763   5.185  0.0526 -0.1417  0.0427
  262POPC   NC3 3566   3.013   7.952   4.678 -0.2063 -0.0948  0.0549
  262POPC   PO4 3567   3.417   7.876   4.781 -0.2456 -0.0372 -0.1200
  262POPC   GL1 3568   3.365   7.843   5.159  0.0990  0.2133 -0.1285
  262POPC   GL2 3569   3.106   7.621   5.196  0.0189 -0.0881 -0.0299
  262POPC   C1A 3570   3.419   7.922   5.568  0.2381  0.1150 -0.0318
  262POPC   D2A 3571   3.376   7.785   5.947 -0.1791  0.0925 -0.0478
  262POPC   C3A 3572   3.335   7.503   6.211 -0.0547  0.1376 -0.0942
  262POPC   C4A 3573   3.019   7.413   6.486 -0.1444 -0.2518 -0.0308
  262POPC   C1B 3574   2.960   7.571   5.705  0.0251 -0.0407 -0.2903
  262POPC   C2B 3575   2.814   7.714   6.053  0.0029  0.1435  0.1208
  262POPC   C3B 3576   2.649   8.110   6.254  0.0204 -0.0559  0.0111
  262POPC   C4B 3577   2.241   8.252   6.544  0.2215 -0.1050  0.0028
  263POPC   NC3 3578   7.239   8.866   4.985  0.1205 -0.2170 -0.0803
  263POPC   PO4 3579   7.399   9.244   4.685 -0.0566 -0.0067 -0.2622
  263POPC   GL1 3580   7.169   9.397   5.092 -0.1881  0.0145  0.0579
  263POPC   GL2 3581   6.898   9.079   5.310 -0.1603  0.3273 -0.1214
  263POPC   C1A 3582   7.033   9.525   5.617  0.2250  0.1615  0.0779
  263POPC   D2A 3583   6.825   9.345   6.051  0.1074  0.0656 -0.1180
  263POPC   C3A 3584   6.951   9.287   6.495 -0.0651 -0.0470 -0.4167
  263POPC   C4A 3585   6.870   9.529   6.907 -0.2474  0.2827  0.1211
  263POPC   C1B 3586   6.693   8.993   5.711 -0.0407  0.0290 -0.0200
  263POPC   C2B 3587   6.456   8.629   5.965  0.0479 -0.0462  0.0921
  263POPC   C3B 3588   6.533   8.343   6.274  0.0871  0.2453 -0.1179
  263POPC   C4B 3589   6.765   8.365   6.582 -0.1189 -0.2623  0.2466
  264POPC   NC3 3590   1.235   5.762   4.865  0.2863 -0.2023 -0.1629
  264POPC   PO4 3591   1.604   6.168   4.823  0.0551  0.3182  0.0020
  264POPC   GL1 3592   1.681   6.080   5.220  0.0296  0.2684 -0.5331
  264POPC   GL2 3593   2.083   5.963   5.254 -0.0575 -0.0246 -0.0610
  264POPC   C1A 3594   1.778   6.171   5.660 -0.0553  0.3334  0.3332
  264POPC   D2A 3595   2.101   6.217   6.042  0.1379  0.0309 -0.0726
  264POPC   C3A 3596   2.452   5.960   6.276 -0.1930  0.0478  0.4880
  264POPC   C4A 3597   2.730   5.958   6.574  0.1052  0.1772 -0.3060
  264POPC   C1B 3598   2.025   5.662   5.642 -0.1967 -0.3574  0.0020
  264POPC   C2B 3599   2.032   5.681   6.105  0.1252 -0.0309  0.1663
  264POPC   C3B 3600   1.973   5.409   6.507 -0.0598  0.1594 -0.4212
  264POPC   C4B 3601   1.876   4.984   6.674 -0.3337 -0.1794  0.2315
  265POPC   NC3 3602   4.724   0.057   3.440 -0.1084 -0.1638 -0.1705
  265POPC   PO4 3603   4.915  -0.214   3.690  0.1505 -0.0058  0.2093
  265POPC   GL1 3604   4.917   0.093   4.099 -0.0761  0.1768  0.1725
  265POPC   GL2 3605   5.215   0.315   4.000  0.0148  0.0535  0.0440
  265POPC   C1A 3606   4.754   0.356   4.446  0.1824 -0.0002 -0.2710
  265POPC   D2A 3607   4.778   0.663   4.847 -0.1774 -0.0156 -0.1270
  265POPC   C3A 3608   4.533   0.575   5.196  0.1513 -0.0066  0.0935
  265POPC   C4A 3609   4.119   0.597   5.506 -0.2002  0.3202  0.1998
  265POPC   C1B 3610   5.252   0.503   4.404 -0.0987  0.2853 -0.2725
  265POPC   C2B 3611   5.171   0.888   4.685 -0.2004 -0.3245 -0.3983
  265POPC   C3B 3612   5.457   1.187   4.788 -0.0528  0.0517  0.1425
  265POPC   C4B 3613   5.833   1.021   5.000 -0.3827 -0.0315 -0.2185
  266POPC   NC3 3614   3.725   5.547   4.549  0.1337  0.2768 -0.0699
  266POPC   PO4 3615   3.295   5.441   4.509 -0.0553  0.0072 -0.2117
  266POPC   GL1 3616   3.518   5.082   4.712  0.0068 -0.0644  0.1621
  266POPC   GL2 3617   3.865   5.035   4.715 -0.0873  0.1448 -0.2369
  266POPC   C1A 3618   3.289   4.926   5.042 -0.0002  0.0700  0.2319
  266POPC   D2A 3619   3.076   4.688   5.316  0.0333  0.1479  0.0973
  266POPC   C3A 3620   3.304   4.355   5.571  0.1321 -0.5743 -0.0212
  266POPC   C4A 3621   3.059   3.989   5.805  0.0874  0.0020  0.3040
  266POPC   C1B 3622   3.998   4.733   4.677  0.0129 -0.1855 -0.2593
  266POPC   C2B 3623   3.953   4.289   4.681  0.2305  0.2699  0.2605
  266POPC   C3B 3624   4.025   4.077   5.022  0.0650 -0.4008 -0.0917
  266POPC   C4B 3625   4.194   4.266   5.398 -0.2639  0.0745  0.1667
  267POPC   NC3 3626   4.754   9.687   4.630 -0.0283 -0.2148 -0.1760
  267POPC   PO4 3627   4.577   9.454   4.890 -0.0058 -0.1133 -0.1156
  267POPC   GL1 3628   4.398   9.421   5.303 -0.1246  0.0499 -0.0015
  267POPC   GL2 3629   4.066   9.230   5.334 -0.0593  0.3956  0.2752
  267POPC   C1A 3630   4.498   9.654   5.725  0.1240  0.3343  0.0440
  267POPC   D2A 3631   4.408  10.083   5.859 -0.3562  0.0126 -0.2257
  267POPC   C3A 3632   4.544  10.324   5.664  0.0563  0.0689  0.0020
  267POPC   C4A 3633   4.954  10.497   5.518  0.3775  0.1112 -0.1772
  267POPC   C1B 3634   4.344   9.134   5.678  0.0724 -0.0352  0.0921
  267POPC   C2B 3635   4.402   9.279   6.021  0.0419 -0.0355  0.0446
  267POPC   C3B 3636   4.062   9.294   6.375 -0.1801  0.1892  0.1522
  267POPC   C4B 3637   3.654   9.309   6.587  0.0108  0.2357  0.0768
  268POPC   NC3 3638   5.257   1.269   2.485  0.3194 -0.0966  0.1012
  268POPC   PO4 3639   5.256   1.257   2.959  0.1600 -0.1845  0.1385
  268POPC   GL1 3640   5.340   1.385   3.364 -0.1382  0.1887  0.1027
  268POPC   GL2 3641   5.491   1.644   3.215  0.0445  0.1631 -0.0064
  268POPC   C1A 3642   5.279   1.434   3.845  0.0342 -0.1534  0.2732
  268POPC   D2A 3643   5.199   1.789   4.116 -0.0116 -0.0857 -0.0771
  268POPC   C3A 3644   4.871   1.778   4.438  0.3625  0.0166 -0.2047
  268POPC   C4A 3645   4.370   1.802   4.683 -0.4556  0.0617 -0.3839
  268POPC   C1B 3646   5.105   1.786   3.404 -0.0012 -0.0312  0.1446
  268POPC   C2B 3647   4.901   2.183   3.583 -0.1471 -0.1368 -0.1382
  268POPC   C3B 3648   4.604   2.434   3.723  0.1962  0.2425 -0.3335
  268POPC   C4B 3649   4.214   2.633   3.782 -0.3339 -0.1049  0.2737
  269POPC   NC3 3650   1.066   8.205   4.303  0.2034 -0.2442  0.0303
  269POPC   PO4 3651   1.339   8.287   4.632 -0.1422  0.3262  0.1202
  269POPC   GL1 3652   1.476   8.559   4.953  0.0416  0.0669  0.1598
  269POPC   GL2 3653   1.292   8.842   5.171  0.0737  0.0358 -0.0759
  269POPC   C1A 3654   1.765   8.539   5.349  0.0194 -0.3101  0.0039
  269POPC   D2A 3655   1.910   8.163   5.691 -0.1410 -0.0155  0.1342
  269POPC   C3A 3656   1.737   8.139   6.043 -0.1228  0.3256  0.0323
  269POPC   C4A 3657   1.516   8.414   6.227 -0.2134  0.0155  0.0367
  269POPC   C1B 3658   1.411   8.811   5.537 -0.0053 -0.2285 -0.4320
  269POPC   C2B 3659   1.221   8.712   5.941  0.1632 -0.1187 -0.0004
  269POPC   C3B 3660   1.190   8.107   6.070  0.0981 -0.0113 -0.1828
  269POPC   C4B 3661   1.181   7.632   6.291 -0.2904  0.3245 -0.0526
  270POPC   NC3 3662   0.064   0.416   5.154  0.2374 -0.3934  0.0157
  270POPC   PO4 3663  -0.352   0.666   5.004 -0.0481  0.0316 -0.0022
  270POPC   GL1 3664  -0.411   0.696   5.441 -0.0084 -0.0806 -0.1347
  270POPC   GL2 3665  -0.235   0.407   5.617  0.0694 -0.0781  0.1954
  270POPC   C1A 3666  -0.694   0.662   5.777 -0.0435  0.0747 -0.1668
  270POPC   D2A 3667  -0.800   0.604   6.150  0.0531  0.1873  0.0862
  270POPC   C3A 3668  -1.081   0.855   6.326 -0.2480 -0.0320 -0.0820
  270POPC   C4A 3669  -1.313   1.226   6.590  0.2694  0.0582 -0.0576
  270POPC   C1B 3670  -0.283   0.467   6.056  0.3861 -0.3462  0.1956
  270POPC   C2B 3671  -0.210   0.356   6.398 -0.0522 -0.0798  0.3131
  270POPC   C3B 3672  -0.305   0.093   6.837  0.0691  0.0109 -0.0580
  270POPC   C4B 3673  -0.219   0.183   7.229  0.1620 -0.0589  0.2960
  271POPC   NC3 3674   8.893   1.013   4.902  0.1530  0.2962  0.2227
  271POPC   PO4 3675   8.436   0.924   4.967 -0.2872  0.2026  0.3228
  271POPC   GL1 3676   8.440   0.952   5.395 -0.0201  0.0130 -0.0589
  271POPC   GL2 3677   8.719   0.959   5.447 -0.0894 -0.0187 -0.1077
  271POPC   C1A 3678   8.357   1.121   5.825  0.3462 -0.1545 -0.2988
  271POPC   D2A 3679   8.463   1.186   6.143 -0.0966 -0.0096  0.1795
  271POPC   C3A 3680   8.145   1.007   6.433  0.1044 -0.1716 -0.3553
  271POPC   C4A 3681   8.095   0.946   6.888  0.1129  0.4918  0.2719
  271POPC   C1B 3682   8.636   0.697   5.806  0.1867  0.1156  0.0606
  271POPC   C2B 3683   8.394   0.635   6.207 -0.1344 -0.2160 -0.0591
  271POPC   C3B 3684   8.454   0.696   6.620  0.1255  0.2793  0.0913
  271POPC   C4B 3685   8.203   0.451   6.962 -0.5035 -0.1253  0.2244
  272POPC   NC3 3686   4.175   5.744   4.518 -0.0103 -0.0630 -0.0351
  272POPC   PO4 3687   4.188   5.329   4.395 -0.0810  0.1129 -0.0035
  272POPC   GL1 3688   4.293   5.354   4.831  0.0391  0.0688 -0.0314
  272POPC   GL2 3689   4.028   5.452   4.948  0.0358  0.0142 -0.2623
  272POPC   C1A 3690   4.257   5.113   5.257  0.1737 -0.0841  0.0907
  272POPC   D2A 3691   4.323   4.812   5.468  0.1890  0.1717 -0.0543
  272POPC   C3A 3692   4.772   4.764   5.729 -0.0859  0.1061 -0.1412
  272POPC   C4A 3693   5.163   4.932   5.954  0.1506  0.0000  0.0230
  272POPC   C1B 3694   3.718   5.209   5.133  0.1603  0.0394  0.0532
  272POPC   C2B 3695   3.594   4.871   5.460 -0.0411 -0.0141  0.0610
  272POPC   C3B 3696   3.475   4.707   5.875 -0.0870 -0.1478  0.1089
  272POPC   C4B 3697   3.407   4.660   6.265  0.4158  0.0280 -0.0082
  273POPC   NC3 3698   6.854   0.159   4.637 -0.1461  0.0518 -0.0709
  273POPC   PO4 3699   6.713   0.549   4.364 -0.2047 -0.1510 -0.0323
  273POPC   GL1 3700   6.693   0.631   4.822 -0.1064 -0.0759  0.2065
  273POPC   GL2 3701   6.398   0.568   4.781  0.0671 -0.1807 -0.2756
  273POPC   C1A 3702   6.662   0.876   5.190 -0.0524 -0.1487 -0.0984
  273POPC   D2A 3703   6.508   1.145   5.465 -0.0987  0.0308  0.0329
  273POPC   C3A 3704   6.723   1.261   5.813  0.1516  0.1617 -0.0996
  273POPC   C4A 3705   6.522   1.634   6.117 -0.2775 -0.6448 -0.1212
  273POPC   C1B 3706   6.292   0.909   4.879 -0.0189  0.2130 -0.2340
  273POPC   C2B 3707   6.511   1.323   4.947 -0.0267 -0.1128  0.1104
  273POPC   C3B 3708   6.844   1.493   5.252  0.1244  0.1887  0.2579
  273POPC   C4B 3709   7.138   1.621   5.649  0.1778  0.2613  0.1975
  274POPC   NC3 3710   3.693   9.650   4.340  0.5118  0.1890  0.1155
  274POPC   PO4 3711   3.412   9.306   4.466 -0.2200 -0.2074 -0.1341
  274POPC   GL1 3712   3.411   9.590   4.823  0.2527  0.2146  0.3557
  274POPC   GL2 3713   3.720   9.501   4.870 -0.0300  0.1660  0.0406
  274POPC   C1A 3714   3.116   9.652   5.227 -0.2285 -0.3149 -0.1077
  274POPC   D2A 3715   2.842   9.865   5.583 -0.1831 -0.4182 -0.2237
  274POPC   C3A 3716   3.035   9.992   5.953 -0.0279  0.0206 -0.2168
  274POPC   C4A 3717   2.940  10.164   6.385 -0.1301  0.3411  0.0970
  274POPC   C1B 3718   3.662   9.502   5.356  0.1101  0.4232 -0.2205
  274POPC   C2B 3719   3.805   9.365   5.739  0.0015 -0.0636 -0.2315
  274POPC   C3B 3720   3.669   9.524   6.128 -0.0247 -0.1266 -0.0527
  274POPC   C4B 3721   3.748   9.823   6.522 -0.2145  0.2001 -0.1781
  275POPC   NC3 3722   1.068   5.052   4.887  0.0217 -0.1365  0.2288
  275POPC   PO4 3723   0.829   5.474   5.067  0.3254  0.0153 -0.0762
  275POPC   GL1 3724   0.735   5.885   5.253  0.0349 -0.0977  0.1321
  275POPC   GL2 3725   0.783   6.302   5.171  0.0175  0.0595 -0.1618
  275POPC   C1A 3726   0.682   5.968   5.702 -0.4608  0.3459  0.2625
  275POPC   D2A 3727   0.254   5.952   5.938  0.0711  0.4909 -0.0040
  275POPC   C3A 3728   0.245   6.124   6.400  0.0076  0.2229  0.0501
  275POPC   C4A 3729   0.116   6.044   6.853  0.0373 -0.1247  0.0311
  275POPC   C1B 3730   0.736   6.439   5.607 -0.0883  0.3298 -0.1680
  275POPC   C2B 3731   0.655   6.438   5.957 -0.0750 -0.0957 -0.1515
  275POPC   C3B 3732   0.279   6.635   6.247 -0.0751 -0.0211  0.0180
  275POPC   C4B 3733   0.004   6.491   6.672 -0.1241 -0.2251 -0.3564
  276POPC   NC3 3734   4.499   4.380   3.548  0.0433  0.0044  0.3332
  276POPC   PO4 3735   4.305   4.591   3.752 -0.2075 -0.0823  0.0489
  276POPC   GL1 3736   4.468   4.719   4.131  0.1245  0.0907 -0.1816
  276POPC   GL2 3737   4.262   4.776   4.212 -0.1323 -0.2892  0.1596
  276POPC   C1A 3738   4.452   4.305   4.408 -0.1990 -0.4659  0.0600
  276POPC   D2A 3739   4.774   4.021   4.444 -0.2484  0.0216  0.0181
  276POPC   C3A 3740   4.906   3.722   4.698  0.0914  0.0718 -0.1210
  276POPC   C4A 3741   4.860   3.504   5.131 -0.0078 -0.2354 -0.1433
  276POPC   C1B 3742   4.563   4.841   4.621  0.1748 -0.3698  0.1040
  276POPC   C2B 3743   4.626   4.887   5.034  0.0448  0.0348  0.3003
  276POPC   C3B 3744   4.849   4.993   5.267 -0.2227  0.0317 -0.0753
  276POPC   C4B 3745   5.245   5.186   5.461 -0.2655 -0.2390 -0.1970
  277POPC   NC3 3746   1.045   0.694   4.372 -0.1736  0.2544 -0.1445
  277POPC   PO4 3747   1.214   0.976   4.721  0.1788  0.0181 -0.0111
  277POPC   GL1 3748   1.086   0.806   5.178  0.2221 -0.0827 -0.3785
  277POPC   GL2 3749   0.895   0.459   5.285 -0.4258  0.0564  0.0687
  277POPC   C1A 3750   1.099   1.019   5.612  0.0474  0.1490 -0.1485
  277POPC   D2A 3751   1.369   1.291   5.879 -0.0004  0.0252  0.2254
  277POPC   C3A 3752   1.513   1.132   6.310 -0.0565 -0.0172  0.0986
  277POPC   C4A 3753   1.870   1.154   6.624 -0.1443  0.1079  0.2477
  277POPC   C1B 3754   0.821   0.509   5.675  0.1724 -0.0221  0.0040
  277POPC   C2B 3755   0.757   0.642   6.136  0.2253  0.0483  0.2720
  277POPC   C3B 3756   0.582   0.797   6.520 -0.0693 -0.0022 -0.0934
  277POPC   C4B 3757   0.550   1.145   6.850  0.0041  0.0654  0.2388
  278POPC   NC3 3758   6.361   5.222   3.667 -0.0634  0.0890 -0.1620
  278POPC   PO4 3759   6.583   5.096   4.016 -0.0027 -0.2318  0.0218
  278POPC   GL1 3760   6.571   4.836   4.366 -0.0172 -0.3438  0.2546
  278POPC   GL2 3761   6.304   5.029   4.523 -0.1343 -0.1209  0.3687
  278POPC   C1A 3762   6.534   4.626   4.762  0.4186 -0.2649 -0.3366
  278POPC   D2A 3763   6.683   4.625   5.206 -0.1737 -0.1748 -0.0258
  278POPC   C3A 3764   6.947   5.028   5.296 -0.1788  0.1877  0.0962
  278POPC   C4A 3765   7.190   4.950   5.523 -0.1417 -0.2600 -0.0043
  278POPC   C1B 3766   6.163   4.861   4.942  0.4570  0.0440  0.1348
  278POPC   C2B 3767   6.061   4.696   5.361  0.1125 -0.0391 -0.2264
  278POPC   C3B 3768   6.362   4.477   5.626 -0.1339  0.0687 -0.0134
  278POPC   C4B 3769   6.328   4.089   5.830 -0.0885 -0.0183 -0.2507
  279POPC   NC3 3770   4.668   5.224   4.037 -0.1428 -0.0247  0.1849
  279POPC   PO4 3771   4.782   5.556   4.346  0.0889  0.2204 -0.1211
  279POPC   GL1 3772   4.779   5.417   4.778  0.1897  0.5967  0.0026
  279POPC   GL2 3773   4.645   5.702   4.894  0.0046 -0.0739 -0.1376
  279POPC   C1A 3774   5.083   5.433   5.114  0.0595 -0.2084  0.0365
  279POPC   D2A 3775   4.792   5.442   5.442  0.0263 -0.0771  0.0269
  279POPC   C3A 3776   4.540   5.211   5.714  0.1723 -0.4434 -0.0790
  279POPC   C4A 3777   4.326   4.978   5.967  0.1189 -0.2773 -0.3890
  279POPC   C1B 3778   4.353   5.694   5.263 -0.4171 -0.1068 -0.1446
  279POPC   C2B 3779   4.165   5.500   5.591  0.3814 -0.0906  0.0964
  279POPC   C3B 3780   3.854   5.238   5.765 -0.1524  0.2310 -0.1361
  279POPC   C4B 3781   3.853   4.905   6.202  0.0316  0.4212 -0.3516
  280POPC   NC3 3782   2.224   4.697   3.915  0.3782 -0.0181  0.0974
  280POPC   PO4 3783   2.554   4.931   4.047 -0.3492 -0.1637  0.0176
  280POPC   GL1 3784   2.579   4.887   4.478 -0.2131  0.1899  0.0817
  280POPC   GL2 3785   2.970   4.900   4.570 -0.0416  0.2922 -0.2076
  280POPC   C1A 3786   2.372   4.761   4.840  0.0530  0.2392  0.2360
  280POPC   D2A 3787   2.564   4.458   5.156  0.0111  0.1613 -0.0996
  280POPC   C3A 3788   2.669   4.415   5.586 -0.0848  0.2544 -0.0301
  280POPC   C4A 3789   2.735   4.267   6.073 -0.4488  0.2296 -0.0658
  280POPC   C1B 3790   2.802   4.914   4.956 -0.2216 -0.0690 -0.1656
  280POPC   C2B 3791   2.590   4.930   5.361  0.1380 -0.0080  0.0559
  280POPC   C3B 3792   2.697   4.857   5.764  0.0479 -0.1068  0.1642
  280POPC   C4B 3793   3.017   4.668   5.964 -0.1394 -0.2152 -0.2643
  281POPC   NC3 3794   7.202   7.770   4.366 -0.2378 -0.1847 -0.2532
  281POPC   PO4 3795   7.591   7.561   4.598 -0.1744  0.0852 -0.0906
  281POPC   GL1 3796   7.589   7.410   4.943  0.1187  0.0850 -0.0330
  281POPC   GL2 3797   7.403   7.589   5.282  0.1154 -0.0702  0.0726
  281POPC   C1A 3798   7.606   7.016   5.075 -0.0151 -0.0579  0.2024
  281POPC   D2A 3799   7.537   6.555   5.237 -0.0058 -0.0743  0.0755
  281POPC   C3A 3800   7.720   6.159   5.325 -0.1861 -0.1177 -0.2157
  281POPC   C4A 3801   7.523   5.712   5.215  0.3148 -0.5160 -0.0381
  281POPC   C1B 3802   7.714   7.363   5.434 -0.0622  0.0231 -0.0262
  281POPC   C2B 3803   7.629   6.931   5.673  0.0877  0.0624 -0.0786
  281POPC   C3B 3804   7.703   6.982   6.054  0.3334 -0.0706  0.2841
  281POPC   C4B 3805   7.595   6.799   6.504  0.1168 -0.0942  0.0592
  282POPC   NC3 3806   6.209   5.370   4.176  0.1405  0.1226  0.5504
  282POPC   PO4 3807   5.910   5.164   3.792  0.2185  0.1472 -0.1074
  282POPC   GL1 3808   5.838   4.942   4.124 -0.0958  0.2710 -0.0555
  282POPC   GL2 3809   5.508   4.801   4.153 -0.2702 -0.2201  0.1245
  282POPC   C1A 3810   5.993   4.600   4.416 -0.0018 -0.1042  0.0676
  282POPC   D2A 3811   6.097   4.242   4.625  0.1279  0.2575 -0.0353
  282POPC   C3A 3812   6.217   4.349   5.044 -0.1943  0.1614 -0.0072
  282POPC   C4A 3813   6.030   4.139   5.432 -0.0583  0.2471  0.0587
  282POPC   C1B 3814   5.455   4.442   4.388 -0.1695  0.4165  0.1267
  282POPC   C2B 3815   5.253   4.153   4.703 -0.0057  0.0928 -0.0801
  282POPC   C3B 3816   5.094   4.007   5.129  0.0004  0.0014 -0.1456
  282POPC   C4B 3817   4.760   3.906   5.501  0.0438 -0.1639 -0.1586
  283POPC   NC3 3818   8.680   0.402   4.800  0.0453 -0.3391 -0.0094
  283POPC   PO4 3819   8.574  -0.035   4.901  0.5468  0.0807  0.0199
  283POPC   GL1 3820   8.450  -0.076   5.349 -0.0500 -0.0399 -0.3630
  283POPC   GL2 3821   8.252  -0.308   5.561 -0.2104 -0.1197  0.0629
  283POPC   C1A 3822   8.204   0.177   5.736 -0.0755  0.1514  0.2273
  283POPC   D2A 3823   8.129   0.199   6.131  0.1147  0.0335  0.2655
  283POPC   C3A 3824   8.459   0.141   6.445  0.0688  0.0215  0.1516
  283POPC   C4A 3825   8.595   0.033   6.807  0.1962 -0.0921  0.0777
  283POPC   C1B 3826   7.914  -0.280   5.842 -0.0639  0.0636  0.0294
  283POPC   C2B 3827   7.639  -0.071   6.085 -0.0282  0.2146 -0.1521
  283POPC   C3B 3828   7.741   0.072   6.523  0.1498  0.1045  0.3335
  283POPC   C4B 3829   7.811   0.229   6.973 -0.1937 -0.3560 -0.2458
  284POPC   NC3 3830   2.010   9.059   4.513  0.1668 -0.2477 -0.1642
  284POPC   PO4 3831   2.175   9.062   4.823 -0.2034 -0.1818 -0.0738
  284POPC   GL1 3832   2.446   9.291   5.042  0.1672  0.1679  0.2231
  284POPC   GL2 3833   2.752   9.145   5.111  0.0212 -0.3251 -0.2018
  284POPC   C1A 3834   2.503   9.601   5.344 -0.0068  0.0187 -0.0776
  284POPC   D2A 3835   2.154   9.738   5.668 -0.1220 -0.2544  0.1714
  284POPC   C3A 3836   1.791   9.519   5.714 -0.0273  0.1250 -0.3912
  284POPC   C4A 3837   1.436   9.598   5.984 -0.1540  0.1173  0.0682
  284POPC   C1B 3838   2.872   9.309   5.478  0.0428  0.1828 -0.0284
  284POPC   C2B 3839   2.846   9.475   5.903  0.1810 -0.0433  0.0286
  284POPC   C3B 3840   3.118   9.503   6.210  0.0223  0.2511  0.0790
  284POPC   C4B 3841   3.215   9.731   6.523 -0.3446  0.1367  0.0747
  285POPC   NC3 3842   5.198   4.999   3.278 -0.0385 -0.0375 -0.1667
  285POPC   PO4 3843   5.004   4.614   3.455 -0.2675 -0.2038  0.1051
  285POPC   GL1 3844   5.072   4.496   3.825  0.0432  0.1641 -0.1658
  285POPC   GL2 3845   5.274   4.269   3.802  0.0737  0.1492 -0.1654
  285POPC   C1A 3846   4.938   4.529   4.393  0.2492  0.2750  0.2783
  285POPC   D2A 3847   4.825   4.423   4.800  0.1812  0.1839  0.1063
  285POPC   C3A 3848   4.392   4.467   4.922 -0.1234  0.4461  0.2088
  285POPC   C4A 3849   3.982   4.683   5.128 -0.2817  0.4662 -0.1994
  285POPC   C1B 3850   5.248   3.962   4.104  0.1433  0.2574  0.2459
  285POPC   C2B 3851   5.423   3.570   4.363  0.0568  0.2196 -0.0760
  285POPC   C3B 3852   5.269   3.330   4.711 -0.1534 -0.0708 -0.0781
  285POPC   C4B 3853   5.295   3.269   5.094  0.1167 -0.0800  0.1582
  286POPC   NC3 3854   9.405   6.070   4.490  0.0851 -0.1026 -0.0682
  286POPC   PO4 3855   9.552   5.624   4.574  0.2706 -0.2235  0.3408
  286POPC   GL1 3856   9.373   5.662   4.932 -0.0958  0.3703  0.1169
  286POPC   GL2 3857   9.541   5.606   5.212  0.0953  0.0580  0.1114
  286POPC   C1A 3858   9.189   5.317   5.082 -0.1909 -0.0133  0.0673
  286POPC   D2A 3859   9.052   5.061   5.262 -0.0873  0.0978 -0.0290
  286POPC   C3A 3860   8.580   4.971   5.393 -0.1856 -0.3277 -0.0596
  286POPC   C4A 3861   8.262   4.712   5.550 -0.0425 -0.0001 -0.0149
  286POPC   C1B 3862   9.336   5.391   5.554  0.0867  0.0913 -0.2378
  286POPC   C2B 3863   9.192   5.009   5.754  0.3584  0.2755 -0.2647
  286POPC   C3B 3864   8.716   4.931   5.940  0.1877  0.0940 -0.0785
  286POPC   C4B 3865   8.351   5.146   5.814  0.2224  0.0136 -0.2767
  287POPC   NC3 3866   0.864   9.810   4.687 -0.2067 -0.0370  0.0325
  287POPC   PO4 3867   1.144   9.968   4.969 -0.1679  0.0684 -0.0926
  287POPC   GL1 3868   1.428  10.106   5.306  0.1786  0.1480 -0.1174
  287POPC   GL2 3869   1.610   9.814   5.351 -0.0332 -0.3658 -0.1678
  287POPC   C1A 3870   1.329  10.483   5.532  0.1282 -0.2178  0.0170
  287POPC   D2A 3871   1.196  10.473   5.949 -0.1734 -0.0896  0.1665
  287POPC   C3A 3872   1.049  10.922   6.167  0.0517  0.2143  0.2252
  287POPC   C4A 3873   1.066  11.017   6.515 -0.0992 -0.3411  0.3353
  287POPC   C1B 3874   1.746   9.966   5.845  0.1659 -0.1760 -0.3015
  287POPC   C2B 3875   1.979   9.867   6.165  0.1242 -0.2082 -0.0444
  287POPC   C3B 3876   2.181   9.778   6.516 -0.1209  0.0068  0.4094
  287POPC   C4B 3877   2.343   9.484   6.745  0.5303 -0.0111  0.2263
  288POPC   NC3 3878   9.862   1.036   5.289  0.2072 -0.0269 -0.3188
  288POPC   PO4 3879  10.213   1.267   5.114  0.0733  0.0737  0.1877
  288POPC   GL1 3880   9.982   1.402   5.589  0.0260  0.3136 -0.2628
  288POPC   GL2 3881  10.068   1.179   5.724  0.0688  0.0135  0.3614
  288POPC   C1A 3882  10.311   1.582   5.876  0.0016 -0.0605 -0.2257
  288POPC   D2A 3883  10.505   1.948   5.832 -0.1114  0.1639  0.0114
  288POPC   C3A 3884  10.818   2.120   5.985 -0.1458 -0.2510 -0.0567
  288POPC   C4A 3885  11.023   2.201   6.424  0.0943  0.1037 -0.3299
  288POPC   C1B 3886   9.700   0.980   5.839 -0.1311 -0.0955 -0.2237
  288POPC   C2B 3887   9.367   0.955   6.124 -0.0556  0.0102 -0.0879
  288POPC   C3B 3888   9.313   0.875   6.517  0.3837  0.0220  0.2082
  288POPC   C4B 3889   9.368   0.549   6.733 -0.0479  0.2020  0.0459
  289POPC   NC3 3890   2.228   2.618   4.221  0.1203  0.2029  0.0171
  289POPC   PO4 3891   2.533   2.408   3.972 -0.4137 -0.0048  0.0094
  289POPC   GL1 3892   2.690   2.484   4.330 -0.1315 -0.0015  0.0145
  289POPC   GL2 3893   2.486   2.370   4.615 -0.0491  0.1483 -0.2715
  289POPC   C1A 3894   3.023   2.808   4.535 -0.0732 -0.0754  0.2127
  289POPC   D2A 3895   3.368   3.103   4.661  0.2778  0.2883  0.0260
  289POPC   C3A 3896   3.450   3.113   5.030 -0.2249 -0.0925 -0.1943
  289POPC   C4A 3897   3.154   2.884   5.289  0.2769  0.1436 -0.0899
  289POPC   C1B 3898   2.554   2.374   5.038  0.1076  0.0780 -0.1146
  289POPC   C2B 3899   2.677   2.146   5.262  0.2652 -0.0567  0.2129
  289POPC   C3B 3900   2.671   1.688   5.459 -0.3855 -0.2112 -0.0689
  289POPC   C4B 3901   2.961   1.318   5.502  0.0870 -0.1674 -0.2539
  290POPC   NC3 3902   1.496   2.994   4.469  0.1604  0.2966 -0.2030
  290POPC   PO4 3903   1.942   2.983   4.473  0.1064 -0.0762  0.2989
  290POPC   GL1 3904   1.800   3.106   4.848 -0.1928  0.1197  0.1385
  290POPC   GL2 3905   1.643   2.880   4.981  0.1442  0.0291  0.3497
  290POPC   C1A 3906   2.008   3.160   5.237 -0.4136  0.1503 -0.1333
  290POPC   D2A 3907   2.110   2.832   5.549 -0.4187 -0.0265  0.1213
  290POPC   C3A 3908   2.575   2.690   5.836  0.0868 -0.1281 -0.1037
  290POPC   C4A 3909   2.922   2.345   6.089 -0.0614 -0.2816 -0.0574
  290POPC   C1B 3910   1.700   2.575   5.328  0.2529  0.0004 -0.0185
  290POPC   C2B 3911   1.623   2.605   5.722  0.2549 -0.0067  0.0854
  290POPC   C3B 3912   1.526   2.278   6.066  0.1488  0.4467 -0.0156
  290POPC   C4B 3913   1.575   2.052   6.464 -0.0444 -0.1782 -0.1047
  291POPC   NC3 3914   8.373   2.969   4.609  0.1070 -0.2010  0.1909
  291POPC   PO4 3915   8.562   3.312   4.856 -0.0285 -0.1418 -0.3983
  291POPC   GL1 3916   8.190   3.177   5.018  0.0320  0.2154 -0.1661
  291POPC   GL2 3917   8.228   2.689   5.084 -0.2042  0.3118 -0.0555
  291POPC   C1A 3918   7.828   3.339   5.208  0.1800 -0.2249 -0.2005
  291POPC   D2A 3919   7.572   3.234   5.514  0.1064 -0.1109  0.0711
  291POPC   C3A 3920   7.416   3.634   5.685 -0.0126 -0.1019  0.1311
  291POPC   C4A 3921   7.332   4.126   5.736  0.3322  0.1099 -0.0817
  291POPC   C1B 3922   8.283   2.444   5.446 -0.0257 -0.1673 -0.0575
  291POPC   C2B 3923   8.249   2.520   5.835  0.1129 -0.0703 -0.1594
  291POPC   C3B 3924   7.928   2.538   6.083 -0.0883 -0.3471 -0.0288
  291POPC   C4B 3925   7.561   2.317   6.090 -0.2582  0.0628  0.3055
  292POPC   NC3 3926   7.800   9.871   4.373  0.1543 -0.0326 -0.2939
  292POPC   PO4 3927   7.917  10.190   4.164  0.0679  0.0336 -0.0957
  292POPC   GL1 3928   7.826  10.274   4.686 -0.1840  0.1766  0.1698
  292POPC   GL2 3929   8.090  10.028   4.840 -0.3532  0.2155  0.2480
  292POPC   C1A 3930   7.570  10.366   5.028 -0.1445 -0.0026 -0.1171
  292POPC   D2A 3931   7.328  10.348   5.354 -0.1607 -0.3784  0.3880
  292POPC   C3A 3932   6.985  10.464   5.644  0.0251 -0.1383  0.0285
  292POPC   C4A 3933   6.638  10.630   5.751  0.1961 -0.0611 -0.0807
  292POPC   C1B 3934   7.988  10.301   5.243  0.0122 -0.0861  0.0945
  292POPC   C2B 3935   8.064  10.539   5.573  0.2678 -0.1195 -0.2263
  292POPC   C3B 3936   7.861  10.813   5.960  0.1430 -0.1148  0.0779
  292POPC   C4B 3937   7.657  10.955   6.344  0.1291 -0.0932 -0.1659
  293POPC   NC3 3938   0.483   2.623   4.774  0.1894 -0.2430  0.1237
  293POPC   PO4 3939   0.425   2.217   4.988  0.0170 -0.1761 -0.0164
  293POPC   GL1 3940   0.391   2.445   5.283  0.0164 -0.0687 -0.2199
  293POPC   GL2 3941   0.245   2.260   5.514 -0.3079 -0.1306 -0.0317
  293POPC   C1A 3942   0.558   2.755   5.511 -0.1659 -0.3086 -0.0708
  293POPC   D2A 3943   0.482   2.985   5.808 -0.0209  0.3210 -0.1816
  293POPC   C3A 3944   0.506   2.879   6.159 -0.0846 -0.0046  0.2924
  293POPC   C4A 3945   0.446   2.969   6.580  0.2593 -0.1000 -0.1246
  293POPC   C1B 3946  -0.069   2.241   5.846  0.0109  0.0986  0.0556
  293POPC   C2B 3947  -0.192   2.161   6.204  0.6154 -0.1420  0.1967
  293POPC   C3B 3948  -0.251   2.515   6.598  0.0572  0.1896  0.1592
  293POPC   C4B 3949  -0.601   3.008   6.594 -0.1029 -0.1438 -0.1808
  294POPC   NC3 3950   8.228   4.385   4.631 -0.2832  0.0582 -0.2878
  294POPC   PO4 3951   7.998   4.013   4.526 -0.3289 -0.0271  0.0834
  294POPC   GL1 3952   8.057   4.008   4.984  0.4659 -0.2239  0.1296
  294POPC   GL2 3953   8.130   3.703   4.994 -0.0903 -0.0351  0.0063
  294POPC   C1A 3954   8.084   4.210   5.338  0.0858  0.1039 -0.0311
  294POPC   D2A 3955   8.037   4.328   5.804  0.1873  0.0042  0.1015
  294POPC   C3A 3956   7.679   4.310   6.013  0.1488  0.3010 -0.2411
  294POPC   C4A 3957   7.381   4.028   6.275 -0.0512  0.0881  0.0457
  294POPC   C1B 3958   8.469   3.841   5.442  0.0558 -0.2927  0.0566
  294POPC   C2B 3959   8.486   4.227   5.677  0.0036 -0.1795 -0.4936
  294POPC   C3B 3960   8.394   4.556   5.994  0.0368 -0.1203 -0.1606
  294POPC   C4B 3961   8.356   4.939   6.295  0.0008 -0.1727  0.2651
  295POPC   NC3 3962   3.178   3.670   3.271  0.2019 -0.1437  0.0416
  295POPC   PO4 3963   3.513   3.894   3.545 -0.1460  0.0169  0.0191
  295POPC   GL1 3964   3.471   3.773   3.960  0.1066  0.3337 -0.1333
  295POPC   GL2 3965   3.619   4.081   4.299 -0.1440 -0.0816 -0.1899
  295POPC   C1A 3966   3.233   3.812   4.384 -0.0186 -0.0961  0.0224
  295POPC   D2A 3967   2.969   3.896   4.753 -0.0748 -0.1276  0.4273
  295POPC   C3A 3968   2.650   3.633   5.018 -0.2136  0.0021 -0.2153
  295POPC   C4A 3969   2.430   3.280   5.087  0.0998  0.0254  0.1610
  295POPC   C1B 3970   3.507   4.081   4.683  0.0734 -0.0286 -0.0742
  295POPC   C2B 3971   3.237   4.176   5.084  0.0358 -0.2978  0.0510
  295POPC   C3B 3972   2.952   4.069   5.253 -0.1886 -0.2291  0.1229
  295POPC   C4B 3973   2.694   3.752   5.482 -0.0219 -0.3684  0.3563
  296POPC   NC3 3974   8.932   3.794   4.868  0.1594 -0.1842  0.2478
  296POPC   PO4 3975   9.082   3.404   4.974  0.0921  0.3673 -0.0029
  296POPC   GL1 3976   8.885   3.488   5.324  0.1186 -0.1302  0.0701
  296POPC   GL2 3977   8.995   3.720   5.504 -0.0405  0.2525 -0.0060
  296POPC   C1A 3978   8.505   3.379   5.622 -0.2051  0.0374  0.0960
  296POPC   D2A 3979   8.405   3.566   5.897  0.1437 -0.0282  0.0681
  296POPC   C3A 3980   8.109   3.461   6.227  0.1852  0.1474 -0.0646
  296POPC   C4A 3981   7.824   3.711   6.374  0.0812  0.0168 -0.0054
  296POPC   C1B 3982   8.895   3.945   5.831  0.0190 -0.1364  0.2295
  296POPC   C2B 3983   8.785   4.155   6.208 -0.1744  0.0710  0.3730
  296POPC   C3B 3984   9.005   4.187   6.542  0.1910  0.0423  0.3201
  296POPC   C4B 3985   8.929   4.494   6.899 -0.2291 -0.1428  0.1392
  297POPC   NC3 3986   4.238   9.078   4.862  0.0498 -0.0735  0.0108
  297POPC   PO4 3987   3.791   8.939   4.879  0.2021 -0.1694 -0.0662
  297POPC   GL1 3988   3.604   8.753   5.227 -0.1985 -0.0587  0.0413
  297POPC   GL2 3989   3.580   8.376   5.330  0.0210  0.2718 -0.0071
  297POPC   C1A 3990   3.515   8.897   5.668 -0.0941  0.2974 -0.0019
  297POPC   D2A 3991   3.500   9.056   6.105 -0.2361 -0.2746  0.1913
  297POPC   C3A 3992   3.242   9.038   6.336 -0.1486 -0.0404  0.0866
  297POPC   C4A 3993   2.973   9.206   6.772  0.1404  0.2576 -0.1444
  297POPC   C1B 3994   3.622   8.408   5.787  0.2016 -0.2336  0.1607
  297POPC   C2B 3995   3.396   8.608   6.060 -0.1774 -0.0399 -0.3858
  297POPC   C3B 3996   3.155   8.504   6.407 -0.1217  0.0925  0.1486
  297POPC   C4B 3997   3.094   8.709   6.732 -0.1198  0.2481  0.2195
  298POPC   NC3 3998   8.787   4.995   4.659 -0.1539  0.0974  0.2302
  298POPC   PO4 3999   8.689   4.520   4.656  0.3939  0.0257  0.1300
  298POPC   GL1 4000   8.928   4.611   4.963 -0.2187 -0.0282  0.3293
  298POPC   GL2 4001   8.772   4.478   5.287 -0.1336  0.0833  0.5214
  298POPC   C1A 4002   9.305   4.472   5.226 -0.0299  0.0131 -0.1991
  298POPC   D2A 4003   9.672   4.379   5.578 -0.0197 -0.0787 -0.3234
  298POPC   C3A 4004   9.453   3.993   5.751  0.0608  0.2499 -0.1203
  298POPC   C4A 4005   9.288   3.917   6.143  0.4091 -0.2781 -0.3023
  298POPC   C1B 4006   8.810   4.606   5.618 -0.0864  0.1944 -0.3196
  298POPC   C2B 4007   9.001   4.561   6.044  0.0568 -0.1901 -0.0589
  298POPC   C3B 4008   8.786   4.680   6.447 -0.0132  0.2348  0.0835
  298POPC   C4B 4009   8.498   4.827   6.791  0.0855 -0.2293  0.4207
  299POPC   NC3 4010   4.016   7.656   4.941 -0.0765  0.2470  0.0363
  299POPC   PO4 4011   4.311   7.673   5.222 -0.0269 -0.0344  0.0334
  299POPC   GL1 4012   4.411   7.582   5.567  0.1941  0.1070  0.1321
  299POPC   GL2 4013   4.705   7.530   5.480 -0.0191  0.0682 -0.0374
  299POPC   C1A 4014   4.296   7.258   5.880  0.0045  0.0460 -0.0573
  299POPC   D2A 4015   4.393   6.881   6.037  0.2307  0.1072  0.1211
  299POPC   C3A 4016   4.202   6.671   6.444 -0.0508  0.3659 -0.1522
  299POPC   C4A 4017   4.168   6.319   6.821  0.2567 -0.4170  0.2681
  299POPC   C1B 4018   5.078   7.312   5.590 -0.1180 -0.1087 -0.0295
  299POPC   C2B 4019   5.299   6.919   5.589  0.0802  0.0464  0.1081
  299POPC   C3B 4020   5.520   6.610   5.855  0.1067  0.2248  0.0722
  299POPC   C4B 4021   5.857   6.602   6.149 -0.1838 -0.2602  0.0066
  300POPC   NC3 4022   7.719   3.437   3.735 -0.0806 -0.1015  0.0725
  300POPC   PO4 4023   7.222   3.176   3.718 -0.3320  0.1581 -0.0855
  300POPC   GL1 4024   6.898   3.120   4.114  0.0807  0.1858  0.1973
  300POPC   GL2 4025   6.581   3.356   4.189 -0.4423  0.0963 -0.1101
  300POPC   C1A 4026   6.838   3.268   4.620  0.0573 -0.2104 -0.2747
  300POPC   D2A 4027   6.948   3.182   5.008  0.3226  0.1577 -0.3083
  300POPC   C3A 4028   6.822   2.966   5.381 -0.0095  0.3352 -0.1017
  300POPC   C4A 4029   6.780   2.817   5.900 -0.3138 -0.0260 -0.2825
  300POPC   C1B 4030   6.369   3.418   4.561  0.2616  0.0507 -0.2830
  300POPC   C2B 4031   6.415   3.355   5.000 -0.0273 -0.0416  0.2768
  300POPC   C3B 4032   6.101   3.409   5.359 -0.2885 -0.1330  0.1390
  300POPC   C4B 4033   6.095   3.530   5.813  0.0372  0.0307  0.0091
  301POPC   NC3 4034   2.570   1.804   4.500 -0.0134  0.4165 -0.3690
  301POPC   PO4 4035   2.296   1.430   4.245  0.0582  0.1505  0.2018
  301POPC   GL1 4036   2.108   1.395   4.723  0.1662 -0.4067 -0.0985
  301POPC   GL2 4037   1.812   1.616   4.843  0.1322 -0.1934 -0.0077
  301POPC   C1A 4038   2.022   1.228   5.177 -0.0200 -0.0162 -0.1055
  301POPC   D2A 4039   2.297   1.423   5.508  0.2798 -0.0648  0.1554
  301POPC   C3A 4040   2.525   1.136   5.527  0.1649  0.0091  0.2112
  301POPC   C4A 4041   2.724   0.878   5.635 -0.0377 -0.3593 -0.2957
  301POPC   C1B 4042   1.914   1.717   5.188  0.2860  0.0405 -0.2928
  301POPC   C2B 4043   2.231   1.882   5.463  0.1152 -0.0913 -0.0822
  301POPC   C3B 4044   2.432   2.148   5.797  0.0990  0.0559 -0.0526
  301POPC   C4B 4045   2.457   2.421   6.233  0.1089  0.3423  0.1414
  302W        W 4046   7.295   4.706   8.818 -0.0431  0.0629 -0.1517
  303W        W 4047   1.410   4.995   8.860  0.1246 -0.1460 -0.0740
  304W        W 4048   0.683   4.035   9.352  0.0677  0.5884 -0.0819
  305W        W 4049   1.222   4.410   9.945  0.1114 -0.6710 -0.1082
  306W        W 4050   9.130   9.244  11.169  0.2727  0.1191  0.1576
  307W        W 4051   7.925   9.010   1.976 -0.0923  0.0133 -0.0644
  308W        W 4052   8.869   1.429   4.603  0.3422  0.0377 -0.1291
  309W        W 4053   2.524   5.512  10.479  0.1217  0.1556  0.3397
  310W        W 4054   0.938   3.662   0.071  0.1194  0.1920  0.1892
  311W        W 4055   6.707   9.509   0.519 -0.1697  0.0785  0.2723
  312W        W 4056   3.313   2.297  10.347  0.0604 -0.2404  0.1557
  313W        W 4057   7.323   0.938   2.209 -0.1987 -0.1108 -0.1119
  314W        W 4058   3.405   1.893  10.889  0.0812  0.0712 -0.0697
  315W        W 4059   3.942   6.975   8.476 -0.0467  0.1753 -0.1643
  316W        W 4060   1.054   7.096  10.064  0.1909 -0.1091  0.1642
  317W        W 4061   9.418   1.675   3.468  0.0119 -0.5531  0.3495
  318W        W 4062   2.319   8.058   0.921  0.0599 -0.3285 -0.0881
  319W        W 4063   7.718   7.580  12.050  0.3029  0.3119  0.2218
  320W        W 4064   3.588   0.741   9.161  0.0987  0.1529 -0.2275
  321W        W 4065   1.793   6.291   1.082 -0.0686  0.2304 -0.0676
  322W        W 4066   7.632   9.692   2.427 -0.0517  0.0500 -0.0478
  323W        W 4067   9.598   0.392   1.276 -0.0911 -0.1540 -0.3058
  324W        W 4068   6.308   5.827  12.415 -0.0219  0.0614  0.3686
  325W        W 4069   6.775   7.096   0.794  0.1716 -0.2714 -0.1393
  326W        W 4070   8.708   7.887  12.255  0.1900  0.0238  0.1653
  327W        W 4071   1.762   2.576   9.885 -0.1823  0.1126 -0.3297
  328W        W 4072   6.447   4.272   9.620  0.1434  0.3100 -0.0694
  329W        W 4073   2.211   5.182   9.503 -0.0174  0.0051  0.0202
  330W        W 4074   1.193   6.156   8.115  0.0402  0.1109 -0.0527
  331W        W 4075   9.812   0.446   2.624 -0.2092 -0.1554 -0.1537
  332W        W 4076   0.558   3.148  10.228 -0.2342 -0.0914 -0.2115
  333W        W 4077   2.601   3.292   0.153 -0.1286  0.2270  0.1180
  334W        W 4078   3.342   9.598   1.810  0.0133 -0.0294 -0.0450
  335W        W 4079   0.071   0.948   0.045  0.0489 -0.2738 -0.0323
  336W        W 4080   7.937   9.100   9.454  0.0608 -0.1086 -0.1741
  337W        W 4081   4.042   8.180   9.785  0.4571 -0.1217  0.2865
  338W        W 4082   3.082   7.827  11.591 -0.1051  0.0283  0.0945
  339W        W 4083   1.202   0.750   3.325 -0.1358  0.1433 -0.0416
  340W        W 4084   1.013   9.111  11.014 -0.0377 -0.0586  0.1890
  341W        W 4085   2.217   7.381   8.701 -0.0407 -0.2849  0.0031
  342W        W 4086   6.875   4.038   3.094 -0.1759 -0.1470  0.0779
  343W        W 4087   0.493   1.006  10.564 -0.0233 -0.1205 -0.2121
  344W        W 4088   6.178   6.742   4.667 -0.0889 -0.1404  0.0961
  345W        W 4089   1.700   4.790   1.061 -0.2146 -0.0562 -0.0634
  346W        W 4090   1.401   6.493   3.504  0.0288 -0.1146 -0.2877
  347W        W 4091   2.921   9.106   9.819 -0.2535  0.0445 -0.2059
  348W        W 4092   9.746   2.653  11.414 -0.3425 -0.2161  0.0939
  349W        W 4093   6.223   8.975   0.913  0.3761 -0.0473  0.0996
  350W        W 4094   0.446   5.469   0.944 -0.1646  0.1103 -0.1656
  351W        W 4095   1.629   0.498   0.191  0.1983  0.1125 -0.2424
  352W        W 4096   3.066   2.932   1.329 -0.1204 -0.2793 -0.0232
  353W        W 4097   8.646   4.207  10.250 -0.0648 -0.0657  0.1251
  354W        W 4098   5.777   9.061   9.237 -0.2142 -0.0917 -0.0987
  355W        W 4099   0.708   5.542  10.355  0.0809 -0.0177  0.4867
  356W        W 4100   9.861   7.557   4.893  0.0289 -0.0821  0.0234
  357W        W 4101   5.267   8.179   4.388 -0.1090  0.0702  0.1725
  358W        W 4102   7.026   0.019  10.015 -0.2123 -0.1637  0.1091
  359W        W 4103   4.997   7.045   8.843 -0.2293 -0.0374  0.0009
  360W        W 4104   1.320   5.507   4.190  0.1590 -0.1377 -0.0169
  361W        W 4105   0.829   1.299   0.181  0.1354  0.0819  0.0331
  362W        W 4106   3.248   1.754  10.117  0.1896  0.0864 -0.0242
  363W        W 4107   9.152   7.555  12.661  0.1228  0.1028 -0.0678
  364W        W 4108   5.002   3.680   9.844 -0.1963 -0.0571 -0.3509
  365W        W 4109   4.959   6.948   3.293  0.7188 -0.0295 -0.2576
  366W        W 4110   4.528   3.861   2.500  0.1618 -0.0128 -0.0357
  367W        W 4111   3.936   9.276   1.299 -0.3298  0.1372 -0.1150
  368W        W 4112   1.986   8.936  10.112  0.1166  0.0524 -0.1998
  369W        W 4113   4.604   0.443  12.144  0.0136  0.0557 -0.0484
  370W        W 4114   8.157   0.543   1.291  0.0793  0.0434 -0.1280
  371W        W 4115   2.875   2.338  10.745  0.0743  0.2822 -0.1631
  372W        W 4116   5.454   3.666   0.363 -0.4528  0.0580 -0.3463
  373W        W 4117   6.167   3.977  10.717 -0.2648  0.0378 -0.0351
  374W        W 4118   1.123   0.806  11.609 -0.0550 -0.0175  0.2952
  375W        W 4119   0.894   8.173   1.344  0.1688  0.2269  0.1163
  376W        W 4120   6.646   5.996  12.718  0.2031 -0.3424  0.0109
  377W        W 4121   8.398   0.958  12.267 -0.3197 -0.1814  0.1171
  378W        W 4122   7.672   7.344  10.559  0.1220  0.2260  0.2419
  379W        W 4123   0.839   4.217  11.849 -0.0036  0.0110 -0.0331
  380W        W 4124   0.408   4.263  11.543 -0.1863  0.0638 -0.1099
  381W        W 4125   3.060   3.384   4.198  0.1318  0.0980 -0.1115
  382W        W 4126   7.599   3.712   4.564  0.1550 -0.2450  0.1884
  383W        W 4127   8.455   9.001   3.351  0.0559 -0.0011  0.1988
  384W        W 4128   0.812   6.848  12.589  0.3695 -0.0752  0.1293
  385W        W 4129   8.732   4.624   3.685 -0.4104  0.1927 -0.1457
  386W        W 4130   4.511   8.642   0.719 -0.0329 -0.1711  0.1396
  387W        W 4131   0.939   8.049   8.784  0.1577  0.0930  0.1010
  388W        W 4132   0.395   2.289   2.863 -0.1535  0.0818 -0.1886
  389W        W 4133   7.607   8.401   3.190  0.0484  0.1021 -0.4122
  390W        W 4134   2.556   4.385   2.807  0.2853  0.1144  0.2681
  391W        W 4135   3.145   6.385  12.586 -0.1544 -0.3441 -0.0355
  392W        W 4136   4.171   9.521   2.784 -0.1826  0.0314 -0.2182
  393W        W 4137   3.029   9.251   3.164 -0.2165 -0.2428  0.2246
  394W        W 4138   2.408   5.900  11.719 -0.0862 -0.1550  0.1441
  395W        W 4139   9.445   6.827  12.285  0.4827 -0.2016 -0.2590
  396W        W 4140   5.524   1.429   9.307 -0.1029 -0.2222  0.0006
  397W        W 4141   6.984   6.826   2.658  0.1248  0.1535  0.2030
  398W        W 4142   3.106   1.501  10.949  0.1336  0.0612 -0.0638
  399W        W 4143   3.290   0.445  10.119  0.0114  0.0114 -0.1018
  400W        W 4144   7.985   7.056   1.073  0.0247  0.1990 -0.0965
  401W        W 4145   6.426   8.254  10.330  0.1977 -0.2007  0.2550
  402W        W 4146   4.189   7.702   2.617 -0.1358  0.1139 -0.0967
  403W        W 4147   8.104   2.060  12.690  0.1733  0.1840  0.0559
  404W        W 4148   8.582   2.201  12.097 -0.2267 -0.0394 -0.0871
  405W        W 4149   7.883   8.401   2.650  0.0575  0.0970 -0.1196
  406W        W 4150   3.611   5.932   9.270 -0.0386  0.1017 -0.1806
  407W        W 4151   4.458   8.283  10.191  0.1748  0.1152  0.0415
  408W        W 4152   4.696   0.910  10.450 -0.4052  0.1896 -0.3786
  409W        W 4153   2.238   6.885  12.380 -0.0623 -0.1058  0.1169
  410W        W 4154   6.930   1.288   0.822 -0.1597  0.0299  0.2526
  411W        W 4155   3.439   5.890   4.862 -0.4745 -0.1431 -0.5303
  412W        W 4156   6.171   4.613   2.957 -0.3649  0.1096  0.0839
  413W        W 4157   1.492   4.692   9.253 -0.0946  0.2257  0.3050
  414W        W 4158   5.050   7.161   1.506 -0.1280  0.2016  0.1806
  415W        W 4159   7.811   9.327  11.068 -0.2807  0.0840 -0.4937
  416W        W 4160   7.825   8.666   1.482  0.2415 -0.1824  0.1414
  417W        W 4161   2.379   3.801  12.417 -0.0656  0.1465 -0.0327
  418W        W 4162   6.595   5.755   0.657 -0.0770 -0.4313 -0.1589
  419W        W 4163   0.572   6.401   9.549 -0.1597  0.0816  0.0942
  420W        W 4164   4.947   3.964   0.127  0.1089 -0.0607  0.0236
  421W        W 4165   6.505   2.229   1.865  0.3501 -0.1828  0.0072
  422W        W 4166   5.852   6.414  10.932 -0.2656  0.1202 -0.0403
  423W        W 4167   2.058   8.912   9.108 -0.1886 -0.0575 -0.2876
  424W        W 4168   9.495   9.642   3.834  0.2435 -0.0345 -0.1007
  425W        W 4169   7.533   4.137  12.214  0.0723  0.0267  0.0352
  426W        W 4170   7.876   9.624  12.484  0.0939 -0.2445 -0.1762
  427W        W 4171   1.844   9.440   2.185  0.1406 -0.0788 -0.0686
  428W        W 4172   6.211   2.641  10.223 -0.0475  0.2597  0.1243
  429W        W 4173   0.810   2.200   2.605 -0.0405  0.1438 -0.1273
  430W        W 4174   6.522   1.599   0.686  0.1796 -0.1280 -0.2280
  431W        W 4175   0.991   0.621   1.692 -0.1881 -0.1409 -0.1282
  432W        W 4176   5.221   4.930   1.364 -0.0482  0.0458  0.0780
  433W        W 4177   8.287   5.409   3.261 -0.0775  0.1023  0.0806
  434W        W 4178   0.876   8.606   9.608 -0.2543  0.2024  0.0802
  435W        W 4179   5.678   1.389   0.006 -0.2678  0.0031 -0.2114
  436W        W 4180   6.276   1.709  10.759  0.1843 -0.2161  0.0972
  437W        W 4181   7.920   5.957   9.715 -0.1077 -0.2055  0.1772
  438W        W 4182   6.083   4.213  12.499 -0.0226  0.0381  0.2085
  439W        W 4183   4.181   4.986   3.370 -0.0868 -0.2535  0.0361
  440W        W 4184   3.831   5.871   2.878  0.1854 -0.3360  0.0981
  441W        W 4185   4.529   3.648  12.318  0.1437 -0.0336 -0.1558
  442W        W 4186   8.260   5.213   3.996  0.0257 -0.0514  0.1685
  443W        W 4187   9.408   8.933   2.194 -0.1339 -0.3495  0.0068
  444W        W 4188   6.042   1.598   1.326 -0.1352  0.2735 -0.0368
  445W        W 4189   5.894   5.909   1.644  0.0884  0.0868 -0.0080
  446W        W 4190   2.400   3.481   0.936  0.1595  0.5832  0.1038
  447W        W 4191   0.592   2.978   8.518  0.0994 -0.2113  0.0672
  448W        W 4192   6.508   5.491   8.284  0.0003  0.0664  0.0387
  449W        W 4193   0.771   0.919  12.115  0.0786 -0.0986 -0.1750
  450W        W 4194   1.230   5.102   1.168  0.2124 -0.1914 -0.0468
  451W        W 4195   5.425   6.330   1.871 -0.0838 -0.1103  0.2278
  452W        W 4196   6.105   7.148  10.462 -0.2124  0.1061 -0.2273
  453W        W 4197   6.629   3.890   2.608 -0.0197  0.0533 -0.2790
  454W        W 4198   3.340   9.560   4.022 -0.2606  0.1735 -0.1393
  455W        W 4199   5.331   9.189  11.389 -0.1351 -0.1836 -0.1847
  456W        W 4200   0.144   3.731  11.442  0.0835 -0.1648 -0.0402
  457W        W 4201   4.388   1.717  11.159  0.0616  0.2078 -0.0115
  458W        W 4202   9.814   5.275   4.333 -0.3180 -0.0017  0.2531
  459W        W 4203   4.486   8.558  12.758  0.1062  0.3932  0.0181
  460W        W 4204   6.231   5.484  10.511  0.0186 -0.0195 -0.2178
  461W        W 4205   8.516   0.474  10.636 -0.0715 -0.0703 -0.1603
  462W        W 4206   0.597   0.384   8.448  0.1018  0.3909  0.0363
  463W        W 4207   9.753   1.946   9.702 -0.1428 -0.3774 -0.2389
  464W        W 4208   0.004   7.696   1.935  0.0150 -0.2849 -0.2112
  465W        W 4209   8.163   4.404   0.071  0.1550 -0.1393 -0.2176
  466W        W 4210   9.517   4.601  11.104  0.2374 -0.4354  0.2407
  467W        W 4211   9.821   5.288   2.547 -0.3195 -0.1168 -0.2993
  468W        W 4212   0.993   0.042   0.843 -0.0893 -0.3006  0.0288
  469W        W 4213   6.637   4.123  12.536  0.4262 -0.2026 -0.0162
  470W        W 4214   3.925   4.805   1.506 -0.0916  0.3791  0.0548
  471W        W 4215   0.701   2.999   4.050  0.2474  0.1311  0.0615
  472W        W 4216   8.766   0.484   8.661 -0.0056 -0.0549 -0.2111
  473W        W 4217   4.218   4.654  12.069  0.1324  0.0275 -0.6098
  474W        W 4218   6.310   5.078   2.449 -0.0588 -0.1162 -0.0896
  475W        W 4219   7.782   7.370   1.693  0.2001  0.2736  0.2448
  476W        W 4220   3.051   9.062   4.295 -0.4093 -0.1100 -0.2629
  477W        W 4221   5.681   9.178   2.682  0.0746  0.0490  0.4453
  478W        W 4222   0.705   5.698  12.121 -0.0624 -0.0719 -0.0135
  479W        W 4223   4.465   1.803  12.746 -0.2319  0.1106  0.2782
  480W        W 4224   0.541   2.187  11.837 -0.1390 -0.2103 -0.4141
  481W        W 4225   9.769   3.632  12.221  0.0761  0.3073 -0.1719
  482W        W 4226   1.404   8.202   2.254  0.0481  0.6707 -0.0844
  483W        W 4227   5.274   6.371   3.602 -0.4672 -0.0234  0.4148
  484W        W 4228   8.055   8.617   3.517  0.0743  0.2704 -0.0153
  485W        W 4229   8.660   4.482   3.183  0.0818  0.1773  0.0205
  486W        W 4230   7.431   8.436   9.868  0.1585  0.2827  0.3315
  487W        W 4231   6.788   5.839   0.189 -0.1563 -0.1018 -0.0528
  488W        W 4232   2.296   7.565   3.204  0.1155 -0.0271  0.1002
  489W        W 4233   9.283   8.794   1.082  0.1232  0.1635 -0.1819
  490W        W 4234   1.513   6.915   9.177  0.0870  0.1522  0.1272
  491W        W 4235   7.561   1.807   0.281  0.1332  0.0559  0.1278
  492W        W 4236   5.699   5.948   2.468 -0.0715 -0.0144  0.0300
  493W        W 4237   1.658   5.106   4.007  0.1011  0.1508  0.0028
  494W        W 4238   3.443   1.674   2.775 -0.2269  0.1174 -0.0017
  495W        W 4239   7.095   7.468   3.999 -0.4620  0.2567  0.0663
  496W        W 4240   9.525   1.200   3.590 -0.1438 -0.2401  0.1537
  497W        W 4241   1.225   3.325  12.733  0.3410 -0.0822  0.4237
  498W        W 4242   7.568   9.104   2.324 -0.2804  0.2066 -0.1582
  499W        W 4243   5.862   4.035   3.114  0.0556 -0.1460  0.0404
  500W        W 4244   5.168   8.627   1.436 -0.0121 -0.0907  0.1698
  501W        W 4245   2.333   0.535   2.069 -0.1852 -0.2758 -0.0300
  502W        W 4246   8.487   0.364   0.000 -0.1767 -0.4443 -0.2260
  503W        W 4247   7.187   5.825   8.758  0.0310  0.0094  0.2789
  504W        W 4248   5.609   4.305   1.414  0.3858 -0.0774  0.1361
  505W        W 4249   2.430   6.004   1.068  0.1372 -0.2675 -0.0466
  506W        W 4250   3.752   2.339  10.645  0.0341 -0.0223  0.2971
  507W        W 4251   9.169   4.696   1.579 -0.4214 -0.1238  0.3974
  508W        W 4252   3.578   6.584  11.807  0.3028  0.0893 -0.0239
  509W        W 4253   0.965   9.553   3.964  0.2143 -0.1626  0.0638
  510W        W 4254   5.227   4.502  12.069 -0.2771  0.0146 -0.0525
  511W        W 4255   3.517   7.816   1.737  0.0321 -0.0398  0.0874
  512W        W 4256   5.551   8.175  12.762  0.1294  0.0273  0.0199
  513W        W 4257   4.849   1.424  10.996 -0.0909 -0.2305  0.1829
  514W        W 4258   4.916   9.629   0.566 -0.1286 -0.2200 -0.1698
  515W        W 4259   3.094   5.796  12.316  0.0102  0.1302  0.0821
  516W        W 4260   7.142   8.643   0.459 -0.1132  0.0735  0.2850
  517W        W 4261   9.011   1.143   9.916 -0.2316 -0.3058  0.0923
  518W        W 4262   7.849   7.110   9.777  0.0765 -0.3537  0.0657
  519W        W 4263   7.842   7.081   2.639  0.0318  0.1455 -0.0669
  520W        W 4264   5.971   3.878  12.901  0.0323 -0.2031 -0.0289
  521W        W 4265   9.776   6.102   7.762  0.1851 -0.1113  0.0080
  522W        W 4266   2.472   4.859   9.092 -0.3538  0.2312 -0.2602
  523W        W 4267   4.281   0.916   0.759  0.1857 -0.1243 -0.0025
  524W        W 4268   9.014   1.088   3.578 -0.0567  0.0718 -0.1742
  525W        W 4269   8.327   4.473  11.551  0.1889  0.0872  0.1560
  526W        W 4270   8.744   5.265   3.119  0.0106  0.0128 -0.0489
  527W        W 4271   7.483   3.417   9.943  0.2080 -0.0580  0.0894
  528W        W 4272   3.235   9.615  10.661  0.1014 -0.2327  0.1264
  529W        W 4273   1.134   8.826  11.739 -0.0564 -0.4451 -0.0433
  530W        W 4274   9.508   5.337   9.095  0.0759 -0.1228  0.0217
  531W        W 4275   7.874   5.427   9.504  0.0939 -0.1854  0.3653
  532W        W 4276   2.294   0.797   8.810 -0.1489  0.2806 -0.0795
  533W        W 4277   9.223   6.489  10.489  0.3458 -0.2360 -0.4405
  534W        W 4278   6.173   3.772  11.776  0.1105 -0.0129 -0.2686
  535W        W 4279   2.972   7.609   2.558  0.1698  0.1032  0.1245
  536W        W 4280   6.977   4.846   0.552  0.0726 -0.0444  0.0646
  537W        W 4281   7.843   5.755  11.585 -0.0712 -0.1652  0.0419
  538W        W 4282   6.774   3.825   8.784  0.4697  0.0559 -0.0786
  539W        W 4283   3.078   1.587   2.394 -0.1259  0.0227 -0.0786
  540W        W 4284   0.629   1.896  12.300 -0.0866 -0.0365 -0.1329
  541W        W 4285   6.171   5.231   8.578 -0.0165  0.1018 -0.3782
  542W        W 4286   7.017   5.206   0.958  0.0543  0.2264  0.3526
  543W        W 4287   1.135   5.778  10.056 -0.4548 -0.0792  0.0673
  544W        W 4288   7.599   0.086   0.382 -0.2253  0.2069 -0.0652
  545W        W 4289   7.701   4.769  10.557 -0.1483  0.3335  0.0956
  546W        W 4290   0.481   5.993   8.089  0.0850 -0.1389 -0.0509
  547W        W 4291   6.454   3.629  10.418 -0.0054 -0.1069  0.0805
  548W        W 4292   9.667   6.120   9.168  0.0854  0.1322  0.3844
  549W        W 4293   6.856   9.158   4.792 -0.0113 -0.0190 -0.2110
  550W        W 4294   4.039   6.727   9.666  0.1520  0.0086  0.0197
  551W        W 4295   3.660   8.499  12.665  0.1845 -0.0590 -0.0220
  552W        W 4296   3.890   1.155  12.790  0.4708  0.1710  0.1249
  553W        W 4297   1.485   5.228  12.316  0.0607  0.3118 -0.0216
  554W        W 4298   2.375   5.350   9.090  0.0301  0.1610  0.2119
  555W        W 4299   8.898   8.920   9.281 -0.0054 -0.1056  0.3055
  556W        W 4300   4.213   6.063   2.397  0.0163 -0.3729  0.0613
  557W        W 4301   1.270   0.394  11.333 -0.1203 -0.2687  0.1589
  558W        W 4302   0.396   1.603   0.193 -0.0372  0.3678 -0.2646
  559W        W 4303   6.481   2.664   9.618  0.1150  0.1684 -0.0258
  560W        W 4304   7.183   3.575   2.922 -0.4190 -0.0569 -0.2771
  561W        W 4305   0.045   5.630   9.092  0.1707  0.0478 -0.2450
  562W        W 4306   4.454   4.479   9.544 -0.1161 -0.1158 -0.3875
  563W        W 4307   6.216   7.185   9.431  0.0582  0.2357  0.0539
  564W        W 4308   8.490   8.977   4.394 -0.0070 -0.3058  0.1850
  565W        W 4309   4.954   5.650   2.138  0.0742 -0.1405 -0.2569
  566W        W 4310   9.297   9.723   4.620  0.1394 -0.0045  0.2456
  567W        W 4311   6.427   6.431   1.975 -0.0068 -0.0681  0.0580
  568W        W 4312   5.366   7.037   0.062 -0.4015  0.1171  0.1037
  569W        W 4313   7.330   7.096   0.869 -0.3950  0.3377  0.0218
  570W        W 4314   5.883   3.144  10.986 -0.0329  0.2029  0.1247
  571W        W 4315   2.067   0.813  12.619 -0.1258 -0.0798  0.2769
  572W        W 4316   4.932   7.850   3.550 -0.1544 -0.1948 -0.2928
  573W        W 4317   8.388   7.297   3.888  0.3251 -0.1326  0.0119
  574W        W 4318   6.871   4.438   1.616 -0.1660  0.0565 -0.0351
  575W        W 4319   0.541   1.295   2.471 -0.0125 -0.1978  0.2946
  576W        W 4320   1.853   9.355   8.993  0.2255 -0.2963 -0.2308
  577W        W 4321   9.384   6.544   4.288  0.0737  0.2468 -0.0820
  578W        W 4322   9.003   7.127  11.171 -0.0490  0.2233 -0.0752
  579W        W 4323   1.937   7.453   9.239 -0.2929  0.1246 -0.0450
  580W        W 4324   8.302   5.785   0.273  0.3876 -0.2495 -0.1694
  581W        W 4325   1.543   8.050   9.945  0.0653  0.0725 -0.2160
  582W        W 4326   4.718   7.438   8.970  0.0093 -0.1826 -0.0228
  583W        W 4327   7.293   2.267   3.194 -0.1573  0.1364  0.1557
  584W        W 4328   3.588   5.538   2.044  0.0240 -0.2183  0.2803
  585W        W 4329   4.142   9.617  12.267  0.0424  0.2145 -0.3271
  586W        W 4330   1.357   4.262  11.927 -0.0251  0.4107  0.0282
  587W        W 4331   9.241   5.028   1.094  0.1224  0.1715 -0.1055
  588W        W 4332   0.016   0.715   2.202 -0.0342  0.2320  0.4652
  589W        W 4333   7.038   1.332   9.597  0.1852 -0.0740  0.2130
  590W        W 4334   2.082   6.563   9.786  0.2163 -0.0825  0.2199
  591W        W 4335   5.225   5.494  11.856  0.0755 -0.4010 -0.3523
  592W        W 4336   7.921   9.592   9.638  0.1270 -0.1214 -0.2833
  593W        W 4337   4.825   9.589   0.088 -0.0571  0.2482 -0.1735
  594W        W 4338   6.721   4.784   1.013 -0.3314 -0.2572 -0.1743
  595W        W 4339   2.387   3.290   2.200  0.2142 -0.1448 -0.3154
  596W        W 4340   5.544   6.443   2.301 -0.2617 -0.2803 -0.2192
  597W        W 4341   5.837   7.529   4.403  0.1410 -0.3285 -0.0756
  598W        W 4342   7.025   0.491   2.082 -0.1778  0.0837 -0.0302
  599W        W 4343   4.893   7.770  12.772 -0.0541  0.2321 -0.0552
  600W        W 4344   5.843   0.051   2.638  0.0565 -0.0549 -0.3108
  601W        W 4345   9.444   2.573   3.418  0.0567  0.1516  0.0937
  602W        W 4346   6.777   7.976  11.132 -0.1317  0.1808 -0.0767
  603W        W 4347   2.679   4.211   1.755 -0.0384  0.2998 -0.0179
  604W        W 4348   8.264   2.693   9.437  0.0161  0.0712  0.1647
  605W        W 4349   7.464   6.775   9.795 -0.1923 -0.0546  0.0034
  606W        W 4350   2.396   8.202   2.412  0.4695 -0.0290  0.2046
  607W        W 4351   9.367   6.343  10.056  0.0325  0.1802 -0.0012
  608W        W 4352   4.305   5.393   0.609  0.3019 -0.0511 -0.3695
  609W        W 4353   2.207   3.005   1.857  0.1677 -0.1576  0.1478
  610W        W 4354   3.903   1.822   1.390  0.2076  0.2408 -0.2767
  611W        W 4355   8.433   3.014   4.028 -0.3244  0.0087  0.2333
  612W        W 4356   2.193   5.397   0.101 -0.0013  0.1671  0.0336
  613W        W 4357   8.109   1.663   4.171  0.2519 -0.3155 -0.1325
  614W        W 4358   6.278   7.372  12.602  0.0030 -0.1942 -0.1692
  615W        W 4359   3.587   8.315   3.567  0.1164 -0.0300 -0.1843
  616W        W 4360   5.075   6.126  10.956 -0.1499  0.1797 -0.0338
  617W        W 4361   1.672   5.413   2.489 -0.2103  0.1407 -0.1107
  618W        W 4362   7.365   5.626   9.148  0.0932  0.0391 -0.0196
  619W        W 4363   0.338   4.199   3.059 -0.0919  0.1130 -0.0372
  620W        W 4364   7.467   7.933  12.244 -0.0265 -0.2406 -0.1215
  621W        W 4365   3.572   1.751  12.429 -0.0761  0.0538  0.0536
  622W        W 4366   1.234   6.738   0.748  0.0679 -0.3447 -0.1576
  623W        W 4367   6.789   5.675  12.372  0.1091 -0.1763  0.1426
  624W        W 4368   0.277   8.182   1.880 -0.3089  0.0769  0.1157
  625W        W 4369   5.460   7.706   7.984 -0.1075 -0.1703  0.0980
  626W        W 4370   2.302   1.199  10.001 -0.3249 -0.0124  0.3719
  627W        W 4371   7.551   6.908   4.204 -0.1193 -0.1433  0.2651
  628W        W 4372   8.781   3.730  11.844 -0.2297  0.0354  0.4433
  629W        W 4373   9.164   4.674  11.837 -0.0356  0.3104 -0.2633
  630W        W 4374   9.858   3.483   2.215 -0.0919 -0.2164  0.1522
  631W        W 4375   9.741   1.060  11.829 -0.0601  0.0080 -0.2264
  632W        W 4376   6.404   4.257  12.942 -0.0236  0.1092 -0.0524
  633W        W 4377   0.664   7.264   3.897 -0.2725  0.0298  0.0444
  634W        W 4378   8.166   9.537  10.816 -0.0862 -0.3448 -0.1672
  635W        W 4379   4.822   3.638   2.166 -0.3670 -0.0459 -0.2904
  636W        W 4380   3.658   8.584   2.043 -0.0263  0.0767 -0.1419
  637W        W 4381   7.915   2.755   2.404  0.0236 -0.0403  0.1453
  638W        W 4382   2.251   5.804   1.663  0.1736  0.0290 -0.0923
  639W        W 4383   8.556   0.698  11.073 -0.0062  0.0522 -0.0553
  640W        W 4384   0.719   6.400   3.054  0.3479 -0.1913 -0.2027
  641W        W 4385   8.578   8.296   9.825 -0.3063  0.1331 -0.0127
  642W        W 4386   8.214   4.770   3.727  0.2917  0.1291 -0.1367
  643W        W 4387   1.424   0.527   4.896 -0.0999  0.0730 -0.0594
  644W        W 4388   1.269   9.361  10.602  0.1247 -0.0901  0.1954
  645W        W 4389   0.552   3.953   1.388 -0.1695  0.2584  0.0505
  646W        W 4390   2.334   1.983  10.576 -0.0779  0.0162 -0.1881
  647W        W 4391   0.538   7.525   9.919  0.2392  0.1218  0.1511
  648W        W 4392   4.441   6.072   0.765 -0.1026 -0.1592  0.2093
  649W        W 4393   4.088   7.498  11.435  0.2718 -0.1836 -0.1850
  650W        W 4394   9.264   7.252   0.332  0.0480  0.1134  0.0060
  651W        W 4395   5.257   5.442   9.798 -0.0858 -0.2491 -0.0479
  652W        W 4396   3.751   2.297   9.484  0.0359 -0.1043 -0.1544
  653W        W 4397   7.777   6.638   3.814 -0.2933 -0.2644  0.1408
  654W        W 4398   6.180   4.970  11.403  0.1084  0.1479 -0.1951
  655W        W 4399   4.748   4.240  10.764 -0.0017  0.1111  0.1229
  656W        W 4400   7.271   4.083   3.404 -0.1813 -0.1814  0.0955
  657W        W 4401   0.053   5.873   2.706 -0.0912  0.2065 -0.3269
  658W        W 4402   7.662   5.309   2.622 -0.0929 -0.1523 -0.1432
  659W        W 4403   7.033   2.244  12.334 -0.1253  0.2301 -0.1096
  660W        W 4404   1.319   3.986   9.023 -0.3245 -0.2093 -0.0266
  661W        W 4405   4.836   3.195   0.808 -0.2701 -0.2003 -0.0529
  662W        W 4406   9.314   3.433   8.582  0.0110 -0.1754  0.2205
  663W        W 4407   6.793   6.593   3.545  0.2140  0.0377  0.1213
  664W        W 4408   6.850   9.440  12.741 -0.1005  0.2193  0.1022
  665W        W 4409   0.082   9.356   4.363  0.0627  0.1374  0.0094
  666W        W 4410   3.092   1.947  11.740  0.1116  0.1843  0.0435
  667W        W 4411   1.083   7.801   0.405  0.0714 -0.2236 -0.2199
  668W        W 4412   2.272   0.799   9.594 -0.3103 -0.0937  0.0798
  669W        W 4413   0.819   6.303   9.048 -0.1807 -0.3519 -0.3407
  670W        W 4414   4.336   1.788  11.738  0.0019 -0.0848 -0.2146
  671W        W 4415   2.323   8.442   1.339  0.3009  0.0442 -0.2786
  672W        W 4416   5.318   2.581   1.186  0.3996  0.0719  0.2204
  673W        W 4417   4.055   8.407   0.568  0.0410 -0.1335  0.0312
  674W        W 4418   9.184   2.190   2.318 -0.1235 -0.0600  0.0322
  675W        W 4419   1.752   5.045  10.474 -0.0818  0.0346 -0.1011
  676W        W 4420   7.997   1.632   0.067  0.1963 -0.1322 -0.1351
  677W        W 4421   8.922   2.486   1.560  0.2371 -0.0233  0.0290
  678W        W 4422   4.358   9.166   0.888 -0.2205  0.0998 -0.0777
  679W        W 4423   6.420   0.244   1.560 -0.3247 -0.1161 -0.0885
  680W        W 4424   5.082   1.770   2.898  0.1730 -0.1170  0.1533
  681W        W 4425   6.973   8.285   0.117 -0.1087 -0.0474 -0.0496
  682W        W 4426   3.404   2.157   2.977 -0.2054 -0.0528  0.2859
  683W        W 4427   5.874   5.652   3.876  0.0392  0.0167 -0.2019
  684W        W 4428   9.481   1.398   1.431  0.2171 -0.2466 -0.1664
  685W        W 4429   5.693   1.489   2.756  0.0475 -0.0525  0.2757
  686W        W 4430   4.611   9.277   3.964 -0.0784  0.0720 -0.0876
  687W        W 4431   1.404   8.843  10.718  0.0958 -0.0173 -0.1535
  688W        W 4432   4.048   5.176   0.251 -0.0996 -0.1391 -0.1801
  689W        W 4433   2.665   2.217  11.787  0.0400  0.0344 -0.0025
  690W        W 4434   0.097   0.312   4.582 -0.0388 -0.1679  0.0432
  691W        W 4435   7.250   8.288   9.373 -0.2592 -0.0116 -0.0222
  692W        W 4436   3.686   8.760   2.544 -0.0270 -0.5062 -0.0857
  693W        W 4437   6.794   2.202  10.395  0.3024  0.1814 -0.0917
  694W        W 4438   3.510   8.769   4.428  0.0263  0.3746  0.2366
  695W        W 4439   1.054   0.616   9.851 -0.3286 -0.1693 -0.4352
  696W        W 4440   0.435   8.951   0.981  0.0127  0.1266  0.1508
  697W        W 4441   2.748   0.188  10.893 -0.2391  0.3956  0.1990
  698W        W 4442   3.347   0.505  11.396  0.0898  0.3530  0.0504
  699W        W 4443   8.302   4.747   8.097  0.0066 -0.1158 -0.0912
  700W        W 4444   4.898   0.432   2.662 -0.0913  0.0680  0.2369
  701W        W 4445   9.181   4.052  11.959  0.0760 -0.0822 -0.1605
  702W        W 4446   8.786   4.947  10.559 -0.1805  0.1397  0.2184
  703W        W 4447   7.163   8.898   1.022 -0.2807  0.1637  0.3921
  704W        W 4448   2.215   1.796  10.091  0.1805 -0.2249 -0.2345
  705W        W 4449   8.356   2.788  10.193 -0.4439  0.0598 -0.4543
  706W        W 4450   4.584   7.490  12.275 -0.1417 -0.0547  0.0569
  707W        W 4451   1.102   9.863  10.510 -0.1142  0.2028 -0.0592
  708W        W 4452   2.267   6.310  10.149 -0.0180 -0.2275 -0.3000
  709W        W 4453   9.213   8.268   3.675 -0.2099 -0.2351 -0.0488
  710W        W 4454   2.193   1.997   1.056  0.0894  0.1500 -0.3185
  711W        W 4455   1.802   5.337  12.653 -0.0320 -0.0543  0.0099
  712W        W 4456   4.914   3.998   3.498 -0.2357  0.1506 -0.2894
  713W        W 4457   8.404   6.605  11.183 -0.1600  0.1679  0.4208
  714W        W 4458   0.916   6.645   3.462  0.0066  0.0919  0.1033
  715W        W 4459   8.424   2.624   8.017  0.0254 -0.3668  0.1793
  716W        W 4460   1.703   2.545  12.691 -0.2508  0.0570  0.0156
  717W        W 4461   6.270   4.635  12.675 -0.3444 -0.0997 -0.3204
  718W        W 4462   5.663   0.201   3.745 -0.0678 -0.0281  0.2878
  719W        W 4463   4.529   5.547   2.424  0.2936  0.1540  0.2492
  720W        W 4464   7.393   4.485   0.950  0.2010  0.2386  0.0662
  721W        W 4465   1.600   7.417   4.334  0.0945  0.1668 -0.1905
  722W        W 4466   6.871   6.369   2.398  0.1747 -0.0044 -0.2172
  723W        W 4467   3.114   8.935  11.995  0.1698  0.2299 -0.2876
  724W        W 4468   5.879   6.555  11.397  0.1610 -0.2527  0.0227
  725W        W 4469   7.094   9.416  10.090 -0.2623  0.1485 -0.1206
  726W        W 4470   3.942   8.804   0.879 -0.4909 -0.1000  0.0738
  727W        W 4471   4.333   7.012   3.377  0.0006  0.1131 -0.4069
  728W        W 4472   2.999   5.762   1.236  0.2432 -0.0879 -0.0869
  729W        W 4473   1.672   7.512   2.792 -0.0796  0.1557  0.0146
  730W        W 4474   0.706   9.706   2.286  0.0613  0.1993 -0.1448
  731W        W 4475   6.808   4.114   4.002  0.0508  0.0654  0.0424
  732W        W 4476   2.511   6.152   9.651 -0.3413  0.1574 -0.2673
  733W        W 4477   8.464   4.347  12.539  0.2331 -0.0626 -0.0657
  734W        W 4478   2.169   3.436   0.476 -0.1321 -0.1156  0.0921
  735W        W 4479   2.541   7.702  12.834  0.1894  0.1596 -0.0430
  736W        W 4480   6.137   3.391   0.021  0.1184  0.0630 -0.0952
  737W        W 4481   5.208   7.614   1.597  0.1127 -0.1925 -0.0177
  738W        W 4482   4.919   4.719   1.992  0.3833  0.0378 -0.2169
  739W        W 4483   5.048   0.974  10.920 -0.3062  0.2912  0.0403
  740W        W 4484   3.226   7.466   2.896 -0.1760  0.1771 -0.0372
  741W        W 4485   6.259   3.068  11.315 -0.2828  0.0369  0.0628
  742W        W 4486   9.614   0.708  12.234  0.0810 -0.0005 -0.1874
  743W        W 4487   1.247   7.306   4.649  0.3299  0.0888 -0.0504
  744W        W 4488   7.182   2.962  10.323 -0.0304 -0.0234  0.1014
  745W        W 4489   2.139   4.106   3.134 -0.0887  0.0126  0.2712
  746W        W 4490   5.547   7.771   1.133 -0.3065  0.2865  0.1956
  747W        W 4491   7.894   6.717  11.698 -0.1275 -0.1768 -0.2349
  748W        W 4492   9.255   9.327  11.673  0.0643  0.0606  0.1157
  749W        W 4493   5.412   7.085   7.916 -0.0556 -0.1258 -0.1768
  750W        W 4494   1.344   8.883  11.262  0.1283  0.2304  0.1686
  751W        W 4495   6.346   7.948  12.316  0.2380 -0.0762  0.2471
  752W        W 4496   2.859   8.041   0.115 -0.1513 -0.3783 -0.1393
  753W        W 4497   8.152   1.504  11.446  0.0947  0.1138  0.0736
  754W        W 4498   8.397   9.388   4.111  0.1431 -0.4939 -0.1908
  755W        W 4499   3.970   3.079   9.813  0.2199 -0.0554 -0.1889
  756W        W 4500   2.693   0.957  12.491 -0.1178 -0.0644  0.2958
  757W        W 4501   9.366   0.641  11.081 -0.2398 -0.2139  0.0614
  758W        W 4502   8.185   1.049  11.151  0.2623  0.1167  0.5510
  759W        W 4503   3.582   7.539   0.910  0.1551  0.0674 -0.1870
  760W        W 4504   5.126   1.628  12.834  0.1476  0.0853  0.0244
  761W        W 4505   2.664   1.865   1.048 -0.1179  0.1217 -0.1019
  762W        W 4506   1.110   6.884   2.067 -0.0885 -0.1275  0.1970
  763W        W 4507   8.245   2.179   9.047  0.3639 -0.0648 -0.2558
  764W        W 4508   1.039   3.636   0.645  0.0699  0.1031 -0.0214
  765W        W 4509   9.730   5.303  12.025  0.4807 -0.3178 -0.0893
  766W        W 4510   7.954   6.854   1.687 -0.0268  0.0937  0.0684
  767W        W 4511   9.760   2.055   8.923 -0.3882 -0.0352 -0.1460
  768W        W 4512   3.235   7.731  12.650  0.0034  0.1354  0.2733
  769W        W 4513   9.377   9.320  12.161  0.0653 -0.2581 -0.1561
  770W        W 4514   4.739   8.520  10.675 -0.0177 -0.0711  0.0630
  771W        W 4515   7.922   0.623   3.790 -0.0375  0.1554 -0.4820
  772W        W 4516   0.198   1.342  10.822 -0.2861 -0.1607 -0.0454
  773W        W 4517   5.708   8.328   1.817 -0.2373  0.2915  0.1467
  774W        W 4518   6.118   5.135   1.398  0.0360  0.1677 -0.5306
  775W        W 4519   8.940   8.169  10.818  0.0145  0.2574 -0.0031
  776W        W 4520   1.909   4.169   3.910 -0.4124  0.2375  0.1699
  777W        W 4521   2.715   2.205   9.576 -0.0497  0.1024  0.0989
  778W        W 4522   8.308   7.366  11.735 -0.4061  0.1533  0.1400
  779W        W 4523   0.200   3.771   2.754 -0.1490 -0.1033  0.0570
  780W        W 4524   9.065   8.104   0.493  0.2674  0.2481  0.1124
  781W        W 4525   3.373   6.259   0.114 -0.1224  0.2383  0.3807
  782W        W 4526   4.272   7.288   4.653  0.4269  0.1030  0.3289
  783W        W 4527   4.820   7.938  12.229 -0.0456 -0.1696  0.1368
  784W        W 4528   4.840   0.867   2.991 -0.0183 -0.2714 -0.1114
  785W        W 4529   6.958   3.592  10.858 -0.2161 -0.0586 -0.3041
  786W        W 4530   0.795   6.901   2.956 -0.1338 -0.4074  0.3245
  787W        W 4531   6.053   6.468   0.993 -0.1057  0.0120  0.1997
  788W        W 4532   2.663   2.960   3.604 -0.0783 -0.0725 -0.0362
  789W        W 4533   4.219   1.768  10.226 -0.1366  0.0586  0.0421
  790W        W 4534   8.670   6.978   9.513  0.2412  0.1232 -0.1147
  791W        W 4535   4.698   3.788  11.082 -0.3714 -0.1238 -0.2145
  792W        W 4536   7.330   3.315   0.782 -0.1096 -0.0202  0.0547
  793W        W 4537   3.490   5.960  12.577 -0.0478  0.1381 -0.0962
  794W        W 4538   8.728   5.376  10.907 -0.2157  0.2420  0.1421
  795W        W 4539   9.639   9.356   4.734  0.2045 -0.0145  0.2682
  796W        W 4540   1.717   7.855  12.377  0.1621  0.2198  0.1136
  797W        W 4541   0.308   1.527   4.177  0.1591 -0.2137  0.0978
  798W        W 4542   6.321   7.122   0.129 -0.3988 -0.2314 -0.0615
  799W        W 4543   0.045   7.660   9.195 -0.0031 -0.0638 -0.0314
  800W        W 4544   3.377   0.598   0.607  0.1993 -0.1002  0.1452
  801W        W 4545   6.988   1.907   9.516 -0.1778  0.0041  0.0452
  802W        W 4546   3.181   2.368   0.809  0.1739  0.1941 -0.1747
  803W        W 4547   6.124   5.059   1.929 -0.0915  0.2497 -0.1060
  804W        W 4548   0.732   6.069   9.964 -0.1226  0.0226  0.2591
  805W        W 4549   2.615   6.917   2.212 -0.2920 -0.0169 -0.2359
  806W        W 4550   9.747   5.285  12.499 -0.0537  0.1125 -0.0359
  807W        W 4551   8.464   3.328   9.282  0.0437  0.0344 -0.0436
  808W        W 4552   0.158   4.257   9.058  0.1357 -0.1399  0.1343
  809W        W 4553   0.224   8.382   4.618  0.1669 -0.1233 -0.2135
  810W        W 4554   0.642   3.286   8.904  0.3757 -0.1738  0.0868
  811W        W 4555   4.320   8.402   3.783 -0.1885  0.0546 -0.2100
  812W        W 4556   5.906   4.526  10.976 -0.0260  0.0121  0.2195
  813W        W 4557   2.918   6.890   8.576 -0.1082  0.2883  0.0892
  814W        W 4558   3.833   8.124   2.563 -0.0707  0.1424 -0.0319
  815W        W 4559   1.671   5.625  10.083  0.2246 -0.1740 -0.5698
  816W        W 4560   2.825   5.292   2.434 -0.0338  0.2560 -0.1472
  817W        W 4561   2.670   6.072   8.218  0.0147 -0.1598 -0.1171
  818W        W 4562   9.890   1.966   0.807 -0.0402 -0.1049  0.1949
  819W        W 4563   3.602   8.505   9.348  0.1458  0.4272  0.2855
  820W        W 4564   2.444   9.293   9.034  0.2481  0.0343 -0.2813
  821W        W 4565   6.528   4.588  12.181  0.0158 -0.4188  0.2641
  822W        W 4566   0.904   5.753   3.770  0.0831  0.3682  0.1208
  823W        W 4567   2.638   6.601  12.161 -0.1563 -0.4057 -0.0660
  824W        W 4568   7.571   7.779  12.756  0.0845 -0.0066 -0.3094
  825W        W 4569   6.102   4.122  11.205  0.1303  0.1955 -0.0519
  826W        W 4570   6.208   2.207  10.554 -0.0356 -0.0178  0.1186
  827W        W 4571   0.979   9.115   1.038  0.1250  0.0100  0.0886
  828W        W 4572   5.848   9.189  11.271  0.2444  0.1082 -0.2513
  829W        W 4573   4.525   6.261  10.748  0.0096  0.1467  0.2442
  830W        W 4574   3.351   1.490   9.616  0.2263  0.0956  0.3158
  831W        W 4575   5.714   7.671   9.155  0.2884 -0.0520 -0.0119
  832W        W 4576   4.499   2.719  10.360  0.0113  0.0478  0.0076
  833W        W 4577   4.567   4.965   9.543  0.0420  0.2736  0.3388
  834W        W 4578   2.642   6.766   2.745  0.0921 -0.2181 -0.2659
  835W        W 4579   8.104   2.172  11.402 -0.1351  0.0135 -0.0151
  836W        W 4580   1.100   1.691   1.804  0.0360  0.4459 -0.2226
  837W        W 4581   4.714   4.063   3.957 -0.1116 -0.1126 -0.0506
  838W        W 4582   4.100   7.370  11.919 -0.0034  0.0657 -0.1059
  839W        W 4583   1.312   1.792   8.760 -0.2277  0.1595  0.1653
  840W        W 4584   3.603   4.878   0.912 -0.1082 -0.2864 -0.0429
  841W        W 4585   6.383   2.565  11.361  0.0445 -0.2838 -0.2557
  842W        W 4586   9.618   7.355  10.008 -0.0327  0.1967 -0.4451
  843W        W 4587   5.597   8.058   5.131 -0.1368 -0.0408  0.0666
  844W        W 4588   2.877   2.821  12.509  0.0041  0.0971  0.1035
  845W        W 4589   5.071   2.085  11.596 -0.3299  0.2170  0.1968
  846W        W 4590   4.163   5.619  12.872 -0.0685 -0.0946  0.1877
  847W        W 4591   2.877   8.410   2.801 -0.0861  0.0848 -0.1296
  848W        W 4592   2.696   6.271   9.137 -0.0234  0.1459 -0.0979
  849W        W 4593   5.443   3.491   3.190 -0.2094  0.1629 -0.0327
  850W        W 4594   9.711   9.302   2.587 -0.1461  0.2436 -0.0482
  851W        W 4595   4.685   9.201   2.893 -0.1639 -0.2452  0.0381
  852W        W 4596   8.417   0.482   9.103  0.5334 -0.1240  0.0609
  853W        W 4597   6.554   4.042  12.000 -0.1426  0.0947  0.0964
  854W        W 4598   7.820   3.378   1.399  0.1878  0.3151 -0.2820
  855W        W 4599   6.367   2.478   3.558 -0.0896  0.3353 -0.3063
  856W        W 4600   4.296   6.998  12.234 -0.1359  0.0522  0.0521
  857W        W 4601   7.059   8.617   1.915 -0.3543  0.3474 -0.0749
  858W        W 4602   2.124   9.388   0.884 -0.0518  0.1673 -0.1265
  859W        W 4603   6.278   0.094  11.367 -0.2531  0.2973 -0.1218
  860W        W 4604   7.579   8.465  11.224  0.0683  0.3126  0.0026
  861W        W 4605   6.876   4.258   2.126 -0.0971  0.0324  0.3264
  862W        W 4606   0.556   2.776   9.789  0.1438 -0.1345 -0.1167
  863W        W 4607   3.953   9.168   9.695 -0.1519  0.1221 -0.2721
  864W        W 4608   3.549   7.374   4.979  0.0154  0.1331 -0.2280
  865W        W 4609   1.223   5.416   2.199  0.2447  0.2589 -0.3188
  866W        W 4610   9.864   2.326   8.388  0.0749 -0.3351  0.4625
  867W        W 4611   3.142   7.871   9.851 -0.0713 -0.3069 -0.3945
  868W        W 4612   1.060   6.088   2.052 -0.1151  0.0436  0.3645
  869W        W 4613   3.045   6.013   0.454 -0.2805  0.1423 -0.1760
  870W        W 4614   6.656   8.683  11.597 -0.0368 -0.3171  0.0777
  871W        W 4615   3.198   7.439  11.314  0.0659  0.0575  0.1112
  872W        W 4616   7.806   3.806   9.785  0.2312 -0.0283 -0.3371
  873W        W 4617   7.209   6.348  11.644 -0.1464  0.2217 -0.0849
  874W        W 4618   7.514   4.534  11.455 -0.0749  0.1662 -0.0170
  875W        W 4619   9.131   4.865  11.360  0.0342  0.0938 -0.1086
  876W        W 4620   2.327   6.220  11.143 -0.1788 -0.2446  0.3182
  877W        W 4621   9.732   6.662   9.151 -0.3694 -0.0305 -0.0062
  878W        W 4622   6.197   6.647   9.651  0.1464 -0.0118  0.3482
  879W        W 4623   4.125   6.918   1.984  0.0190  0.3486  0.0459
  880W        W 4624   5.704   2.437   2.444 -0.3498  0.1329 -0.1708
  881W        W 4625   4.353   9.174  11.159 -0.3899 -0.0212  0.0291
  882W        W 4626   2.150   6.933  10.165  0.2147 -0.1274 -0.0433
  883W        W 4627   4.733   4.632  11.863  0.0721  0.0526  0.3303
  884W        W 4628   6.832   0.474   0.712 -0.0046  0.0284  0.2382
  885W        W 4629   7.005   6.464   2.965  0.0529  0.3509  0.1179
  886W        W 4630   0.365   8.391   8.298 -0.4186 -0.3521 -0.2035
  887W        W 4631   1.702   1.313   4.450 -0.1222  0.1410 -0.0347
  888W        W 4632   2.185   7.949   9.777  0.1306  0.1557 -0.3370
  889W        W 4633   1.395   8.046   9.463 -0.2591  0.0777  0.0894
  890W        W 4634   0.249   7.835  10.603  0.0635  0.1367 -0.2917
  891W        W 4635   4.698   6.413   1.034 -0.2092  0.1654 -0.1402
  892W        W 4636   3.020   8.282   3.283  0.0208  0.1470 -0.2456
  893W        W 4637   0.956   4.228   2.319 -0.2636 -0.2114 -0.2372
  894W        W 4638   2.050   8.396   8.873 -0.1801 -0.2007 -0.0827
  895W        W 4639   5.379   7.963  12.351 -0.0748  0.2102  0.0462
  896W        W 4640   9.756   5.738   0.270 -0.2503  0.3096 -0.4730
  897W        W 4641   6.022   8.514   9.901 -0.1907 -0.0457 -0.1786
  898W        W 4642   7.036   5.085   3.680  0.2758 -0.0087 -0.1383
  899W        W 4643   6.504   7.586  11.385 -0.2296 -0.1238  0.1354
  900W        W 4644   6.955   6.114  11.208  0.0834 -0.1778  0.0278
  901W        W 4645   5.181   4.556   9.050  0.0454  0.1834  0.2270
  902W        W 4646   6.924   1.437   1.293  0.2499 -0.0287  0.3408
  903W        W 4647   2.910   6.125   0.945 -0.0941  0.1866  0.6590
  904W        W 4648   9.769   9.646  12.625  0.1157 -0.2130  0.2408
  905W        W 4649   3.384   4.530  12.129  0.3375  0.3366 -0.4451
  906W        W 4650   0.685   2.458  11.391 -0.0939 -0.0699  0.2374
  907W        W 4651   0.457   2.124   0.707  0.2921  0.2886  0.1366
  908W        W 4652   0.537   2.503  10.846  0.1716 -0.0916 -0.0528
  909W        W 4653   9.520   7.311   2.000 -0.0333 -0.1641 -0.2425
  910W        W 4654   5.020   7.673  11.819  0.0756 -0.0380 -0.3379
  911W        W 4655   8.777   0.105  12.349  0.4601 -0.3173  0.1067
  912W        W 4656   7.071   5.060   9.263 -0.2803  0.2281 -0.0714
  913W        W 4657   5.027   6.845   1.070 -0.1351 -0.0539  0.1102
  914W        W 4658   2.833   9.036   2.065  0.2468 -0.1698  0.1390
  915W        W 4659   4.423   7.950  12.662 -0.0136 -0.3446 -0.1499
  916W        W 4660   3.297   8.087   0.392 -0.0233  0.1827 -0.2152
  917W        W 4661   3.955   9.423   0.527  0.0197  0.0528  0.1768
  918W        W 4662   2.093   7.609   0.894  0.1886  0.2663 -0.0563
  919W        W 4663   0.119   0.064   3.637 -0.1553  0.0004 -0.0980
  920W        W 4664   8.283   7.250   1.884  0.1976 -0.0169  0.4034
  921W        W 4665   4.608   0.131   2.171 -0.0891 -0.0942  0.0591
  922W        W 4666   3.109   8.277  10.866  0.2100 -0.0722 -0.0710
  923W        W 4667   2.903   6.491   3.672 -0.3017 -0.0270  0.0429
  924W        W 4668   3.966   8.033  12.484 -0.0941  0.1638 -0.8490
  925W        W 4669   0.161   8.699   3.649 -0.3105  0.1274  0.0792
  926W        W 4670   4.060   0.164   0.048 -0.1933 -0.0711  0.0632
  927W        W 4671   6.343   8.057   9.188  0.0187 -0.4321  0.0717
  928W        W 4672   6.755   3.403   2.547  0.4279 -0.0672 -0.2197
  929W        W 4673   1.543   5.458   8.715  0.2443 -0.0411  0.1822
  930W        W 4674   9.560   1.090   8.805 -0.0300  0.0055 -0.1573
  931W        W 4675   0.381   4.991  11.043 -0.0783  0.1474  0.1352
  932W        W 4676   5.999   2.156   0.450 -0.0827 -0.0486 -0.4453
  933W        W 4677   6.171   8.349  11.931  0.0355  0.1673 -0.0310
  934W        W 4678   7.924   1.573   3.712  0.1630  0.0787  0.0499
  935W        W 4679   3.354   1.673   0.321 -0.1129 -0.2097 -0.0593
  936W        W 4680   0.886   6.373   0.832  0.1649 -0.2763  0.0919
  937W        W 4681   8.997   0.219   2.174  0.3890  0.1503 -0.1808
  938W        W 4682   6.573   0.492   1.145  0.4584  0.0033  0.2828
  939W        W 4683   3.672   6.279  12.233 -0.0612  0.3315 -0.2742
  940W        W 4684   8.857   3.742   9.900 -0.1076 -0.3681  0.1962
  941W        W 4685   9.631   4.732   8.843 -0.3297  0.1282 -0.2230
  942W        W 4686   5.790   9.427   9.537  0.0176 -0.0971 -0.3019
  943W        W 4687   5.751   3.176   2.858  0.1513 -0.1685  0.0199
  944W        W 4688   5.503   4.772   3.581  0.1396  0.4431  0.1263
  945W        W 4689   0.042   2.214   3.394  0.0551 -0.1032  0.3310
  946W        W 4690   2.916   8.315  11.654  0.2120  0.1158  0.2923
  947W        W 4691   1.265   7.792   1.953  0.0486  0.0959  0.1141
  948W        W 4692   5.564   2.311  11.055  0.0593 -0.4838  0.1275
  949W        W 4693   9.436   7.973   9.861  0.3080 -0.0712  0.4769
  950W        W 4694   8.548   9.212  11.336  0.3369 -0.1529  0.0185
  951W        W 4695   9.704   7.898  10.387 -0.2034 -0.3091  0.3062
  952W        W 4696   9.354   8.401   4.145  0.2578  0.1326 -0.1335
  953W        W 4697   6.715   7.782  10.086  0.0191 -0.0384 -0.0023
  954W        W 4698   5.441   6.149   0.307 -0.0703  0.0063  0.2232
  955W        W 4699   1.958   0.530   4.666  0.0514 -0.1083  0.0421
  956W        W 4700   7.941   4.805  11.437  0.0601  0.0343  0.5347
  957W        W 4701   5.506   5.045  12.948  0.0514 -0.0975 -0.0856
  958W        W 4702   0.536   8.140  11.515 -0.0615 -0.1419 -0.0234
  959W        W 4703   9.523   7.178   2.477 -0.1490  0.0236 -0.0385
  960W        W 4704   2.524   1.446   2.271 -0.0728 -0.1584 -0.0699
  961W        W 4705   4.444   1.045   9.553  0.0369 -0.0654  0.2742
  962W        W 4706   9.791   3.543   3.101  0.0606  0.2252 -0.2039
  963W        W 4707   2.803   8.527   9.342  0.2346 -0.0336  0.0142
  964W        W 4708   7.849   5.897   1.922 -0.2567  0.0119 -0.1596
  965W        W 4709   5.266   4.633   0.274 -0.2541 -0.0964 -0.1041
  966W        W 4710   0.737   4.765   4.579 -0.2294 -0.0254 -0.0398
  967W        W 4711   9.237   5.620   1.325  0.0662 -0.2495  0.4054
  968W        W 4712   6.244   5.857   2.980 -0.0759  0.1697 -0.0167
  969W        W 4713   9.666   8.434  12.253 -0.2228 -0.2783 -0.0537
  970W        W 4714   1.005   5.263  10.119  0.2418  0.3236 -0.2849
  971W        W 4715   7.470   5.386  12.703 -0.1322  0.2683  0.1077
  972W        W 4716   0.539   6.097   2.107 -0.5504  0.1730 -0.0863
  973W        W 4717   1.681   0.404  11.972 -0.2657 -0.0463 -0.1255
  974W        W 4718   7.709   1.346   3.187  0.1531 -0.1558 -0.0294
  975W        W 4719   8.694   1.563   1.820 -0.0798 -0.0854 -0.0618
  976W        W 4720   8.287   0.485  12.457  0.3449  0.0949  0.2222
  977W        W 4721   0.465   5.777   1.395  0.0476  0.1249  0.2266
  978W        W 4722   8.675   6.759   2.517 -0.1743  0.0953 -0.0606
  979W        W 4723   0.317   1.808  12.628  0.1319 -0.1955  0.3101
  980W        W 4724   7.023   7.843   1.177 -0.0152 -0.1360  0.5142
  981W        W 4725   3.544   0.636   1.190  0.3837 -0.2881  0.1378
  982W        W 4726   8.565   4.697  10.110  0.1280 -0.1216 -0.0086
  983W        W 4727   2.975   6.764   4.762 -0.1300 -0.0098 -0.0951
  984W        W 4728   7.665   4.765   2.474  0.0970 -0.0329  0.0948
  985W        W 4729   5.553   5.837  12.084 -0.1284  0.0491 -0.3303
  986W        W 4730   9.873   8.599   1.848  0.2562 -0.1597 -0.0902
  987W        W 4731   1.873   0.472  10.010 -0.0309  0.1990  0.0431
  988W        W 4732   6.259   6.829  12.591  0.1481  0.0102 -0.2387
  989W        W 4733   5.843   9.150   3.156  0.1109  0.0038  0.1039
  990W        W 4734   0.138   9.213   1.329  0.1094 -0.0927  0.0131
  991W        W 4735   6.622   5.829   9.856  0.2787  0.3096  0.0797
  992W        W 4736   3.613   0.117  12.767 -0.1547 -0.3435 -0.0942
  993W        W 4737   6.522   6.287  10.033  0.0117  0.2421 -0.0382
  994W        W 4738   7.481   2.251   1.610  0.3574 -0.0355 -0.1711
  995W        W 4739   8.705   9.197   2.752 -0.2331 -0.3359  0.1291
  996W        W 4740   0.660   6.988   4.656 -0.3321 -0.0143  0.1774
  997W        W 4741   0.437   5.721   4.832 -0.0746  0.0768 -0.0711
  998W        W 4742   1.205   3.045  11.863  0.1204  0.2852  0.0748
  999W        W 4743   6.972   2.742   9.559 -0.0596  0.0675 -0.1326
 1000W        W 4744   5.406   4.720   1.982 -0.2650  0.0750  0.0396
 1001W        W 4745   6.128   4.433   3.482  0.1255 -0.3048  0.0793
 1002W        W 4746   7.742   5.692  10.480  0.0075  0.3047 -0.0848
 1003W        W 4747   8.463   9.034  11.860  0.0109 -0.1286  0.0647
 1004W        W 4748   0.601   1.500  11.850  0.3443 -0.0907  0.2800
 1005W        W 4749   0.142   4.133   0.398  0.2585 -0.1819  0.0320
 1006W        W 4750   8.456   1.907   3.827 -0.1132 -0.0055 -0.0866
 1007W        W 4751   7.904   0.998   0.802  0.1035  0.2050  0.3072
 1008W        W 4752   4.579   6.024   2.024 -0.0882 -0.3412 -0.0885
 1009W        W 4753   8.691   4.001   9.544 -0.1445  0.1114 -0.2521
 1010W        W 4754   2.164   6.276   1.423 -0.1599 -0.0394  0.2409
 1011W        W 4755   2.532   5.221   9.950  0.0352  0.0947  0.1180
 1012W        W 4756   4.003   4.513   3.298  0.0297  0.0545  0.1455
 1013W        W 4757   6.763   2.486   2.204 -0.0165  0.0624 -0.3648
 1014W        W 4758   5.550   8.403   4.040 -0.0168 -0.0302  0.0591
 1015W        W 4759   0.518   6.762   2.553  0.3274  0.0961 -0.2174
 1016W        W 4760   5.262   3.152   2.245 -0.4175 -0.0997  0.1395
 1017W        W 4761   1.339   5.905   0.345  0.1926 -0.2448  0.1963
 1018W        W 4762   6.193   4.952   8.963  0.0345  0.1704 -0.0056
 1019W        W 4763   5.706   1.335  11.436  0.0148 -0.0375  0.0004
 1020W        W 4764   2.310   8.813   3.734 -0.1459  0.0855 -0.1423
 1021W        W 4765   0.826   4.756  10.132 -0.0036  0.0370 -0.0005
 1022W        W 4766   5.898   1.155   0.382  0.0017 -0.0018 -0.0320
 1023W        W 4767   7.823   1.831   9.684 -0.3101  0.3224  0.2085
 1024W        W 4768   7.414   2.992   9.150 -0.1535  0.3477  0.3311
 1025W        W 4769   4.410   7.146  11.550 -0.2060  0.2613  0.2256
 1026W        W 4770   2.354   8.932   1.273 -0.1157 -0.3076 -0.0846
 1027W        W 4771   9.246   1.886   4.099  0.1212  0.3353 -0.0382
 1028W        W 4772   6.142   7.103   1.747 -0.0173  0.1995  0.0966
 1029W        W 4773   5.323   9.250  11.971 -0.0965 -0.1739  0.4457
 1030W        W 4774   4.958   8.122   2.059 -0.0412 -0.0015 -0.0041
 1031W        W 4775   5.440   9.513  12.776  0.1490  0.1110 -0.4669
 1032W        W 4776   0.562   7.097   1.185 -0.1718 -0.1161  0.1775
 1033W        W 4777   9.812   7.310  10.895 -0.0158 -0.2057 -0.3203
 1034W        W 4778   4.783   4.696   1.417  0.0866  0.1553  0.1188
 1035W        W 4779   6.308   3.351   3.437 -0.2974 -0.1871 -0.0420
 1036W        W 4780   1.821   8.877  11.051 -0.0238 -0.2946  0.0175
 1037W        W 4781   5.649   8.385  11.845 -0.0796  0.1545  0.2614
 1038W        W 4782   4.554   3.810  11.847  0.3091 -0.0826  0.2898
 1039W        W 4783   8.734   4.349   0.024  0.0550  0.2558  0.1554
 1040W        W 4784   1.747   9.699   0.796  0.1067 -0.0439  0.1204
 1041W        W 4785   7.473   1.439  12.885 -0.0576  0.0182 -0.1196
 1042W        W 4786   9.662   7.519   3.557  0.1194  0.1379  0.2246
 1043W        W 4787   3.104   8.230   3.885  0.1016  0.1239 -0.0613
 1044W        W 4788   0.461   0.584   9.660 -0.2069  0.0384 -0.0359
 1045W        W 4789   9.283   6.709   4.842 -0.1410 -0.1804  0.1889
 1046W        W 4790   6.908   8.739  12.080  0.1715  0.1420  0.2676
 1047W        W 4791   9.395   0.552  10.567 -0.2582 -0.0693 -0.0824
 1048W        W 4792   4.057   6.482   0.635 -0.1110  0.2240  0.0499
 1049W        W 4793   1.896   6.801   1.080  0.0465  0.0919 -0.1673
 1050W        W 4794   0.850   7.370  12.639  0.0122 -0.1963 -0.2024
 1051W        W 4795   2.026   2.417   3.820  0.3787  0.2842  0.1567
 1052W        W 4796   4.547   8.264   9.610 -0.1693  0.1892 -0.1244
 1053W        W 4797   2.593   6.135   0.266  0.0513 -0.1803 -0.3312
 1054W        W 4798   6.653   0.848  12.267 -0.0057  0.2764  0.2213
 1055W        W 4799   9.173   6.072   2.893  0.0048 -0.2081  0.3164
 1056W        W 4800   6.959   6.114   0.689 -0.1087 -0.2186  0.0376
 1057W        W 4801   9.715   3.986   2.882 -0.0743 -0.0355  0.1191
 1058W        W 4802   2.813   0.435   0.161 -0.1147 -0.0376 -0.2446
 1059W        W 4803   1.069   9.242  12.923  0.1646 -0.1431 -0.2519
 1060W        W 4804   0.514   0.008   0.953  0.3564 -0.3245 -0.1224
 1061W        W 4805   2.126   3.414  12.883 -0.0890  0.2216 -0.2613
 1062W        W 4806   8.444   2.523   4.256 -0.2834 -0.3195  0.0985
 1063W        W 4807   7.767   6.440   9.510  0.0931  0.1264 -0.0959
 1064W        W 4808   4.723   2.618  12.131  0.3014 -0.0809 -0.0367
 1065W        W 4809   9.137   8.042  12.461  0.1466 -0.0167  0.0985
 1066W        W 4810   3.327   3.111  11.965  0.0463 -0.2367  0.1119
 1067W        W 4811   5.881   7.526  11.129 -0.0954 -0.2065 -0.1652
 1068W        W 4812   4.897   5.195  11.036 -0.3531  0.0360  0.0633
 1069W        W 4813   6.305   3.999   9.186  0.0975 -0.1359  0.1431
 1070W        W 4814   9.540   7.040  11.245  0.2931 -0.0335 -0.1654
 1071W        W 4815   7.349   4.864  11.103 -0.0791 -0.0719 -0.0956
 1072W        W 4816   3.109   2.704  12.915  0.0278 -0.0223 -0.0043
 1073W        W 4817   0.066   0.183   0.829  0.1940  0.4071  0.0780
 1074W        W 4818   0.602   1.441   2.953  0.0798  0.2391  0.1199
 1075W        W 4819   7.496   8.265   0.248  0.0267  0.0136  0.6187
 1076W        W 4820   8.948   0.688  10.642  0.1150  0.2343 -0.0553
 1077W        W 4821   6.752   3.287  12.271 -0.4349  0.0791  0.1272
 1078W        W 4822   0.825   5.998   4.723  0.1025 -0.0129 -0.0714
 1079W        W 4823   3.616   0.748  12.030 -0.0201 -0.0264 -0.0633
 1080W        W 4824   2.177   8.147   3.370  0.2457 -0.3177 -0.2860
 1081W        W 4825   8.870   6.504  12.669  0.3150  0.1904  0.2796
 1082W        W 4826   7.443   9.026   1.819  0.1426 -0.1583 -0.0376
 1083W        W 4827   6.054   6.318   3.027 -0.0605 -0.1263 -0.0385
 1084W        W 4828   6.853   8.789   0.037 -0.2454  0.0419  0.5929
 1085W        W 4829   4.190   2.343   1.964  0.2136 -0.1627 -0.0700
 1086W        W 4830   5.827   2.959   2.347  0.0641  0.0825 -0.1026
 1087W        W 4831   7.488   3.869   3.787 -0.2945  0.3181  0.1335
 1088W        W 4832   8.981   3.540  11.048  0.2441  0.0608  0.5737
 1089W        W 4833   9.426   0.080  10.552 -0.2363 -0.0899 -0.0362
 1090W        W 4834   2.724   3.156   1.848 -0.1137 -0.0653  0.0837
 1091W        W 4835   8.557   1.289   3.313 -0.1034  0.2441 -0.1763
 1092W        W 4836   1.304   0.890   9.520 -0.1351 -0.0091  0.1811
 1093W        W 4837   4.486   2.806   1.571 -0.0231 -0.1324 -0.0170
 1094W        W 4838   0.614   0.811   4.111 -0.1305  0.1212 -0.2926
 1095W        W 4839   9.555   7.020   9.652  0.4470 -0.0306  0.0959
 1096W        W 4840   8.894   2.811  11.002  0.1390  0.0287 -0.3012
 1097W        W 4841   8.152   9.235  12.708  0.1514  0.2907 -0.2163
 1098W        W 4842   9.795   9.412   3.047 -0.0526 -0.0084 -0.2059
 1099W        W 4843   0.051   1.796   1.685 -0.0823  0.1761  0.0221
 1100W        W 4844   5.507   9.574  10.114 -0.0381  0.2366 -0.1051
 1101W        W 4845   5.330   2.355   1.660  0.0426 -0.0055 -0.2740
 1102W        W 4846   6.092   2.745   2.729  0.1161  0.3724  0.4964
 1103W        W 4847   5.068   5.355   0.148 -0.1631 -0.1790 -0.1091
 1104W        W 4848   8.384   3.618   9.697  0.0626  0.0073  0.0354
 1105W        W 4849   6.171   1.832   0.958 -0.1716 -0.0794  0.0508
 1106W        W 4850   4.447   7.847   3.419  0.0870  0.0527 -0.2566
 1107W        W 4851   4.078   6.759   2.554 -0.4699  0.1927  0.2906
 1108W        W 4852   6.991   7.015  10.032  0.2146 -0.1815 -0.3314
 1109W        W 4853   3.790   7.472  10.467 -0.1723 -0.1461 -0.1425
 1110W        W 4854   3.217   8.249  10.332  0.0297  0.3578  0.1060
 1111W        W 4855   1.136   0.950  11.137  0.0634 -0.0786  0.0856
 1112W        W 4856   1.664   8.322   3.337  0.1761  0.2804 -0.1260
 1113W        W 4857   7.033   5.569   9.998  0.3443  0.0796 -0.1434
 1114W        W 4858   0.122   5.505  12.875 -0.0685  0.1317 -0.1638
 1115W        W 4859   2.615   8.031   3.176  0.1170 -0.1513  0.0097
 1116W        W 4860   7.012   8.285   4.378 -0.1592  0.0969 -0.1603
 1117W        W 4861   6.175   6.812   2.946  0.2793 -0.0783 -0.0703
 1118W        W 4862   4.371   9.289   2.151  0.0792 -0.1050  0.0362
 1119W        W 4863   8.173   1.618   3.221 -0.2780 -0.0175  0.1415
 1120W        W 4864   6.097   4.243  11.942  0.2050 -0.3538  0.0679
 1121W        W 4865   2.687   9.569   9.977 -0.2436 -0.1224  0.0816
 1122W        W 4866   1.014   4.055   0.372 -0.0455  0.0207  0.0656
 1123W        W 4867   7.980   2.838   1.602  0.3986 -0.0073  0.1523
 1124W        W 4868   8.749   9.405   0.474 -0.2589  0.2700  0.2889
 1125W        W 4869   3.207   7.828   1.360  0.1998 -0.0510  0.1618
 1126W        W 4870   0.802   0.001   0.257 -0.1129  0.1337  0.1351
 1127W        W 4871   0.553   5.203   0.078 -0.1830 -0.3036 -0.1527
 1128W        W 4872   4.467   3.767   3.464  0.0650 -0.0663  0.3150
 1129W        W 4873   0.659   1.429   5.396  0.4344  0.0235  0.0238
 1130W        W 4874   7.821   0.509   2.541  0.1833  0.1904  0.1766
 1131W        W 4875   3.925   1.326  10.427  0.0823 -0.5759 -0.2344
 1132W        W 4876   7.414   8.750   0.025 -0.0759 -0.0234  0.2091
 1133W        W 4877   8.117   2.427   0.583 -0.2800 -0.0026  0.3846
 1134W        W 4878   0.302   0.255  10.071  0.0652  0.2554 -0.1296
 1135W        W 4879   1.335   5.125  12.752  0.3087  0.4925  0.0201
 1136W        W 4880   1.020   1.513  10.383  0.0876  0.0794  0.2010
 1137W        W 4881   0.532   3.760  11.806  0.0717 -0.0762  0.1612
 1138W        W 4882   3.017   2.762   9.641 -0.0946 -0.1071 -0.2267
 1139W        W 4883   1.049   3.054   9.096 -0.1042 -0.0795  0.1832
 1140W        W 4884   0.564   1.292   1.371 -0.1075  0.4757 -0.2962
 1141W        W 4885   2.633   1.045  10.374 -0.1218  0.2068 -0.0120
 1142W        W 4886   1.651   7.773   4.802  0.1129 -0.1294 -0.3299
 1143W        W 4887   1.604   9.655   1.711  0.1109 -0.0331  0.0045
 1144W        W 4888   9.030   7.968   5.140  0.1109  0.1659  0.1548
 1145W        W 4889   3.893   9.217   2.401 -0.2660 -0.2043 -0.0152
 1146W        W 4890   5.318   0.153   2.868 -0.0825  0.5757 -0.2689
 1147W        W 4891   2.288   7.277   2.233  0.0042 -0.1971 -0.1160
 1148W        W 4892   3.378   9.510   2.329 -0.2090 -0.1109  0.0420
 1149W        W 4893   9.663   5.528   2.033 -0.0317 -0.3039 -0.0502
 1150W        W 4894   7.445   0.598   3.484  0.0124  0.1992 -0.0246
 1151W        W 4895   1.329   7.667   9.064  0.6250 -0.1540 -0.0542
 1152W        W 4896   1.738   9.278   3.101  0.0333  0.0430  0.2863
 1153W        W 4897   1.937   0.162   9.453 -0.0397 -0.3341 -0.2299
 1154W        W 4898   9.313   3.706  10.660  0.3533  0.3066 -0.2291
 1155W        W 4899   8.767   0.704   0.229 -0.0345  0.1847  0.0377
 1156W        W 4900   5.075   0.365   0.679  0.1496  0.1167  0.0713
 1157W        W 4901   8.816   1.511   9.554  0.1899 -0.0850  0.2742
 1158W        W 4902   0.470   8.634   0.174  0.2061  0.1270 -0.1596
 1159W        W 4903   3.622   9.246   0.891  0.0431 -0.0380 -0.0653
 1160W        W 4904   1.798   6.154  12.123 -0.3405  0.2724 -0.1764
 1161W        W 4905   5.359   9.042   1.691 -0.0549 -0.1609  0.0775
 1162W        W 4906   1.087   0.735   3.811  0.0537  0.3607 -0.3364
 1163W        W 4907   5.123   6.064  11.972  0.0435 -0.0724  0.2718
 1164W        W 4908   1.194   1.879   9.811  0.1470  0.0470  0.3076
 1165W        W 4909   3.333   9.450  11.685  0.2640  0.0083  0.1154
 1166W        W 4910   2.091   5.284  10.220  0.2551  0.1549  0.1752
 1167W        W 4911   1.192   2.932   2.718  0.1049 -0.0505 -0.1127
 1168W        W 4912   2.844   5.556   8.887  0.3607 -0.1366 -0.1121
 1169W        W 4913   9.169   9.544  10.255 -0.0563 -0.1300  0.2284
 1170W        W 4914   4.965   2.865   0.410 -0.0992  0.1913 -0.0375
 1171W        W 4915   6.747   3.033  11.751  0.0609  0.3003  0.0018
 1172W        W 4916   5.207   4.391  11.591  0.1132 -0.1674 -0.0196
 1173W        W 4917   5.815   4.851   0.327 -0.1020  0.3966 -0.2209
 1174W        W 4918   3.279   7.351   1.702 -0.3424  0.3436 -0.0178
 1175W        W 4919   3.122   0.159   1.923 -0.0726 -0.2449 -0.1042
 1176W        W 4920   1.220   6.101   9.317 -0.1616  0.3051 -0.1248
 1177W        W 4921   4.349   4.121  12.250 -0.0988 -0.1749 -0.1542
 1178W        W 4922   9.121   0.664   9.635 -0.0805  0.3699  0.1465
 1179W        W 4923   6.803   9.030   0.729  0.1307  0.0080  0.1821
 1180W        W 4924   4.751   2.140   1.017  0.1366  0.0347  0.0720
 1181W        W 4925   1.891   6.977   8.853 -0.1178  0.2351  0.0295
 1182W        W 4926   6.295   7.553   4.106  0.0109 -0.1028 -0.1564
 1183W        W 4927   3.949   1.447   2.733  0.0582 -0.0441 -0.0495
 1184W        W 4928   7.296   4.395   9.263 -0.1063  0.0688 -0.0216
 1185W        W 4929   5.919   7.580   9.617  0.3401  0.0440 -0.1390
 1186W        W 4930   9.037   5.135   2.032 -0.0139  0.3213  0.1328
 1187W        W 4931   1.660   0.773   0.836 -0.4388 -0.2684 -0.0328
 1188W        W 4932   5.271   5.773   2.695  0.1215  0.0741 -0.0049
 1189W        W 4933   0.840   4.300   8.920  0.0683 -0.1586 -0.0990
 1190W        W 4934   9.804   1.808   8.486  0.0671  0.0736 -0.0139
 1191W        W 4935   6.030   1.167  11.949 -0.2090 -0.1366 -0.1309
 1192W        W 4936   1.699   2.973   1.792 -0.0885  0.2948  0.2771
 1193W        W 4937   2.813   1.619   4.103  0.0049  0.1625 -0.1605
 1194W        W 4938   8.529   4.810   2.354 -0.3842  0.1324  0.0965
 1195W        W 4939   6.816   4.372   2.701  0.0703  0.1468  0.2063
 1196W        W 4940   1.502   2.140   0.563 -0.1864  0.0798 -0.1596
 1197W        W 4941   3.280   7.162   4.039 -0.3204 -0.3270  0.0620
 1198W        W 4942   5.041   7.197   4.122  0.1572  0.0369  0.2240
 1199W        W 4943   8.379   6.730   1.915 -0.0414  0.0765  0.1470
 1200W        W 4944   2.752   7.416   1.227 -0.1025  0.0025 -0.0042
 1201W        W 4945   0.416   6.158   4.476  0.1736  0.0493 -0.0983
 1202W        W 4946   2.222   5.236   4.759  0.2850  0.3142 -0.1238
 1203W        W 4947   3.653   6.684   0.862  0.2033  0.2186 -0.0006
 1204W        W 4948   5.961   6.955   3.871 -0.1656  0.1297  0.1787
 1205W        W 4949   1.456   8.622   0.269 -0.1890 -0.0388  0.0288
 1206W        W 4950   4.245   8.217  10.636 -0.0014  0.0409 -0.2429
 1207W        W 4951   4.065   3.801  11.862  0.1537  0.1790 -0.0276
 1208W        W 4952   4.438   8.013   1.732  0.0906  0.0636  0.3558
 1209W        W 4953   2.800   4.135   4.294  0.0663 -0.2111  0.0312
 1210W        W 4954   0.833   5.979   8.478  0.0821  0.1726 -0.2031
 1211W        W 4955   6.331   8.237   3.363 -0.3001  0.0434 -0.2130
 1212W        W 4956   0.588   1.719   4.890 -0.1623  0.0119  0.1777
 1213W        W 4957   4.548   8.323   2.131  0.0479 -0.3336  0.2722
 1214W        W 4958   8.231   6.907   0.686  0.1406 -0.2502  0.0847
 1215W        W 4959   9.364   4.728   2.917  0.3091  0.2797  0.1056
 1216W        W 4960   0.133   3.326   3.725 -0.0900  0.0876  0.0073
 1217W        W 4961   0.796   5.065   2.110  0.1785  0.1830  0.0350
 1218W        W 4962   5.396   0.916  11.597  0.2454  0.0558  0.0551
 1219W        W 4963   0.827   9.752   2.856 -0.0552 -0.5773 -0.1001
 1220W        W 4964   2.832   7.485   4.114 -0.1883 -0.1289 -0.4091
 1221W        W 4965   9.127   7.531   1.457 -0.0215  0.0261  0.0946
 1222W        W 4966   1.388   9.076   2.118 -0.1176 -0.0749 -0.0509
 1223W        W 4967   4.437   0.862  11.362 -0.0893 -0.2658  0.1749
 1224W        W 4968   7.873   2.279   9.355 -0.1334 -0.2151 -0.0440
 1225W        W 4969   4.031   7.860  11.816 -0.1869 -0.2504 -0.3477
 1226W        W 4970   3.742   6.598   3.780  0.1211  0.0129  0.2037
 1227W        W 4971   1.646   9.109  12.518 -0.3921  0.0049 -0.0849
 1228W        W 4972   8.229   5.292   2.776 -0.2309 -0.2822  0.0680
 1229W        W 4973   6.649   9.693   1.444  0.1591 -0.0728  0.0828
 1230W        W 4974   8.017   2.692   1.051 -0.3993  0.4197  0.0478
 1231W        W 4975   3.168   6.035   1.821  0.0092  0.3033  0.2561
 1232W        W 4976   1.285   4.843   9.778 -0.2752  0.1294 -0.2413
 1233W        W 4977   3.478   9.417  12.777  0.1221  0.0096 -0.1230
 1234W        W 4978   2.783   8.966   0.744 -0.0651 -0.0084 -0.1325
 1235W        W 4979   0.562   4.577  10.537 -0.1189  0.0888  0.0387
 1236W        W 4980   3.490   3.726   2.234 -0.0734 -0.0380  0.1504
 1237W        W 4981   8.784   7.094   0.549 -0.0311  0.1838 -0.0105
 1238W        W 4982   8.386   6.257   4.255 -0.3010 -0.0362  0.2147
 1239W        W 4983   8.942   4.705   0.767  0.0018 -0.0676 -0.1645
 1240W        W 4984   4.426   7.748   4.460  0.1580  0.0257  0.0804
 1241W        W 4985   2.748   8.612  12.029 -0.1020  0.0849  0.0105
 1242W        W 4986   4.384   1.104   3.281  0.1541 -0.1193  0.2821
 1243W        W 4987   9.775   3.002   7.852  0.0156  0.1620 -0.1673
 1244W        W 4988   3.051   4.190   3.482  0.2534 -0.4023 -0.1798
 1245W        W 4989   9.623   1.488  10.655  0.0008  0.1354 -0.2647
 1246W        W 4990   2.607   6.681   9.996  0.0363  0.2170 -0.0783
 1247W        W 4991   1.974   7.341  10.474  0.1333  0.0720  0.2762
 1248W        W 4992   9.044   0.881   2.097  0.1357 -0.4827 -0.0118
 1249W        W 4993   7.971   6.438  12.174  0.1062 -0.1758 -0.0045
 1250W        W 4994   8.923   0.940  11.279 -0.0581  0.0856  0.2858
 1251W        W 4995   2.933   6.475   9.505  0.0849  0.2642  0.0205
 1252W        W 4996   7.752   8.910   3.254 -0.2400 -0.0809  0.1418
 1253W        W 4997   7.292   3.667   8.585  0.0378  0.0342 -0.0922
 1254W        W 4998   5.043   4.365   2.280  0.2774 -0.3457 -0.2812
 1255W        W 4999   9.763   9.659  10.717 -0.0187 -0.2048 -0.1526
 1256W        W 5000   2.885   5.168   1.425  0.0947 -0.0400  0.1285
 1257W        W 5001   5.870   6.595  11.957  0.0869 -0.1182 -0.0086
 1258W        W 5002   8.204   4.887   1.514 -0.1706  0.1143  0.3160
 1259W        W 5003   6.760   2.959  11.148  0.0445  0.2781  0.1064
 1260W        W 5004   1.162   6.516  12.746  0.1168 -0.3753 -0.1964
 1261W        W 5005   5.851   7.868   2.067 -0.1760  0.0184 -0.1482
 1262W        W 5006   6.575   9.266   2.379  0.1666 -0.0254 -0.0200
 1263W        W 5007   1.693   4.929   4.530  0.1034 -0.2695  0.0005
 1264W        W 5008   2.599   9.462   1.078  0.2549  0.1851 -0.3655
 1265W        W 5009   2.616   9.160  12.314 -0.0724  0.0596 -0.2303
 1266W        W 5010   9.789   1.652  11.579  0.0027 -0.1612  0.0306
 1267W        W 5011   7.526   9.506   0.355 -0.3106  0.0334 -0.2383
 1268W        W 5012   1.353   3.867   9.594  0.1547  0.2060  0.0382
 1269W        W 5013   3.074   4.772   8.487  0.0647  0.0174  0.0816
 1270W        W 5014   4.143   0.156  10.078 -0.2102 -0.2220 -0.3669
 1271W        W 5015   0.595   8.660   2.938  0.0237  0.2219  0.1031
 1272W        W 5016   8.779   6.852   9.040  0.0546  0.1651 -0.0405
 1273W        W 5017   0.326   9.255  12.521 -0.2633 -0.0846  0.3415
 1274W        W 5018   1.458   8.435  10.383  0.2441  0.1424 -0.3446
 1275W        W 5019   2.190   8.635  12.942  0.1143 -0.1319  0.1775
 1276W        W 5020   0.417   5.909   8.984 -0.0042  0.1504 -0.4258
 1277W        W 5021   7.777   6.607   1.257  0.1949 -0.0826  0.0205
 1278W        W 5022   8.692   0.321   2.982  0.0648 -0.0573  0.4490
 1279W        W 5023   4.487   9.068  12.906 -0.0319 -0.0731 -0.0895
 1280W        W 5024   0.802   3.087   3.068  0.1056  0.1479  0.2830
 1281W        W 5025   1.235   8.837  12.717 -0.0507 -0.0682  0.1737
 1282W        W 5026   9.560   2.413  12.303  0.0812  0.2934 -0.1609
 1283W        W 5027   7.355   3.160   3.215 -0.0779 -0.0637 -0.0576
 1284W        W 5028   3.871   8.957   3.033 -0.1102 -0.1325 -0.1856
 1285W        W 5029   2.070   4.108  12.159 -0.3668  0.1690 -0.0476
 1286W        W 5030   7.266   8.632   4.062 -0.0604 -0.2337 -0.1867
 1287W        W 5031   3.535   5.778  12.142 -0.0784  0.1590  0.1447
 1288W        W 5032   1.713   5.756   4.032 -0.0421  0.3320 -0.1207
 1289W        W 5033   2.982   2.475  11.219  0.0216  0.1069  0.1321
 1290W        W 5034   5.373   0.449  12.894  0.2497 -0.0105 -0.3141
 1291W        W 5035   7.988   6.368   1.773 -0.1018 -0.0782  0.0463
 1292W        W 5036   6.830   1.570   9.196 -0.1664  0.1646  0.0215
 1293W        W 5037   3.678   3.744   3.080  0.0527 -0.0696 -0.1837
 1294W        W 5038   9.192   0.520   0.014 -0.1788 -0.0270 -0.2305
 1295W        W 5039   2.579   1.107   4.526  0.0663 -0.2719 -0.0147
 1296W        W 5040   6.738   8.614  10.485  0.1195 -0.1976  0.3014
 1297W        W 5041   7.889   0.774   3.050  0.0759 -0.0202 -0.0073
 1298W        W 5042   5.748   8.791   1.571 -0.1385 -0.1760  0.2149
 1299W        W 5043   3.397   5.690   0.688  0.5724 -0.1620  0.0935
 1300W        W 5044   4.953   4.407   9.922 -0.1118 -0.1544  0.1354
 1301W        W 5045   1.716   1.259   3.497 -0.0929  0.0680  0.1738
 1302W        W 5046   1.987   4.953  11.777  0.1353 -0.1951  0.0335
 1303W        W 5047   3.521   8.454   0.726  0.1800  0.2992 -0.0505
 1304W        W 5048   8.442   4.808   4.972  0.0246 -0.0141  0.3391
 1305W        W 5049   0.273   6.883   3.026 -0.0077 -0.3269  0.2853
 1306W        W 5050   4.165   9.628  10.960  0.0491 -0.1517  0.0135
 1307W        W 5051   4.489   1.404  12.216 -0.0431  0.0561 -0.2618
 1308W        W 5052   6.078   7.733   3.286 -0.2599  0.1452 -0.1154
 1309W        W 5053   0.471   1.313   9.040 -0.0218 -0.1474  0.0717
 1310W        W 5054   8.886   6.659   2.064  0.2075 -0.0962 -0.1124
 1311W        W 5055   9.627   2.891   2.896  0.2082 -0.0008 -0.0607
 1312W        W 5056   1.443   1.392   1.441  0.0525  0.0916  0.1331
 1313W        W 5057   5.026   7.951  11.385 -0.0089  0.5157  0.2455
 1314W        W 5058   5.805   1.028   3.392  0.1568  0.1895 -0.0409
 1315W        W 5059   2.591   4.869   3.160 -0.0653  0.2208  0.3030
 1316W        W 5060   3.425   8.628   3.919 -0.1410 -0.1071  0.0335
 1317W        W 5061   6.167   9.539   1.446  0.2497 -0.0049 -0.2272
 1318W        W 5062   8.209   0.835   2.590  0.4677  0.0389 -0.1962
 1319W        W 5063   1.340   0.741   1.205 -0.0929 -0.1413  0.0593
 1320W        W 5064   3.835   5.660  10.338  0.0759 -0.1195 -0.2879
 1321W        W 5065   6.372   9.470  12.588 -0.1715  0.1681  0.2707
 1322W        W 5066   5.053   8.929   9.600  0.1491 -0.0772 -0.1698
 1323W        W 5067   4.399   1.800   2.678 -0.0263  0.0389  0.0518
 1324W        W 5068   4.907   5.522  10.165 -0.1107  0.0969  0.3476
 1325W        W 5069   3.567   0.210   0.965  0.0873 -0.2729 -0.0431
 1326W        W 5070   5.786   7.711   2.588 -0.0233  0.0412 -0.0485
 1327W        W 5071   9.074   7.721   9.383 -0.0497  0.0477 -0.2068
 1328W        W 5072   8.832   3.610   2.193 -0.0956 -0.0289 -0.0863
 1329W        W 5073   1.253   2.382   2.782  0.2812  0.3425  0.4576
 1330W        W 5074   4.749   7.254   3.641 -0.0827  0.0995  0.2997
 1331W        W 5075   8.327   8.271   2.555 -0.1100  0.0991 -0.3686
 1332W        W 5076   4.855   7.058   2.834  0.0580 -0.1275 -0.1674
 1333W        W 5077   0.780   3.642   4.505 -0.0003 -0.0116 -0.1552
 1334W        W 5078   7.281   7.548   2.977 -0.0510  0.1220  0.1772
 1335W        W 5079   9.895   4.828   4.035  0.2260  0.0369  0.0572
 1336W        W 5080   5.752   2.338   1.401  0.2193  0.2648  0.1539
 1337W        W 5081   4.615   2.306  10.702  0.0881 -0.0263  0.0417
 1338W        W 5082   4.768   9.681   1.469 -0.0375  0.1950 -0.0679
 1339W        W 5083   2.343   5.998   8.924 -0.0823 -0.0905 -0.2497
 1340W        W 5084   0.347   5.689   0.464  0.1305 -0.2693  0.0843
 1341W        W 5085   3.744   6.781   9.236  0.1999 -0.1711 -0.0589
 1342W        W 5086   4.887   1.340   1.621  0.1340  0.3177 -0.1347
 1343W        W 5087   7.603   6.340   2.159 -0.1371 -0.1314  0.0754
 1344W        W 5088   4.038   6.268  11.157  0.0472 -0.1006  0.0981
 1345W        W 5089   9.810   1.420   9.818  0.0859 -0.0517 -0.2661
 1346W        W 5090   5.796   9.111  11.760 -0.2443 -0.1642  0.0596
 1347W        W 5091   7.352   0.520  11.230  0.1880  0.1398  0.1473
 1348W        W 5092   3.137   9.782   4.452  0.0894  0.4150  0.0783
 1349W        W 5093   5.393   9.250   9.728  0.1559  0.1179  0.0803
 1350W        W 5094   6.920   3.545   1.131  0.1342  0.0912 -0.1646
 1351W        W 5095   4.086   6.992  11.202 -0.0269 -0.0027 -0.1582
 1352W        W 5096   4.285   8.680  10.374 -0.1208 -0.2048 -0.2562
 1353W        W 5097   7.004   7.190   3.122  0.2369 -0.2740 -0.0678
 1354W        W 5098   9.621   9.187  10.873 -0.3476 -0.0062 -0.1230
 1355W        W 5099   7.819   4.665   8.318  0.0170 -0.0476  0.0170
 1356W        W 5100   0.783   4.520   9.662 -0.1254  0.2647 -0.0492
 1357W        W 5101   6.546   1.659   2.480  0.0914 -0.0740  0.1543
 1358W        W 5102   7.640   8.194  10.215 -0.0403  0.0877  0.2125
 1359W        W 5103   9.391   7.044  10.665  0.1476  0.0145 -0.1423
 1360W        W 5104   1.200   7.931  10.368  0.1473 -0.0460 -0.3538
 1361W        W 5105   8.423   6.060   9.894  0.4063  0.1250 -0.2481
 1362W        W 5106   2.703   6.568  10.524  0.0785 -0.2241  0.0841
 1363W        W 5107   8.122   9.259  12.209 -0.1831 -0.1957  0.0249
 1364W        W 5108   7.176   6.864   4.893  0.1496 -0.3151  0.0804
 1365W        W 5109   2.153   4.901   3.436  0.0689 -0.0220 -0.2173
 1366W        W 5110   2.407   3.328   1.429 -0.2459 -0.1303  0.0956
 1367W        W 5111   1.554   2.818   1.041 -0.3144  0.1830  0.1219
 1368W        W 5112   4.944   6.285  11.484 -0.0221 -0.0373 -0.0210
 1369W        W 5113   6.486   0.765  10.524  0.2345  0.0435 -0.2258
 1370W        W 5114   7.570   9.482   1.966 -0.0093 -0.2992  0.2085
 1371W        W 5115   3.732   9.651  11.810 -0.3030 -0.0315 -0.1250
 1372W        W 5116   5.034   4.698   9.503 -0.0348  0.1008  0.1214
 1373W        W 5117   8.222   4.125  10.827 -0.3487  0.0276 -0.2093
 1374W        W 5118   9.275   8.475   2.365  0.4068 -0.1879 -0.1610
 1375W        W 5119   5.644   7.388   1.628  0.1805  0.2195  0.0511
 1376W        W 5120   4.416   6.471   2.044  0.0559  0.0832 -0.2916
 1377W        W 5121   6.739   8.266   2.018  0.1333  0.1973  0.2991
 1378W        W 5122   1.839   1.725   0.781 -0.0587 -0.0491 -0.1336
 1379W        W 5123   9.261   4.352  11.424 -0.3397 -0.0035  0.1646
 1380W        W 5124   5.986   2.645  10.752 -0.0926 -0.5366 -0.0812
 1381W        W 5125   2.465   5.219   3.617  0.2561  0.2670 -0.2016
 1382W        W 5126   6.582   9.600   5.067  0.0944 -0.0076  0.0051
 1383W        W 5127   4.178   4.023  10.811 -0.1293 -0.2153 -0.3228
 1384W        W 5128   7.457   8.146   1.240 -0.0650 -0.0987 -0.2115
 1385W        W 5129   8.127   4.846   8.733  0.1146  0.3436 -0.1304
 1386W        W 5130   8.453   5.749   8.619  0.0114 -0.0297  0.0011
 1387W        W 5131   2.239   2.385   9.723 -0.1542  0.0317 -0.2860
 1388W        W 5132   0.701   6.603   8.664 -0.0145 -0.2995  0.2748
 1389W        W 5133   1.539   6.594   0.159  0.1626 -0.0231 -0.0188
 1390W        W 5134   3.368   8.116  11.856  0.0830 -0.0574 -0.1861
 1391W        W 5135   4.675   9.030   5.174  0.0915 -0.1872  0.0278
 1392W        W 5136   8.506   3.998   4.509 -0.1527 -0.1722  0.0966
 1393W        W 5137   7.657   3.588   2.855 -0.0076  0.0264  0.2515
 1394W        W 5138   0.558   9.648   5.078  0.1791  0.1543 -0.0431
 1395W        W 5139   0.143   2.404   9.747 -0.0832  0.2118 -0.1605
 1396W        W 5140   5.978   3.523   3.091  0.1146 -0.2630  0.1196
 1397W        W 5141   4.475   0.508   0.621 -0.0911 -0.2228 -0.0507
 1398W        W 5142   7.423   3.784  12.574 -0.2541  0.3281 -0.0229
 1399W        W 5143   0.499   3.106  12.486 -0.0209  0.0911 -0.1117
 1400W        W 5144   9.715   0.735   4.035  0.0633 -0.2421 -0.1992
 1401W        W 5145   0.003   6.780   2.607 -0.3565 -0.0787 -0.0966
 1402W        W 5146   3.722   8.056   9.422  0.1209 -0.1878  0.0316
 1403W        W 5147   0.670   1.713   3.793 -0.0507  0.4299 -0.2427
 1404W        W 5148   8.175   5.825   4.148 -0.4007 -0.0803 -0.1134
 1405W        W 5149   0.082   2.407   4.529  0.0840 -0.0044  0.0347
 1406W        W 5150   5.328   8.250   9.846  0.0287  0.1123 -0.1097
 1407W        W 5151   2.105   8.504   4.314 -0.0254 -0.4139  0.0233
 1408W        W 5152   9.696   0.598  12.783  0.3877  0.3761  0.0130
 1409W        W 5153   7.178   9.367   2.632 -0.0134 -0.3840 -0.0148
 1410W        W 5154   2.936   2.084   4.088 -0.3175  0.0698  0.1863
 1411W        W 5155   3.877   2.869   0.310 -0.0790 -0.3722  0.2095
 1412W        W 5156   5.879   7.888   1.548 -0.1329 -0.1223 -0.0022
 1413W        W 5157   0.261   1.236  12.167 -0.2132  0.1654 -0.2193
 1414W        W 5158   1.261   1.471  12.882  0.0793  0.0049 -0.0558
 1415W        W 5159   6.342   6.166   9.558 -0.0312 -0.0816  0.0097
 1416W        W 5160   8.229   2.805  10.798 -0.1058 -0.3549  0.2969
 1417W        W 5161   7.948   3.977   3.108  0.4116 -0.0369 -0.2098
 1418W        W 5162   8.328   5.982   2.019 -0.0753 -0.1329 -0.0679
 1419W        W 5163   7.401   4.460   1.620  0.1627  0.1654  0.1302
 1420W        W 5164   3.773   4.210  10.555 -0.2565  0.3325  0.0424
 1421W        W 5165   9.695   8.062   8.799  0.0780 -0.2088 -0.0847
 1422W        W 5166   3.039   9.499  11.300 -0.0343 -0.4494 -0.1159
 1423W        W 5167   8.567   3.295   3.151  0.0320  0.0605 -0.2900
 1424W        W 5168   2.952   8.797   1.199 -0.0022 -0.0895 -0.0107
 1425W        W 5169   1.036   9.350  11.872  0.2680  0.1611 -0.2703
 1426W        W 5170   7.352   4.362   2.488 -0.2482  0.1032 -0.1683
 1427W        W 5171   5.563   6.294   2.798  0.0633  0.0394  0.1622
 1428W        W 5172   9.171   2.264  10.574 -0.0866 -0.1279 -0.0130
 1429W        W 5173   3.350   4.453   9.579  0.0331 -0.1316  0.0835
 1430W        W 5174   7.174   0.041   9.522  0.1277 -0.0558  0.2198
 1431W        W 5175   3.902   8.943  10.178  0.1457  0.1022 -0.0125
 1432W        W 5176   3.009   3.792   3.828  0.0662  0.2697  0.0044
 1433W        W 5177   2.591   9.680   4.758 -0.1271 -0.1824 -0.1362
 1434W        W 5178   2.880   6.248   2.565 -0.2503 -0.0314  0.3404
 1435W        W 5179   2.690   5.169   8.614  0.0130 -0.3459 -0.2587
 1436W        W 5180   2.941   3.911   1.492  0.2435 -0.1271 -0.0628
 1437W        W 5181   5.943   3.424  12.438  0.0945  0.3178  0.0928
 1438W        W 5182   5.739   7.028   4.307 -0.2701  0.2397 -0.0984
 1439W        W 5183   4.036   3.061  10.719 -0.2188 -0.1423 -0.0073
 1440W        W 5184   1.875   6.023   9.904  0.1267  0.0227 -0.0800
 1441W        W 5185   1.896   5.990  12.579  0.0606  0.2431 -0.0489
 1442W        W 5186   1.493   5.609   1.850 -0.0084 -0.1134 -0.2090
 1443W        W 5187   6.421   2.156   2.386  0.1953  0.2040  0.2169
 1444W        W 5188   3.414   7.773  10.288 -0.0658  0.0535 -0.0743
 1445W        W 5189   3.892   0.301   2.324  0.0008  0.1034 -0.0630
 1446W        W 5190   3.749   3.412   1.430 -0.2846  0.3326  0.3887
 1447W        W 5191   8.044   2.719   3.771 -0.0048  0.1693 -0.1373
 1448W        W 5192   6.199   9.300   4.114  0.1473  0.1686  0.1815
 1449W        W 5193   4.732   9.281   3.441 -0.2466 -0.0555  0.0369
 1450W        W 5194   4.526   6.974  12.719  0.0052 -0.1299  0.0899
 1451W        W 5195   8.817   5.534   1.064  0.0469  0.1746  0.2742
 1452W        W 5196   3.679   7.108   0.116  0.1526 -0.2302 -0.2960
 1453W        W 5197   2.147   9.078  12.376 -0.2894  0.0142  0.1408
 1454W        W 5198   2.807   7.939   1.083  0.1080 -0.1986 -0.0152
 1455W        W 5199   7.908   3.727   4.098 -0.1191 -0.0191  0.0242
 1456W        W 5200   8.629   0.924  10.368  0.1435 -0.0506 -0.0139
 1457W        W 5201   5.831   7.370   2.143 -0.1124 -0.0750  0.3064
 1458W        W 5202   2.236   1.097   3.362 -0.2691  0.1496 -0.0102
 1459W        W 5203   1.783   9.892   1.281  0.1622  0.2142 -0.1580
 1460W        W 5204   3.468   8.090  12.398  0.2937 -0.0107  0.0122
 1461W        W 5205   1.999   7.489   1.383 -0.1428  0.1086  0.2031
 1462W        W 5206   6.364   8.908  10.768 -0.3340  0.1083  0.2003
 1463W        W 5207   5.709   3.843  11.984 -0.2618  0.2218  0.2202
 1464W        W 5208   8.359   3.643   1.080  0.1228 -0.1068 -0.0695
 1465W        W 5209   8.051   5.334   0.491 -0.1907 -0.1954 -0.0359
 1466W        W 5210   5.927   8.400  11.149  0.1180 -0.1225 -0.1416
 1467W        W 5211   5.877   9.683   1.870  0.1179  0.0625  0.1458
 1468W        W 5212   8.067   7.110  10.850 -0.1405 -0.0482  0.2016
 1469W        W 5213   8.122   8.853   1.024 -0.0484  0.2102 -0.2051
 1470W        W 5214   4.308   9.564   0.180  0.1067  0.1086  0.2233
 1471W        W 5215   4.247   6.857   1.044  0.4025  0.1133 -0.0454
 1472W        W 5216   7.234   8.937   9.615 -0.2857  0.0086 -0.1486
 1473W        W 5217   2.644   3.429   3.924  0.2243  0.0915  0.1350
 1474W        W 5218   0.391   8.310   4.141 -0.1637 -0.0710  0.1383
 1475W        W 5219   0.293   4.806   9.583  0.3100 -0.0986 -0.2820
 1476W        W 5220   4.729   8.772   3.828  0.1971  0.2258  0.2432
 1477W        W 5221   7.663   1.715  10.674 -0.3224 -0.0010 -0.0731
 1478W        W 5222   1.549   1.466   2.700  0.0350  0.4419  0.0014
 1479W        W 5223   6.212   8.713   1.813  0.0575 -0.1770 -0.0243
 1480W        W 5224   8.874   5.510   9.135  0.0633  0.0409  0.1689
 1481W        W 5225   1.008   4.577   0.349 -0.1576  0.4372  0.2138
 1482W        W 5226   4.590   3.750   2.996 -0.0024  0.1722  0.1217
 1483W        W 5227   4.477   6.514   9.922  0.0344  0.5090 -0.0631
 1484W        W 5228   6.279   9.762   0.610 -0.0728  0.4153  0.0420
 1485W        W 5229   1.549   8.103   8.943 -0.0429  0.2782 -0.1202
 1486W        W 5230   5.344   7.625   4.441  0.1764  0.0758  0.1097
 1487W        W 5231   4.223   1.056   2.368  0.0390 -0.0157 -0.0777
 1488W        W 5232   7.997   4.519   4.219 -0.0981 -0.0466  0.0492
 1489W        W 5233   0.443   1.237   9.907 -0.1760 -0.2305  0.0791
 1490W        W 5234   8.019   2.437   9.881  0.1663  0.2686  0.0316
 1491W        W 5235   4.087   7.911   3.106 -0.0595 -0.0956  0.0558
 1492W        W 5236   2.171   6.817   2.005  0.0731  0.0053  0.1632
 1493W        W 5237   4.588   4.922  11.352  0.0027 -0.2849  0.1455
 1494W        W 5238   2.480   9.420   3.808 -0.1436  0.0732 -0.1252
 1495W        W 5239   7.798   1.443   1.050 -0.1501  0.1799  0.1802
 1496W        W 5240   2.524   7.166   3.462 -0.2343  0.0932 -0.0079
 1497W        W 5241   8.184   8.566   3.048 -0.1245 -0.1888  0.2762
 1498W        W 5242   3.483   2.721  11.602 -0.1625 -0.4971 -0.2179
 1499W        W 5243   7.712   5.587   0.792  0.2005 -0.0072  0.0229
 1500W        W 5244   9.480   0.501   9.920  0.1236 -0.1450 -0.2359
 1501W        W 5245   8.760   5.690   3.506  0.1971  0.2733 -0.0628
 1502W        W 5246   2.159   5.825   8.158  0.0517  0.1488 -0.5154
 1503W        W 5247   7.448   5.329  10.273  0.2252  0.2094 -0.1716
 1504W        W 5248   0.142   6.202  12.591  0.1091 -0.0747 -0.0645
 1505W        W 5249   9.256   7.957   2.360 -0.4042  0.1704 -0.1389
 1506W        W 5250   9.798   7.143   0.706 -0.2698 -0.3125 -0.0765
 1507W        W 5251   7.215   0.003   2.134 -0.1984 -0.1108 -0.2714
 1508W        W 5252   1.628   0.237   8.606 -0.1942  0.1856 -0.2848
 1509W        W 5253   6.882   8.742   3.708  0.1638 -0.0557 -0.2736
 1510W        W 5254   7.693   1.000   2.607 -0.1112 -0.1127 -0.1156
 1511W        W 5255   8.284   4.794  11.959  0.2525 -0.0871  0.2222
 1512W        W 5256   7.797   9.117   0.146  0.2991 -0.2525  0.0243
 1513W        W 5257   3.338   6.021  10.937 -0.2692  0.0515  0.0069
 1514W        W 5258   0.084   7.448   3.170 -0.2629  0.3529 -0.1921
 1515W        W 5259   8.225   5.544   2.211  0.1148  0.0389  0.1955
 1516W        W 5260   2.973   1.904   2.860  0.1356 -0.0415  0.0321
 1517W        W 5261   8.560   1.384   1.358  0.0985  0.4551  0.0064
 1518W        W 5262   0.140   8.061  12.411  0.0044 -0.2552 -0.0712
 1519W        W 5263   2.128   2.888   3.667 -0.0467 -0.2245 -0.1126
 1520W        W 5264   0.719   5.187   3.097  0.0319 -0.0182  0.2279
 1521W        W 5265   0.701   3.345   1.908 -0.1560 -0.3543  0.2115
 1522W        W 5266   0.949   5.967   2.954 -0.0648  0.2157 -0.1053
 1523W        W 5267   0.421   4.680   5.031 -0.1708 -0.2804 -0.0377
 1524W        W 5268   6.207   4.296   2.328  0.1489  0.1326 -0.0380
 1525W        W 5269   9.301   3.588  12.012 -0.3961  0.1399 -0.2606
 1526W        W 5270   3.474   1.965   1.194  0.0504 -0.2135 -0.1628
 1527W        W 5271   5.440   3.989   1.001  0.1131 -0.0690 -0.0448
 1528W        W 5272   4.542   8.351  12.325 -0.2776 -0.3745 -0.1410
 1529W        W 5273   2.226   1.974  11.623 -0.1270 -0.0456  0.3051
 1530W        W 5274   3.828   6.269   1.318 -0.1854 -0.0550  0.0162
 1531W        W 5275   1.213   3.812  12.647  0.2276  0.0286 -0.2207
 1532W        W 5276   7.371   0.544  12.354  0.1555  0.0641 -0.1305
 1533W        W 5277   0.571   4.376   2.689 -0.1213  0.0981  0.1131
 1534W        W 5278   1.848   0.324  11.492 -0.0045 -0.2084  0.0252
 1535W        W 5279   7.656   7.464   4.117 -0.0055 -0.1735  0.1271
 1536W        W 5280   4.477   6.660   3.028  0.3270  0.0716 -0.2146
 1537W        W 5281   6.117   8.024   1.154 -0.1076  0.4667  0.0137
 1538W        W 5282   5.658   3.497  12.898  0.1491 -0.0505 -0.0000
 1539W        W 5283   1.186   4.900   0.733 -0.0037  0.2060 -0.2106
 1540W        W 5284   8.276   8.836   1.652 -0.1148  0.0983 -0.0687
 1541W        W 5285   3.836   4.753   3.701 -0.0080  0.0860  0.0944
 1542W        W 5286   6.078   9.018   2.370  0.2337 -0.2168  0.1785
 1543W        W 5287   7.971   4.679  10.058  0.0804  0.1430 -0.0308
 1544W        W 5288   1.533   8.466   4.011  0.0029 -0.1779  0.0522
 1545W        W 5289   2.014   3.560  12.155  0.0846 -0.1702 -0.2752
 1546W        W 5290   8.430   7.474   3.083 -0.2160  0.0095  0.1661
 1547W        W 5291   6.628   9.551   8.160  0.0980 -0.3269 -0.0237
 1548W        W 5292   2.285   4.105  11.663  0.5129 -0.1366  0.1223
 1549W        W 5293   8.882   3.838  12.773 -0.3001  0.3435 -0.2720
 1550W        W 5294   3.061   8.108   9.345 -0.3324 -0.0849 -0.0158
 1551W        W 5295   3.530   6.943  12.568 -0.1604  0.1735 -0.1864
 1552W        W 5296   5.351   9.884   1.564  0.1767 -0.0302 -0.1406
 1553W        W 5297   0.710   5.090   1.122  0.0508 -0.0050 -0.3341
 1554W        W 5298   0.521   3.450   2.847  0.0343 -0.1979 -0.1968
 1555W        W 5299   3.350   4.102   0.558 -0.1834  0.0384 -0.2318
 1556W        W 5300   2.908   5.637  10.802 -0.2026 -0.2741  0.1165
 1557W        W 5301   6.046   9.052   3.686 -0.0590 -0.0802  0.0219
 1558W        W 5302   3.998   5.979   9.897 -0.1546  0.1489 -0.1395
 1559W        W 5303   1.591   7.563   3.792 -0.1246 -0.1202 -0.1559
 1560W        W 5304   0.128   9.747   1.203 -0.0934  0.1571 -0.0334
 1561W        W 5305   1.623   3.449   2.931 -0.0411  0.2139 -0.4067
 1562W        W 5306   9.641   4.068  10.385 -0.1845 -0.1305 -0.0119
 1563W        W 5307   2.948   5.026  11.702  0.1196 -0.2538 -0.0173
 1564W        W 5308   9.458   2.556   2.536  0.0493 -0.0261 -0.0887
 1565W        W 5309   9.075   7.301  10.342 -0.2219  0.2166  0.1670
 1566W        W 5310   3.302   5.450   3.526  0.3282  0.3532 -0.2719
 1567W        W 5311   4.587   7.040   4.137  0.0333 -0.0332 -0.0743
 1568W        W 5312   5.128   4.783  12.779  0.0921 -0.0349 -0.0508
 1569W        W 5313   3.332   8.277  11.293  0.0776  0.0567  0.3867
 1570W        W 5314   8.944   8.890   4.191 -0.0546  0.0767 -0.0156
 1571W        W 5315   8.783   3.099   4.411  0.2474 -0.1038  0.0499
 1572W        W 5316   3.952   5.300  12.041  0.0372  0.2903 -0.2353
 1573W        W 5317   9.530   2.168   0.340 -0.0677  0.0567 -0.1146
 1574W        W 5318   2.572   7.784   2.684 -0.1118 -0.2117 -0.0639
 1575W        W 5319   9.270   9.090   8.928 -0.2321 -0.2329  0.2370
 1576W        W 5320   6.489   6.970   2.036  0.0722  0.3113  0.0450
 1577W        W 5321   9.472   9.406   4.265  0.0281  0.0683 -0.3717
 1578W        W 5322   9.026   5.288   0.125 -0.0037 -0.1763  0.0876
 1579W        W 5323   8.106   6.767   9.321  0.3929  0.1451 -0.2379
 1580W        W 5324   8.271   0.906   0.354 -0.2928  0.0254 -0.1951
 1581W        W 5325   6.894   0.969  11.877  0.0736  0.2769  0.0712
 1582W        W 5326   7.889   6.551   9.973  0.1366 -0.0403 -0.0031
 1583W        W 5327   6.760   5.547  10.605  0.1238 -0.1917 -0.0899
 1584W        W 5328   4.177   3.167   1.488 -0.3029  0.3054  0.1205
 1585W        W 5329   2.424   1.507  10.512  0.0820 -0.1431  0.0763
 1586W        W 5330   9.306   1.589  11.627 -0.2360 -0.0413  0.0526
 1587W        W 5331   6.086   1.557  12.736  0.0366 -0.0046  0.0195
 1588W        W 5332   8.761   8.692   3.094 -0.0020  0.0526  0.3487
 1589W        W 5333   7.444   7.894   0.854 -0.2969  0.2681  0.1795
 1590W        W 5334   1.567   2.682   2.451  0.1061  0.1639  0.3046
 1591W        W 5335   2.398   6.944   8.501 -0.3303  0.0004 -0.1460
 1592W        W 5336   2.614   7.298   2.601  0.1742  0.2545  0.0972
 1593W        W 5337   7.577   3.688   3.309  0.2585 -0.2161 -0.3306
 1594W        W 5338   4.888   1.826  12.446  0.1495 -0.0038  0.0319
 1595W        W 5339   5.706   7.174  10.811 -0.2868  0.0518  0.0526
 1596W        W 5340   6.754   0.506  11.725 -0.2641  0.2339  0.3883
 1597W        W 5341   0.774   7.203   9.642 -0.1269  0.1676 -0.0903
 1598W        W 5342   0.402   5.471  10.839 -0.2406  0.0601  0.1112
 1599W        W 5343   7.247   4.007  10.936  0.2584  0.1877  0.0790
 1600W        W 5344   0.982   4.401  12.853  0.1118 -0.3381  0.0695
 1601W        W 5345   5.061   0.640  11.285 -0.0540 -0.2842  0.4385
 1602W        W 5346   8.833   9.209  10.217  0.1241  0.0690  0.1915
 1603W        W 5347   5.185   4.414   1.110 -0.1310 -0.1744 -0.0547
 1604W        W 5348   5.603   9.375   4.290 -0.0028 -0.4500 -0.3415
 1605W        W 5349   2.416   1.369   1.066 -0.1835  0.0187  0.0700
 1606W        W 5350   8.595   8.221  10.347  0.0206 -0.0103  0.2614
 1607W        W 5351   0.440   2.971   0.437  0.0930  0.0728  0.0603
 1608W        W 5352   6.911   5.131  10.340  0.0386  0.1901  0.2442
 1609W        W 5353   4.338   5.284   9.214  0.0714  0.0709  0.1346
 1610W        W 5354   1.215   8.411   3.445  0.2967  0.4171  0.0457
 1611W        W 5355   6.694   0.888   3.183  0.0373 -0.2376  0.0539
 1612W        W 5356   4.697   5.717   9.218 -0.0773  0.1753  0.1365
 1613W        W 5357   8.382   0.783   4.163  0.0017  0.0243 -0.1511
 1614W        W 5358   9.757   7.182   3.936  0.0686 -0.0716 -0.3947
 1615W        W 5359   8.356   8.623   3.955 -0.0291 -0.0627 -0.0477
 1616W        W 5360   2.794   8.031  11.185  0.1909 -0.0182  0.2686
 1617W        W 5361   7.648   0.062   9.147  0.1019 -0.2334 -0.3442
 1618W        W 5362   6.491   6.926   9.094 -0.0130  0.0071  0.1600
 1619W        W 5363   9.608   3.046  10.391 -0.1128  0.1885  0.0544
 1620W        W 5364   5.173   9.409   1.391 -0.1310  0.1599  0.3311
 1621W        W 5365   7.212   1.896  10.474 -0.1253 -0.0028 -0.0170
 1622W        W 5366   8.772   5.741   1.486  0.0390 -0.2108  0.2062
 1623W        W 5367   7.468   6.663  10.295  0.3921 -0.0975 -0.1781
 1624W        W 5368   7.822   7.228  11.750 -0.1931  0.2235 -0.0590
 1625W        W 5369   7.992   4.809   4.787  0.1251  0.0448  0.0369
 1626W        W 5370   8.378   9.594   3.657  0.0498 -0.2189 -0.0807
 1627W        W 5371   3.258   3.721  11.175 -0.0550 -0.1651 -0.1740
 1628W        W 5372   2.452   9.297  11.587  0.0867  0.1127  0.1255
 1629W        W 5373   5.070   6.546   1.453  0.0597 -0.0663  0.3389
 1630W        W 5374   9.716   7.732   1.465 -0.0456  0.0961  0.2497
 1631W        W 5375   6.352   2.241   9.958 -0.1547 -0.0229  0.0161
 1632W        W 5376   4.792   1.517   2.555  0.0087  0.2398 -0.3791
 1633W        W 5377   4.287   4.386   0.632  0.2722 -0.1780 -0.1270
 1634W        W 5378   2.526   7.355   9.990 -0.1299 -0.1609  0.2343
 1635W        W 5379   1.435   3.306   2.472  0.4155 -0.0655  0.2026
 1636W        W 5380   6.758   6.139   3.801  0.1333 -0.0899 -0.1147
 1637W        W 5381   9.814   9.577   1.607 -0.0962 -0.0133 -0.5419
 1638W        W 5382   1.421   5.170   9.322 -0.0201  0.2220  0.3551
 1639W        W 5383   8.915   5.659  11.826  0.0977 -0.2496 -0.4589
 1640W        W 5384   5.935   3.578  10.790  0.2032  0.2639  0.4810
 1641W        W 5385   1.325   0.136   0.474 -0.3171  0.1159  0.2182
 1642W        W 5386   5.793   6.699   3.222  0.3506 -0.1205  0.0595
 1643W        W 5387   4.903   4.111   0.794 -0.0351  0.1764  0.3876
 1644W        W 5388   2.312   9.100   8.619 -0.4612  0.2495 -0.3408
 1645W        W 5389   8.681   1.130  10.841 -0.3023  0.2699  0.1942
 1646W        W 5390   0.237   7.180  11.789  0.2670  0.2077  0.0347
 1647W        W 5391   2.031   7.971  12.015 -0.1348  0.0507 -0.2006
 1648W        W 5392   2.092   0.700  11.688 -0.0043  0.3492 -0.2427
 1649W        W 5393   4.744   3.023  12.820 -0.0009 -0.0278  0.0438
 1650W        W 5394   8.391   5.860   2.562 -0.1922 -0.4832 -0.1535
 1651W        W 5395   4.424   8.210   4.340 -0.0184 -0.1790 -0.3784
 1652W        W 5396   4.354   3.396   2.552 -0.2360 -0.1194  0.1678
 1653W        W 5397   2.787   6.764   3.284  0.0663  0.0522  0.0414
 1654W        W 5398   2.771   8.287   1.435 -0.1653  0.0003  0.1888
 1655W        W 5399   6.313   6.485  11.127  0.0114 -0.4181  0.2623
 1656W        W 5400   1.264   4.515   1.077 -0.0418 -0.0743 -0.1398
 1657W        W 5401   1.786   1.469   9.938  0.0705 -0.1434  0.1654
 1658W        W 5402   0.744   1.233   3.931 -0.2951 -0.2397  0.0724
 1659W        W 5403   2.144   8.637   2.524 -0.1564  0.0876 -0.2061
 1660W        W 5404   3.852   5.603  12.494 -0.0307 -0.1177 -0.0394
 1661W        W 5405   3.233   8.279  12.784  0.3953 -0.1920 -0.1067
 1662W        W 5406   5.111   3.917   2.495 -0.0390  0.1086 -0.0057
 1663W        W 5407   1.698   7.377  12.651 -0.3775 -0.0057  0.0717
 1664W        W 5408   2.217   7.301  12.883  0.1932 -0.1776  0.0001
 1665W        W 5409   9.847   1.434   3.237  0.1598 -0.0925 -0.0586
 1666W        W 5410   0.924   7.512   8.115  0.0275  0.0390 -0.2566
 1667W        W 5411   7.206   6.936   8.012 -0.2093  0.0451 -0.3786
 1668W        W 5412   5.672   3.927   9.482  0.2334  0.0120  0.1234
 1669W        W 5413   5.131   5.441   4.009  0.3726 -0.3058  0.0051
 1670W        W 5414   1.176   5.001   7.859  0.0609  0.0405 -0.1681
 1671W        W 5415   6.588   4.985  11.821  0.2032  0.0251 -0.0694
 1672W        W 5416   1.844   0.916   2.178  0.2417  0.1729 -0.0316
 1673W        W 5417   9.447   6.107   4.026  0.0852  0.0330  0.4272
 1674W        W 5418   6.501   7.658   9.572 -0.2733  0.0470  0.1848
 1675W        W 5419   3.028   4.805   0.984 -0.1793  0.0339 -0.3842
 1676W        W 5420   5.337   4.049  12.242  0.0959  0.1879  0.0264
 1677W        W 5421   8.521   9.003   8.988 -0.1937  0.1268  0.3961
 1678W        W 5422   6.876   0.820   2.451  0.0818 -0.0131  0.0336
 1679W        W 5423   7.000   6.053   9.136 -0.0497 -0.3770 -0.1152
 1680W        W 5424   2.367   7.522   9.548  0.2711  0.1618  0.1248
 1681W        W 5425   1.214   0.930  10.650 -0.1538 -0.1012  0.1111
 1682W        W 5426   5.610   6.204   0.787 -0.1766  0.2522 -0.1224
 1683W        W 5427   3.304   4.206   2.376 -0.0832  0.2257 -0.0121
 1684W        W 5428   4.789   3.419   3.638 -0.0519  0.3315 -0.1366
 1685W        W 5429   0.548   0.762  10.124  0.0013  0.0015  0.0409
 1686W        W 5430   8.821   7.029   3.848 -0.0391 -0.0227  0.0035
 1687W        W 5431   7.158   9.398   0.792  0.2956  0.0289  0.1709
 1688W        W 5432   1.027   0.294   2.923  0.0334 -0.3923 -0.0286
 1689W        W 5433   1.038   6.615  11.700  0.1349 -0.4632 -0.2011
 1690W        W 5434   8.356   4.097   8.959 -0.3343 -0.1801  0.1762
 1691W        W 5435   7.354   0.976  12.083 -0.1190  0.0458 -0.0760
 1692W        W 5436   8.558   1.858   3.351 -0.3185 -0.1114 -0.2206
 1693W        W 5437   7.305   1.923  12.057  0.3419 -0.1850 -0.1864
 1694W        W 5438   6.513   5.263   1.017  0.2861  0.2157  0.0217
 1695W        W 5439   1.618   3.932   3.009  0.0396 -0.4517  0.0512
 1696W        W 5440   9.012   5.475   2.740 -0.2909  0.1083  0.1476
 1697W        W 5441   8.367   3.905  12.827  0.0655  0.0052  0.1221
 1698W        W 5442   3.164   4.242   1.862  0.0387  0.1677 -0.0220
 1699W        W 5443   0.430   3.930   9.778 -0.0910  0.0783  0.0594
 1700W        W 5444   0.462   8.013   8.921 -0.2778 -0.2418  0.1893
 1701W        W 5445   0.693   3.466   3.781  0.1075 -0.0465 -0.3347
 1702W        W 5446   0.326   3.512   4.190 -0.2459 -0.0311 -0.1014
 1703W        W 5447   6.249   7.423  10.838 -0.0613 -0.2611 -0.0709
 1704W        W 5448   1.911   6.876  12.771 -0.1068  0.0683 -0.0531
 1705W        W 5449   0.024   6.526  12.192  0.2674  0.2342 -0.1018
 1706W        W 5450   7.663   9.751   3.409  0.2015 -0.1975 -0.2382
 1707W        W 5451   8.337   6.285  10.311  0.2915  0.1743  0.1545
 1708W        W 5452   1.006   7.605  10.026  0.1131  0.5439 -0.0947
 1709W        W 5453   1.055   2.408   4.211 -0.0023  0.2588  0.0989
 1710W        W 5454   9.246   5.672   3.185  0.0288  0.0203 -0.0933
 1711W        W 5455   4.013   4.039   3.366  0.2075 -0.1212 -0.1615
 1712W        W 5456   3.191   4.580  11.669 -0.1241 -0.1219  0.2688
 1713W        W 5457   2.320   6.335   4.317 -0.1261  0.0557  0.0203
 1714W        W 5458   5.617   1.637   0.469 -0.0377  0.1831  0.1453
 1715W        W 5459   4.850   6.837  11.415  0.1119  0.2261 -0.0655
 1716W        W 5460   3.462   3.114   9.923  0.1000  0.3450 -0.2115
 1717W        W 5461   9.582   4.050  12.363  0.0664  0.0547  0.0221
 1718W        W 5462   5.459   1.077  12.125  0.0568 -0.0661  0.0964
 1719W        W 5463   0.401   4.207   1.792  0.1370 -0.0340 -0.0282
 1720W        W 5464   0.752   3.084  11.564 -0.0574  0.1429 -0.0706
 1721W        W 5465   4.027   3.913   0.558 -0.0701  0.2886 -0.2746
 1722W        W 5466   3.221   5.430   7.944  0.2031 -0.1963  0.0280
 1723W        W 5467   5.090   3.222  10.848 -0.2768  0.1249  0.0402
 1724W        W 5468   1.919   9.865   8.938 -0.2508 -0.1414 -0.0766
 1725W        W 5469   9.159   6.115   1.409  0.2062 -0.1668 -0.3030
 1726W        W 5470   2.704   9.888  12.754 -0.0736  0.0841  0.2232
 1727W        W 5471   7.165   5.225   8.825  0.0698  0.0940  0.2803
 1728W        W 5472   5.893   4.969  12.608  0.4254  0.1708 -0.1306
 1729W        W 5473   3.996   2.845  11.649  0.2249 -0.0215  0.2073
 1730W        W 5474   4.560   7.515   4.050 -0.1165  0.2700  0.0300
 1731W        W 5475   1.310   8.326  11.564 -0.2262 -0.2637  0.1986
 1732W        W 5476   3.527   4.365  10.954 -0.0225  0.2089  0.1566
 1733W        W 5477   8.053   4.467   0.580 -0.3652 -0.0761  0.1477
 1734W        W 5478   0.979   8.720   0.175 -0.0693  0.2619 -0.0182
 1735W        W 5479   5.021   0.151  12.173 -0.0245 -0.1233 -0.2825
 1736W        W 5480   7.303   0.633   4.683  0.3046  0.1306 -0.1723
 1737W        W 5481   8.171   0.868   9.302  0.1665  0.2255  0.1004
 1738W        W 5482   6.729   0.963   1.988  0.2506 -0.2310 -0.2636
 1739W        W 5483   0.288   5.381   2.871 -0.2175  0.0747  0.2776
 1740W        W 5484   9.706   0.782   4.531 -0.0026  0.0407  0.0173
 1741W        W 5485   6.744   2.674  10.229 -0.2487  0.0797  0.1699
 1742W        W 5486   6.876   9.648  10.483 -0.1061  0.1274 -0.0865
 1743W        W 5487   8.933   9.114  12.045 -0.2358  0.2169  0.1934
 1744W        W 5488   0.536   8.004  12.082 -0.3124  0.2288  0.2175
 1745W        W 5489   7.075   4.503  10.843 -0.0561 -0.1451  0.1610
 1746W        W 5490   9.519   2.738   0.702  0.0838  0.3204 -0.1847
 1747W        W 5491   1.434   1.377  10.756 -0.1695 -0.1349 -0.1183
 1748W        W 5492   8.968   6.663  12.122  0.1263 -0.0096  0.2291
 1749W        W 5493   1.538   4.880  11.931  0.1002  0.1091 -0.1497
 1750W        W 5494   7.594   7.680  10.966  0.1721  0.0852 -0.0844
 1751W        W 5495   1.657   1.399   3.983  0.1674 -0.1354 -0.1817
 1752W        W 5496   9.620   0.291   3.760  0.0087  0.1821 -0.0687
 1753W        W 5497   3.643   2.776   0.785  0.2284  0.3585  0.1422
 1754W        W 5498   0.161   4.304   9.560  0.0403  0.0307 -0.3453
 1755W        W 5499   3.283   3.583  12.336  0.0324 -0.0597 -0.0444
 1756W        W 5500   2.459   9.277   4.498 -0.0701  0.0108 -0.0930
 1757W        W 5501   8.966   3.285  12.798  0.2678 -0.1591 -0.0739
 1758W        W 5502   2.788   4.786   3.624 -0.0535 -0.0681  0.0363
 1759W        W 5503   4.212   6.822   4.390  0.0596 -0.1220 -0.0835
 1760W        W 5504   1.954   0.129  10.418  0.1541  0.0858 -0.0953
 1761W        W 5505   8.297   7.224  12.711 -0.0236  0.0123  0.0096
 1762W        W 5506   4.263   2.606  10.854 -0.2538  0.3846  0.0216
 1763W        W 5507   4.129   5.560   9.578  0.2980 -0.2248  0.1611
 1764W        W 5508   0.908   6.307   3.819 -0.0860 -0.0702  0.0775
 1765W        W 5509   4.761   8.918  11.102 -0.0505  0.3336 -0.1310
 1766W        W 5510   2.376   9.153   9.980 -0.1721 -0.1333 -0.1756
 1767W        W 5511   2.817   3.376  12.236  0.0006  0.3411 -0.3561
 1768W        W 5512   9.039   6.172   2.007  0.1825  0.2313 -0.1509
 1769W        W 5513   1.654   3.771   4.156 -0.0663  0.1874 -0.3010
 1770W        W 5514   6.056   5.230   9.392  0.0862 -0.1997  0.2345
 1771W        W 5515   0.336   6.164   8.540 -0.1216 -0.2669  0.0128
 1772W        W 5516   0.751   9.083  10.055  0.0672 -0.0401 -0.0781
 1773W        W 5517   4.162   6.141   1.720 -0.1070 -0.1533  0.0625
 1774W        W 5518   0.834   0.183  12.777  0.1250 -0.2175 -0.0834
 1775W        W 5519   7.366   9.221   1.327 -0.1668  0.0693 -0.2423
 1776W        W 5520   4.192   0.164  12.498  0.0584 -0.1481 -0.3682
 1777W        W 5521   7.460   3.354  12.822  0.0487  0.1933  0.2547
 1778W        W 5522   1.615   9.525  10.192  0.3402  0.0577 -0.0962
 1779W        W 5523   3.495   5.470   3.999 -0.0213  0.0149 -0.0655
 1780W        W 5524   0.446   4.966   2.593  0.2027 -0.0091  0.3308
 1781W        W 5525   3.104   5.501  11.313 -0.0130  0.2806  0.0023
 1782W        W 5526   4.595   7.785   0.849  0.2317 -0.3461 -0.1299
 1783W        W 5527   2.790   1.005   3.385  0.0766  0.0863  0.3350
 1784W        W 5528   5.314   8.416   8.281  0.0740 -0.1362 -0.1838
 1785W        W 5529   4.073   7.759   0.009  0.0076 -0.0482  0.1497
 1786W        W 5530   5.247   2.613   3.546  0.1720 -0.1732  0.1648
 1787W        W 5531   0.603   0.238   4.398  0.2743 -0.0472 -0.2153
 1788W        W 5532   1.958   9.461   5.115  0.0217 -0.0156  0.1371
 1789W        W 5533   9.897   6.176   0.540 -0.0633 -0.1678 -0.2911
 1790W        W 5534   8.605   7.852   0.875  0.2826  0.3496  0.1007
 1791W        W 5535   7.317   0.129   1.642  0.0224 -0.0208  0.0305
 1792W        W 5536   0.450   5.372  12.460  0.0976 -0.0387  0.0725
 1793W        W 5537   1.219   7.672   2.563  0.1239 -0.0419 -0.1912
 1794W        W 5538   0.588   2.505  12.298  0.1404  0.0790 -0.0185
 1795W        W 5539   4.418   1.224   2.769 -0.3074  0.1077  0.1301
 1796W        W 5540   1.848   0.896  12.088 -0.1830  0.1876 -0.0229
 1797W        W 5541   5.253   7.251  10.509  0.0495  0.0017 -0.5019
 1798W        W 5542   2.499   1.643   0.197 -0.2555  0.2602 -0.2400
 1799W        W 5543   0.772   9.125   2.950  0.3674  0.2023  0.0763
 1800W        W 5544   4.838   1.691   1.250  0.0124  0.0168  0.1276
 1801W        W 5545   9.696   1.875   1.234 -0.0120  0.0315  0.1564
 1802W        W 5546   0.617   2.722  12.749 -0.1484 -0.0823 -0.0164
 1803W        W 5547   4.438   4.845   0.708 -0.2328  0.2066  0.0813
 1804W        W 5548   9.562   4.937   3.299 -0.3725  0.4860  0.2381
 1805W        W 5549   2.217   5.990   2.425 -0.1306 -0.2636 -0.0730
 1806W        W 5550   6.203   6.697   0.567  0.0713  0.0769  0.2624
 1807W        W 5551   2.620   2.033   3.203 -0.3004  0.1960 -0.0042
 1808W        W 5552   6.112   6.725   8.563 -0.1326  0.0928  0.2496
 1809W        W 5553   5.676   5.352  12.088 -0.1828 -0.0740  0.4346
 1810W        W 5554   6.509   1.310  12.013 -0.1988 -0.2759 -0.2226
 1811W        W 5555   3.460   1.932   9.688 -0.2527  0.0167 -0.0585
 1812W        W 5556   3.968   8.521   4.560 -0.0319 -0.0271  0.2928
 1813W        W 5557   1.800   3.676  10.427  0.1306 -0.1223  0.0158
 1814W        W 5558   1.381   2.639  12.127  0.0510 -0.3711 -0.2679
 1815W        W 5559   9.352   8.708   0.596 -0.0413 -0.0187 -0.2937
 1816W        W 5560   9.379   2.864  10.023  0.0389  0.0556  0.2059
 1817W        W 5561   0.473   4.138  12.165  0.0608  0.2815 -0.2142
 1818W        W 5562   8.759   4.074   0.863 -0.2315 -0.0131  0.2626
 1819W        W 5563   7.718   4.175   4.134 -0.0404 -0.2545 -0.1080
 1820W        W 5564   0.275   2.142   9.370 -0.0818 -0.0725 -0.2877
 1821W        W 5565   2.927   1.173   1.644  0.3843 -0.0514 -0.0042
 1822W        W 5566   1.051   7.235   0.563  0.1273 -0.2117 -0.2780
 1823W        W 5567   8.716   5.654   2.011 -0.1495  0.0284 -0.3093
 1824W        W 5568   8.739   8.757  11.065  0.2124 -0.2305  0.0570
 1825W        W 5569   1.111   7.536   1.549  0.3484  0.1732 -0.0617
 1826W        W 5570   2.850   9.339  11.896  0.0116  0.1845 -0.1134
 1827W        W 5571   6.273   2.948   1.394 -0.2254 -0.1801  0.0718
 1828W        W 5572   9.307   2.438  12.782 -0.4651  0.1452  0.1421
 1829W        W 5573   3.236   9.678   2.825  0.2317  0.3502 -0.0860
 1830W        W 5574   3.859   1.273   0.385 -0.1749  0.0798  0.0371
 1831W        W 5575   9.095   5.491   8.708 -0.0876  0.1302 -0.1059
 1832W        W 5576   1.551   1.895   1.271  0.0141  0.0677 -0.0043
 1833W        W 5577   7.382   9.203   8.960 -0.2724  0.1325 -0.3941
 1834W        W 5578   3.744   5.783   3.419 -0.1371  0.1792 -0.1645
 1835W        W 5579   1.157   5.181   1.710  0.1779  0.0169 -0.4480
 1836W        W 5580   1.999   7.991   9.244  0.1109 -0.0124  0.1518
 1837W        W 5581   3.583   5.651   9.736  0.0378 -0.0526 -0.1862
 1838W        W 5582   3.375   5.348   2.461 -0.3545  0.0269 -0.1309
 1839W        W 5583   2.739   8.815  11.602  0.1539  0.2776 -0.0724
 1840W        W 5584   7.785   2.856   0.086 -0.0575 -0.0819 -0.0187
 1841W        W 5585   7.056   3.411  10.411  0.1153 -0.1198 -0.2059
 1842W        W 5586   3.259   9.740  12.061  0.0054  0.2078 -0.0987
 1843W        W 5587   6.170   0.089  12.709 -0.0386  0.2532  0.1303
 1844W        W 5588   7.347   9.720  12.432 -0.0335 -0.2924 -0.0983
 1845W        W 5589   6.548   7.141   2.645 -0.2822  0.0166  0.1366
 1846W        W 5590   8.242   4.110   4.095 -0.2684 -0.1677  0.0047
 1847W        W 5591   9.694   4.030   1.148  0.0068  0.3469  0.0486
 1848W        W 5592   2.438   4.026   9.775 -0.3231  0.0107 -0.1227
 1849W        W 5593   4.815   7.495  10.832 -0.0377 -0.1437 -0.2456
 1850W        W 5594   6.789   7.533  12.503  0.0807 -0.2801 -0.1099
 1851W        W 5595   8.133   7.949   2.924  0.1156  0.0290  0.1825
 1852W        W 5596   1.934   3.079   2.314  0.2641  0.0771 -0.2145
 1853W        W 5597   9.071   9.578   9.742  0.1114  0.1115 -0.0909
 1854W        W 5598   8.740   7.813   4.487 -0.1476  0.2182  0.2154
 1855W        W 5599   9.303   5.655  10.880 -0.0170 -0.1564  0.0693
 1856W        W 5600   7.491   0.117  12.079 -0.0319  0.2847 -0.1137
 1857W        W 5601   0.685   1.894   2.231  0.0378  0.2401  0.0141
 1858W        W 5602   4.036   1.498  12.042 -0.0917 -0.1374  0.1178
 1859W        W 5603   7.678   9.608   1.473  0.2753  0.0855 -0.2925
 1860W        W 5604   3.726   7.577   2.837 -0.2338  0.2620 -0.1467
 1861W        W 5605   8.928   6.454   8.713  0.1830 -0.3037 -0.0821
 1862W        W 5606   0.284   0.722  12.048 -0.0126  0.0181 -0.2981
 1863W        W 5607   6.794   9.791   0.949 -0.0596  0.1151  0.1307
 1864W        W 5608   1.669   4.306   9.552 -0.1560  0.0057 -0.0913
 1865W        W 5609   7.512   2.315  12.307 -0.3116 -0.1919  0.0961
 1866W        W 5610   8.975   5.030   8.597  0.0331  0.3532 -0.2459
 1867W        W 5611   0.254   2.772   2.882 -0.0920  0.0367  0.1802
 1868W        W 5612   8.242   6.989   2.350 -0.0581 -0.1575  0.0604
 1869W        W 5613   2.804   6.946   1.724 -0.0818 -0.0900 -0.1946
 1870W        W 5614   9.227   0.392  12.478  0.0192  0.3198  0.1925
 1871W        W 5615   6.669   1.389   1.716 -0.0465 -0.0977 -0.1130
 1872W        W 5616   8.907   9.113   2.196  0.1411 -0.1488  0.2526
 1873W        W 5617   0.567   7.451   0.699  0.0797 -0.1100  0.0719
 1874W        W 5618   0.903   3.545   3.324  0.1229 -0.1384 -0.0254
 1875W        W 5619   5.318   1.575   1.576 -0.0580  0.0724 -0.0709
 1876W        W 5620   5.819   4.765   9.684 -0.0924  0.0570 -0.1009
 1877W        W 5621   4.200   8.471   1.631  0.3624 -0.0610  0.1051
 1878W        W 5622   6.325   2.066   0.035  0.0424 -0.0891 -0.0124
 1879W        W 5623   4.279   0.747   2.937  0.2489  0.0268  0.3387
 1880W        W 5624   7.429   1.081   0.762  0.0242 -0.0295 -0.0927
 1881W        W 5625   3.605   2.827   9.497  0.2888 -0.1524 -0.2343
 1882W        W 5626   0.945   7.620  10.805  0.1964  0.2941 -0.0160
 1883W        W 5627   1.545   8.627   0.768 -0.2224 -0.1376  0.1184
 1884W        W 5628   7.886   8.664   9.722  0.0383 -0.1445 -0.0710
 1885W        W 5629   1.694   4.887   0.604 -0.0963 -0.0163  0.0436
 1886W        W 5630   0.762   1.602   4.453  0.0372 -0.0697  0.2490
 1887W        W 5631   4.313   3.964   1.436 -0.2066  0.1814 -0.0559
 1888W        W 5632   5.057   0.203   9.616  0.0925 -0.2446 -0.2475
 1889W        W 5633   6.281   9.644   2.337  0.2220  0.1169  0.1568
 1890W        W 5634   0.978   8.850   1.997  0.0514  0.2636 -0.1237
 1891W        W 5635   7.829   0.315   3.352  0.2383 -0.4282  0.3340
 1892W        W 5636   5.318   3.047   0.029  0.0199  0.2805  0.1395
 1893W        W 5637   7.355   0.916   3.135 -0.0139 -0.0624  0.3783
 1894W        W 5638   8.469   4.270   2.182 -0.3084 -0.1486 -0.1475
 1895W        W 5639   8.225   7.741  12.226  0.2032 -0.2008 -0.2387
 1896W        W 5640   0.189   0.015   2.893  0.0345 -0.1663 -0.2273
 1897W        W 5641   9.183   5.440  10.465  0.4488 -0.0830  0.0448
 1898W        W 5642   5.615   0.099   4.296  0.3135  0.1354 -0.3908
 1899W        W 5643   1.765   3.461   3.664 -0.3225 -0.4044  0.2193
 1900W        W 5644   7.621   3.623  12.184 -0.3421  0.0507  0.0543
 1901W        W 5645   8.682   4.903  11.076 -0.2893  0.1042 -0.2134
 1902W        W 5646   0.374   0.299  12.932  0.1674 -0.0229  0.1341
 1903W        W 5647   5.526   3.707   1.644 -0.1196 -0.1082 -0.1155
 1904W        W 5648   8.138   6.058  11.334  0.2241  0.0696  0.1076
 1905W        W 5649   5.412   8.585   2.467  0.1263  0.2951  0.3202
 1906W        W 5650   7.604   6.167   1.579  0.2149 -0.0267 -0.5146
 1907W        W 5651   6.645   4.696   2.314 -0.1264  0.2669  0.3392
 1908W        W 5652   2.242   0.839   4.929  0.3464  0.2229  0.1879
 1909W        W 5653   0.560   4.411   0.498 -0.1880 -0.1260 -0.0373
 1910W        W 5654   9.532   6.698   2.288  0.3719  0.2770  0.2940
 1911W        W 5655   5.553   8.183   2.804  0.0487  0.0441 -0.2547
 1912W        W 5656   1.910   8.932   2.164 -0.3306 -0.0630  0.0749
 1913W        W 5657   2.705   4.441  11.502 -0.1632 -0.0440 -0.4351
 1914W        W 5658   9.331   8.393   1.853 -0.1306 -0.0423 -0.0713
 1915W        W 5659   4.648   5.899   1.442 -0.1986 -0.1938 -0.2697
 1916W        W 5660   2.732   5.815   2.568  0.2117  0.3554  0.0762
 1917W        W 5661   2.404   9.601  12.102 -0.0201  0.2021 -0.0325
 1918W        W 5662   8.928   4.211   2.902  0.0728 -0.0744  0.1125
 1919W        W 5663   3.306   1.342   1.928 -0.0880 -0.5134  0.0761
 1920W        W 5664   2.880   5.061   8.158 -0.4260 -0.1077 -0.2150
 1921W        W 5665   4.722   0.552  10.856  0.1341  0.2193 -0.0489
 1922W        W 5666   8.858   6.841  10.752  0.0509  0.3743 -0.0157
 1923W        W 5667   0.595   7.423  10.392  0.2229  0.0297 -0.3727
 1924W        W 5668   9.763   5.593   3.093  0.0685  0.1011 -0.1967
 1925W        W 5669   9.033   1.980   2.748  0.2259  0.1753 -0.1327
 1926W        W 5670   2.106   8.697   3.244 -0.0290 -0.0793 -0.1161
 1927W        W 5671   3.483   0.214   3.017 -0.0369  0.0698 -0.0132
 1928W        W 5672   3.304   0.490   0.025 -0.2374 -0.2515 -0.3171
 1929W        W 5673   1.825   8.870   4.084  0.1007  0.3002 -0.0852
 1930W        W 5674   9.165   2.874   3.099 -0.2333 -0.1539  0.1229
 1931W        W 5675   0.695   7.486   4.559  0.0206 -0.2927 -0.0415
 1932W        W 5676   7.595   6.998  12.785  0.1994 -0.1993 -0.0857
 1933W        W 5677   9.108   0.713  10.171  0.0503  0.0643 -0.0243
 1934W        W 5678   6.120   1.010  11.088  0.0588  0.0888 -0.2463
 1935W        W 5679   5.695   7.970   4.594 -0.0491 -0.1448 -0.0961
 1936W        W 5680   3.923   4.261  12.087 -0.1395  0.1333  0.0624
 1937W        W 5681   2.665   6.055  10.317 -0.0423  0.0875 -0.1702
 1938W        W 5682   8.935   3.515   1.137 -0.0863 -0.0172  0.3045
 1939W        W 5683   4.482   7.665  11.729  0.2115 -0.1259  0.0007
 1940W        W 5684   0.830   9.133   3.711 -0.0338 -0.1340  0.1650
 1941W        W 5685   7.924   2.171   0.211 -0.0435 -0.1078 -0.3303
 1942W        W 5686   2.368   8.472  11.699  0.0493  0.0262 -0.4617
 1943W        W 5687   6.989   5.242  10.968  0.2483 -0.1987 -0.0491
 1944W        W 5688   6.578   0.221  10.528  0.3361 -0.1529 -0.0368
 1945W        W 5689   4.765   6.566  10.404  0.1966  0.0758 -0.0412
 1946W        W 5690   6.202   5.863  12.916 -0.2596  0.1893  0.1897
 1947W        W 5691   2.413   8.871   0.401 -0.1337 -0.0027 -0.0434
 1948W        W 5692   1.796   9.883   0.325  0.0119 -0.0861 -0.2175
 1949W        W 5693   5.245   5.576  10.795  0.1563  0.1706  0.0049
 1950W        W 5694   6.224   1.769   1.904 -0.1713  0.0567  0.2954
 1951W        W 5695   9.581   9.765   3.354  0.1301  0.0989  0.0132
 1952W        W 5696   4.406   1.170   1.278 -0.0509  0.0263  0.3193
 1953W        W 5697   0.406   8.199   1.398 -0.1296 -0.0176  0.5057
 1954W        W 5698   4.494   7.790  11.251 -0.2416 -0.1080 -0.0321
 1955W        W 5699   3.794   5.615   0.392  0.2591 -0.1052 -0.1180
 1956W        W 5700   5.403   8.278   3.520  0.2287 -0.1602  0.0145
 1957W        W 5701   0.781   8.168   3.232 -0.0246  0.1582 -0.1321
 1958W        W 5702   4.327   7.917  12.187  0.0347  0.0921  0.0122
 1959W        W 5703   2.436   8.274  12.210 -0.2588 -0.0652  0.0783
 1960W        W 5704   8.509   8.311  11.779 -0.0113 -0.0897 -0.0048
 1961W        W 5705   5.304   7.559  11.001 -0.1820 -0.0833 -0.3309
 1962W        W 5706   3.561   0.560  12.507  0.0926  0.2157  0.0577
 1963W        W 5707   4.326   3.229  10.235  0.2292  0.4421 -0.1329
 1964W        W 5708   0.130   3.616   0.314  0.0969  0.1679  0.1989
 1965W        W 5709   1.058   6.172  11.445  0.0107 -0.1217 -0.0422
 1966W        W 5710   4.387   5.794   2.812  0.1981 -0.0575 -0.2599
 1967W        W 5711   0.566   1.156   4.592  0.0019  0.2288  0.0044
 1968W        W 5712   6.451   1.289   8.956  0.0243 -0.2832 -0.1422
 1969W        W 5713   9.251   5.087  10.888 -0.0370  0.2319  0.3213
 1970W        W 5714   0.188   4.757   9.026 -0.0038  0.0603  0.0174
 1971W        W 5715   3.585   8.015   9.930  0.0874 -0.0229  0.0624
 1972W        W 5716   8.155   7.589   4.244 -0.1123 -0.1972  0.1968
 1973W        W 5717   8.076   9.288  11.565 -0.0040  0.1071  0.0077
 1974W        W 5718   6.535   8.018   0.823 -0.0672  0.1321  0.1235
 1975W        W 5719   4.096   8.899   1.938 -0.0529 -0.1262  0.0311
 1976W        W 5720   6.674   5.856   8.692  0.0042 -0.1066  0.2335
 1977W        W 5721   0.794   5.771  11.193 -0.0682  0.1843 -0.0027
 1978W        W 5722   8.036   7.524  11.229 -0.0411 -0.0393  0.1930
 1979W        W 5723   2.388   5.374   4.337  0.0839 -0.2073 -0.2744
 1980W        W 5724   1.392   8.195   0.523  0.0620 -0.1903 -0.2972
 1981W        W 5725   9.353   7.065  12.776  0.0954  0.0423  0.2125
 1982W        W 5726   0.229   9.347   2.026  0.2940 -0.1227 -0.0883
 1983W        W 5727   4.862   4.161   1.413 -0.0421  0.1221  0.2268
 1984W        W 5728   7.470   8.604  11.694 -0.1681 -0.3401 -0.0852
 1985W        W 5729   2.753   7.103  11.363 -0.3600  0.3045  0.2381
 1986W        W 5730   3.639   2.247   0.788 -0.1790 -0.0925  0.1446
 1987W        W 5731   5.460   7.288   8.955  0.0365  0.3532 -0.2456
 1988W        W 5732   9.352   5.901   8.353  0.1458 -0.1304 -0.0257
 1989W        W 5733   1.011   0.493   0.236 -0.1365  0.1281 -0.1925
 1990W        W 5734   8.054   1.063   9.827  0.0911  0.3583 -0.2472
 1991W        W 5735   6.721   1.234   3.516 -0.2605  0.0918  0.1753
 1992W        W 5736   8.195   5.100   0.956 -0.1532  0.0472 -0.1019
 1993W        W 5737   9.820   0.328  11.910  0.2236 -0.1167 -0.1306
 1994W        W 5738   2.580   0.816   2.405  0.1801 -0.1552 -0.0344
 1995W        W 5739   3.098   0.551   3.248  0.0762 -0.3254 -0.2124
 1996W        W 5740   4.587   8.795   1.991  0.0562 -0.0618  0.1043
 1997W        W 5741   0.277   3.895   3.841 -0.1082  0.1115 -0.0479
 1998W        W 5742   4.934   5.708  11.198  0.2542 -0.2600  0.1911
 1999W        W 5743   3.248   9.749   9.261  0.0563  0.0840  0.0123
 2000W        W 5744   5.669   2.615   1.975  0.1748  0.2131  0.1145
 2001W        W 5745   9.248   4.226  12.853 -0.0685  0.2487 -0.2257
 2002W        W 5746   5.962   8.020   9.459 -0.0441  0.1721  0.1423
 2003W        W 5747   7.831   2.684  11.398 -0.1359 -0.0762 -0.2720
 2004W        W 5748   5.600   9.208  12.455 -0.1165  0.0046  0.0259
 2005W        W 5749   0.955   3.976   9.835  0.1390  0.0261 -0.1560
 2006W        W 5750   3.742   1.266  11.694  0.1139 -0.1186  0.0047
 2007W        W 5751   5.616   8.887   8.243  0.2741  0.0323  0.0025
 2008W        W 5752   2.953   5.177   3.814 -0.2040 -0.0879  0.4285
 2009W        W 5753   8.533   4.494  10.676 -0.1183 -0.0637 -0.3207
 2010W        W 5754   5.355   7.256   2.602 -0.3019 -0.1541 -0.0319
 2011W        W 5755   0.174   1.746  12.011  0.0337 -0.1765  0.1005
 2012W        W 5756   0.849   8.380  10.291 -0.1681  0.0914  0.1026
 2013W        W 5757   2.231   4.017   2.593 -0.1712  0.2102 -0.1687
 2014W        W 5758   5.749   6.200  12.825 -0.0213  0.3090 -0.0640
 2015W        W 5759   1.624   7.105  10.209  0.0534 -0.0409  0.3180
 2016W        W 5760   3.602   4.924   9.817 -0.4307  0.1853 -0.0234
 2017W        W 5761   2.139   7.871   8.629 -0.2222 -0.1234 -0.1212
 2018W        W 5762   5.113   7.071  11.011 -0.0520  0.1432  0.0618
 2019W        W 5763   1.571   3.306   4.067  0.1937  0.1351 -0.3141
 2020W        W 5764   2.771   5.177   9.483  0.0191 -0.1808 -0.1978
 2021W        W 5765   7.564   9.286   8.383 -0.3225  0.1948 -0.0140
 2022W        W 5766   1.019   6.697   2.579 -0.1165 -0.0399 -0.3442
 2023W        W 5767   6.167   2.399  12.041 -0.1335 -0.2051  0.2718
 2024W        W 5768   1.976   9.628  11.066 -0.1299 -0.1748 -0.3228
 2025W        W 5769   1.663   6.145   3.725  0.1305  0.1379  0.2553
 2026W        W 5770   3.261   0.597   1.564  0.1325  0.0798 -0.1198
 2027W        W 5771   0.219   0.809   2.721  0.2218 -0.2830 -0.0330
 2028W        W 5772   9.599   8.169   0.452  0.3963  0.2579  0.0437
 2029W        W 5773   3.213   5.469   9.312  0.2856  0.1123 -0.0033
 2030W        W 5774   5.177   8.405   0.521 -0.2388 -0.0323 -0.0439
 2031W        W 5775   5.228   3.623   3.702 -0.0771 -0.0348 -0.0605
 2032W        W 5776   6.876   3.087   9.970 -0.0789 -0.1272  0.1624
 2033W        W 5777   1.382   5.473   1.409  0.1355  0.1019  0.2458
 2034W        W 5778   0.194   6.894   8.835  0.0736  0.2664 -0.1855
 2035W        W 5779   1.488   6.429   9.027 -0.2915 -0.0498 -0.1624
 2036W        W 5780   1.240   8.188  10.804  0.0258  0.1908 -0.3697
 2037W        W 5781   7.192   8.704   4.554 -0.4531 -0.1532  0.1650
 2038W        W 5782   6.319   8.272  11.390 -0.2219  0.1900  0.1565
 2039W        W 5783   1.157   1.261  11.779  0.0838  0.1343 -0.0573
 2040W        W 5784   5.753   4.781   2.764 -0.1676  0.3989 -0.1928
 2041W        W 5785   1.366   7.198  10.901  0.1328  0.2532  0.1050
 2042W        W 5786   1.471   0.762  10.143  0.1069 -0.0286 -0.1116
 2043W        W 5787   1.243   1.162   3.641 -0.1679 -0.1247  0.0307
 2044W        W 5788   4.324   9.173  10.162  0.1781 -0.0537  0.1586
 2045W        W 5789   0.311   4.088  11.102 -0.3193 -0.0794 -0.2542
 2046W        W 5790   9.784   7.997   3.480  0.1299 -0.2489 -0.0184
 2047W        W 5791   5.798   5.353   8.952  0.3651  0.2314 -0.0655
 2048W        W 5792   4.072   6.276   0.197 -0.0780 -0.0325  0.1680
 2049W        W 5793   4.756   1.452   3.093 -0.2728 -0.1188  0.0133
 2050W        W 5794   6.481   4.086   1.731  0.0917  0.3206 -0.4489
 2051W        W 5795   5.187   6.570   4.555  0.0044 -0.1282 -0.0074
 2052W        W 5796   9.698   3.757   8.553 -0.0156  0.3472 -0.0357
 2053W        W 5797   8.589   7.785  11.814  0.2210  0.3019  0.0247
 2054W        W 5798   2.291   2.288   2.328 -0.4082  0.2395  0.0267
 2055W        W 5799   1.583   8.770   3.068  0.1381  0.1902 -0.0546
 2056W        W 5800   5.826   0.592  10.741  0.0000 -0.1979  0.1867
 2057W        W 5801   3.915   9.105   4.398  0.1008 -0.0039  0.1440
 2058W        W 5802   7.682   7.544   2.626  0.1173  0.2722  0.0334
 2059W        W 5803   6.800   5.805   4.178  0.2394  0.1687  0.0611
 2060W        W 5804   0.754   7.271  11.801  0.1918  0.0696 -0.0110
 2061W        W 5805   9.605   4.808  12.054  0.1138 -0.0106 -0.3911
 2062W        W 5806   9.552   4.146   9.720 -0.3339  0.1543  0.1249
 2063W        W 5807   9.381   1.767   0.592 -0.1864  0.1259  0.3718
 2064W        W 5808   0.684   1.402   1.947 -0.1218 -0.1767 -0.0479
 2065W        W 5809   5.576   5.347  12.580  0.1213 -0.1343  0.1922
 2066W        W 5810   5.342   1.139   9.736 -0.2483 -0.0625 -0.0058
 2067W        W 5811   6.958   8.413   0.964 -0.1216 -0.1308  0.0590
 2068W        W 5812   6.437   5.420  12.904  0.0865 -0.2433 -0.1415
 2069W        W 5813   3.285   6.797   0.072 -0.2435 -0.0095  0.0864
 2070W        W 5814   2.205   2.091  11.062 -0.0421 -0.1998  0.2071
 2071W        W 5815   8.210   0.068   9.425  0.0231  0.2462  0.0532
 2072W        W 5816   1.198   4.042   3.353 -0.0791  0.4902  0.1396
 2073W        W 5817   1.678   4.771   3.585 -0.0739 -0.0348 -0.3336
 2074W        W 5818   3.506   3.227   0.606 -0.1399  0.4010  0.3646
 2075W        W 5819   6.809   4.249   3.557  0.2858 -0.4363 -0.1520
 2076W        W 5820   7.324   0.897  11.559  0.0514  0.1610 -0.0678
 2077W        W 5821   4.780   4.411   0.408 -0.2111  0.0471 -0.1960
 2078W        W 5822   0.453   7.536   2.061  0.5788  0.5934  0.2699
 2079W        W 5823   3.762   7.076   0.614  0.0323 -0.0854 -0.1363
 2080W        W 5824   7.692   6.143  12.498  0.2173 -0.0379  0.1994
 2081W        W 5825   0.560   8.589   9.194  0.0325 -0.3073 -0.0715
 2082W        W 5826   0.088   4.409  12.852 -0.2360  0.0368 -0.3363
 2083W        W 5827   0.129   2.768  12.332 -0.2170 -0.1247  0.0698
 2084W        W 5828   4.636   3.651  10.152  0.2759 -0.3733 -0.1360
 2085W        W 5829   4.705   5.995   3.413 -0.2105  0.2098 -0.0086
 2086W        W 5830   4.485   6.741  11.852  0.3365 -0.1052 -0.2462
 2087W        W 5831   8.074   5.134   2.360 -0.0261  0.0964 -0.1389
 2088W        W 5832   8.405   3.828  10.416 -0.1375  0.3013  0.1408
 2089W        W 5833   5.473   5.087  11.745 -0.1292  0.1714  0.0043
 2090W        W 5834   7.608   2.794   4.033 -0.2029 -0.0319 -0.0747
 2091W        W 5835   6.369   4.161   3.039 -0.1323  0.0577 -0.1999
 2092W        W 5836   6.704   9.106   9.323 -0.0222 -0.1255 -0.1440
 2093W        W 5837   8.168   7.113   3.448  0.2226 -0.2064 -0.0934
 2094W        W 5838   5.987   5.952  10.991  0.2966  0.0747  0.3274
 2095W        W 5839   8.756   1.707  10.870 -0.0465 -0.4142 -0.2248
 2096W        W 5840   5.558   0.447   2.490 -0.1043  0.0354 -0.3061
 2097W        W 5841   1.686   5.364   2.977  0.0625  0.0186 -0.2303
 2098W        W 5842   2.804   2.919  11.156 -0.3935  0.2667  0.2590
 2099W        W 5843   9.128   3.966   1.314  0.3349  0.1492 -0.1781
 2100W        W 5844   3.111   0.732   3.730 -0.3719  0.0626  0.0030
 2101W        W 5845   4.466   7.069   9.869 -0.0329 -0.0047 -0.1445
 2102W        W 5846   8.005   6.984   8.797  0.0230  0.3923  0.1045
 2103W        W 5847   8.453   7.566   2.258  0.1471  0.3875  0.2639
 2104W        W 5848   2.238   5.390  11.435 -0.1210 -0.0574  0.0239
 2105W        W 5849   0.684   0.073  10.342 -0.1132 -0.1090  0.3107
 2106W        W 5850   3.984   2.714   2.863 -0.1076  0.2087 -0.0687
 2107W        W 5851   7.201   5.671   0.680 -0.0260 -0.0140 -0.0377
 2108W        W 5852   3.011   0.015   3.192  0.0529  0.0463 -0.3496
 2109W        W 5853   6.686   4.708   8.981  0.2768 -0.1892 -0.0177
 2110W        W 5854   9.230   2.582   9.179 -0.0912 -0.1154 -0.2428
 2111W        W 5855   7.950   3.681  11.267 -0.4782 -0.1982  0.0200
 2112W        W 5856   1.911   9.250  11.979 -0.0317  0.1046 -0.1683
 2113W        W 5857   2.894   4.823  10.688  0.1706 -0.2958 -0.2331
 2114W        W 5858   0.087   4.047  11.876 -0.1887 -0.0823  0.2246
 2115W        W 5859   7.986   8.280  10.615  0.0042  0.0699 -0.2793
 2116W        W 5860   7.504   1.528   2.565  0.1705  0.0441 -0.1846
 2117W        W 5861   7.324   0.626   1.564  0.2446  0.0528 -0.1224
 2118W        W 5862   5.643   8.282   1.321  0.0326  0.3722 -0.1757
 2119W        W 5863   6.777   2.776  12.546 -0.1778 -0.0980 -0.0327
 2120W        W 5864   9.195   1.437  11.007 -0.0292  0.3534  0.2782
 2121W        W 5865   6.239   5.494   9.745 -0.0543 -0.1093 -0.1153
 2122W        W 5866   5.511   0.099   2.052  0.0043  0.2953  0.2016
 2123W        W 5867   3.312   0.323  12.067 -0.1466 -0.2857 -0.0898
 2124W        W 5868   9.777   0.337  10.311 -0.2858 -0.5423 -0.0275
 2125W        W 5869   8.966   8.859  12.832  0.0367 -0.1799 -0.1806
 2126W        W 5870   9.628   6.971   3.478 -0.0554  0.3201  0.3068
 2127W        W 5871   2.543   5.435   2.876  0.1510 -0.2811  0.0098
 2128W        W 5872   8.138   4.269  12.118  0.1880 -0.2750  0.0675
 2129W        W 5873   2.813   7.016   4.354  0.0751 -0.2961 -0.0157
 2130W        W 5874   8.390   9.674  11.239  0.0602  0.2713 -0.0929
 2131W        W 5875   7.506   8.273   4.532  0.0207  0.0553 -0.2854
 2132W        W 5876   1.052   7.138   1.022 -0.0654  0.1045 -0.2340
 2133W        W 5877   0.396   9.053   3.367  0.1641 -0.0796  0.1623
 2134W        W 5878   1.180   3.840   4.287 -0.2418 -0.1132 -0.1599
 2135W        W 5879   2.857   9.181   1.596 -0.0202  0.0558  0.1445
 2136W        W 5880   7.740   5.089   9.882  0.2650 -0.1037 -0.2136
 2137W        W 5881   3.592   9.063  12.003  0.0736  0.2849  0.5312
 2138W        W 5882   1.660   4.401   3.231 -0.0498 -0.0969  0.3921
 2139W        W 5883   5.727   5.235   9.820 -0.0090 -0.2291  0.2291
 2140W        W 5884   0.063   0.748  10.012  0.2335  0.0495 -0.0480
 2141W        W 5885   8.720   6.719   3.037 -0.0156 -0.0956 -0.0264
 2142W        W 5886   0.396   5.622   4.357 -0.0737 -0.2025  0.0188
 2143W        W 5887   5.566   0.370   0.433 -0.2542 -0.1554  0.0712
 2144W        W 5888   7.120   6.676   4.354  0.1898 -0.0887  0.0870
 2145W        W 5889   7.914   9.754  11.367 -0.2440  0.0454 -0.2401
 2146W        W 5890   9.270   0.282  11.987 -0.1217 -0.0282 -0.1049
 2147W        W 5891   1.505   3.487   1.532  0.0400  0.0055  0.3782
 2148W        W 5892   1.669   0.135  12.388  0.1265 -0.1174 -0.3021
 2149W        W 5893   9.618   9.822  12.089  0.0988 -0.0392 -0.2561
 2150W        W 5894   5.657   3.275  10.487  0.2397 -0.3584  0.0715
 2151W        W 5895   8.762   4.628  12.167  0.2829  0.0430 -0.0805
 2152W        W 5896   5.107   0.526   3.196  0.0993 -0.1574  0.2723
 2153W        W 5897   9.422   6.786   2.747  0.2220 -0.1444 -0.0566
 2154W        W 5898   8.236   0.665  10.185  0.2917 -0.1668  0.0808
 2155W        W 5899   0.616   3.116   9.368  0.0709 -0.0657  0.2659
 2156W        W 5900   0.254   3.069   2.090 -0.0842 -0.2828  0.0184
 2157W        W 5901   4.364   1.793   1.162 -0.0191  0.3515 -0.2099
 2158W        W 5902   2.174   6.901   2.549 -0.2356 -0.1080  0.0425
 2159W        W 5903   2.923   9.739   3.756 -0.2217 -0.0590 -0.0855
 2160W        W 5904   6.094   4.230   1.002 -0.1250 -0.0154 -0.2353
 2161W        W 5905   2.931   8.096   2.341  0.1630 -0.1359 -0.0616
 2162W        W 5906   3.884   6.992  10.240  0.2871  0.1935  0.0072
 2163W        W 5907   1.146   9.403  11.405  0.0521  0.2525  0.4029
 2164W        W 5908   9.486   5.769   8.895 -0.3175  0.0862  0.4529
 2165W        W 5909   9.088   5.050   9.204 -0.2140 -0.2234 -0.1707
 2166W        W 5910   4.384   1.554   1.638 -0.0989 -0.0771 -0.3063
 2167W        W 5911   6.892   5.554   3.736 -0.1568  0.2114 -0.5583
 2168W        W 5912   8.850   4.610   2.013 -0.0653 -0.0023 -0.0329
 2169W        W 5913   1.993   1.546  11.436 -0.0070 -0.1137  0.0236
 2170W        W 5914   1.233   6.300   1.177  0.1149 -0.0960 -0.0145
 2171W        W 5915   5.743   2.013  10.662  0.4030  0.2370 -0.1764
 2172W        W 5916   4.751   8.160  11.793 -0.1827  0.1136 -0.0423
 2173W        W 5917   2.459   4.906  11.446 -0.0257 -0.1791 -0.2406
 2174W        W 5918   1.230   5.193   5.360 -0.0970  0.1451  0.2446
 2175W        W 5919   1.890   1.348   3.038  0.0046  0.2957 -0.1641
 2176W        W 5920   4.794   5.997   2.469  0.0695 -0.0516 -0.1354
 2177W        W 5921   8.209   2.633   2.860 -0.0046  0.1628 -0.0405
 2178W        W 5922   0.041   8.272  10.110 -0.1589 -0.0211 -0.0373
 2179W        W 5923   1.891   2.723   0.724  0.1954 -0.0242 -0.3386
 2180W        W 5924   2.818   8.559  12.871  0.2038 -0.0137 -0.2255
 2181W        W 5925   4.199   7.155   1.484 -0.3615 -0.1521 -0.0981
 2182W        W 5926   0.895   3.784   8.989  0.1754  0.0913 -0.0026
 2183W        W 5927   1.056   6.065  12.821 -0.0288 -0.5818 -0.0208
 2184W        W 5928   8.757   0.565   1.648 -0.2239 -0.2421  0.2410
 2185W        W 5929   1.924   1.401  12.243 -0.0125 -0.0790 -0.0213
 2186W        W 5930   7.836   6.453   8.842 -0.1046 -0.1347  0.1071
 2187W        W 5931   5.704   3.423   2.386  0.1222 -0.3178 -0.5064
 2188W        W 5932   5.241   2.799   1.880 -0.1872 -0.0702  0.0157
 2189W        W 5933   0.488   9.504   8.809 -0.0851  0.1060 -0.0624
 2190W        W 5934   8.813   6.343  11.208 -0.0350  0.3061  0.0532
 2191W        W 5935   2.782   0.739   2.874  0.3609 -0.1469  0.0067
 2192W        W 5936   4.028   5.495   3.172  0.1122  0.3582 -0.1552
 2193W        W 5937   9.691   8.383   9.305 -0.0031 -0.1119 -0.0373
 2194W        W 5938   0.924   5.828   8.966 -0.0793 -0.2603  0.0027
 2195W        W 5939   9.611   8.739   0.087 -0.0744 -0.2078  0.1809
 2196W        W 5940   2.403   7.481  11.925 -0.2082 -0.0881  0.0862
 2197W        W 5941   3.691   5.886   2.372 -0.0946 -0.1958 -0.0923
 2198W        W 5942   2.921   9.325   4.681  0.2549 -0.0386  0.0139
 2199W        W 5943   8.585   0.471   2.108 -0.3756  0.1058 -0.0461
 2200W        W 5944   9.038   8.243   3.250  0.4469  0.0501  0.3777
 2201W        W 5945   7.650   3.805   1.749  0.2244  0.1500 -0.1634
 2202W        W 5946   4.637   2.149  11.866  0.0214  0.1665 -0.2854
 2203W        W 5947   2.798   3.455   2.359  0.0243 -0.1922 -0.0566
 2204W        W 5948   2.329   0.988  12.079 -0.1031  0.0434 -0.1742
 2205W        W 5949   0.853   5.459   1.421 -0.1695  0.0288 -0.0676
 2206W        W 5950   1.970   3.430   9.484  0.0310 -0.1537  0.3380
 2207W        W 5951   1.122   5.257  11.244  0.0234  0.0322  0.0417
 2208W        W 5952   8.284   9.853  11.688 -0.1831  0.2335 -0.0101
 2209W        W 5953   8.826   8.421   2.624  0.0681 -0.0658 -0.0707
 2210W        W 5954   5.867   9.659   3.983 -0.3403  0.1061  0.3501
 2211W        W 5955   5.193   4.501   1.608  0.2093 -0.1880 -0.1028
 2212W        W 5956   0.740   5.916   9.438  0.4401 -0.3121  0.0676
 2213W        W 5957   7.350   3.373   4.174  0.1377 -0.0339 -0.1028
 2214W        W 5958   9.244   3.115  11.240 -0.0415 -0.2754  0.3207
 2215W        W 5959   5.206   4.947   2.337 -0.0703 -0.0914  0.3508
 2216W        W 5960   1.811   6.877  10.631  0.3957  0.1132 -0.0273
 2217W        W 5961   8.687   7.123   8.186  0.1247 -0.2128  0.5011
 2218W        W 5962   3.232   7.294  12.346 -0.0123  0.0752  0.2077
 2219W        W 5963   7.165   3.851   9.161 -0.3147 -0.1150 -0.3013
 2220W        W 5964   3.633   5.009   8.369  0.4560  0.1914  0.0514
 2221W        W 5965   7.310   8.977  12.021  0.1139  0.0789  0.4169
 2222W        W 5966   0.393   5.509   9.437  0.0571 -0.1214 -0.1952
 2223W        W 5967   3.492   2.582   1.299 -0.0940 -0.1144 -0.1761
 2224W        W 5968   9.534   9.833  11.622  0.0408 -0.1141 -0.0603
 2225W        W 5969   7.771   3.777   8.677 -0.0949 -0.4165 -0.0896
 2226W        W 5970   9.193   0.920   0.407 -0.0174 -0.3142  0.0322
 2227W        W 5971   0.336   6.611  10.291  0.2362  0.1482 -0.0745
 2228W        W 5972   5.752   7.679  10.699  0.1133 -0.1791 -0.0604
 2229W        W 5973   2.633   2.358  12.708  0.2470  0.1622  0.3046
 2230W        W 5974   0.028   4.514  10.380 -0.0470  0.3014  0.1176
 2231W        W 5975   3.792   8.385  10.342 -0.2976  0.2867 -0.1618
 2232W        W 5976   5.282   8.997   2.245  0.3327 -0.3441 -0.0860
 2233W        W 5977   7.019   1.621   2.679 -0.1100  0.5434  0.1485
 2234W        W 5978   7.816   9.052  11.898 -0.0096  0.4270  0.1867
 2235W        W 5979   7.744   3.114  12.498 -0.1975  0.2733 -0.0992
 2236W        W 5980   7.986   3.389   3.212 -0.0336  0.1280 -0.2502
 2237W        W 5981   8.502   8.324   1.935  0.1836 -0.1425 -0.3816
 2238W        W 5982   2.508   0.830   0.113  0.0883  0.1701  0.0146
 2239W        W 5983   1.830   8.272   0.122 -0.2261  0.0695 -0.3535
 2240W        W 5984   4.397   2.471   1.180 -0.2014  0.1777 -0.0439
 2241W        W 5985   8.639   7.987   9.456 -0.1628 -0.0030  0.2380
 2242W        W 5986   4.488   0.114  10.864 -0.0148  0.0763  0.3300
 2243W        W 5987   2.157   7.452   2.731 -0.2434  0.1546 -0.0150
 2244W        W 5988   2.696   6.414   1.256 -0.3921  0.0229 -0.2798
 2245W        W 5989   1.519   7.491   1.173  0.0323 -0.2914  0.0895
 2246W        W 5990   7.888   1.039   0.034  0.2031  0.1752  0.2871
 2247W        W 5991   9.426   0.175   8.577  0.0117  0.2529  0.4011
 2248W        W 5992   4.995   3.986  10.278 -0.0509  0.0404  0.0485
 2249W        W 5993   9.186   9.438   2.487  0.1623  0.0127 -0.0177
 2250W        W 5994   7.272   7.877  10.367 -0.1434  0.0040 -0.4159
 2251W        W 5995   1.092   4.544   4.341 -0.1671  0.0976  0.0068
 2252W        W 5996   8.280   8.842  11.464  0.0039  0.0232 -0.1795
 2253W        W 5997   9.666   2.568   0.163 -0.2538 -0.1598 -0.2092
 2254W        W 5998   8.229   8.048   1.129  0.0734  0.2571  0.0542
 2255W        W 5999   4.003   0.643  12.717  0.0773  0.2459 -0.2536
 2256W        W 6000   1.388   6.508   4.015 -0.0608 -0.0658  0.0228
 2257W        W 6001   2.597   3.966  10.589 -0.0374 -0.0189  0.2435
 2258W        W 6002   7.231   9.895   2.707 -0.3106 -0.1237  0.1449
 2259W        W 6003   9.035   6.045  12.149  0.1090 -0.3521  0.5270
 2260W        W 6004   8.328   6.846  11.973  0.0366  0.2737 -0.0959
 2261W        W 6005   7.551   9.345  12.206 -0.0516  0.0499 -0.2365
 2262W        W 6006   8.779   2.810   8.895 -0.0211  0.2773  0.1749
 2263W        W 6007   9.448   4.254   8.244  0.0666 -0.1671  0.3238
 2264W        W 6008   5.311   6.902   9.596 -0.0355 -0.1206 -0.2450
 2265W        W 6009   8.106   6.054   8.857 -0.1871 -0.2435 -0.2949
 2266W        W 6010   4.136   0.937  11.797  0.1376 -0.1586 -0.0824
 2267W        W 6011   3.631   7.569   9.781 -0.0173 -0.1766  0.0518
 2268W        W 6012   6.276   4.093   0.486  0.0478 -0.0896 -0.2210
 2269W        W 6013   2.266   5.963  12.870  0.1385 -0.3311 -0.1940
 2270W        W 6014   7.249   2.657   0.252  0.0641 -0.1654 -0.0091
 2271W        W 6015   1.565   1.697   2.247 -0.0750 -0.0074  0.2155
 2272W        W 6016   6.426   6.238   0.258  0.0556 -0.1789  0.0332
 2273W        W 6017   9.392   9.734   0.468 -0.0544  0.1232  0.1551
 2274W        W 6018   6.979   4.163   8.296 -0.0537 -0.0708 -0.1806
 2275W        W 6019   9.498   8.951  11.363  0.1487  0.0505 -0.1222
 2276W        W 6020   6.253   8.938   9.566  0.0821 -0.0162  0.3293
 2277W        W 6021   4.825   3.468   2.674  0.1125  0.0751  0.4615
 2278W        W 6022   8.168   2.924   2.009 -0.0184  0.0484  0.2315
 2279W        W 6023   2.644   9.111   3.473 -0.0522  0.0538 -0.1473
 2280W        W 6024   5.915   6.172   2.057 -0.1936 -0.0135 -0.1715
 2281W        W 6025   9.881   6.479   4.247 -0.2434  0.1601 -0.5058
 2282W        W 6026   6.608   5.073  12.481  0.0252  0.0365 -0.4054
 2283W        W 6027   2.782   9.713   9.039  0.2832  0.1299 -0.1706
 2284W        W 6028   9.706   3.780   4.159  0.2156 -0.1628 -0.0918
 2285W        W 6029   6.880   4.636   9.462 -0.0965 -0.1383 -0.4484
 2286W        W 6030   1.266   1.932   2.604 -0.0571 -0.0197  0.0627
 2287W        W 6031   6.929   8.303  10.135  0.0663  0.3139  0.2333
 2288W        W 6032   8.626   9.166  12.390 -0.0332 -0.1229  0.0068
 2289W        W 6033   1.443   8.853   1.190 -0.0973  0.1095  0.1261
 2290W        W 6034   9.789   9.627   0.766  0.1496  0.0645 -0.1350
 2291W        W 6035   5.605   3.490   0.807 -0.1696 -0.0061 -0.0262
 2292W        W 6036   2.538   4.385  12.373 -0.3156  0.1450  0.2464
 2293W        W 6037   6.610   9.765   9.155  0.0522  0.0231  0.1525
 2294W        W 6038   1.716   3.103  11.358 -0.0596 -0.0646  0.3827
 2295W        W 6039   4.585   5.461  10.771  0.1489  0.2811  0.3570
 2296W        W 6040   7.524   3.023   2.121  0.1425  0.0790 -0.3165
 2297W        W 6041   2.847   0.493   0.663  0.2448  0.0380  0.0416
 2298W        W 6042   0.495   1.823   9.047  0.3768 -0.1121 -0.2009
 2299W        W 6043   7.820   4.857  12.776  0.2792 -0.1080  0.1962
 2300W        W 6044   7.214   4.609   2.104  0.0239  0.1593 -0.0981
 2301W        W 6045   3.674   9.495   9.088 -0.2612 -0.1168 -0.2750
 2302W        W 6046   4.783   9.401  10.250  0.0978  0.0941 -0.3291
 2303W        W 6047   2.660   6.642  11.173  0.1388  0.2338 -0.2883
 2304W        W 6048   7.096   7.428  10.393 -0.3797 -0.0469 -0.0943
 2305W        W 6049   1.032   7.570   8.608 -0.0873  0.2424 -0.0907
 2306W        W 6050   1.748   4.303   9.027  0.2029  0.0102 -0.1559
 2307W        W 6051   4.278   8.994   3.715 -0.2775  0.0851  0.1596
 2308W        W 6052   9.398   6.219   5.046  0.2117 -0.0106  0.1689
 2309W        W 6053   9.118   6.140   3.407  0.2802  0.4336 -0.0665
 2310W        W 6054   5.531   4.471   8.412 -0.0492  0.0710 -0.0050
 2311W        W 6055   6.982   5.455   1.939  0.0644  0.1609 -0.0111
 2312W        W 6056   0.799   2.207  12.721  0.0498 -0.0947  0.0206
 2313W        W 6057   4.133   6.415  11.901 -0.3649  0.0198 -0.0970
 2314W        W 6058   5.065   8.159   3.871  0.1084  0.1522 -0.0994
 2315W        W 6059   9.340   5.102   2.505 -0.0109  0.1696  0.0444
 2316W        W 6060   9.228   4.541   9.093 -0.1062  0.2506  0.1656
 2317W        W 6061   5.843   5.745  12.551  0.1159 -0.1317 -0.0890
 2318W        W 6062   0.302   1.087   3.174 -0.2781  0.0991 -0.0424
 2319W        W 6063   4.398   5.981   9.618 -0.1758 -0.2132  0.0432
 2320W        W 6064   2.077   5.455   3.896  0.0627 -0.0958 -0.0854
 2321W        W 6065   6.100   2.808  11.759  0.2438  0.2531 -0.1475
 2322W        W 6066   3.613   1.429   1.015 -0.0843  0.3092  0.3885
 2323W        W 6067   7.329   6.397   8.873  0.1497 -0.0556 -0.1377
 2324W        W 6068   3.752   1.808  10.458 -0.1861 -0.0134 -0.2250
 2325W        W 6069   4.604   4.424   1.050 -0.1299  0.0021  0.2545
 2326W        W 6070   3.302   0.263   3.557  0.1329  0.0708 -0.1309
 2327W        W 6071   4.724   2.467  11.504  0.0371 -0.0209  0.1169
 2328W        W 6072   3.346   3.284  11.422  0.2202 -0.1145 -0.2777
 2329W        W 6073   2.683   7.611   3.620 -0.4580 -0.2178 -0.0422
 2330W        W 6074   7.656   8.523  12.311 -0.0861  0.0547 -0.0775
 2331W        W 6075   1.960   7.754  10.835  0.0878  0.3876 -0.2975
 2332W        W 6076   3.199   5.759   2.267  0.1404 -0.0313  0.1432
 2333W        W 6077   5.344   4.104   1.886  0.0287 -0.2292  0.0964
 2334W        W 6078   8.327   6.816  10.171 -0.1175 -0.1268 -0.2687
 2335W        W 6079   2.122   5.169   1.265 -0.1297  0.1232 -0.0375
 2336W        W 6080   4.789   5.628   9.714 -0.1211 -0.1118  0.0617
 2337W        W 6081   7.115   5.441   3.261 -0.0426 -0.0320 -0.2528
 2338W        W 6082   0.273   5.704   8.537  0.0628 -0.1589  0.1886
 2339W        W 6083   8.766   1.038   1.696  0.3883  0.0534 -0.1689
 2340W        W 6084   6.980   5.413  12.017  0.3382 -0.2616  0.3241
 2341W        W 6085   9.359   7.834  11.608  0.0661 -0.0108 -0.1547
 2342W        W 6086   3.488   9.055   2.062 -0.0659 -0.2897 -0.2014
 2343W        W 6087   3.728   0.663  10.030 -0.2575 -0.2192 -0.2266
 2344W        W 6088   3.353   2.879  11.156 -0.0212  0.1821 -0.0696
 2345W        W 6089   0.268   8.780  12.213  0.0482  0.0795  0.0702
 2346W        W 6090   3.673   0.333   1.883  0.3531  0.2321 -0.0972
 2347W        W 6091   5.349   5.550   8.929  0.2958  0.1212  0.1621
 2348W        W 6092   8.677   7.954   1.347  0.1871 -0.3677 -0.2188
 2349W        W 6093   5.431   4.902  12.368  0.1696 -0.0406 -0.2810
 2350W        W 6094   3.375   8.326   2.623  0.1237 -0.1149  0.1337
 2351W        W 6095   8.541   5.983  12.048 -0.0419  0.3482 -0.2408
 2352W        W 6096   7.496   0.787   4.108 -0.2353  0.2362  0.0352
 2353W        W 6097   3.192   5.096   0.089  0.1316  0.1688  0.0092
 2354W        W 6098   6.280   3.208   2.802  0.0025  0.1528  0.0072
 2355W        W 6099   4.558   1.072   9.056  0.0070  0.0235  0.1044
 2356W        W 6100   6.971   1.890  11.270  0.1011 -0.2949  0.1668
 2357W        W 6101   4.236   2.826  12.167 -0.2393  0.2328 -0.2396
 2358W        W 6102   0.610   7.460   2.986 -0.1214  0.1148 -0.2635
 2359W        W 6103   8.421   4.060  11.333  0.0775  0.2336 -0.3499
 2360W        W 6104   5.390   3.398  11.739  0.3496 -0.1587  0.0220
 2361W        W 6105   3.318   0.178   8.327 -0.0225 -0.3044  0.3359
 2362W        W 6106   1.427   2.091   9.119 -0.0753 -0.0482  0.0890
 2363W        W 6107   5.414   5.724   0.845 -0.2126  0.1513  0.1343
 2364W        W 6108   0.281   0.651  12.586  0.2970 -0.1673  0.1278
 2365W        W 6109   5.370   3.260   9.914 -0.1541 -0.0166 -0.1866
 2366W        W 6110   0.253   1.961  10.752 -0.1214 -0.3402 -0.1250
 2367W        W 6111   5.707   6.701   0.615 -0.1926  0.2032  0.4223
 2368W        W 6112   4.904   6.094  12.514 -0.1920 -0.1747  0.1062
 2369W        W 6113   1.940   8.008   1.352  0.0517  0.1992 -0.1886
 2370W        W 6114   6.321   1.228  11.502 -0.1697 -0.1369  0.3017
 2371W        W 6115   5.488   6.364  11.737 -0.1544 -0.1511 -0.0779
 2372W        W 6116   9.646   5.979   9.785 -0.1442  0.3072 -0.3231
 2373W        W 6117   3.299   7.846  11.036  0.5789 -0.1890  0.1005
 2374W        W 6118   9.091   4.327   3.872  0.0429  0.0089  0.0681
 2375W        W 6119   7.111   4.930   1.768 -0.1346 -0.0661 -0.1018
 2376W        W 6120   0.576   6.914  11.511 -0.4724 -0.0326  0.0349
 2377W        W 6121   8.833   3.572   4.383  0.2729  0.1269  0.2428
 2378W        W 6122   0.049   3.460   5.189 -0.1808 -0.0441  0.0362
 2379W        W 6123   1.429   4.947  11.440  0.3084  0.3680  0.1833
 2380W        W 6124   6.301   9.347  11.080  0.2297 -0.1515 -0.3438
 2381W        W 6125   8.480   9.818   0.157  0.4223  0.1241  0.2000
 2382W        W 6126   9.236   9.038   9.720  0.1056  0.1547 -0.0156
 2383W        W 6127   2.201   7.773  10.385 -0.4377  0.1401 -0.0657
 2384W        W 6128   3.978   4.430   4.165 -0.0970  0.3892 -0.2315
 2385W        W 6129   2.046   9.560   4.610  0.2334 -0.1261  0.1589
 2386W        W 6130   2.661   7.635  12.358  0.0432 -0.0988  0.4622
 2387W        W 6131   2.145   5.365   3.201 -0.1030  0.1525  0.4910
 2388W        W 6132   8.740   5.083  12.638 -0.0559 -0.3074  0.3279
 2389W        W 6133   5.988   5.460   3.372 -0.4033 -0.5057 -0.3799
 2390W        W 6134   7.580   6.601  12.522 -0.1254 -0.0576 -0.1062
 2391W        W 6135   9.209   5.007  10.241 -0.0208  0.1436  0.1579
 2392W        W 6136   5.792   0.204  10.086  0.2240 -0.0145 -0.0899
 2393W        W 6137   6.944   8.433  12.475 -0.1383  0.1393  0.1876
 2394W        W 6138   9.436   0.978  12.922 -0.0352 -0.0546 -0.4064
 2395W        W 6139   3.586   3.377  10.781  0.1250  0.1281 -0.1108
 2396W        W 6140   2.598   8.094   3.714 -0.2432  0.1095 -0.0337
 2397W        W 6141   1.643   8.589   9.178  0.1294  0.0164 -0.1621
 2398W        W 6142   7.251   7.395   3.469  0.0399 -0.0325  0.0105
 2399W        W 6143   2.175   4.554   2.463 -0.1743 -0.0546  0.1674
 2400W        W 6144   6.315   5.587   8.985  0.5139  0.3151 -0.0678
 2401W        W 6145   1.714   3.607  11.315  0.2257  0.1553 -0.3051
 2402W        W 6146   0.487   8.371  11.046  0.0174 -0.2481  0.0626
 2403W        W 6147   4.622   9.690  11.243  0.0540  0.6065 -0.0221
 2404W        W 6148   2.431   7.311   3.921  0.1882 -0.0994 -0.2660
 2405W        W 6149   7.864   4.045  11.778 -0.1132  0.1088 -0.0827
 2406W        W 6150   0.499   0.479  10.565  0.1404  0.0074  0.2607
 2407W        W 6151   8.920   5.007   4.051  0.0564 -0.0954 -0.2090
 2408W        W 6152   2.760   0.046   9.485 -0.0617 -0.0518  0.1225
 2409W        W 6153   7.170   1.700  12.529  0.1174 -0.0844  0.2995
 2410W        W 6154   1.825   5.842   2.701 -0.0169 -0.1742  0.0924
 2411W        W 6155   2.711   8.062  10.169 -0.0779 -0.0797  0.0074
 2412W        W 6156   3.377   4.995  12.005  0.0111  0.3002  0.2738
 2413W        W 6157   3.715   7.635   3.453  0.1790  0.1699 -0.2769
 2414W        W 6158   0.018   0.024   0.277  0.1568  0.1900 -0.3064
 2415W        W 6159   1.208   3.316  11.288  0.0707  0.1597  0.1827
 2416W        W 6160   3.311   6.900   9.431 -0.0301  0.0151  0.1416
 2417W        W 6161   2.996   8.682  11.160  0.3999 -0.0779 -0.0192
 2418W        W 6162   0.615   2.778   8.964  0.1454 -0.0044 -0.2265
 2419W        W 6163   7.087   1.415   0.355  0.0446  0.0975  0.1959
 2420W        W 6164   5.773   9.035   9.989  0.2869 -0.0941 -0.0306
 2421W        W 6165   7.202   5.867  12.614 -0.1264 -0.0668  0.1181
 2422W        W 6166   5.542   3.067   1.021 -0.1516 -0.0120 -0.0912
 2423W        W 6167   0.237   6.764   0.553  0.2350 -0.0480  0.0441
 2424W        W 6168   7.805   0.040   2.925 -0.0419 -0.0475  0.0685
 2425W        W 6169   5.786   5.786   0.426 -0.0359 -0.0870 -0.0838
 2426W        W 6170   3.599   3.416   3.580  0.1749 -0.0069 -0.2062
 2427W        W 6171   4.292   7.482   9.265 -0.2822  0.1468 -0.2614
 2428W        W 6172   2.662   7.231  12.631  0.1479 -0.0477  0.1009
 2429W        W 6173   6.270   9.855   8.724 -0.1093  0.1788  0.0791
 2430W        W 6174   3.033   8.208  12.200 -0.0279 -0.4512 -0.0646
 2431W        W 6175   9.780   5.515   9.598  0.0401  0.1082  0.1304
 2432W        W 6176   6.290   7.961   2.332  0.2892 -0.0650  0.1812
 2433W        W 6177   9.540   3.316   9.851  0.4825  0.0476  0.2569
 2434W        W 6178   8.030   1.351  12.559 -0.1061  0.0099  0.0320
 2435W        W 6179   8.040   9.478   2.143 -0.1535 -0.0920  0.0576
 2436W        W 6180   6.624   2.879   2.581  0.1061  0.0904  0.1618
 2437W        W 6181   9.454   3.534   1.142 -0.0030  0.0674  0.1424
 2438W        W 6182   3.616   0.260   0.366 -0.0730  0.4700  0.1479
 2439W        W 6183   5.034   8.214   8.860 -0.0353 -0.2333 -0.1210
 2440W        W 6184   9.512   4.355   2.631 -0.2961  0.4008  0.2799
 2441W        W 6185   7.478   4.982   3.502 -0.2079 -0.3975 -0.1535
 2442W        W 6186   9.179   2.881  12.573  0.1900  0.0823  0.1411
 2443W        W 6187   1.784   5.764   3.403  0.1158  0.0653  0.2077
 2444W        W 6188   0.280   5.630   1.875 -0.0237 -0.2658  0.0275
 2445W        W 6189   0.389   1.836   2.617 -0.1847  0.3904 -0.0328
 2446W        W 6190   9.368   3.976   1.932 -0.0351  0.0800  0.2631
 2447W        W 6191   0.000   2.580   5.047 -0.2165  0.1246  0.0325
 2448W        W 6192   3.606   4.953   3.279  0.0243  0.4164 -0.0202
 2449W        W 6193   6.930   6.719   1.711  0.1153 -0.1519 -0.0421
 2450W        W 6194   9.581   3.516   0.071 -0.1371  0.2628  0.0463
 2451W        W 6195   6.944   5.670  11.417 -0.0573  0.2885 -0.1254
 2452W        W 6196   6.126   4.192  10.269  0.1157 -0.3415  0.2214
 2453W        W 6197   1.682   5.363   1.006 -0.0272 -0.1991 -0.1181
 2454W        W 6198   4.456   2.987   1.113  0.0101  0.1165  0.1175
 2455W        W 6199   4.332   4.276   8.880  0.2574 -0.1314  0.2257
 2456W        W 6200   4.472   5.418  11.256 -0.1681  0.0059 -0.3511
 2457W        W 6201   3.446   4.797  10.748 -0.0259 -0.2151 -0.1570
 2458W        W 6202   1.545   9.891  11.169 -0.0544 -0.0384  0.0349
 2459W        W 6203   2.091   2.284  12.385 -0.0348 -0.0404 -0.1308
 2460W        W 6204   9.403   4.954   4.166 -0.2060 -0.3537  0.1078
 2461W        W 6205   5.139   3.048   1.430 -0.0260  0.0433  0.1374
 2462W        W 6206   8.419   6.579   9.743  0.0306  0.0449  0.1347
 2463W        W 6207   2.766   7.141   0.661  0.0200 -0.3421  0.1040
 2464W        W 6208   1.143   5.258   3.761  0.0034 -0.0097 -0.3981
 2465W        W 6209   4.144   4.430   1.220 -0.1147 -0.0016  0.2986
 2466W        W 6210   7.129   7.555   0.762 -0.0881  0.1969  0.1768
 2467W        W 6211   3.974   2.815  10.336  0.1562  0.3573  0.1156
 2468W        W 6212   3.961   3.727  12.341  0.3058  0.0365 -0.5725
 2469W        W 6213   2.613   2.660  10.528  0.4782  0.1434  0.2414
 2470W        W 6214   5.190   8.166   1.608  0.0748 -0.1084 -0.1201
 2471W        W 6215   2.912   5.974   9.896  0.1870  0.2704 -0.2317
 2472W        W 6216   1.198   7.767   3.266 -0.2052 -0.3655  0.0374
 2473W        W 6217   4.166   2.425  12.860  0.0749 -0.1714  0.0526
 2474W        W 6218   5.990   1.854  10.270  0.0450  0.0227 -0.1111
 2475W        W 6219   4.246   0.062   3.417  0.3336 -0.1441 -0.0652
 2476W        W 6220   8.225   6.453   0.399 -0.1458 -0.0796  0.0300
 2477W        W 6221   0.136   5.132   1.548  0.3914  0.0736 -0.1548
 2478W        W 6222   7.976   7.120   4.026  0.2001 -0.1827 -0.0880
 2479W        W 6223   3.753   7.999   0.512  0.1180 -0.3177  0.0573
 2480W        W 6224   5.906   7.021  12.169  0.2795 -0.0678 -0.1711
 2481W        W 6225   3.899   5.177  11.525  0.0078 -0.2787  0.0255
 2482W        W 6226   2.111   7.828   2.387  0.0400  0.2647 -0.2096
 2483W        W 6227   2.901   3.818  12.316  0.1200 -0.1747 -0.2493
 2484W        W 6228   5.308   4.524  11.067 -0.0558  0.2819 -0.2405
 2485W        W 6229   1.637   2.683  11.662 -0.1371 -0.0725 -0.1673
 2486W        W 6230   3.788   0.163  12.233  0.2849 -0.0216 -0.1310
 2487W        W 6231   5.323   8.731   0.967 -0.1070  0.2265 -0.0005
 2488W        W 6232   4.689   1.474   0.158 -0.1364  0.2789 -0.0243
 2489W        W 6233   8.719   9.007   4.814  0.3178 -0.1025 -0.0201
 2490W        W 6234   8.526   4.955   0.584 -0.2432 -0.1286  0.1488
 2491W        W 6235   4.236   6.819   3.840  0.0904  0.0618  0.3708
 2492W        W 6236   9.431   5.272   0.387  0.0156  0.0311 -0.2406
 2493W        W 6237   1.229   2.396   0.141 -0.0376  0.3062 -0.0125
 2494W        W 6238   7.924   4.261  11.341 -0.1109 -0.2415  0.1003
 2495W        W 6239   7.904   6.065  10.203 -0.0678  0.0410 -0.1868
 2496W        W 6240   8.559   9.559  12.065  0.1630 -0.1771  0.1686
 2497W        W 6241   8.779   7.933  12.848 -0.0026 -0.3189 -0.2783
 2498W        W 6242   1.386   3.483   3.338 -0.0030  0.1715 -0.1016
 2499W        W 6243   7.800   0.697  11.966  0.1581 -0.0674 -0.0839
 2500W        W 6244   8.211   2.099   2.490  0.0492 -0.3162 -0.1271
 2501W        W 6245   9.551   2.410   9.974  0.0866 -0.2272  0.0130
 2502W        W 6246   5.358   8.307  11.376 -0.1799 -0.3390 -0.0419
 2503W        W 6247   7.809   9.246  10.555 -0.4311 -0.0037 -0.1848
 2504W        W 6248   0.529   6.252   0.470 -0.0003  0.0189 -0.1966
 2505W        W 6249   5.403   7.729   9.770 -0.2243  0.2327  0.2094
 2506W        W 6250   8.382   1.963   0.605  0.0633  0.2507  0.1159
 2507W        W 6251   9.437   8.281  10.701 -0.0041  0.3343  0.1229
 2508W        W 6252   9.705   7.520   0.210 -0.0233  0.1496 -0.0450
 2509W        W 6253   3.585   7.229   3.169  0.0041  0.2898 -0.3503
 2510W        W 6254   5.494   4.492   0.705  0.0279 -0.0856  0.1933
 2511W        W 6255   5.550   2.328  11.782 -0.1934  0.0944 -0.1484
 2512W        W 6256   3.228   2.394   4.483 -0.0078  0.1850 -0.1100
 2513W        W 6257   4.639   5.349   8.352  0.0911 -0.1132  0.0129
 2514W        W 6258   8.892   8.024   8.351  0.2029  0.1381 -0.0597
 2515W        W 6259   1.818   7.902   0.573 -0.0872 -0.2429  0.0768
 2516W        W 6260   7.419   5.242   8.155 -0.1832 -0.1410  0.1794
 2517W        W 6261   8.562   7.186  10.501 -0.0632 -0.0908  0.2473
 2518W        W 6262   7.957   9.600  10.146 -0.1131  0.0194  0.0846
 2519W        W 6263   6.028   5.713  12.008 -0.0698 -0.2779 -0.0449
 2520W        W 6264   9.385   1.849   5.106  0.1541 -0.1795 -0.1358
 2521W        W 6265   4.683   5.680   3.863  0.1252 -0.0853  0.1721
 2522W        W 6266   2.018   3.016   1.370 -0.0327  0.0299  0.0622
 2523W        W 6267   2.829   3.908   0.959 -0.1305  0.1203  0.3588
 2524W        W 6268   7.317   8.680   1.448  0.2800 -0.0415  0.3344
 2525W        W 6269   1.836   0.267  10.872  0.0871 -0.3400  0.1960
 2526W        W 6270   8.071   8.273  11.587  0.2042 -0.1948  0.1145
 2527W        W 6271   2.032   0.918   0.152 -0.1144 -0.0690 -0.1723
 2528W        W 6272   4.068   7.444   3.192  0.3199  0.1797  0.1543
 2529W        W 6273   8.472   9.664   2.774  0.2948  0.1109 -0.1333
 2530W        W 6274   7.125   3.209  11.371  0.1120  0.0825 -0.0807
 2531W        W 6275   9.442   9.860   9.899  0.1062 -0.0971 -0.2674
 2532W        W 6276   4.238   7.152  10.649  0.2179 -0.4370  0.0135
 2533W        W 6277   2.241   2.517   1.041 -0.0820 -0.3474  0.2385
 2534W        W 6278   5.662   1.620   9.927 -0.0717  0.0780  0.0387
 2535W        W 6279   2.782   1.090   9.641  0.1223  0.1163  0.0743
 2536W        W 6280   8.752   1.640  12.158  0.3111 -0.0533  0.0421
 2537W        W 6281   4.098   7.534  12.407 -0.2287  0.0993  0.0571
 2538W        W 6282   9.635   3.121   3.342  0.0637 -0.0484 -0.1019
 2539W        W 6283   3.257   7.236   0.448  0.0682 -0.1094 -0.0146
 2540W        W 6284   5.844   9.654  12.447  0.0841  0.3815 -0.4164
 2541W        W 6285   1.300   8.167   3.030 -0.1655 -0.0387  0.1706
 2542W        W 6286   5.336   8.790  11.809 -0.0790  0.2206  0.5787
 2543W        W 6287   3.464   1.157   2.922  0.0127  0.0461  0.2751
 2544W        W 6288   9.870   9.722  10.189 -0.0246 -0.3929  0.1329
 2545W        W 6289   8.089   8.568  11.119  0.0416  0.0261 -0.2446
 2546W        W 6290   5.009   0.358   1.256 -0.1802 -0.0078 -0.0440
 2547W        W 6291   6.412   0.993  10.119  0.2255  0.3752 -0.1604
 2548W        W 6292   3.294   4.766   3.666 -0.0739 -0.1709  0.2245
 2549W        W 6293   3.181   9.706   0.162  0.0147 -0.1888 -0.0900
 2550W        W 6294   7.588   2.354   0.580  0.0206  0.2887 -0.2245
 2551W        W 6295   8.979   7.083   5.051 -0.0186 -0.2069 -0.1008
 2552W        W 6296   0.345   2.806  11.254 -0.0797 -0.0773 -0.2158
 2553W        W 6297   3.928   9.219  10.988  0.3101 -0.0123  0.1820
 2554W        W 6298   3.201   6.605   1.135  0.2378 -0.2274  0.1593
 2555W        W 6299   9.730   5.609  11.124  0.0698  0.0999 -0.3230
 2556W        W 6300   1.385   5.608   9.207  0.1432  0.0581 -0.1237
 2557W        W 6301   3.742   7.985  10.681  0.6220 -0.3751  0.1998
 2558W        W 6302   7.464   7.213  10.128  0.0307 -0.1428  0.2843
 2559W        W 6303   2.707   9.049   8.340 -0.1849  0.4052 -0.1816
 2560W        W 6304   7.030   4.638  11.678 -0.1763  0.3699  0.1280
 2561W        W 6305   8.330   6.187  10.860  0.0257 -0.0933  0.4741
 2562W        W 6306   8.055   4.123   1.838  0.2794 -0.4076 -0.0382
 2563W        W 6307   2.405   9.174   1.841 -0.1472  0.1747 -0.1910
 2564W        W 6308   0.127   6.026   9.444 -0.2056  0.0089 -0.1788
 2565W        W 6309   0.362   7.685  11.746 -0.3624  0.2941 -0.1611
 2566W        W 6310   7.886   2.667  12.574  0.2558  0.1179 -0.0042
 2567W        W 6311   7.162   8.708   3.232  0.0264 -0.3620  0.0512
 2568W        W 6312   0.273   1.299  11.420 -0.0388 -0.2540 -0.1203
 2569W        W 6313   9.599   2.206   3.742  0.2002 -0.0354  0.0851
 2570W        W 6314   4.107   2.552   0.666  0.0840 -0.0028 -0.2902
 2571W        W 6315   9.381   3.503   2.101 -0.0195  0.0876  0.2626
 2572W        W 6316   0.870   7.068  10.960  0.1121 -0.0678 -0.1491
 2573W        W 6317   7.564   6.086   9.196 -0.0952 -0.0959  0.1375
 2574W        W 6318   1.421   7.665  10.877 -0.0389 -0.4924 -0.1509
 2575W        W 6319   6.483   8.386  12.558  0.6102 -0.2193  0.1221
 2576W        W 6320   3.016   4.503   1.399 -0.3456 -0.1158  0.3473
 2577W        W 6321   7.005   0.132  10.846 -0.1527 -0.5572 -0.5408
 2578W        W 6322   3.807   0.924   2.606  0.1567  0.1715  0.1366
 2579W        W 6323   6.912   0.921   9.849  0.0614  0.0535 -0.0567
 2580W        W 6324   8.093   6.420   2.278 -0.2013 -0.1521 -0.0764
 2581W        W 6325   3.913   8.833  10.667 -0.1533 -0.3116  0.1654
 2582W        W 6326   2.590   9.649  11.088 -0.2072  0.4733  0.0080
 2583W        W 6327   8.956   2.522   3.395  0.3639 -0.4712 -0.0154
 2584W        W 6328   0.999   0.632  12.600  0.0098 -0.0039 -0.0206
 2585W        W 6329   2.502   1.382   9.225 -0.2872 -0.1595  0.0700
 2586W        W 6330   2.564   8.516   3.443  0.0694 -0.0252  0.0416
 2587W        W 6331   5.540   5.349   0.407  0.0450  0.0211 -0.1714
 2588W        W 6332   2.989   3.242  12.761  0.1290  0.0860 -0.2575
 2589W        W 6333   3.047   1.944  10.535 -0.2355  0.1828  0.3930
 2590W        W 6334   4.743   8.256   0.083 -0.0381 -0.4406 -0.0761
 2591W        W 6335   8.451   9.645  12.594  0.3300  0.0267  0.0116
 2592W        W 6336   8.867   1.047   3.023  0.0028  0.0048  0.1607
 2593W        W 6337   8.671   9.728  10.234  0.3865 -0.0597 -0.0553
 2594W        W 6338   1.971   6.527   3.889  0.2917 -0.0088  0.1353
 2595W        W 6339   0.682   8.709   3.993  0.0994 -0.0221 -0.0450
 2596W        W 6340   5.998   9.183  10.499 -0.0692  0.2645 -0.3360
 2597W        W 6341   7.707   3.232  11.364 -0.1264  0.0629 -0.0158
 2598W        W 6342   7.415   4.841  10.143 -0.0293  0.1191  0.2894
 2599W        W 6343   8.778   0.194  11.845 -0.0394  0.2200 -0.2577
 2600W        W 6344   3.271   9.195   5.226 -0.1365  0.1113 -0.0583
 2601W        W 6345   4.094   4.782   9.943  0.1375 -0.1993 -0.1708
 2602W        W 6346   7.761   4.709   9.120  0.0485 -0.3233  0.0778
 2603W        W 6347   5.137   7.683   9.231  0.2570 -0.1088  0.1819
 2604W        W 6348   1.505   3.205   9.656  0.0889 -0.0876 -0.1630
 2605W        W 6349   5.340   9.665  12.239  0.2723  0.0254  0.0466
 2606W        W 6350   9.514   1.003   9.780 -0.2361 -0.0253 -0.2170
 2607W        W 6351   8.546   4.529   8.694 -0.2468 -0.0300 -0.1507
 2608W        W 6352   7.558   3.430   9.002 -0.0898  0.1694  0.2214
 2609W        W 6353   6.313   8.509   2.235  0.0131  0.2830  0.2499
 2610W        W 6354   3.542   9.128  10.505 -0.2629  0.3417 -0.0165
 2611W        W 6355   8.235   0.910  10.669 -0.3107  0.1045  0.1479
 2612W        W 6356   5.261   9.468   9.343  0.0177 -0.1278  0.0582
 2613W        W 6357   4.038   3.053   2.389 -0.1102 -0.1573 -0.1001
 2614W        W 6358   9.089   2.929  12.066 -0.0412 -0.3283  0.0045
 2615W        W 6359   8.568   5.232   9.438 -0.0826 -0.1140 -0.0094
 2616W        W 6360   2.256   6.344  12.426  0.1170 -0.0513 -0.1712
 2617W        W 6361   9.123   8.482  11.302  0.0337 -0.0894 -0.3409
 2618W        W 6362   6.174   4.671  10.549  0.1333  0.0539  0.1925
 2619W        W 6363   1.097   6.292   9.753 -0.0001 -0.0939  0.1260
 2620W        W 6364   3.060   0.716   2.372 -0.5945  0.0496 -0.2824
 2621W        W 6365   0.562   0.418   3.642  0.1247  0.1270 -0.1489
 2622W        W 6366   2.627   5.784  12.586 -0.0135  0.1121  0.2710
 2623W        W 6367   3.546   6.487  10.775 -0.0269  0.1240  0.2377
 2624W        W 6368   0.194   1.027   4.255  0.4378  0.2088  0.0121
 2625W        W 6369   4.739   6.001  10.078  0.1376  0.0645 -0.0355
 2626W        W 6370   5.033   3.743   1.651 -0.1689  0.2831 -0.1459
 2627W        W 6371   7.126   6.895  12.443  0.0461 -0.0665  0.0223
 2628W        W 6372   2.264   5.770   0.410  0.0488  0.0120  0.0590
 2629W        W 6373   7.700   5.268   3.174 -0.2198 -0.2695  0.4438
 2630W        W 6374   6.259   7.218   0.637  0.1611 -0.1007  0.0405
 2631W        W 6375   4.811   1.305  12.614 -0.1193 -0.2131  0.1162
 2632W        W 6376   3.481   4.047  12.388 -0.2074  0.2544 -0.1931
 2633W        W 6377   0.513   2.661  10.374  0.2294 -0.1183  0.1076
 2634W        W 6378   1.493   9.328  11.062 -0.0878 -0.2888 -0.1819
 2635W        W 6379   7.905   9.512   4.038 -0.0167  0.0578  0.0586
 2636W        W 6380   7.747   5.634  11.041  0.3966 -0.2504  0.1736
 2637W        W 6381   8.482   2.551   2.468 -0.2381 -0.2399 -0.1097
 2638W        W 6382   2.715   0.729  10.801  0.0304  0.1932  0.4087
 2639W        W 6383   3.504   9.152   3.253 -0.0458 -0.1303 -0.1022
 2640W        W 6384   8.848   1.174  11.718  0.1053  0.0737 -0.0144
 2641W        W 6385   5.261   4.019  11.147 -0.2717  0.0191  0.1045
 2642W        W 6386   0.240   6.487  11.308  0.0156  0.1713  0.1132
 2643W        W 6387   7.274   8.432   3.589  0.0589  0.0865  0.1995
 2644W        W 6388   9.779   8.958   3.250  0.0405 -0.0454  0.1350
 2645W        W 6389   3.342   4.424  10.407 -0.1679  0.0227  0.2496
 2646W        W 6390   6.122   6.601   9.100  0.3920 -0.0532  0.1710
 2647W        W 6391   4.287   8.680   9.897 -0.0467  0.1481  0.3453
 2648W        W 6392   6.880   6.276   8.647  0.5130 -0.0840  0.1053
 2649W        W 6393   4.152   4.187   2.490 -0.2456 -0.3729  0.1493
 2650W        W 6394   8.596   4.404   4.107  0.0989  0.0986  0.3576
 2651W        W 6395   2.320   9.130   2.422  0.0668 -0.1445 -0.0995
 2652W        W 6396   4.400   4.580  10.506  0.5080 -0.0791 -0.1168
 2653W        W 6397   5.879   7.018  11.646 -0.2685 -0.0427 -0.1400
 2654W        W 6398   7.491   4.013   2.913  0.0808 -0.0760 -0.3612
 2655W        W 6399   7.790   3.522  10.803 -0.2153 -0.1404  0.1050
 2656W        W 6400   7.637   2.542   9.021  0.1252  0.1270 -0.0364
 2657W        W 6401   0.767   0.838   1.309 -0.1326 -0.2794 -0.1822
 2658W        W 6402   8.620   3.389   1.534 -0.0875  0.0941  0.1773
 2659W        W 6403   8.120   4.521   2.432 -0.0005 -0.0800 -0.0042
 2660W        W 6404   5.224   1.510  12.329  0.4793  0.2673 -0.0465
 2661W        W 6405   5.751   9.268   1.524  0.3837  0.3778 -0.2193
 2662W        W 6406   2.569   7.589   0.777 -0.2568 -0.2310 -0.0402
 2663W        W 6407   0.122   9.715  11.673 -0.1491 -0.2873  0.0965
 2664W        W 6408   1.483   0.384   9.693 -0.0759  0.1780  0.0532
 2665W        W 6409   7.492   8.770   9.187  0.1842  0.0686 -0.2878
 2666W        W 6410   7.520   3.173   2.634  0.2667 -0.4092 -0.0577
 2667W        W 6411   4.308   5.497  12.369 -0.0558  0.0325 -0.0965
 2668W        W 6412   6.926   0.067  11.426 -0.1202  0.1661  0.3654
 2669W        W 6413   5.373   9.339   0.874 -0.2121 -0.2378  0.0172
 2670W        W 6414   8.725   6.803   0.974  0.1230 -0.2714 -0.1118
 2671W        W 6415   1.559   1.011   9.100  0.0284 -0.1948 -0.0216
 2672W        W 6416   9.335   8.031  11.113 -0.2307  0.0685  0.0225
 2673W        W 6417   2.593   2.683  11.533  0.0929 -0.2261 -0.2278
 2674W        W 6418   6.147   0.873   9.647 -0.0354 -0.1765 -0.3702
 2675W        W 6419   3.707   6.380   2.670  0.3372  0.1228  0.2090
 2676W        W 6420   3.253   3.334   2.436  0.0994  0.2267  0.0482
 2677W        W 6421   9.265   2.835   8.694  0.0905  0.0565  0.3178
 2678W        W 6422   5.155   2.401   3.073  0.1520 -0.3669  0.0275
 2679W        W 6423   2.567   5.108   1.044 -0.2017  0.1583 -0.0012
 2680W        W 6424   9.466   7.440   1.116  0.1326 -0.1440  0.0464
 2681W        W 6425   0.605   9.278   0.177  0.4157 -0.0250 -0.0974
 2682W        W 6426   4.706   0.951   0.530  0.0090  0.1922 -0.0090
 2683W        W 6427   3.705   8.073  12.947 -0.0557 -0.0539  0.2907
 2684W        W 6428   1.698   7.006  12.295  0.0929  0.2523  0.2955
 2685W        W 6429   4.549   3.093  10.783 -0.1106 -0.1144  0.2396
 2686W        W 6430   3.598   0.712  11.021 -0.3067  0.2522 -0.0296
 2687W        W 6431   1.193   4.802   2.023 -0.0341  0.2656  0.3873
 2688W        W 6432   6.620   5.251   8.716  0.0958  0.3667  0.1369
 2689W        W 6433   3.105   9.543   9.705 -0.1237  0.1347  0.0162
 2690W        W 6434   5.081   8.840   2.720 -0.0119 -0.0017 -0.1390
 2691W        W 6435   3.929   0.424   1.411 -0.0250 -0.0085 -0.1136
 2692W        W 6436   9.442   9.274   3.454 -0.0336 -0.0993 -0.3035
 2693W        W 6437   3.864   1.804   0.843  0.1314 -0.0452  0.0166
 2694W        W 6438   6.153   5.608  11.270 -0.1236  0.1371 -0.0262
 2695W        W 6439   7.878   6.682  11.154  0.0137 -0.0238  0.2929
 2696W        W 6440   8.849   0.746   3.934  0.2568  0.1038 -0.1649
 2697W        W 6441   8.160   1.284   9.039 -0.1527 -0.0909 -0.3190
 2698W        W 6442   9.150   5.517   2.286  0.0823 -0.0088  0.3121
 2699W        W 6443   2.481   3.695   1.803  0.1801  0.0843 -0.0525
 2700W        W 6444   4.784   7.932   1.367 -0.0551  0.0780  0.0354
 2701W        W 6445   0.762   2.097  11.067  0.1118  0.2921 -0.1295
 2702W        W 6446   9.185   2.063  12.495  0.1074 -0.1543 -0.1245
 2703W        W 6447   7.477   2.929   1.658 -0.1379 -0.1610  0.3054
 2704W        W 6448   2.590   8.697   1.650  0.0313  0.0050 -0.0561
 2705W        W 6449   9.473   8.753   3.760  0.1760 -0.1792 -0.0793
 2706W        W 6450   6.896   0.977  10.371 -0.0332 -0.1201  0.1207
 2707W        W 6451   8.323   7.676   9.218  0.3488 -0.4468 -0.0349
 2708W        W 6452   5.861   7.782  12.500  0.2392 -0.0880 -0.2708
 2709W        W 6453   6.893   5.066   8.303  0.0531  0.0351 -0.0833
 2710W        W 6454   5.363   4.704   9.938  0.0561 -0.4275 -0.0241
 2711W        W 6455   6.711   3.254   2.001  0.1138 -0.0392  0.1546
 2712W        W 6456   7.431   2.044   0.954  0.0951  0.1201 -0.4494
 2713W        W 6457   9.378   0.246   9.506 -0.1896 -0.0183 -0.0862
 2714W        W 6458   3.456   1.562   1.519 -0.2341 -0.1850 -0.0364
 2715W        W 6459   2.745   7.576   3.110  0.1227  0.1379  0.1736
 2716W        W 6460   1.843   4.930   2.428  0.0147 -0.0955 -0.0948
 2717W        W 6461   7.407   4.567  12.027  0.1907  0.3595 -0.4126
 2718W        W 6462   4.126   6.562   8.955  0.1580 -0.3267 -0.0128
 2719W        W 6463   4.994   8.452  12.125  0.1126 -0.1450  0.2937
 2720W        W 6464   8.969   3.968   0.295  0.2152  0.1210  0.2460
 2721W        W 6465   2.451   1.168   0.447 -0.0509 -0.2146  0.1692
 2722W        W 6466   5.963   1.380   0.827  0.0333  0.0188 -0.4488
 2723W        W 6467   5.188   1.746   2.265  0.0112 -0.0414 -0.1840
 2724W        W 6468   9.070   5.840   3.867  0.0932  0.2136 -0.1030
 2725W        W 6469   6.154   6.106   9.044  0.2433  0.2318 -0.1112
 2726W        W 6470   3.240   5.239  10.907  0.2621 -0.0997 -0.3214
 2727W        W 6471   3.583   2.997   1.578  0.3007 -0.0052 -0.0407
 2728W        W 6472   1.187   4.320   9.437 -0.1285  0.1051 -0.1494
 2729W        W 6473   4.937   5.329   2.555 -0.1571  0.0796 -0.0405
 2730W        W 6474   2.584   0.278   3.145  0.0015  0.0070  0.0688
 2731W        W 6475   4.790   8.738   0.262 -0.2071  0.2933  0.2451
 2732W        W 6476   3.660   5.977   1.748 -0.2421  0.0521 -0.0251
 2733W        W 6477   0.585   1.564  11.128 -0.2202 -0.0329 -0.1562
 2734W        W 6478   6.879   5.550   9.090  0.0189 -0.0836 -0.0087
 2735W        W 6479   1.245   4.358  11.055  0.1750  0.0977 -0.0904
 2736W        W 6480   4.034   0.679   2.067 -0.0369  0.2149  0.0725
 2737W        W 6481   1.178   7.605  11.334 -0.3571  0.0889 -0.1302
 2738W        W 6482   8.713   8.379   0.126 -0.4464  0.3643 -0.2029
 2739W        W 6483   7.988   1.843  11.042  0.0131 -0.0178  0.3134
 2740W        W 6484   4.100   4.682  11.509 -0.1234  0.0266 -0.1605
 2741W        W 6485   0.445   3.525   2.324  0.0605  0.1718  0.1126
 2742W        W 6486   9.702   6.663  12.683  0.0183  0.1219 -0.1621
 2743W        W 6487   7.579   7.752   0.385  0.1243  0.2023 -0.1190
 2744W        W 6488   5.070   2.738  12.518  0.0651  0.1204 -0.0584
 2745W        W 6489   8.613   5.069   1.185 -0.0804 -0.3449 -0.0564
 2746W        W 6490   8.350   5.135  11.490  0.2112  0.1411  0.2659
 2747W        W 6491   6.100   5.580   2.600  0.0678 -0.0661 -0.0424
 2748W        W 6492   8.679   6.181   1.646 -0.2245 -0.0183  0.1816
 2749W        W 6493   2.135   6.175   1.957 -0.3404 -0.3053  0.1383
 2750W        W 6494   2.652   6.143  12.162  0.0922  0.5882  0.0603
 2751W        W 6495   5.126   1.695  10.124 -0.2606  0.0538  0.3842
 2752W        W 6496   1.979   2.841  11.019 -0.0951 -0.1287 -0.0013
 2753W        W 6497   6.569   5.133   9.277  0.0003 -0.0902 -0.1088
 2754W        W 6498   9.293   4.299   4.763 -0.0139 -0.0160  0.2441
 2755W        W 6499   2.393   0.098  10.201 -0.0296  0.2495  0.1607
 2756W        W 6500   2.797   5.509   3.348  0.2234 -0.1509  0.1681
 2757W        W 6501   7.544   3.640  11.686 -0.0254  0.1402 -0.2422
 2758W        W 6502   0.172   8.463   8.827  0.0478  0.2658  0.1213
 2759W        W 6503   5.704   1.178   1.270  0.0044 -0.0519  0.1932
 2760W        W 6504   1.466   9.016  10.171 -0.2735  0.0504  0.2976
 2761W        W 6505   1.710   6.628  10.134  0.1152  0.3240  0.0440
 2762W        W 6506   4.863   9.269   1.787 -0.4551 -0.1279  0.3467
 2763W        W 6507   2.986   2.285   1.256 -0.1621  0.1903 -0.2252
 2764W        W 6508   6.955   9.466   9.562  0.2066 -0.0166  0.0586
 2765W        W 6509   5.568   7.230  11.351  0.0210  0.0773 -0.2402
 2766W        W 6510   6.735   9.885   3.535 -0.3064  0.0503  0.1866
 2767W        W 6511   4.640   9.489  10.771  0.0941  0.1047 -0.1995
 2768W        W 6512   3.339   4.558   0.674  0.1773  0.3397 -0.1803
 2769W        W 6513   7.553   0.460   2.950 -0.1232 -0.2056 -0.1272
 2770W        W 6514   2.157   2.537  12.888 -0.2382  0.1405  0.3210
 2771W        W 6515   3.975   1.609  10.859 -0.1632  0.0501 -0.1691
 2772W        W 6516   9.302   5.737   0.102 -0.1754  0.1388 -0.0481
 2773W        W 6517   8.334   0.725   0.854 -0.2079  0.2429 -0.0541
 2774W        W 6518   1.601   4.456   1.469  0.6062  0.2662  0.0832
 2775W        W 6519   2.826   9.607  12.378 -0.3983 -0.3045 -0.2157
 2776W        W 6520   9.131   3.359  10.217  0.0318 -0.1131 -0.3321
 2777W        W 6521   3.046   1.762   1.368 -0.1591  0.2965  0.0833
 2778W        W 6522   0.754   0.258   2.106  0.0413  0.1224  0.0906
 2779W        W 6523   3.690   3.486   2.574 -0.0076  0.3046 -0.1252
 2780W        W 6524   0.741   9.512  10.583  0.0396  0.3019 -0.4135
 2781W        W 6525   0.680   2.408   9.336  0.3652  0.1523  0.1129
 2782W        W 6526   3.198   7.355   9.690 -0.2187  0.2730 -0.0735
 2783W        W 6527   7.022   1.248  12.852 -0.1569 -0.0195  0.0584
 2784W        W 6528   9.741   2.783   3.851  0.0963 -0.1488  0.2293
 2785W        W 6529   1.419   4.445   2.380  0.0003  0.0301 -0.0552
 2786W        W 6530   1.878   9.255  11.402  0.2559 -0.0024 -0.0719
 2787W        W 6531   7.156   6.263   1.915 -0.1140 -0.0570  0.1079
 2788W        W 6532   4.912   2.981  11.498  0.1371  0.1570 -0.1000
 2789W        W 6533   8.134   8.830  10.460  0.1693 -0.0229 -0.0161
 2790W        W 6534   5.070   9.278  12.383  0.3757  0.0421  0.1830
 2791W        W 6535   0.034   5.876   2.200  0.1454  0.1593  0.1240
 2792W        W 6536   7.391   6.031   0.992 -0.1335  0.1200  0.1250
 2793W        W 6537   2.691   3.573   0.538 -0.3240  0.1695 -0.0639
 2794W        W 6538   7.223   6.537   0.868  0.1259 -0.2423 -0.0786
 2795W        W 6539   6.546   0.593   9.666 -0.0521  0.0538 -0.1465
 2796W        W 6540   1.233   4.010   0.943  0.0792  0.2698 -0.1142
 2797W        W 6541   0.300   6.681   2.015  0.1000 -0.1747  0.1916
 2798W        W 6542   1.282   2.795  10.096 -0.0850  0.1799  0.0082
 2799W        W 6543   3.712   4.959   2.300  0.1889 -0.0512 -0.2020
 2800W        W 6544   7.180   9.768   0.141 -0.3234 -0.2150 -0.0052
 2801W        W 6545   4.533   4.526   2.198 -0.0053 -0.2024 -0.2162
 2802W        W 6546   1.498   9.678  12.049  0.2218  0.3750  0.4834
 2803W        W 6547   4.792   2.696   0.876 -0.0986 -0.2168  0.1450
 2804W        W 6548   8.439   5.164   1.866 -0.2015  0.0383 -0.4299
 2805W        W 6549   3.518   4.112   0.024  0.2095  0.1116 -0.0717
 2806W        W 6550   3.116   4.815   9.783  0.1413 -0.0508  0.0132
 2807W        W 6551   2.720   5.854  11.275  0.0249  0.1816 -0.1374
 2808W        W 6552   6.313   0.011   1.099 -0.0469 -0.3537 -0.1937
 2809W        W 6553   9.177   7.927  10.326  0.0026 -0.0093  0.1292
 2810W        W 6554   2.186   0.479  12.260  0.2020 -0.3359  0.0068
 2811W        W 6555   2.261   0.680  10.228  0.0570 -0.0498 -0.2725
 2812W        W 6556   1.715   4.837   2.956  0.0782  0.1658  0.2566
 2813W        W 6557   0.007   0.194   1.646 -0.3044  0.0589  0.0285
 2814W        W 6558   8.318   7.205   9.247 -0.1268 -0.2639 -0.0110
 2815W        W 6559   7.615   7.035  12.269 -0.2879 -0.1650 -0.0708
 2816W        W 6560   7.062   2.335   1.005 -0.0097 -0.2205  0.1668
 2817W        W 6561   3.311   8.869   9.650  0.2445  0.0974  0.0409
 2818W        W 6562   7.887   0.217   9.836 -0.0838 -0.0263 -0.1577
 2819W        W 6563   0.461   2.149  10.281  0.0976 -0.4652  0.0925
 2820W        W 6564   3.173   8.799   3.498  0.0578  0.1409 -0.2701
 2821W        W 6565   2.228   9.809   3.069 -0.2849  0.0256  0.2855
 2822W        W 6566   0.205   3.732  10.322  0.1335 -0.0114 -0.2076
 2823W        W 6567   5.876   4.631   2.095  0.2520 -0.0588 -0.0884
 2824W        W 6568   3.237   6.717   4.224 -0.1807 -0.1042  0.1363
 2825W        W 6569   1.698   2.172  10.704 -0.1931 -0.3962  0.0280
 2826W        W 6570   7.963   5.837   3.350  0.1156 -0.0345  0.1006
 2827W        W 6571   8.412   7.360   0.754 -0.2117  0.0449 -0.3842
 2828W        W 6572   2.625   0.495   3.624  0.0027 -0.1258  0.1221
 2829W        W 6573   1.130   9.270  12.386  0.2410  0.0268 -0.3131
 2830W        W 6574   5.853   7.137  12.784 -0.1353  0.5370 -0.0250
 2831W        W 6575   1.401   5.845   1.030  0.2156 -0.0997  0.1528
 2832W        W 6576   3.404   5.602  10.659  0.0966  0.0188 -0.0202
 2833W        W 6577   1.478   7.244   2.009 -0.2394  0.1845  0.0454
 2834W        W 6578   1.314   6.443   2.321  0.1494 -0.4394 -0.0764
 2835W        W 6579   0.188   2.810   4.260 -0.3223 -0.0697  0.2088
 2836W        W 6580   3.614   1.309  12.217  0.2074  0.1062  0.1168
 2837W        W 6581   2.552   5.598   3.898 -0.2613  0.1039 -0.3792
 2838W        W 6582   1.224   1.111   4.168  0.1295 -0.7177 -0.4700
 2839W        W 6583   7.645   3.958   2.415  0.0140  0.0402 -0.1880
 2840W        W 6584   2.605   6.279  12.715  0.1512 -0.0254  0.1369
 2841W        W 6585   1.381   1.756   3.114 -0.2192 -0.2447  0.0395
 2842W        W 6586   6.967   3.903  10.474 -0.2809 -0.1277 -0.1027
 2843W        W 6587   6.657   8.692   2.552  0.1726 -0.0583  0.0522
 2844W        W 6588   9.462   0.029   0.034 -0.0916  0.1609  0.1476
 2845W        W 6589   6.291   8.781  11.215 -0.1701  0.0467 -0.1424
 2846W        W 6590   0.905   4.702   2.442  0.0819  0.1171 -0.0140
 2847W        W 6591   9.875   0.144   9.685  0.2209 -0.3415  0.0369
 2848W        W 6592   3.323   1.102   3.394 -0.2765  0.1703  0.2024
 2849W        W 6593   2.338   6.020  10.699  0.0590  0.0542  0.2559
 2850W        W 6594   3.900   5.730   8.809  0.0865  0.0774  0.1592
 2851W        W 6595   5.532   7.794   3.544 -0.0320  0.0711 -0.1629
 2852W        W 6596   0.752   5.561   9.822  0.3663  0.2189  0.2379
 2853W        W 6597   9.550   9.202   0.564  0.0757  0.2458 -0.1599
 2854W        W 6598   3.644   9.585  10.357  0.1030  0.0044 -0.0667
 2855W        W 6599   8.338   2.626  11.228 -0.0711 -0.2059 -0.3521
 2856W        W 6600   5.558   6.852   8.749 -0.1529 -0.1836 -0.1114
 2857W        W 6601   9.541   9.814   1.245  0.3061  0.0856 -0.0627
 2858W        W 6602   5.931   8.492   3.681 -0.0212 -0.1752 -0.0126
 2859W        W 6603   7.210   1.852   1.380 -0.3451 -0.0795  0.1925
 2860W        W 6604   1.913   6.497  11.120  0.0632 -0.1141  0.2078
 2861W        W 6605   1.976   3.565   1.320 -0.0451 -0.2977 -0.2646
 2862W        W 6606   7.839   4.432   1.449 -0.0019  0.1542 -0.1990
 2863W        W 6607   8.105   3.770   2.218  0.0295  0.1796  0.2983
 2864W        W 6608   8.403   2.513   3.356  0.0707  0.0718  0.3024
 2865W        W 6609   4.815   9.571   2.193 -0.1351  0.1291  0.2090
 2866W        W 6610   8.595   3.538  11.388 -0.0421  0.0623 -0.1877
 2867W        W 6611   5.238   7.485   0.350 -0.1971  0.3354  0.3975
 2868W        W 6612   8.293   3.608  10.901 -0.2606 -0.2665  0.0697
 2869W        W 6613   1.916   5.843   8.691 -0.0468 -0.5111 -0.0110
 2870W        W 6614   3.903   4.303   1.661 -0.1768 -0.0701 -0.0274
 2871W        W 6615   3.638   0.733   3.200  0.1587 -0.0938 -0.3134
 2872W        W 6616   0.499   0.816   2.288 -0.0112  0.0892 -0.1273
 2873W        W 6617   3.924   6.125   3.732 -0.1202  0.0971  0.3063
 2874W        W 6618   3.154   0.993  10.839 -0.0669 -0.0215 -0.3049
 2875W        W 6619   1.208   7.470  11.802  0.0214 -0.1177  0.3392
 2876W        W 6620   9.726   3.996  12.837  0.0260 -0.4207 -0.2058
 2877W        W 6621   2.268   5.781  10.112 -0.1449 -0.1707 -0.1152
 2878W        W 6622   8.081   1.220   2.891 -0.1730 -0.1192 -0.1372
 2879W        W 6623   2.003   1.978   1.546 -0.2832  0.1707  0.2978
 2880W        W 6624   1.468   9.048   8.867 -0.2124 -0.3759  0.0377
 2881W        W 6625   8.126   3.215   8.696  0.1024 -0.2610 -0.0956
 2882W        W 6626   1.087   3.400   4.112  0.3783  0.0657  0.1002
 2883W        W 6627   7.494   0.446  10.695  0.0468 -0.0329  0.0132
 2884W        W 6628   0.293   1.743   9.879  0.0512  0.1403  0.1337
 2885W        W 6629   0.115   8.744   9.282  0.0773 -0.1767 -0.4638
 2886W        W 6630   1.582   0.841   3.893  0.1323 -0.0306  0.1223
 2887W        W 6631   8.924   0.060   0.358  0.1222 -0.5114  0.3243
 2888W        W 6632   2.113   8.894   0.824  0.2039  0.0049  0.0415
 2889W        W 6633   2.309   2.574   0.424  0.0091 -0.0423  0.1378
 2890W        W 6634   0.722   3.733  10.171 -0.1633  0.0432 -0.1414
 2891W        W 6635   0.904   3.565  11.581 -0.0693 -0.0100  0.4491
 2892W        W 6636   9.714   3.532   4.659 -0.3790 -0.0402  0.2120
 2893W        W 6637   3.470   8.564  12.148  0.1988  0.2661 -0.0264
 2894W        W 6638   1.304   5.439   9.751  0.3780  0.1344 -0.0480
 2895W        W 6639   8.233   2.210   0.995 -0.1192 -0.0575 -0.3552
 2896W        W 6640   3.843   5.866  10.802  0.0055 -0.1095 -0.1765
 2897W        W 6641   2.042   3.148   0.902 -0.0937 -0.0869 -0.1923
 2898W        W 6642   2.544   3.699   2.932 -0.2189  0.0928  0.0795
 2899W        W 6643   0.533   8.104   9.875 -0.0616 -0.0269 -0.1085
 2900W        W 6644   8.290   7.667   0.004 -0.0534 -0.3205 -0.0943
 2901W        W 6645   3.283   9.598   3.464  0.1050  0.1265  0.1656
 2902W        W 6646   0.477   8.977   9.596 -0.4563 -0.3011 -0.1564
 2903W        W 6647   9.241   5.186  11.800  0.0119  0.2788  0.6542
 2904W        W 6648   8.098   1.068   3.410 -0.0374  0.0892 -0.1841
 2905W        W 6649   0.611   5.044   9.165 -0.1069 -0.0495  0.0502
 2906W        W 6650   7.673   4.902   1.703 -0.1590  0.1462  0.2974
 2907W        W 6651   0.731   9.026  11.499  0.0963 -0.1986 -0.1696
 2908W        W 6652   0.972   2.873  10.481 -0.0987  0.2367  0.0200
 2909W        W 6653   2.549   1.217  11.516  0.1503  0.3383 -0.0375
 2910W        W 6654   4.103   0.694   9.716 -0.3036  0.1559 -0.1806
 2911W        W 6655   5.635   6.640   0.104 -0.0137 -0.0206  0.1223
 2912W        W 6656   1.706   5.966   9.238 -0.0410 -0.2406  0.0123
 2913W        W 6657   3.430   5.254  12.420 -0.2609  0.1344  0.1412
 2914W        W 6658   1.243   2.869   4.062  0.0922  0.2890 -0.0176
 2915W        W 6659   4.466   3.492   0.766 -0.0747 -0.0800 -0.2482
 2916W        W 6660   0.686   3.403   1.389 -0.1769  0.0971  0.0606
 2917W        W 6661   7.773   4.992   4.048  0.2582  0.0577 -0.0023
 2918W        W 6662   2.187   9.735   4.189  0.0457 -0.3236  0.0652
 2919W        W 6663   4.372   4.017   0.948 -0.0770 -0.1365  0.0197
 2920W        W 6664   2.850   3.418  11.339  0.2382  0.0837 -0.0382
 2921W        W 6665   0.084   3.238   2.657  0.3640  0.0056 -0.1035
 2922W        W 6666   2.122   6.239   9.399 -0.0865 -0.0369  0.1349
 2923W        W 6667   6.663   3.444  11.349 -0.1066 -0.0772  0.4333
 2924W        W 6668   8.686   2.004   1.335 -0.0743 -0.2309  0.0012
 2925W        W 6669   0.658   0.731   9.130 -0.0279  0.0024  0.2293
 2926W        W 6670   1.797   6.683   3.362 -0.2214 -0.4364  0.0719
 2927W        W 6671   1.362   3.536  11.735 -0.2698  0.0108 -0.2016
 2928W        W 6672   0.401   4.745   3.106  0.2864  0.1439  0.2262
 2929W        W 6673   3.215   1.403  12.764 -0.0058  0.0855 -0.2532
 2930W        W 6674   2.803   5.992   8.711 -0.1485 -0.1565 -0.0818
 2931W        W 6675   5.479   6.808   1.598  0.1107 -0.0359  0.1172
 2932W        W 6676   9.405   3.933  11.151 -0.2828 -0.1647  0.1782
 2933W        W 6677   5.011   6.085   1.787  0.0272  0.1277 -0.1760
 2934W        W 6678   9.656   8.252  12.767  0.0153  0.0182 -0.1781
 2935W        W 6679   0.107   9.568  12.153  0.0092  0.0236 -0.2245
 2936W        W 6680   1.762   3.039  10.557  0.0938  0.1588  0.2553
 2937W        W 6681   6.737   4.224   9.218 -0.2269  0.0236  0.1754
 2938W        W 6682   5.749   6.814  10.495 -0.1065 -0.1084 -0.1787
 2939W        W 6683   2.125   4.615   3.040 -0.1459  0.1201  0.1420
 2940W        W 6684   6.845   9.282   3.493  0.2792 -0.1139 -0.1459
 2941W        W 6685   1.268   4.776   3.902  0.1153 -0.1839 -0.1080
 2942W        W 6686   4.436   6.997   9.364 -0.1318  0.0837  0.1958
 2943W        W 6687   9.841   4.941   2.902 -0.2760 -0.1880  0.0554
 2944W        W 6688   0.510   3.375   5.484 -0.1167 -0.0954  0.3836
 2945W        W 6689   6.733   9.369  10.846  0.1928  0.0618  0.0394
 2946W        W 6690   2.464   6.607   9.448 -0.1667  0.0024  0.0353
 2947W        W 6691   9.893   1.269   1.706 -0.1496 -0.0610  0.1746
 2948W        W 6692   6.693   4.837  11.283  0.0419  0.3830 -0.1577
 2949W        W 6693   0.401   9.510   3.115  0.0049 -0.1545  0.0684
 2950W        W 6694   9.131   3.489   0.264  0.2157 -0.0680 -0.1593
 2951W        W 6695   9.243   6.649   9.173  0.1748  0.2022  0.0417
 2952W        W 6696   7.920   5.098   8.117  0.0440  0.2221  0.2941
 2953W        W 6697   6.993   3.635   3.402  0.2317  0.0470  0.0661
 2954W        W 6698   7.047   4.277   8.829  0.0289  0.0653 -0.0679
 2955W        W 6699   6.933   3.589  12.677 -0.0715 -0.1054 -0.0356
 2956W        W 6700   8.517   0.510   5.250  0.0914  0.1271 -0.2367
 2957W        W 6701   8.242   5.088   9.891 -0.2452  0.0361  0.0919
 2958W        W 6702   8.608   3.283   8.828 -0.1894 -0.1314  0.1419
 2959W        W 6703   7.221   5.945   3.754 -0.0948 -0.1473 -0.0667
 2960W        W 6704   9.055   7.133  12.360  0.0301 -0.1636 -0.0741
 2961W        W 6705   1.192   0.146   1.912  0.1013 -0.1795 -0.0573
 2962W        W 6706   6.591   9.567   2.733  0.1344 -0.0944  0.0150
 2963W        W 6707   8.820   2.884   1.257 -0.1284  0.0031 -0.0615
 2964W        W 6708   5.657   5.086   3.207 -0.1923  0.0933  0.0474
 2965W        W 6709   3.919   8.356   9.009  0.1728  0.1399  0.3641
 2966W        W 6710   9.062   4.620   2.537  0.0719  0.0123  0.0243
 2967W        W 6711   3.045   9.142  10.340  0.2431 -0.0390 -0.3013
 2968W        W 6712   1.588   2.297   1.812  0.4479 -0.1516 -0.3861
 2969W        W 6713   1.836   0.975   9.942 -0.5546 -0.0324  0.0429
 2970W        W 6714   0.860   8.017  12.400 -0.0107  0.2639 -0.1367
 2971W        W 6715   3.104   5.979   9.079 -0.1574 -0.0967  0.0626
 2972W        W 6716   1.285   6.047   4.039  0.2021  0.0866 -0.2926
 2973W        W 6717   4.507   9.305  12.195  0.0429  0.0789 -0.0021
 2974W        W 6718   6.978   1.325   2.294  0.2336  0.2126  0.1128
 2975W        W 6719   5.826   8.706   2.720  0.1916  0.0867  0.0359
 2976W        W 6720   0.899   5.916   1.208 -0.2474 -0.2782  0.0732
 2977W        W 6721   5.987   6.412   2.533 -0.0246 -0.2484  0.1037
 2978W        W 6722   5.045   2.332   0.607  0.3061  0.4176 -0.0476
 2979W        W 6723   0.252   5.937  11.259 -0.0010  0.2308  0.1618
 2980W        W 6724   2.393   4.625   1.992 -0.0287  0.0790 -0.1908
 2981W        W 6725   6.724   7.905   4.135 -0.2217 -0.1575 -0.0182
 2982W        W 6726   9.124   1.356   0.680  0.1827  0.1284  0.1873
 2983W        W 6727   0.901   1.430  12.252  0.0273 -0.0261  0.4109
 2984W        W 6728   9.725   4.418   3.145 -0.0213  0.1237  0.3990
 2985W        W 6729   0.895   5.214   2.616 -0.3068  0.0608 -0.2962
 2986W        W 6730   1.346   6.797   9.788 -0.0551  0.2484  0.1548
 2987W        W 6731   8.117   0.083  12.789  0.0194  0.0596  0.1154
 2988W        W 6732   3.068   7.561   8.502  0.1011  0.1081 -0.0577
 2989W        W 6733   3.796   0.862   1.646 -0.0204  0.1737 -0.1236
 2990W        W 6734   6.618   4.332  10.531  0.2676  0.3085 -0.0965
 2991W        W 6735   6.058   4.500  11.535 -0.0878 -0.0393  0.3126
 2992W        W 6736   0.382   0.193  11.956 -0.0501  0.1199  0.0741
 2993W        W 6737   4.840   7.456   4.520  0.1261 -0.0143  0.1810
 2994W        W 6738   9.395   6.804   3.910 -0.2633 -0.4653 -0.2318
 2995W        W 6739   8.819   3.364   9.618 -0.0721 -0.2386 -0.1485
 2996W        W 6740   9.194   3.672   9.523 -0.1766  0.1248  0.0168
 2997W        W 6741   9.105   6.785   0.142  0.2012  0.0606  0.1105
 2998W        W 6742   6.707   1.994  12.604  0.0954 -0.0342 -0.3512
 2999W        W 6743   5.968   1.174   9.171  0.0512  0.2424 -0.1068
 3000W        W 6744   7.274   4.493   9.800  0.3451  0.0582 -0.2251
 3001W        W 6745   4.782   8.664  11.650 -0.1181  0.0050 -0.0017
 3002W        W 6746   0.247   4.884   1.110  0.3245 -0.0423 -0.2280
 3003W        W 6747   2.113   4.458   0.718 -0.2038  0.0969  0.0286
 3004W        W 6748   3.979   2.809   1.148  0.1364 -0.2073 -0.0674
 3005W        W 6749   7.955   7.797  10.568 -0.0035 -0.0844 -0.1302
 3006W        W 6750   1.675   3.172  12.928  0.2517 -0.0152 -0.0755
 3007W        W 6751   8.009   5.305  12.902  0.1253 -0.0810  0.1298
 3008W        W 6752   8.405   2.110  10.848 -0.0508 -0.1105 -0.0887
 3009W        W 6753   9.576   5.089   9.736 -0.0011 -0.3175  0.2319
 3010W        W 6754   1.438   2.946  10.960 -0.0585  0.0851 -0.2169
 3011W        W 6755   8.183   7.492   1.322 -0.0612 -0.2422 -0.0079
 3012W        W 6756   7.704   1.323   0.422 -0.0017 -0.1045  0.0095
 3013W        W 6757   8.993   7.453   0.765  0.2349 -0.0615  0.1427
 3014W        W 6758   2.393   0.002   3.631  0.2697 -0.1418  0.0449
 3015W        W 6759   0.777   8.922  12.148 -0.0322 -0.2855  0.2487
 3016W        W 6760   5.907   7.284   3.033  0.0171 -0.1631  0.2328
 3017W        W 6761   6.166   6.597   3.506 -0.1044 -0.0481  0.1782
 3018W        W 6762   5.523   0.613  12.450 -0.0107 -0.5040 -0.0446
 3019W        W 6763   3.460   3.194   1.111  0.0550  0.1980  0.1239
 3020W        W 6764   5.391   6.862  10.171  0.4308  0.0954  0.2160
 3021W        W 6765   5.783   8.905   4.067 -0.2019 -0.0154  0.0613
 3022W        W 6766   5.431   4.713  10.628 -0.2058  0.3859  0.1622
 3023W        W 6767   2.002   9.296   1.556  0.0287 -0.0361  0.2415
 3024W        W 6768   7.686   8.720  10.216 -0.1415  0.1790  0.2148
 3025W        W 6769   6.048   9.760   9.763  0.0750 -0.2918  0.3782
 3026W        W 6770   1.458   5.928  11.771 -0.1079  0.3098 -0.3297
 3027W        W 6771   9.032   5.438   9.639  0.2682  0.1844  0.1135
 3028W        W 6772   3.354   4.177   2.985  0.0943 -0.0057 -0.2725
 3029W        W 6773   4.845   7.377   2.474  0.2299 -0.0917 -0.1953
 3030W        W 6774   1.436   9.843   3.838 -0.3090 -0.0588 -0.1134
 3031W        W 6775   0.229   3.228  12.085  0.1399 -0.1487 -0.2039
 3032W        W 6776   7.675   1.891   3.989  0.3335 -0.1074 -0.0577
 3033W        W 6777   1.401   4.650   4.799  0.4369  0.2493  0.0968
 3034W        W 6778   3.501   9.111   4.050  0.1581 -0.0228  0.1930
 3035W        W 6779   0.874   9.655   1.775  0.0078  0.3085  0.3004
 3036W        W 6780   4.314   8.384  11.708 -0.1155 -0.1037 -0.1596
 3037W        W 6781   0.845   8.105   0.830  0.0124 -0.0311  0.1873
 3038W        W 6782   7.730   1.859  11.510 -0.1233 -0.1990  0.1548
 3039W        W 6783   2.703   8.345  10.580  0.0328 -0.0503  0.2160
 3040W        W 6784   0.321   9.743   4.554  0.0178 -0.2008 -0.0702
 3041W        W 6785   0.310   8.401   3.258  0.0833  0.0865  0.1077
 3042W        W 6786   9.424   8.491   9.709  0.0969  0.1411 -0.0855
 3043W        W 6787   7.438   6.767   0.467  0.2028 -0.0712  0.0942
 3044W        W 6788   4.898   9.010  11.984  0.1220 -0.1852  0.3038
 3045W        W 6789   2.429   9.594   2.347 -0.2139  0.0084  0.0749
 3046W        W 6790   0.348   1.133   0.391  0.1686 -0.2601  0.0384
 3047W        W 6791   6.412   4.578   1.896 -0.1233 -0.0701 -0.0719
 3048W        W 6792   8.901   9.696  11.151 -0.1016  0.0781 -0.3475
 3049W        W 6793   4.921   2.997   2.808 -0.0637 -0.2187 -0.0393
 3050W        W 6794   1.715   8.038   1.871  0.2113  0.2401 -0.1955
 3051W        W 6795   9.732   0.684   0.847 -0.0735 -0.1939  0.1348
 3052W        W 6796   9.574   1.557  12.070  0.1806 -0.0896  0.0940
 3053W        W 6797   9.641   8.661   1.414 -0.0952 -0.1021  0.2065
 3054W        W 6798   5.701   9.247   2.111  0.0019 -0.1636 -0.1259
 3055W        W 6799   7.421   8.439   0.811  0.0176 -0.0219 -0.3039
 3056W        W 6800   4.459   5.950  12.288 -0.1174  0.1109 -0.1005
 3057W        W 6801   8.669   6.592   3.578  0.0846  0.1455  0.2425
 3058W        W 6802   1.626   1.064  12.585  0.2909 -0.0051 -0.1730
 3059W        W 6803   8.798   3.648   8.538 -0.1619  0.3403  0.3832
 3060W        W 6804   7.395   4.260   0.478  0.0138 -0.1248  0.0284
 3061W        W 6805   2.203   2.713   3.183 -0.1124 -0.3184  0.0188
 3062W        W 6806   4.847   3.704   1.089 -0.0703  0.0591 -0.1995
 3063W        W 6807   7.067   1.038   1.609  0.0580  0.1611  0.0851
 3064W        W 6808   3.848   3.991   1.262  0.2423  0.3407  0.3977
 3065W        W 6809   4.523   0.927  12.153 -0.3151  0.1707  0.0248
 3066W        W 6810   3.798   4.833  11.907 -0.0703  0.0505  0.3034
 3067W        W 6811   3.855   2.044  11.023  0.0342 -0.0000 -0.0575
 3068W        W 6812   7.872   8.140  12.540 -0.2012  0.1547  0.1053
 3069W        W 6813   7.041   6.073  10.165 -0.3184 -0.1125  0.0620
 3070W        W 6814   4.876   2.492   1.384  0.0200  0.0500 -0.0324
 3071W        W 6815   8.407   8.407   0.793  0.4445  0.1827  0.2628
 3072W        W 6816   5.910   8.053  11.551 -0.2309 -0.0027  0.1289
 3073W        W 6817   9.587   6.680   0.328  0.0521 -0.2990 -0.2710
 3074W        W 6818   7.447   1.103  10.536  0.2245 -0.0317 -0.0105
 3075W        W 6819   4.201   8.986   0.354  0.2771  0.1597  0.1828
 3076W        W 6820   1.452   9.214  11.762 -0.1447 -0.0867  0.4514
 3077W        W 6821   4.741   7.070  10.606 -0.3032 -0.4529  0.2400
 3078W        W 6822   7.071   8.444   2.384  0.3237  0.0270 -0.0399
 3079W        W 6823   1.319   4.960   2.639 -0.2333  0.0570  0.3612
 3080W        W 6824   3.526   8.816  11.127  0.2775 -0.0250  0.0427
 3081W        W 6825   6.824   3.926   0.417 -0.2586  0.2299  0.0127
 3082W        W 6826   2.181   9.262   3.419 -0.1778 -0.0544 -0.0485
 3083W        W 6827   3.276   3.222  10.412  0.1215 -0.0598  0.0270
 3084W        W 6828   6.741   8.189   2.745  0.0167  0.1074  0.1698
 3085W        W 6829   6.094   1.618  12.249 -0.1141  0.0996 -0.1066
 3086W        W 6830   9.728   8.994  12.206  0.1829  0.0908 -0.2301
 3087W        W 6831   4.771   4.067   1.971 -0.2866  0.2530 -0.2812
 3088W        W 6832   7.077   6.362   4.767 -0.0672  0.2611  0.1336
 3089W        W 6833   3.343   0.656   2.763  0.2922 -0.0573 -0.0949
 3090W        W 6834   3.183   3.785   2.670  0.1267  0.1777  0.0258
 3091W        W 6835   6.369   9.122   3.313 -0.1106  0.2289 -0.1529
 3092W        W 6836   8.486   6.442  11.655 -0.0732 -0.2151  0.1554
 3093W        W 6837   5.841   8.756  10.750  0.0926 -0.2840  0.3052
 3094W        W 6838   5.383   6.017  12.542 -0.0514 -0.0624  0.1167
 3095W        W 6839   0.513   3.418   9.800  0.1167  0.1021 -0.2685
 3096W        W 6840   4.432   1.070  10.928  0.0913 -0.1620  0.1590
 3097W        W 6841   6.991   3.504   0.295 -0.4043  0.2649  0.0042
 3098W        W 6842   5.434   8.642   3.048  0.1541  0.2066  0.1306
 3099W        W 6843   6.611   3.284   0.015  0.0399  0.1375  0.1144
 3100W        W 6844   3.703   1.027   9.586  0.0855 -0.0047  0.0305
 3101W        W 6845   9.663   6.316   2.033  0.1101  0.0115 -0.0989
 3102W        W 6846   5.576   1.175  10.174 -0.0545 -0.1454 -0.0364
 3103W        W 6847   6.017   8.690  11.598 -0.0419  0.1692  0.1186
 3104W        W 6848   7.939   7.542  12.532  0.1408  0.1125 -0.1384
 3105W        W 6849   0.609   8.342   2.302 -0.0662  0.2244  0.1805
 3106W        W 6850   4.387   2.880  11.279 -0.1306 -0.2521 -0.3341
 3107W        W 6851   2.473   0.555   1.536  0.3488 -0.1473  0.2984
 3108W        W 6852   5.786   2.746  11.229 -0.0825 -0.0750 -0.2373
 3109W        W 6853   1.340   7.993   1.476  0.0068  0.0076  0.0948
 3110W        W 6854   6.897   7.173  12.080 -0.0445  0.0600 -0.0672
 3111W        W 6855   7.120   4.591   3.577  0.3297  0.3399 -0.0455
 3112W        W 6856   8.651   5.964  11.522  0.0953  0.0747  0.3045
 3113W        W 6857   7.682   5.025   8.637 -0.3033 -0.2478 -0.1280
 3114W        W 6858   4.739   8.870  10.282  0.2151  0.3378  0.1676
 3115W        W 6859   1.409   4.143   0.068 -0.0763  0.0982  0.4209
 3116W        W 6860   9.812   0.673   1.710  0.0953  0.0936  0.0616
 3117W        W 6861   4.413   9.842   9.002 -0.1837 -0.0994 -0.2573
 3118W        W 6862   4.447   6.684   0.325 -0.1119  0.0904  0.1837
 3119W        W 6863   1.414   8.216  12.507  0.0158 -0.1587 -0.1321
 3120W        W 6864   4.406   8.830  12.035  0.0274  0.2354  0.3483
 3121W        W 6865   5.198   9.884   0.225 -0.2611 -0.1557 -0.1912
 3122W        W 6866   4.334   8.906  11.554  0.1942 -0.0369 -0.1946
 3123W        W 6867   0.898   9.540   3.334  0.2921  0.3427  0.0896
 3124W        W 6868   5.346   1.659  10.669  0.0846  0.2988 -0.4452
 3125W        W 6869   2.071   1.132   2.672 -0.1001 -0.1032  0.1889
 3126W        W 6870   9.720   7.554   4.432 -0.0062  0.0697  0.1451
 3127W        W 6871   7.330   0.343   1.041  0.0090 -0.1702 -0.0884
 3128W        W 6872   8.307   1.712   2.080  0.1501  0.1023  0.2628
 3129W        W 6873   6.648   6.701   8.638  0.1986 -0.0198  0.0266
 3130W        W 6874   0.168   8.539   2.472  0.1108 -0.0054  0.1929
 3131W        W 6875   9.314   1.960  10.960 -0.0051  0.2290 -0.0119
 3132W        W 6876   5.600   5.348   4.210  0.0243  0.2728  0.1539
 3133W        W 6877   8.858   8.726   9.724 -0.0677 -0.1714 -0.4034
 3134W        W 6878   7.230   0.179   3.254 -0.1162 -0.0434 -0.1836
 3135W        W 6879   3.577   9.567   9.642 -0.0927  0.0935  0.0638
 3136W        W 6880   0.252   0.044  10.544 -0.2881 -0.2178  0.0256
 3137W        W 6881   6.546   9.622   4.601  0.2185 -0.1070  0.1367
 3138W        W 6882   8.085   0.010   2.522 -0.0332  0.1135 -0.1353
 3139W        W 6883   3.300   3.634   1.248  0.0901  0.0614 -0.0588
 3140W        W 6884   6.474   1.790  10.282  0.0265 -0.1039  0.0186
 3141W        W 6885   0.057   1.119   8.376  0.0645 -0.1988 -0.2200
 3142W        W 6886   0.806   4.857   3.509  0.1560 -0.1313 -0.0955
 3143W        W 6887   2.404   3.860   3.564  0.4091 -0.1296 -0.0289
 3144W        W 6888   5.742   9.611  11.943  0.3961 -0.0534 -0.0597
 3145W        W 6889   7.096   9.402   8.558  0.1831  0.6088 -0.0348
 3146W        W 6890   8.889   7.415  10.820 -0.0876 -0.2034  0.0744
 3147W        W 6891   8.258   2.942   0.428  0.0496  0.0895  0.0743
 3148W        W 6892   0.320   6.256   4.970 -0.1432  0.4428  0.0954
 3149W        W 6893   4.361   5.693  10.006 -0.0412  0.4106  0.0489
 3150W        W 6894   6.381   5.447   1.688 -0.3083  0.1089  0.2725
 3151W        W 6895   0.350   9.416   0.897  0.0191 -0.1375 -0.4439
 3152W        W 6896   4.524   1.145   1.967 -0.1428  0.0322  0.1519
 3153W        W 6897   9.144   7.542   9.829 -0.4382  0.1113  0.4310
 3154W        W 6898   7.617   9.625   4.842 -0.2514 -0.3994  0.1084
 3155W        W 6899   8.836   2.733   4.052 -0.1882  0.2871 -0.0127
 3156W        W 6900   4.949   0.466  10.357  0.0802  0.3486 -0.0691
 3157W        W 6901   4.497   2.703   2.108 -0.4360  0.1621 -0.1465
 3158W        W 6902   3.869   1.549   9.499 -0.1618  0.2098 -0.3759
 3159W        W 6903   8.149   3.203  11.140 -0.0056 -0.2956  0.0408
 3160W        W 6904   9.182   9.062   0.270 -0.3398  0.0390  0.1248
 3161W        W 6905   0.355   3.619   9.375  0.0786 -0.1643  0.1831
 3162W        W 6906   6.652   6.835   3.035  0.0396  0.0570  0.0997
 3163W        W 6907   1.801   4.632   4.140  0.1468 -0.0188 -0.0520
 3164W        W 6908   9.019   4.599  10.907 -0.1770  0.1318  0.0534
 3165W        W 6909   2.904   1.277   1.155 -0.1213 -0.0424  0.0746
 3166W        W 6910   3.865   4.700  10.396  0.0104 -0.1401  0.1859
 3167W        W 6911   0.623   3.428   0.451 -0.0019 -0.2638 -0.3247
 3168W        W 6912   1.819   3.856  11.794 -0.1311 -0.3768 -0.0113
 3169W        W 6913   1.117   1.844   0.219  0.0815 -0.2218 -0.0597
 3170W        W 6914   5.645   1.646   2.190 -0.3098  0.1305  0.1114
 3171W        W 6915   0.304   3.191   1.568 -0.0391  0.0446  0.3622
 3172W        W 6916   8.637   2.282  11.644 -0.2458 -0.0648 -0.1177
 3173W        W 6917   6.304   0.073   2.729 -0.1059  0.2136  0.1145
 3174W        W 6918   1.530   2.972  12.460 -0.0891 -0.4406 -0.0210
 3175W        W 6919   5.639   6.782   2.655  0.0709 -0.2018 -0.1515
 3176W        W 6920   7.937   5.507  10.082 -0.1726  0.1200 -0.0970
 3177W        W 6921   9.427   5.241   2.972  0.1117 -0.2296  0.3956
 3178W        W 6922   0.646   9.726   9.202  0.1265  0.1669 -0.0139
 3179W        W 6923   1.231   5.472   2.778 -0.0564 -0.0510  0.0281
 3180W        W 6924   5.291   8.656  10.640 -0.1345 -0.1324  0.2983
 3181W        W 6925   5.788   7.614   0.075  0.2666  0.3985 -0.4116
 3182W        W 6926   5.036   7.766  10.113 -0.3079 -0.1021  0.1035
 3183W        W 6927   2.264   0.729   2.950  0.2081  0.0335 -0.1573
 3184W        W 6928   5.355   5.777   4.297 -0.0282 -0.0244 -0.0371
 3185W        W 6929   9.188   0.323   9.010  0.1205  0.1185 -0.3034
 3186W        W 6930   6.444   5.406  12.044 -0.1518 -0.0108 -0.0213
 3187W        W 6931   1.627   2.097  12.905 -0.0780  0.0706  0.0676
 3188W        W 6932   1.992   1.213   0.795  0.2662  0.0124 -0.0811
 3189W        W 6933   0.862   2.458  10.051  0.3426 -0.3816 -0.0039
 3190W        W 6934   7.421   6.279   9.909  0.1060  0.1906  0.2118
 3191W        W 6935   1.255   7.761  12.615  0.0224  0.1152 -0.2819
 3192W        W 6936   4.190   8.193  11.184  0.1152 -0.1553  0.0962
 3193W        W 6937   6.744   9.345   8.902  0.0124 -0.2143  0.1220
 3194W        W 6938   6.466   6.681   2.461 -0.1175  0.1678 -0.0016
 3195W        W 6939   8.412   3.439   0.125  0.1662  0.2953  0.0186
 3196W        W 6940   9.714   7.935   1.024  0.0686 -0.4444 -0.0643
 3197W        W 6941   1.941   3.990  12.649 -0.1741 -0.3007  0.2607
 3198W        W 6942   8.307   9.321  10.357 -0.1226 -0.1205 -0.1441
 3199W        W 6943   9.723   6.898   1.184 -0.2488  0.2808  0.1506
 3200W        W 6944   7.479   4.107   1.221 -0.0707  0.1887  0.0358
 3201W        W 6945   4.402   8.247   1.253 -0.1528 -0.0568  0.0898
 3202W        W 6946   2.195   8.413   0.476  0.2054 -0.0503 -0.0159
 3203W        W 6947   5.891   6.016   1.109  0.2048  0.1375 -0.4935
 3204W        W 6948   0.817   9.610   1.206 -0.0203 -0.0361  0.1769
 3205W        W 6949   8.155   5.999  12.411 -0.3001 -0.0518  0.0075
 3206W        W 6950   4.759   7.311   8.490  0.1008 -0.1252  0.2865
 3207W        W 6951   4.935   5.070   9.863 -0.1923 -0.1773 -0.3199
 3208W        W 6952   4.424   2.143   1.541 -0.1383 -0.2946 -0.1192
 3209W        W 6953   3.064   4.601   3.173  0.3300  0.0768  0.0420
 3210W        W 6954   7.166   5.114   0.099  0.0351  0.0842 -0.1120
 3211W        W 6955   7.941   3.025  10.018  0.1541 -0.2486 -0.1093
 3212W        W 6956   4.819   1.666  11.960  0.1546 -0.2641 -0.0511
 3213W        W 6957   4.758   5.222   1.534 -0.0556  0.0138 -0.2162
 3214W        W 6958   8.064   3.832   3.598  0.1324 -0.0030 -0.0366
 3215W        W 6959   9.274   3.321   0.732 -0.0478 -0.1124  0.1256
 3216W        W 6960   2.559   8.173   1.867  0.0366  0.3137  0.0095
 3217W        W 6961   5.135   0.114  11.186 -0.1812  0.2407  0.0029
 3218W        W 6962   5.167   9.539  10.610 -0.0916 -0.4484  0.0136
 3219W        W 6963   5.670   3.082   0.420 -0.4105 -0.0599 -0.0346
 3220W        W 6964   1.440   4.406   0.531  0.1028 -0.2836  0.1333
 3221W        W 6965   8.473   0.891   3.662 -0.2361 -0.1215  0.0899
 3222W        W 6966   4.429   6.098  11.485 -0.2484 -0.2466  0.1913
 3223W        W 6967   6.520   5.608   3.313  0.1698 -0.1863 -0.0093
 3224W        W 6968   6.900   6.556   8.195  0.2712 -0.0765 -0.0480
 3225W        W 6969   6.864   3.635   9.940 -0.0019 -0.3102  0.0351
 3226W        W 6970   9.391   6.301   8.706  0.0168  0.0060  0.1216
 3227W        W 6971   8.773   5.765  10.052  0.2911  0.3556  0.1765
 3228W        W 6972   2.955   3.423   2.883 -0.0782 -0.1436  0.3390
 3229W        W 6973   7.279   6.290   3.366 -0.1640 -0.1844 -0.1603
 3230W        W 6974   2.371   8.086   8.171 -0.2642 -0.0614  0.0224
 3231W        W 6975   8.961   4.500  10.461  0.0975 -0.1843  0.0951
 3232W        W 6976   6.097   3.942   9.807  0.1247 -0.0072 -0.1085
 3233W        W 6977   5.921   2.705   1.074  0.0335 -0.0489  0.0076
 3234W        W 6978   0.869   6.334  12.400 -0.0015  0.0988  0.0633
 3235W        W 6979   1.213   2.513  10.927  0.0287  0.0799 -0.0340
 3236W        W 6980   5.299   4.115   0.476 -0.1304 -0.1576 -0.1401
 3237W        W 6981   0.076   3.274   9.572 -0.1780 -0.0306  0.3280
 3238W        W 6982   4.266   1.601   0.521 -0.1617  0.3348 -0.0823
 3239W        W 6983   9.485   7.816   5.351  0.1534 -0.2203  0.0003
 3240W        W 6984   5.519   6.656   1.081 -0.1378 -0.1374  0.0791
 3241W        W 6985   8.784   5.740   0.020  0.2084  0.0897  0.0770
 3242W        W 6986   5.646   3.793   9.928  0.0071 -0.0179 -0.0268
 3243W        W 6987   3.326   8.659  10.645  0.0481  0.2257  0.1322
 3244W        W 6988   8.598   6.299   2.305 -0.2001 -0.1972  0.1941
 3245W        W 6989   2.969   1.379   3.607  0.0133  0.0115  0.1909
 3246W        W 6990   3.755   7.920  11.225 -0.1090  0.1566  0.0772
 3247W        W 6991   0.738   3.931   2.009  0.5560  0.4862  0.1051
 3248W        W 6992   2.747   5.650   0.205  0.2401  0.0389  0.3839
 3249W        W 6993   3.517   9.596   1.254 -0.0606  0.1442  0.0933
 3250W        W 6994   6.049   5.054   0.791 -0.0587 -0.0513  0.1039
 3251W        W 6995   1.808   0.847  10.512 -0.1560 -0.1625  0.2368
 3252W        W 6996   3.964   4.190  11.292 -0.1528 -0.1233 -0.1631
 3253W        W 6997   7.593   0.003  12.795 -0.0805 -0.3395 -0.1840
 3254W        W 6998   7.488   9.831  11.109  0.1000 -0.1333 -0.2895
 3255W        W 6999   0.707   9.466  11.145  0.0354  0.3132 -0.2665
 3256W        W 7000   8.426   4.628   0.987 -0.3895 -0.0364 -0.0050
 3257W        W 7001   6.059   8.493   8.915 -0.0595 -0.3288 -0.2101
 3258W        W 7002   8.502   6.420  12.223 -0.1560 -0.3306  0.1754
 3259W        W 7003   3.930   2.136  11.588  0.0987 -0.2870  0.0798
 3260W        W 7004   1.489   2.620  10.503  0.3449  0.0697  0.0055
 3261W        W 7005   9.255   7.267   3.369 -0.1844 -0.1666 -0.1092
 3262W        W 7006   4.109   4.549  10.934  0.0109  0.1681 -0.4005
 3263W        W 7007   9.555   3.247   9.303  0.1524  0.1336 -0.2185
 3264W        W 7008   0.510   8.467   0.786 -0.0505  0.4628  0.0911
 3265W        W 7009   5.882   0.276  12.276 -0.0701 -0.0265 -0.1249
 3266W        W 7010   6.911   0.892   0.439 -0.0398  0.3087  0.0159
 3267W        W 7011   1.153   9.694  10.978 -0.7196  0.4526 -0.0588
 3268W        W 7012   1.844   1.678  10.570  0.2930  0.1442  0.2916
 3269W        W 7013   6.313   1.779   3.461  0.2522 -0.0668 -0.1031
 3270W        W 7014   6.960   7.064   2.148  0.0108  0.2006  0.1471
 3271W        W 7015   8.157   4.002   9.431 -0.1934  0.2644  0.2300
 3272W        W 7016   9.253   6.908   0.741 -0.0208 -0.1898  0.0115
 3273W        W 7017   6.869   1.081  11.383 -0.2627  0.1550 -0.1461
 3274W        W 7018   7.403   0.977  12.572 -0.2886 -0.0152 -0.2489
 3275W        W 7019   0.468   6.001   0.893 -0.1938  0.2204  0.0766
 3276W        W 7020   8.455   2.507   1.387  0.0722  0.0909  0.3113
 3277W        W 7021   1.465   7.595   0.623  0.1611  0.1880 -0.0515
 3278W        W 7022   9.022   0.231  10.331  0.0258  0.0865  0.0850
 3279W        W 7023   7.354   7.593   2.185  0.1147  0.3968 -0.2026
 3280W        W 7024   5.571   2.449  10.530 -0.0386 -0.0026  0.1713
 3281W        W 7025   1.495   1.671  11.506 -0.2029  0.2661  0.0352
 3282W        W 7026   4.798   0.731   0.957 -0.0825  0.0096 -0.1116
 3283W        W 7027   3.081   7.724  12.070  0.0297  0.3280  0.4084
 3284W        W 7028   5.706   5.021   2.307 -0.3145  0.1493  0.4090
 3285W        W 7029   0.273   3.525   4.718  0.0503 -0.4298 -0.0954
 3286W        W 7030   8.230   3.246  10.571 -0.2912  0.1578  0.3198
 3287W        W 7031   4.634   4.905   3.510 -0.0125 -0.1056 -0.2522
 3288W        W 7032   8.934   5.249   1.503  0.0579  0.2602 -0.0505
 3289W        W 7033   0.103   7.456  10.342 -0.1198 -0.0788  0.2079
 3290W        W 7034   2.868   7.683   9.472 -0.1663 -0.1400  0.1592
 3291W        W 7035   3.280   5.440   5.008 -0.0877  0.2504  0.0922
 3292W        W 7036   2.081   9.267   9.428  0.0590  0.0969  0.1005
 3293W        W 7037   8.216   0.476  11.369  0.3084  0.0603 -0.1269
 3294W        W 7038   1.031   1.165   1.596  0.0030 -0.1493 -0.0996
 3295W        W 7039   8.365   5.698   9.205  0.0654  0.2379  0.3933
 3296W        W 7040   1.577   5.152  10.027 -0.2676 -0.0171 -0.0714
 3297W        W 7041   2.336   0.391  10.621  0.0955 -0.1039  0.0662
 3298W        W 7042   3.444   6.201   0.904 -0.3387 -0.2147 -0.1241
 3299W        W 7043   3.520   3.823   1.693 -0.0735  0.1747  0.0312
 3300W        W 7044   3.389   3.115   0.174  0.1493  0.1171 -0.0098
 3301W        W 7045   8.405   8.878   9.594  0.2419 -0.0715 -0.3025
 3302W        W 7046   4.804   2.787   3.308 -0.0770 -0.0579 -0.1835
 3303W        W 7047   4.057   4.712   2.040 -0.0587 -0.2726 -0.1481
 3304W        W 7048   6.210   7.583   8.254  0.2744  0.0660  0.1557
 3305W        W 7049   0.901   1.818   2.903 -0.1022 -0.1441 -0.0719
 3306W        W 7050   9.584   4.163   9.184  0.3443 -0.1160 -0.1545
 3307W        W 7051   2.439   9.477  12.656  0.2302 -0.2296  0.0302
 3308W        W 7052   1.686   6.638   0.685  0.0062  0.1979 -0.1441
 3309W        W 7053   2.628   0.074   4.315 -0.4281  0.1940  0.2890
 3310W        W 7054   5.398   4.326  10.269  0.1099 -0.0032  0.1686
 3311W        W 7055   4.109   3.577   1.129  0.0489  0.0868  0.1953
 3312W        W 7056   2.319   2.496   1.800  0.2307 -0.2351 -0.1639
 3313W        W 7057   6.275   7.513   9.990  0.0788  0.1660 -0.1638
 3314W        W 7058   1.760   8.232  10.720  0.2638  0.1118 -0.1884
 3315W        W 7059   1.701   7.940  11.191 -0.2051 -0.0619  0.1093
 3316W        W 7060   5.179   8.590   0.007  0.0601 -0.0192  0.0565
 3317W        W 7061   7.448   1.564   0.737  0.0144  0.0460 -0.0278
 3318W        W 7062   6.692   7.170   1.632 -0.2475 -0.2726  0.0104
 3319W        W 7063   4.480   3.590  12.805  0.3273  0.2457  0.1352
 3320W        W 7064   1.626   0.765  11.621 -0.1103 -0.0104  0.3729
 3321W        W 7065   7.316   4.763   8.290  0.2593 -0.0750  0.2253
 3322W        W 7066   2.588   1.239  10.983  0.2802  0.0262 -0.2562
 3323W        W 7067   4.307   5.668   1.121  0.2027 -0.0481 -0.3407
 3324W        W 7068   6.627   7.859  10.641  0.0365  0.0927  0.1151
 3325W        W 7069   2.364   5.562  10.998 -0.2331  0.1456  0.3086
 3326W        W 7070   3.092   0.843  11.774 -0.2654  0.3279 -0.0173
 3327W        W 7071   2.658   9.690   2.844  0.2996 -0.1107 -0.2605
 3328W        W 7072   4.013   3.729   1.750 -0.1907  0.2254 -0.0080
 3329W        W 7073   5.997   2.734  12.449  0.0613  0.0255 -0.2122
 3330W        W 7074   1.676   4.619  10.102  0.2432  0.0834  0.2012
 3331W        W 7075   6.565   4.466  11.678  0.0789 -0.2715 -0.4986
 3332W        W 7076   2.088   4.592  11.371 -0.1149 -0.1371  0.0709
 3333W        W 7077   2.135   9.667   9.732  0.1378  0.3912 -0.1995
 3334W        W 7078   9.501   3.311   3.995  0.5704 -0.0706 -0.0039
 3335W        W 7079   8.665   7.499   9.571 -0.6701 -0.0270 -0.1561
 3336W        W 7080   0.267   1.961   1.227 -0.1223 -0.4764  0.4523
 3337W        W 7081   5.316   6.490  10.679 -0.0121  0.1011 -0.4050
 3338W        W 7082   6.491   3.819   1.317  0.0381  0.1268 -0.0987
 3339W        W 7083   7.219   1.782   3.086 -0.0738 -0.3639  0.0774
 3340W        W 7084   2.187   2.246   3.066  0.3166 -0.1483 -0.0559
 3341W        W 7085   3.869   6.311   2.137  0.0548 -0.0408 -0.3491
 3342W        W 7086   0.215   8.659  11.382  0.1835 -0.0143 -0.2201
 3343W        W 7087   4.064   0.001   0.551 -0.0613 -0.1273  0.1229
 3344W        W 7088   0.064   7.780  12.852  0.1639  0.3706 -0.0377
 3345W        W 7089   7.074   2.921   2.328  0.1423 -0.1781  0.3390
 3346W        W 7090   7.951   3.908   1.301 -0.1240 -0.1285 -0.0235
 3347W        W 7091   8.746   1.993  10.475  0.3913  0.0917  0.0984
 3348W        W 7092   7.843   8.522  12.897 -0.3988  0.2593 -0.0141
 3349W        W 7093   9.378   2.715  10.900 -0.2263 -0.1426  0.2259
 3350W        W 7094   6.368   7.333   8.632 -0.1946 -0.0187  0.0850
 3351W        W 7095   9.157   2.513   1.057 -0.0600 -0.0409  0.1879
 3352W        W 7096   7.744   7.417   0.096 -0.2180  0.3656 -0.1583
 3353W        W 7097   1.751   9.896   3.173  0.2260  0.1906  0.1906
 3354W        W 7098   0.228   2.741   9.407 -0.0695 -0.0851 -0.1651
 3355W        W 7099   5.721   8.684  12.751  0.2174 -0.0259  0.1614
 3356W        W 7100   0.752   2.628   2.826 -0.2135 -0.0361 -0.0849
 3357W        W 7101   0.301   2.298  12.701  0.2164 -0.3885 -0.0351
 3358W        W 7102   6.329   1.615   9.275 -0.1099  0.2332 -0.0996
 3359W        W 7103   8.741   4.609   9.316 -0.1228 -0.1993  0.0405
 3360W        W 7104   0.311   8.111   0.367  0.0597 -0.0482  0.0434
 3361W        W 7105   7.098   6.906   9.491  0.0501 -0.2775  0.0923
 3362W        W 7106   9.876   1.840  11.114  0.1070  0.4608 -0.2037
 3363W        W 7107   6.417   7.359   3.114  0.0069 -0.0804  0.3369
 3364W        W 7108   7.090   6.988   3.704 -0.1760  0.1773  0.2333
 3365W        W 7109   2.418   4.384   0.335 -0.0628  0.0392  0.1151
 3366W        W 7110   7.824   0.519   1.663 -0.2349  0.0946 -0.0248
 3367W        W 7111   2.932   5.036   2.831  0.1549  0.2440 -0.2062
 3368W        W 7112   4.866   4.174  12.152 -0.0849  0.2848  0.0879
 3369W        W 7113   2.657   0.014   0.359 -0.5336 -0.2972  0.3458
 3370W        W 7114   8.282   4.583   9.107 -0.1866 -0.1069  0.0579
 3371W        W 7115   5.924   2.636   0.521 -0.0153 -0.3445 -0.0857
 3372W        W 7116   1.376   1.222   3.150  0.1916 -0.1931 -0.1759
 3373W        W 7117   5.852   4.288   2.684  0.2603  0.0346  0.1963
 3374W        W 7118   8.672   2.506  10.682  0.0097  0.3128  0.2038
 3375W        W 7119   4.008   9.493  11.387  0.2207 -0.3229 -0.0958
 3376W        W 7120   5.650   1.756  12.543 -0.1515 -0.1861 -0.0046
 3377W        W 7121   6.053   0.233  11.782 -0.2455 -0.1974  0.2219
 3378W        W 7122   6.935   8.994   1.605  0.2098 -0.0387 -0.0176
 3379W        W 7123   6.710   4.534   3.168  0.1621 -0.0149 -0.0020
 3380W        W 7124   2.409   5.361   1.718  0.2665 -0.1322 -0.1715
 3381W        W 7125   5.791   1.447   1.718 -0.2215 -0.1042 -0.1551
 3382W        W 7126   3.407   1.357  10.491  0.0085  0.1698  0.2210
 3383W        W 7127   2.604   2.184  11.326 -0.0863  0.0168  0.2480
 3384W        W 7128   2.325   7.504   4.921  0.0569  0.1346  0.0852
 3385W        W 7129   4.238   5.154  10.367 -0.1913 -0.3006 -0.0780
 3386W        W 7130   7.268   2.776   0.769 -0.0445 -0.0362  0.2098
 3387W        W 7131   0.280   6.266  10.883 -0.0709 -0.1063 -0.3797
 3388W        W 7132   0.782   9.597  12.706  0.2385 -0.1476  0.1021
 3389W        W 7133   2.346   4.419   4.318 -0.1656 -0.2788 -0.0901
 3390W        W 7134   8.972   2.604   2.539 -0.0157  0.0841  0.0175
 3391W        W 7135   5.393   6.270   9.554 -0.0155  0.0504 -0.0104
 3392W        W 7136   2.086   0.645   2.514 -0.0850  0.0783  0.1535
 3393W        W 7137   4.620   7.394   3.169 -0.0009  0.1640  0.2190
 3394W        W 7138   0.341   7.205   0.351  0.0795  0.0096 -0.1288
 3395W        W 7139   1.642   6.719   2.096 -0.1349 -0.0977 -0.0650
 3396W        W 7140   1.832   1.052   1.322  0.1708  0.0870 -0.2710
 3397W        W 7141   2.780   6.546   4.240  0.1939  0.1665 -0.0747
 3398W        W 7142   7.437   5.655  12.258  0.3853  0.1571  0.0775
 3399W        W 7143   9.518   7.472  10.536  0.0245  0.2607  0.5595
 3400W        W 7144   9.711   4.990   0.103  0.0036 -0.3281 -0.3950
 3401W        W 7145   5.703   3.131  12.053 -0.1431 -0.1374  0.0057
 3402W        W 7146   4.428   9.566   3.667  0.0386 -0.1819  0.0479
 3403W        W 7147   5.803   1.550   3.633 -0.1800  0.1134 -0.0273
 3404W        W 7148   9.714   8.462   3.400  0.1002 -0.1473 -0.2504
 3405W        W 7149   1.681   2.217   2.396 -0.1109  0.0812  0.4769
 3406W        W 7150   8.501   1.187   0.906 -0.1304  0.3982  0.0352
 3407W        W 7151   4.758   2.623  11.069  0.3036  0.0229  0.2300
 3408W        W 7152   3.710   6.434  12.721 -0.1349 -0.3542  0.0278
 3409W        W 7153   0.803   1.640   0.536  0.2495 -0.0182  0.2333
 3410W        W 7154   0.141   4.546   2.704 -0.0277 -0.0875  0.0599
 3411W        W 7155   9.279   2.083   9.652 -0.2859 -0.0198  0.1242
 3412W        W 7156   2.354   7.230   4.373  0.1963  0.2533  0.0789
 3413W        W 7157   0.190   9.289  10.882  0.2962  0.1899  0.0260
 3414W        W 7158   6.393   1.006   0.689 -0.0955  0.0953 -0.0626
 3415W        W 7159   0.017   5.588   1.312 -0.0081 -0.1059 -0.1681
 3416W        W 7160   7.362   2.021   2.655  0.0701  0.0725  0.1250
 3417W        W 7161   6.037   2.357   3.181  0.0904  0.0175  0.0201
 3418W        W 7162   4.687   2.492   2.859  0.2595  0.2902 -0.1628
 3419W        W 7163   7.110   7.740  10.817  0.3262  0.0129  0.0605
 3420W        W 7164   7.400   3.093   0.343  0.3265 -0.0590  0.3235
 3421W        W 7165   9.008   8.389  10.089  0.0539  0.0230 -0.0468
 3422W        W 7166   3.455   7.382   2.416 -0.0012 -0.3429  0.0539
 3423W        W 7167   5.860   3.534   1.958  0.3733 -0.2224 -0.1255
 3424W        W 7168   2.928   2.988   2.263  0.3023  0.2229  0.0801
 3425W        W 7169   1.288   7.113   2.505 -0.1557 -0.1940 -0.0643
 3426W        W 7170   6.983   6.789  11.431 -0.1471 -0.2757  0.3452
 3427W        W 7171   0.888   3.624   9.531 -0.4656  0.2286  0.0598
 3428W        W 7172   7.088   6.946  10.584  0.1690  0.0834  0.0976
 3429W        W 7173   4.215   5.984   3.298 -0.0155  0.1130 -0.1786
 3430W        W 7174   9.080   1.154  10.485 -0.0605 -0.1904 -0.1727
 3431W        W 7175   6.777   8.720   4.192 -0.0014 -0.1587  0.0093
 3432W        W 7176   6.426   7.078  12.194  0.0519  0.0211 -0.2114
 3433W        W 7177   7.988   2.328   1.581 -0.0835 -0.1754 -0.2302
 3434W        W 7178   2.311   5.012  10.801  0.1166  0.1041 -0.2022
 3435W        W 7179   6.535   8.282   1.225 -0.0200 -0.2364 -0.0504
 3436W        W 7180   2.052   6.239   3.417 -0.2852  0.1006  0.0889
 3437W        W 7181   4.289   3.318  11.525  0.2537 -0.1847  0.0651
 3438W        W 7182   1.276   6.666  12.235 -0.0514  0.0815 -0.3274
 3439W        W 7183   7.802   7.811   9.300  0.2175 -0.2387  0.2810
 3440W        W 7184   9.752   6.581  10.522  0.2112 -0.0503 -0.0813
 3441W        W 7185   1.103   8.779   2.506  0.1072  0.0534 -0.1595
 3442W        W 7186   4.635   2.012  10.234  0.2625 -0.1116 -0.0519
 3443W        W 7187   6.526   5.439   2.832  0.0192  0.1605  0.2468
 3444W        W 7188   4.764   8.194   0.644  0.2756  0.1120  0.2415
 3445W        W 7189   9.084   3.892   3.562 -0.1423  0.0483 -0.0001
 3446W        W 7190   6.931   0.560   3.492 -0.0314 -0.3244  0.0628
 3447W        W 7191   8.766   3.548  10.549 -0.3391 -0.1921 -0.1697
 3448W        W 7192   7.502   4.972  11.626  0.1071 -0.1458  0.0381
 3449W        W 7193   1.508   3.833   0.565 -0.0753  0.1718  0.1151
 3450W        W 7194   4.433   7.381   2.244  0.0879  0.0901 -0.2069
 3451W        W 7195   5.877   0.426   1.876  0.0819  0.1245 -0.2567
 3452W        W 7196   0.795   5.438   0.447 -0.0558  0.2091 -0.1088
 3453W        W 7197   7.479   2.325  12.883  0.0359  0.2364  0.1702
 3454W        W 7198   7.164   7.386  12.803 -0.0236 -0.1020 -0.2110
 3455W        W 7199   3.990   5.484   2.544 -0.3473 -0.3105 -0.0903
 3456W        W 7200   9.652   4.780  12.581 -0.2567  0.0391  0.0881
 3457W        W 7201   8.598   7.748   2.736 -0.3303 -0.0660  0.2678
 3458W        W 7202   1.799   5.699   0.076 -0.1452 -0.0740 -0.0505
 3459W        W 7203   8.396   3.488   4.103  0.0591 -0.1985 -0.0248
 3460W        W 7204   6.964   2.055  11.771 -0.0443  0.2481  0.1097
 3461W        W 7205   1.999   0.787   1.689 -0.1444 -0.1281 -0.0902
 3462W        W 7206   8.789   8.388  12.570  0.0102  0.0735  0.2189
 3463W        W 7207   0.044   5.852  10.714  0.0721 -0.0890 -0.0727
 3464W        W 7208   1.775   4.547  12.177  0.2012 -0.0356  0.2174
 3465W        W 7209   3.585   8.974  12.499 -0.1756  0.0048 -0.2508
 3466W        W 7210   6.889   5.216   2.349  0.1655  0.1076  0.0825
 3467W        W 7211   9.869   4.639   3.576  0.0730  0.2828  0.1167
 3468W        W 7212   2.286   2.561  11.971 -0.4495  0.1871 -0.0102
 3469W        W 7213   7.498   4.811   9.506 -0.0518  0.3466  0.0229
 3470W        W 7214   4.796   7.712   0.335  0.0340  0.1637 -0.0011
 3471W        W 7215   7.545   2.711   3.080  0.0423  0.2389 -0.0433
 3472W        W 7216   4.061   8.797  12.837  0.3142 -0.4103  0.0704
 3473W        W 7217   6.110   8.699   3.233 -0.0120  0.6624  0.0577
 3474W        W 7218   4.102   7.904  10.244  0.2134  0.0672 -0.1020
 3475W        W 7219   0.921   1.283  10.855  0.0110 -0.2459  0.3531
 3476W        W 7220   9.377   4.794   8.172 -0.2942  0.3060  0.0854
 3477W        W 7221   2.124   0.208   1.647  0.0995 -0.1206  0.1489
 3478W        W 7222   8.610   6.119   9.030  0.2160  0.1456  0.1248
 3479W        W 7223   9.596   6.335   1.448 -0.1586 -0.5706  0.3245
 3480W        W 7224   8.087   0.583  12.910 -0.1191 -0.1495 -0.5181
 3481W        W 7225   5.209   0.142   3.529  0.4000 -0.0279 -0.0226
 3482W        W 7226   7.348   9.116  10.394  0.2795 -0.0804  0.1073
 3483W        W 7227   6.293   7.054   4.252  0.2079  0.1771  0.2837
 3484W        W 7228   1.952   3.871   9.715  0.4703 -0.1034  0.2709
 3485W        W 7229   9.632   2.790   4.599  0.1822 -0.1179  0.0108
 3486W        W 7230   4.591   9.283   9.750 -0.0917  0.1840  0.2317
 3487W        W 7231   5.878   0.699   0.680 -0.2122  0.2575  0.2608
 3488W        W 7232   2.571   8.405   4.131 -0.0731 -0.1052  0.2788
 3489W        W 7233   0.163   5.516  10.335  0.2415 -0.1036 -0.0523
 3490W        W 7234   7.153   5.245   2.829 -0.0660 -0.0123  0.0943
 3491W        W 7235   2.109   4.479  12.581  0.2667 -0.3188  0.0183
 3492W        W 7236   0.712   3.850   2.558  0.1166  0.0605 -0.0571
 3493W        W 7237   5.545   5.509   9.403  0.2531 -0.1060  0.0996
 3494W        W 7238   9.443   5.097   8.596  0.0657  0.1052  0.3272
 3495W        W 7239   2.155   2.671  10.152  0.0817  0.0126  0.2842
 3496W        W 7240   7.309   8.881   8.452 -0.4281 -0.0240 -0.0979
 3497W        W 7241   0.259   1.618   2.148  0.3693 -0.0319  0.2975
 3498W        W 7242   5.572   9.595   2.389 -0.1914  0.1414 -0.0269
 3499W        W 7243   3.896   8.771   3.993 -0.2086 -0.1524  0.0295
 3500W        W 7244   9.663   4.278   0.717 -0.0434  0.0679  0.1742
 3501W        W 7245   1.397   0.963   2.359  0.3937  0.0103 -0.2138
 3502W        W 7246   9.660   7.924  11.940 -0.3806  0.2923 -0.0518
 3503W        W 7247   9.664   6.558   0.805 -0.1721 -0.0668 -0.1511
 3504W        W 7248   5.167   8.711   3.883 -0.1390  0.3532 -0.1296
 3505W        W 7249   5.524   2.853  11.678  0.1209  0.2005 -0.1139
 3506W        W 7250   8.451   8.465   1.338  0.3663  0.2361 -0.3283
 3507W        W 7251   0.710   3.970   3.542 -0.1885 -0.1451 -0.2630
 3508W        W 7252   0.820   4.623   0.897 -0.0322 -0.0309  0.0821
 3509W        W 7253   0.302   4.966  10.422  0.0936  0.1856  0.0387
 3510W        W 7254   0.748   6.847   0.633  0.4510 -0.2360 -0.0152
 3511W        W 7255   2.566   4.880  12.455 -0.2577  0.0164 -0.0632
 3512W        W 7256   8.771   0.320   9.465 -0.0263 -0.0557  0.1049
 3513W        W 7257   8.215   2.956   3.279  0.0310 -0.2015  0.2079
 3514W        W 7258   2.550   8.576   0.958 -0.0874  0.1289  0.0302
 3515W        W 7259   2.980   3.131   0.440  0.0243 -0.1542 -0.2080
 3516W        W 7260   6.381   5.952   2.458 -0.0546  0.0723 -0.1920
 3517W        W 7261   2.548   3.029   1.045 -0.1645  0.1211 -0.2272
 3518W        W 7262   7.185   8.555  11.032 -0.1097 -0.2299  0.1954
 3519W        W 7263   7.005   1.822  10.004 -0.2021 -0.0439 -0.0325
 3520W        W 7264   6.513   1.184   0.253  0.0397  0.0876  0.0101
 3521W        W 7265   6.732   7.620   8.929 -0.3033  0.0839  0.1108
 3522W        W 7266   1.280   2.687   1.982  0.5824  0.0240  0.1107
 3523W        W 7267   6.042   0.204  10.535  0.1466 -0.3890  0.4722
 3524W        W 7268   8.059   0.177   8.897  0.0970 -0.0861  0.0370
 3525W        W 7269   6.450   8.514   0.105  0.1544  0.4102 -0.1893
 3526W        W 7270   6.056   9.288  12.176  0.1306  0.2752  0.1285
 3527W        W 7271   0.128   7.526  12.206  0.0662  0.0763 -0.1063
 3528W        W 7272   0.451   9.459   1.585 -0.2135 -0.4428 -0.0840
 3529W        W 7273   4.339   8.626  10.947  0.1693 -0.0927  0.1273
 3530W        W 7274   6.629   9.146   4.356  0.3984 -0.2947  0.0903
 3531W        W 7275   9.045   5.720   4.379 -0.0491 -0.0330 -0.0464
 3532W        W 7276   6.805   0.118   1.827  0.3396  0.0243  0.1724
 3533W        W 7277   7.089   8.967   2.250  0.3192  0.0391 -0.2200
 3534W        W 7278   6.732   0.521  10.167  0.1128  0.2417 -0.0686
 3535W        W 7279   7.800   7.937   4.315  0.0670 -0.2397  0.1063
 3536W        W 7280   2.054   3.652   2.200 -0.4843  0.0769 -0.6201
 3537W        W 7281   6.570   8.691   9.995  0.0650 -0.1723 -0.3653
 3538W        W 7282   2.181   9.662   1.931 -0.2158 -0.2531  0.1767
 3539W        W 7283   2.956   1.399   0.204 -0.3082 -0.3011  0.2467
 3540W        W 7284   6.392   9.564   3.673 -0.2385  0.3064 -0.0664
 3541W        W 7285   0.435   2.375   1.630 -0.1317  0.2963  0.0080
 3542W        W 7286   4.030   3.265   2.862 -0.2193  0.0025 -0.2645
 3543W        W 7287   2.042   3.642   3.221  0.2756  0.1310 -0.1162
 3544W        W 7288   9.181   0.935  12.497  0.3039  0.2269  0.4716
 3545W        W 7289   3.639   7.491  12.667  0.1806 -0.4092 -0.1693
 3546W        W 7290   9.154   3.592  11.519 -0.0818 -0.0628  0.0697
 3547W        W 7291   1.184   8.689   4.215 -0.0735  0.0637 -0.0489
 3548W        W 7292   0.160   8.052   2.382 -0.2822 -0.1197 -0.0412
 3549W        W 7293   6.585   9.119   3.829 -0.0045  0.0330 -0.0150
 3550W        W 7294   0.658   5.155  12.020  0.0225 -0.1547  0.1484
 3551W        W 7295   4.003   7.962   1.500 -0.0999  0.0445 -0.1836
 3552W        W 7296   4.684   1.437   0.805 -0.1220 -0.1660  0.2680
 3553W        W 7297   3.738   7.451   1.480  0.1319  0.1637 -0.0894
 3554W        W 7298   6.600   8.847   2.060  0.2117 -0.0130 -0.3054
 3555W        W 7299   6.891   2.997   0.558  0.1248 -0.0329  0.1054
 3556W        W 7300   6.034   5.764   9.361 -0.0327  0.2908 -0.1080
 3557W        W 7301   1.544   6.102  12.900 -0.3774  0.0744  0.0674
 3558W        W 7302   2.840   5.580   1.727 -0.3028 -0.2082  0.0035
 3559W        W 7303   0.925   0.595   2.419  0.3436 -0.1421 -0.4609
 3560W        W 7304   4.092   5.724   2.045  0.2537 -0.1555  0.0873
 3561W        W 7305   0.878   2.667  11.863  0.1429 -0.1834 -0.0932
 3562W        W 7306   2.112   0.141   2.320 -0.0361  0.0367 -0.2922
 3563W        W 7307   9.269   1.015   4.542 -0.1509 -0.0068 -0.0311
 3564W        W 7308   7.814   0.359  11.147 -0.1849  0.3523  0.4972
 3565W        W 7309   4.714   3.335   1.389 -0.3538  0.1619 -0.1475
 3566W        W 7310   9.067   1.422   2.749 -0.1112 -0.1178 -0.2389
 3567W        W 7311   3.743   3.503   0.295  0.2078 -0.0631 -0.1535
 3568W        W 7312   0.214   6.278   9.884 -0.1971 -0.1888 -0.0855
 3569W        W 7313   9.609   6.260  10.855  0.0608  0.0118 -0.1261
 3570W        W 7314   8.137   8.148   3.331 -0.2796  0.0966 -0.0629
 3571W        W 7315   9.288   7.304   3.858  0.1950  0.0111 -0.0638
 3572W        W 7316   4.889   4.293   3.116  0.0662  0.0684 -0.1480
 3573W        W 7317   7.122   3.954   2.528 -0.0278 -0.1210 -0.0795
 3574W        W 7318   0.442   1.525  10.335 -0.2931  0.1478 -0.1768
 3575W        W 7319   1.663   3.152  11.945  0.5611 -0.1549  0.3188
 3576W        W 7320   2.681   8.440   0.408  0.0611  0.3608  0.0203
 3577W        W 7321   4.132   2.477   2.434 -0.0285 -0.2259 -0.0806
 3578W        W 7322   9.715   5.126  11.204 -0.2434  0.0148  0.1885
 3579W        W 7323   2.060   4.359   3.508 -0.1237 -0.0398  0.0560
 3580W        W 7324   0.843   2.298   1.925  0.1709 -0.0657 -0.1099
 3581W        W 7325   8.338   6.532   8.950 -0.0952  0.1042 -0.0684
 3582W        W 7326   4.292   1.525   2.217 -0.1353  0.0995  0.1407
 3583W        W 7327   7.028   2.497   2.725 -0.0422 -0.2461  0.1269
 3584W        W 7328   3.439   1.045  11.384  0.0141 -0.0511 -0.0597
 3585W        W 7329   1.583   6.199  11.328  0.0039 -0.1074 -0.0247
 3586W        W 7330   6.659   1.539   3.032  0.3757  0.0786 -0.3610
 3587W        W 7331   9.610   6.333   2.678 -0.0530 -0.0692 -0.0336
 3588W        W 7332   6.023   2.227  11.037 -0.3573  0.0251 -0.0223
 3589W        W 7333   3.384   2.879   2.116 -0.1045  0.1257  0.0784
 3590W        W 7334   3.752   1.564  10.024 -0.3245 -0.1180  0.0322
 3591W        W 7335   0.715   6.749   9.870 -0.0402  0.1688  0.1837
 3592W        W 7336   3.475   8.134   2.159  0.0082  0.4028 -0.0072
 3593W        W 7337   8.553   0.366   0.566  0.0978  0.0645  0.2293
 3594W        W 7338   4.424   6.556  11.274  0.0235  0.0702 -0.2134
 3595W        W 7339   6.809   7.165   0.314 -0.1686  0.0729  0.2300
 3596W        W 7340   9.672   5.899   1.643  0.4864  0.1436  0.1479
 3597W        W 7341   1.345   2.228  10.159 -0.1842 -0.3653  0.1626
 3598W        W 7342   0.056   7.098   2.166  0.0163  0.0465 -0.0153
 3599W        W 7343   8.500   5.517   0.699  0.2948  0.3067 -0.0345
 3600W        W 7344   8.304   7.200   0.276 -0.0423 -0.0264 -0.0688
 3601W        W 7345   9.674   1.248   4.269 -0.0937  0.1003 -0.0156
 3602W        W 7346   4.567   9.833  12.236 -0.4080  0.0956 -0.1523
 3603W        W 7347   5.022   9.102  12.914  0.1881  0.1070  0.1090
 3604W        W 7348   9.671   2.305  10.968 -0.1244  0.0912  0.0704
 3605W        W 7349   4.964   7.272   0.730 -0.2761  0.2152  0.1737
 3606W        W 7350   9.373   9.869   2.332  0.2648  0.1814  0.2834
 3607W        W 7351   8.359   0.984  11.620  0.3689  0.1769  0.0838
 3608W        W 7352   3.385   5.621   0.083  0.0687 -0.1085  0.0125
 3609W        W 7353   0.092   2.744  10.101  0.0762  0.0315 -0.1315
 3610W        W 7354   5.726   6.509   3.741 -0.0990 -0.0707  0.1438
 3611W        W 7355   1.175   8.641   1.562 -0.1073 -0.0644 -0.0259
 3612W        W 7356   0.243   8.683   1.443 -0.1553  0.2115 -0.0305
 3613W        W 7357   3.930   4.250  12.668 -0.1453 -0.0276  0.5116
 3614W        W 7358   5.076   4.999  12.035 -0.1647 -0.4028 -0.1322
 3615W        W 7359   9.765   9.241  10.407 -0.3298 -0.2812  0.0402
 3616W        W 7360   6.365   0.620  11.370 -0.1085  0.0616 -0.0991
 3617W        W 7361   8.922   8.457   1.525 -0.3560  0.1201  0.1470
 3618W        W 7362   9.172   0.837   1.392 -0.1717  0.0085  0.2815
 3619W        W 7363   5.891   8.575   0.923  0.2786  0.1063 -0.1131
 3620W        W 7364   9.299   1.699   1.063 -0.0235  0.5319 -0.0005
 3621W        W 7365   2.490   6.477   1.783 -0.3009 -0.1945 -0.0900
 3622W        W 7366   5.084   7.368   9.809  0.0049 -0.0233 -0.3960
 3623W        W 7367   5.428   3.468  12.237 -0.3109  0.0135 -0.1662
 3624W        W 7368   7.279   8.486  10.449  0.0451  0.0263 -0.1731
 3625W        W 7369   9.242   0.690   8.718 -0.0323  0.0870 -0.0441
 3626W        W 7370   1.627   5.801   4.521 -0.0326 -0.0520 -0.0803
 3627W        W 7371   9.817   7.755  11.009  0.3687  0.0123  0.0400
 3628W        W 7372   6.705   3.720   9.432  0.1502  0.2251  0.0113
 3629W        W 7373   3.879   0.089   9.684 -0.3679 -0.2103  0.2737
 3630W        W 7374   5.061   7.297   2.029 -0.0825  0.0646 -0.3060
 3631W        W 7375   4.703   3.310  11.204 -0.1613  0.0332 -0.5914
 3632W        W 7376   5.567   6.073   3.970 -0.2781  0.1715 -0.3147
 3633W        W 7377   5.122   8.247  10.949 -0.0651 -0.0995 -0.3412
 3634W        W 7378   1.412   2.482   3.723  0.1494 -0.0647  0.0765
 3635W        W 7379   2.098   2.883  11.693 -0.1108 -0.0868  0.1192
 3636W        W 7380   1.329   4.986  10.840  0.3451  0.0084 -0.0634
 3637W        W 7381   1.251   8.209   0.050  0.4002 -0.2131 -0.2173
 3638W        W 7382   0.255   5.346   3.879 -0.1157 -0.1671 -0.0383
 3639W        W 7383   7.563   8.157   2.369 -0.4147  0.1026  0.1739
 3640W        W 7384   1.111   0.065   2.434  0.0421  0.1120  0.3106
 3641W        W 7385   1.484   7.988   0.952 -0.2448 -0.2635  0.2106
 3642W        W 7386   2.862   5.308   4.292 -0.1154 -0.0202 -0.0868
 3643W        W 7387   7.345   9.162   3.291  0.2509 -0.1345  0.4675
 3644W        W 7388   5.807   6.082  11.477 -0.0986 -0.1604  0.1556
 3645W        W 7389   7.515   3.622   9.440  0.2299 -0.1223  0.2703
 3646W        W 7390   1.511   2.771   9.456 -0.2643 -0.0298  0.1166
 3647W        W 7391   9.744   3.470  11.739 -0.2074  0.0732 -0.0505
 3648W        W 7392   0.772   9.462   9.597  0.0609  0.2103 -0.0177
 3649W        W 7393   7.029   0.547   2.914 -0.1513 -0.0699 -0.0114
 3650W        W 7394   1.281   9.546   3.002  0.1468  0.0012  0.0064
 3651W        W 7395   9.425   6.159   0.477  0.0862  0.2495  0.2384
 3652W        W 7396   1.434   9.511   2.556  0.2570 -0.1538 -0.1063
 3653W        W 7397   6.489   6.938  10.696  0.0074 -0.0266  0.0499
 3654W        W 7398   5.247   8.967  10.090  0.0752  0.1804 -0.0986
 3655W        W 7399   5.071   6.629   9.247 -0.4090  0.1678 -0.1327
 3656W        W 7400   4.665   6.847   0.755 -0.1563 -0.3457  0.0687
 3657W        W 7401   1.643   8.647   4.479 -0.1965  0.2231 -0.1683
 3658W        W 7402   9.172   9.518   0.040  0.0667 -0.3017 -0.0348
 3659W        W 7403   0.260   3.393   8.631  0.1164 -0.3538 -0.2476
 3660W        W 7404   1.300   9.633   9.748  0.0904  0.0178 -0.0522
 3661W        W 7405   0.784   8.143   9.407  0.1797 -0.0538  0.0272
 3662W        W 7406   5.323   0.958   1.597  0.0685  0.0317  0.2576
 3663W        W 7407   3.804   6.985  10.766  0.0820 -0.2327 -0.2607
 3664W        W 7408   6.470   3.665   3.019  0.5875  0.0713 -0.0575
 3665W        W 7409   8.443   9.474   4.650 -0.1933  0.1715  0.2460
 3666W        W 7410   4.294   5.048  11.780 -0.0711  0.0250 -0.1959
 3667W        W 7411   0.152   8.333  11.846 -0.1218  0.1622 -0.1629
 3668W        W 7412   7.371   7.055   1.830 -0.1087 -0.1441 -0.0022
 3669W        W 7413   2.962   6.845  12.582 -0.4367 -0.0822  0.2123
 3670W        W 7414   0.573   2.977   5.053 -0.1574  0.0458 -0.1284
 3671W        W 7415   4.375   4.061  10.361 -0.0318 -0.3243  0.4361
 3672W        W 7416   5.290   2.955  10.294  0.0368 -0.1940  0.0792
 3673W        W 7417   0.449   7.276   9.273 -0.3965  0.0341  0.0522
 3674W        W 7418   1.091   7.683   0.914 -0.0059  0.0793 -0.2574
 3675W        W 7419   3.377   5.887   4.366 -0.4505 -0.2089  0.2177
 3676W        W 7420   4.038   1.175  11.278  0.1132 -0.1777  0.1800
 3677W        W 7421   7.850   5.666   8.999  0.1694  0.1965  0.0428
 3678W        W 7422   7.655   6.695   4.657  0.2371 -0.2488 -0.2737
 3679W        W 7423   3.140   2.630   4.010 -0.0963  0.0864 -0.0340
 3680W        W 7424   8.934   3.955  11.286  0.2288 -0.2435  0.2994
 3681W        W 7425   2.402   3.643  11.343  0.0683  0.0463 -0.2345
 3682W        W 7426   4.091   3.460   3.312  0.0007 -0.0840 -0.0012
 3683W        W 7427   6.408   6.105  10.821 -0.2266 -0.1620 -0.0960
 3684W        W 7428   1.820   4.346  11.752  0.2704  0.2612 -0.0067
 3685W        W 7429   4.592   0.319   1.615 -0.0279  0.0979 -0.2476
 3686W        W 7430   2.356   7.107   2.992  0.0219  0.0270 -0.3723
 3687W        W 7431   1.875   7.268  11.075  0.0151 -0.0002 -0.0343
 3688W        W 7432   8.739   9.423   8.986  0.0125 -0.0861  0.1750
 3689W        W 7433   7.264   7.698   9.309  0.0443 -0.2460  0.0307
 3690W        W 7434   1.063   7.091  12.155  0.3054  0.0083  0.1514
 3691W        W 7435   7.160   3.316   9.549 -0.0692  0.0744  0.2432
 3692W        W 7436   4.807   5.631   3.014  0.0982 -0.0430 -0.2518
 3693W        W 7437   4.693   8.001  10.773  0.1892 -0.0223 -0.2177
 3694W        W 7438   0.020   7.610   0.698  0.0214 -0.0032  0.0487
 3695W        W 7439   6.913   2.454  11.320  0.1019 -0.0462  0.0963
 3696W        W 7440   1.292   3.255  10.334  0.2120  0.3387 -0.2665
 3697W        W 7441   1.296   3.235   1.990  0.3483 -0.0386  0.0708
 3698W        W 7442   8.429   2.063   0.155 -0.3164  0.0059  0.2089
 3699W        W 7443   2.520   1.163   2.928  0.0490  0.1467 -0.1065
 3700W        W 7444   2.875   7.334   2.092 -0.0591 -0.2616  0.1420
 3701W        W 7445   9.481   9.770   8.957  0.2849  0.1990 -0.1292
 3702W        W 7446   2.500   5.643   2.149 -0.3166  0.3071  0.0361
 3703W        W 7447   3.668   3.511   9.813 -0.2922 -0.0243  0.3466
 3704W        W 7448   7.490   9.547   3.000  0.1732 -0.2104  0.0266
 3705W        W 7449   6.188   1.230   1.610 -0.3561  0.4318 -0.0471
 3706W        W 7450   4.606   6.386   1.621 -0.1012  0.0513 -0.3177
 3707W        W 7451   4.739   7.847   2.963  0.0042  0.1481  0.1789
 3708W        W 7452   6.660   7.906   1.513 -0.4315 -0.1796  0.0269
 3709W        W 7453   8.251   2.534   0.039 -0.1329 -0.0867  0.1394
 3710W        W 7454   1.774   2.837   4.002  0.0385 -0.1102  0.1559
 3711W        W 7455   7.987   5.274   3.606 -0.0388  0.0594 -0.0887
 3712W        W 7456   1.063   6.849   8.857  0.3135 -0.2400 -0.2079
 3713W        W 7457   8.044   9.085   9.995  0.0118 -0.1545 -0.1251
 3714W        W 7458   9.326   3.944   3.161  0.0328 -0.1399  0.0640
 3715W        W 7459   5.721   4.917   9.209 -0.3509 -0.1874 -0.0815
 3716W        W 7460   9.141   1.300  12.073 -0.2085 -0.3053 -0.1153
 3717W        W 7461   3.198   7.275  12.866 -0.2029 -0.0559 -0.1475
 3718W        W 7462   1.194   4.513  11.555  0.2420 -0.2287  0.3753
 3719W        W 7463   2.006   5.548  10.630 -0.0212 -0.1934  0.1303
 3720W        W 7464   7.554   0.408   2.079  0.0424 -0.0198  0.2728
 3721W        W 7465   8.315   5.668   3.712  0.0858 -0.1396  0.2654
 3722W        W 7466   5.508   3.489  10.999 -0.3324  0.0374 -0.0218
 3723W        W 7467   0.283   5.400  11.303 -0.0138  0.0672 -0.0146
 3724W        W 7468   2.116   0.338   3.291  0.0986  0.0375 -0.1051
 3725W        W 7469   0.558   0.898   3.599 -0.0908 -0.1837 -0.2216
 3726W        W 7470   7.255   9.726   1.161 -0.3478 -0.0161  0.0585
 3727W        W 7471   4.456   9.431  11.645 -0.2893  0.1650 -0.1367
 3728W        W 7472   1.909   2.578   2.098  0.0230 -0.1893  0.2108
 3729W        W 7473   1.434   2.044   3.937  0.1170  0.0439  0.0834
 3730W        W 7474   7.557   1.104   8.810 -0.0016  0.1129  0.1524
 3731W        W 7475   7.679   9.029  12.579  0.2623  0.1958  0.3803
 3732W        W 7476   1.413   9.503   3.500  0.2760  0.0924  0.2397
 3733W        W 7477   4.501   9.042  10.689  0.2431  0.3998  0.2612
 3734W        W 7478   2.412   1.102   1.598  0.4345  0.0720  0.1151
 3735W        W 7479   7.000   5.148  11.586  0.0950 -0.0302  0.0611
 3736W        W 7480   9.749   8.294   3.896 -0.0820 -0.0684  0.1058
 3737W        W 7481   8.973   4.887   3.318 -0.1288 -0.0490  0.0910
 3738W        W 7482   8.979   9.893   0.858  0.0626  0.0233  0.2668
 3739W        W 7483   5.836   9.875   9.325  0.0493 -0.1706  0.0745
 3740W        W 7484   6.080   7.496  12.101 -0.1475  0.2469 -0.2645
 3741W        W 7485   3.176   0.066  11.594 -0.2840  0.1016 -0.0183
 3742W        W 7486   9.205   1.392   1.900  0.0453  0.1029  0.0231
 3743W        W 7487   1.304   3.412  12.254  0.1360  0.1546 -0.0146
 3744W        W 7488   8.368   6.469   0.872 -0.3417  0.0790  0.0655
 3745W        W 7489   1.550   7.132   0.194  0.0058  0.1691  0.0280
 3746W        W 7490   7.661   9.342   0.929  0.1943 -0.1429 -0.0813
 3747W        W 7491   3.089   6.613  10.889  0.1180 -0.0617  0.0474
 3748W        W 7492   4.938   1.189  12.006  0.0246 -0.0955  0.0532
 3749W        W 7493   7.119   0.036   0.606  0.2512  0.2657 -0.3986
 3750W        W 7494   6.331   8.008   9.871 -0.0023 -0.0829 -0.0023
 3751W        W 7495   3.230   2.306   9.374 -0.2828 -0.2371 -0.0384
 3752W        W 7496   1.430   5.825   3.054  0.1007 -0.0079  0.2643
 3753W        W 7497   5.610   7.958  11.074  0.3614  0.1823  0.2078
 3754W        W 7498   0.306   9.771  11.027  0.2933  0.0999 -0.2212
 3755W        W 7499   0.740   5.414   4.067  0.2489  0.0241  0.0398
 3756W        W 7500   6.523   1.269  10.576  0.0156  0.1149  0.1762
 3757W        W 7501   8.518   8.382  11.278  0.0117  0.0479 -0.0392
 3758W        W 7502   8.733   6.610   0.480  0.1703  0.0761 -0.0155
 3759W        W 7503   0.612   6.054   3.445 -0.5103  0.0431  0.2432
 3760W        W 7504   7.595   7.033   1.381 -0.0125  0.1873  0.0231
 3761W        W 7505   6.450   6.858  10.118  0.3751  0.2719  0.1278
 3762W        W 7506   3.267   6.941   2.031 -0.3525 -0.2283  0.2089
 3763W        W 7507   3.041   6.869   9.847 -0.0186 -0.3694 -0.2637
 3764W        W 7508   2.084   8.338   1.825  0.2813  0.2247  0.1177
 3765W        W 7509   0.598   8.687  10.558 -0.1684 -0.1735  0.0688
 3766W        W 7510   9.597   3.556  10.297 -0.3395  0.3062 -0.1732
 3767W        W 7511   6.952   5.704   1.104  0.2290  0.0279  0.3696
 3768W        W 7512   5.133   3.310  12.565 -0.0734 -0.2133 -0.0848
 3769W        W 7513   4.114   6.640   1.530  0.0036  0.1483 -0.0232
 3770W        W 7514   6.705   7.792   3.204 -0.3360  0.1309 -0.0379
 3771W        W 7515   0.380   4.848   3.748  0.0532 -0.1023 -0.0488
 3772W        W 7516   1.885   6.117  10.385 -0.2729 -0.1673  0.0772
 3773W        W 7517   5.975   2.174   2.151 -0.0540 -0.0635 -0.0468
 3774W        W 7518   2.864   0.131  12.104  0.0258 -0.1577 -0.2439
 3775W        W 7519   4.884   8.963   0.805  0.1087  0.1968  0.0116
 3776W        W 7520   7.559   5.255   0.385  0.2978  0.1001 -0.2173
 3777W        W 7521   8.706   3.973  10.777 -0.1126  0.1003  0.2482
 3778W        W 7522   3.982   2.970   3.291  0.2601 -0.2843  0.1071
 3779W        W 7523   0.347   6.487   3.416 -0.2122  0.2824  0.1846
 3780W        W 7524   1.945   0.331   0.813  0.2607  0.1358 -0.0397
 3781W        W 7525   5.694   8.881   8.810  0.2865  0.1107  0.5232
 3782W        W 7526   7.533   0.191   3.809 -0.2824  0.4188  0.2035
 3783W        W 7527   9.399   0.690   9.187 -0.1952  0.0121  0.0692
 3784W        W 7528   6.356   0.195  10.073  0.2154  0.1055  0.2368
 3785W        W 7529   0.271   2.114   2.014 -0.1638  0.0253 -0.1942
 3786W        W 7530   4.204   7.415   3.709  0.2744  0.0490 -0.2699
 3787W        W 7531   3.877   2.814   1.972 -0.1393  0.2849 -0.0913
 3788W        W 7532   4.693   7.547   9.534 -0.1592  0.2380 -0.2562
 3789W        W 7533   8.656   9.749   9.557  0.1802 -0.0123  0.2008
 3790W        W 7534   5.840   0.112   0.728  0.1114  0.0861 -0.0969
 3791W        W 7535   4.172   1.450   3.654 -0.1139  0.0210 -0.2531
 3792W        W 7536   0.886   2.068   8.842 -0.1663 -0.1195  0.2465
 3793W        W 7537   9.522   8.394  11.646  0.0227 -0.0602 -0.0755
 3794W        W 7538   6.193   4.607   9.949  0.3312 -0.0891 -0.2465
 3795W        W 7539   0.387   4.343   3.550  0.1144 -0.1099 -0.0440
 3796W        W 7540   5.365   6.809  11.538 -0.0015  0.1431  0.0916
 3797W        W 7541   9.881   6.133   3.765 -0.2561 -0.4900  0.2373
 3798W        W 7542   6.230   4.897   3.335  0.0583 -0.0069 -0.3143
 3799W        W 7543   6.953   4.314  12.152  0.0352 -0.0295 -0.2609
 3800W        W 7544   1.412   2.525   4.654  0.2450 -0.2227 -0.3054
 3801W        W 7545   6.746   7.044   7.802  0.0794  0.1339  0.3679
 3802W        W 7546   1.616   8.571   2.515 -0.1741 -0.1340  0.2511
 3803W        W 7547   3.890   8.268  12.071 -0.2212  0.0004  0.2801
 3804W        W 7548   6.981   4.311   0.797  0.3203 -0.1821  0.0188
 3805W        W 7549   2.880   4.723   0.349 -0.0349  0.1863 -0.1614
 3806W        W 7550   1.925   4.488   4.691  0.1776  0.2113  0.1089
 3807W        W 7551   1.572   3.500   4.579 -0.0723 -0.1712 -0.1897
 3808W        W 7552   5.689   4.460  12.334  0.1683  0.1889 -0.0851
 3809W        W 7553   4.577   7.431  10.292 -0.0610 -0.0895  0.1815
 3810W        W 7554   9.319   5.897  10.370  0.1264  0.0504 -0.1236
 3811W        W 7555   5.502   8.340   8.788 -0.1464  0.1240 -0.2575
 3812W        W 7556   6.106   1.405  10.095  0.0766 -0.1315 -0.1715
 3813W        W 7557   5.323   2.084  12.757 -0.4942 -0.0175  0.2917
 3814W        W 7558   1.551   7.101   0.838  0.0810 -0.1698 -0.0423
 3815W        W 7559   5.743   3.848  12.469 -0.2342 -0.0915 -0.1912
 3816W        W 7560   8.565   3.397  10.121 -0.1263 -0.0104 -0.0373
 3817W        W 7561   0.643   2.072   9.714 -0.1070  0.3319 -0.1859
 3818W        W 7562   0.561   3.891   0.538  0.1319 -0.1646  0.2242
 3819W        W 7563   9.749   9.074   1.761 -0.3501 -0.1984 -0.1700
 3820W        W 7564   8.868   7.118  12.831  0.1503 -0.0322  0.2617
 3821W        W 7565   4.373   4.995  10.840  0.1851 -0.0864  0.0816
 3822W        W 7566   2.001   7.025  11.887  0.0383  0.1192 -0.2665
 3823W        W 7567   4.278   5.852   0.372 -0.0419  0.0398 -0.1020
 3824W        W 7568   7.895   6.437  10.603 -0.2440 -0.1541 -0.1550
 3825W        W 7569   8.728   7.787  10.521  0.1507  0.1716  0.4052
 3826W        W 7570   1.435   4.685   0.112 -0.0369  0.0590 -0.0780
 3827W        W 7571   5.905   8.228  10.336  0.1651  0.0928  0.0514
 3828W        W 7572   3.105   7.968   2.965 -0.0777 -0.2003 -0.0339
 3829W        W 7573   3.753   9.280   3.672 -0.1424  0.0311 -0.4083
 3830W        W 7574   9.690   3.174   1.881  0.0620  0.0381 -0.2821
 3831W        W 7575   9.437   8.890   4.318  0.2670 -0.0267 -0.2602
 3832W        W 7576   2.513   2.458   3.485  0.1251  0.1632  0.1551
 3833W        W 7577   5.648   6.716  12.548 -0.2126 -0.1284 -0.2684
 3834W        W 7578   3.638   9.532  12.328  0.0408  0.1048 -0.0850
 3835W        W 7579   5.558   8.806   3.498 -0.0784 -0.1354 -0.0918
 3836W        W 7580   6.352   6.535  12.096 -0.0349  0.0010 -0.2765
 3837W        W 7581   7.829   7.794   1.443 -0.2099 -0.1104 -0.1086
 3838W        W 7582   7.332   7.914   9.810  0.3755  0.2969  0.3008
 3839W        W 7583   9.322   5.396  12.718 -0.1300 -0.2835  0.1901
 3840W        W 7584   0.454   7.632   0.163 -0.4204 -0.1797 -0.1172
 3841W        W 7585   8.236   6.544   3.234 -0.2999 -0.2078  0.0723
 3842W        W 7586   9.857   2.260   1.641  0.1032 -0.1851  0.1458
 3843W        W 7587   7.036   8.826  10.119  0.4054 -0.0172 -0.1416
 3844W        W 7588   9.653   5.544   8.444  0.0697  0.0532 -0.1343
 3845W        W 7589   1.836   6.586   1.616  0.0722 -0.2915 -0.1773
 3846W        W 7590   0.492   0.677   4.568  0.0589  0.2658  0.0812
 3847W        W 7591   5.522   0.215  11.988 -0.0049 -0.1336  0.0561
 3848W        W 7592   1.071   1.584   2.296 -0.0530 -0.1612  0.2005
 3849W        W 7593   8.453   4.024   3.081  0.0709  0.2026  0.2151
 3850W        W 7594   3.882   7.060   3.569  0.0195 -0.0034  0.2265
 3851W        W 7595   9.159   5.885  12.633 -0.2210  0.0351  0.0655
 3852W        W 7596   5.241   4.218  10.692  0.0735  0.0696 -0.1093
 3853W        W 7597   9.401   7.261   8.423 -0.0406 -0.2152 -0.2085
 3854W        W 7598   1.576   1.742   9.434 -0.0334 -0.3528 -0.1721
 3855W        W 7599   7.532   2.679   9.982  0.2779 -0.1899 -0.0803
 3856W        W 7600   9.172   8.863  10.182  0.2980  0.1048  0.0726
 3857W        W 7601   2.726   6.878   1.205  0.0968  0.2052  0.1528
 3858W        W 7602   2.582   6.265   3.313 -0.1359  0.1173  0.1371
 3859W        W 7603   9.889   1.216   2.315 -0.0010 -0.0123  0.0055
 3860W        W 7604   7.164   0.305  10.394 -0.0341 -0.0665  0.1065
 3861W        W 7605   9.552   0.223   4.673  0.5236  0.1196  0.2185
 3862W        W 7606   4.806   9.029   1.338 -0.1217 -0.2295 -0.0329
 3863W        W 7607   3.205   0.524  10.717  0.1765 -0.0845  0.1379
 3864W        W 7608   5.143   5.136  10.613 -0.1286 -0.0360 -0.0975
 3865W        W 7609   9.715   4.790   1.545  0.0569  0.1231  0.2143
 3866W        W 7610   0.781   0.842   0.498 -0.1010 -0.1706  0.1533
 3867W        W 7611   3.378   1.951  12.819  0.0513 -0.0150 -0.1903
 3868W        W 7612   5.531   8.211   0.795 -0.3603 -0.2130  0.1507
 3869W        W 7613   2.229   7.862  12.490 -0.1475  0.2178  0.1222
 3870W        W 7614   2.391   0.326   9.749 -0.1142 -0.0304  0.1448
 3871W        W 7615   4.658   0.151   0.904  0.0351  0.1616  0.0312
 3872W        W 7616   8.936   3.194   8.417 -0.2005 -0.0366 -0.0172
 3873W        W 7617   0.327   9.114   3.919 -0.1353  0.0317 -0.0034
 3874W        W 7618   7.780   8.618   0.505 -0.0655  0.2834 -0.0766
 3875W        W 7619   4.206   7.173   0.266 -0.4284  0.1759  0.0421
 3876W        W 7620   2.466   6.741  12.823  0.0100  0.0312  0.0190
 3877W        W 7621   4.660   3.193   9.878 -0.0738  0.2546 -0.0278
 3878W        W 7622   9.369   7.835   1.800 -0.0471 -0.2940 -0.2538
 3879W        W 7623   2.240   7.009   9.630  0.0113 -0.1345 -0.1273
 3880W        W 7624   8.694   4.798   1.599 -0.0193  0.0428 -0.1233
 3881W        W 7625   5.752   6.933   9.382 -0.0138 -0.0897  0.1254
 3882W        W 7626   7.807   7.368   3.076 -0.3495 -0.0977 -0.0792
 3883W        W 7627   6.410   1.346   1.095  0.0251  0.0387  0.1732
 3884W        W 7628   5.980   9.501   0.941  0.0784  0.1994  0.0684
 3885W        W 7629   3.144   9.247   9.349  0.0482  0.4398  0.2726
 3886W        W 7630   2.716   2.398  12.203 -0.0168  0.2435  0.1127
 3887W        W 7631   3.372   8.892  12.937  0.2311  0.3077 -0.1984
 3888W        W 7632   6.356   1.763   9.758  0.3279 -0.0329  0.1594
 3889W        W 7633   1.488   4.260   4.235 -0.1597  0.0668 -0.2055
 3890W        W 7634   2.978   2.201  10.019  0.0970 -0.0346  0.0809
 3891W        W 7635   3.416   8.217   4.326 -0.1039 -0.0638 -0.0529
 3892W        W 7636   8.615   7.247   2.663 -0.0702  0.0931  0.1064
 3893W        W 7637   1.627   3.328   1.050  0.1526 -0.2127 -0.0026
 3894W        W 7638   8.156   8.373  10.044  0.2010  0.3492  0.1470
 3895W        W 7639   4.403   9.693   1.803 -0.2034 -0.0024  0.2169
 3896W        W 7640   0.421   6.083  10.363  0.0825 -0.3015  0.0369
 3897W        W 7641   1.316   7.047  12.646 -0.0626  0.1250 -0.0935
 3898W        W 7642   0.778   2.008   4.168  0.2520 -0.3263 -0.0078
 3899W        W 7643   7.236   3.988   0.100 -0.1007 -0.0278  0.1897
 3900W        W 7644   0.646   0.349  12.335  0.1262  0.1458  0.2695
 3901W        W 7645   1.684   1.257   9.511  0.2005 -0.1276 -0.1282
 3902W        W 7646   3.006   7.231   3.459 -0.0228 -0.0269  0.1173
 3903W        W 7647   1.090   3.261   4.692  0.1632  0.3337 -0.0929
 3904W        W 7648   6.543   9.326  12.134 -0.2629 -0.1122  0.0671
 3905W        W 7649   6.488   5.852  10.330 -0.0234  0.0162  0.0769
 3906W        W 7650   4.323   4.613  12.549  0.1263 -0.0770  0.0660
 3907W        W 7651   6.801   7.918   2.338  0.1973  0.1153 -0.0357
 3908W        W 7652   2.820   3.931   0.161 -0.0375  0.0395 -0.1148
 3909W        W 7653   6.238   8.741   0.507  0.0836  0.3646 -0.0109
 3910W        W 7654   4.538   4.346  11.205  0.2071 -0.1237  0.5314
 3911W        W 7655   5.820   3.518   3.555  0.0168 -0.2121  0.1456
 3912W        W 7656   7.031   2.897  12.138  0.2039  0.0034  0.1543
 3913W        W 7657   8.334   7.122   9.825  0.1316 -0.0018 -0.0016
 3914W        W 7658   7.861   6.144   1.124 -0.1202 -0.0312  0.0052
 3915W        W 7659   9.621   5.029   1.967 -0.4759 -0.1380  0.1331
 3916W        W 7660   7.427   5.516  11.784 -0.0006  0.1272 -0.0002
 3917W        W 7661   1.915   8.802   0.358 -0.1859 -0.0108  0.3455
 3918W        W 7662   0.300   6.726  12.563 -0.0470 -0.1044 -0.0984
 3919W        W 7663   2.950   0.934  12.895 -0.2433 -0.0530  0.1369
 3920W        W 7664   8.359   2.557  12.488 -0.1245 -0.0928  0.1813
 3921W        W 7665   1.546   7.920   4.312  0.0209 -0.1019 -0.2562
 3922W        W 7666   2.216   9.760  11.568  0.5679  0.0289  0.0845
 3923W        W 7667   0.290   6.408   9.095  0.1683 -0.1812 -0.0479
 3924W        W 7668   5.083   6.339   2.628 -0.0421  0.0632  0.2251
 3925W        W 7669   1.416   1.468  12.325 -0.1170 -0.0631  0.2112
 3926W        W 7670   7.744   4.459   2.051  0.2308 -0.0679  0.2064
 3927W        W 7671   7.640   3.710   0.400 -0.0505  0.1410 -0.0445
 3928W        W 7672   2.705   5.321   4.745  0.1193  0.1902 -0.1442
 3929W        W 7673   8.597   1.455  10.485 -0.0400 -0.2885 -0.2845
 3930W        W 7674   1.807   6.871  11.468  0.1556  0.1301  0.3601
 3931W        W 7675   8.906   7.973   1.819 -0.3188 -0.0049  0.0124
 3932W        W 7676   2.707   9.771  11.605 -0.2712  0.3393 -0.0332
 3933W        W 7677   7.686   4.411   0.105  0.0764  0.0215 -0.0693
 3934W        W 7678   0.345   3.703   1.801  0.0166 -0.1311  0.1325
 3935W        W 7679   1.134   8.685  10.048 -0.0525  0.0078 -0.0405
 3936W        W 7680   6.455   6.230   3.330  0.4711  0.0722  0.1106
 3937W        W 7681   6.326   0.380   0.734 -0.1228  0.0018 -0.4662
 3938W        W 7682   7.725   5.728   1.403  0.2889  0.1602  0.0331
 3939W        W 7683   2.459   3.662  11.942 -0.0080  0.0777 -0.3289
 3940W        W 7684   0.911   9.115   4.289  0.0362 -0.1384  0.3342
 3941W        W 7685   3.993   5.265   1.926  0.3277  0.0350 -0.4228
 3942W        W 7686   9.020   4.230   9.894 -0.5041  0.0373  0.3430
 3943W        W 7687   7.688   9.293   3.634  0.3295 -0.0438 -0.2834
 3944W        W 7688   5.457   7.743  11.590 -0.3977  0.0187  0.0681
 3945W        W 7689   1.953   5.646   4.870 -0.0331  0.0231 -0.0600
 3946W        W 7690   5.234   1.685   9.613  0.1667 -0.0306 -0.0228
 3947W        W 7691   9.777   8.386  11.166 -0.1111 -0.2320  0.0540
 3948W        W 7692   2.184   5.927   3.042  0.0979  0.0283 -0.2030
 3949W        W 7693   1.664   3.754   2.510 -0.1129  0.0135 -0.0901
 3950W        W 7694   6.437   4.446  10.987 -0.1104 -0.2454  0.2667
 3951W        W 7695   0.517   0.003   3.982 -0.1532  0.3296  0.0621
 3952W        W 7696   8.939   6.982   8.613 -0.0018 -0.1734 -0.3959
 3953W        W 7697   3.917   8.689  11.859  0.3636  0.1720  0.1106
 3954W        W 7698   8.315   5.638  12.708 -0.0945 -0.0901 -0.1303
 3955W        W 7699   6.648   0.101   0.437 -0.3782 -0.0882 -0.2974
 3956W        W 7700   9.180   5.689   1.812 -0.1840  0.0044 -0.1726
 3957W        W 7701   2.667   1.663  11.800  0.1252 -0.1258 -0.2429
 3958W        W 7702   0.108   4.347   1.407  0.1724 -0.1070  0.0892
 3959W        W 7703   5.776   4.705  10.229 -0.0749 -0.1352  0.1009
 3960W        W 7704   0.377   0.501   1.823  0.0040 -0.1035  0.0776
 3961W        W 7705   4.316   5.533  11.758  0.2999  0.4258  0.0704
 3962W        W 7706   3.267   6.573   2.645 -0.1981  0.0966 -0.0563
 3963W        W 7707   5.080   6.806   1.884  0.0560  0.3428 -0.0226
 3964W        W 7708   9.496   3.975   0.314 -0.2806 -0.0351  0.2388
 3965W        W 7709   7.331   2.736  12.599 -0.0821 -0.1405  0.0469
 3966W        W 7710   8.563   3.884   1.859 -0.0162  0.2276  0.2380
 3967W        W 7711   6.142   0.947   1.206  0.1299  0.1396  0.0044
 3968W        W 7712   7.942   9.368   4.506 -0.1575  0.2168  0.1286
 3969W        W 7713   6.554   1.476  11.116 -0.2618 -0.1903  0.1207
 3970W        W 7714   9.282   6.539   1.775 -0.1238 -0.3319  0.0238
 3971W        W 7715   6.974   1.473  10.510  0.0918  0.0320  0.1895
 3972W        W 7716   8.279   3.691   8.686 -0.2532  0.0369  0.1317
 3973W        W 7717   3.514   2.134   3.574  0.0073  0.2863  0.0137
 3974W        W 7718   6.257   9.295  10.052 -0.1467 -0.0395 -0.0641
 3975W        W 7719   3.338   6.271   2.265  0.0118  0.2241 -0.0476
 3976W        W 7720   6.083   2.074  12.540 -0.2208  0.3559 -0.3918
 3977W        W 7721   7.183   7.901   2.646 -0.0285 -0.0321 -0.1416
 3978W        W 7722   7.873   5.328  11.375  0.2402  0.2503 -0.1648
 3979W        W 7723   0.131   6.076   1.245  0.2725 -0.1244 -0.0688
 3980W        W 7724   9.735   3.845   7.993 -0.4270 -0.3298 -0.1998
 3981W        W 7725   3.738   4.494   2.409  0.0010  0.0499 -0.2161
 3982W        W 7726   9.152   7.653  12.097  0.0990 -0.1831  0.2928
 3983W        W 7727   8.912   2.186   0.028  0.1088  0.1919  0.1857
 3984W        W 7728   1.175   2.889  12.924 -0.0333  0.0112 -0.2885
 3985W        W 7729   7.501   5.740   8.165 -0.0320 -0.0925  0.0829
 3986W        W 7730   8.355   7.906  11.372 -0.0597  0.0179  0.0192
 3987W        W 7731   4.752   5.828  11.709 -0.1010 -0.0839  0.0390
 3988W        W 7732   0.638   5.839  12.649 -0.0885 -0.1306  0.1265
 3989W        W 7733   9.264   0.512   1.788 -0.2675  0.1120 -0.2589
 3990W        W 7734   0.038   9.425   3.519  0.2770  0.0674  0.1032
 3991W        W 7735   0.118   6.938  11.389  0.1896 -0.0328  0.3618
 3992W        W 7736   4.962   2.793   9.979  0.2862 -0.1001 -0.1126
 3993W        W 7737   3.482   4.512  12.620  0.0476 -0.0909 -0.0576
 3994W        W 7738   0.011   3.663   9.868 -0.2426 -0.1668 -0.1161
 3995W        W 7739   0.854   9.476   0.656  0.1659 -0.1088 -0.3826
 3996W        W 7740   0.668   6.218  11.168 -0.0024 -0.1272  0.0649
 3997W        W 7741   8.798   0.643   3.387  0.0783  0.1013 -0.1630
 3998W        W 7742   0.890   4.765   2.936  0.1450  0.1657  0.0431
 3999W        W 7743   6.785   9.110   2.821  0.0305  0.2790  0.1220
 4000W        W 7744   0.131   1.597   9.367 -0.1810 -0.1447 -0.0629
 4001W        W 7745   2.322   0.872   1.221  0.2046  0.1939  0.3840
 4002W        W 7746   9.077   7.135   2.892 -0.0711 -0.0677  0.2751
 4003W        W 7747   0.321   2.421   1.098 -0.1209  0.1025 -0.0407
 4004W        W 7748   7.898   5.633  12.083  0.0378  0.2559  0.1581
 4005W        W 7749   4.834   8.581   1.090  0.4613 -0.1298  0.1714
 4006W        W 7750   4.400   4.156   3.073  0.0104  0.0513 -0.3001
 4007W        W 7751   5.112   0.923  10.146 -0.0188 -0.2098 -0.3389
 4008W        W 7752   8.029   9.569   1.142  0.2594  0.2397  0.1574
 4009W        W 7753   1.639   8.407   1.524 -0.2152 -0.4088  0.1674
 4010W        W 7754   0.269   5.479  11.919  0.0112 -0.0998  0.0724
 4011W        W 7755   3.312   2.677  12.254  0.0594  0.2515  0.0960
 4012W        W 7756   8.888   0.813   9.045 -0.3905  0.0516  0.2648
 4013W        W 7757   5.797   4.057   0.587  0.0580 -0.0439  0.2544
 4014W        W 7758   8.999   2.093   0.518 -0.1054 -0.0900  0.1686
 4015W        W 7759   6.780   6.649   1.170  0.0671 -0.0187 -0.0234
 4016W        W 7760   8.436   9.192   1.319 -0.0774 -0.1464  0.0338
 4017W        W 7761   1.693   9.374   1.160 -0.0052 -0.0886 -0.0006
 4018W        W 7762   6.618   9.641  10.060  0.0262 -0.1255  0.1666
 4019W        W 7763   2.302   9.354   2.925 -0.0440  0.1042  0.1862
 4020W        W 7764   2.967   2.289   0.166 -0.0562  0.3763 -0.1538
 4021W        W 7765   6.656   1.428   9.972 -0.1253  0.0459 -0.1011
 4022W        W 7766   9.429   1.384  10.191 -0.0553 -0.1837  0.0861
 4023W        W 7767   1.816   4.979   4.999  0.1025  0.0163  0.2918
 4024W        W 7768   2.695   4.147  11.982 -0.2093  0.0491  0.0327
 4025W        W 7769   9.255   2.455  11.899  0.1574 -0.2324  0.0291
 4026W        W 7770   1.795   5.261  11.337  0.0540  0.4258 -0.0612
 4027W        W 7771   8.827   1.341   2.306 -0.0337 -0.2475  0.2029
 4028W        W 7772   6.112   7.062   3.402 -0.1545 -0.1431  0.0155
 4029W        W 7773   4.619   0.133  12.797 -0.1963  0.3460 -0.1218
 4030W        W 7774   4.268   0.059   1.337 -0.1889 -0.2285 -0.0752
 4031W        W 7775   4.975   2.518   0.007 -0.3414 -0.3154 -0.2162
 4032W        W 7776   3.261   1.708   3.855 -0.2091 -0.0278  0.4182
 4033W        W 7777   1.695   7.822  10.412 -0.1943  0.1159  0.1935
 4034W        W 7778   4.807   4.735  10.848 -0.2423 -0.2470  0.0528
 4035W        W 7779   5.141   7.461   3.017  0.0346 -0.2314 -0.3078
 4036W        W 7780   7.710   1.929   3.285  0.0237 -0.1863  0.1622
 4037W        W 7781   8.299   9.873   4.350 -0.0375 -0.0591 -0.0009
 4038W        W 7782   8.255   4.679  11.053 -0.2552  0.2990 -0.2592
 4039W        W 7783   0.614   7.128   3.362 -0.3015  0.0323 -0.2287
 4040W        W 7784   4.998   8.963   4.283  0.1722 -0.0894 -0.3264
 4041W        W 7785   3.513   8.794   1.140  0.0937 -0.1705 -0.2820
 4042W        W 7786   0.021   3.991   3.423  0.3150  0.0506 -0.2172
 4043W        W 7787   8.336   8.210  12.713  0.1275  0.2765 -0.1921
 4044W        W 7788   0.577   8.949  11.053  0.1781 -0.0199 -0.1135
 4045W        W 7789   0.789   7.223   2.567 -0.0674 -0.1478 -0.2547
 4046W        W 7790   3.926   2.523   1.585 -0.1404 -0.1390 -0.0608
 4047W        W 7791   6.502   0.382   3.327 -0.0084  0.0949 -0.1220
 4048W        W 7792   8.190   0.127  10.996 -0.1225 -0.3443 -0.2651
 4049W        W 7793   2.607   0.132   1.863  0.0040 -0.0111 -0.1423
 4050W        W 7794   4.419   0.528   0.114  0.2121 -0.1082 -0.0872
 4051W        W 7795   3.608   2.800  10.750 -0.0101 -0.1943  0.0983
 4052W        W 7796   7.295   0.471  11.752  0.0831 -0.2540  0.1357
 4053W        W 7797   1.830   7.689   9.667  0.0034  0.1025  0.0560
 4054W        W 7798   5.754   5.834   2.975 -0.0247  0.2365  0.0731
 4055W        W 7799   3.966   5.927   0.849  0.0763 -0.1908  0.0012
 4056W        W 7800   6.097   2.526   1.698  0.2352 -0.1768 -0.2727
 4057W        W 7801   2.352   1.961  12.614  0.0226 -0.0792 -0.2181
 4058W        W 7802   9.259   0.538   4.185  0.1225  0.1136  0.1357
 4059W        W 7803   7.796   7.236   9.208 -0.0191 -0.1266 -0.0307
 4060W        W 7804   2.499   6.980  11.814  0.1638 -0.1813  0.1319
 4061W        W 7805   9.557   6.473   3.577  0.0131 -0.0769 -0.1186
 4062W        W 7806   4.462   9.675   4.225 -0.2398  0.1571  0.1964
 4063W        W 7807   0.782   4.004  11.374  0.1914 -0.3318 -0.0632
 4064W        W 7808   9.356   0.401   2.754 -0.1080  0.1480 -0.0052
 4065W        W 7809   4.322   9.018   2.623 -0.0928  0.0378 -0.1173
 4066W        W 7810   0.846   5.585   1.903  0.0922 -0.0074 -0.1236
 4067W        W 7811   2.351   3.016  10.758 -0.0218  0.1063 -0.1746
 4068W        W 7812   1.858   8.243   4.660  0.1765 -0.0007 -0.1699
 4069W        W 7813   7.825   6.703   3.009  0.0237 -0.1013 -0.0307
 4070W        W 7814   3.447   3.127  12.625 -0.1006 -0.0175 -0.1009
 4071W        W 7815   8.354   1.389   3.730  0.1668  0.0469  0.2593
 4072W        W 7816   8.194   6.094   2.992 -0.1173 -0.0724 -0.1878
 4073W        W 7817   2.994   2.956  11.592  0.3971  0.0577  0.1041
 4074W        W 7818   4.946   6.214   9.023  0.2600  0.1883 -0.2134
 4075W        W 7819   7.242   3.406   1.801 -0.1745 -0.0028  0.2323
 4076W        W 7820   6.379   9.649   0.088 -0.0038 -0.0335 -0.0860
 4077W        W 7821   7.542   5.468   4.640  0.0161 -0.4193  0.1189
 4078W        W 7822   5.484   0.698   1.988 -0.1186  0.1800  0.0341
 4079W        W 7823   8.753   0.638  11.620  0.1400 -0.0780  0.1835
 4080W        W 7824   6.758   1.515  11.599 -0.2230 -0.0731  0.1339
 4081W        W 7825   4.623   1.983   3.135  0.2884  0.1340 -0.0645
 4082W        W 7826   2.172   7.665   3.679 -0.0168 -0.2378 -0.1819
 4083W        W 7827   8.771   6.335   1.105  0.0314  0.0782  0.1253
 4084W        W 7828   7.314   7.236   0.327  0.0574  0.1493  0.0216
 4085W        W 7829   4.735   7.906   2.445 -0.1577  0.1182 -0.3349
 4086W        W 7830   3.662   2.406   2.571  0.1069 -0.1454  0.1827
 4087W        W 7831   0.536   5.796  11.639 -0.1341  0.1452 -0.0798
 4088W        W 7832   1.094   6.684   9.355  0.2036 -0.2455 -0.0016
 4089W        W 7833   9.344   0.984   0.901  0.1909  0.1909 -0.0040
 4090W        W 7834   5.796   7.907  12.024 -0.0450  0.1756 -0.0023
 4091W        W 7835   5.947   7.041   9.875 -0.0709 -0.1723 -0.2566
 4092W        W 7836   7.182   0.207  12.661  0.0931 -0.1919  0.3038
 4093W        W 7837   8.251   4.880  12.560 -0.0593 -0.1239 -0.2097
 4094W        W 7838   7.119   6.488  10.623  0.0077  0.0010  0.2149
 4095W        W 7839   7.414   9.445  12.816  0.2465  0.0971  0.0338
 4096W        W 7840   6.399   5.719   3.871 -0.3331 -0.1381 -0.0683
 4097W        W 7841   4.849   5.842  10.599  0.1135  0.0540 -0.0289
 4098W        W 7842   6.687   7.066  12.689  0.0035  0.0629  0.2161
 4099W        W 7843   1.471   0.382   4.036 -0.1534  0.0455 -0.0647
 4100W        W 7844   4.371   6.014   3.879 -0.2243 -0.4365 -0.2067
 4101W        W 7845   0.337   2.768  11.801 -0.3200 -0.2052 -0.2744
 4102W        W 7846   9.280   5.600  12.225 -0.0273  0.0326  0.1195
 4103W        W 7847   9.225   4.314   0.536  0.3392 -0.1721  0.0152
 4104W        W 7848   5.669   9.489   8.968 -0.0629 -0.2748 -0.4134
 4105W        W 7849   4.323   3.784  11.385  0.0486 -0.0415  0.0995
 4106W        W 7850   7.255   5.745  10.434  0.1325  0.1119 -0.2336
 4107W        W 7851   3.736   2.101   2.140  0.1385  0.3528 -0.0792
 4108W        W 7852   9.512   3.175  12.248 -0.0198  0.1094  0.1320
 4109W        W 7853   0.961   1.058  10.199  0.1509  0.0430 -0.2125
 4110W        W 7854   5.251   6.946  12.267 -0.0716 -0.1716 -0.1900
 4111W        W 7855   2.842   8.784   3.899 -0.0116  0.1019 -0.1380
 4112W        W 7856   1.782   5.482   9.585  0.0774 -0.1910 -0.1750
 4113W        W 7857   5.630   3.700  11.428 -0.0360  0.1207 -0.0977
 4114W        W 7858   0.167   2.149   3.976  0.1925 -0.2113  0.0742
 4115W        W 7859   2.127   6.117   4.732  0.0286  0.0059  0.0582
 4116W        W 7860   2.525   2.226  10.238  0.1383  0.0642  0.3902
 4117W        W 7861   5.412   5.013   9.543 -0.2254  0.1421 -0.0478
 4118W        W 7862   1.444   2.222  11.738  0.0417 -0.0441 -0.0934
 4119W        W 7863   3.628   2.957   2.646 -0.2256  0.0461 -0.2263
 4120W        W 7864   6.125   9.597  11.677  0.0292  0.0608 -0.0238
 4121W        W 7865   6.486   4.406   0.793  0.2250 -0.1885  0.1532
 4122W        W 7866   4.440   0.207   3.886  0.1849 -0.0591 -0.0470
 4123W        W 7867   9.894   4.400  12.310 -0.0380  0.0582  0.1528
 4124W        W 7868   9.290   8.160   1.389  0.2012 -0.2428 -0.0789
 4125W        W 7869   2.819   4.329   2.215 -0.3432 -0.2997  0.1040
 4126W        W 7870   2.789   6.590   0.707 -0.0596  0.1156  0.1755
 4127W        W 7871   7.578   9.360  11.563  0.2728  0.1610  0.2035
 4128W        W 7872   2.719   1.940   2.373 -0.2304 -0.0114 -0.0043
 4129W        W 7873   9.642   4.232   8.716  0.1530  0.2421  0.0393
 4130W        W 7874   9.291   1.830   0.047 -0.3740  0.0519 -0.0696
 4131W        W 7875   4.440   0.621  12.544  0.2495  0.0044  0.0492
 4132W        W 7876   2.286   8.456   9.389 -0.1355  0.0472 -0.0105
 4133W        W 7877   0.243   3.974   0.947 -0.3769 -0.2828 -0.0893
 4134W        W 7878   0.566   9.512  10.070 -0.1166 -0.3128  0.0745
 4135W        W 7879   0.632   1.250   0.867 -0.1171 -0.1060  0.3928
 4136W        W 7880   6.733   7.376   3.511  0.2961  0.1032  0.0400
 4137W        W 7881   2.859   1.871   0.409 -0.0290  0.2627  0.0943
 4138W        W 7882   5.120   8.226   1.091 -0.1248  0.0470  0.2130
 4139W        W 7883   0.561   0.423   2.741 -0.0323  0.2775 -0.1497
 4140W        W 7884   7.071   5.931  11.965  0.0726 -0.3526  0.0601
 4141W        W 7885   6.020   9.706  10.259  0.3167  0.0296 -0.0421
 4142W        W 7886   8.968   7.061   1.304 -0.0741  0.2319  0.0589
 4143W        W 7887   0.978   8.610  10.848 -0.0296  0.0652  0.2182
 4144W        W 7888   2.774   3.105  10.499 -0.0998 -0.1557 -0.1040
 4145W        W 7889   0.694   5.286  11.522  0.3631 -0.0902 -0.2960
 4146W        W 7890   5.553   6.529   9.183  0.2301  0.1016 -0.1638
 4147W        W 7891   8.915   4.214  12.375  0.2961  0.0004  0.0136
 4148W        W 7892   8.071   2.948  11.797  0.1778  0.1599 -0.1202
 4149W        W 7893   0.505   2.986   2.491 -0.0413  0.0102  0.0039
 4150W        W 7894   1.833   0.422   2.026 -0.3592  0.0793 -0.1241
 4151W        W 7895   5.700   6.594   9.783 -0.1025  0.0706 -0.0786
 4152W        W 7896   0.909   2.838  11.110 -0.1316  0.0337  0.1183
 4153W        W 7897   0.278   5.207   9.955 -0.0960 -0.0828  0.0624
 4154W        W 7898   2.983   3.821   2.033  0.0950 -0.0345  0.0814
 4155W        W 7899   0.928   8.031  11.229 -0.2150  0.2494  0.0667
 4156W        W 7900   5.878   0.553   3.440 -0.2437  0.0097 -0.1482
 4157W        W 7901   6.373   3.646  12.298 -0.3740 -0.0739 -0.0980
 4158W        W 7902   1.417   6.468  10.567  0.1121  0.2121 -0.1074
 4159W        W 7903   4.336   3.985   9.501  0.0393 -0.0516 -0.1056
 4160W        W 7904   1.065   3.236  10.800  0.0125 -0.1021 -0.2037
 4161W        W 7905   2.122   4.676  10.519  0.2822  0.0419  0.1284
 4162W        W 7906   4.507   2.898  11.772  0.3923 -0.3012 -0.1603
 4163W        W 7907   5.683   6.222   3.345  0.4421 -0.2669  0.0424
 4164W        W 7908   6.509   4.833  10.255  0.0077  0.3461  0.2603
 4165W        W 7909   2.596   4.316   1.123 -0.0396 -0.2167 -0.1606
 4166W        W 7910   7.568   4.578   3.790 -0.1126  0.1412  0.2643
 4167W        W 7911   7.359   5.773   1.995  0.1818 -0.1273 -0.0038
 4168W        W 7912   8.164   7.472   2.649  0.0150  0.2555 -0.1157
 4169W        W 7913   2.921   5.198  10.272 -0.1149 -0.2157  0.2133
 4170W        W 7914   9.719   3.180   0.530 -0.1847 -0.0358  0.2333
 4171W        W 7915   4.796   5.603   1.028  0.2220  0.2139 -0.2033
 4172W        W 7916   8.765   7.792  11.120  0.0179  0.2463 -0.0903
 4173W        W 7917   0.356   5.499   2.346 -0.1376  0.0345 -0.0446
 4174W        W 7918   9.140   3.802   2.641  0.0220 -0.0557 -0.1983
 4175W        W 7919   9.094   8.892   2.609  0.1431  0.2641  0.2659
 4176W        W 7920   1.542   7.078   3.677  0.2976  0.1460  0.1332
 4177W        W 7921   4.055   7.476   1.091  0.1459  0.0038  0.2362
 4178W        W 7922   4.028   5.705  11.369  0.2283 -0.2473 -0.0112
 4179W        W 7923   6.318   3.718   2.130 -0.4490 -0.2172 -0.0359
 4180W        W 7924   2.237   4.955   8.652  0.2116  0.2026  0.0070
 4181W        W 7925   6.577   2.571   9.133 -0.0484  0.0402  0.1157
 4182W        W 7926   3.778   8.843   1.565 -0.2769 -0.0502  0.1228
 4183W        W 7927   8.811   2.323  11.094  0.1347 -0.0244  0.1177
 4184W        W 7928   6.620   0.580   0.157 -0.0418 -0.0169 -0.1801
 4185W        W 7929   5.271   8.845  12.524  0.3175  0.0405  0.3528
 4186W        W 7930   4.050   0.086   4.191  0.0915  0.0499  0.0169
 4187W        W 7931   7.598   1.864  12.731  0.0551  0.1910 -0.1045
 4188W        W 7932   7.673   1.672  10.176  0.0220  0.0762 -0.1600
 4189W        W 7933   5.777   2.843  10.107 -0.0943  0.0957 -0.2461
 4190W        W 7934   9.224   7.592   4.333  0.0149  0.1891 -0.0355
 4191W        W 7935   2.846   7.006   3.891  0.0795 -0.1736  0.0830
 4192W        W 7936   0.722   7.648   3.457  0.1628  0.4393 -0.1052
 4193W        W 7937   7.422   5.439   3.706 -0.0724 -0.3196 -0.1825
 4194W        W 7938   8.969   1.194   1.134  0.1391 -0.0449 -0.0045
 4195W        W 7939   9.479   5.730   2.715 -0.0999  0.1372  0.0765
 4196W        W 7940   2.224   2.657   2.638  0.3745 -0.2482 -0.0484
 4197W        W 7941   1.008   4.806  11.177 -0.0316 -0.1176 -0.2634
 4198W        W 7942   4.915   6.601  10.947 -0.0504 -0.0129  0.0691
 4199W        W 7943   9.069   3.100   2.699  0.0553  0.2170 -0.2287
 4200W        W 7944   0.542   2.477   4.260  0.0911  0.0502  0.0955
 4201W        W 7945   3.842   1.860   0.348 -0.0534 -0.2238  0.0756
 4202W        W 7946   9.100   9.587   3.010 -0.1426  0.3809  0.1005
 4203W        W 7947   8.532   1.278   2.710 -0.0976 -0.0755  0.1925
 4204W        W 7948   8.321   9.373   9.343 -0.0652  0.0385 -0.1689
 4205W        W 7949   7.249   5.550   2.438  0.1822 -0.0446 -0.0866
 4206W        W 7950   9.199   8.918   1.710 -0.3549  0.1350 -0.0832
 4207W        W 7951   1.786   0.085   4.420  0.0063  0.0369  0.0880
 4208W        W 7952   3.598   4.481   1.237 -0.1324 -0.0542 -0.1718
 4209W        W 7953   4.245   5.105   2.298  0.3532 -0.1059  0.1563
 4210W        W 7954   1.196   2.471  12.597  0.1238 -0.1743 -0.1542
 4211W        W 7955   3.855   9.772   1.516  0.2158 -0.2291  0.2515
 4212W        W 7956   9.261   1.710   2.299  0.0885 -0.0748  0.1955
 4213W        W 7957   3.784   3.806  10.251 -0.1499  0.2054  0.3414
 4214W        W 7958   9.113   7.008   2.335 -0.0204 -0.0623 -0.0956
 4215W        W 7959   2.031   2.217   0.603 -0.3080 -0.0791 -0.3610
 4216W        W 7960   4.228   3.450  11.040  0.1811  0.0779  0.0989
 4217W        W 7961   1.995   2.203  10.296 -0.1274 -0.2735  0.1655
 4218W        W 7962   7.652   7.986   2.823  0.2472 -0.1605  0.3287
 4219W        W 7963   9.163   0.465   0.570  0.0188 -0.0094  0.1026
 4220W        W 7964   7.709   1.195  10.128  0.0344 -0.1875 -0.2099
 4221W        W 7965   8.133   8.555   4.489  0.0210 -0.0920  0.0629
 4222W        W 7966   6.387   3.532   9.930  0.1514  0.0943 -0.1257
 4223W        W 7967   8.005   8.343   2.144  0.3398  0.1897  0.0685
 4224W        W 7968   1.223   0.827   2.807 -0.0170 -0.1344 -0.2253
 4225W        W 7969   6.710   5.782   1.562 -0.3460  0.1845  0.1894
 4226W        W 7970   1.184   9.324   1.537  0.0472 -0.0054  0.0355
 4227W        W 7971   2.646   0.641   8.530  0.0053 -0.0745  0.1238
 4228W        W 7972   0.435   7.693  12.559 -0.1888  0.3408  0.1172
 4229W        W 7973   4.692   9.225   9.280 -0.0447  0.0687 -0.0547
 4230W        W 7974   1.115   5.594  10.865 -0.2501  0.1605  0.1931
 4231W        W 7975   2.817   8.031   0.606  0.0964 -0.1048 -0.4984
 4232W        W 7976   8.579   6.884  12.430 -0.1890  0.1176 -0.2003
 4233W        W 7977   2.602   4.824   2.483  0.0984 -0.0119 -0.2537
 4234W        W 7978   3.052   1.437   3.117 -0.3694  0.1995  0.0780
 4235W        W 7979   2.675   6.088   2.016 -0.1803  0.0702 -0.1795
 4236W        W 7980   5.129   6.663   8.081 -0.0530 -0.0362  0.1677
 4237W        W 7981   0.192   0.659   0.465  0.4494  0.0611  0.0410
 4238W        W 7982   0.947   5.481  12.904  0.0205  0.0038 -0.0889
 4239W        W 7983   4.597   7.986   3.949  0.1859 -0.3173 -0.0352
 4240W        W 7984   4.053   1.535  12.509  0.4346  0.0202 -0.4263
 4241W        W 7985   8.010   2.881   8.285  0.1174 -0.1237  0.0944
 4242W        W 7986   0.631   5.915  10.787 -0.2520  0.2229 -0.3429
 4243W        W 7987   4.806   9.382   0.987  0.2035  0.0126  0.0735
 4244W        W 7988   2.219   0.629  11.062  0.0063 -0.4422 -0.0110
 4245W        W 7989   5.210   7.971   3.074  0.1878  0.0811 -0.1958
 4246W        W 7990   0.215   2.893   0.885  0.1247  0.0526 -0.1028
 4247W        W 7991   1.873   4.186   2.286  0.0890  0.0243 -0.1882
 4248W        W 7992   8.235   2.513  11.793 -0.2046  0.0948 -0.1523
 4249W        W 7993   6.847   7.955   4.687 -0.4962  0.1061 -0.1040
 4250W        W 7994   0.509   7.409  10.893  0.2763  0.2189  0.0398
 4251W        W 7995   5.903   1.985  11.961  0.3468  0.0573  0.0752
 4252W        W 7996   8.457   1.864  11.248 -0.0204 -0.0186  0.0974
 4253W        W 7997   4.878   9.147  11.498  0.0664  0.0181 -0.1869
 4254W        W 7998   7.382   2.846  11.199  0.4090  0.0362 -0.0146
 4255W        W 7999   3.021   5.680  10.304  0.1675 -0.0075 -0.3726
 4256W        W 8000   6.010   2.148   2.709 -0.1971  0.2099 -0.2382
 4257W        W 8001   2.665   3.624  10.108  0.0976 -0.1047 -0.0306
 4258W        W 8002   4.302   6.515  12.355  0.3000 -0.0369 -0.2756
 4259W        W 8003   0.800   2.613   3.772  0.2185  0.2368 -0.0202
 4260W        W 8004   6.065   0.414   9.702  0.0360  0.1032  0.0353
 4261W        W 8005   4.013   3.805   0.009 -0.0683  0.1021  0.1683
 4262W        W 8006   6.862   3.760   2.119 -0.0173 -0.2062 -0.3263
 4263W        W 8007   3.097   2.764  10.719  0.0158  0.1253  0.0922
 4264W        W 8008   5.786   8.043   9.910  0.0060 -0.0228  0.2317
 4265W        W 8009   5.604   2.839   1.459  0.0758  0.3806 -0.2420
 4266W        W 8010   7.898   7.577   0.926  0.4208 -0.0830  0.1224
 4267W        W 8011   7.056   8.216   1.586  0.1157 -0.1910 -0.0575
 4268W        W 8012   1.285   0.124   4.487  0.1342 -0.2263  0.0463
 4269W        W 8013   0.321   5.799   9.896 -0.0751 -0.0672 -0.2647
 4270W        W 8014   1.819   0.676   9.515 -0.1260 -0.0809  0.0715
 4271W        W 8015   5.565   7.386  12.325 -0.0981 -0.2917 -0.0495
 4272W        W 8016   9.233   0.022   4.159 -0.2317  0.3573 -0.1471
 4273W        W 8017   3.711   7.658  12.122  0.3036  0.0230 -0.2122
 4274W        W 8018   3.506   7.614   0.250  0.1048  0.1353  0.0903
 4275W        W 8019   4.081   0.542  12.090 -0.4152 -0.1371  0.0728
 4276W        W 8020   2.985   9.529   0.645  0.1454  0.0446 -0.0193
 4277W        W 8021   9.513   2.138   3.218  0.2311 -0.2732  0.1031
 4278W        W 8022   9.216   0.760  11.879 -0.0307  0.2679  0.1617
 4279W        W 8023   1.258   7.426  10.453 -0.0865 -0.1663  0.0809
 4280W        W 8024   6.102   2.096   3.744  0.0016 -0.0131  0.0276
 4281W        W 8025   6.912   7.634   1.915  0.2041 -0.0120 -0.0647
 4282W        W 8026   9.097   9.798   9.334  0.1986  0.7135  0.0813
 4283W        W 8027   0.197   6.694  11.805  0.1891  0.1726 -0.0353
 4284W        W 8028   5.153   0.041   2.420 -0.2336  0.3206  0.1055
 4285W        W 8029   2.209   7.164  11.439 -0.1543  0.1581 -0.2801
 4286W        W 8030   4.642   6.879   2.278 -0.3138 -0.1633  0.2391
 4287W        W 8031   2.784   1.182  11.988  0.2749 -0.0965 -0.0915
 4288W        W 8032   7.167   2.638   1.395  0.1225 -0.0412  0.0260
 4289W        W 8033   7.045   2.162   1.889 -0.1945  0.0436 -0.0994
 4290W        W 8034   0.802   4.894   4.041  0.2485  0.1048 -0.2469
 4291W        W 8035   2.843   0.199   9.966 -0.0020  0.0426  0.2704
 4292W        W 8036   2.754   0.346   2.303 -0.1917 -0.0004 -0.2470
 4293W        W 8037   1.267   0.936   0.136 -0.0585 -0.1588 -0.2880
 4294W        W 8038   3.273   6.878   1.526  0.0182 -0.1692  0.1127
 4295W        W 8039   6.829   9.644   2.258 -0.2820  0.2850  0.1128
 4296W        W 8040   4.739   9.835   2.692 -0.1845  0.0449  0.0778
 4297W        W 8041   0.722   3.983   4.054 -0.0368 -0.1670 -0.0239
 4298W        W 8042   3.202   9.036  11.396 -0.2618  0.1782  0.3026
 4299W        W 8043   1.968   4.105  11.301  0.0519 -0.0293  0.1586
 4300W        W 8044   6.330   5.830   4.352 -0.0690 -0.0354 -0.0849
 4301W        W 8045   1.759   4.039   1.801  0.0382  0.1081  0.0401
 4302W        W 8046   9.431   3.622  12.544  0.0049  0.2210 -0.1307
 4303W        W 8047   5.408   7.335   9.436 -0.2460 -0.4850  0.0543
 4304W        W 8048   1.734   2.350   1.024  0.1543  0.0273 -0.0120
 4305W        W 8049   5.488   7.884  10.308 -0.0935  0.1560  0.0135
 4306W        W 8050   8.517   4.179   5.022 -0.3045 -0.3293  0.0708
 4307W        W 8051   6.285   8.993   2.796  0.1852  0.0441 -0.2883
 4308W        W 8052   0.005   6.202  11.740 -0.1734  0.3465  0.1684
 4309W        W 8053   7.363   2.426   9.476 -0.2678 -0.0497 -0.4544
 4310W        W 8054   4.318   0.806   1.599 -0.2758 -0.1762  0.1356
 4311W        W 8055   1.818   2.031   3.386  0.2806 -0.0107 -0.0825
 4312W        W 8056   7.805   5.489   4.074  0.0970  0.2165  0.2312
 4313W        W 8057   6.537   0.355   3.856  0.0354 -0.1192 -0.2438
 4314W        W 8058   6.609   7.542  12.006 -0.0511 -0.0493  0.0350
 4315W        W 8059   1.198   5.036   4.426 -0.1712  0.0830  0.2717
 4316W        W 8060   2.251   0.438   9.220 -0.1216  0.0951  0.0136
 4317W        W 8061   5.883   5.692   4.403 -0.3275 -0.1496  0.0669
 4318W        W 8062   3.913   0.491   0.709 -0.1175 -0.0830 -0.1040
 4319W        W 8063   2.879   7.982   4.189 -0.1140  0.0640  0.0526
 4320W        W 8064   4.482   4.412   1.632  0.0885  0.0048  0.0832
 4321W        W 8065   7.484   9.005   0.574  0.3041  0.3727  0.0526
 4322W        W 8066   0.106   7.834   2.806  0.0796 -0.0267 -0.2524
 4323W        W 8067   1.039   4.199   1.432 -0.0104 -0.0347 -0.1340
 4324W        W 8068   0.154   3.970  12.517 -0.2377 -0.1591 -0.1221
 4325W        W 8069   0.728   4.268   4.531  0.0299 -0.0163 -0.2476
 4326W        W 8070   7.474   5.088  12.133 -0.3838  0.0046  0.1199
 4327W        W 8071   8.442   9.184   0.837  0.3190 -0.4547 -0.0424
 4328W        W 8072   6.413   2.788   0.797  0.1584  0.1237 -0.0405
 4329W        W 8073   2.818   6.203  10.854  0.0219 -0.3197 -0.1984
 4330W        W 8074   5.057   8.654   4.643  0.3291 -0.1087 -0.0897
 4331W        W 8075   9.767   9.288  11.779 -0.2879  0.2009  0.4406
 4332W        W 8076   3.925   5.739   4.112 -0.0612 -0.2177  0.4103
 4333W        W 8077   8.121   8.813  12.420  0.0192  0.1463 -0.2402
 4334W        W 8078   7.695   8.808   4.608 -0.6426 -0.0367 -0.1062
 4335W        W 8079   8.576   8.678  12.207  0.3735 -0.3037  0.2056
 4336W        W 8080   1.906   7.436   0.357  0.3783 -0.0266  0.0819
 4337W        W 8081   7.745   2.225  10.455 -0.1086  0.2190  0.0086
 4338W        W 8082   8.468   1.829   4.535 -0.1068 -0.0947 -0.1986
 4339W        W 8083   2.656   8.688   9.867 -0.2102 -0.1211  0.3331
 4340W        W 8084   1.779   0.783   3.304 -0.0252 -0.0113  0.0185
 4341W        W 8085   4.106   8.540  12.436  0.1206 -0.3598  0.1933
 4342W        W 8086   6.333   3.268   2.328  0.0342  0.0333 -0.1718
 4343W        W 8087   8.084   8.242   1.614  0.0744  0.0332 -0.0934
 4344W        W 8088   7.428   7.067   2.880  0.0966  0.2743  0.0213
 4345W        W 8089   1.319   4.217   1.933  0.1294 -0.0823  0.0458
 4346W        W 8090   1.246   9.552   2.065  0.0928 -0.0059  0.0835
 4347W        W 8091   7.828   4.959  10.962  0.0169  0.1498 -0.2529
 4348W        W 8092   0.169   5.781  12.321 -0.0154  0.2229  0.5263
 4349W        W 8093   8.265   3.249   3.659 -0.0154 -0.0942 -0.0400
 4350W        W 8094   7.413   0.951   0.198 -0.0799 -0.2196  0.1453
 4351W        W 8095   7.048   9.283  12.327 -0.3267 -0.2236 -0.1894
 4352W        W 8096   1.298   4.506   8.854 -0.0051  0.1231 -0.1062
 4353W        W 8097   0.638   4.200   8.194  0.0314  0.1083 -0.2199
 4354W        W 8098   5.755   5.550  10.662 -0.3350  0.1789  0.0009
 4355W        W 8099   1.879   8.265  11.601  0.1780  0.3311 -0.1337
 4356W        W 8100   9.519   9.195   1.255  0.2882 -0.0389  0.4857
 4357W        W 8101   5.157   5.685  12.339  0.0229  0.0655  0.3191
 4358W        W 8102   2.316   5.859   3.506 -0.0351  0.0195 -0.4142
 4359W        W 8103   6.541   0.537   2.815 -0.1814  0.0298  0.0374
 4360W        W 8104   5.762   9.880  11.444 -0.2670 -0.3470 -0.0117
 4361W        W 8105   6.743   6.255  11.653  0.0222  0.0368 -0.2334
 4362W        W 8106   7.256   4.265   3.972 -0.0429  0.0267 -0.2709
 4363W        W 8107   3.230   4.732   2.308 -0.1637  0.0298  0.0745
 4364W        W 8108   1.598   5.020   1.486 -0.1444  0.1404  0.0459
 4365W        W 8109   9.848   8.494   2.948 -0.1185  0.0601  0.1686
 4366W        W 8110   8.290   0.719   1.772 -0.1476  0.0679  0.1764
 4367W        W 8111   6.994   1.189  10.900 -0.0432  0.3531 -0.2120
 4368W        W 8112   8.304   3.853  11.827 -0.2626 -0.0758 -0.0887
 4369W        W 8113   9.392   1.189   2.382 -0.1147 -0.2476  0.3084
 4370W        W 8114   6.069   1.023  12.856  0.0484 -0.0824 -0.1009
 4371W        W 8115   5.694   0.917   2.409  0.0893 -0.2411 -0.0775
 4372W        W 8116   1.027   5.268   8.774 -0.2686 -0.1837  0.0478
 4373W        W 8117   2.622   4.436  10.552 -0.0965 -0.0403 -0.1855
 4374W        W 8118   6.994   2.398  12.804 -0.0515  0.3121  0.3593
 4375W        W 8119   0.380   7.911   0.954 -0.0371 -0.4582 -0.0984
 4376W        W 8120   3.884   5.006  11.066 -0.0952  0.1419 -0.4533
 4377W        W 8121   0.898   0.002   3.624  0.0710  0.1084 -0.2577
 4378W        W 8122   9.390   3.005   0.144 -0.0426  0.1192  0.1467
 4379W        W 8123   6.465   7.677   2.743 -0.0899 -0.0394  0.0120
 4380W        W 8124   2.356   8.414   2.916 -0.0178 -0.3613  0.1275
 4381W        W 8125   1.558   6.760   2.696  0.2491 -0.0022  0.1876
 4382W        W 8126   4.808   6.730   9.666 -0.0539  0.3091  0.2225
 4383W        W 8127   9.399   9.169   2.980 -0.1662  0.3481  0.0300
 4384W        W 8128   5.281   1.957   0.349 -0.1067  0.0192 -0.0465
 4385W        W 8129   6.715   8.826   1.172 -0.0966  0.0353 -0.2466
 4386W        W 8130   4.195   5.169   3.881  0.2971 -0.1393  0.0921
 4387W        W 8131   3.776   6.957   1.229  0.0639  0.0769  0.1118
 4388W        W 8132   9.196   3.078   9.584 -0.2054  0.1699  0.0129
 4389W        W 8133   9.799   0.621   9.483 -0.1122 -0.0121 -0.0326
 4390W        W 8134   1.187   6.304   4.471 -0.1906 -0.2023  0.2011
 4391W        W 8135   9.612   6.957  11.831 -0.0058 -0.0690 -0.1403
 4392W        W 8136   0.089   8.370   1.063 -0.1460  0.2839  0.1223
 4393W        W 8137   4.114   7.953   0.944 -0.0178  0.1550 -0.0482
 4394W        W 8138   3.929   0.568  11.527  0.1428  0.0325 -0.1653
 4395W        W 8139   5.398   3.052  11.276  0.2033  0.3687 -0.1331
 4396W        W 8140   2.230   4.444   8.877  0.2216  0.1081  0.2041
 4397W        W 8141   8.772   8.794   1.156 -0.0314  0.1390 -0.1233
 4398W        W 8142   0.777   5.738   2.409 -0.0706  0.2122  0.1446
 4399W        W 8143   4.784   1.641  11.418 -0.2503  0.3531 -0.0116
 4400W        W 8144   9.020   2.072   3.237  0.0608 -0.0215  0.1868
 4401W        W 8145   6.171   1.584   0.326 -0.3674 -0.3081 -0.0638
 4402W        W 8146   8.520   5.330   0.243  0.0932  0.2425  0.2914
 4403W        W 8147   8.456   1.962  10.003  0.1009  0.1381 -0.2170
 4404W        W 8148   7.175   3.138   1.335  0.1057  0.0820  0.1275
 4405W        W 8149   7.507   7.650  11.470 -0.0295  0.1934 -0.2233
 4406W        W 8150   9.851   2.589   2.021  0.0372  0.1047  0.0824
 4407W        W 8151   5.329   5.357  11.360  0.1367  0.2074 -0.0925
 4408W        W 8152   0.532   1.822   1.694 -0.0117  0.2587  0.0812
 4409W        W 8153   9.789   8.791   0.914 -0.0442 -0.1150 -0.1478
 4410W        W 8154   7.790   1.482   2.082 -0.0657  0.2061  0.1196
 4411W        W 8155   2.518   2.224   0.725 -0.0261 -0.1574  0.1317
 4412W        W 8156   1.000   2.079   3.678 -0.3994 -0.0526 -0.1769
 4413W        W 8157   8.197   0.029  10.413  0.2641 -0.0826  0.2681
 4414W        W 8158   3.451   6.068   9.992 -0.0914 -0.0696 -0.1003
 4415W        W 8159   9.489   0.977   1.938  0.0114  0.0438 -0.1742
 4416W        W 8160   2.115   4.816  10.017 -0.2810  0.0067  0.2515
 4417W        W 8161   1.946   0.173   3.911 -0.4012 -0.1249  0.2187
 4418W        W 8162   1.519   9.070   9.363  0.0643  0.3426  0.0653
 4419W        W 8163   2.979   8.476   0.821 -0.2617  0.2578  0.1654
 4420W        W 8164   4.473   2.675  12.587  0.0267 -0.1625  0.1871
 4421W        W 8165   8.880   0.774   0.813  0.0352  0.0440 -0.1473
 4422W        W 8166   2.660   5.174   0.019 -0.0342  0.1097  0.1330
 4423W        W 8167   4.148   6.685  12.818  0.1735 -0.1081 -0.0483
 4424W        W 8168   7.728   2.558   1.928  0.0232  0.0372 -0.1866
 4425W        W 8169   5.876   8.430   8.452 -0.0335  0.1154 -0.2630
 4426W        W 8170   6.305   9.124  11.589 -0.0694  0.1376 -0.0539
 4427W        W 8171   6.138   4.941  12.101 -0.1110 -0.0081 -0.0926
 4428W        W 8172   3.001   4.603   4.173 -0.1056  0.1970  0.0674
 4429W        W 8173   9.663   8.029   4.363  0.0644 -0.1142  0.0397
 4430W        W 8174   7.459   9.870  11.573  0.1393  0.0514 -0.0417
 4431W        W 8175   4.778   5.085   3.007 -0.1121  0.3327  0.0824
 4432W        W 8176   9.166   7.834   1.015 -0.0445 -0.1295  0.0260
 4433W        W 8177   5.823   0.921   1.672  0.1453 -0.0612 -0.2219
 4434W        W 8178   7.472   5.324  10.780  0.1354 -0.1807 -0.0875
 4435W        W 8179   1.104   3.556   1.185 -0.2370  0.1673 -0.0814
 4436W        W 8180   9.161   6.623   1.224  0.1236 -0.1721  0.1915
 4437W        W 8181   7.271   3.813   0.738 -0.0425 -0.1186 -0.1918
 4438W        W 8182   1.308   1.269   8.733 -0.0678  0.3933  0.1374
 4439W        W 8183   1.638   7.977   2.629 -0.1117  0.0395 -0.1210
 4440W        W 8184   0.330   0.484  11.020 -0.0065 -0.1922  0.1526
 4441W        W 8185   1.917   4.152   0.400 -0.2600 -0.0742 -0.0502
 4442W        W 8186   4.169   6.510   3.412  0.0992  0.0479 -0.3063
 4443W        W 8187   2.025   1.831   0.117 -0.0390 -0.0080  0.0631
 4444W        W 8188   1.626   3.215   8.956 -0.3902 -0.0947 -0.0208
 4445W        W 8189   5.452   5.713  12.945  0.0567 -0.1249 -0.0136
 4446W        W 8190   8.958   4.190   1.747  0.1627  0.0068  0.1927
 4447W        W 8191   4.793   5.805   8.656 -0.2775  0.0863  0.0137
 4448W        W 8192   6.570   7.153   9.759  0.4043 -0.0336 -0.0154
 4449W        W 8193   2.313   1.924  12.136  0.1393  0.0646  0.1465
 4450W        W 8194   0.049   2.713   3.335 -0.1600 -0.2538  0.0268
 4451W        W 8195   9.061   8.699  12.341  0.1992 -0.1320 -0.2433
 4452W        W 8196   5.963   9.152   4.490 -0.1145 -0.3369 -0.4701
 4453W        W 8197   6.620   6.109  12.175 -0.1253  0.1928 -0.1083
 4454W        W 8198   8.998   7.578   3.093  0.1344 -0.0353  0.3082
 4455W        W 8199   2.220   9.810   0.643  0.3003 -0.0880  0.0171
 4456W        W 8200   2.038   3.372  10.954  0.0408 -0.1899 -0.0456
 4457W        W 8201   1.009   5.477   0.923  0.1456 -0.4549  0.1513
 4458W        W 8202   9.530   2.079   2.674 -0.1526  0.1046 -0.1802
 4459W        W 8203   4.492   9.767   9.837 -0.1262  0.1017 -0.2810
 4460W        W 8204   1.918   5.730  11.651 -0.5087 -0.2889  0.4554
 4461W        W 8205   4.923   0.384   0.136  0.2531  0.0264  0.2559
 4462W        W 8206   8.588   2.752  11.991 -0.3725 -0.0456 -0.0817
 4463W        W 8207   3.354   9.164   1.540 -0.1847  0.1090 -0.0158
 4464W        W 8208   4.797   7.150   0.293  0.0433  0.0775 -0.0284
 4465W        W 8209   5.108   2.376  10.822 -0.1101  0.0704 -0.1019
 4466W        W 8210   0.529   7.170  12.275 -0.1014  0.0232 -0.2166
 4467W        W 8211   3.338   6.891   8.910 -0.1002  0.1486  0.1781
 4468W        W 8212   9.426   1.681   2.974  0.0158 -0.0904  0.1298
 4469W        W 8213   0.848   7.799  11.695 -0.2168  0.3162  0.0701
 4470W        W 8214   6.511   6.968   3.743  0.0911 -0.0793 -0.1678
 4471W        W 8215   1.263   1.304   9.830 -0.0759 -0.2010 -0.3838
 4472W        W 8216   1.637   1.755   1.745 -0.0666  0.0098 -0.2511
 4473W        W 8217   8.503   7.201  11.078  0.0643  0.1565  0.0093
 4474W        W 8218   6.847   7.900  11.701  0.0523 -0.1667  0.0166
 4475W        W 8219   7.404   3.553  11.125 -0.4469  0.3809  0.2551
 4476W        W 8220   3.949   9.768   1.001  0.2137 -0.0144  0.0291
 4477W        W 8221   0.140   8.734  10.318  0.0724 -0.3968  0.1082
 4478W        W 8222   8.537   4.193   3.612  0.1332  0.0896 -0.0374
 4479W        W 8223   6.454   4.358   4.324 -0.0895  0.1752 -0.2613
 4480W        W 8224   9.104   3.212   1.539 -0.0430 -0.1143 -0.1736
 4481W        W 8225   4.495   7.476   0.005  0.1419 -0.1972  0.0064
 4482W        W 8226   1.214   9.430   9.240 -0.0072 -0.2700 -0.1326
 4483W        W 8227   3.954   1.667  11.404  0.3603  0.1477  0.1363
 4484W        W 8228   8.223   2.454   2.037 -0.0123  0.0553 -0.0552
 4485W        W 8229   2.274   6.678   3.481 -0.0255 -0.1201 -0.2292
 4486W        W 8230   8.574   6.301   0.057 -0.1755  0.0738 -0.0743
 4487W        W 8231   5.839   2.340  10.152  0.1701 -0.0552  0.2206
 4488W        W 8232   3.391   7.147  11.867 -0.2184  0.1724 -0.0343
 4489W        W 8233   1.765   7.169   2.397 -0.0238  0.0145 -0.0242
 4490W        W 8234   5.579   0.653  10.287 -0.0653  0.1338  0.0100
 4491W        W 8235   8.692   8.935   0.277  0.1432 -0.3172  0.0696
 4492W        W 8236   5.004   5.191  12.496  0.0809  0.0533  0.1070
 4493W        W 8237   3.549   9.712   0.690  0.1595 -0.1443  0.1100
 4494W        W 8238   2.258   0.138  11.075  0.1355 -0.3831  0.2246
 4495W        W 8239   3.803   7.714   2.239  0.2495 -0.0585  0.0334
 4496W        W 8240   6.075   5.937   3.471  0.4618 -0.1179 -0.0092
 4497W        W 8241   5.906   6.170  12.263 -0.0648 -0.1486 -0.0082
 4498W        W 8242   8.388   0.155   9.907 -0.1072  0.1171  0.1397
 4499W        W 8243   1.086   8.529   0.715  0.2194 -0.0263  0.2782
 4500W        W 8244   6.650   3.149  10.447 -0.0658  0.0770 -0.4987
 4501W        W 8245   6.571   8.031   0.335 -0.1240  0.0056  0.1650
 4502W        W 8246   7.642   0.768   1.195 -0.1271  0.2330 -0.1678
 4503W        W 8247   4.644   6.478  12.793 -0.1465 -0.2835 -0.0513
 4504W        W 8248   4.364   5.858  11.021  0.4021 -0.0723  0.0118
 4505W        W 8249   0.025   3.298  10.632 -0.0352  0.0377 -0.1064
 4506W        W 8250   3.539   5.486   3.065 -0.0488 -0.0383  0.1737
 4507W        W 8251   2.703   9.473   0.115 -0.0521  0.4947 -0.0163
 4508W        W 8252   8.331   0.453  11.909 -0.3294 -0.0062 -0.2729
 4509W        W 8253   2.708   2.952   4.121 -0.1144  0.0494 -0.0230
 4510W        W 8254   3.492   4.416   3.371 -0.0781 -0.3736  0.0812
 4511W        W 8255   9.545   3.529   2.623  0.3684  0.1122 -0.0546
 4512W        W 8256   1.685   8.564   9.974  0.2791  0.1043 -0.0224
 4513W        W 8257   3.290   0.864   1.958  0.1776  0.1494  0.1455
 4514W        W 8258   0.253   2.269  11.187 -0.2704 -0.0534  0.1329
 4515W        W 8259   6.565   6.414   9.114 -0.2857 -0.1215  0.1771
 4516W        W 8260   8.796   6.430   9.392 -0.3124 -0.1008  0.1851
 4517W        W 8261   9.546   5.825   3.575  0.0202 -0.2441  0.0788
 4518W        W 8262   8.938   5.950   8.638  0.2303  0.1493  0.0271
 4519W        W 8263   8.888   8.107  11.519  0.1654  0.0652  0.1483
 4520W        W 8264   4.651   3.164  12.217 -0.0337  0.0449 -0.0214
 4521W        W 8265   1.979   2.756   9.320  0.1631 -0.2626 -0.1717
 4522W        W 8266   7.689   7.255   3.610 -0.0537  0.2216 -0.0752
 4523W        W 8267   6.872   8.037   9.111  0.0640  0.0504  0.1864
 4524W        W 8268   3.098   7.267   9.154 -0.0049  0.0690  0.0995
 4525W        W 8269   6.280   1.659  11.764 -0.0358 -0.0416  0.3685
 4526W        W 8270   2.626   1.602   2.775  0.0027 -0.0320  0.4071
 4527W        W 8271   3.932   8.361   1.123 -0.1146  0.0776  0.0471
 4528W        W 8272   3.943   6.822   3.032  0.0344 -0.0531 -0.3750
 4529W        W 8273   4.360   1.874  12.254 -0.3632 -0.1425 -0.1272
 4530W        W 8274   4.693   0.295  11.301  0.0111 -0.3255 -0.0929
 4531W        W 8275   3.948   9.649  12.722  0.2204 -0.2277  0.0499
 4532W        W 8276   1.006   7.218   9.191 -0.1235 -0.0143 -0.0164
 4533W        W 8277   2.609   7.486  10.521  0.1784 -0.1674  0.1985
 4534W        W 8278   0.226   8.142   9.362  0.1858 -0.0745 -0.1582
 4535W        W 8279   4.855   8.561   9.926 -0.0103 -0.0538  0.2682
 4536W        W 8280   2.060   7.391   9.972  0.0365  0.3502  0.2033
 4537W        W 8281   1.930   8.205  10.190  0.2786 -0.3519 -0.0496
 4538W        W 8282   2.946   7.879  10.542  0.3380 -0.2594 -0.1626
 4539W        W 8283   0.081   1.184   3.745  0.1631 -0.0012 -0.2623
 4540W        W 8284   8.198   7.248  12.233  0.0253 -0.3406  0.1062
 4541W        W 8285   7.399   2.327  11.417 -0.1273 -0.0901 -0.0080
 4542W        W 8286   2.093   8.810   1.713 -0.1832 -0.1096 -0.2864
 4543W        W 8287   7.559   9.098   4.171  0.0760 -0.1652  0.0348
 4544W        W 8288   3.152   1.496  12.276 -0.0071 -0.1339 -0.0700
 4545W        W 8289   8.946   4.140   4.378 -0.0701  0.0728 -0.1222
 4546W        W 8290   5.340   9.386   0.388  0.0347  0.2314  0.0587
 4547W        W 8291   9.525   3.887  11.644  0.1185 -0.3218 -0.0959
 4548W        W 8292   0.293   4.698   1.736 -0.0778  0.1202  0.1238
 4549W        W 8293   2.616   9.563   3.307  0.1040 -0.0278 -0.0274
 4550W        W 8294   0.073   1.018   9.043 -0.2530  0.3037  0.0467
 4551W        W 8295   1.105   8.849   9.169 -0.0044 -0.1026 -0.2855
 4552W        W 8296   1.787   6.255   2.964 -0.1011  0.0131  0.1127
 4553W        W 8297   6.334   4.724   9.392  0.3908 -0.1034  0.0879
 4554W        W 8298   0.756   8.162  10.729  0.1235  0.2120  0.1257
 4555W        W 8299   0.063   8.849  10.946 -0.2715  0.0309 -0.1447
 4556W        W 8300   4.288   7.878   0.415  0.3037 -0.0884 -0.0304
 4557W        W 8301   3.085   7.575   0.790  0.1496  0.2017  0.2547
 4558W        W 8302   2.507   4.896  10.350 -0.1929  0.0183  0.1402
 4559W        W 8303   2.469   6.286   2.749 -0.1807 -0.0371 -0.0712
 4560W        W 8304   3.387   7.843   2.577  0.1797  0.2994 -0.0900
 4561W        W 8305   4.975   6.685   3.931  0.0795 -0.1967 -0.0263
 4562W        W 8306   6.765   6.726  11.899 -0.0347  0.1041 -0.1510
 4563W        W 8307   0.576   0.024   3.273 -0.1462 -0.1122 -0.0685
 4564W        W 8308   9.557   8.813  10.513  0.0679 -0.3349  0.1339
 4565W        W 8309   4.622   8.615   2.711 -0.1898  0.4035  0.1341
 4566W        W 8310   2.967   1.793   9.699  0.1670 -0.2258 -0.0109
 4567W        W 8311   7.167   1.113   2.744 -0.3263  0.3607 -0.1557
 4568W        W 8312   9.376   1.594   9.743  0.0387 -0.1479 -0.2323
 4569W        W 8313   1.841   7.491  11.998  0.0050  0.0362  0.0954
 4570W        W 8314   4.650   0.350   9.917 -0.1065 -0.0972  0.1214
 4571W        W 8315   1.893   9.299  10.602 -0.1690 -0.2516 -0.1464
 4572W        W 8316   8.480   2.171   1.753 -0.0518 -0.1234 -0.3194
 4573W        W 8317   5.435   8.431  12.327  0.0531 -0.0369 -0.0691
 4574W        W 8318   7.724   8.325   9.312 -0.1756  0.2649  0.1054
 4575W        W 8319   7.499   4.015  11.341  0.3145  0.1613  0.2295
 4576W        W 8320   2.131   1.427   9.536 -0.3757  0.1685  0.1790
 4577W        W 8321   1.738   6.168  10.839  0.2137  0.1155 -0.2965
 4578W        W 8322   1.641   7.620   2.247 -0.0199  0.1813  0.1354
 4579W        W 8323   1.012   0.081   9.405 -0.0019 -0.1377  0.0597
 4580W        W 8324   1.752   5.664  12.149 -0.0857 -0.1019  0.2937
 4581W        W 8325   3.568   7.664  11.593  0.1719  0.3782 -0.1625
 4582W        W 8326   3.011   6.432  10.149 -0.1045 -0.2172  0.1204
 4583W        W 8327   8.924   1.660  10.123 -0.2218 -0.1777 -0.2292
 4584W        W 8328   5.923   0.890  11.526  0.1528 -0.0808  0.2291
 4585W        W 8329   0.779   4.244  10.215 -0.0378  0.0034  0.2380
 4586W        W 8330   2.930   5.100  12.226 -0.0370 -0.0889 -0.1054
 4587W        W 8331   8.826   5.593  12.431  0.1129  0.1058  0.0748
 4588W        W 8332   2.398   6.469   2.315  0.1066 -0.0538  0.1619
 4589W        W 8333   9.118   6.142  10.895  0.0684 -0.0829 -0.1565
 4590W        W 8334   5.791   9.574   0.460  0.0547  0.2839 -0.0791
 4591W        W 8335   1.679   3.526  12.605  0.1456 -0.1991  0.3773
 4592W        W 8336   8.442   0.404   3.871  0.1886  0.1268  0.6007
 4593W        W 8337   7.344   5.399  11.296 -0.0910  0.2760  0.1712
 4594W        W 8338   1.585   3.630   2.027 -0.2197 -0.0329 -0.1225
 4595W        W 8339   9.258   4.650   9.653  0.1719  0.4844 -0.0857
 4596W        W 8340   1.254   0.105   3.274 -0.0160  0.0313 -0.3235
 4597W        W 8341   6.071   1.722   2.463 -0.3743  0.1446  0.1499
 4598W        W 8342   8.494   9.717   1.270  0.0551 -0.0577  0.0998
 4599W        W 8343   0.905   1.962  10.186 -0.1001 -0.0094 -0.2157
 4600W        W 8344   4.600   0.634   2.029 -0.4010  0.1114  0.0432
 4601W        W 8345   7.158   6.361   0.328 -0.0777  0.0059 -0.3114
 4602W        W 8346   9.112   4.347   3.342  0.1768 -0.0730 -0.0432
 4603W        W 8347   3.472   3.258   2.978 -0.0448  0.0382  0.1452
 4604W        W 8348   3.788   9.319   1.771 -0.2505  0.1530  0.1540
 4605W        W 8349   2.527   8.416  11.124 -0.0270 -0.0272  0.3237
 4606W        W 8350   1.096   2.730   3.380 -0.2583 -0.1576 -0.0314
 4607W        W 8351   8.824   1.736   0.864  0.1430  0.3260 -0.0763
 4608W        W 8352   6.345   4.181   3.896  0.1530 -0.3019  0.2776
 4609W        W 8353   6.819   2.522   0.625  0.0340 -0.1368 -0.1465
 4610W        W 8354   1.382   1.279   1.954  0.2213  0.0037  0.0304
 4611W        W 8355   1.735   2.304   9.422 -0.2242 -0.3041 -0.0438
 4612W        W 8356   5.658   0.783   9.792 -0.0694 -0.0419 -0.0992
 4613W        W 8357   9.358   4.898   4.830 -0.1501  0.0557  0.1435
 4614W        W 8358   8.650   0.723   2.542 -0.0265 -0.0553 -0.3064
 4615W        W 8359   1.436   4.055  11.463  0.0750 -0.1706 -0.0007
 4616W        W 8360   2.101   4.382   9.773  0.2648 -0.1448 -0.2179
 4617W        W 8361   3.715   9.690   0.200 -0.2337  0.2112 -0.1164
 4618W        W 8362   9.210   5.855   9.856 -0.2210 -0.2261  0.2837
 4619W        W 8363   7.964   9.508   2.765  0.0262  0.5020 -0.0294
 4620W        W 8364   3.296   5.904  11.476 -0.0637 -0.1849 -0.0206
 4621W        W 8365   8.384   9.434   9.866  0.0449 -0.1629 -0.0693
 4622W        W 8366   8.170   1.878  10.434  0.2239 -0.2859 -0.1773
 4623W        W 8367   8.339   6.720  10.682 -0.1281  0.2368 -0.0815
 4624W        W 8368   4.775   2.298  12.544 -0.0568 -0.0081  0.0716
 4625W        W 8369   3.936   5.263   9.970 -0.0404  0.0847 -0.2284
 4626W        W 8370   1.110   6.307   8.647  0.1362 -0.1394  0.1778
 4627W        W 8371   2.290   6.920   1.498 -0.0771 -0.2378  0.1487
 4628W        W 8372   0.130   6.030   3.188 -0.1007 -0.0729 -0.0205
 4629W        W 8373   4.844   5.649  12.741 -0.0557 -0.0732 -0.0594
 4630W        W 8374   4.962   9.600   8.862 -0.0195  0.0702  0.1828
 4631W        W 8375   4.771   5.793   8.014 -0.0235  0.0457 -0.0592
 4632W        W 8376   0.304   7.723   1.553  0.1828  0.1007  0.0280
 4633W        W 8377   9.523   6.016   1.024 -0.0963 -0.0854  0.0432
 4634W        W 8378   3.827   5.256   3.598 -0.1869 -0.2503  0.1660
 4635W        W 8379   3.740   9.714   2.091  0.0321  0.1911 -0.2534
 4636W        W 8380   7.423   1.095   9.699 -0.2778 -0.0027  0.2954
 4637W        W 8381   8.672   5.860  11.040 -0.0288  0.1200 -0.0805
 4638W        W 8382   0.329   4.442   0.908  0.0537  0.0595 -0.0576
 4639W        W 8383   2.247   6.646  11.475  0.0628  0.1533  0.2286
 4640W        W 8384   8.674   7.461  12.466  0.0771 -0.0132  0.1772
 4641W        W 8385   1.703   8.680  12.719  0.2040  0.1287  0.0392
 4642W        W 8386   9.714   0.236  12.449  0.1474 -0.3677 -0.3704
 4643W        W 8387   4.676   6.633   8.941  0.1156  0.2917  0.2957
 4644W        W 8388   5.236   6.512   0.680  0.0751 -0.0171  0.1013
 4645W        W 8389   4.108   7.444  10.087 -0.0621 -0.0638 -0.2528
 4646W        W 8390   7.962   3.073   2.875 -0.0859  0.3264  0.0924
 4647W        W 8391   1.266   8.350   8.538  0.5139 -0.0772  0.1430
 4648W        W 8392   5.851   4.710   1.109  0.1490  0.4331  0.0630
 4649W        W 8393   4.562   7.151  11.076  0.1086 -0.1357  0.1154
 4650W        W 8394   3.846   3.174  11.210  0.0502 -0.1082 -0.2454
 4651W        W 8395   5.371   2.053  10.280  0.3610 -0.3719  0.1495
 4652W        W 8396   4.570   4.657   3.058 -0.1685 -0.1523 -0.5127
 4653W        W 8397   2.113   4.365  10.904  0.3864 -0.2050 -0.3217
 4654W        W 8398   6.113   7.998   2.842  0.2652 -0.1997 -0.0332
 4655W        W 8399   2.062   4.060   9.271 -0.0239  0.1144 -0.4344
 4656W        W 8400   0.773   1.688  12.733 -0.0633  0.0003  0.2622
 4657W        W 8401   3.394   6.396   9.226  0.0360  0.1299 -0.1403
 4658W        W 8402   7.361   8.261  12.708 -0.0338 -0.3953  0.3029
 4659W        W 8403   1.336   8.391   1.138  0.3193  0.0489 -0.1465
 4660W        W 8404   1.516   0.880   1.639  0.0614  0.0272 -0.1185
 4661W        W 8405   3.353   7.668   9.338 -0.3404 -0.0321  0.1148
 4662W        W 8406   4.128   8.595   9.426  0.4508 -0.1979  0.2136
 4663W        W 8407   2.881   8.997   0.234  0.1751 -0.1369  0.0994
 4664W        W 8408   0.364   3.633   3.379  0.3230 -0.2731 -0.3167
 4665W        W 8409   2.979   4.137   9.275 -0.1298 -0.2003 -0.2787
 4666W        W 8410   4.719   4.377   2.671  0.2552  0.0597  0.1009
 4667W        W 8411   4.519   9.792  10.386  0.2102 -0.1041 -0.1027
 4668W        W 8412   2.300   1.053   2.085 -0.0099 -0.1366  0.2451
 4669W        W 8413   5.321   1.116  12.698 -0.2545 -0.2750 -0.1135
 4670W        W 8414   0.931   2.370  10.510  0.0596  0.2530  0.0054
 4671W        W 8415   5.473   7.060   2.051 -0.0454 -0.1428  0.0854
 4672W        W 8416   8.438   0.804   3.003  0.1564 -0.0802 -0.2732
 4673W        W 8417   1.251   9.033   3.300 -0.0285  0.1922 -0.0643
 4674W        W 8418   4.468   6.485   9.348 -0.0334 -0.1883 -0.1541
 4675W        W 8419   0.804   6.589   4.204  0.0367 -0.1239 -0.0499
 4676W        W 8420   7.292   5.745   2.889 -0.2415  0.3570  0.0107
 4677W        W 8421   6.692   4.916   2.857  0.1449 -0.1055  0.1187
 4678W        W 8422   6.940   8.269   8.163 -0.1439  0.0297  0.1002
 4679W        W 8423   9.787   9.467  11.267 -0.1198 -0.0079  0.0559
 4680W        W 8424   7.896   0.479   9.341 -0.1187  0.0743  0.0209
 4681W        W 8425   1.712   5.114   1.988  0.2359  0.1084  0.1710
 4682W        W 8426   6.254   4.711   3.920  0.1391 -0.0985 -0.0275
 4683W        W 8427   5.552   2.258   0.898 -0.1263 -0.0080  0.2950
 4684W        W 8428   2.716   9.128  11.149  0.1377 -0.1679 -0.1021
 4685W        W 8429   6.424   8.457   9.465  0.0210 -0.3118  0.1854
 4686W        W 8430   4.036   6.509  10.711  0.1688 -0.2044  0.0551
 4687W        W 8431   4.110   6.375   4.186  0.0625 -0.2220  0.2349
 4688W        W 8432   8.790   5.774  10.573  0.0470 -0.0646 -0.0794
 4689W        W 8433   5.011   9.052  10.681 -0.1417  0.0187 -0.0813
 4690W        W 8434   8.089   1.276   2.389  0.2640  0.0024  0.3876
 4691W        W 8435   3.342   1.836   1.898 -0.3295 -0.0566  0.2932
 4692W        W 8436   8.356   4.384   1.511  0.0944  0.0059  0.0087
 4693W        W 8437   5.887   8.515   9.419 -0.2553  0.1273  0.1424
 4694W        W 8438   9.510   4.344   1.585  0.1786 -0.3595 -0.1728
 4695W        W 8439   2.758   7.130  12.163 -0.1537  0.0440 -0.0503
 4696W        W 8440   9.618   0.619  11.553 -0.0302  0.3319  0.0919
 4697W        W 8441   7.736   2.962   8.776 -0.1224 -0.1295 -0.0321
 4698W        W 8442   1.628   6.350   9.594  0.3243  0.1828  0.0593
 4699W        W 8443   9.077   4.083   5.227 -0.0972  0.0368  0.1503
 4700W        W 8444   5.331   5.071   2.762  0.3012 -0.2441  0.1001
 4701W        W 8445   8.624   6.092   3.828  0.2055 -0.1232 -0.0189
 4702W        W 8446   5.749   4.283   9.878 -0.2403  0.2917  0.1525
 4703W        W 8447   6.536   4.258   8.602  0.1918  0.3105 -0.1399
 4704W        W 8448   0.397   1.971   4.516 -0.1451  0.2444 -0.3011
 4705W        W 8449   4.829   6.296   0.517 -0.0316  0.2416 -0.1950
 4706W        W 8450   0.350   9.852   1.941 -0.2392 -0.0415  0.0618
 4707W        W 8451   0.078   2.207   2.502  0.1232 -0.0268  0.2003
 4708W        W 8452   8.137   1.420   0.625 -0.2124 -0.2524  0.2923
 4709W        W 8453   8.110   7.553   9.689 -0.3664  0.1554  0.3308
 4710W        W 8454   6.140   0.080   3.538 -0.0542 -0.1592 -0.2541
 4711W        W 8455   2.829   0.240   1.446  0.0369  0.0455 -0.0403
 4712W        W 8456   5.626   8.072   0.319 -0.1167 -0.1696 -0.4405
 4713W        W 8457   0.297   4.032   2.277  0.0721 -0.1542 -0.3926
 4714W        W 8458   5.582   2.580   2.973 -0.0662 -0.0236  0.0685
 4715W        W 8459   6.465   2.783  10.738  0.1738 -0.2497  0.1943
 4716W        W 8460   9.437   7.674   0.594  0.1300  0.0322 -0.2059
 4717W        W 8461   7.773   0.035   1.836 -0.0140  0.1474 -0.0776
 4718W        W 8462   4.242   1.572   3.147  0.1622 -0.0706 -0.2829
 4719W        W 8463   5.379   7.034   0.635  0.2666 -0.2008 -0.1480
 4720W        W 8464   4.015   7.146  12.712  0.1395  0.1267 -0.2631
 4721W        W 8465   2.897   9.681   1.481  0.1294  0.6183  0.0287
 4722W        W 8466   2.455   7.855  10.823  0.0019 -0.4243 -0.1034
 4723W        W 8467   8.314   1.525   9.517 -0.2564  0.0823 -0.0979
 4724W        W 8468   2.877   4.254   0.619 -0.4087  0.0177 -0.0241
 4725W        W 8469   6.543   3.761  12.887  0.2845  0.0300  0.1688
 4726W        W 8470   5.402   7.234   1.115  0.2554 -0.0851  0.2317
 4727W        W 8471   5.656   0.094   3.268 -0.2217 -0.1334 -0.2555
 4728W        W 8472   6.739   1.766   1.963  0.1470 -0.0021 -0.1413
 4729W        W 8473   9.724   2.822   9.156 -0.2338  0.1162 -0.0941
 4730W        W 8474   1.062   6.393   0.278  0.2097  0.1812  0.2776
 4731W        W 8475   3.579   6.954   9.815 -0.4148 -0.0595 -0.2101
 4732W        W 8476   0.324   9.594  12.883 -0.2854 -0.0444 -0.1234
 4733W        W 8477   1.926   8.270   2.296 -0.2874 -0.0148 -0.3540
 4734W        W 8478   1.388   7.207   8.776  0.4517  0.1934  0.1987
 4735W        W 8479   1.249   4.610   3.399 -0.0148 -0.1975  0.0272
 4736W        W 8480   3.266   2.676   0.403 -0.1361 -0.0304 -0.5588
 4737W        W 8481   0.951   3.032   0.400 -0.0359  0.1133  0.2006
 4738W        W 8482   7.844   5.234  12.431 -0.0534  0.2270  0.0721
 4739W        W 8483   9.300   3.217  10.730  0.1200 -0.3110 -0.1437
 4740W        W 8484   6.723   3.260   3.110 -0.2152  0.0336  0.1369
 4741W        W 8485   9.275   5.418   4.079  0.2051 -0.0449 -0.3737
 4742W        W 8486   6.490   5.286  10.961  0.0487  0.2276 -0.0074
 4743W        W 8487   1.954   9.895  12.032 -0.1721 -0.0201  0.3159
 4744W        W 8488   7.663   4.379   3.359 -0.0403 -0.1362  0.3918
 4745W        W 8489   7.942   3.270   0.281  0.0929 -0.0678 -0.1693
 4746W        W 8490   6.047   8.902   0.107 -0.3239  0.3972  0.1925
 4747W        W 8491   0.329   2.627   3.771  0.4990 -0.0917 -0.0219
 4748W        W 8492   2.759   2.612   1.005 -0.1513 -0.1427  0.3144
 4749W        W 8493   0.480   7.744   9.446 -0.1697  0.1022  0.2159
 4750W        W 8494   5.139   1.229   1.222  0.2252 -0.1770  0.3390
 4751W        W 8495   2.925   6.468   0.128  0.0280 -0.0733  0.2103
 4752W        W 8496   0.281   1.584   0.735 -0.1234  0.1478 -0.0517
 4753W        W 8497   8.557   6.203   3.324 -0.1503  0.0938 -0.3076
 4754W        W 8498   8.712   2.112   2.381  0.0533  0.1142 -0.2405
 4755W        W 8499   4.712   5.015  10.431  0.1403 -0.1452  0.0319
 4756W        W 8500   8.438   9.686   0.722 -0.1419 -0.0258 -0.3178
 4757W        W 8501   7.471   2.690  10.758  0.1199  0.1189 -0.1597
 4758W        W 8502   6.902   5.506  12.796  0.0347  0.1666  0.0629
 4759W        W 8503   2.886   7.665   1.687  0.3691  0.2616 -0.1494
 4760W        W 8504   1.478   1.681   3.590 -0.0186 -0.0519 -0.2000
 4761W        W 8505   5.224   6.072   3.144 -0.2343 -0.0710  0.0235
 4762W        W 8506   9.528   4.211   3.682 -0.1004 -0.1282 -0.1489
 4763W        W 8507   6.834   2.212   1.469 -0.1487 -0.0325  0.1172
 4764W        W 8508   9.299   2.104   1.340 -0.0005 -0.1503 -0.1651
 4765W        W 8509   0.761   0.984   9.593  0.2151 -0.1199  0.0760
 4766W        W 8510   5.698   6.358   1.399 -0.0905 -0.0797 -0.2628
 4767W        W 8511   9.348   1.064  11.475  0.1559  0.0907  0.1255
 4768W        W 8512   1.330   5.379  10.451 -0.2583 -0.0876 -0.0013
 4769W        W 8513   6.211   7.596   0.937  0.0473  0.1177 -0.0150
 4770W        W 8514   9.079   9.135  10.706 -0.4133  0.0883 -0.0912
 4771W        W 8515   8.723   1.679  11.674  0.1768  0.0300 -0.0880
 4772W        W 8516   1.707   9.244   9.774  0.0762 -0.3441  0.1111
 4773W        W 8517   9.287   9.425   1.595 -0.0090  0.1315  0.0975
 4774W        W 8518   9.006   4.091   2.271  0.2707  0.0494 -0.2629
 4775W        W 8519   0.207   7.435  11.300 -0.4002 -0.0933  0.0379
 4776W        W 8520   9.164   6.641   9.717  0.0664 -0.1985  0.1328
 4777W        W 8521   6.769   8.284   3.769  0.1021 -0.2440  0.2520
 4778W        W 8522   8.725   6.725   4.665 -0.0257 -0.0096  0.2999
 4779W        W 8523   5.710   4.083   9.043 -0.1672  0.3174  0.0386
 4780W        W 8524   4.544   1.092   3.859 -0.2999 -0.4405  0.1108
 4781W        W 8525   9.015   8.582  10.552 -0.0966 -0.1008  0.0468
 4782W        W 8526   5.817   7.169   0.331  0.0760  0.1057  0.1403
 4783W        W 8527   8.932   8.744   3.599 -0.0810 -0.2029  0.1005
 4784W        W 8528   2.219   5.852  12.206 -0.4345 -0.0394  0.2284
 4785W        W 8529   0.102   2.022   0.192  0.1916 -0.0226 -0.2477
 4786W        W 8530   5.142   4.308  12.613  0.0554 -0.0617 -0.1449
 4787W        W 8531   6.955   7.408   2.551 -0.3101 -0.0847 -0.0384
 4788W        W 8532   3.121   1.866   3.373  0.0224 -0.1107  0.1298
 4789W        W 8533   1.690   3.260   0.507  0.0635  0.0042 -0.0349
 4790W        W 8534   8.022   8.997   4.220 -0.1120  0.3258  0.0039
 4791W        W 8535   0.268   9.210  11.430 -0.2784 -0.0987 -0.0212
 4792W        W 8536   9.098   9.670  10.705 -0.0099 -0.0044 -0.1934
 4793W        W 8537   0.343   4.987   4.335  0.0063  0.0652  0.1277
 4794W        W 8538   7.989   7.915   2.439 -0.0965  0.0456  0.2798
 4795W        W 8539   5.154   2.274  12.293  0.1603 -0.3781  0.2525
 4796W        W 8540   6.172   0.234   0.272 -0.0264  0.0178 -0.1976
 4797W        W 8541   1.829   2.040   9.890  0.1917 -0.0475 -0.1624
 4798W        W 8542   8.312   8.033  10.876 -0.5276  0.0622 -0.2423
 4799W        W 8543   6.324   0.444  10.898  0.0057  0.0934 -0.1042
 4800W        W 8544   3.844   0.778   0.212 -0.0336  0.4289 -0.0739
 4801W        W 8545   0.269   9.529   9.664  0.1454 -0.1005  0.0417
 4802W        W 8546   3.788   6.501  10.084 -0.2884 -0.1955  0.0533
 4803W        W 8547   5.220   6.616   3.009 -0.1278 -0.1390 -0.0791
 4804W        W 8548   9.826   3.161   4.369 -0.2785 -0.4481  0.0407
 4805W        W 8549   1.077   4.973  11.790 -0.0362 -0.1292  0.3582
 4806W        W 8550   3.659   3.782   0.845  0.1380  0.2014 -0.2657
 4807W        W 8551   1.138   3.514   2.800 -0.0046  0.4239 -0.0778
 4808W        W 8552   5.104   4.653   2.799 -0.0835 -0.0204 -0.0197
 4809W        W 8553   1.539   0.471   3.054  0.1130  0.0737 -0.0155
 4810W        W 8554   1.486   0.249  10.235 -0.0301 -0.0217 -0.0544
 4811W        W 8555   2.368   6.784   4.018  0.0105  0.2859 -0.2204
 4812W        W 8556   7.831   5.204   1.352  0.1226  0.1682 -0.0938
 4813W        W 8557   1.487   0.059   2.769  0.0246 -0.2863 -0.0611
 4814W        W 8558   6.369   9.643   3.176 -0.1199 -0.1193 -0.0747
 4815W        W 8559   2.621   0.690  11.670  0.0776 -0.0056 -0.0924
 4816W        W 8560   2.633   8.136   9.671  0.1034  0.2777 -0.1962
 4817W        W 8561   7.234   8.386  12.094 -0.1568  0.0587 -0.1861
 4818W        W 8562   3.586   6.973   2.715 -0.1416 -0.0776 -0.2473
 4819W        W 8563   7.287   1.432  11.424  0.0105 -0.4060  0.0996
 4820W        W 8564   5.718   0.661  11.897 -0.0970  0.0646  0.1854
 4821W        W 8565   6.552   0.999   4.516  0.2758 -0.0321  0.0591
 4822W        W 8566   6.014   5.300  11.722 -0.2312  0.0598  0.0262
 4823W        W 8567   0.690   0.942   2.774  0.0548 -0.1022 -0.3076
 4824W        W 8568   6.912   6.066  10.697 -0.2036  0.4565 -0.1109
 4825W        W 8569   1.336   9.087   2.819 -0.0468  0.4566  0.0174
 4826W        W 8570   8.776   7.984   2.322 -0.3581 -0.1760 -0.0924
 4827W        W 8571   2.745   2.404   2.093 -0.0572 -0.1069  0.1787
 4828W        W 8572   0.075   2.256  11.648  0.0849  0.0521  0.4307
 4829W        W 8573   2.326   7.378  10.951 -0.3437  0.2207  0.3637
 4830W        W 8574   8.414   5.435   1.440 -0.3440 -0.1145  0.1070
 4831W        W 8575   9.724   2.682  11.926 -0.0424 -0.0424  0.1677
 4832W        W 8576   2.321   0.276  11.848 -0.0843  0.1598  0.0763
 4833W        W 8577   6.125   9.438   4.899  0.0616 -0.1379 -0.0078
 4834W        W 8578   1.988   5.775   1.224  0.0013  0.1193 -0.0311
 4835W        W 8579   9.614   4.360  11.864  0.2067 -0.1327  0.5473
 4836W        W 8580   5.738   8.776   2.110 -0.0006  0.2702  0.1318
 4837W        W 8581   3.065   7.035   2.457 -0.0448 -0.1039 -0.2486
 4838W        W 8582   0.301   9.885  12.498  0.0932  0.0304 -0.0901
 4839W        W 8583   3.084   5.138   0.608 -0.0658 -0.4514  0.0685
 4840W        W 8584   0.235   5.988   0.095 -0.2539 -0.3626  0.3719
 4841W        W 8585   8.912   7.650   0.268 -0.1276  0.1197 -0.0510
 4842W        W 8586   2.276   9.824   0.092 -0.1303 -0.1741 -0.0122
 4843W        W 8587   3.011   5.685   3.975 -0.2012  0.0730  0.0590
 4844W        W 8588   9.817   4.207  11.353 -0.3346 -0.1833 -0.3590
 4845W        W 8589   7.758   8.525   4.185 -0.1750  0.2691  0.2796
 4846W        W 8590   0.398   8.165   3.701  0.1024  0.5308  0.0791
 4847W        W 8591   7.760   4.008  10.945  0.2754 -0.1535  0.1669
 4848W        W 8592   8.684   7.431   1.200  0.0334 -0.0102  0.0530
 4849W        W 8593   5.469   8.690   9.653  0.1518 -0.2240 -0.1535
 4850W        W 8594   5.423   0.662   3.569  0.3660 -0.2440 -0.1081
 4851W        W 8595   3.136   6.930   2.945  0.1433  0.1892  0.0381
 4852W        W 8596   3.138   0.097   0.549 -0.1419 -0.1277  0.1416
 4853W        W 8597   7.318   7.087  11.848  0.1736 -0.0454  0.0440
 4854W        W 8598   7.524   8.598   2.150  0.1796 -0.0595 -0.1533
 4855W        W 8599   9.293   8.720   3.307 -0.1122 -0.3771  0.0791
 4856W        W 8600   4.444   9.573   0.676 -0.1383  0.2050  0.2956
 4857W        W 8601   3.445   1.139   0.141  0.0712  0.2299 -0.2137
 4858W        W 8602   9.355   5.751   9.397 -0.1603 -0.1100 -0.1244
 4859W        W 8603   4.482   5.355   3.344  0.3403  0.0999  0.3838
 4860W        W 8604   5.232   5.424   1.194  0.0081  0.1329 -0.0677
 4861W        W 8605   9.749   4.607   9.853  0.0128 -0.1460  0.0177
 4862W        W 8606   1.475   5.849  10.539  0.1658  0.0041 -0.1379
 4863W        W 8607   3.865   7.684   9.116 -0.1525  0.0885  0.0580
 4864W        W 8608   7.670   3.231  11.942 -0.2226 -0.1155 -0.0181
 4865W        W 8609   4.608   7.351   4.967 -0.0015 -0.0946 -0.2350
 4866W        W 8610   0.849   9.859  11.944  0.0421 -0.3385  0.2242
 4867W        W 8611   6.194   6.553  10.624  0.0996 -0.0392  0.2700
 4868W        W 8612   4.903   9.116   8.700 -0.0238  0.1524  0.0576
 4869W        W 8613   4.852   6.951  10.113 -0.2119  0.0157  0.0370
 4870W        W 8614   0.113   7.407   1.155 -0.0069 -0.0690 -0.1655
 4871W        W 8615   2.908   5.937  11.787  0.1520 -0.0274  0.1108
 4872W        W 8616   3.500   3.745  11.907 -0.1413  0.2586 -0.0421
 4873W        W 8617   2.559   1.541   9.734 -0.0644  0.0039 -0.1245
 4874W        W 8618   2.713   8.135  12.606 -0.1161 -0.1287 -0.2614
 4875W        W 8619   1.261   5.049   3.140  0.1129  0.3935  0.2058
 4876W        W 8620   7.558   1.101   4.473  0.0685 -0.0910 -0.0535
 4877W        W 8621   4.448   6.757  10.762  0.0957 -0.2717  0.0030
 4878W        W 8622   3.321   6.729  12.184 -0.4040 -0.1731 -0.0288
 4879W        W 8623   1.630   2.086   4.786  0.0797  0.3807  0.2958
 4880W        W 8624   5.777   7.451  10.130 -0.0974  0.0075 -0.0880
 4881W        W 8625   9.253   4.425   1.088  0.3800  0.0868  0.0532
 4882W        W 8626   3.690   9.679  10.845  0.0422 -0.0167  0.0589
 4883W        W 8627   5.970   8.487   4.396  0.1256  0.0511  0.0533
 4884W        W 8628   9.477   1.658   4.602 -0.1912 -0.0734  0.0595
 4885W        W 8629   5.895   7.518  11.612 -0.0122  0.1696 -0.0200
 4886W        W 8630   6.217   5.004   0.098 -0.1184 -0.1470  0.2324
 4887W        W 8631   3.615   5.771   1.138  0.0651  0.2365 -0.2581
 4888W        W 8632   1.598   8.056   3.773  0.0951 -0.0278  0.0493
 4889W        W 8633   5.236   6.045   2.225 -0.0293  0.0083  0.1250
 4890W        W 8634   3.949   3.350  12.814  0.0489  0.0049 -0.0517
 4891W        W 8635   7.944   8.853   2.463  0.2067 -0.1021 -0.0699
 4892W        W 8636   3.539   9.534   8.619  0.3134  0.1085  0.0486
 4893W        W 8637   9.110   5.390   3.608  0.0337 -0.1097  0.0142
 4894W        W 8638   9.206   9.168   3.844 -0.2951  0.1193  0.0175
 4895W        W 8639   1.552   0.343   1.583  0.1160 -0.0914  0.2958
 4896W        W 8640   6.729   0.115   3.025 -0.2204 -0.0476  0.0956
 4897W        W 8641   0.655   5.686   3.166 -0.0165 -0.6681  0.6052
 4898W        W 8642   7.263   8.038  11.240 -0.0987  0.0205 -0.1803
 4899W        W 8643   1.033   5.005   0.172  0.0807  0.0504  0.1314
 4900W        W 8644   6.398   6.627  11.607 -0.1135  0.1443  0.2090
 4901W        W 8645   6.087   6.982  11.181  0.2389 -0.1151  0.1280
 4902W        W 8646   0.237   7.661   3.636  0.0993  0.0047 -0.4015
 4903W        W 8647   0.203   3.161   9.087 -0.0214 -0.0356 -0.2020
 4904W        W 8648   9.893   9.664   2.314 -0.1019  0.2228 -0.0281
 4905W        W 8649   5.642   8.780  11.314  0.0973  0.0478 -0.2166
 4906W        W 8650   7.827   1.864   0.762 -0.0963 -0.3372  0.3483
 4907W        W 8651   0.369   9.730   0.503 -0.0045 -0.4464 -0.1891
 4908W        W 8652   5.493   0.191   1.075 -0.2937  0.2567  0.1111
 4909W        W 8653   3.800   8.618   9.801  0.1373  0.0670  0.2191
 4910W        W 8654   5.442   7.068   3.093 -0.0381 -0.2787  0.2509
 4911W        W 8655   8.641   2.966  12.458  0.1289  0.0216 -0.2987
 4912W        W 8656   1.002   6.077  10.395 -0.1662  0.0259 -0.1368
 4913W        W 8657   4.043   8.199   2.048 -0.1375  0.1090  0.0063
 4914W        W 8658   6.806   6.511  10.998 -0.1089  0.2791 -0.1099
 4915W        W 8659   2.432   7.771   1.364 -0.1969 -0.2408 -0.0767
 4916W        W 8660   8.900   0.061  12.825 -0.1796  0.1477 -0.0835
 4917W        W 8661   2.863   0.825   1.343  0.1823 -0.0942  0.1291
 4918W        W 8662   9.319   9.816  12.537 -0.1308  0.1545 -0.1441
 4919W        W 8663   8.691   7.484   1.737  0.0719 -0.1640  0.1361
 4920W        W 8664   6.693   8.467  11.046 -0.2183  0.1240  0.0843
 4921W        W 8665   6.585   3.875   0.851  0.2553  0.0597  0.2193
 4922W        W 8666   9.056   8.165   9.621 -0.0343 -0.0352 -0.1831
 4923W        W 8667   8.058   7.596   0.476 -0.1885  0.1244 -0.1674
 4924W        W 8668   9.410   5.707   0.683 -0.1374 -0.1462  0.1078
 4925W        W 8669   1.452   7.040  11.819 -0.0435 -0.1739 -0.4012
 4926W        W 8670   6.999   1.804   0.890  0.3203 -0.1570 -0.2294
 4927W        W 8671   3.858   2.827  12.657 -0.0909  0.1446 -0.0087
 4928W        W 8672   6.927   5.968   3.292 -0.0157 -0.1457  0.1449
 4929W        W 8673   2.799   2.634   0.515 -0.0913 -0.0736 -0.3323
 4930W        W 8674   4.415   6.111   8.829  0.0914  0.0203  0.0178
 4931W        W 8675   0.895   5.871   0.659 -0.3045 -0.0586  0.6909
 4932W        W 8676   0.415   3.618  12.818  0.1546  0.1558  0.1698
 4933W        W 8677   1.347   5.897   2.507 -0.0250  0.0078  0.2231
 4934W        W 8678   9.445   4.789   0.604 -0.2579 -0.2039  0.0060
 4935W        W 8679   0.334   0.294   9.233 -0.0832  0.2355 -0.3886
 4936W        W 8680   7.866   9.618  11.897  0.2221 -0.1326  0.0820
 4937W        W 8681   4.178   2.325  10.224  0.2771 -0.1873  0.3882
 4938W        W 8682   7.918   0.863  12.499  0.1076 -0.3835  0.1731
 4939W        W 8683   6.140   9.089   8.200 -0.1233 -0.2910 -0.1198
 4940W        W 8684   3.067   5.520   2.847 -0.0274 -0.0548 -0.3371
 4941W        W 8685   1.142   7.346   3.614  0.3687 -0.0744  0.2838
 4942W        W 8686   5.895   5.604  10.180 -0.0875  0.3516 -0.0512
 4943W        W 8687   6.299   8.453   2.773  0.0105 -0.1992 -0.3711
 4944W        W 8688   1.111   6.145   3.391  0.5471  0.0446  0.3420
 4945W        W 8689   7.405   5.143   2.170 -0.2142  0.1549  0.2858
 4946W        W 8690   0.055   7.155   8.446  0.2659 -0.0945  0.2130
 4947W        W 8691   4.837   1.992   2.479  0.1999 -0.2048 -0.1855
 4948W        W 8692   6.497   5.499   2.164  0.3792 -0.0101  0.0994
 4949W        W 8693   5.422   8.134   9.366 -0.4149  0.2699  0.2166
 4950W        W 8694   4.833   6.222   9.633  0.1759  0.2499  0.3877
 4951W        W 8695   8.700   7.852   8.762 -0.2648 -0.0554 -0.2054
 4952W        W 8696   6.482   8.307   8.777 -0.0545  0.0311 -0.3860
 4953W        W 8697   3.096   4.716   1.857  0.2195  0.0168  0.0932
 4954W        W 8698   0.110   3.617   1.372  0.0873  0.0893  0.1870
 4955W        W 8699   0.401   3.869   8.904 -0.0025 -0.0213  0.1905
 4956W        W 8700   1.963   1.423   2.290  0.1411 -0.0478 -0.3294
 4957W        W 8701   0.481   9.488   3.631 -0.1788 -0.0663  0.1935
 4958W        W 8702   4.016   3.262   0.730  0.0219 -0.1684  0.0184
 4959W        W 8703   3.982   4.431   9.538  0.2934 -0.1024  0.0300
 4960W        W 8704   4.185   8.034   9.243 -0.1613  0.3081  0.1021
 4961W        W 8705   1.478   6.701  11.021  0.4437 -0.0558  0.0215
 4962W        W 8706   5.518   5.796  11.124 -0.1041  0.2567 -0.1880
 4963W        W 8707   4.252   2.458  11.797  0.1778  0.2112  0.2395
 4964W        W 8708   7.113   9.534   1.641 -0.0843 -0.2586 -0.0110
 4965W        W 8709   7.253   2.437  11.893  0.0659  0.0568 -0.1431
 4966W        W 8710   1.791   3.752   0.136  0.0345  0.3766 -0.0142
 4967W        W 8711   3.604   8.068   3.018 -0.0208  0.1120  0.1950
 4968W        W 8712   3.322   7.099  10.966 -0.3667  0.2075  0.0778
 4969W        W 8713   1.437   6.778   1.238 -0.1010  0.3998  0.5658
 4970W        W 8714   2.086   7.636  11.562 -0.2962 -0.0456  0.0638
 4971W        W 8715   5.505   4.488   2.413  0.1300  0.0934  0.0170
 4972W        W 8716   2.476   1.946   1.915  0.1010 -0.4678  0.3020
 4973W        W 8717   7.938   6.841   0.191  0.2458  0.0599 -0.2955
 4974W        W 8718   8.016   4.032   0.343 -0.1199  0.0143 -0.1730
 4975W        W 8719   9.178   2.810   1.994  0.1049  0.1172 -0.0871
 4976W        W 8720   2.139   5.132   2.791 -0.0142 -0.0888 -0.0163
 4977W        W 8721   5.617   1.939  11.472  0.0421 -0.0741 -0.2129
 4978W        W 8722   9.641   6.018  12.168 -0.1341  0.2019  0.0337
 4979W        W 8723   4.994   3.600  12.129  0.2885  0.0011  0.1249
 4980W        W 8724   2.801   9.799  10.471  0.1604  0.0047 -0.0365
 4981W        W 8725   6.724   4.023  10.941  0.0400 -0.2792  0.0507
 4982W        W 8726   5.277   0.811   2.714 -0.0521  0.1589  0.0352
 4983W        W 8727   7.711   2.223   2.325 -0.1487  0.3739 -0.1899
 4984W        W 8728   1.828   6.266   0.390 -0.1070  0.2113 -0.1228
 4985W        W 8729   6.558   2.297  10.985 -0.2095 -0.3595  0.0443
 4986W        W 8730   7.848   0.648   0.401 -0.4341 -0.2567 -0.0851
 4987W        W 8731   7.408   9.606   4.049 -0.1062 -0.0309  0.1119
 4988W        W 8732   2.952   0.304   2.759  0.0020  0.1581  0.2863
 4989W        W 8733   3.022   1.924  11.183  0.4803 -0.1732  0.1665
 4990W        W 8734   1.924   2.304  11.841 -0.2326 -0.1204  0.2056
 4991W        W 8735   4.069   8.510   2.835  0.1687  0.3069  0.2407
 4992W        W 8736   9.640   0.364   3.261 -0.0079 -0.3993  0.1391
 4993W        W 8737   6.921   0.189   1.322 -0.2255 -0.3200 -0.0151
 4994W        W 8738   8.906   9.145   3.258 -0.0762  0.2345 -0.2754
 4995W        W 8739   4.218   3.352  12.075 -0.3548  0.0908 -0.2109
 4996W        W 8740   8.470   3.071  11.552  0.0657 -0.0381 -0.0022
 4997W        W 8741   9.017   9.720   3.569  0.1018  0.1269  0.1388
 4998W        W 8742   1.616   7.600   1.684  0.3193 -0.1744 -0.1817
 4999W        W 8743   9.398   8.863  11.873  0.2252  0.2081  0.1896
 5000W        W 8744   2.651   0.570  12.184 -0.1613  0.1317 -0.0816
 5001W        W 8745   6.952   4.077   1.208 -0.0318 -0.3579  0.1124
 5002W        W 8746   0.942   8.997  10.553 -0.0732 -0.0997  0.0060
 5003W        W 8747   8.208   0.127   0.995  0.2363 -0.0080 -0.1343
 5004W        W 8748   2.487   4.719   9.634  0.0513 -0.1109 -0.1704
 5005W        W 8749   8.667   2.951   3.560  0.0457 -0.3255 -0.1526
 5006W        W 8750   7.886   8.036  11.102  0.0878  0.1998  0.0044
 5007W        W 8751   0.723   9.203   9.168 -0.0414 -0.3229  0.0254
 5008W        W 8752   6.175   5.350  12.498  0.0283 -0.0158  0.0747
 5009W        W 8753   8.534   7.822   4.028 -0.0086  0.4988  0.0859
 5010W        W 8754   3.591   0.505   9.578 -0.2713 -0.1245 -0.1006
 5011W        W 8755   8.067   0.362   2.133 -0.0326 -0.0044 -0.1740
 5012W        W 8756   0.925   9.020   8.749 -0.0959  0.1701 -0.0838
 5013W        W 8757   9.072   8.004   2.829 -0.0835  0.0963  0.1465
 5014W        W 8758   5.409   2.714   0.633  0.1461 -0.3612  0.3503
 5015W        W 8759   6.491   3.562   0.471 -0.0571 -0.2669 -0.0319
 5016W        W 8760   8.552   3.230   0.783 -0.2029  0.0207 -0.2681
 5017W        W 8761   7.124   5.002   9.791 -0.0719 -0.2453  0.1029
 5018W        W 8762   6.624   9.854  11.862  0.2006 -0.0489  0.0803
 5019W        W 8763   9.840   1.411  12.826  0.1583 -0.4549 -0.2427
 5020W        W 8764   3.146   0.905   0.924 -0.0192  0.0797 -0.0613
 5021W        W 8765   8.102   5.949   0.719 -0.2259  0.1532  0.2160
 5022W        W 8766   3.676   1.586   2.295 -0.1004  0.0924 -0.0149
 5023W        W 8767   7.536   0.545  12.860 -0.2134 -0.1461 -0.4609
 5024W        W 8768   5.524   8.618  10.226 -0.0953 -0.0154  0.0844
 5025W        W 8769   0.248   0.438   1.225  0.4426  0.2671  0.3237
 5026W        W 8770   9.495   8.402  10.215 -0.0867  0.0311  0.0604
 5027W        W 8771   3.783   5.932   0.027  0.0160 -0.0242  0.1788
 5028W        W 8772   7.114   5.181  12.470  0.2675 -0.1392 -0.0637
 5029W        W 8773   2.380   7.315   0.417 -0.3283  0.0212 -0.1556
 5030W        W 8774   8.721   9.476   1.639  0.0717  0.1385  0.0568
 5031W        W 8775   6.712   4.895   0.057  0.2587  0.2993 -0.1314
 5032W        W 8776   6.216   0.849   3.077  0.2592  0.1477  0.1648
 5033W        W 8777   3.378   2.416  10.984 -0.1179 -0.2343  0.0533
 5034W        W 8778   3.182   1.743   0.827  0.1315  0.1063 -0.0706
 5035W        W 8779   9.091   1.892   4.543 -0.1891 -0.1370 -0.2721
 5036W        W 8780   8.291   8.111   4.650 -0.1576  0.4572  0.0331
 5037W        W 8781   0.661   8.909   0.512  0.0878 -0.0796 -0.1490
 5038W        W 8782   6.053   1.016  10.564  0.3526  0.2227  0.0684
 5039W        W 8783   5.132   3.792  12.605  0.2735 -0.0222 -0.0405
 5040W        W 8784   3.341   6.135   1.366  0.2400  0.2567 -0.0893
 5041W        W 8785   0.561   0.140   1.518 -0.1627  0.0800  0.2951
 5042W        W 8786   1.626   4.005  10.862 -0.0785  0.0199  0.1150
 5043W        W 8787   9.655   3.920   2.324 -0.2939 -0.3446 -0.1825
 5044W        W 8788   8.006   6.879  12.487 -0.2308 -0.1879 -0.1659
 5045W        W 8789   9.696   8.108   2.104  0.1789 -0.2202  0.3120
 5046W        W 8790   6.438   5.048   9.776  0.0801 -0.0507  0.0617
 5047W        W 8791   5.135   9.225   3.819 -0.0819 -0.0882  0.0503
 5048W        W 8792   2.239   0.016   1.120  0.0491 -0.0033 -0.0076
 5049W        W 8793   9.597   6.570  11.472  0.1469 -0.0970  0.5028
 5050W        W 8794   2.192   7.376  12.389  0.1166 -0.0078  0.0019
 5051W        W 8795   1.180   3.813  11.151 -0.2729 -0.0029  0.0092
 5052W        W 8796   6.921   0.090   4.084 -0.0176 -0.1867  0.0098
 5053W        W 8797   5.289   5.946  11.520 -0.3630 -0.1007 -0.2484
 5054W        W 8798   6.016   7.968   4.234  0.2357 -0.0345  0.0523
 5055W        W 8799   1.550   7.383   3.288  0.1369 -0.1601  0.1670
 5056W        W 8800   8.370   7.740   3.481 -0.2032 -0.1481  0.0823
 5057W        W 8801   1.917   5.551   9.034  0.0533  0.1450 -0.0958
 5058W        W 8802   0.253   7.393   4.148 -0.0041 -0.1548 -0.2658
 5059W        W 8803   9.794   6.761   9.993 -0.1913  0.3097 -0.1782
 5060W        W 8804   9.648   0.965   1.279  0.0888  0.0172  0.0924
 5061W        W 8805   3.648   1.268  10.972 -0.3949 -0.2096  0.0102
 5062W        W 8806   0.819   0.133  10.951  0.1944 -0.0711 -0.2023
 5063W        W 8807   8.927   7.556   3.782  0.2043 -0.0179  0.5613
 5064W        W 8808   0.237   3.162   0.017 -0.0170  0.1436  0.2285
 5065W        W 8809   9.803   8.037   4.835  0.3488 -0.4303  0.0669
 5066W        W 8810   4.741   2.352   1.830 -0.1060  0.2051  0.2122
 5067W        W 8811   8.253   1.953  11.822  0.2332 -0.1034  0.0849
 5068W        W 8812   3.556   0.149   4.111 -0.2288 -0.1834  0.0438
 5069W        W 8813   4.753   3.358  11.781 -0.0660  0.1429  0.3610
 5070W        W 8814   4.309   4.109   1.987  0.1481  0.0790 -0.2931
 5071W        W 8815   1.361   5.677  12.710 -0.2297 -0.1877  0.3999
 5072W        W 8816   8.412   1.013  12.820 -0.1090  0.1954 -0.1247
 5073W        W 8817   3.823   1.144   2.021  0.1661 -0.3339  0.0360
 5074W        W 8818   3.734   6.902   4.168 -0.2501 -0.2799 -0.1320
 5075W        W 8819   5.710   6.791   8.177 -0.0620 -0.1821  0.0765
 5076W        W 8820   5.492   7.182  11.907  0.3718 -0.1518  0.1594
 5077W        W 8821   0.606   6.324  12.835  0.0784 -0.2070  0.3126
 5078W        W 8822   4.367   5.269   2.803  0.0123 -0.0119  0.0253
 5079W        W 8823   4.015   0.854   1.204  0.0541 -0.1682 -0.1598
 5080W        W 8824   5.451   3.224   1.783  0.0503  0.0076 -0.1469
 5081W        W 8825   0.667   7.178   8.759 -0.0058  0.0467 -0.1933
 5082W        W 8826   5.952   9.416  12.913  0.0665  0.0769 -0.1524
 5083W        W 8827   6.862   5.292   1.433 -0.0328 -0.0896  0.3129
 5084W        W 8828   9.387   8.331   0.895 -0.1561  0.0464  0.1043
 5085W        W 8829   4.937   9.171   4.722 -0.0558  0.0879 -0.1179
 5086W        W 8830   4.994   7.216  12.715  0.2429  0.1174  0.2098
 5087W        W 8831   6.118   5.944   9.973  0.0328 -0.0875  0.2672
 5088W        W 8832   0.810   8.181   0.311 -0.1309 -0.1227 -0.1175
 5089W        W 8833   2.019   6.205  11.650  0.2371  0.2879  0.3735
 5090W        W 8834   3.764   6.126  11.707 -0.0629 -0.0771  0.0150
 5091W        W 8835   3.394   4.916   9.383 -0.0376 -0.0611  0.3265
 5092W        W 8836   4.800   4.120  11.500  0.3016  0.0394 -0.0290
 5093W        W 8837   0.771   4.416   3.237 -0.1645  0.2427 -0.0471
 5094W        W 8838   6.687   4.463   0.308 -0.1577 -0.0771  0.0786
 5095W        W 8839   8.721   2.197   0.891 -0.2978 -0.1775 -0.3007
 5096W        W 8840   0.934   6.124  11.970 -0.1373 -0.0989  0.0570
 5097W        W 8841   1.359   8.596   9.604 -0.1079 -0.2209  0.3304
 5098W        W 8842   2.725   5.707   0.764  0.2295 -0.0918  0.1501
 5099W        W 8843   5.220   1.291   0.344 -0.0072  0.1804 -0.1198
 5100W        W 8844   5.568   3.067  12.527  0.2680 -0.0007  0.1642
 5101W        W 8845   9.783   4.191   4.585  0.1932 -0.2579  0.2739
 5102W        W 8846   3.371   1.138   2.412 -0.0870 -0.1872 -0.2115
 5103W        W 8847   5.840   1.558  11.007  0.1802 -0.0693  0.0190
 5104W        W 8848   3.024   8.824  12.507 -0.0922  0.2311  0.0199
 5105W        W 8849   0.645   5.030   1.611  0.2341  0.2217 -0.1736
 5106W        W 8850   7.823   8.210   3.709 -0.3704 -0.0267 -0.0769
 5107W        W 8851   7.440   1.923   9.272  0.2257  0.5986  0.0618
 5108W        W 8852   8.194   4.292   7.898  0.2597 -0.3386 -0.2898
 5109W        W 8853   8.583   5.841   4.488  0.4299 -0.4069  0.0789
 5110W        W 8854   1.799   2.914   2.841 -0.4056 -0.0920 -0.1279
 5111W        W 8855   4.493   1.271  10.191  0.0306 -0.0003 -0.2556
 5112W        W 8856   4.063   5.441  10.829  0.0073 -0.2603 -0.1157
 5113W        W 8857   1.233   6.349   2.907  0.0004 -0.1205 -0.1675
 5114W        W 8858   4.005   9.629  10.011  0.0285 -0.1402 -0.1211
 5115W        W 8859   2.675   0.961   0.819  0.0335  0.4506  0.0117
 5116W        W 8860   1.560   3.926   1.309  0.1661  0.1131 -0.5101
 5117W        W 8861   9.013   9.796   1.367  0.0493  0.1828 -0.2005
 5118W        W 8862   1.413   4.305   3.727 -0.1658  0.1099 -0.0172
 5119W        W 8863   2.555   0.472   1.064  0.1086 -0.0652  0.0701
 5120W        W 8864   0.716   3.298  12.011 -0.1345  0.1175  0.0790
 5121W        W 8865   1.425   7.891   8.525  0.0543  0.0556  0.0719
 5122W        W 8866   0.189   9.114   0.526  0.0233  0.3083 -0.0052
 5123W        W 8867   1.302   4.536   2.906 -0.1622  0.2563 -0.1735
 5124W        W 8868   2.831   9.556   1.984 -0.0264  0.1635  0.1497
 5125W        W 8869   2.270   0.969  10.670 -0.2335  0.0215 -0.0684
 5126W        W 8870   5.665   4.227  11.452  0.1035 -0.1759  0.2606
 5127W        W 8871   5.021   8.246  12.626 -0.2645 -0.1145 -0.0578
 5128W        W 8872   7.225   5.584   0.191  0.0252  0.1454 -0.0967
 5129W        W 8873   8.752   2.624  12.835 -0.0213  0.1529 -0.0333
 5130W        W 8874   2.727   8.899   3.008 -0.1163  0.0984 -0.0264
 5131W        W 8875   7.289   3.896  10.031  0.2226 -0.3368 -0.5018
 5132W        W 8876   2.274   2.003   3.559  0.1729 -0.0661 -0.2274
 5133W        W 8877   9.713   5.026  10.271 -0.0965 -0.3803  0.1880
 5134W        W 8878   8.662   4.255  11.849 -0.0748  0.2368  0.0542
 5135W        W 8879   4.318   2.268  11.225  0.2645 -0.0521 -0.1232
 5136W        W 8880   9.869   7.956  11.490 -0.4139 -0.0516 -0.2690
 5137W        W 8881   6.236   5.667   1.261 -0.1544 -0.1818  0.0262
 5138W        W 8882   4.335   7.686  10.638  0.1904 -0.1290  0.3116
 5139W        W 8883   3.558   5.066   1.829  0.3745  0.0611  0.3594
 5140W        W 8884   3.606   9.798  11.355 -0.1592  0.0315 -0.1459
 5141W        W 8885   4.945   0.088  10.684 -0.1489  0.0083 -0.0196
 5142W        W 8886   1.297   0.547   9.075  0.1910 -0.1861 -0.3175
 5143W        W 8887   9.002   9.052   0.747 -0.3532  0.0154  0.1616
 5144W        W 8888   0.759   8.723   3.411 -0.0650  0.2648  0.1993
 5145W        W 8889   3.155   9.896   8.793  0.0690  0.3938 -0.0124
 5146W        W 8890   0.121   9.513   5.386  0.2807 -0.1807  0.1360
 5147W        W 8891   4.078   7.739   9.604 -0.1355  0.2112  0.0291
 5148W        W 8892   8.390   4.592   9.629 -0.2111 -0.1082 -0.4006
 5149W        W 8893   2.695   4.354   3.843  0.0982 -0.1165 -0.0975
 5150W        W 8894   8.166   4.709   1.957  0.0611  0.2525  0.0788
 5151W        W 8895   6.736   9.031  11.249  0.2612 -0.4566 -0.2552
 5152W        W 8896   1.994   3.033   8.630 -0.0760  0.4784 -0.0183
 5153W        W 8897   9.675   4.775   2.457 -0.0577  0.3728 -0.1254
 5154W        W 8898   0.396   8.999   4.483 -0.1972  0.0203  0.3929
 5155W        W 8899   2.808   7.039  10.814  0.0867 -0.1079  0.0689
 5156W        W 8900   7.437   8.726   2.633  0.0432  0.1078 -0.0220
 5157W        W 8901   8.655   2.276   2.927  0.0308  0.0506 -0.2522
 5158W        W 8902   5.204   3.515  10.319 -0.2224 -0.0952 -0.0162
 5159W        W 8903   8.326   2.977  12.825  0.0350 -0.2403  0.0571
 5160W        W 8904   8.806   2.502   2.073 -0.1679  0.1608  0.1933
 5161W        W 8905   4.016   3.757   2.280 -0.1557  0.1580  0.1369
 5162W        W 8906   7.288   7.484  12.370  0.1180  0.0620  0.2543
 5163W        W 8907   9.176   2.542   0.337 -0.2490  0.0019 -0.1597
 5164W        W 8908   5.424   0.706   1.096  0.0895 -0.1417  0.0165
 5165W        W 8909   7.395   5.408   1.158  0.4054 -0.1807 -0.2342
 5166W        W 8910   5.380   5.660  10.283 -0.1621  0.0073 -0.2047
 5167W        W 8911   8.740   5.246  10.038 -0.0264 -0.0243  0.1581
 5168W        W 8912   8.512   5.903   8.128 -0.0093 -0.0355 -0.1775
 5169W        W 8913   5.570   4.532  12.837  0.0708 -0.0452 -0.1165
 5170W        W 8914   9.877   8.780  12.593  0.0493  0.1278 -0.1785
 5171W        W 8915   1.870   9.628  12.875  0.1571  0.1490  0.1021
 5172W        W 8916   2.286   9.688  10.671  0.4224  0.0960 -0.1830
 5173W        W 8917   0.879   7.935   2.274 -0.0260  0.0209  0.0324
 5174W        W 8918   7.931   1.155  12.095  0.1888  0.1746  0.0242
 5175W        W 8919   8.611   2.384   3.773  0.2905  0.2121 -0.0240
 5176W        W 8920   6.567   6.091   1.110  0.0057 -0.0807 -0.1394
 5177W        W 8921   2.220   5.542   2.538  0.1175 -0.1626  0.0411
 5178W        W 8922   7.338   6.822   3.266  0.0331 -0.2125 -0.1005
 5179W        W 8923   3.592   3.632  12.719  0.1257  0.0702 -0.4690
 5180W        W 8924   3.244   4.198   3.948 -0.4842 -0.2059  0.1386
 5181W        W 8925   5.450   5.104  10.225  0.0895  0.1237  0.5739
 5182W        W 8926   4.508   5.066  12.307  0.0550  0.0250 -0.3200
 5183W        W 8927   5.454   0.434  11.510 -0.1363  0.0254  0.4770
 5184W        W 8928   7.236   6.395   1.367 -0.0084  0.2675  0.0073
 5185W        W 8929   8.178   8.417   0.286 -0.1105  0.2022  0.1214
 5186W        W 8930   3.213   9.110  10.889  0.0697 -0.0488  0.0518
 5187W        W 8931   3.255   8.989   0.729 -0.1071 -0.0068 -0.1168
 5188W        W 8932   2.980   7.769   8.994 -0.0242 -0.2268  0.2649
 5189W        W 8933   1.146   2.589   0.674  0.0488 -0.0988  0.1834
 5190W        W 8934   0.507   8.163   2.774 -0.0398  0.1180 -0.2620
 5191W        W 8935   0.991   0.352   1.239 -0.1291 -0.1805 -0.1952
 5192W        W 8936   2.895   1.146   2.138  0.2550  0.0888 -0.0215
 5193W        W 8937   8.841   9.775   4.463  0.0533  0.0049  0.2091
 5194W        W 8938   1.850   3.099  10.059  0.1365 -0.2237 -0.2657
 5195W        W 8939   4.143   0.217   1.841 -0.0821 -0.2595  0.1929
 5196W        W 8940   4.699   8.327  11.306 -0.0665  0.2450  0.0396
 5197W        W 8941   7.830   4.540  11.818  0.0781 -0.0248 -0.0485
 5198W        W 8942   8.181   0.026  12.216 -0.3983 -0.3222 -0.2910
 5199W        W 8943   9.490   2.829   1.583  0.0028  0.1644  0.3555
 5200W        W 8944   5.091   0.487   2.209  0.0803  0.1644  0.0314
 5201W        W 8945   6.333   0.580  12.669  0.4908  0.0730 -0.1502
 5202W        W 8946   8.690   0.596   9.931 -0.0457  0.3579 -0.2866
 5203W        W 8947   3.788   6.277   9.620  0.1199 -0.0504 -0.1979
 5204W        W 8948   0.564   4.110   0.055 -0.0475  0.2699  0.0437
 5205W        W 8949   9.625   8.226   2.607  0.0510 -0.3831 -0.1302
 5206W        W 8950   4.826   7.119  11.955  0.3297 -0.1692 -0.1181
 5207W        W 8951   3.030   6.378   3.074  0.0918  0.1721  0.1954
 5208W        W 8952   8.542   7.936   0.397 -0.0784  0.0595  0.1711
 5209W        W 8953   6.338   0.795   1.728 -0.3039  0.3302  0.3366
 5210W        W 8954   4.953   1.918   1.671  0.1355  0.2036 -0.0666
 5211W        W 8955   4.863   2.016   0.042  0.0718 -0.1554 -0.0404
 5212W        W 8956   9.737   7.506  11.634  0.1783  0.1589  0.1005
 5213W        W 8957   0.188   2.222  12.232 -0.0722  0.1687  0.1793
 5214W        W 8958   2.414   6.987  10.534 -0.0415 -0.5058 -0.0907
 5215W        W 8959   4.741   1.860   0.544  0.0171  0.2696  0.0573
 5216W        W 8960   6.110   3.578  11.261 -0.0387 -0.2574  0.1549
 5217W        W 8961   5.413   8.609   9.150 -0.1759 -0.2317 -0.2400
 5218W        W 8962   5.402   5.846   3.599 -0.2293 -0.1133 -0.1384
 5219W        W 8963   5.959   3.589   0.418  0.1386  0.0338 -0.2969
 5220W        W 8964   3.128   7.118   8.102 -0.1418 -0.0248 -0.4861
 5221W        W 8965   9.187   8.233   5.498  0.2186  0.0661  0.2732
 5222W        W 8966   6.653   4.788   3.577  0.0673 -0.0128 -0.0892
 5223W        W 8967   1.607   1.094   0.428 -0.0666  0.1852 -0.2125
 5224W        W 8968   1.699   4.830  12.591 -0.0862  0.3123  0.1358
 5225W        W 8969   5.352   2.809  10.859 -0.1551  0.3320 -0.3269
 5226W        W 8970   0.465   8.749   4.879  0.0155  0.0190  0.0239
 5227W        W 8971   7.459   3.550   2.239 -0.0870 -0.1297  0.0633
 5228W        W 8972   6.665   7.400   1.202  0.0035 -0.1851 -0.1416
 5229W        W 8973   4.805   0.791  11.762  0.0068 -0.3455 -0.1578
 5230W        W 8974   8.326   5.590  11.293 -0.2730 -0.1552  0.0243
 5231W        W 8975   0.104   2.359  10.499 -0.1616  0.2650  0.0049
 5232W        W 8976   5.707   9.619  10.631 -0.0303  0.0291  0.4015
 5233W        W 8977   4.888   6.420   2.199  0.0515 -0.0623 -0.2191
 5234W        W 8978   5.450   1.057  10.632  0.0728 -0.1574  0.0931
 5235W        W 8979   9.669   2.860  12.686 -0.1720  0.1483 -0.1997
 5236W        W 8980   2.568   3.275  11.701 -0.0248 -0.0806 -0.0927
 5237W        W 8981   9.706   5.246   0.860  0.0367 -0.0652  0.1208
 5238W        W 8982   6.391   3.047  10.001  0.2067 -0.1131  0.1502
 5239W        W 8983   7.218   8.836  12.530 -0.1208  0.0642  0.3642
 5240W        W 8984   7.066   3.026   2.812 -0.2110  0.2521 -0.2860
 5241W        W 8985   9.837   3.998   1.789 -0.0342 -0.0998 -0.0361
 5242W        W 8986   1.333   6.928   3.177 -0.2676 -0.2312 -0.1089
 5243W        W 8987   3.002   4.488   2.711  0.2860 -0.2160 -0.1931
 5244W        W 8988   7.397   1.386   9.191  0.2987 -0.2092 -0.0893
 5245W        W 8989   6.605   1.198   2.665 -0.2447 -0.0393  0.0991
 5246W        W 8990   2.825   9.466   4.178 -0.2925 -0.0221 -0.2293
 5247W        W 8991   4.719   8.862  12.458 -0.0691 -0.0966  0.3450
 5248W        W 8992   7.447   4.285  10.526  0.1093  0.1389 -0.1938
 5249W        W 8993   0.045   8.585   0.480  0.1959  0.2390  0.1265
 5250W        W 8994   2.443   3.864   1.352  0.1008  0.0815  0.0150
 5251W        W 8995   7.636   5.069   0.853  0.0785  0.0962 -0.1234
 5252W        W 8996   6.997   8.240  10.732 -0.0891 -0.0504  0.2477
 5253W        W 8997   2.167   4.270   1.687  0.1403  0.1148 -0.1758
 5254W        W 8998   8.016   7.771  11.741  0.3269  0.0687 -0.1587
 5255W        W 8999   5.066   8.240  10.391  0.1338 -0.1388  0.2129
 5256W        W 9000   1.997   7.749  12.911 -0.0224  0.1802  0.2462
 5257W        W 9001   7.590   2.483   1.169 -0.1993  0.1020  0.1362
 5258W        W 9002   6.526   6.271   2.784  0.0613 -0.1758  0.2291
 5259W        W 9003   4.062   4.965   1.049 -0.0284 -0.0267 -0.0642
 5260W        W 9004   7.931   6.128   0.143  0.0241  0.1408 -0.0768
 5261W        W 9005   9.450   0.995  10.752  0.0258  0.0287  0.3735
 5262W        W 9006   7.755   0.855  10.925 -0.1776  0.2727  0.0040
 5263W        W 9007   1.323   3.363   0.267 -0.1670 -0.1710  0.0920
 5264W        W 9008   5.469   6.026  10.641  0.1752  0.1643 -0.1419
 5265W        W 9009   0.503   0.756   0.894 -0.1694 -0.0507  0.0103
 5266W        W 9010   8.245   1.221  10.319 -0.1901 -0.1430  0.2804
 5267W        W 9011   0.966   7.396   2.120 -0.0823 -0.2084 -0.3740
 5268W        W 9012   4.151   6.290   2.901 -0.1152  0.4444  0.0765
 5269W        W 9013   8.137   2.956  12.294 -0.3805 -0.0479  0.3200
 5270W        W 9014   6.374   5.949   1.841 -0.0953 -0.1246  0.0001
 5271W        W 9015   0.609   4.727   0.073  0.2341  0.1750 -0.0977
 5272W        W 9016   6.271   7.850  11.804 -0.1729 -0.0578  0.0583
 5273W        W 9017   6.401   6.060  11.335  0.1477 -0.0771  0.1277
 5274W        W 9018   5.636   5.766   9.813 -0.1649 -0.0527 -0.1022
 5275W        W 9019   6.673   9.390   1.861  0.1504  0.0348 -0.0574
 5276W        W 9020   1.800   1.793  12.519  0.0609  0.1831  0.0272
 5277W        W 9021   3.744   7.279   2.012  0.1171  0.1873  0.1408
 5278W        W 9022   9.060   3.913  10.322 -0.0114 -0.0775  0.1606
 5279W        W 9023   3.004   0.280   4.048 -0.1473 -0.1131 -0.0337
 5280W        W 9024   0.167   0.552  11.538 -0.0231  0.0507 -0.1161
 5281W        W 9025   8.990   1.169   0.014 -0.2162 -0.2875 -0.1139
 5282W        W 9026   5.807   3.238  11.525  0.0698  0.2110  0.0215
 5283W        W 9027   8.657   2.480   0.367 -0.0808  0.1934  0.1493
 5284W        W 9028   8.179   9.100   2.974 -0.2514  0.2041  0.0626
 5285W        W 9029   1.162   2.579   9.150  0.0325  0.0357 -0.0284
 5286W        W 9030   6.960   8.946  10.797  0.0770  0.2086 -0.1391
 5287W        W 9031   7.246   3.160   8.718 -0.1910 -0.1991  0.1120
 5288W        W 9032   1.504   7.857  11.646 -0.1244 -0.0843  0.0798
 5289W        W 9033   8.610   9.543   3.256  0.0644 -0.0277  0.0917
 5290W        W 9034   4.981   2.364  10.261  0.4362  0.2555  0.1989
 5291W        W 9035   0.758   4.952  12.594 -0.0587 -0.3212 -0.3398
 5292W        W 9036   7.869   2.061   8.753 -0.2736  0.1771  0.1007
 5293W        W 9037   2.733   3.558   3.416  0.1048 -0.3178  0.1024
 5294W        W 9038   8.736   1.256  12.490 -0.1334  0.1877 -0.2332
 5295W        W 9039   7.980   3.361   9.666  0.0406  0.2230  0.1980
 5296W        W 9040   5.102   3.544  11.337 -0.2225  0.0739  0.0295
 5297W        W 9041   6.848   3.687   1.647  0.0055  0.2770 -0.2932
 5298W        W 9042   8.612   0.864   9.495  0.1020  0.1476 -0.4322
 5299W        W 9043   5.039   4.886  11.469 -0.1272  0.1452 -0.3187
 5300W        W 9044   1.091   7.796   3.886  0.1028 -0.1249 -0.0818
 5301W        W 9045   3.956   1.694   1.908  0.1110  0.0022 -0.0553
 5302W        W 9046   6.357   7.839   8.679  0.1075  0.0631 -0.1287
 5303W        W 9047   9.755   3.703   0.743  0.0469 -0.2174 -0.3260
 5304W        W 9048   0.609   1.436   9.476  0.0508  0.1458  0.0747
 5305W        W 9049   9.037   8.598   4.594 -0.0900 -0.0275 -0.2696
 5306W        W 9050   3.005   5.469  12.720 -0.0136  0.3288  0.1268
 5307W        W 9051   5.455   9.621  11.090  0.2522 -0.2615  0.0481
 5308W        W 9052   1.016   4.564  10.724  0.0587 -0.1804  0.3870
 5309W        W 9053   2.817   3.646   9.147 -0.1424 -0.1039  0.0442
 5310W        W 9054   3.844   9.748   3.820 -0.2812  0.1334  0.0738
 5311W        W 9055   2.287   6.242   0.649 -0.0612 -0.1599  0.3210
 5312W        W 9056   6.159   7.817  10.403  0.2522  0.0900 -0.2398
 5313W        W 9057   4.629   0.400   3.077  0.1401 -0.1262  0.0769
 5314W        W 9058   7.618   6.070  11.981  0.0253  0.1030 -0.1154
 5315W        W 9059   7.369   4.955   1.315 -0.1194  0.1290 -0.2587
 5316W        W 9060   6.997   4.559  10.312 -0.0378 -0.1131 -0.4813
 5317W        W 9061   7.470   4.084   9.599 -0.2233 -0.1671 -0.1213
 5318W        W 9062   1.732   9.887   9.893 -0.0449 -0.0649  0.3803
 5319W        W 9063   3.732   6.605   8.692  0.0733 -0.2767 -0.0299
 5320W        W 9064   0.615   9.188   8.381  0.0206  0.2495  0.0696
 5321W        W 9065   2.692   6.020   1.528  0.0311  0.0987 -0.0672
 5322W        W 9066   8.884   2.478  12.335 -0.0960 -0.3004 -0.3930
 5323W        W 9067   0.799   8.634   4.496  0.0433 -0.0832  0.2449
 5324W        W 9068   6.375   3.022   0.373  0.0051 -0.2212 -0.0117
 5325W        W 9069   1.332   4.801   8.397 -0.0989 -0.2136  0.4126
 5326W        W 9070   5.680   4.884   1.620  0.1295  0.1580  0.1161
 5327W        W 9071   1.095   6.902   3.896  0.0153 -0.2903  0.5078
 5328W        W 9072   1.173   3.764   1.766  0.1252  0.1857 -0.0748
 5329W        W 9073   7.249   3.329   8.041  0.0965 -0.0757 -0.1073
 5330W        W 9074   3.849   5.428   0.905  0.2147  0.0237 -0.2017
 5331W        W 9075   4.622   0.842   9.931 -0.3437  0.0930 -0.0090
 5332W        W 9076   8.283   8.234  12.217  0.0357 -0.2817  0.3658
 5333W        W 9077   4.949   1.040   9.417 -0.0790 -0.1659 -0.0631
 5334W        W 9078   1.715   9.741  11.597  0.1563  0.0231 -0.0589
 5335W        W 9079   9.595   9.388   9.923 -0.0183  0.3604  0.0791
 5336W        W 9080   3.507   2.214   1.615 -0.0404 -0.0279  0.2851
 5337W        W 9081   9.562   6.079   3.165 -0.0192  0.0833  0.1527
 5338W        W 9082   0.032   5.248   8.787  0.1628 -0.1523 -0.0485
 5339W        W 9083   3.101   0.143   4.913 -0.0223  0.2664  0.0155
 5340W        W 9084   8.710   9.763   3.986 -0.0756  0.1012 -0.0233
 5341W        W 9085   9.440   3.112  11.701  0.1434 -0.0778  0.1092
 5342W        W 9086   9.732   3.754   9.425  0.0422  0.1037  0.0965
 5343W        W 9087   9.071   0.249  10.870  0.0220  0.1033  0.0585
 5344W        W 9088   3.599   4.220  11.730  0.1385  0.0004  0.3883
 5345W        W 9089   8.227   9.889   3.187  0.2181  0.0200  0.1429
 5346W        W 9090   5.621   0.576   3.021 -0.2287  0.4323 -0.3762
 5347W        W 9091   2.675   7.918  11.854  0.0402  0.1374 -0.1788
 5348W        W 9092   4.398   7.381   0.663 -0.0532  0.2386 -0.0954
 5349W        W 9093   0.930   1.958  11.575  0.0721 -0.0134  0.0273
 5350W        W 9094   3.437   7.244  10.186 -0.1343  0.0184 -0.0506
 5351W        W 9095   1.623   4.514  11.257 -0.0369 -0.2614 -0.0610
 5352W        W 9096   6.838   8.256   3.269 -0.0682  0.1356  0.1606
 5353W        W 9097   0.768   2.153   1.185  0.0187 -0.0365  0.2844
 5354W        W 9098   8.601   3.195  10.983  0.5158 -0.3583  0.1924
 5355W        W 9099   8.820   6.694  10.237  0.1576  0.3343 -0.1660
 5356W        W 9100   3.458   7.174   8.507  0.0676 -0.2020  0.1451
 5357W        W 9101   0.073   4.144  10.021 -0.0031  0.0637 -0.0713
 5358W        W 9102   1.959   7.285   1.858  0.0246  0.0303  0.1427
 5359W        W 9103   8.830   3.699   9.142  0.0768  0.2704 -0.0332
 5360W        W 9104   4.507   7.842   9.907 -0.2083  0.3864 -0.0126
 5361W        W 9105   5.298   9.468   1.969 -0.0240  0.3918  0.0623
 5362W        W 9106   6.926   2.358   9.874  0.1268 -0.1269 -0.0342
 5363W        W 9107   3.962   1.285   1.419  0.3580  0.0332 -0.1258
 5364W        W 9108   9.034   6.276   0.155  0.0541  0.1800 -0.1188
 5365W        W 9109   6.702   9.154   9.863  0.1724  0.3520 -0.3230
 5366W        W 9110   2.209   8.274  10.631  0.0738  0.0090  0.2388
 5367W        W 9111   4.202   9.778   2.319  0.0113  0.3664  0.0686
 5368W        W 9112   1.246   2.044   2.100  0.1124 -0.0842  0.2633
 5369W        W 9113   2.296   1.312  12.865 -0.0548 -0.0037 -0.0640
 5370W        W 9114   6.760   6.583  12.477 -0.0828  0.1202 -0.0219
 5371W        W 9115   6.787   1.828  10.793  0.2635 -0.2015  0.2338
 5372W        W 9116   0.816   8.716   8.298  0.0863 -0.1625  0.0809
 5373W        W 9117   6.950   8.312  11.476 -0.0189 -0.0289 -0.2920
 5374W        W 9118   8.182   8.274   9.541 -0.2368  0.3251  0.0035
 5375W        W 9119   1.523   1.203  10.344 -0.2767  0.1314  0.1990
 5376W        W 9120   1.344   5.333   0.417  0.0314 -0.0252  0.1581
 5377W        W 9121   7.536   6.004   0.527 -0.1625 -0.0568  0.1129
 5378W        W 9122   8.075   9.370   3.359 -0.0825 -0.3007  0.1055
 5379W        W 9123   6.920   2.031   2.354 -0.0446 -0.2973  0.0440
 5380W        W 9124   1.925   0.540   1.224  0.1763 -0.1260  0.1923
 5381W        W 9125   8.690   6.600   4.102  0.0282 -0.0360 -0.4347
 5382W        W 9126   8.540   8.437   3.480  0.0896  0.2974  0.2077
 5383W        W 9127   8.095   1.508   9.973  0.1847 -0.3819 -0.1013
 5384W        W 9128   1.564   6.615   8.151  0.0414 -0.0424  0.2059
 5385W        W 9129   5.100   7.476   4.942 -0.0387 -0.3037 -0.1018
 5386W        W 9130   5.557   2.139   9.774 -0.0518  0.0550  0.0454
 5387W        W 9131   5.894   5.453  12.950 -0.3187  0.2900 -0.0353
 5388W        W 9132   8.025   2.258  12.252  0.0760  0.1333 -0.4017
 5389W        W 9133   2.134   4.946   4.346 -0.1245  0.0725  0.1352
 5390W        W 9134   1.298   2.318   8.717  0.0148 -0.0485 -0.0806
 5391W        W 9135   5.250   7.370   3.547  0.3047 -0.1854  0.0136
 5392W        W 9136   0.136   1.140   0.889  0.0908 -0.0238 -0.1360
 5393W        W 9137   7.932   9.153   1.432 -0.4080  0.4133  0.1827
 5394W        W 9138   2.716   5.675   9.439 -0.0882  0.0261 -0.1434
 5395W        W 9139   0.568   8.603  11.851 -0.0512  0.0345 -0.2462
 5396W        W 9140   5.467   9.047  10.904  0.1295  0.0319 -0.1725
 5397W        W 9141   7.614   2.800  12.135  0.0563  0.2500  0.2307
 5398W        W 9142   8.110   8.599  11.960 -0.0968 -0.1061  0.1066
 5399W        W 9143   5.406   7.662   2.078  0.0769 -0.2072  0.1336
 5400W        W 9144   5.903   1.039   3.948  0.1128 -0.4148  0.1935
 5401W        W 9145   6.188   7.669   0.325  0.2704  0.5164  0.0157
 5402W        W 9146   8.806   9.536  11.624 -0.0865  0.0984 -0.1717
 5403W        W 9147   2.245   5.089   2.181  0.0617 -0.1432  0.2189
 5404W        W 9148   8.277   8.969  10.921 -0.1324 -0.1101  0.1284
 5405W        W 9149   3.257   6.180  10.489 -0.1760  0.0084  0.1238
 5406W        W 9150   6.006   2.313  11.562 -0.0229  0.1686 -0.1817
 5407W        W 9151   1.296   0.125  11.746 -0.0135  0.3222  0.2140
 5408W        W 9152   9.720   0.022   4.256  0.1056 -0.1240  0.2868
 5409W        W 9153   2.395   4.043   0.727  0.0566 -0.0699 -0.1465
 5410W        W 9154   3.377   6.954   3.611 -0.0042  0.2212  0.2635
 5411W        W 9155   6.817   0.327   9.288  0.1203 -0.1302 -0.2398
 5412W        W 9156   3.016   5.974  12.866 -0.1841 -0.0067  0.1471
 5413W        W 9157   9.007   1.938  11.421  0.0805 -0.2439  0.2324
 5414W        W 9158   4.975   0.941   1.994 -0.3710 -0.5386  0.1808
 5415W        W 9159   2.715   3.928   2.481  0.1741 -0.1636 -0.0475
 5416W        W 9160   9.017   0.531   5.210 -0.2052 -0.3591  0.0515
 5417W        W 9161   0.542   3.015   3.533  0.2137  0.1851  0.0349
 5418W        W 9162   7.772   3.026  10.879  0.0127  0.0679 -0.0104
 5419W        W 9163   9.888   2.430   0.657 -0.0041 -0.0732  0.1067
 5420W        W 9164   6.838   0.592   1.615 -0.1612 -0.0134 -0.1847
 5421W        W 9165   8.708   7.119   3.335 -0.2348 -0.1056  0.1402
 5422W        W 9166   6.703   4.827  10.754  0.3819 -0.2311  0.2130
 5423W        W 9167   4.674   3.560   9.524  0.0181 -0.0552 -0.3022
 5424W        W 9168   2.676   6.225   4.670  0.0673 -0.0145 -0.2107
 5425W        W 9169   7.083   9.477  11.239  0.0678 -0.1761 -0.2717
 5426W        W 9170   6.875   7.901   5.224 -0.1147  0.0734  0.0495
 5427W        W 9171   8.130   4.367  10.386 -0.1460  0.0754 -0.4136
 5428W        W 9172   1.622   9.743  10.669 -0.0640  0.2544  0.2868
 5429W        W 9173   0.861   8.628   1.146 -0.0844  0.0726 -0.0254
 5430W        W 9174   5.081   6.168  10.359  0.0934 -0.0800 -0.0900
 5431W        W 9175   7.897   0.464   0.832  0.2336  0.2353  0.4437
 5432W        W 9176   5.945   0.454   1.142  0.2291  0.0491 -0.0503
 5433W        W 9177   5.159   7.838  10.672  0.1849 -0.2666 -0.1384
 5434W        W 9178   1.339   0.154  12.922  0.0131 -0.0841  0.0884
 5435W        W 9179   1.401   6.226   0.691 -0.0009  0.0209 -0.1373
 5436W        W 9180   2.976   9.816   2.427  0.5281  0.1748  0.0229
 5437W        W 9181   6.574   7.429   2.248 -0.0199 -0.2070  0.1583
 5438W        W 9182   8.541   3.897  12.263 -0.1132  0.2075  0.0026
 5439W        W 9183   1.754   5.982   1.593 -0.0695 -0.0315  0.0211
 5440W        W 9184   3.735   6.885   1.721 -0.1564 -0.1218  0.0675
 5441W        W 9185   1.890   5.423   0.556 -0.2156  0.0845  0.6965
 5442W        W 9186   1.435   5.869   9.673 -0.1848  0.0126 -0.1603
 5443W        W 9187   1.024   2.807   9.568  0.1234  0.3232 -0.1697
 5444W        W 9188   0.224   0.896   1.366 -0.1577 -0.2828  0.0380
 5445W        W 9189   8.966   8.974  11.535 -0.2340  0.0294 -0.1144
 5446W        W 9190   2.325   4.565  11.869 -0.2077 -0.1823 -0.1244
 5447W        W 9191   6.591   9.864  10.989  0.1409  0.1815 -0.0315
 5448W        W 9192   0.574   6.337  11.710  0.1090 -0.2472  0.3539
 5449W        W 9193   6.096   9.000  12.563  0.0679  0.0649  0.1716
 5450W        W 9194   5.828   2.959  12.929 -0.4243 -0.0112  0.2135
 5451W        W 9195   3.257   4.134   1.102  0.6573 -0.3523 -0.1245
 5452W        W 9196   0.597   7.845   4.040 -0.2873  0.1165 -0.2347
 5453W        W 9197   1.603   0.380   3.538  0.0394  0.1665 -0.0884
 5454W        W 9198   7.040   8.101   0.559 -0.0189 -0.2547 -0.0662
 5455W        W 9199   8.883   8.296   1.065  0.0254 -0.2763  0.3746
 5456W        W 9200   5.781   7.651   0.697  0.4515 -0.5592 -0.1881
 5457W        W 9201   7.620   5.186   9.164  0.3323  0.2543  0.1189
 5458W        W 9202   0.598   0.962   1.782  0.2364  0.0249 -0.1718
 5459W        W 9203   3.764   9.800   2.677  0.1947  0.0804 -0.0820
 5460W        W 9204   5.986   4.199   1.867 -0.3538  0.1138 -0.0277
 5461W        W 9205   7.731   7.815   1.970 -0.0707  0.3992 -0.1706
 5462W        W 9206   2.471   7.384   1.670  0.1425  0.2081 -0.1205
 5463W        W 9207   6.461   6.554   4.033  0.0095  0.3145  0.1233
 5464W        W 9208   1.477   2.836   0.415 -0.2133 -0.0625  0.0598
 5465W        W 9209   2.820   7.028   0.147 -0.1584  0.0490 -0.0093
 5466W        W 9210   4.968   1.130  11.446 -0.0845  0.0736 -0.1821
 5467W        W 9211   1.335   1.741   0.881 -0.1455  0.0833  0.1405
 5468W        W 9212   7.375   0.360   9.949  0.1251  0.1874 -0.3469
 5469W        W 9213   0.009   0.767  10.578 -0.0399  0.0872 -0.0047
 5470W        W 9214   5.915   0.090   1.435  0.1240  0.0976 -0.1053
 5471W        W 9215   1.510   6.745   8.623  0.1098  0.0477  0.1764
 5472W        W 9216   1.070   6.969   0.125 -0.1971 -0.1550 -0.1769
 5473W        W 9217   9.775   4.458   4.998 -0.2282  0.1355  0.3021
 5474W        W 9218   5.033   7.630   1.080 -0.0328  0.0417 -0.2701
 5475W        W 9219   4.292   4.800   9.069  0.0815 -0.0092  0.1069
 5476W        W 9220   9.769   6.076  10.278 -0.3110 -0.3313 -0.0693
 5477W        W 9221   8.839   1.586   3.705 -0.0763  0.2941  0.1321
 5478W        W 9222   2.991   2.672  10.167 -0.1611  0.2153  0.0408
 5479W        W 9223   5.098   3.758  10.761 -0.0232 -0.0779  0.0348
 5480W        W 9224   1.065   8.159   9.840  0.0285  0.1856 -0.1773
 5481W        W 9225   9.724   5.146   8.109 -0.5383 -0.1042 -0.2081
 5482W        W 9226   8.481   3.930   0.342 -0.0240  0.0028 -0.0991
 5483W        W 9227   6.892   9.280   1.226 -0.0411  0.1673 -0.2133
 5484W        W 9228   6.191   8.748  10.316  0.0370  0.0040 -0.0144
 5485W        W 9229   0.215   3.173   8.224  0.0510  0.1540 -0.1559
 5486W        W 9230   8.188   3.628   1.643 -0.1089 -0.0979 -0.1862
 5487W        W 9231   3.027   4.790  12.630  0.3294  0.0865  0.2684
 5488W        W 9232   5.031   7.672   4.021 -0.0307  0.2186 -0.0190
 5489W        W 9233   4.646   0.026  11.707  0.2035  0.2034  0.0905
 5490W        W 9234   5.355   5.999   8.737 -0.0564  0.0059  0.1652
 5491W        W 9235   0.598   4.483   1.359  0.0517  0.1804 -0.2366
 5492W        W 9236   6.183   1.279   2.160  0.2335 -0.0139 -0.0670
 5493W        W 9237   4.521   8.133   5.301  0.1083 -0.0972  0.3924
 5494W        W 9238   9.674   0.960   2.769 -0.4666  0.3570  0.3223
 5495W        W 9239   6.264   8.761   4.098 -0.0979  0.1567 -0.0117
 5496W        W 9240   4.168   8.637   2.310 -0.0898 -0.1379  0.0406
 5497W        W 9241   4.998   4.766   0.763 -0.0352 -0.0296  0.1094
 5498W        W 9242   2.379   8.712   2.089  0.0098  0.3518 -0.0186
 5499W        W 9243   3.991   7.204   9.680  0.0430  0.1320 -0.1546
 5500W        W 9244   1.786   6.260   4.291 -0.0069 -0.3865 -0.0659
 5501W        W 9245   5.365   3.641   2.124  0.0801 -0.2537  0.1364
 5502W        W 9246   4.534   6.480   4.034  0.0790  0.0291 -0.0418
 5503W        W 9247   8.051   4.922   9.466 -0.1342 -0.2475 -0.0151
 5504W        W 9248   3.025   3.100   3.266 -0.3315 -0.1358  0.0720
 5505W        W 9249   9.234   2.087   9.054  0.0955 -0.1124 -0.0343
 5506W        W 9250   9.337   4.444   2.133 -0.2115  0.1417  0.0389
 5507W        W 9251   2.364   0.370   4.048  0.1563  0.3666 -0.0353
 5508W        W 9252   0.984   1.665   3.418  0.2654 -0.3664 -0.1111
 5509W        W 9253   9.296   5.382  11.276  0.1188  0.0860  0.3222
 5510W        W 9254   2.584   8.149   9.128 -0.2126  0.1658  0.0473
 5511W        W 9255   4.272   2.026   0.746 -0.2477 -0.0124 -0.2414
 5512W        W 9256   9.896   5.747   0.872 -0.0194 -0.1040 -0.0581
 5513W        W 9257   6.673   0.972   1.299  0.0998 -0.1248 -0.2258
 5514W        W 9258   6.282   8.843  11.981  0.0573  0.2683  0.0854
 5515W        W 9259   9.083   5.811  11.311 -0.0726  0.4110  0.3466
 5516W        W 9260   3.637   7.929   1.175  0.1115 -0.0492  0.4913
 5517W        W 9261   1.214   7.915  12.064 -0.4010 -0.1876 -0.1690
 5518W        W 9262   5.075   5.644   1.601  0.3247  0.1722 -0.2222
 5519W        W 9263   6.385   8.681   3.626 -0.1852 -0.0764  0.0427
 5520W        W 9264   0.375   9.215  10.443 -0.0364  0.2878 -0.1407
 5521W        W 9265   8.807   0.619  12.105  0.2416  0.1425 -0.0334
 5522W        W 9266   0.713   8.909  12.723 -0.0693  0.3894  0.1488
 5523W        W 9267   5.829   8.235   3.236 -0.2140 -0.0290  0.1817
 5524W        W 9268   1.555   8.841  12.098 -0.1840 -0.1245 -0.3428
 5525W        W 9269   7.661   3.276  10.416 -0.2467  0.0537 -0.3665
 5526W        W 9270   2.202   1.559   1.860  0.1375  0.0415  0.0712
 5527W        W 9271   0.523   6.805   0.035  0.0566 -0.0173 -0.1705
 5528W        W 9272   8.529   2.393   8.491 -0.0651  0.3833  0.0898
 5529W        W 9273   8.840   7.876   9.935  0.0115  0.0257 -0.1111
 5530W        W 9274   8.926   8.591  11.842 -0.0162 -0.1094 -0.0176
 5531W        W 9275   2.264   3.357   3.577  0.1269 -0.2742 -0.2614
 5532W        W 9276   7.825   0.268  11.738 -0.3032 -0.0559 -0.2073
 5533W        W 9277   7.706   6.304  11.460 -0.0862 -0.1062 -0.1638
 5534W        W 9278   9.483   0.141   0.815  0.1829 -0.2106  0.2353
 5535W        W 9279   0.290   3.337  11.080  0.4470 -0.1481 -0.0665
 5536W        W 9280   9.537   0.914  10.292  0.0867  0.0841  0.2290
 5537W        W 9281   2.836   3.889  11.008  0.0261  0.1685 -0.0726
 5538W        W 9282   1.890   9.556   3.714 -0.2428 -0.0032  0.0722
 5539W        W 9283   4.743   8.415   1.618 -0.2805 -0.1569  0.1484
 5540W        W 9284   0.080   1.391   2.791  0.2985 -0.1006  0.2784
 5541W        W 9285   1.074   4.683   1.462 -0.2401 -0.1049  0.2294
 5542W        W 9286   3.054   9.251   3.719  0.1683  0.0680  0.0392
 5543W        W 9287   1.767   2.087  11.408 -0.3683  0.2987  0.0645
 5544W        W 9288   3.000   0.444  12.558 -0.0978 -0.0729  0.3155
 5545W        W 9289   0.112   3.226  10.091 -0.3527  0.0500 -0.0166
 5546W        W 9290   9.195   7.310  11.629 -0.2241  0.1791  0.0787
 5547W        W 9291   4.083   1.352   0.913  0.0387  0.1934  0.0681
 5548W        W 9292   7.420   7.751   3.749  0.0490 -0.1687 -0.0520
 5549W        W 9293   6.654   1.017   8.516  0.1235 -0.1213  0.0338
 5550W        W 9294   1.040   3.153   3.662  0.1606  0.0542 -0.0524
 5551W        W 9295   5.327   1.314  11.115  0.0395  0.1765  0.0834
 5552W        W 9296   4.224   6.309  10.335 -0.1998 -0.0349 -0.1899
 5553W        W 9297   0.866   4.430   3.751 -0.1270  0.0112  0.0444
 5554W        W 9298   6.356   2.473   0.339 -0.1222  0.4326 -0.0542
 5555W        W 9299   0.524   3.573  10.662  0.0907  0.1569  0.2103
 5556W        W 9300   4.386   9.179   1.655 -0.1996  0.2555  0.0294
 5557W        W 9301   9.823   4.912  10.770  0.1906 -0.0481  0.1453
 5558W        W 9302   1.225   0.731   0.672 -0.4467 -0.1425 -0.1850
 5559W        W 9303   8.258   1.785  12.283  0.1319  0.1989 -0.0004
 5560W        W 9304   7.061   0.703  12.852  0.0137 -0.1535  0.2545
 5561W        W 9305   6.819   2.868   1.073  0.2325 -0.0182 -0.1263
 5562W        W 9306   2.472   2.789   2.276 -0.0373  0.0870  0.0725
 5563W        W 9307   1.542   5.373  11.817  0.2085 -0.0347  0.2285
 5564W        W 9308   2.622   4.783   1.581  0.0271  0.1932  0.2929
 5565W        W 9309   0.218   3.214   3.183  0.3010  0.2537  0.3413
 5566W        W 9310   8.143   6.421  12.687 -0.2848 -0.1046 -0.1430
 5567W        W 9311   3.707   0.987   0.804  0.0207  0.1966  0.0020
 5568W        W 9312   5.747   8.578   0.406 -0.4552 -0.1110  0.1327
 5569W        W 9313   0.691   7.455  11.339 -0.1620 -0.0159 -0.1233
 5570W        W 9314   0.667   7.910  10.291  0.0502  0.1298 -0.0408
 5571W        W 9315   4.017   1.075  12.295  0.1886  0.5118 -0.0577
 5572W        W 9316   8.102   0.067   3.785  0.0842 -0.0344  0.0025
 5573W        W 9317   3.923   7.959   8.642  0.0136 -0.4542 -0.1663
 5574W        W 9318   7.238   4.904  10.580  0.2862  0.1852 -0.0093
 5575W        W 9319   7.007   7.568  11.261  0.1544 -0.0652  0.1487
 5576W        W 9320   0.754   4.696  12.061 -0.0728 -0.1402  0.1019
 5577W        W 9321   1.488   6.431  11.860  0.2387  0.0905  0.0979
 5578W        W 9322   0.330   3.970   4.426 -0.2738 -0.5333 -0.2139
 5579W        W 9323   6.287   5.088   8.073  0.0759 -0.1370  0.2608
 5580W        W 9324   4.101   7.540   1.866 -0.0310  0.0267  0.0221
 5581W        W 9325   5.198   5.933   9.882 -0.1678  0.1099  0.2770
 5582W        W 9326   5.970   3.082   1.878  0.2427  0.1796 -0.2070
 5583W        W 9327   2.483   8.867   4.226 -0.0431 -0.0635 -0.0691
 5584W        W 9328   7.628   8.835   1.017 -0.2164 -0.2192  0.0007
 5585W        W 9329   0.444   6.816  11.010  0.0689 -0.0548 -0.2768
 5586W        W 9330   8.769   8.223   4.789  0.2663  0.2727 -0.1874
 5587W        W 9331   1.513   8.552   1.970  0.0431 -0.0841  0.0883
 5588W        W 9332   6.780   6.580   0.610 -0.1137 -0.2573  0.2426
 5589W        W 9333   5.201   8.715  11.139  0.3277  0.0482 -0.2101
 5590W        W 9334   8.095   4.781   2.853  0.1816  0.3843  0.3102
 5591W        W 9335   6.938   2.731  10.750  0.0051 -0.1544  0.2790
 5592W        W 9336   1.192   2.126   1.586 -0.0669 -0.0336  0.1033
 5593W        W 9337   4.743   1.590   2.043  0.3276  0.0598  0.0665
 5594W        W 9338   1.134   7.086  11.431 -0.2355 -0.1366 -0.0160
 5595W        W 9339   8.994   3.621   1.746  0.1961 -0.0914 -0.0382
 5596W        W 9340   8.931   1.657  12.683  0.0489  0.1069 -0.2504
 5597W        W 9341   3.942   7.561   0.521 -0.1824  0.3044  0.0066
 5598W        W 9342   9.781   7.384  12.641 -0.0310  0.2958 -0.1812
 5599W        W 9343   2.845   5.911   3.037 -0.2405  0.1047  0.1267
 5600W        W 9344   0.848   8.516  11.370 -0.1301 -0.1803 -0.1354
 5601W        W 9345   0.092   1.164  10.280  0.0266  0.1346  0.1688
 5602W        W 9346   7.866   8.386   1.039  0.0124  0.0302 -0.2150
 5603W        W 9347   4.964   7.163   9.318 -0.2738  0.4606 -0.1150
 5604W        W 9348   8.386   3.375   2.060  0.1613 -0.3341  0.2174
 5605W        W 9349   4.776   0.869  12.891 -0.1318 -0.2627  0.1184
 5606W        W 9350   6.955   2.774   3.235 -0.0866 -0.1268  0.0963
 5607W        W 9351   6.099   3.108  10.486 -0.2224  0.0371 -0.0794
 5608W        W 9352   1.394   9.559   0.389 -0.0388  0.0692  0.4718
 5609W        W 9353   8.736   3.033  10.500  0.4058  0.3711 -0.0589
 5610W        W 9354   5.570   9.593   2.924  0.0118 -0.0897  0.0983
 5611W        W 9355   0.848   6.514   2.137  0.1755  0.1587 -0.0560
 5612W        W 9356   7.278   7.275   9.121 -0.0817  0.0751 -0.0485
 5613W        W 9357   0.985   1.010   2.083  0.0929 -0.2745  0.0752
 5614W        W 9358   4.118   7.795   4.036 -0.0182  0.6112  0.0235
 5615W        W 9359   1.875   8.716  10.545 -0.1281 -0.0185 -0.0578
 5616W        W 9360   8.465   7.649   8.413  0.0127 -0.0115 -0.1077
 5617W        W 9361   2.892   3.432   1.466 -0.0341  0.0695  0.0870
 5618W        W 9362   9.650   9.364   0.107 -0.3743 -0.0430 -0.0953
 5619W        W 9363   1.462   1.774  10.226  0.1801 -0.1549  0.2074
 5620W        W 9364   9.177   2.398   2.940 -0.2882 -0.4654  0.0272
 5621W        W 9365   8.506   1.190   9.910  0.2482 -0.1959  0.2148
 5622W        W 9366   0.965   2.613   2.403  0.0238 -0.3536 -0.0948
 5623W        W 9367   6.293   2.747  12.896 -0.0188 -0.0463  0.1479
 5624W        W 9368   5.230   3.649   9.452 -0.2220  0.0735  0.1340
 5625W        W 9369   0.038   8.289  10.669 -0.2008  0.0512  0.2011
 5626W        W 9370   2.330   7.146   9.112  0.0514 -0.2679  0.1709
 5627W        W 9371   4.092   3.807   2.814 -0.1180  0.0302 -0.0914
 5628W        W 9372   9.769   1.838  12.446 -0.0166 -0.2232 -0.0613
 5629W        W 9373   4.807   8.476   4.210 -0.3801 -0.2871 -0.1608
 5630W        W 9374   6.825   1.776   3.461  0.0213 -0.0375 -0.2120
 5631W        W 9375   7.067   0.757   1.137 -0.1885 -0.1902 -0.0182
 5632W        W 9376   5.759   9.069   1.076  0.0192  0.1850  0.1599
 5633W        W 9377   8.189   0.401   2.863  0.0705 -0.0368 -0.1185
 5634W        W 9378   5.044   4.697  10.327 -0.0483  0.3698 -0.0696
 5635W        W 9379   2.657   5.580  12.108  0.1322  0.0148 -0.0773
 5636W        W 9380   2.914   4.116  10.179 -0.0580  0.1933 -0.2262
 5637W        W 9381   2.557   2.829   0.028  0.0446  0.3677  0.2274
 5638W        W 9382   1.145   8.389   9.078 -0.0444  0.0331  0.1028
 5639W        W 9383   6.242   7.539   9.116 -0.0767 -0.0887 -0.2288
 5640W        W 9384   8.226   2.386  10.401  0.2720  0.0241  0.1014
 5641W        W 9385   0.045   7.886   9.802  0.3256 -0.0755  0.0730
 5642W        W 9386   8.208   6.523   2.732 -0.1038 -0.2214  0.0064
 5643W        W 9387   9.639   3.626   3.644  0.1373  0.0613 -0.3324
 5644W        W 9388   6.298   8.435  10.782  0.3299 -0.0010  0.3333
 5645W        W 9389   3.793   3.274  10.263 -0.3138 -0.3938 -0.1519
 5646W        W 9390   8.198   9.028   4.826  0.1508 -0.1811  0.0395
 5647W        W 9391   3.541   0.651   2.294 -0.1006  0.0487 -0.0714
 5648W        W 9392   1.774   7.774   3.349  0.3357 -0.1803  0.2352
 5649W        W 9393   7.474   6.858  11.414  0.1006 -0.1952 -0.4277
 5650W        W 9394   9.138   2.751  10.483 -0.0899 -0.2102  0.2656
 5651W        W 9395   1.101   1.256   2.676  0.1884 -0.2331  0.0379
 5652W        W 9396   5.608   6.041   9.173 -0.0915 -0.0094  0.2616
 5653W        W 9397   9.327   6.895  10.149  0.1452  0.4829  0.0138
 5654W        W 9398   7.376   9.699  10.367  0.2931 -0.1821 -0.0391
 5655W        W 9399   2.907   4.608  10.177 -0.3488  0.0128 -0.2547
 5656W        W 9400   8.476   6.796   0.042  0.3056  0.1344 -0.1335
 5657W        W 9401   7.565   4.704   0.532  0.1816 -0.2876  0.2210
 5658W        W 9402   2.357   7.176   1.083  0.3303 -0.0045 -0.0717
 5659W        W 9403   9.387   3.693   9.051  0.1081  0.0362 -0.0942
 5660W        W 9404   1.299   2.727   8.246  0.0754  0.0952  0.0669
 5661W        W 9405   9.892   3.326  12.592  0.1651 -0.1993  0.1755
 5662W        W 9406   6.056   9.793  10.971  0.1716 -0.1250  0.1222
 5663W        W 9407   1.031   2.157  12.197 -0.0533  0.0577 -0.0529
 5664W        W 9408   8.472   8.822  10.102  0.1926  0.1756  0.0117
 5665W        W 9409   8.212   3.561   2.808 -0.2667 -0.4033 -0.0342
 5666W        W 9410   0.781   4.591   1.815 -0.0722  0.1775  0.3768
 5667W        W 9411   3.925   4.784   0.538 -0.2715 -0.1995  0.0579
 5668W        W 9412   6.384   1.961   3.014  0.3199 -0.1038  0.3273
 5669W        W 9413   9.646   1.526   2.032  0.1415 -0.2735  0.1179
 5670W        W 9414   0.941   2.126   0.654 -0.0036 -0.1152 -0.2453
 5671W        W 9415   8.118   1.222   1.808 -0.1573 -0.2371 -0.3844
 5672W        W 9416   9.662   4.610   9.374 -0.2807 -0.1988 -0.1116
 5673W        W 9417   3.282   9.248   0.332 -0.3198 -0.0320 -0.0963
 5674W        W 9418   9.542   3.611   1.626  0.1394  0.0071  0.3509
 5675W        W 9419   7.742   1.679  11.978 -0.1166 -0.3413  0.1000
 5676W        W 9420   2.074   4.986  12.264 -0.0828  0.0455  0.0017
 5677W        W 9421   0.156   5.196   0.477 -0.0920 -0.0047 -0.2730
 5678W        W 9422   8.201   5.993   1.493 -0.1059  0.0862 -0.3690
 5679W        W 9423   7.429   7.114   2.368  0.2754  0.1008  0.1014
 5680W        W 9424   8.638   2.085  12.579 -0.1608  0.0336 -0.1746
 5681W        W 9425   5.675   5.315   1.738 -0.0204 -0.3006  0.4789
 5682W        W 9426   6.394   9.448   9.587 -0.1283 -0.0055  0.2102
 5683W        W 9427   0.721   9.243   2.129 -0.2483 -0.0496 -0.1343
 5684W        W 9428   5.997   0.737  12.322  0.3039  0.0542 -0.0870
 5685W        W 9429   6.773   7.353  10.815 -0.4194 -0.1043 -0.1844
 5686W        W 9430   1.908   6.696   9.333  0.1388  0.0465  0.1443
 5687W        W 9431   0.762   4.131   0.943 -0.1339 -0.1431  0.2482
 5688W        W 9432   4.223   2.196   2.956 -0.1182  0.3047 -0.1512
 5689W        W 9433   2.327   6.680   0.901 -0.1935  0.2010  0.1921
 5690W        W 9434   9.703   2.485   1.163 -0.0490  0.1020 -0.2578
 5691W        W 9435   0.839   8.963   5.146  0.0518 -0.2540  0.2900
 5692W        W 9436   6.250   9.277   0.477 -0.1609 -0.0335  0.1488
 5693W        W 9437   8.668   2.007   8.783 -0.0230 -0.1686  0.0910
 5694W        W 9438   5.007   2.555   2.223 -0.0408  0.0359 -0.3158
 5695W        W 9439   2.387   5.201   8.241  0.1559 -0.4086 -0.2812
 5696W        W 9440   7.059   3.079  12.806  0.0122  0.3351 -0.1066
 5697W        W 9441   6.700   3.207   1.466  0.0023  0.0867 -0.1718
 5698W        W 9442   2.088   2.552  10.646  0.0968 -0.0193 -0.0547
 5699W        W 9443   9.707   5.606   3.999  0.2116  0.2828 -0.0255
 5700W        W 9444   5.927   6.316   0.413  0.0274  0.1850 -0.0980
 5701W        W 9445   8.633   0.334   1.096  0.1144 -0.1456 -0.0494
 5702W        W 9446   1.139   4.087   2.852  0.1014  0.0319  0.0929
 5703W        W 9447   3.925   1.177   3.138  0.1164 -0.0690 -0.0970
 5704W        W 9448   0.676   1.735   0.994  0.0394  0.1160  0.2819
 5705W        W 9449   8.088   2.050   3.525 -0.2018 -0.0562 -0.2649
 5706W        W 9450   6.160   5.965   0.716  0.4227 -0.0882 -0.2458
 5707W        W 9451   9.282   2.469  11.360  0.0282 -0.0892  0.0380
 5708W        W 9452   2.763   5.114  11.097 -0.2581 -0.0463 -0.2063
 5709W        W 9453   2.942   2.126   1.723 -0.1412  0.1907  0.1811
 5710W        W 9454   2.190   3.877  10.891  0.1179  0.1820 -0.0290
 5711W        W 9455   6.773   0.461  12.511 -0.0164 -0.1780 -0.1343
 5712W        W 9456   9.619   4.454   0.233  0.2818  0.4554  0.0662
 5713W        W 9457   4.972   6.699   0.204  0.2999 -0.2382 -0.1059
 5714W        W 9458   1.840   9.104   2.663 -0.0789  0.0676  0.1026
 5715W        W 9459   8.472   4.851   4.258  0.2262  0.0876  0.1091
 5716W        W 9460   7.267   3.194  10.784 -0.2257  0.0398 -0.1251
 5717W        W 9461   1.849   7.064   3.008 -0.1873  0.0452 -0.1370
 5718W        W 9462   2.330   3.102  11.269  0.2703 -0.0571 -0.2345
 5719W        W 9463   0.528   2.185   3.622  0.0039  0.0684  0.0781
 5720W        W 9464   8.778   5.805   2.995  0.2587  0.0290 -0.1267
 5721W        W 9465   9.002   4.671   0.297  0.0226 -0.2214  0.0662
 5722W        W 9466   6.184   3.590   0.970 -0.1132  0.0413 -0.1504
 5723W        W 9467   8.154   5.665  10.749 -0.2314 -0.2011 -0.1222
 5724W        W 9468   9.489   7.838   3.951 -0.2015  0.2402  0.2749
 5725W        W 9469   6.062   4.585   1.556  0.2473 -0.0449 -0.2279
 5726W        W 9470   9.695   4.724   4.505  0.1128 -0.0973 -0.0195
 5727W        W 9471   5.406   5.503   2.292 -0.0389  0.0797 -0.5997
 5728W        W 9472   7.459   9.352   9.461 -0.0854 -0.0513  0.1490
 5729W        W 9473   1.491   1.822   4.360 -0.4783 -0.0327 -0.1778
 5730W        W 9474   4.398   9.510   1.216 -0.1536 -0.0880 -0.1076
 5731W        W 9475   9.272   3.839   0.745 -0.0344  0.1521 -0.1873
 5732W        W 9476   3.573   4.543   1.916 -0.0801  0.1452 -0.2061
 5733W        W 9477   3.674   6.655  11.322 -0.0252  0.2559  0.2022
 5734W        W 9478   9.371   2.323   1.860 -0.1101 -0.0365  0.1882
 5735W        W 9479   2.418   8.924   9.484 -0.2852 -0.0937 -0.2523
 5736W        W 9480   0.019   5.979   4.223 -0.0531  0.1728 -0.2747
 5737W        W 9481   7.810   1.359   9.485 -0.1697  0.1598  0.0334
 5738W        W 9482   8.720   1.110   0.488 -0.2610 -0.2876  0.1601
 5739W        W 9483   9.790   7.193   9.164 -0.0410 -0.3139  0.0047
 5740W        W 9484   3.743   3.749  11.457  0.1584  0.2180  0.1312
 5741W        W 9485   4.535   1.641  10.658  0.1393 -0.1593  0.2364
 5742W        W 9486   4.655   7.228   1.093 -0.1281 -0.1542  0.0679
 5743W        W 9487   7.286   3.295  12.370  0.1341  0.4924  0.0785
 5744W        W 9488   7.211   5.764  10.987 -0.3577 -0.0445 -0.0687
 5745W        W 9489   2.980   6.568   2.128 -0.1961 -0.1259  0.2205
 5746W        W 9490   9.788   8.203   1.529  0.1714 -0.2478 -0.1843
 5747W        W 9491   6.165   0.740   0.256 -0.3383 -0.0034  0.0512
 5748W        W 9492   2.283   1.929   9.593  0.1389 -0.0297 -0.0605
 5749W        W 9493   0.256   7.025  10.615 -0.0476 -0.0989  0.0118
 5750W        W 9494   4.843   4.903   0.325  0.2899  0.1561  0.1430
 5751W        W 9495   1.961   0.223   2.773 -0.1164 -0.3691 -0.0181
 5752W        W 9496   1.858   1.258   1.799  0.0749  0.1953 -0.0294
 5753W        W 9497   2.009   1.052  11.370 -0.0502  0.1090 -0.1967
 5754W        W 9498   0.585   1.004  11.066  0.4190  0.1327  0.0051
 5755W        W 9499   0.042   8.944   2.222  0.0937 -0.0701 -0.0372
 5756W        W 9500   7.513   6.584  11.995 -0.1511  0.2446  0.0468
 5757W        W 9501   3.629   0.258  11.759  0.3687 -0.0788  0.0003
 5758W        W 9502   7.226   6.279  12.266 -0.1438  0.2991 -0.0429
 5759W        W 9503   4.419   4.922   1.783  0.0440  0.2215  0.1446
 5760W        W 9504   6.452   9.396   0.990  0.1217 -0.2003 -0.2641
 5761W        W 9505   6.039   0.633  10.185  0.3427 -0.1798 -0.0009
 5762W        W 9506   3.597   6.287   4.177  0.0632 -0.2571 -0.0248
 5763W        W 9507   7.931   1.095   3.989 -0.1761 -0.0879  0.0995
 5764W        W 9508   1.300   3.444   9.291  0.1698 -0.1532 -0.2402
 5765W        W 9509   0.572   8.833   2.471  0.0542  0.0617 -0.0635
 5766W        W 9510   2.314   3.144  12.159 -0.0070 -0.1013  0.1673
 5767W        W 9511   3.292   2.056   2.479 -0.0260  0.0596 -0.4468
 5768W        W 9512   6.208   6.280   1.447 -0.2107 -0.0834 -0.1844
 5769W        W 9513   4.550   3.631   1.807  0.0953 -0.2114  0.1748
 5770W        W 9514   6.305   0.764  11.922 -0.1272  0.0091 -0.0076
 5771W        W 9515   4.555   5.439   0.172 -0.1098  0.0238  0.1722
 5772W        W 9516   1.705   4.265   0.892 -0.0620 -0.2581  0.0338
 5773W        W 9517   0.102   4.682   0.459  0.0031  0.2709  0.1268
 5774W        W 9518   7.124   9.211   0.310  0.0191  0.0102 -0.1746
 5775W        W 9519   3.887   4.313   2.902  0.1841  0.0115  0.3814
 5776W        W 9520   5.391   9.808   0.691  0.1351 -0.0425 -0.1365
 5777W        W 9521   2.440   0.842   4.035 -0.1730  0.0775  0.1414
 5778W        W 9522   6.029   5.653   2.112 -0.2111 -0.2012  0.0716
 5779W        W 9523   3.460   5.927   3.819 -0.2531  0.0234 -0.0223
 5780W        W 9524   6.609   0.939  11.034  0.0079  0.4132 -0.1908
 5781W        W 9525   2.539   3.428  10.957 -0.2935  0.0428  0.3297
 5782W        W 9526   4.715   8.316   3.481  0.1818  0.2028  0.0984
 5783W        W 9527   0.563   5.461   8.885 -0.1412 -0.1562  0.0938
 5784W        W 9528   7.050   7.853  12.726 -0.5006  0.3834  0.3562
 5785W        W 9529   2.107   4.193   1.137  0.0730 -0.1670  0.1887
 5786W        W 9530   8.890   5.877   2.493 -0.0788  0.1974  0.5081
 5787W        W 9531   5.771   8.803  12.169  0.0054 -0.0508  0.0603
 5788W        W 9532   1.240   9.853   1.373  0.3413 -0.0489  0.1817
 5789W        W 9533   4.583   8.749   9.467 -0.2550  0.0387 -0.0970
 5790W        W 9534   9.800   6.930   4.389  0.0407  0.3209  0.0048
 5791W        W 9535   8.617   3.942   2.569  0.1426  0.0584 -0.2242
 5792W        W 9536   1.475   6.342   1.834  0.1683  0.0766 -0.0359
 5793W        W 9537   3.368   6.041   2.730  0.3199  0.0592  0.1250
 5794W        W 9538   8.763   3.662   0.620  0.0467  0.0674 -0.3180
 5795W        W 9539   0.214   3.400   0.865 -0.0364 -0.0557  0.1201
 5796W        W 9540   0.093   7.331   9.655  0.0090 -0.0247 -0.2568
 5797W        W 9541   2.866   1.607   1.884 -0.2042  0.4189  0.1385
 5798W        W 9542   2.423   8.680  12.465  0.2313  0.1234  0.2081
 5799W        W 9543   1.319   4.180  10.400 -0.1294  0.1929 -0.2080
 5800W        W 9544   8.555   0.901   1.269  0.1399 -0.0311 -0.0830
 5801W        W 9545   0.663   6.800   9.172  0.1848 -0.1508  0.0283
 5802W        W 9546   7.114   6.791   0.051 -0.4093  0.3357 -0.0813
 5803W        W 9547   1.133   6.218  10.929 -0.1583  0.1905 -0.3108
 5804W        W 9548   1.568   2.160  12.319  0.1406 -0.4370 -0.0836
 5805W        W 9549   9.233   7.827   3.499  0.1711 -0.1338  0.0461
 5806W        W 9550   2.032   1.245  10.364  0.2686 -0.2360  0.2995
 5807W        W 9551   7.011   7.475   9.759  0.0012 -0.0562 -0.0724
 5808W        W 9552   9.581   2.542  10.441 -0.2005 -0.1849 -0.2083
 5809W        W 9553   2.578   2.196   2.734  0.3432 -0.0757 -0.0828
 5810W        W 9554   8.159   7.428  10.353 -0.1895 -0.2915 -0.0315
 5811W        W 9555   5.924   4.328   0.117 -0.0934  0.1909 -0.1177
 5812W        W 9556   8.007   0.453  10.634  0.4165 -0.0590  0.0150
 5813W        W 9557   1.063   7.679   9.523  0.1277  0.3043  0.0324
 5814W        W 9558   4.275   3.157  12.536  0.2858 -0.1171 -0.0100
 5815W        W 9559   5.249   3.904  11.689 -0.1787  0.2230  0.0998
 5816W        W 9560   6.314   3.451   1.700  0.0286 -0.1247  0.0520
 5817W        W 9561   4.101   5.166  12.670 -0.0802 -0.0639 -0.1697
 5818W        W 9562   7.568   7.522   9.635 -0.0386 -0.1473 -0.1774
 5819W        W 9563   5.724   5.980   8.346  0.1194  0.1071 -0.0823
 5820W        W 9564   7.774   5.660   0.250 -0.1044 -0.2089 -0.1425
 5821W        W 9565   7.219   7.952   3.305 -0.0681  0.1037  0.0132
 5822W        W 9566   1.158   1.320   0.580 -0.3016  0.1410  0.1026
 5823W        W 9567   8.668   2.388   9.167 -0.2428 -0.1892  0.1444
 5824W        W 9568   9.634   2.346   9.425  0.1162 -0.2953 -0.0976
 5825W        W 9569   3.040   8.588   4.318 -0.3094  0.1130  0.4122
 5826W        W 9570   8.930   2.717   8.201 -0.2913 -0.4818 -0.1716
 5827W        W 9571   8.949   9.340   4.266 -0.1328  0.3145 -0.0408
 5828W        W 9572   3.001   2.389   3.100 -0.3304 -0.0847  0.0362
 5829W        W 9573   7.788   6.835   2.153  0.0015 -0.0470  0.1716
 5830W        W 9574   0.616   4.938   0.607 -0.0431  0.0445  0.0099
 5831W        W 9575   9.458   0.635   2.326 -0.1249 -0.4125  0.0859
 5832W        W 9576   3.456   8.678  11.623 -0.1535  0.1225  0.1112
 5833W        W 9577   8.569   4.898   2.841  0.0452  0.1650 -0.1038
 5834W        W 9578   6.229   7.454   3.659  0.1709 -0.2637  0.0153
 5835W        W 9579   7.484   5.782  10.020  0.2070 -0.0341  0.0991
 5836W        W 9580   0.681   6.813   1.690 -0.1508  0.2458 -0.0784
 5837W        W 9581   3.955   2.287   1.153  0.0167  0.1265 -0.0944
 5838W        W 9582   4.461   8.235   3.032  0.0352 -0.0780 -0.0260
 5839W        W 9583   1.179   7.364   4.109 -0.1824  0.0735  0.3133
 5840W        W 9584   3.990   7.279   2.460 -0.1585 -0.2879  0.0565
 5841W        W 9585   4.691   3.349   0.313 -0.2687 -0.3902  0.1635
 5842W        W 9586   4.548   0.111   0.359  0.0596 -0.0285  0.1608
 5843W        W 9587   6.661   8.483   0.620  0.0530 -0.4143  0.0905
 5844W        W 9588   1.980   7.249   3.457 -0.1019 -0.2027 -0.0529
 5845W        W 9589   2.239   0.705   0.658 -0.1303 -0.2356  0.3369
 5846W        W 9590   5.671   5.594  11.615 -0.2006 -0.4421 -0.0818
 5847W        W 9591   7.492   5.467   8.587 -0.0061 -0.0306 -0.1436
 5848W        W 9592   5.512   7.924   4.051 -0.0425  0.1959  0.2232
 5849W        W 9593   0.903   9.874  11.433  0.1216 -0.1285 -0.1839
 5850W        W 9594   3.265   2.308   2.072  0.1391 -0.1464 -0.1806
 5851W        W 9595   6.581   5.785  11.738  0.0402  0.0271  0.2782
 5852W        W 9596   9.591   2.064  11.918  0.2302 -0.0760  0.0490
 5853W        W 9597   9.480   8.844   9.328  0.1479  0.1076 -0.1226
 5854W        W 9598   9.499   2.278   4.689 -0.0358  0.0969  0.4289
 5855W        W 9599   5.140   3.013  11.979  0.0854  0.1420 -0.1562
 5856W        W 9600   9.221   1.434   4.210 -0.0772  0.1511  0.0549
 5857W        W 9601   5.391   2.175   2.101 -0.0573  0.0145 -0.2250
 5858W        W 9602   9.728   4.630   1.061 -0.2066 -0.2400 -0.0630
 5859W        W 9603   2.070   3.011   0.221  0.1865  0.0529 -0.0504
 5860W        W 9604   2.143   8.106   3.971 -0.1207 -0.1469 -0.1643
 5861W        W 9605   3.152   6.266  12.103 -0.1702 -0.2867 -0.1331
 5862W        W 9606   8.095   3.414  11.666 -0.1138 -0.0828  0.1462
 5863W        W 9607   3.894   1.964  12.125 -0.1763 -0.1215 -0.0027
 5864W        W 9608   4.979   0.828  12.404 -0.0246  0.0162 -0.4016
 5865W        W 9609   7.928   8.122   0.631 -0.1570 -0.4931 -0.1104
 5866W        W 9610   9.596   4.758  11.582 -0.0312  0.0759  0.4337
 5867W        W 9611   4.463   9.225   4.442 -0.0035  0.0015 -0.1780
 5868W        W 9612   2.895   2.768   9.093  0.2712  0.0573  0.0086
 5869W        W 9613   0.601   9.535  11.636 -0.3327  0.2249 -0.0641
 5870W        W 9614   6.681   5.179   3.282 -0.1939 -0.0706 -0.0063
 5871W        W 9615   5.936   6.873   2.255 -0.0236  0.1758 -0.0174
 5872W        W 9616   3.138   3.270  10.910 -0.0732 -0.0484  0.2261
 5873W        W 9617   2.095   5.804   4.354 -0.1892  0.3631  0.0755
 5874W        W 9618   4.339   4.679   0.238  0.1030  0.2194 -0.1769
 5875W        W 9619   4.822   3.219  10.368 -0.1565 -0.1004 -0.1131
 5876W        W 9620   3.097   4.732  11.191  0.0657  0.0335  0.2557
 5877W        W 9621   0.845   6.252   2.578 -0.0633 -0.2376  0.0640
 5878W        W 9622   9.288   1.006   4.006  0.0306 -0.0275  0.0141
 5879W        W 9623   7.226   5.918   9.567 -0.4232 -0.0053  0.0695
 5880W        W 9624   0.963   8.484   4.960  0.0286 -0.3630  0.1084
 5881W        W 9625   1.467   3.149   8.445 -0.2873  0.0104  0.2261
 5882W        W 9626   3.363   6.510   9.743 -0.0197 -0.1535 -0.2122
 5883W        W 9627   6.202   8.621   1.348 -0.1274  0.0016  0.0136
 5884W        W 9628   5.766   1.493  10.507  0.1294 -0.0406 -0.1059
 5885W        W 9629   9.344   3.794   9.963  0.2478 -0.0534  0.1101
 5886W        W 9630   6.786   5.931   2.119 -0.1171  0.1529  0.0379
 5887W        W 9631   3.363   2.445   9.843  0.2568  0.2953  0.0356
 5888W        W 9632   6.508   9.744   4.112  0.0399 -0.0878  0.1669
 5889W        W 9633   9.560   7.523   9.524 -0.1403  0.0629  0.1837
 5890W        W 9634   8.960   5.687   0.514 -0.0647  0.0100 -0.1315
 5891W        W 9635   6.840   2.802   3.708  0.0551 -0.1973  0.3269
 5892W        W 9636   0.878   8.255   3.820 -0.0588 -0.0474 -0.1361
 5893W        W 9637   7.040   0.981   4.303 -0.2923  0.2636  0.0078
 5894W        W 9638   7.335   7.291   8.402 -0.0839  0.0086  0.0423
 5895W        W 9639   8.653   0.139   3.456 -0.0307 -0.0181 -0.3009
 5896W        W 9640   2.339   8.028  11.349  0.2082  0.2010  0.0247
 5897W        W 9641   3.062   3.320   3.705 -0.5140 -0.0040  0.2035
 5898W        W 9642   3.223   7.683   3.341 -0.3215 -0.0347  0.1531
 5899W        W 9643   6.172   7.977  10.941  0.0768  0.0323 -0.0138
 5900W        W 9644   7.518   4.865   2.948  0.0831  0.0181 -0.0771
 5901W        W 9645   4.464   2.001   2.098 -0.1916  0.3533 -0.2575
 5902W        W 9646   8.115   3.609   0.601  0.3019 -0.2761  0.0768
 5903W        W 9647   1.222   5.797  12.215  0.0502 -0.1828  0.0100
 5904W        W 9648   0.947   8.286  11.883 -0.0694  0.1521  0.1403
 5905W        W 9649   8.846   2.895   9.940 -0.0726  0.0966  0.3533
 5906W        W 9650   3.161   8.811   2.824  0.0556 -0.3421 -0.1289
 5907W        W 9651   3.786   4.113   2.072  0.0903  0.2168  0.2575
 5908W        W 9652   6.659   6.636   0.034  0.1323  0.0121  0.0760
 5909W        W 9653   9.454   4.625  10.609 -0.1582 -0.1986  0.2402
 5910W        W 9654   1.717   7.096   1.453 -0.1162  0.1876 -0.2835
 5911W        W 9655   2.011   0.290  12.807  0.0437 -0.2004  0.3650
 5912W        W 9656   1.982   2.032   2.027  0.0379  0.0232 -0.0317
 5913W        W 9657   2.943   1.379  10.533  0.0719  0.0310  0.2316
 5914W        W 9658   3.126   5.402   9.845 -0.0653  0.1246  0.1398
 5915W        W 9659   1.866   4.853  10.982  0.3280  0.2297 -0.3059
 5916W        W 9660   9.880   1.677  10.271  0.0664 -0.4947  0.1207
 5917W        W 9661   2.291   1.740   0.638  0.0364 -0.2064 -0.0473
 5918W        W 9662   8.131   0.189   0.409  0.0286 -0.5335 -0.0144
 5919W        W 9663   8.157   9.582   1.630 -0.1291  0.0601 -0.1980
 5920W        W 9664   7.219   8.344   2.860 -0.0228 -0.3316 -0.0293
 5921W        W 9665   4.542   6.485   2.579  0.0843 -0.0077  0.1225
 5922W        W 9666   1.045   2.859   1.131  0.1178  0.0968 -0.1868
 5923W        W 9667   8.042   6.263   8.425  0.2093 -0.1253  0.3548
 5924W        W 9668   5.530   6.283  10.134  0.0366  0.2825 -0.0252
 5925W        W 9669   0.220   7.260   4.623  0.3272 -0.0133 -0.2046
 5926W        W 9670   6.750   6.280   1.606  0.1143 -0.0678 -0.1697
 5927W        W 9671   1.632   1.314  11.847  0.0390  0.3179 -0.0256
 5928W        W 9672   2.638   6.472   8.571  0.4174  0.0171 -0.0516
 5929W        W 9673   1.759   2.427   2.950 -0.1021 -0.1608  0.1578
 5930W        W 9674   8.755   6.296   2.761  0.3596 -0.1000 -0.0538
 5931W        W 9675   8.543   3.641   3.543 -0.1078 -0.2558 -0.0815
 5932W        W 9676   6.106   0.264   2.311 -0.1088  0.1795  0.2185
 5933W        W 9677   6.807   7.440   4.408 -0.0362 -0.0252  0.1071
 5934W        W 9678   1.304   0.344  10.807 -0.2483 -0.2817  0.0276
 5935W        W 9679   2.106   4.947   1.723  0.0703  0.0014 -0.2938
 5936W        W 9680   3.446   9.272  10.010 -0.2022 -0.1458 -0.2112
 5937W        W 9681   9.689   7.084   3.016  0.1580 -0.0361 -0.1711
 5938W        W 9682   3.153   5.451  11.908 -0.1520  0.1687  0.1012
 5939W        W 9683   6.604   1.007   4.012 -0.0088 -0.0459  0.3587
 5940W        W 9684   7.402   7.482   1.247  0.0854 -0.1635 -0.2568
 5941W        W 9685   2.391   3.278   3.121 -0.4450 -0.2616  0.3430
 5942W        W 9686   7.467   2.648   2.606  0.0107  0.0859  0.1344
 5943W        W 9687   7.806   8.914  11.424  0.0232  0.0146  0.0127
 5944W        W 9688   4.961   1.318  10.489  0.0577 -0.1284 -0.0410
 5945W        W 9689   5.234   7.852   0.660 -0.0148  0.1021 -0.0431
 5946W        W 9690   2.542   4.607  11.023 -0.2645  0.3320  0.1685
 5947W        W 9691   1.094   5.503   3.287 -0.1575  0.1368  0.2640
 5948W        W 9692   7.140   0.397   0.262 -0.0109 -0.2337  0.1219
 5949W        W 9693   0.184   4.989  12.202  0.2009  0.4592 -0.1735
 5950W        W 9694   9.287   6.216   9.518  0.1077 -0.2598  0.2966
 5951W        W 9695   6.455   6.712   1.544  0.2109  0.0840  0.0660
 5952W        W 9696   9.103   6.124   9.081  0.0513 -0.4728  0.1031
 5953W        W 9697   6.502   2.521   1.286 -0.0021  0.2447 -0.1009
 5954W        W 9698   0.508   5.996   2.778  0.1816  0.0632 -0.2155
 5955W        W 9699   5.586   9.611   1.206 -0.0389 -0.2479 -0.3033
 5956W        W 9700   5.912   5.529   0.918  0.0856 -0.2841  0.0476
 5957W        W 9701   8.575   5.085   8.941  0.0069  0.0030  0.2243
 5958W        W 9702   5.177   0.776   0.360 -0.1152  0.0060  0.4262
 5959W        W 9703   7.555   9.215   9.953 -0.3904  0.1866 -0.4595
 5960W        W 9704   2.097   3.413   2.713 -0.1975  0.2508  0.2841
 5961W        W 9705   4.982   8.412   9.399 -0.2849 -0.1869  0.1074
 5962W        W 9706   3.767   6.138  10.429 -0.2729  0.2116 -0.1401
 5963W        W 9707   2.533   8.984  12.821 -0.1000  0.2959 -0.2052
 5964W        W 9708   6.782   5.360   9.629  0.2498  0.0484 -0.0380
 5965W        W 9709   4.989   0.370  12.619 -0.1081 -0.0061 -0.4030
 5966W        W 9710   8.943   4.641  12.623  0.0421 -0.0192  0.1422
 5967W        W 9711   9.629   8.833   2.624 -0.2367 -0.1634  0.3116
 5968W        W 9712   4.658   6.260  11.975  0.1461  0.1819  0.1034
 5969W        W 9713   0.495   8.642   9.989 -0.2434 -0.0045  0.0094
 5970W        W 9714   3.120   2.945   2.734  0.1177  0.0645  0.1660
 5971W        W 9715   5.451   6.505   4.172  0.3260 -0.1390 -0.2049
 5972W        W 9716   0.962   5.492   4.536 -0.0465 -0.0909 -0.0075
 5973W        W 9717   0.945   3.256   9.936 -0.2592 -0.1483 -0.2851
 5974W        W 9718   8.874   7.079   9.924 -0.3102  0.1655 -0.1857
 5975W        W 9719   6.938   1.205  12.356  0.2879  0.2366 -0.3181
 5976W        W 9720   4.497   5.589   1.790  0.2707 -0.0930 -0.2866
 5977W        W 9721   5.177   6.556  12.718 -0.4344  0.0286 -0.0504
 5978W        W 9722   2.719   5.437  11.579  0.1985  0.0500  0.0080
 5979W        W 9723   7.862   5.703   2.856 -0.0551  0.0911  0.0748
 5980W        W 9724   6.799   7.071   4.116 -0.1120 -0.1373 -0.1110
 5981W        W 9725   4.026   1.111   9.255 -0.0574 -0.0595 -0.0358
 5982W        W 9726   2.200   3.011   9.696 -0.0406  0.2768 -0.0166
 5983W        W 9727   0.504   2.581   3.296  0.0144  0.2292 -0.2102
 5984W        W 9728   8.596   8.503   4.397  0.0496  0.0198 -0.1822
 5985W        W 9729   1.740   1.959   2.823  0.2021 -0.2703  0.2188
 5986W        W 9730   2.284   3.818   0.192  0.0547 -0.0094 -0.2151
 5987W        W 9731   3.171   3.575   0.144 -0.0629 -0.3623 -0.2208
 5988W        W 9732   3.126   8.671   1.685  0.1649 -0.1597 -0.0435
 5989W        W 9733   0.986   3.014   1.627  0.0404 -0.1360 -0.2509
 5990W        W 9734   3.530   1.121  10.067 -0.3739  0.1689  0.1281
 5991W        W 9735   3.436   8.786  10.166 -0.1885  0.3195  0.0168
 5992W        W 9736   9.603   7.765  12.445 -0.1885 -0.3753 -0.0640
 5993W        W 9737   6.356   3.337  10.850  0.2957  0.1671  0.2463
 5994W        W 9738   1.958   7.102   3.975 -0.1531 -0.0953  0.1748
 5995W        W 9739   5.094   6.603  11.911  0.2154 -0.0123  0.0213
 5996W        W 9740   6.958   7.849   3.673 -0.2486  0.0939  0.1522
 5997W        W 9741   6.203   3.275  11.814 -0.1842 -0.0251  0.0077
 5998W        W 9742   6.580   1.821   1.251 -0.0007 -0.2259 -0.0715
 5999W        W 9743   3.465   5.372  10.225  0.4297 -0.0840 -0.1126
 6000W        W 9744   5.371   7.509  12.773  0.0473 -0.1131  0.1643
 6001W        W 9745   7.306   6.072   2.449  0.0603  0.3180 -0.0153
 6002W        W 9746   1.568   0.489   2.534  0.0443 -0.1937 -0.1390
 6003W        W 9747   3.505   6.507   1.795  0.1654  0.3043  0.1282
 6004W        W 9748   0.792   0.472  11.810 -0.0287 -0.0272  0.1721
 6005W        W 9749   7.187   3.396  11.913 -0.1397 -0.0079  0.1371
 6006W        W 9750   9.339   6.315  12.494 -0.1211  0.0514  0.1078
 6007W        W 9751   8.767   2.918   9.399 -0.0191  0.0314  0.1252
 6008W        W 9752   1.917   4.244  10.423 -0.2902 -0.2767  0.1856
 6009W        W 9753   8.737   7.251  11.981 -0.1863 -0.0351  0.3790
 6010W        W 9754   1.790   5.883   0.726 -0.2193  0.1364  0.2398
 6011W        W 9755   5.586   0.357   9.562 -0.2137 -0.3402 -0.2859
 6012W        W 9756   7.997   5.309   1.808  0.1069 -0.1110  0.0259
 6013W        W 9757   3.176   4.080  11.953 -0.1906  0.0751  0.1405
 6014W        W 9758   8.798   2.174   4.241 -0.2703  0.1876  0.0877
 6015W        W 9759   1.544   1.266  11.228 -0.1062 -0.0844 -0.3258
 6016W        W 9760   5.915   0.437  11.223  0.0151 -0.1232 -0.0380
 6017W        W 9761   5.202   7.949   0.145  0.1819  0.0484 -0.1872
 6018W        W 9762   0.619   2.616   0.803  0.1009  0.2255 -0.3551
 6019W        W 9763   1.719   9.647   9.434  0.2919  0.3374  0.1961
 6020W        W 9764   1.331   2.245   3.296  0.2191 -0.0673  0.1560
 6021W        W 9765   9.295   3.008   1.066  0.0305 -0.1312 -0.0480
 6022W        W 9766   4.152   8.514   3.310 -0.1722  0.0357 -0.0046
 6023W        W 9767   2.823   3.862  11.562  0.0354 -0.1468  0.1534
 6024W        W 9768   0.606   7.069   2.140  0.1249 -0.0495  0.1743
 6025W        W 9769   7.328   7.781   1.646  0.3266 -0.0898  0.1486
 6026W        W 9770   9.370   1.374   0.278 -0.2132  0.1340  0.1497
 6027W        W 9771   9.739   9.145   3.890 -0.1665  0.1829  0.2123
 6028W        W 9772   9.855   4.443   2.089  0.1137 -0.1098 -0.1996
 6029W        W 9773   3.012   7.505  10.198 -0.3110  0.0357  0.0273
 6030W        W 9774   6.855   2.074   2.920 -0.2247 -0.0161  0.0790
 6031W        W 9775   2.766   2.619   1.578  0.0937 -0.0055 -0.2374
 6032W        W 9776   1.103   7.347   2.900  0.2499 -0.0966 -0.1855
 6033W        W 9777   6.850   5.358   0.426  0.2816  0.2149  0.0389
 6034W        W 9778   1.667   0.749  11.093 -0.1689 -0.1065 -0.0413
 6035W        W 9779   9.148   7.149   9.441  0.1865  0.2120  0.3204
 6036W        W 9780   0.853   3.476  12.487  0.1025 -0.1131 -0.0931
 6037W        W 9781   0.484   1.278  12.650  0.1789 -0.0317 -0.0084
 6038W        W 9782   8.770   5.159  11.956  0.0672  0.2784 -0.3245
 6039W        W 9783   0.159   6.166   1.772  0.0451  0.1802 -0.3186
 6040W        W 9784   5.282   8.604   1.919  0.2453  0.0644  0.0325
 6041W        W 9785   3.875   7.888   4.502 -0.0794 -0.1058 -0.0515
 6042W        W 9786   0.386   9.151  11.903 -0.0031 -0.0597  0.1476
 6043W        W 9787   9.313   3.944   7.644  0.2011  0.1629 -0.0177
 6044W        W 9788   1.422   3.047   3.138 -0.2067 -0.0582 -0.4046
 6045W        W 9789   3.266   1.798   4.361  0.2542 -0.0124  0.3900
 6046W        W 9790   0.471   4.582   2.239 -0.1481  0.0252  0.2284
 6047W        W 9791   7.020   1.220   8.840 -0.4627  0.0303 -0.1631
 6048W        W 9792   0.063   5.159   9.346 -0.0360 -0.0922 -0.2186
 6049W        W 9793   7.815   1.961   1.886 -0.0237 -0.3631  0.0385
 6050W        W 9794   7.165   2.018   0.476  0.1561 -0.0757  0.4313
 6051W        W 9795   7.892   5.985   2.442 -0.0314  0.0075  0.1195
 6052W        W 9796   2.552   8.653   8.908  0.3035 -0.1447  0.3250
 6053W        W 9797   8.853   4.902   9.714 -0.0450  0.2524  0.0194
 6054W        W 9798   5.954   8.021   8.862 -0.0017 -0.2695  0.1711
 6055W        W 9799   9.581   2.459   4.202  0.0029  0.2913 -0.0236
 6056W        W 9800   6.144   3.573   9.451 -0.0366  0.1055 -0.4525
 6057W        W 9801   3.064   9.279   1.127 -0.0214 -0.0246  0.2443
 6058W        W 9802   3.424   5.127  11.381 -0.1780 -0.0402  0.2698
 6059W        W 9803   1.839   8.295   9.594 -0.0128 -0.0840  0.0798
 6060W        W 9804   7.549   2.130  11.002  0.1169 -0.0043 -0.0984
 6061W        W 9805   2.342   9.820   9.244 -0.0483  0.2273  0.2369
 6062W        W 9806   9.154   6.756  11.621  0.1066 -0.3482 -0.1417
 6063W        W 9807   0.213   5.655   3.464 -0.2641 -0.0803 -0.1055
 6064W        W 9808   1.900   1.228  10.899  0.1289 -0.0717 -0.0339
 6065W        W 9809   1.293   1.946  10.694  0.3833  0.3701 -0.3460
 6066W        W 9810   8.957   9.868   2.649 -0.0377 -0.0047 -0.1300
 6067W        W 9811   7.785   8.052   9.772 -0.0643 -0.3143 -0.3067
 6068W        W 9812   2.564   5.558   1.268 -0.2154 -0.0633 -0.1509
 6069W        W 9813   1.163   1.649  11.107 -0.0687 -0.2270  0.1084
 6070W        W 9814   5.591   3.788   2.796  0.1653 -0.2969 -0.0574
 6071W        W 9815   8.345   9.854   2.065  0.0774  0.0587 -0.0956
 6072W        W 9816   0.529   7.696   2.558  0.1503  0.2282 -0.0878
 6073W        W 9817   8.510   1.001   2.119  0.2371  0.0458  0.0814
 6074W        W 9818   8.446   5.309  10.418  0.0663 -0.5749 -0.0257
 6075W        W 9819   7.199   5.930   1.547 -0.3128 -0.0912 -0.0882
 6076W        W 9820   5.949   6.553   1.780  0.3483 -0.1404 -0.1354
 6077W        W 9821   8.681   0.206  11.353  0.1088  0.0446 -0.0848
 6078W        W 9822   8.097   3.433  12.165 -0.2825  0.1559 -0.0524
 6079W        W 9823   1.027   1.023   9.084 -0.1271 -0.0121  0.0551
 6080W        W 9824   2.377   9.142  10.526 -0.1442 -0.1036  0.3040
 6081W        W 9825   8.218   1.712   1.580 -0.1138 -0.0026 -0.2347
 6082W        W 9826   9.588   1.564   3.905  0.1256 -0.0352 -0.2426
 6083W        W 9827   7.040   3.760  11.463 -0.0116  0.1939  0.2078
 6084W        W 9828   4.185   2.072  10.662 -0.0047 -0.0588 -0.2535
 6085W        W 9829   3.858   4.756  12.399  0.1582 -0.1504  0.0762
 6086W        W 9830   6.870   5.840   2.617 -0.1139 -0.1120  0.3454
 6087W        W 9831   9.188   7.719   8.897  0.0826 -0.2403  0.0219
 6088W        W 9832   9.388   3.909   4.506  0.0219  0.0765 -0.0406
 6089W        W 9833   5.632   9.256   3.758  0.3624 -0.2147 -0.3076
 6090W        W 9834   3.953   5.034   2.889  0.1648  0.1282 -0.1113
 6091W        W 9835   4.097   9.160  12.519  0.1140 -0.1003  0.2620
 6092W        W 9836   3.097   2.511  11.755 -0.1362 -0.1557 -0.1941
 6093W        W 9837   6.537   2.148   9.447 -0.1401 -0.0612 -0.0556
 6094W        W 9838   8.054   3.144   0.888  0.3068  0.1001 -0.0845
 6095W        W 9839   6.837   8.008   9.597 -0.2616  0.2381 -0.0710
 6096W        W 9840   3.121   8.153   1.768 -0.2000  0.1813  0.1093
 6097W        W 9841   3.286   3.419   1.840  0.3151  0.0360 -0.0198
 6098W        W 9842   5.049   5.835   0.433  0.0145 -0.3132 -0.2572
 6099W        W 9843   5.054   5.344   0.640 -0.4106  0.2850 -0.1117
 6100W        W 9844   8.273   7.866  10.127  0.0560  0.1600 -0.0235
 6101W        W 9845   6.256   7.881  12.829 -0.1110 -0.2443  0.0198
 6102W        W 9846   1.700   4.568   2.005  0.0436 -0.1897 -0.1476
 6103W        W 9847   7.095   4.907   3.203 -0.2210  0.2131  0.0168
 6104W        W 9848   1.346   0.622   2.048 -0.2570 -0.0520 -0.0598
 6105W        W 9849   1.456   0.570  12.680 -0.3812  0.1225 -0.1296
 6106W        W 9850   1.049   5.617  11.696  0.1147  0.0065  0.0095
 6107W        W 9851   4.712   4.505  12.833 -0.0072  0.1534 -0.0101
 6108W        W 9852   0.611   2.788   1.840 -0.1182 -0.4430  0.0979
 6109W        W 9853   5.514   6.821  11.055 -0.5536  0.2755 -0.0765
 6110W        W 9854   1.912   3.133   3.285  0.2557  0.0647 -0.0623
 6111W        W 9855   8.093   6.130  11.818 -0.0079 -0.3188 -0.2543
 6112W        W 9856   4.487   6.025  12.799  0.0075  0.0990 -0.0646
 6113W        W 9857   5.560   8.273  10.706  0.1141  0.0423 -0.2245
 6114W        W 9858   4.296   2.063   0.216 -0.1074  0.0543  0.2408
 6115W        W 9859   1.429   5.924   8.824 -0.0412 -0.2223  0.2300
 6116W        W 9860   0.166   1.530   4.652  0.1433  0.0644  0.2266
 6117W        W 9861   2.106   6.751   0.296  0.1496 -0.2567  0.1127
 6118W        W 9862   1.718   9.519   4.187 -0.0253 -0.2982  0.2718
 6119W        W 9863   5.108   2.558  11.809 -0.2549  0.0311  0.2074
 6120W        W 9864   8.306   9.186   2.482 -0.0044 -0.0473  0.1179
 6121W        W 9865   7.955   5.187  11.835 -0.2076  0.0390  0.1188
 6122W        W 9866   0.758   3.866   3.032 -0.1508 -0.1989 -0.0090
 6123W        W 9867   2.165   1.350  11.801 -0.1662  0.2429 -0.1965
 6124W        W 9868   2.480   4.171  11.217  0.1419 -0.1196 -0.0612
 6125W        W 9869   5.011   0.062   1.898 -0.1778  0.2870 -0.1900
 6126W        W 9870   8.243   0.494   3.386 -0.1614 -0.2098  0.2746
 6127W        W 9871   9.344   2.909   4.241  0.0270 -0.0218  0.2691
 6128W        W 9872   2.570   7.416   7.825 -0.0914  0.1608 -0.3865
 6129W        W 9873   3.514   2.743  10.256 -0.1923  0.2737 -0.2349
 6130W        W 9874   1.146   8.570  12.235  0.3446 -0.3944  0.0442
 6131W        W 9875   8.915   4.174   8.964  0.1809 -0.1569  0.1220
 6132W        W 9876   2.419   1.436  12.263  0.2563 -0.1346 -0.1573
 6133W        W 9877   2.042   1.493   1.346  0.1862 -0.0844  0.1141
 6134W        W 9878   0.730   3.126   0.911  0.2638 -0.1311  0.2310
 6135W        W 9879   8.021   6.533   5.114  0.2673  0.3051  0.2383
 6136W        W 9880   6.008   7.060   8.932 -0.4369 -0.1574  0.4033
 6137W        W 9881   6.811   7.184   8.776 -0.0839  0.2084 -0.0510
 6138W        W 9882   1.603   9.052   1.648  0.1883 -0.0258 -0.0547
 6139W        W 9883   1.936   2.520   1.461  0.0250  0.1002  0.2630
 6140W        W 9884   5.631   5.640   1.344  0.1201  0.0157 -0.0927
 6141W        W 9885   7.745   3.003   3.463  0.1131  0.0543  0.0898
 6142W        W 9886   3.207   8.382   1.268  0.0896  0.3731  0.0308
 6143W        W 9887   9.767   6.575   3.158 -0.0431 -0.0424 -0.1284
 6144W        W 9888   6.919   9.063  11.743  0.0214  0.0341  0.0938
 6145W        W 9889   1.897   2.742  12.111 -0.0503 -0.0632  0.0531
 6146W        W 9890   3.649   5.179  12.856 -0.2928  0.2153  0.3411
 6147W        W 9891   1.863   7.223   4.716 -0.2242 -0.2545  0.1307
 6148W        W 9892   1.775   6.514  12.486  0.1194 -0.2483 -0.0567
 6149W        W 9893   6.312   0.800   3.665  0.3043  0.0857  0.1726
 6150W        W 9894   8.095   5.238   9.077 -0.2602 -0.0830  0.3732
 6151W        W 9895   7.338   8.041  11.759  0.1632  0.0087 -0.1312
 6152W        W 9896   0.901   8.406  12.735 -0.0629 -0.1005 -0.2145
 6153W        W 9897   8.764   6.342  10.582  0.0835 -0.1808  0.0828
 6154W        W 9898   3.223   7.718   2.092 -0.2922  0.0701  0.3525
 6155W        W 9899   3.325   1.259   0.610 -0.1634  0.0589 -0.0831
 6156W        W 9900   2.074   6.053   3.931 -0.3904  0.0499 -0.0231
 6157W        W 9901   5.223   0.599  12.014  0.2181 -0.0100  0.2205
 6158W        W 9902   1.925   9.531  12.396 -0.0054  0.0970  0.0006
 6159W        W 9903   4.709   6.164   2.956 -0.0478 -0.1300 -0.1452
 6160W        W 9904   2.120   5.368  11.967  0.0361  0.2240 -0.2292
 6161W        W 9905   9.630   1.293   9.325 -0.1346  0.0227 -0.0504
 6162W        W 9906   1.503   7.553  10.008  0.1982 -0.3248  0.0872
 6163W        W 9907   7.853   2.728  10.397 -0.2964  0.0250  0.1298
 6164W        W 9908   3.238   4.164  11.367 -0.0501 -0.3484  0.0377
 6165W        W 9909   9.485   8.015   3.122 -0.0550  0.0188  0.3550
 6166W        W 9910   1.649   5.280   3.518  0.0713  0.0391 -0.3268
 6167W        W 9911   7.869   3.328   1.926  0.3128  0.0681 -0.0537
 6168W        W 9912   9.774   1.908   4.319 -0.1298  0.2988  0.1819
 6169W        W 9913   6.713   4.548   9.894 -0.2180 -0.2642 -0.2160
 6170W        W 9914   1.820   4.376   2.718  0.2232  0.0781  0.1393
 6171W        W 9915   2.514   0.434  12.705 -0.1076 -0.3004 -0.0713
 6172W        W 9916   2.554   1.909   9.136  0.1720  0.0158  0.2864
 6173W        W 9917   7.126   1.887   0.020 -0.1673 -0.1854 -0.1329
 6174W        W 9918   7.597   1.107   3.571  0.1305  0.0254 -0.1652
 6175W        W 9919   8.042   4.911   0.321 -0.0748  0.0360  0.0455
 6176W        W 9920   6.057   0.602   2.657  0.0215  0.1989  0.0290
 6177W        W 9921   2.237   8.811  11.378 -0.0091 -0.2426  0.0149
 6178W        W 9922   6.327   6.951   1.101 -0.0057  0.1074 -0.0336
 6179W        W 9923   4.114   0.085  11.406  0.2823  0.1476 -0.2640
 6180W        W 9924   6.082   4.514   0.578 -0.1669 -0.1763  0.1755
 6181W        W 9925   4.319   2.634   3.221 -0.4171  0.3708 -0.0438
 6182W        W 9926   7.601   0.830   8.386 -0.2904  0.3997 -0.1123
 6183W        W 9927   3.717   8.406  10.882  0.3159 -0.1486  0.1075
 6184W        W 9928   5.728   1.257  12.479 -0.2841 -0.2208  0.2947
 6185W        W 9929   6.857   6.188   9.597  0.1870  0.6738  0.1149
 6186W        W 9930   2.836   0.717   1.895  0.1978  0.1092 -0.1760
 6187W        W 9931   1.092   1.498   8.229 -0.0912 -0.1711 -0.2278
 6188W        W 9932   4.459   9.585  12.677  0.5145 -0.1787 -0.3394
 6189W        W 9933   9.151   1.670  10.527  0.1531 -0.3020  0.1382
 6190W        W 9934   6.533   6.935  11.238 -0.3782 -0.0031  0.0768
 6191W        W 9935   1.420   6.193  10.136  0.2491  0.4193 -0.1143
 6192W        W 9936   7.072   0.708  10.843  0.0637  0.1334  0.2570
 6193W        W 9937   7.912   3.878   7.791 -0.1624  0.2684  0.1262
 6194W        W 9938   0.991   6.626  11.173 -0.1565  0.1794 -0.2747
 6195W        W 9939   0.211   0.473   3.116  0.0105 -0.4542 -0.0170
 6196W        W 9940   2.440   4.399  10.117 -0.0066 -0.0624 -0.1110
 6197W        W 9941   9.814   1.034  12.534  0.1534 -0.0182  0.2731
 6198W        W 9942   3.443   4.634   0.193 -0.0184  0.1643  0.1783
 6199W        W 9943   4.792   9.121   2.387 -0.0579 -0.1202 -0.2616
 6200W        W 9944   8.389   3.027   2.618 -0.2136 -0.3575  0.0776
 6201W        W 9945   0.829   5.047  10.639  0.1163 -0.3457 -0.1507
 6202W        W 9946   9.894   2.799   2.456  0.0137 -0.1762 -0.0522
 6203W        W 9947   9.831   0.183  11.304 -0.0770 -0.2314  0.3441
 6204W        W 9948   2.205   3.186   4.057  0.1362  0.2371  0.0745
 6205W        W 9949   3.649   6.151   0.489  0.1190  0.3213 -0.0959
 6206W        W 9950   2.959   1.553   9.259  0.3444 -0.2535  0.0071
 6207W        W 9951   6.607   0.973  12.735  0.1019 -0.1015 -0.0104
 6208W        W 9952   2.614   1.541   3.277  0.2022  0.2634 -0.4660
 6209W        W 9953   3.682   7.439   3.965 -0.1014 -0.2176 -0.1380
 6210W        W 9954   8.285   7.004   2.978  0.1590  0.1204 -0.0210
 6211W        W 9955   7.892   7.362   2.220  0.0714  0.2073 -0.2314
 6212W        W 9956   1.004   8.315   2.600 -0.1109 -0.1096 -0.1172
 6213W        W 9957   7.963   9.615   0.602 -0.0905  0.1932  0.2840
 6214W        W 9958   2.039   1.131   3.905 -0.1825 -0.3269  0.4705
 6215W        W 9959   7.789   4.407   2.834  0.3243  0.0346 -0.2127
 6216W        W 9960   8.094   3.510  10.122  0.3580  0.2611 -0.0555
 6217W        W 9961   6.499   4.877   0.549  0.2563 -0.2036 -0.0542
 6218W        W 9962   2.445   2.615  11.029 -0.1631  0.0804  0.1081
 6219W        W 9963   8.341   1.421  11.938 -0.1158 -0.3953 -0.1612
 6220W        W 9964   7.721   8.823  10.862  0.0078 -0.1806 -0.1133
 6221W        W 9965   6.805   7.299   9.338  0.1666 -0.1866 -0.1854
 6222W        W 9966   4.921   2.766  10.607  0.0416  0.1457 -0.0681
 6223W        W 9967   2.842   7.605   0.295  0.0177  0.0755  0.2238
 6224W        W 9968   0.302   0.272   2.345  0.5214 -0.2655  0.3198
 6225W        W 9969   9.209   2.972   3.654  0.0367  0.3316  0.1679
 6226W        W 9970   8.131   7.040  11.383  0.0545 -0.0523 -0.0042
 6227W        W 9971   8.503   7.180   8.694  0.1483  0.0278 -0.0495
 6228W        W 9972   6.050   0.307   3.051  0.1285  0.0866 -0.1824
 6229W        W 9973   9.352   7.900   0.061  0.2028 -0.0434  0.0477
 6230W        W 9974   0.413   2.540   2.251 -0.3643 -0.1600  0.1226
 6231W        W 9975   7.351   5.427   9.595  0.3341 -0.3203 -0.3064
 6232W        W 9976   7.926   4.343   8.772 -0.2045 -0.0073  0.0317
 6233W        W 9977   1.046   0.004  12.389  0.1688  0.2442 -0.4166
 6234W        W 9978   6.660   6.539  10.504 -0.0498  0.0912  0.4526
 6235W        W 9979   8.653   6.088   0.580 -0.0575  0.2759  0.0917
 6236W        W 9980   8.282   5.320  12.235 -0.0621 -0.0553 -0.0529
 6237W        W 9981   5.118   6.477   9.949  0.1023 -0.0890 -0.1042
 6238W        W 9982   3.707   6.660   0.278 -0.1804 -0.1583 -0.0586
 6239W        W 9983   8.925   3.213  11.674  0.1977 -0.0407  0.2920
 6240W        W 9984   1.796   1.449  12.874  0.3720 -0.0409  0.0384
 6241W        W 9985   6.383   0.382  12.219  0.0123 -0.0848 -0.0556
 6242W        W 9986   3.326   5.909   3.212  0.2085  0.0619  0.0792
 6243W        W 9987   7.577   3.013   1.072  0.2791 -0.0487 -0.1766
 6244W        W 9988   7.092   7.041   1.358  0.0516 -0.0598 -0.0915
 6245W        W 9989   5.913   6.842   1.369  0.0972  0.2659 -0.1458
 6246W        W 9990   0.740   3.205  12.935  0.0840  0.1848  0.0810
 6247W        W 9991   0.065   0.927  11.125 -0.4426  0.0714  0.0201
 6248W        W 9992   3.302   0.132   9.715  0.1836  0.2097  0.0174
 6249W        W 9993   9.006   0.172   9.878  0.0947 -0.1241  0.2541
 6250W        W 9994   8.282   6.525   1.360 -0.2057 -0.2363 -0.0461
 6251W        W 9995   2.134   9.250   4.061  0.0158 -0.2138  0.0045
 6252W        W 9996   4.813   6.464   3.357 -0.1676  0.0092  0.0455
 6253W        W 9997   4.177   0.105   2.977 -0.1329  0.0098  0.5320
 6254W        W 9998   0.247   2.529   0.235 -0.1644  0.0806  0.0001
 6255W        W 9999   3.774   8.789   3.528  0.1674  0.2366  0.1729
 6256W        W10000   5.142   3.507   0.063 -0.0159 -0.0893  0.1851
 6257W        W10001   2.571   4.701   0.727  0.1020  0.4522 -0.2902
 6258W        W10002   8.970   1.539   3.241 -0.1463 -0.0511  0.1856
 6259W        W10003   2.773   0.332   8.986 -0.2066 -0.0315  0.2218
 6260W        W10004   6.786   2.175   0.212 -0.0368 -0.1167 -0.4108
 6261W        W10005   3.614   5.535  11.112 -0.2949  0.3303 -0.2023
 6262W        W10006   5.676   1.955   1.712 -0.1854 -0.1862 -0.2136
 6263W        W10007   8.268   1.474  10.872  0.1359 -0.4742 -0.1271
 6264W        W10008   6.571   5.366  10.130  0.0467 -0.0396  0.0391
 6265W        W10009   0.027   1.897   2.949  0.0809 -0.1285 -0.1227
 6266W        W10010   7.504   5.799   3.336  0.0107 -0.1216 -0.0228
 6267W        W10011   1.701   6.012   2.171  0.1422  0.0606  0.4226
 6268W        W10012   9.267   0.699   3.161 -0.0707 -0.1412  0.3572
 6269W        W10013   0.086   1.782   3.638 -0.1093  0.1138  0.0711
 6270W        W10014   7.148   1.510   1.853 -0.0651  0.3101 -0.0470
 6271W        W10015   2.083   9.392   0.338 -0.1473 -0.0007  0.2019
 6272W        W10016   4.753   3.135   2.301 -0.2372  0.1542 -0.0362
 6273W        W10017   8.916   2.711  11.598 -0.0627 -0.0447 -0.0758
 6274W        W10018   5.465   5.030   0.770 -0.3172 -0.0478  0.2578
 6275W        W10019   5.428   6.890   3.568 -0.2247 -0.3750 -0.2816
 6276W        W10020   2.257   6.877  10.995 -0.0966 -0.0040 -0.0122
 6277W        W10021   8.981   3.402  12.318 -0.0086  0.1611  0.1329
 6278W        W10022   0.598   9.436   4.233  0.3585  0.1386 -0.1963
 6279W        W10023   4.780   5.320  11.632 -0.1358  0.1950  0.2547
 6280W        W10024   5.296   0.489  10.761 -0.0532  0.0301 -0.0038
 6281W        W10025   1.280   4.849  10.348  0.0228  0.0862  0.1615
 6282W        W10026   7.149   1.725   8.863 -0.1247  0.0649 -0.0011
 6283W        W10027   6.136   9.267   1.871 -0.0579 -0.0132  0.0860
 6284W        W10028   1.627   4.571  10.643  0.2153  0.1781 -0.1714
 6285W        W10029   7.595   8.277   1.761 -0.1448  0.3483  0.1563
 6286W        W10030   6.485   9.149   0.035  0.1615  0.0214  0.0010
 6287W        W10031   2.961   8.645  10.254 -0.0231  0.0286 -0.0132
 6288W        W10032   7.804   8.156  12.004 -0.1589 -0.2102  0.1290
 6289W        W10033   3.567   1.664  11.889  0.0113  0.0751 -0.1080
 6290W        W10034   8.636   2.862   1.694  0.0637  0.1088 -0.0351
 6291W        W10035   3.217   8.728   2.338 -0.0009 -0.1270  0.2059
 6292W        W10036   5.576   7.279   3.968 -0.2999 -0.0529  0.0050
 6293W        W10037   2.810   7.538  11.023 -0.0968 -0.0506 -0.2482
 6294W        W10038   9.674   6.523   9.615  0.1108  0.1314  0.0671
 6295W        W10039   7.757   2.849   9.560  0.0483  0.2176  0.5429
 6296W        W10040   9.472   7.608   2.847 -0.2327  0.0552 -0.0910
 6297W        W10041   3.989   8.649  11.328  0.3327  0.0402  0.1198
 6298W        W10042   4.459   6.866   4.877  0.0974  0.3830  0.0574
 6299W        W10043   8.422   4.932   3.299 -0.0708  0.3502  0.2972
 6300W        W10044   6.370   9.824   1.917 -0.0676  0.2613  0.1076
 6301W        W10045   2.635   5.862   4.307  0.0161  0.1913 -0.1696
 6302W        W10046   4.948   1.923  10.589  0.2601 -0.1398 -0.2917
 6303W        W10047   3.238   5.249   8.554 -0.1967 -0.1374  0.0117
 6304W        W10048   2.273   0.003  12.454 -0.0728  0.1376 -0.0010
 6305W        W10049   8.729   9.269   9.545  0.0331 -0.2328  0.2735
 6306W        W10050   0.469   1.398   3.476 -0.1863 -0.0961 -0.1740
 6307W        W10051   8.980   9.240   1.233 -0.4090 -0.0226 -0.0700
 6308W        W10052   4.426   7.600   1.474 -0.1851  0.1360 -0.2550
 6309W        W10053   7.264   2.475   2.212 -0.2325  0.0790  0.0981
 6310W        W10054   2.882   0.917  11.299 -0.1393  0.2353 -0.0145
 6311W        W10055   8.576   3.309  12.030 -0.4678 -0.0690  0.0416
 6312W        W10056   3.388   2.812   3.109  0.0365  0.2304  0.3605
 6313W        W10057   5.733   3.979   2.286  0.1890  0.0059  0.2273
 6314W        W10058   0.858   2.256   3.141  0.2151 -0.0374 -0.0059
 6315W        W10059   5.174   9.240   3.083  0.0911  0.1330 -0.0015
 6316W        W10060   7.790   4.122   0.785  0.3348  0.3590 -0.0043
 6317W        W10061   4.057   9.269  11.869  0.0428  0.2896  0.2795
 6318W        W10062   8.183   8.879   0.186 -0.1069  0.0870 -0.2062
 6319W        W10063   8.569   4.861   0.092 -0.2635 -0.4597  0.1292
 6320W        W10064   3.377   0.211   2.435  0.0207  0.0063 -0.0051
 6321W        W10065   7.252   7.187   4.457  0.2941  0.1717  0.2148
 6322W        W10066   0.179   0.877   4.893  0.1078  0.2911  0.2767
 6323W        W10067   3.658   7.500  10.965  0.1046 -0.0896 -0.0308
 6324W        W10068   9.859   3.810  10.853  0.2678  0.1028 -0.0845
 6325W        W10069   0.460   7.844  11.102 -0.3786 -0.4477  0.0091
 6326W        W10070   9.677   5.381  10.654  0.1204 -0.2521  0.0461
 6327W        W10071   5.493   0.123  12.546  0.0101 -0.0908 -0.1046
 6328W        W10072   9.620   6.850   8.107  0.1466 -0.1206  0.2882
 6329W        W10073   1.216   7.464   0.045  0.1391 -0.2326  0.1466
 6330W        W10074   0.811   7.855  12.889 -0.0912  0.0739 -0.1237
 6331W        W10075   2.838   8.835  10.724 -0.0260 -0.0585  0.1103
 6332W        W10076   0.850   4.117  10.717 -0.0778 -0.1680 -0.0027
 6333W        W10077   6.683   8.548   1.598 -0.1315  0.1522  0.1531
 6334W        W10078   1.733   7.143   9.696  0.0304 -0.0225  0.0146
 6335W        W10079   3.791   4.353   0.843  0.0045  0.1731  0.2020
 6336W        W10080   2.693   5.039   1.988  0.0513 -0.1387 -0.2111
 6337W        W10081   5.527   3.839  10.481 -0.0064 -0.2511 -0.2163
 6338W        W10082   8.402   5.571   9.720 -0.0976  0.2655 -0.3574
 6339W        W10083   0.127   9.596   3.939 -0.0035 -0.0736  0.2619
 6340W        W10084   9.558   0.774   8.330  0.3829  0.0109  0.2634
 6341W        W10085   3.576   4.657  11.368  0.2318  0.1327 -0.1559
 6342W        W10086   7.342   1.848   2.128  0.0598  0.4582 -0.0556
 6343W        W10087   6.832   1.692  12.133 -0.1229 -0.1200 -0.0743
 6344W        W10088   3.629   8.451   0.260  0.2498 -0.4090  0.0486
 6345W        W10089   0.163   9.076   0.018  0.0547  0.2362  0.2961
 6346W        W10090   9.802   2.432   2.935  0.2161 -0.2088  0.2565
 6347W        W10091   5.922   9.550   3.477 -0.1134 -0.2255  0.2332
 6348W        W10092   3.727   3.842  10.954  0.1403 -0.3222 -0.3949
 6349W        W10093   6.936   2.828   1.844 -0.0486  0.1176  0.0275
 6350W        W10094   5.707   4.800  11.383 -0.2010  0.1239  0.1079
 6351W        W10095   6.875   4.661  12.600 -0.2475  0.2200  0.0111
 6352W        W10096   9.826   1.549   0.405 -0.0015 -0.2103  0.0191
 6353W        W10097   7.631   8.770   3.741  0.1833  0.1561  0.1370
 6354W        W10098   7.916   4.334  12.564  0.1061  0.1024 -0.0295
 6355W        W10099   0.263   5.146   2.018 -0.0343  0.1890  0.0850
 6356W        W10100   6.962   4.309  11.298 -0.0606  0.1446  0.2116
 6357W        W10101   1.019   4.305  12.383  0.0124  0.2925  0.0133
 6358W        W10102   8.164   9.055   3.747 -0.1470 -0.3400  0.5734
 6359W        W10103   3.155   8.388   9.716  0.0183  0.0609  0.0363
 6360W        W10104   1.775   2.469   0.255  0.3410 -0.0154  0.2344
 6361W        W10105   7.755   2.884   0.608  0.1423 -0.0431 -0.2876
 6362W        W10106   9.339   8.775  10.941 -0.2408 -0.1201  0.4118
 6363W        W10107   4.662   5.141   1.051 -0.1333 -0.0490  0.0802
 6364W        W10108   9.785   3.140   1.303  0.1341 -0.0110 -0.2831
 6365W        W10109   4.701   4.023  12.639 -0.0716  0.0819  0.0308
 6366W        W10110   2.777   8.371   4.666  0.1307 -0.0011  0.1103
 6367W        W10111   2.097   6.607  11.991 -0.1010  0.1912 -0.0741
 6368W        W10112   7.456   6.593   2.663 -0.1985  0.3600 -0.0006
 6369W        W10113   7.436   1.577   9.754  0.1161  0.0809  0.4507
 6370W        W10114   4.950   9.889  10.159 -0.0699 -0.1392 -0.1089
 6371W        W10115   2.835   4.360   9.725 -0.0814  0.0063 -0.2384
 6372W        W10116   5.500   1.160   0.768  0.1579  0.2727  0.0526
 6373W        W10117   9.712   1.049   0.494 -0.2037  0.1093 -0.1426
 6374W        W10118   5.433   8.146   2.199 -0.0837  0.4353  0.1425
 6375W        W10119   0.696   6.733  12.079  0.1139  0.0674 -0.1397
 6376W        W10120   3.904   9.246   0.025  0.1682 -0.1675 -0.2476
 6377W        W10121   7.798   0.790  10.379  0.2972  0.2313  0.1947
 6378W        W10122   8.233   0.587   9.698 -0.0471  0.0318 -0.0752
 6379W        W10123   5.889   0.628   9.219  0.2073 -0.3486 -0.1155
 6380W        W10124   4.060   7.163   8.964  0.0031 -0.0065 -0.2973
 6381W        W10125   5.232   2.586  11.312 -0.0606 -0.3980  0.2266
 6382W        W10126   3.459   2.176   0.337  0.0225 -0.2926 -0.1045
 6383W        W10127   2.287   8.993  11.888 -0.1850  0.1328 -0.3265
 6384W        W10128   5.922   1.891   3.211  0.2023 -0.0867 -0.2753
 6385W        W10129   9.024   6.275  11.693  0.1138 -0.0635 -0.1073
 6386W        W10130   9.435   1.843   1.745 -0.1807 -0.0875  0.5120
 6387W        W10131   8.716   3.866   3.980  0.2692 -0.0553  0.0701
 6388W        W10132   1.730   9.042   3.573  0.0298  0.3750 -0.1252
 6389W        W10133   7.640   7.159  11.080  0.0847 -0.3496 -0.1468
 6390W        W10134   7.971   9.059   0.607  0.2990  0.2655 -0.0974
 6391W        W10135   5.193   2.290   2.599 -0.0295  0.2268 -0.1101
 6392W        W10136   4.958   8.470   3.084 -0.4179  0.1192  0.0251
 6393W        W10137   5.225   3.156   3.573  0.0415 -0.0452  0.2531
 6394W        W10138   1.176   3.701  10.505  0.1124 -0.1086  0.0118
 6395W        W10139   9.139   7.017   8.017  0.0515  0.0910 -0.2758
 6396W        W10140   9.011   2.553   9.594  0.0978  0.1677  0.1932
 6397W        W10141   4.429   0.516   2.546  0.0572 -0.1274  0.1995
 6398W        W10142   2.720   3.656  12.756 -0.3526 -0.2859 -0.2477
 6399W        W10143   3.365   0.714   4.160  0.0320  0.1941 -0.0058
 6400W        W10144   0.062   7.243   1.655 -0.0726  0.0608  0.0496
 6401W        W10145   8.383   8.154   8.510 -0.0907  0.1514 -0.3552
 6402W        W10146   5.366   3.163   9.074 -0.2855 -0.3315 -0.0665
 6403W        W10147   6.248   1.120  12.379 -0.0231  0.1466  0.1134
 6404W        W10148   4.316   1.055   0.189  0.2062  0.3965 -0.0056
 6405W        W10149   7.784   6.420   0.663 -0.2673 -0.3220 -0.0753
 6406W        W10150   0.095   8.592   9.713 -0.2928 -0.3611 -0.1863
 6407W        W10151   2.034   3.354  11.718  0.1667 -0.1435 -0.0347
 6408W        W10152   2.281   8.768  10.831  0.0052  0.0140  0.1370
 6409W        W10153   7.650   0.941   9.255 -0.0232 -0.1333 -0.0860
 6410W        W10154   9.288   8.505   2.890  0.2326  0.1145  0.0537
 6411W        W10155   5.615   0.870   0.135  0.0707  0.2236 -0.4692
 6412W        W10156   4.362   4.184   0.043 -0.0558  0.0374 -0.0597
 6413W        W10157   4.711   7.637   1.865 -0.0121 -0.1447  0.0357
 6414W        W10158   5.211   3.253   0.494  0.1625 -0.2276 -0.1056
 6415W        W10159   8.973   2.847   0.717 -0.1352 -0.2081  0.0796
 6416W        W10160   8.242   7.820   1.845 -0.1011 -0.0276 -0.0858
 6417W        W10161   8.272   0.517   4.589 -0.5964 -0.0135  0.0040
 6418W        W10162   0.121   0.600   3.638 -0.3976  0.5553  0.2842
 6419W        W10163   1.159   2.577  11.476  0.0264 -0.0879 -0.0375
 6420W        W10164   8.997   3.425   3.477 -0.0046 -0.2869 -0.1030
 6421W        W10165   4.932   3.291   1.825  0.5870 -0.2948  0.2696
 6422W        W10166   1.421   2.614   1.488  0.1999 -0.0001 -0.5215
 6423W        W10167   1.737   7.560   8.815  0.0666 -0.0965 -0.2357
 6424W        W10168   7.703   6.159  10.953 -0.0767 -0.0482  0.2879
 6425W        W10169   0.788   0.512  11.296  0.1123  0.0140 -0.1096
 6426W        W10170   1.693   0.918   2.824 -0.0003 -0.1900 -0.3345
 6427W        W10171   0.596   6.771   3.790 -0.0479 -0.0402 -0.0819
 6428W        W10172   5.447   5.723   1.877  0.0352 -0.1627 -0.0371
 6429W        W10173   6.989   8.907   8.862 -0.0742  0.2668  0.1880
 6430W        W10174   7.926   4.691   0.969 -0.1819  0.3372  0.2860
 6431W        W10175   3.176   8.776   9.150 -0.0804 -0.0499  0.3055
 6432W        W10176   3.745   9.095  11.523  0.3373  0.0385  0.1113
 6433W        W10177   4.783   2.029  11.127  0.2469 -0.1465  0.2540
 6434W        W10178   8.363   5.551  11.789  0.2752  0.0572  0.1728
 6435W        W10179   0.105   7.859   4.060 -0.2212  0.0158 -0.1560
 6436W        W10180   2.587   2.705   9.868 -0.2343  0.0239 -0.0692
 6437W        W10181   5.887   0.510  12.800  0.0591 -0.3871 -0.0211
 6438W        W10182   0.399   7.898   3.200  0.1965 -0.1455  0.2287
 6439W        W10183   9.785   8.955   8.857 -0.0236  0.2150  0.5627
 6440W        W10184   4.806   6.740  12.366  0.1439  0.0971 -0.1617
 6441W        W10185   8.971   3.316   3.982  0.1278  0.3243  0.0369
 6442W        W10186   4.316   6.772  10.297 -0.1941  0.0006  0.0964
 6443W        W10187   2.474   3.043   0.584 -0.4604  0.2056  0.4193
 6444W        W10188   2.363   4.094   2.142 -0.2896 -0.0684  0.1401
 6445W        W10189   7.736   0.198   1.305 -0.1496 -0.1398 -0.1121
 6446W        W10190   7.235   6.642   2.251  0.0444  0.0824  0.0027
 6447W        W10191   3.267   2.030  12.173  0.0598  0.0577  0.1749
 6448W        W10192   7.432   8.146   4.059  0.1313 -0.4711 -0.0986
 6449W        W10193   7.942   7.692   3.769 -0.1341 -0.0021  0.2848
 6450W        W10194   3.209   9.874  12.553 -0.0589  0.1685  0.2893
 6451W        W10195   0.436   3.637  12.263  0.0734 -0.0246  0.1063
 6452W        W10196   4.861   7.924   4.391  0.1844  0.1939  0.1294
 6453W        W10197   6.508   2.076   0.596 -0.1036 -0.0629 -0.1156
 6454W        W10198   9.001   2.299  10.026 -0.0253  0.2868  0.0235
 6455W        W10199   5.215   4.017   9.098 -0.0815 -0.1010 -0.2838
 6456W        W10200   7.652   4.490  10.976 -0.2606  0.0126  0.1571
 6457W        W10201   9.834   1.747   2.492 -0.1279 -0.1434 -0.1910
 6458W        W10202   1.992   3.487   1.792 -0.0693  0.1994 -0.0177
 6459W        W10203   1.933   8.507   3.731  0.2412 -0.0671  0.0193
 6460W        W10204   6.309   8.172   1.727  0.2443  0.1535 -0.0598
 6461W        W10205   2.935   5.991   3.581 -0.1525  0.2632 -0.1739
 6462W        W10206   9.460   6.434  11.960 -0.0057 -0.0230  0.3365
 6463W        W10207   4.949   7.098   5.216 -0.1241  0.1026  0.0503
 6464W        W10208   1.959   4.562   0.076 -0.0729 -0.0030 -0.1562
 6465W        W10209   7.140   4.562   0.083 -0.0461  0.2589  0.0641
 6466W        W10210   6.860   0.247   2.477 -0.2923  0.3466 -0.1548
 6467W        W10211   1.764   1.807  11.905  0.1491 -0.3743 -0.3506
 6468W        W10212   7.984   2.373  10.979  0.0951 -0.1943 -0.0822
 6469W        W10213   7.944   8.039   0.075  0.3413  0.1160 -0.1049
 6470W        W10214   1.723   5.130   0.118 -0.0581  0.0764  0.0696
 6471W        W10215   4.224   2.048   9.755 -0.3334 -0.0071  0.2263
 6472W        W10216   8.779   2.026   9.579 -0.0748 -0.0961  0.0962
 6473W        W10217   4.446   2.911   2.693  0.0991 -0.0367 -0.1470
 6474W        W10218   5.291   8.914   0.459  0.1729  0.2436  0.1821
 6475W        W10219   7.345   5.914  11.461  0.1296 -0.0251  0.1788
 6476W        W10220   0.678   8.505   8.704  0.2243 -0.1245  0.0819
 6477W        W10221   6.468   3.462   9.068  0.0688  0.2086  0.1119
 6478W        W10222   2.699   0.031   0.848 -0.1538  0.1415  0.0119
 6479W        W10223   3.268   4.505   9.002 -0.1018  0.1359 -0.1451
 6480W        W10224   3.872   4.369   0.323  0.0179  0.3163 -0.0890
 6481W        W10225   5.435   9.790   9.703 -0.1730  0.0798 -0.4261
 6482W        W10226   3.773   7.189  12.208  0.1755 -0.0667  0.2581
 6483W        W10227   3.280   5.323   1.062 -0.0300 -0.2207 -0.2962
 6484W        W10228   7.323   6.466  11.081 -0.3103 -0.3924  0.1320
 6485W        W10229   0.423   5.823   3.922 -0.0929 -0.1104  0.1560
 6486W        W10230   0.680   6.222   1.631  0.3733  0.0482 -0.0743
 6487W        W10231   1.530   4.299   8.513  0.0062 -0.0419 -0.0216
 6488W        W10232   6.521   0.470   2.056 -0.5003  0.2165  0.0971
 6489W        W10233   5.480   9.176  10.431 -0.0339  0.1058  0.0642
 6490W        W10234   9.744   0.857   3.231 -0.1248  0.1688 -0.1673
 6491W        W10235   0.113   5.059  11.664 -0.0191 -0.2044 -0.1406
 6492W        W10236   7.774   7.791   3.282  0.0058  0.2655  0.0431
 6493W        W10237   9.389   9.891   1.757  0.0776 -0.3479 -0.0703
 6494W        W10238   0.731   1.843  10.669  0.0951  0.0200  0.1083
 6495W        W10239   3.161   8.604   0.340  0.1012  0.0715 -0.1454
 6496W        W10240   4.920   3.371   3.174 -0.3280 -0.0059 -0.2324
 6497W        W10241   9.032   1.676   9.043  0.0632  0.1042 -0.2656
 6498W        W10242   3.350   6.336   3.496 -0.0700 -0.0250  0.1687
 6499W        W10243   1.067   8.648   2.974  0.1382 -0.0831 -0.1418
 6500W        W10244   4.581   4.096   9.932  0.0385  0.0656  0.0083
 6501W        W10245   3.781   6.243   3.240 -0.3208  0.0528  0.1001
 6502W        W10246   9.265   7.236   8.956 -0.2244  0.0026  0.0396
 6503W        W10247   1.081   1.189   1.120 -0.1600 -0.1473 -0.1469
 6504W        W10248   7.818   9.459   9.172 -0.0178  0.0506  0.0429
 6505W        W10249   0.472   9.323   2.560  0.2425 -0.0797  0.0613
 6506W        W10250   1.218   1.924  12.579 -0.0454 -0.0149  0.2487
 6507W        W10251   8.796   7.377   4.254  0.4093 -0.0592 -0.0210
 6508W        W10252   6.688   1.697   0.134 -0.2602  0.2364 -0.0547
 6509W        W10253   4.380   2.979   0.555  0.1636 -0.0151  0.1705
 6510W        W10254   5.640   1.495  11.940  0.1507 -0.0267  0.0510
 6511W        W10255   1.959   8.266  12.573 -0.2353  0.1454  0.0073
 6512W        W10256   8.266   6.765   3.846  0.0007  0.1667 -0.1550
 6513W        W10257   5.036   0.508   1.721 -0.1109  0.2335 -0.0976
 6514W        W10258   5.291   0.324  10.041 -0.0393  0.1274 -0.0999
 6515W        W10259   8.256   4.138   0.954 -0.2018  0.0499  0.0221
 6516W        W10260   8.454   8.758   2.624 -0.2137  0.1785 -0.1567
 6517W        W10261   4.817   0.859   1.424 -0.1113 -0.1635 -0.0148
 6518W        W10262   5.502   2.598  12.684  0.0872 -0.2830  0.2119
 6519W        W10263   4.527   8.814   3.327 -0.0170 -0.1383  0.2266
 6520W        W10264   7.994   4.291   3.739 -0.2355 -0.3602 -0.0202
 6521W        W10265   8.232   0.143   1.596 -0.2983 -0.2708  0.0794
 6522W        W10266   5.673   0.607   4.049  0.1065 -0.0981  0.4957
 6523W        W10267   6.819   0.490  11.175  0.1222  0.2097 -0.0425
 6524W        W10268   6.895   8.048   8.577 -0.0919 -0.0680  0.2007
 6525W        W10269   0.227   5.109   3.345  0.1186  0.0050  0.0739
 6526W        W10270   1.351   9.595  12.739 -0.1413 -0.0525  0.1291
 6527W        W10271   2.883   0.520   9.580  0.0226  0.1688  0.0388
 6528W        W10272   2.551   4.349   3.363 -0.0122 -0.0719  0.3553
 6529W        W10273   8.988   7.530   2.569 -0.2338 -0.0843 -0.2165
 6530W        W10274   3.235   6.902  11.408 -0.0611 -0.3518  0.1550
 6531W        W10275   9.365   7.562  11.005  0.2838  0.2636  0.0534
 6532W        W10276   1.783   8.745  11.649  0.0788 -0.3553  0.1096
 6533W        W10277   8.635   5.296   2.485  0.1373 -0.2802 -0.1258
 6534W        W10278   5.853   5.240  11.169  0.1765 -0.1669 -0.0695
 6535W        W10279   0.125   7.946   8.423 -0.0308 -0.0279  0.1420
 6536W        W10280   3.577   0.753   3.673  0.0383  0.1171 -0.0898
 6537W        W10281   1.483   3.647  10.003  0.2616 -0.2549 -0.1097
 6538W        W10282   9.789   5.562  11.618 -0.2195  0.2523  0.0390
 6539W        W10283   8.458   1.610  12.675  0.1012  0.1792  0.2579
 6540W        W10284   4.266   6.188   1.223  0.2101  0.1836 -0.0028
 6541W        W10285   2.736   7.107   9.516 -0.0230  0.1573  0.2394
 6542W        W10286   7.236   8.176   5.339 -0.3905  0.1776 -0.1651
 6543W        W10287   7.840   4.769  12.271  0.2152  0.0438  0.1505
 6544W        W10288   1.537   3.460  10.796  0.0400  0.0952  0.0032
 6545W        W10289   1.089   6.529   1.640 -0.0183 -0.0042 -0.2799
 6546W        W10290   2.141   6.499  10.625 -0.1153 -0.1784 -0.3187
 6547W        W10291   9.236   9.326   9.313  0.4222  0.0450 -0.2270
 6548W        W10292   5.205   2.076   1.253 -0.0829 -0.0304  0.0166
 6549W        W10293   5.697   5.405   2.733  0.1476  0.4741  0.0809
 6550W        W10294   3.493   7.530   8.880 -0.2460  0.0951  0.2078
 6551W        W10295   0.566   2.844   1.273  0.0458  0.0239 -0.2371
 6552W        W10296   9.164   8.154  11.978 -0.0131 -0.3759  0.1021
 6553W        W10297   6.639   7.303  10.290  0.1466 -0.0684  0.0241
 6554W        W10298   1.226   2.286   1.088  0.2580 -0.0944  0.1368
 6555W        W10299   4.023   8.033   3.586  0.1871 -0.2371  0.0172
 6556W        W10300   0.723   4.988   5.307 -0.1938 -0.0006 -0.3220
 6557W        W10301   2.307   7.864   0.388  0.3000  0.3518 -0.1592
 6558W        W10302   2.510   5.084  11.970 -0.1407  0.1042 -0.0852
 6559W        W10303   4.548   9.634   3.128 -0.0078 -0.2559 -0.2108
 6560W        W10304   7.752   7.669  10.117  0.0273 -0.1531 -0.1676
 6561W        W10305   2.292   5.576   0.832  0.1808  0.1833  0.0863
 6562W        W10306   5.328   5.471   3.144  0.1544  0.0016  0.3461
 6563W        W10307   2.925   9.308   2.584  0.0709  0.2606  0.3266
 6564W        W10308   6.591   0.012   9.644  0.1538 -0.0769  0.0874
 6565W        W10309   1.804   4.899   9.579  0.0721  0.0778 -0.2572
 6566W        W10310   7.977   3.445  12.771  0.2946  0.0520  0.2622
 6567W        W10311   9.026   4.624   4.340 -0.1967 -0.0972  0.0930
 6568W        W10312   1.679   9.136   0.625 -0.2400  0.0874  0.2682
 6569W        W10313   8.130   6.262   3.761  0.0442 -0.1015 -0.0749
 6570W        W10314   0.199   0.390   4.063  0.1104 -0.3213  0.1715
 6571W        W10315   4.979   7.961   9.643  0.1600  0.0488 -0.0461
 6572W        W10316   0.206   4.371   7.827  0.0332 -0.1670  0.1236
 6573W        W10317   5.840   5.027  10.680 -0.1609  0.1319 -0.0665
 6574W        W10318   7.783   1.935   1.307 -0.0149  0.1414 -0.2399
 6575W        W10319   3.702   5.301   9.396 -0.1407 -0.0003  0.0874
 6576W        W10320   7.350   3.655   1.334 -0.1071  0.2630 -0.1582
 6577W        W10321   5.306   3.353   2.727 -0.0138 -0.2387  0.2049
 6578W        W10322   8.805   4.425   1.274 -0.0296 -0.0186 -0.2803
 6579W        W10323   5.011   6.162   0.043 -0.0059  0.3172  0.3402
 6580W        W10324   5.179   5.885   9.291 -0.2862  0.0463  0.1004
 6581W        W10325   5.167   6.842   2.374  0.1501  0.0591 -0.1255
 6582W        W10326   6.477   4.356   1.306  0.4443  0.1000  0.0763
 6583W        W10327   3.136   5.252   2.002  0.0357  0.3508  0.2265
 6584W        W10328   5.283   7.787   2.542  0.2160 -0.1303  0.0393
 6585W        W10329   2.125   0.633   3.680 -0.0647  0.1298 -0.0861
 6586W        W10330   5.454   6.443  12.198  0.0813 -0.1266 -0.0442
 6587W        W10331   1.979   3.838   0.842 -0.1278 -0.0613 -0.0289
 6588W        W10332   7.201   4.447   3.036 -0.0614  0.0408 -0.2753
 6589W        W10333   7.866   6.977  10.300 -0.3868  0.0723 -0.0751
 6590W        W10334   0.401   8.229  12.798  0.0069  0.2096  0.1380
 6591W        W10335   2.750   0.281  11.364  0.2595  0.0086  0.2210
 6592W        W10336   9.156   4.113   9.386  0.0486 -0.1164  0.3544
 6593W        W10337   3.789   5.023   4.202 -0.0259  0.2688  0.0980
 6594W        W10338   2.470   3.225  12.612 -0.1402  0.1639  0.0878
 6595W        W10339   8.550   4.410   0.522 -0.1202 -0.1203  0.1015
 6596W        W10340   1.951   8.376   0.924  0.0523 -0.0137  0.1835
 6597W        W10341   1.259   2.328   9.647  0.3406  0.1196 -0.0264
 6598W        W10342   3.513   0.147  10.573  0.1740 -0.1610  0.1993
 6599W        W10343   9.648   1.450   0.852  0.4509 -0.1795 -0.1174
 6600W        W10344   6.997   6.817   9.003  0.1333  0.0000 -0.1010
 6601W        W10345   9.538   6.881   8.690  0.3719 -0.0903 -0.1199
 6602W        W10346   4.699   4.906   2.527 -0.0982  0.2572 -0.0541
 6603W        W10347   9.222   2.518   3.872  0.2638  0.1514  0.1192
 6604W        W10348   7.534   3.732   8.102  0.0249 -0.1543 -0.1971
 6605W        W10349   0.655   4.772  11.562 -0.1448  0.1158  0.1374
 6606W        W10350   6.601   3.999  10.067  0.0307  0.0831 -0.1281
 6607W        W10351   1.591   5.442  10.885 -0.0831  0.2466 -0.3460
 6608W        W10352   2.225   3.900  10.204  0.0059  0.0997  0.3415
 6609W        W10353   0.672   9.502  12.227 -0.1498  0.0213  0.2215
 6610W        W10354   9.051   3.239   9.049 -0.3261  0.2961 -0.0174
 6611W        W10355   9.777   0.346  10.813  0.0300 -0.0933 -0.2824
 6612W        W10356   8.157   8.160   4.052 -0.1665 -0.0875 -0.1970
 6613W        W10357   0.324   7.258  12.804 -0.0025 -0.3746 -0.2285
 6614W        W10358   1.199   1.745  11.961 -0.0018  0.3170  0.0757
 6615W        W10359   6.988   9.571   3.109  0.4971 -0.0584  0.1904
 6616W        W10360   1.599   3.952  12.281 -0.1667  0.1019 -0.0691
 6617W        W10361   8.079   3.597   9.150  0.2658  0.0814  0.0379
 6618W        W10362   2.181   1.397   8.822 -0.1547 -0.3188 -0.1142
 6619W        W10363   0.934   5.400   9.378  0.0843  0.3202  0.3414
 6620W        W10364   6.790   8.510   9.164  0.3594 -0.1067  0.1394
 6621W        W10365   8.012   3.123   9.221  0.1271 -0.2171  0.1030
 6622W        W10366   5.744   4.672  11.874 -0.2317 -0.3146 -0.0484
 6623W        W10367   4.035   5.814  12.008  0.3534  0.1364  0.0374
 6624W        W10368   1.601   9.894   2.268 -0.2115 -0.1240 -0.0715
 6625W        W10369   1.041   0.064   9.969 -0.3037  0.3128 -0.0027
 6626W        W10370   7.412   2.918  11.686 -0.0680 -0.0467  0.2940
 6627W        W10371   8.018   2.781   4.311  0.1326 -0.1075 -0.1063
 6628W        W10372   8.695   7.435  11.477 -0.1470  0.0596 -0.1546
 6629W        W10373   7.659   4.075   9.104 -0.0823 -0.0431  0.1401
 6630W        W10374   6.128   5.147   2.876  0.0158 -0.3335  0.2870
 6631W        W10375   8.621   1.351  11.300 -0.0022 -0.4304  0.2147
 6632W        W10376   8.715   0.342   4.272  0.1661  0.5990 -0.1480
 6633W        W10377   8.650   8.938  10.557 -0.2285  0.2765  0.0739
 6634W        W10378   7.710   1.437  11.091  0.2427  0.0878 -0.1780
 6635W        W10379   3.966   6.885  11.729  0.1516 -0.2811 -0.3055
 6636W        W10380   9.742   2.208  12.775 -0.0514 -0.0051  0.1965
 6637W        W10381   6.522   5.351  11.467  0.3684  0.2953 -0.0615
 6638W        W10382   6.690   9.867  12.405  0.0921  0.3632 -0.2941
 6639W        W10383   8.124   2.500   4.696 -0.2283  0.0509 -0.0083
 6640W        W10384   6.348   9.524  10.588 -0.0239  0.1655 -0.3455
 6641W        W10385   7.685   6.002   3.847 -0.0553  0.2774  0.0362
 6642W        W10386   3.782   8.269  11.588  0.1292 -0.3790  0.0738
 6643W        W10387   8.980   5.199   0.693 -0.0749  0.1555 -0.1556
 6644W        W10388   0.981   5.340  12.394  0.0638  0.0632 -0.0069
 6645W        W10389   9.541   2.062  11.408 -0.0784 -0.1534  0.2105
 6646W        W10390   1.430   0.298   0.954 -0.0125  0.0341  0.0759
 6647W        W10391   4.276   9.579   9.420  0.3875  0.2434  0.0575
 6648W        W10392   4.587   6.795   1.353 -0.5786  0.0282 -0.0063
 6649W        W10393   7.240   4.278  12.573  0.1902  0.5154  0.2446
 6650W        W10394   3.541   0.824  10.489 -0.0911 -0.0201  0.1308
 6651W        W10395   0.063   8.442   5.098 -0.0216 -0.0274 -0.0147
 6652W        W10396   0.919   3.266   2.438  0.0247 -0.2841 -0.0692
 6653W        W10397   9.798   6.737  11.003 -0.1412  0.0752 -0.0299
 6654W        W10398   5.251   8.097  11.843 -0.0466  0.0965  0.1895
 6655W        W10399   8.761   0.672  12.624  0.0966  0.1460  0.3484
 6656W        W10400   1.381   5.684  11.300  0.0340 -0.0038  0.1246
 6657W        W10401   6.211   9.792  12.176  0.2894  0.2340 -0.0550
 6658W        W10402   9.244   8.438   0.062 -0.0808  0.1773  0.1761
 6659W        W10403   4.409   0.490  11.691  0.2247 -0.1888  0.4094
 6660W        W10404   0.026   7.017  12.300 -0.1279 -0.0600 -0.3149
 6661W        W10405   4.385   7.127   2.740 -0.0170 -0.0159 -0.0490
 6662W        W10406   9.489   4.400   4.180  0.1467 -0.0676  0.2201
 6663W        W10407   4.747   5.432  12.113 -0.3164 -0.1083  0.4240
 6664W        W10408   5.549   0.770  11.108  0.0729 -0.3649  0.0282
 6665W        W10409   4.115   2.364  12.312 -0.0652  0.0133  0.0029
 6666W        W10410   8.065   5.276   4.522  0.0577 -0.0474  0.1641
 6667W        W10411   0.215   7.145   3.623 -0.0857 -0.0012 -0.1712
 6668W        W10412   5.704   2.284  12.331 -0.0493  0.3448  0.1144
 6669W        W10413   8.485   8.759  12.716 -0.1982  0.1929 -0.0270
 6670W        W10414   8.998   7.522   2.094  0.0425  0.0726  0.2336
 6671W        W10415   5.364   2.847   2.609 -0.1225 -0.2013 -0.1482
 6672W        W10416   8.757   8.938   1.687  0.2693 -0.0114 -0.0038
 6673W        W10417   4.114   9.572   4.636 -0.1554 -0.4140 -0.1116
 6674W        W10418   7.825   0.323  12.364  0.0582 -0.3780 -0.0062
 6675W        W10419   4.342   1.117  12.622 -0.1085  0.1468 -0.0184
 6676W        W10420   1.008   1.951   9.324  0.1011 -0.0881 -0.0386
 6677W        W10421   3.399   9.108   8.839  0.1459  0.0201  0.0633
 6678W        W10422   8.668   9.542   2.316  0.1336  0.0493 -0.0982
 6679W        W10423   2.634   6.368  11.663  0.1128  0.1150  0.1865
 6680W        W10424   0.140   4.697  11.332 -0.2816  0.3978 -0.4178
 6681W        W10425   3.324   5.540   1.556  0.1783  0.0717  0.0577
 6682W        W10426   0.633   8.439  12.321  0.0013  0.0767  0.1567
 6683W        W10427   2.775   4.656  11.994  0.0942 -0.1931  0.1084
 6684W        W10428   6.103   6.653   0.058 -0.0112 -0.0346  0.0813
 6685W        W10429   9.595   5.190   3.747  0.2699  0.0586  0.1217
 6686W        W10430   6.296   7.596   1.787  0.0808  0.0145 -0.0825
 6687W        W10431   6.354   7.218  11.695  0.0844 -0.1556 -0.2181
 6688W        W10432   3.972   8.265   4.092  0.0681 -0.1735  0.0984
 6689W        W10433   7.752   9.813  10.683 -0.2019  0.0927 -0.0978
 6690W        W10434   6.096   1.130   2.623  0.2278  0.1649 -0.1732
 6691W        W10435   4.612   4.753  10.061  0.4369 -0.1020 -0.0862
 6692W        W10436   7.695   1.722   4.506 -0.1427 -0.1001 -0.0462
 6693W        W10437   8.282   3.065   1.313 -0.3922  0.0180  0.0573
 6694W        W10438   8.122   1.104   1.354  0.5452 -0.1516  0.0487
 6695W        W10439   8.417   3.012   9.765  0.3011 -0.0557 -0.0897
 6696W        W10440   2.929   6.758  11.768 -0.0092 -0.0801 -0.2471
 6697W        W10441   8.582   8.221   3.004 -0.0522 -0.2771  0.0441
 6698W        W10442   9.364   1.444  12.623 -0.0388  0.0890  0.0203
 6699W        W10443   2.343   8.177  12.883 -0.4436 -0.4190 -0.3591
 6700W        W10444   3.255   9.284  12.299  0.1802 -0.2533 -0.3284
 6701W        W10445   3.368   0.124   1.483 -0.0443 -0.3579 -0.1627
 6702W        W10446   5.422   3.986  12.916  0.0311 -0.0372  0.1435
 6703W        W10447   2.486   2.159   1.459  0.3562  0.0022 -0.1345
 6704W        W10448   1.191   6.918  10.531 -0.3804  0.2353 -0.2373
 6705W        W10449   1.629   7.393  11.518  0.2139  0.0667  0.0926
 6706W        W10450   3.676   6.740   2.280 -0.0377 -0.0970 -0.2772
 6707W        W10451   8.879   6.274   9.943  0.0918  0.0440 -0.0661
 6708W        W10452   4.320   5.839  10.497  0.2894 -0.0890  0.0232
 6709W        W10453   0.990   2.978  12.425 -0.0074  0.2409  0.0905
 6710W        W10454   2.654   0.769   9.949  0.2006 -0.1490 -0.3100
 6711W        W10455   5.589   9.082   0.056 -0.0611 -0.2929 -0.2035
 6712W        W10456   3.177   3.590   0.658 -0.1700 -0.0223 -0.0933
 6713W        W10457   9.175   5.297   4.557  0.1681  0.3504  0.0155
 6714W        W10458   8.576   7.474  10.113  0.2111 -0.1905  0.1142
 6715W        W10459   5.570   1.738   1.170 -0.1629  0.0640 -0.0608
 6716W        W10460   6.490   2.017  12.128 -0.1371 -0.4038  0.2038
 6717W        W10461   3.465   1.620  11.352 -0.0464 -0.0439 -0.0870
 6718W        W10462   8.483   3.468  12.555 -0.0515  0.2869  0.1301
 6719W        W10463   3.217   9.755  10.144 -0.1323 -0.1775  0.1627
 6720W        W10464   9.110   6.800   3.499 -0.1677  0.0220 -0.1797
 6721W        W10465   3.490   6.678   3.174 -0.0344  0.1013 -0.0872
 6722W        W10466   7.952   1.761   2.743 -0.0090  0.1692  0.2097
 6723W        W10467   7.119   4.796   2.545 -0.2176 -0.2669 -0.1096
 6724W        W10468   9.625   8.489   4.493 -0.1169 -0.1043  0.0875
 6725W        W10469   2.207   4.639   1.288  0.3158  0.2857  0.1303
 6726W        W10470   0.633   0.351   0.548 -0.0119  0.3021  0.0182
 6727W        W10471   0.412   6.339   4.002 -0.3179 -0.1114  0.1518
 6728W        W10472   4.064   9.306  10.516 -0.1672  0.1742 -0.1289
 6729W        W10473   1.074   1.705   1.278 -0.1039  0.2100  0.0852
 6730W        W10474   0.541   4.520   9.246 -0.1450  0.1913 -0.2315
 6731W        W10475   0.490   1.828   3.231  0.0387 -0.0373 -0.2619
 6732W        W10476   4.275   4.259  11.696 -0.1033 -0.0146  0.2366
 6733W        W10477   6.945   4.100   9.647 -0.1475  0.0401 -0.1651
 6734W        W10478   5.999   6.012  10.430 -0.2161  0.2162  0.2387
 6735W        W10479   1.577   4.359  12.570  0.2479 -0.0812 -0.1227
 6736W        W10480   7.521   8.173  10.784  0.0875  0.1468  0.4688
 6737W        W10481   6.451   2.854  12.141  0.0697  0.2889  0.1015
 6738W        W10482   7.492   6.182  10.446 -0.3228 -0.1571 -0.1324
 6739W        W10483   7.412   3.721  10.504 -0.0834  0.1272 -0.2223
 6740W        W10484   2.215   1.715   3.025  0.1489 -0.1884 -0.0214
 6741W        W10485   4.986   9.714  12.575 -0.0880  0.0961 -0.4614
 6742W        W10486   8.718   0.072   1.723 -0.2043 -0.1330  0.2888
 6743W        W10487   3.254   6.055   9.564  0.0112 -0.0244 -0.1191
 6744W        W10488   7.230   1.344  10.118  0.0637 -0.2253  0.1652
 6745W        W10489   2.940   3.338   0.971  0.1485 -0.0392  0.2154
 6746W        W10490   0.887   7.866   2.859  0.2921  0.0881 -0.2766
 6747W        W10491   0.900   6.675   1.210 -0.1015  0.0460  0.2222
 6748W        W10492   0.474   8.907   1.920 -0.1820  0.2026 -0.2827
 6749W        W10493   6.407   1.962   8.928 -0.2760 -0.3395 -0.0894
 6750W        W10494   8.879   4.783   8.183 -0.2948 -0.1339  0.0211
 6751W        W10495   7.138   4.060   1.753  0.1668  0.0368 -0.3812
 6752W        W10496   7.520   6.804   9.262  0.0828 -0.2039 -0.1925
 6753W        W10497   6.111   5.128  10.173  0.1374 -0.1021 -0.1083
 6754W        W10498   2.136   7.956   2.900 -0.0896  0.2404 -0.1161
 6755W        W10499   5.065   9.707   3.064  0.2345  0.0596 -0.0993
 6756W        W10500   5.895   8.241   2.446 -0.1846  0.3018  0.2318
 6757W        W10501   7.831   0.798  11.474 -0.1937 -0.1188 -0.0463
 6758W        W10502   3.428   1.071   1.434  0.1983 -0.0687  0.0565
 6759W        W10503   5.369   1.901  11.946 -0.3743  0.2587  0.1029
 6760W        W10504   1.045   6.576  10.204  0.0436  0.1811 -0.0815
 6761W        W10505   7.219   9.115   3.792  0.2239  0.2337  0.1486
 6762W        W10506   3.181   2.885   0.829 -0.0516  0.1129 -0.2041
 6763W        W10507   0.744   6.431  10.672 -0.0461  0.0638 -0.3159
 6764W        W10508   6.079   3.055   9.555 -0.0315 -0.0318 -0.1193
 6765W        W10509   1.924   6.396   2.469 -0.1807  0.1485 -0.1308
 6766W        W10510   8.663   9.360  10.824 -0.1460 -0.3702 -0.0288
 6767W        W10511   1.147   1.661   3.963 -0.1920 -0.1336 -0.1947
 6768W        W10512   6.079   3.143   0.775  0.1228 -0.0833  0.0885
 6769W        W10513   4.790   0.958   2.499 -0.0345  0.1853 -0.1439
 6770W        W10514   6.565   2.502   2.933 -0.0791 -0.1993  0.0228
 6771W        W10515   2.615   9.428   9.531 -0.0745 -0.1248 -0.1269
 6772W        W10516   5.001   3.699   0.560 -0.2000 -0.2943 -0.1676
 6773W        W10517   5.757   9.054   0.566  0.0133  0.0969  0.1474
 6774W        W10518   2.295   3.467  10.497  0.3801 -0.1284 -0.1658
 6775W        W10519   8.089   4.046   2.681 -0.4697 -0.0106 -0.1671
 6776W        W10520   0.166   1.490   1.228  0.1426  0.0653 -0.1252
 6777W        W10521   7.161   8.051   2.077 -0.0594 -0.1389  0.1214
 6778W        W10522   5.259   1.505  11.615  0.1569 -0.3699  0.0374
 6779W        W10523   8.136   7.522   8.801 -0.0494 -0.1101 -0.1245
 6780W        W10524   0.745   0.538   3.214  0.1324 -0.1811  0.0704
 6781W        W10525   6.586   1.113   9.416 -0.1023 -0.2066 -0.3805
 6782W        W10526   5.079   7.286  11.424  0.2373 -0.1667 -0.0636
 6783W        W10527   6.375   3.085  12.539  0.1783 -0.0004 -0.1460
 6784W        W10528   9.236   4.181  10.737 -0.3289 -0.1143  0.0438
 6785W        W10529   5.306   3.491   1.219 -0.0934 -0.1664 -0.0743
 6786W        W10530   0.629   2.046   0.244  0.0191 -0.4607  0.1767
 6787W        W10531   1.228   0.469  12.221 -0.2036  0.0367 -0.1994
 6788W        W10532   7.673   0.994   1.707  0.0220  0.1525  0.3112
 6789W        W10533   9.346   0.681   3.642 -0.3119 -0.0407 -0.0363
 6790W        W10534   8.779   5.918   9.473  0.0502 -0.4540  0.0149
 6791W        W10535   6.823   7.280  11.567  0.1967 -0.1249  0.0457
 6792W        W10536   1.250   3.164   0.752  0.0122 -0.0514 -0.0103
 6793W        W10537   5.394   6.345  11.212 -0.5105  0.1449  0.1430
 6794W        W10538   7.526   6.810  10.762 -0.3154  0.2427  0.0680
 6795W        W10539   2.972   2.156   8.933  0.0113  0.2984  0.3113
 6796W        W10540   1.278   3.690   3.798  0.0438  0.2298 -0.1965
 6797W        W10541   5.665   1.046   2.899  0.1766 -0.0791  0.0421
 6798W        W10542   4.662   7.929   9.212 -0.0650  0.1608  0.1068
 6799W        W10543   5.718   3.968  10.957 -0.0153 -0.2746 -0.3663
 6800W        W10544   4.052   6.074  12.557 -0.3049  0.0020  0.2134
 6801W        W10545   9.756   4.256  10.807 -0.0209 -0.2720  0.1649
 6802W        W10546   6.113   9.451   2.767 -0.0811 -0.1419  0.2583
 6803W        W10547   3.710   3.335   2.023  0.0540  0.0407 -0.1953
 6804W        W10548   1.205   9.148   9.791  0.0535 -0.0816 -0.1647
 6805W        W10549   0.922   2.547   1.456  0.3709 -0.0073 -0.1504
 6806W        W10550   8.753   4.421  11.283  0.2896  0.4120  0.3527
 6807W        W10551   4.452   5.220   9.942  0.1793  0.1771 -0.1731
 6808W        W10552   3.041   3.517  11.846 -0.0353 -0.2060  0.1495
 6809W        W10553   6.996   0.284  12.091  0.0248  0.1193 -0.0567
 6810W        W10554   4.349   3.189   1.984  0.0743 -0.0388 -0.0138
 6811W        W10555   2.688   1.712  10.165  0.0193 -0.3191 -0.0483
 6812W        W10556   3.651   8.928   0.382  0.0446 -0.0010  0.2133
 6813W        W10557   0.076   8.743   4.154  0.0485 -0.0017 -0.1167
 6814W        W10558   8.855   8.632   2.126  0.0809 -0.1252 -0.1788
 6815W        W10559   3.064   6.351  11.325  0.0436 -0.0738  0.0278
 6816W        W10560   3.659   7.264   9.323 -0.1044  0.0070 -0.0985
 6817W        W10561   9.125   1.107   9.428  0.1012  0.1840  0.3516
 6818W        W10562   7.190   1.400  11.910  0.1675 -0.1028 -0.1262
 6819W        W10563   8.261   6.176   9.351 -0.0855 -0.0300 -0.0397
 6820W        W10564   8.684   9.310  12.873 -0.0304  0.0618  0.0248
 6821W        W10565   3.211   0.977  12.245  0.0943 -0.0002  0.0154
 6822W        W10566   6.439   2.086  11.532  0.1488 -0.0001 -0.0210
 6823W        W10567   6.212   6.312  12.621 -0.0718  0.1887 -0.0129
 6824W        W10568   9.203   6.510   3.105 -0.1268  0.2401  0.0703
 6825W        W10569   2.482   9.384   0.557  0.0159 -0.0132 -0.1485
 6826W        W10570   5.122   9.436   2.642  0.0167 -0.1550  0.0368
 6827W        W10571   0.776   9.048   1.570  0.0498  0.1545  0.0461
 6828W        W10572   8.562   0.190   2.491  0.1756  0.3042  0.1195
 6829W        W10573   6.209   2.037   1.474  0.5482 -0.0080  0.4546
 6830W        W10574   3.687   1.600  12.926  0.0965  0.2389  0.2921
 6831W        W10575   8.908   1.629   0.249  0.0345 -0.1961 -0.0734
 6832W        W10576   4.159   5.669   3.677  0.1845  0.2499  0.1094
 6833W        W10577   0.474   0.159  11.411  0.1963  0.0441 -0.1834
 6834W        W10578   4.192   0.094  11.899 -0.0374  0.0921  0.3634
 6835W        W10579   2.345   2.729  12.446 -0.3431  0.0538  0.2617
 6836W        W10580   7.946   7.124   4.626  0.0638 -0.2332 -0.2823
 6837W        W10581   3.663   4.461   9.958 -0.0722  0.0382  0.0232
 6838W        W10582   8.768   3.046   0.306 -0.2191 -0.0926 -0.0873
 6839W        W10583   0.939   0.746   8.679 -0.0951 -0.2287  0.3368
 6840W        W10584   9.262   4.905  12.881  0.2159 -0.0467  0.1213
 6841W        W10585   2.410   1.963   4.058  0.2733 -0.0650  0.0752
 6842W        W10586   9.441   5.246   1.554  0.1075  0.0889  0.0997
 6843W        W10587   8.986   0.311   3.813  0.0849 -0.2948 -0.1413
 6844W        W10588   0.082   2.731   1.495  0.0043 -0.1655  0.1913
 6845W        W10589   7.728   7.240   0.564  0.1720  0.1000  0.0194
 6846W        W10590   3.239   2.626   1.705 -0.1419  0.1400 -0.1131
 6847W        W10591   6.374   7.823   4.553 -0.1223  0.3437 -0.0463
 6848W        W10592   3.569   2.366  11.954 -0.3142  0.1209 -0.0487
 6849W        W10593   1.272   0.962  12.197 -0.1403 -0.0553  0.3797
 6850W        W10594   5.976   8.288   0.045 -0.0257 -0.1325  0.1825
 6851W        W10595   2.141   3.485   9.997 -0.1870 -0.2118 -0.0810
 6852W        W10596   7.775   2.280   2.846  0.0989  0.2231  0.1849
 6853W        W10597   9.408   5.972   2.270  0.3556  0.1132 -0.0558
 6854W        W10598   6.215   9.318   9.133  0.2109  0.0489 -0.0314
 6855W        W10599   9.438   2.172   0.877  0.0087  0.3959  0.2865
 6856W        W10600   5.625   0.132  10.915 -0.1169 -0.2850 -0.3311
 6857W        W10601   4.167   0.519  11.080 -0.1513 -0.0232  0.1513
 6858W        W10602   5.036   8.882   3.417 -0.4848 -0.2658  0.2258
 6859W        W10603   5.771   1.965   0.007 -0.1954 -0.2430  0.0043
 6860W        W10604   2.835   1.880  12.835  0.0167  0.0338 -0.1120
 6861W        W10605   2.428   3.111  10.162 -0.0673 -0.4570  0.3040
 6862W        W10606   0.803   1.546   9.940  0.0566  0.1090  0.1307
 6863W        W10607   7.279   1.631  10.933  0.4002  0.2143 -0.2046
 6864W        W10608   2.805   6.770   9.023 -0.2624 -0.0258  0.1144
 6865W        W10609   6.182   6.171  11.785 -0.0518  0.1124  0.0520
 6866W        W10610   3.922   4.739   0.036 -0.0297 -0.1901  0.3241
 6867W        W10611   2.194   9.198  11.076 -0.5920 -0.3229 -0.1817
 6868W        W10612   0.490   4.490   4.130 -0.2490  0.1252  0.0878
 6869W        W10613   1.739   8.699   8.564  0.0812  0.1823 -0.1549
 6870W        W10614   3.769   2.827  12.111  0.2490 -0.1300  0.1242
 6871W        W10615   7.698   9.123   2.816  0.1128 -0.0033  0.1723
 6872W        W10616   2.510   1.253   3.758 -0.2463 -0.1580 -0.1663
 6873W        W10617   0.739   6.879  10.411 -0.0676  0.1408  0.1480
 6874W        W10618   3.270   3.956  10.532 -0.0788 -0.1847 -0.2478
 6875W        W10619   1.953   2.548   4.757 -0.4380 -0.0911 -0.0478
 6876W        W10620   7.363   0.628   0.612  0.1353  0.4479  0.0054
 6877W        W10621   9.097   0.826   2.664 -0.0087  0.1333 -0.3082
 6878W        W10622   7.905   3.880  10.413 -0.0555 -0.0420  0.1393
 6879W        W10623   0.008   6.969   0.123 -0.2128 -0.0381  0.2651
 6880W        W10624   3.188   7.641   3.826 -0.5239  0.0778  0.1482
 6881W        W10625   1.020   8.297   1.904  0.0415  0.1571 -0.0604
 6882W        W10626   2.969   9.265  12.703 -0.0610 -0.0701 -0.2134
 6883W        W10627   2.321   5.392  12.560  0.3826  0.0249  0.4149
 6884W        W10628   7.815   0.902   2.152 -0.1128 -0.2351  0.0506
 6885W        W10629   7.072   9.602   4.609 -0.0897 -0.0697 -0.0008
 6886W        W10630   9.717   0.229   2.122 -0.1344  0.0148  0.2278
 6887W        W10631   3.652   3.985   2.619  0.0647  0.1434 -0.0799
 6888W        W10632   4.308   8.178   2.559 -0.0022  0.0721 -0.3816
 6889W        W10633   7.325   0.474   2.508  0.2179 -0.0814  0.2077
 6890W        W10634   7.987   3.278   2.423 -0.1625  0.0416  0.1329
 6891W        W10635   9.643   5.529  10.055  0.2706 -0.1088  0.1489
 6892W        W10636   2.709   2.893  12.032  0.1026  0.1860 -0.1381
 6893W        W10637   4.997   9.629   9.757  0.0384  0.1657 -0.1616
 6894W        W10638   5.352   9.581   3.447 -0.0277  0.0719  0.0342
 6895W        W10639   8.655   2.832   3.010  0.1525  0.0901  0.1634
 6896W        W10640   9.034   1.604   1.447 -0.1555 -0.1340  0.0478
 6897W        W10641   0.631   3.641   0.963  0.0566  0.0425  0.0061
 6898W        W10642   4.203   9.264   3.247 -0.1893  0.2789  0.0420
 6899W        W10643   0.751   5.903   0.185 -0.0869 -0.0288 -0.0108
 6900W        W10644   2.576   6.163   3.918 -0.1438 -0.1886  0.2214
 6901W        W10645   2.403   3.712   9.431  0.1481  0.0174 -0.0226
 6902W        W10646   8.267   2.074   9.536  0.0341 -0.0974  0.1742
 6903W        W10647   0.767   7.625   9.022  0.0132  0.2041 -0.2122
 6904W        W10648   8.357   7.037   1.430  0.1247 -0.1944 -0.0238
 6905W        W10649   1.321   9.413   0.869 -0.1191 -0.4179  0.2332
 6906W        W10650   0.848   1.249  11.436  0.0598 -0.1015  0.2154
 6907W        W10651   7.187   9.663   3.559 -0.1721 -0.0419  0.0784
 6908W        W10652   8.490   2.663   0.871 -0.1352 -0.1616 -0.0667
 6909W        W10653   5.489   8.971   4.551  0.0666  0.2703 -0.1161
 6910W        W10654   5.091   6.109   0.929  0.1470 -0.2592 -0.1286
 6911W        W10655   8.460   8.486  10.767 -0.0121  0.4500 -0.0877
 6912W        W10656   0.225   6.828   9.503  0.3472  0.1375 -0.0316
 6913W        W10657   7.154   0.240   8.822 -0.0421  0.0228 -0.0653
 6914W        W10658   4.673   9.174   0.445  0.1301 -0.0771  0.2041
 6915W        W10659   0.785   3.488  11.112 -0.1615 -0.4033 -0.0182
 6916W        W10660   2.900   3.728   9.615  0.0582 -0.0604 -0.2216
 6917W        W10661   3.085   5.097   3.276 -0.0238 -0.0885 -0.4837
 6918W        W10662   5.985   7.292   1.257  0.0351 -0.2372  0.3641
 6919W        W10663   4.620   7.077   1.768  0.0164  0.1075 -0.0907
 6920W        W10664   6.582   1.488  12.597  0.0617  0.2597 -0.1297
 6921W        W10665   9.004   9.805   8.782 -0.1189  0.1546 -0.3263
 6922W        W10666   1.719   1.714  11.066  0.1372 -0.0599 -0.2588
 6923W        W10667   5.758   0.064   0.033  0.0480 -0.0039 -0.0789
 6924W        W10668   9.686   2.029   2.107  0.1975  0.3698 -0.1384
 6925W        W10669   5.809   6.323   8.754 -0.1131 -0.0074  0.2131
 6926W        W10670   2.021   8.603  12.121 -0.1453  0.0185 -0.3100
 6927W        W10671   6.603   3.252   9.529  0.1404  0.3184 -0.1972
 6928W        W10672   0.388   6.549   0.975 -0.1458  0.4483  0.0430
 6929W        W10673   2.648   7.626   4.578  0.2636 -0.1703  0.1688
 6930W        W10674   3.990   0.907  10.728 -0.1007  0.0687 -0.4221
 6931W        W10675   5.095   9.788   1.078  0.1094 -0.4170 -0.0951
 6932W        W10676   1.494   3.034   3.652  0.1820 -0.2909 -0.1192
 6933W        W10677   6.591   5.743   9.386  0.0547  0.2541 -0.1594
 6934W        W10678   5.723   7.354   3.524 -0.2442  0.1142 -0.2133
 6935W        W10679   4.223   4.694   2.593 -0.1303 -0.1728 -0.2245
 6936W        W10680   0.227   6.681   1.488  0.3012  0.3620  0.1859
 6937W        W10681   8.769   6.638   1.553 -0.3046 -0.2403 -0.0167
 6938W        W10682   3.205   3.535  10.023 -0.3420  0.0781  0.1336
 6939W        W10683   6.479   9.126   1.505  0.1050 -0.0385  0.1075
 6940W        W10684   7.900   2.511   3.316 -0.2767 -0.1069  0.0553
 6941W        W10685   3.581   5.163   0.471  0.2211 -0.3359  0.0963
 6942W        W10686   2.192   5.783   9.557  0.1178 -0.2312 -0.0282
 6943W        W10687   8.331   5.756  10.277  0.0121 -0.1652  0.2317
 6944W        W10688   8.857   8.444   3.965 -0.0140 -0.0995 -0.0095
 6945W        W10689   3.088   0.442   1.086 -0.1466  0.1429  0.1833
 6946W        W10690   6.238   2.676   2.213  0.0646 -0.3632 -0.1191
 6947W        W10691   7.781   8.511   8.831  0.0964 -0.1650  0.1942
 6948W        W10692   9.462   9.151  12.691  0.1537 -0.0234  0.0766
 6949W        W10693   2.780   9.375  10.730  0.0532 -0.2478 -0.0658
 6950W        W10694   5.602   7.664   3.078 -0.0064 -0.0362  0.0054
 6951W        W10695   7.669   0.033   0.862  0.2068  0.1007  0.1142
 6952W        W10696   7.835   5.740  12.735 -0.2133  0.0206 -0.4837
 6953W        W10697   8.770   1.713   4.180 -0.0286 -0.0442 -0.1505
 6954W        W10698   8.535   4.427   2.703 -0.1575 -0.4107  0.0726
 6955W        W10699   0.711   3.934  12.552  0.1559 -0.0815  0.1892
 6956W        W10700   7.585   6.493   0.100  0.1418 -0.2237  0.2470
 6957W        W10701   1.371   6.211  12.436 -0.1272  0.2212  0.0871
 6958W        W10702   3.053   4.281  10.861  0.4634  0.0147  0.4008
 6959W        W10703   5.486   0.447   1.532 -0.1440 -0.0334  0.0874
 6960W        W10704   0.830   0.676  10.809 -0.0477  0.3862 -0.0299
 6961W        W10705   0.225   4.538  10.894 -0.0482 -0.1548  0.1070
 6962W        W10706   6.038   5.547   8.184 -0.2627  0.2025  0.4800
 6963W        W10707   6.679   9.009  12.553 -0.1213  0.2030 -0.1370
 6964W        W10708   6.452   2.422  12.458 -0.1070 -0.0095 -0.0049
 6965W        W10709   9.157   0.413   1.072  0.0348 -0.1860  0.0573
 6966W        W10710   9.708   2.851   9.673  0.2276 -0.1570 -0.1584
 6967W        W10711   2.538   6.670   5.126  0.1269  0.1711 -0.3305
 6968W        W10712   2.697   7.257   8.819 -0.0494  0.0936 -0.1780
 6969W        W10713   7.886   4.410   9.531 -0.1913 -0.4242  0.0753
 6970W        W10714   3.512   8.558   3.099  0.0892  0.0815 -0.1694
 6971W        W10715   0.380   4.573  10.006  0.3361  0.0293  0.1153
 6972W        W10716   0.075   6.688   3.791 -0.0681 -0.0477 -0.0549
 6973W        W10717   5.076   8.244   2.628  0.0623 -0.1604  0.1192
 6974W        W10718   1.351   5.714   3.634 -0.0458 -0.0820 -0.2602
 6975W        W10719   0.764   5.041   9.669 -0.0595  0.0670 -0.1470
 6976W        W10720   1.072   9.480  10.161  0.0201  0.2965  0.0801
 6977W        W10721   6.939   8.529   9.673 -0.0627 -0.0772 -0.0198
 6978W        W10722   0.654   8.529   1.667 -0.0044  0.1163  0.0201
 6979W        W10723   8.223   1.690   1.086 -0.1873 -0.1581  0.0209
 6980W        W10724   1.130   7.017   1.548 -0.1439  0.0215  0.0937
 6981W        W10725   9.169   9.177   4.647  0.0306 -0.0290 -0.4576
 6982W        W10726   0.224   4.944  12.753 -0.0515  0.0566 -0.2292
 6983W        W10727   6.653   2.489  11.862  0.0742 -0.0399 -0.2397
 6984W        W10728   1.292   7.243   9.567  0.1638 -0.0490 -0.0055
 6985W        W10729   0.387   1.805  11.501 -0.0884  0.1633 -0.0795
 6986W        W10730   7.371   9.057  11.187 -0.1221 -0.1787  0.0728
 6987W        W10731   7.427   5.323   1.717 -0.1381  0.2304  0.1658
 6988W        W10732   8.634   6.023  12.571 -0.1021  0.1371 -0.0975
 6989W        W10733   0.768   7.574  12.153  0.0421  0.0700 -0.0868
 6990W        W10734   2.502   1.688  11.325 -0.1184 -0.0403 -0.0725
 6991W        W10735   0.772   2.513   0.321 -0.0289  0.1444 -0.1210
 6992W        W10736   4.638   3.596  10.666  0.3024  0.1556  0.1739
 6993W        W10737   7.135   6.441   3.906 -0.0713 -0.0976  0.1309
 6994W        W10738   9.005   5.963   0.923  0.0045  0.3257  0.0343
 6995W        W10739   7.228   9.384  10.781  0.1786  0.0743 -0.0151
 6996W        W10740   9.023   7.961   4.084 -0.1342 -0.2590 -0.1051
 6997W        W10741   1.505   8.423   8.067  0.2615  0.0273 -0.1717
 6998W        W10742   0.174   9.011   2.852 -0.1402  0.3120  0.1464
 6999W        W10743   2.913   7.378  11.736 -0.2649  0.0620 -0.0169
 7000W        W10744   9.312   4.458  12.316  0.1780 -0.4110 -0.2646
 7001W        W10745   0.130   2.454   8.963 -0.2533 -0.5391 -0.2352
 7002W        W10746   7.734   3.596   0.897  0.0894  0.0774  0.3575
 7003W        W10747   7.817   6.313   3.363  0.1141  0.1311  0.0722
 7004W        W10748   6.132   3.783   2.607 -0.1431  0.1532 -0.3793
 7005W        W10749   5.908   1.564   8.909 -0.0482  0.2509 -0.0150
 7006W        W10750   5.043   3.147   9.477  0.0535 -0.2971 -0.0675
 7007W        W10751   0.977   4.775   9.289 -0.1701  0.0191  0.1488
 7008W        W10752   2.471   2.145   0.165 -0.1543  0.0885  0.1062
 7009W        W10753   9.372   4.535  10.119  0.1080 -0.3477  0.0334
 7010W        W10754   0.856   1.116   3.279  0.1503  0.1097 -0.0402
 7011W        W10755   2.210   6.222   8.421  0.0298  0.0258 -0.3855
 7012W        W10756   1.403   7.419  12.278 -0.0102 -0.1680 -0.3818
 7013W        W10757   8.992   9.477  12.505 -0.0655  0.1282  0.0979
 7014W        W10758   2.002   3.182  12.475 -0.0201  0.1750 -0.0429
 7015W        W10759   9.420   5.872  11.745  0.0667 -0.0797 -0.1603
 7016W        W10760   2.257   0.397   0.238  0.0148 -0.0378 -0.3784
 7017W        W10761   0.902   1.553   8.974 -0.0830 -0.2198  0.0233
 7018W        W10762   7.034   0.624   3.971  0.1293 -0.0040  0.1657
 7019W        W10763   8.701   9.135   3.775 -0.0270  0.2199  0.0878
 7020W        W10764   6.555   4.891   1.461 -0.1030 -0.1234 -0.1286
 7021W        W10765   3.804   3.291  11.765  0.0292  0.1967  0.1389
 7022W        W10766   5.896   8.291  12.423  0.2226 -0.0050  0.2905
 7023W        W10767   8.567   2.444   9.788  0.2399  0.2147  0.1135
 7024W        W10768   0.220   1.019   9.535 -0.0459  0.0212  0.2790
 7025W        W10769   4.046   5.671   1.527 -0.0090  0.1955  0.0658
 7026W        W10770   9.723   7.695   2.429 -0.1726  0.2807 -0.0889
 7027W        W10771   3.524   9.375  11.195  0.2494  0.1105  0.0626
 7028W        W10772   5.509   2.709  12.166 -0.0498  0.4591 -0.0941
 7029W        W10773   4.943   8.612   2.284  0.0713 -0.3187 -0.2447
 7030W        W10774   7.265   6.408   9.439  0.1554 -0.3856  0.1052
 7031W        W10775   6.661   5.742  11.026 -0.1790  0.0585  0.0397
 7032W        W10776   7.565   1.447   4.081  0.1126  0.2659 -0.2076
 7033W        W10777   0.391   3.724   8.180  0.0990  0.0890  0.1951
 7034W        W10778   1.009   3.762  12.032 -0.0373  0.0090 -0.0024
 7035W        W10779   0.664   4.464  11.092 -0.2214  0.0905 -0.0852
 7036W        W10780   3.246   6.550   0.547  0.1042  0.0761 -0.0480
 7037W        W10781   0.039   4.271   4.077 -0.1520  0.2919 -0.0429
 7038W        W10782   2.463   7.765   4.147  0.0990 -0.1327 -0.1120
 7039W        W10783   1.953   9.626   2.674 -0.0453  0.2642  0.2664
 7040W        W10784   8.399   1.264   4.340  0.0410  0.2094 -0.0717
 7041W        W10785   9.149   6.380   2.435  0.0505 -0.1616  0.0601
 7042W        W10786   0.659   7.359   1.640 -0.0248 -0.2330 -0.1727
 7043W        W10787   3.774   5.204  10.538 -0.0165  0.0162  0.1175
 7044W        W10788   7.055   6.317  12.804 -0.1938  0.1468 -0.0960
 7045W        W10789   4.063   9.861  10.536  0.1773 -0.0504 -0.0276
 7046W        W10790   9.013   2.086   3.705  0.1947  0.0391  0.0521
 7047W        W10791   9.660   1.350  11.168  0.0988  0.1146  0.0516
 7048W        W10792   1.533   1.254   0.966 -0.2259 -0.1620  0.0322
 7049W        W10793   2.742   1.395  12.664  0.0568 -0.0210  0.1541
 7050W        W10794   6.004   3.705  10.245 -0.3717  0.2275 -0.3126
 7051W        W10795   1.211   9.072   0.446 -0.3777 -0.2058  0.0628
 7052W        W10796   1.851   8.381   2.902  0.0185  0.0861  0.0528
 7053W        W10797   7.105   1.103   3.835 -0.0154  0.0218  0.1210
 7054W        W10798   4.113   6.119   9.213  0.2647 -0.0876 -0.1491
 7055W        W10799   6.648   8.716   3.068  0.0920  0.2618 -0.0862
 7056W        W10800   3.016   1.304  10.019 -0.3026  0.0695  0.3218
 7057W        W10801   1.538   7.845   0.145  0.0713  0.0639  0.1376
 7058W        W10802   2.280   0.036   8.280  0.0443  0.2884  0.0507
 7059W        W10803   6.142   8.181   0.519 -0.0644  0.0835  0.0419
 7060W        W10804   0.990   9.356   2.523 -0.2238  0.1987  0.1123
 7061W        W10805   1.592   9.188   0.083 -0.2835  0.1837 -0.2683
 7062W        W10806   7.740   0.680   9.839 -0.1850  0.1644  0.0731
 7063W        W10807   7.934   4.847   3.325 -0.1913  0.0242  0.2113
 7064W        W10808   2.158   5.050   0.774  0.0983  0.0915 -0.3437
 7065W        W10809   2.052   9.119  12.846  0.0028  0.0615  0.0442
 7066W        W10810   2.260   1.875   8.624  0.0772 -0.0144 -0.0875
 7067W        W10811   6.215   2.332   0.917  0.2163 -0.3223  0.0412
 7068W        W10812   2.863   8.540   2.096 -0.2266  0.3405  0.0696
 7069W        W10813   2.436   0.255   2.674  0.1993  0.0263 -0.0643
 7070W        W10814   2.487   1.623   1.495  0.2219  0.1428  0.3776
 7071W        W10815   3.398   4.805   2.811 -0.1016  0.3954 -0.1503
 7072W        W10816   1.667   4.112  10.035  0.0937 -0.0002  0.1430
 7073W        W10817   2.930   3.601  10.501 -0.2706  0.0911  0.0311
 7074W        W10818   3.869   0.480   2.853  0.1749  0.0259  0.3432
 7075W        W10819   3.651   8.367   1.543  0.0444 -0.0737  0.0669
 7076W        W10820   9.611   6.181  12.922 -0.0627 -0.0788  0.3935
 7077W        W10821   5.088   7.500  12.331 -0.1253 -0.0030 -0.0559
 7078W        W10822   2.787   1.439   0.678 -0.0046 -0.0285 -0.1983
 7079W        W10823   9.479   7.953   9.241 -0.0806 -0.1425 -0.0277
 7080W        W10824   7.437   6.016   0.027 -0.1970  0.1776  0.0554
 7081W        W10825   9.066   2.319   4.908 -0.2482 -0.0598 -0.0905
 7082W        W10826   1.876   5.464   1.582  0.4404 -0.2672 -0.0258
 7083W        W10827   9.541   2.484   8.831 -0.3620 -0.2276 -0.0254
 7084W        W10828   0.286   3.277  11.612 -0.1463 -0.1830 -0.0170
 7085W        W10829   8.846   8.563   0.571 -0.2876  0.0190 -0.3189
 7086W        W10830   0.697   7.652   1.226 -0.4422  0.1387  0.0643
 7087W        W10831   7.103   9.150   4.282 -0.0393  0.1690  0.3712
 7088W        W10832   2.198   1.870   2.511  0.2658  0.2350  0.0337
 7089W        W10833   0.114   6.495   0.079  0.0343  0.1760 -0.0920
 7090W        W10834   0.247   6.421   2.827 -0.0824 -0.2314  0.2036
 7091W        W10835   2.559   6.185   5.176 -0.1781 -0.5217  0.0562
 7092W        W10836   2.624   8.746   2.491 -0.1042  0.1504  0.1548
 7093W        W10837   2.892   4.046   3.036 -0.0976 -0.2063  0.0142
 7094W        W10838   5.909   2.435   0.007  0.0305 -0.0315  0.2901
 7095W        W10839   9.876   8.781  11.788 -0.0765 -0.3884 -0.1238
 7096W        W10840   0.449   6.199  12.216 -0.0979  0.5274  0.0248
 7097W        W10841   2.052   1.823   9.167 -0.0457 -0.1741  0.1574
 7098W        W10842   1.772   2.636   3.410  0.0614  0.2036 -0.2747
 7099W        W10843   3.656   7.196  11.417  0.0985  0.2139  0.2405
 7100W        W10844   1.674   2.331   4.223 -0.2490 -0.4239 -0.1333
 7101W        W10845   9.591   9.835   2.796  0.4100 -0.1175  0.1102
 7102W        W10846   3.049   4.319  12.428 -0.1406  0.1617 -0.0966
 7103W        W10847   5.299   2.990   3.081 -0.2972 -0.1153  0.2142
 7104W        W10848   1.028   0.495  10.390 -0.0948 -0.0464  0.0953
 7105W        W10849   9.059   9.711  12.038 -0.1787  0.2428 -0.1010
 7106W        W10850   6.646   7.547   0.587 -0.0470 -0.4096  0.2043
 7107W        W10851   0.120   7.365   2.671 -0.2689  0.2038 -0.1606
 7108W        W10852   0.632   0.849  12.945  0.3404  0.4243 -0.1634
 7109W        W10853   1.632   2.537  11.190  0.0634  0.0755 -0.0013
 7110W        W10854   3.013   2.502   2.582  0.1667 -0.0498  0.4838
 7111W        W10855   2.793   1.817  12.252 -0.1532 -0.1028  0.0816
 7112W        W10856   6.625   7.573   0.042 -0.3251 -0.2335 -0.2043
 7113W        W10857   3.569   5.549  11.662  0.0360  0.0058  0.2133
 7114W        W10858   3.719   3.331  12.266  0.0671  0.1008  0.1670
 7115W        W10859   5.578   4.505   3.190 -0.1563 -0.0570 -0.0622
 7116W        W10860   1.483   6.917   5.159 -0.1494  0.1793  0.2582
 7117W        W10861   9.453   8.331   5.046  0.1873 -0.0850 -0.3880
 7118W        W10862   7.072   7.682   0.279 -0.1424 -0.0312 -0.1640
 7119W        W10863   2.352   6.628   8.958 -0.0197 -0.0032  0.1562
 7120W        W10864   1.214   5.995   1.574  0.1259 -0.3017 -0.1618
 7121W        W10865   7.632   1.542   1.622 -0.1008  0.0155 -0.2198
 7122W        W10866   6.010   6.418  10.152  0.2716 -0.1829  0.2517
 7123W        W10867   6.999   0.812   9.364 -0.2161 -0.1555 -0.0102
 7124W        W10868   1.995   5.591   2.071 -0.0200 -0.2039  0.2146
 7125W        W10869   2.731   1.865   3.705  0.1166  0.3006 -0.0686
 7126W        W10870   9.701   3.372  11.119 -0.1082  0.0540  0.1542
 7127W        W10871   7.052   2.277  10.868 -0.0428  0.2412  0.0892
 7128W        W10872   3.152   6.432   8.788  0.0342 -0.1697  0.1374
 7129W        W10873   5.174   5.248   1.887  0.2842  0.0512  0.0781
 7130W        W10874   4.852   1.342   9.814  0.2230 -0.0460 -0.0390
 7131W        W10875   9.238   3.925   8.583  0.1073 -0.0954 -0.0273
 7132W        W10876   1.934   5.753  11.086 -0.1941 -0.2992  0.0850
 7133W        W10877   2.557   7.750   2.167 -0.2108  0.0292  0.0600
 7134W        W10878   9.275   9.467   0.862  0.0829 -0.1257 -0.0634
 7135W        W10879   4.556   4.983  12.853  0.0542  0.2661 -0.1610
 7136W        W10880   3.310   7.693   4.295  0.0302 -0.0158 -0.0769
 7137W        W10881   8.334   7.546  10.794  0.1687 -0.0429  0.1078
 7138W        W10882   8.766   3.475   2.644  0.4477  0.2938 -0.0811
 7139W        W10883   1.276   8.774   3.728 -0.0027  0.1178  0.3063
 7140W        W10884   7.671   4.234  10.129 -0.2286 -0.2859  0.3151
 7141W        W10885   8.795   1.216   4.059  0.0735 -0.2264 -0.1703
 7142W        W10886   0.809   5.919   4.242  0.0509 -0.1462  0.1342
 7143W        W10887   6.743   2.680   0.130 -0.2149 -0.0317  0.0824
 7144W        W10888   1.507   8.449  11.119  0.1195  0.1420 -0.3094
 7145W        W10889   5.349   6.015   1.405 -0.1738 -0.2365 -0.0017
 7146W        W10890   3.249   7.326   1.185  0.1437 -0.2877  0.2960
 7147W        W10891   9.654   2.005  10.549  0.0802 -0.3584  0.1391
 7148W        W10892   3.095   2.311  12.563  0.2742  0.0735  0.0300
 7149W        W10893   4.467   0.404  10.410  0.0267  0.1686 -0.1446
 7150W        W10894   0.342   7.082  10.058 -0.1053 -0.2487 -0.1774
 7151W        W10895   4.142   3.577  10.527 -0.0485  0.4472  0.1640
 7152W        W10896   4.338   8.823   1.315 -0.0397  0.1753  0.1631
 7153W        W10897   5.016   9.395  11.049 -0.0684 -0.1154 -0.1451
 7154W        W10898   2.129   9.563  10.234  0.1787 -0.3213 -0.1166
 7155W        W10899   5.051   3.843   2.986  0.0210  0.3302 -0.0822
 7156W        W10900   2.398   9.601   1.513 -0.4236 -0.1459  0.2534
 7157W        W10901   9.615   6.054  11.350 -0.1113 -0.2814  0.2106
 7158W        W10902   5.968   7.959   3.694 -0.1268  0.1173 -0.1684
 7159W        W10903   4.156   8.313   0.092 -0.1164 -0.0942  0.0234
 7160W        W10904   0.538   3.055  10.714 -0.3312  0.1655  0.1572
 7161W        W10905   3.354   4.891  10.258 -0.0472 -0.2807  0.0431
 7162W        W10906   2.058   6.389  12.936  0.2553 -0.1141  0.1375
 7163W        W10907   5.400   2.556   9.976  0.2388 -0.1750 -0.1104
 7164W        W10908   0.567   0.063   9.692  0.2476 -0.0430 -0.0544
 7165W        W10909   8.595   6.949  11.550 -0.1159 -0.0870  0.1399
 7166W        W10910   3.669   2.314  12.470  0.0955  0.2538 -0.1919
 7167W        W10911   3.461   5.488   8.907  0.1501  0.1334  0.0404
 7168W        W10912   9.869   3.602   8.962  0.0782  0.3500  0.0086
 7169W        W10913   5.861   5.802   8.807 -0.0587  0.2094  0.2698
 7170W        W10914   6.077   7.245   2.554 -0.0270  0.2398  0.1281
 7171W        W10915   9.568   7.370  12.102  0.0795  0.1325  0.0109
 7172W        W10916   6.610   5.035   1.911 -0.1345 -0.0956  0.1372
 7173W        W10917   9.494   3.074   2.375 -0.1031 -0.1258 -0.0369
 7174W        W10918   6.532   8.325   4.396  0.2697  0.0150 -0.1791
 7175W        W10919   9.383   1.961  10.170  0.1918 -0.0624 -0.2342
 7176W        W10920   3.118   9.791   1.068 -0.1669 -0.1377 -0.2283
 7177W        W10921   9.627   0.477   0.360  0.0819 -0.1246 -0.0018
 7178W        W10922   5.260   1.928  11.039  0.3529 -0.0607 -0.3646
 7179W        W10923   6.624   9.536  11.446  0.2167  0.2079 -0.1038
 7180W        W10924   3.566   7.925   3.888 -0.0405 -0.1599 -0.0114
 7181W        W10925   9.158   0.240   3.311 -0.1905  0.2500  0.2230
 7182W        W10926   2.063   4.572   9.323  0.3399 -0.2940  0.2470
 7183W        W10927   6.557   3.241   0.894 -0.0468 -0.1009  0.0810
 7184W        W10928   7.563   1.391  12.346  0.2534  0.1304 -0.1943
 7185W        W10929   3.677   0.132  10.126  0.3254 -0.0094 -0.1436
 7186W        W10930   3.854   6.708  12.180  0.0658  0.1243 -0.0632
 7187W        W10931   7.078   9.551  11.772  0.2744 -0.2526  0.1199
 7188W        W10932   5.323   9.699  11.602 -0.0182 -0.2783 -0.2125
 7189W        W10933   7.520   5.977   4.841  0.2273  0.0093  0.1397
 7190W        W10934   5.632   5.173   1.212 -0.3175  0.0488  0.0604
 7191W        W10935   9.200   0.254  11.485 -0.0287  0.0077 -0.0789
 7192W        W10936   0.469   5.253   4.690 -0.0007  0.0426  0.1209
 7193W        W10937   9.080   6.435   0.709  0.0495  0.2219 -0.1021
 7194W        W10938   4.529   1.277  11.731 -0.2192  0.0163  0.2628
 7195W        W10939   2.561   7.593  11.445 -0.0816 -0.0400 -0.2408
 7196W        W10940   9.564   1.784   9.258  0.0896 -0.1588  0.3937
 7197W        W10941   5.450   0.088  10.431 -0.2073  0.0748  0.0241
 7198W        W10942   0.160   4.565  11.883  0.2408 -0.0739 -0.3362
 7199W        W10943   4.714   5.203   2.031  0.0686  0.0801 -0.2773
 7200W        W10944   3.074   6.201   4.037  0.0476 -0.2037  0.3016
 7201W        W10945   2.794   0.504  10.363 -0.1406  0.2350 -0.1301
 7202W        W10946   9.353   1.189   3.127 -0.1272 -0.1899  0.1722
 7203W        W10947   2.124   1.528   3.598  0.0467  0.0481 -0.0106
 7204W        W10948   0.667   5.361   3.572 -0.1135 -0.5347  0.2607
 7205W        W10949   9.831   9.176   9.568 -0.1293  0.1956  0.1794
 7206W        W10950   9.430   9.859  11.077 -0.2146  0.0888  0.0588
 7207W        W10951   1.575   8.372  11.985 -0.0386  0.0422 -0.4269
 7208W        W10952   8.196   4.143   9.906 -0.1794  0.3576  0.1258
 7209W        W10953   4.468   7.027   8.749 -0.1336 -0.0240  0.0569
 7210W        W10954   2.982   1.957   4.746  0.1252  0.2944 -0.1877
 7211W        W10955   7.740   5.502   2.201  0.0888 -0.0673  0.0043
 7212W        W10956   8.207   4.836  10.565  0.1126  0.2590 -0.1160
 7213W        W10957   2.219   6.597   2.965 -0.1120 -0.3556  0.3884
 7214W        W10958   9.074   1.976  11.957 -0.0248 -0.0101  0.1547
 7215W        W10959   6.943   9.490   3.920  0.1544 -0.1614  0.0182
 7216W        W10960   8.440   1.459   0.250  0.6162 -0.0367  0.0844
 7217W        W10961   5.862   3.309   1.395 -0.3036  0.3250  0.1597
 7218W        W10962   0.564   0.878  11.631 -0.3569  0.1520  0.0466
 7219W        W10963   2.608   5.183   0.507  0.0781  0.0371 -0.0163
 7220W        W10964   4.813   4.706  12.395  0.2029  0.3203  0.2769
 7221W        W10965   0.994   1.089  12.668 -0.4586  0.1422 -0.0793
 7222W        W10966   5.457   2.377   0.221  0.2919 -0.1407 -0.0464
 7223W        W10967   8.644   3.900   1.369 -0.0815  0.1828 -0.0669
 7224W        W10968   5.857   7.140   0.832 -0.0690  0.0356  0.1240
 7225W        W10969   8.627   0.014  10.819 -0.3303 -0.2318  0.2760
 7226W        W10970   6.628   9.133  10.331  0.0906  0.0262 -0.3041
 7227W        W10971   5.189   1.790   0.852 -0.1536  0.0223  0.2736
 7228W        W10972   1.890   8.801   1.281  0.0283 -0.0952 -0.0547
 7229W        W10973   3.036   0.941   0.411 -0.0263 -0.0785  0.1795
 7230ION    NA+10974   3.946   3.714   3.773  0.2808 -0.3702  0.0797
 7231ION    NA+10975   3.928   0.435  10.496 -0.1657 -0.2356 -0.1320
 7232ION    NA+10976   2.636   2.727   3.011 -0.2219 -0.1095  0.0357
 7233ION    NA+10977   6.113   1.797  11.317  0.3475  0.0707  0.0259
 7234ION    NA+10978   9.260   6.686  11.002  0.0211 -0.1708 -0.2251
 7235ION    NA+10979   7.703   0.227  10.315 -0.1486 -0.3689  0.2264
 7236ION    NA+10980   9.665   8.884  10.011 -0.1119  0.0558  0.0641
 7237ION    NA+10981   3.267   8.040   0.878  0.0575 -0.0124  0.1732
 7238ION    NA+10982   3.582   2.520   0.012  0.0394  0.0320 -0.2210
 7239ION    NA+10983   7.380   1.277   1.243  0.1643 -0.0254  0.2187
 7240ION    NA+10984   7.918   5.227  10.503 -0.1671  0.1145  0.1488
 7241ION    NA+10985   4.160   3.554   9.933  0.0644 -0.3885 -0.1268
 7242ION    NA+10986   2.021   8.368  11.139  0.3163 -0.0226 -0.0362
 7243ION    NA+10987   9.385   9.602   5.110 -0.0383 -0.1277  0.1323
 7244ION    NA+10988   9.724   6.785   1.795 -0.0198 -0.1947 -0.4065
 7245ION    NA+10989   4.904   9.504  11.891 -0.1037 -0.1482  0.2695
 7246ION    NA+10990   8.968   2.034   1.826  0.0712  0.0265  0.0226
 7247ION    NA+10991   9.255   3.335   4.507 -0.0419 -0.1108 -0.1522
 7248ION    NA+10992   8.993   9.648   1.980 -0.3255  0.3474 -0.1103
 7249ION    NA+10993   0.745   7.890   1.771  0.1183  0.1398  0.0852
 7250ION    NA+10994   8.319   8.743   2.148 -0.0254  0.3147  0.1712
 7251ION    NA+10995   2.469   3.155   9.185  0.1856 -0.0208 -0.4565
 7252ION    NA+10996   2.163   8.541   9.909 -0.3184 -0.1152 -0.0840
 7253ION    NA+10997   8.289   9.326   0.293 -0.0367 -0.4316 -0.1400
 7254ION    NA+10998   5.753   4.306  10.578  0.0020  0.0349 -0.0704
 7255ION    NA+10999   2.183   4.907   0.333  0.0345  0.0335 -0.1113
 7256ION    NA+11000   4.230   3.433   0.278  0.0625 -0.4316 -0.0428
 7257ION    NA+11001   8.478   5.914   1.079  0.3650  0.2496  0.0699
 7258ION    NA+11002   8.862   3.746   3.132  0.2604 -0.0206  0.1095
 7259ION    NA+11003   5.627   5.451   8.488  0.2812  0.4502 -0.0811
 7260ION    NA+11004   7.407   2.082   8.689  0.2049 -0.1187 -0.0312
 7261ION    NA+11005   5.587   2.977   9.577  0.0148 -0.0588  0.0226
 7262ION    NA+11006   4.262   5.258   1.419 -0.1322  0.2723  0.1258
 7263ION    NA+11007   2.203   1.593  10.970  0.2691 -0.2375 -0.1455
 7264ION    NA+11008   2.986   1.403  11.401  0.1708  0.0018  0.2921
 7265ION    NA+11009   8.173   2.115   3.048 -0.0475  0.0058 -0.2326
 7266ION    NA+11010   7.946   3.871  12.412 -0.0750  0.2787 -0.3139
 7267ION    NA+11011   7.648   1.252  11.723  0.1575  0.2796 -0.2183
 7268ION    NA+11012   7.352   0.469   9.458  0.0429 -0.2699  0.2333
 7269ION    NA+11013   7.130   7.112  11.075 -0.1535 -0.0339 -0.2717
 7270ION    NA+11014   6.280   5.381   0.476 -0.1144 -0.0669  0.1099
 7271ION    NA+11015   5.344   9.707   3.956  0.1570  0.2583 -0.0130
 7272ION    NA+11016   6.999   3.801  12.205  0.1040  0.1480  0.2239
 7273ION    NA+11017   3.819   2.593  11.229  0.1395  0.3260 -0.0635
 7274ION    NA+11018   2.925   7.033  10.334  0.3356  0.1983 -0.1950
 7275ION    NA+11019   2.967   6.458   8.209 -0.1980 -0.1870  0.1894
 7276ION    NA+11020   2.962   1.130   2.666 -0.0240  0.0494 -0.1001
 7277ION    NA+11021   7.853   1.266  10.642 -0.0642  0.1256 -0.1827
 7278ION    NA+11022   7.023   4.897  12.120  0.0318  0.1400  0.0879
 7279ION    NA+11023   7.318   7.911   4.885  0.1171  0.0146 -0.0733
 7280ION    NA+11024   8.797   5.284  11.460  0.0297 -0.0605 -0.0468
 7281ION    NA+11025   6.555   3.924  11.428 -0.1137 -0.2554  0.1189
 7282ION    NA+11026   1.165   8.897   4.688  0.1734 -0.1301  0.1271
 7283ION    NA+11027   3.182   8.920   4.773 -0.0158 -0.0418 -0.3624
 7284ION    NA+11028   3.652   4.180   9.310  0.0237  0.0771 -0.0121
 7285ION    NA+11029   3.733   2.452   3.290  0.0749 -0.1520 -0.2930
 7286ION    NA+11030   4.538   2.522   0.262 -0.0530  0.0738  0.0930
 7287ION    NA+11031   0.715   6.480   4.722 -0.0104  0.1718  0.1435
 7288ION    NA+11032   3.301   4.943   1.435  0.0299 -0.1059  0.2389
 7289ION    NA+11033   1.551   1.622   0.413 -0.0074  0.2005  0.1860
 7290ION    NA+11034   4.154   1.565   0.060  0.4568  0.0978  0.2648
 7291ION    NA+11035   6.658   6.656   9.600 -0.1918 -0.0999 -0.0277
 7292ION    NA+11036   8.875   1.781   4.991  0.1557 -0.0274  0.0465
 7293ION    NA+11037   9.074   7.075   1.825 -0.0701 -0.2553 -0.1707
 7294ION    NA+11038   1.204   4.756  12.368  0.1455 -0.0838 -0.2789
 7295ION    NA+11039   2.556   4.574  12.855 -0.0606 -0.2413  0.0131
 7296ION    NA+11040   3.130   3.957  12.757 -0.1164 -0.1059  0.0552
 7297ION    NA+11041   6.672   8.291  12.024  0.3442 -0.3222  0.0672
 7298ION    NA+11042   6.318   8.229   3.973 -0.1021 -0.2260 -0.2061
 7299ION    NA+11043   7.161   7.569  11.834  0.2784  0.0038  0.0331
 7300ION    NA+11044   9.295   4.721   3.713 -0.1497 -0.0734  0.1543
 7301ION    NA+11045   7.635   6.177   2.903 -0.1897 -0.0568 -0.1534
 7302ION    NA+11046   7.402   2.138   9.896  0.0621 -0.1088  0.2736
 7303ION    NA+11047   6.215   0.790   2.215  0.2678  0.0433 -0.2955
 7304ION    NA+11048   3.212   0.029  11.067  0.2611 -0.2100 -0.2948
 7305ION    NA+11049   9.250   5.048  12.325 -0.1199  0.0792 -0.0489
 7306ION    CL-11050   1.318   2.151  11.236  0.3619  0.1393 -0.0000
 7307ION    CL-11051   1.012   0.187   4.106  0.1946 -0.1389  0.1812
 7308ION    CL-11052   6.486   7.874   3.724  0.0078  0.0155  0.3884
 7309ION    CL-11053   4.014   4.960   9.452 -0.1512  0.0358 -0.0679
 7310ION    CL-11054   3.544   9.270   2.780  0.0330 -0.1669 -0.1664
 7311ION    CL-11055   8.703   7.127   2.129  0.2423  0.3013  0.0891
 7312ION    CL-11056   2.139   2.446  11.420  0.0665 -0.2035  0.0410
 7313ION    CL-11057   8.690   8.472   9.348 -0.1847 -0.0475  0.3612
 7314ION    CL-11058   6.951   7.932  12.217  0.0297  0.2307  0.1085
 7315ION    CL-11059   7.312   0.772  10.154 -0.0758 -0.0683 -0.0148
 7316ION    CL-11060   2.187   7.761   1.836  0.0961 -0.2582 -0.2410
 7317ION    CL-11061   8.671   5.163   3.635 -0.1445 -0.1094  0.0530
 7318ION    CL-11062   0.206   9.139  10.006 -0.0901  0.4735 -0.0310
 7319ION    CL-11063   7.724   3.934  12.914 -0.1629  0.1084  0.0175
 7320ION    CL-11064   3.059   4.392  12.944 -0.0979  0.0250 -0.0893
 7321ION    CL-11065   8.190   4.403   3.276 -0.0483 -0.2057  0.3234
 7322ION    CL-11066   7.932   9.581   0.055 -0.5091 -0.2519 -0.0871
 7323ION    CL-11067   1.910   8.803   9.587 -0.3776 -0.2847 -0.0183
 7324ION    CL-11068   5.074   0.233  11.701  0.0540  0.0344  0.3065
 7325ION    CL-11069   4.386   0.565   1.167 -0.3715 -0.4055  0.3187
 7326ION    CL-11070   4.164   0.913  10.278  0.1329 -0.0686 -0.0482
 7327ION    CL-11071   7.274   4.134  11.754  0.0369  0.1746  0.2855
 7328ION    CL-11072   7.719   2.237  11.864 -0.0615  0.1595  0.1380
 7329ION    CL-11073   6.991   6.520   9.900 -0.0875 -0.0894 -0.0855
 7330ION    CL-11074   3.238   1.307  11.805 -0.1115  0.0418  0.0551
 7331ION    CL-11075   1.701   3.955   3.491 -0.0106  0.0322  0.2486
 7332ION    CL-11076   5.452   1.225   1.983 -0.0177  0.2020 -0.0563
 7333ION    CL-11077   2.598   3.117   2.682  0.0206  0.3038 -0.1601
 7334ION    CL-11078   8.259   5.189  10.898 -0.0431  0.2630  0.2499
 7335ION    CL-11079   9.197   3.724   4.064 -0.0627 -0.1798  0.0585
 7336ION    CL-11080   4.737   4.960   9.047  0.4770 -0.0743  0.0203
 7337ION    CL-11081   3.814   0.235  10.981  0.0441 -0.0062  0.1923
 7338ION    CL-11082   3.380   6.719  10.328  0.1024 -0.0532 -0.2516
 7339ION    CL-11083   2.008   1.395   0.379 -0.2153  0.0353  0.2376
 7340ION    CL-11084   3.412   2.194  11.400 -0.0625 -0.2126  0.0559
 7341ION    CL-11085   0.146   6.337   2.355 -0.0771 -0.0887 -0.1601
 7342ION    CL-11086   7.236   2.410  10.337  0.0683  0.0412 -0.1623
 7343ION    CL-11087   4.118   7.205   4.145  0.0471 -0.0820  0.2927
 7344ION    CL-11088   9.504   9.489   2.036  0.0338  0.0199  0.0542
 7345ION    CL-11089   2.170   4.922  12.793 -0.2136 -0.2955 -0.1654
 7346ION    CL-11090   9.649   5.782  12.613 -0.2081 -0.1482  0.0714
 7347ION    CL-11091   3.123   0.907  10.311  0.0989  0.0608 -0.1688
 7348ION    CL-11092   4.086   9.375   4.031 -0.1933 -0.0115 -0.3635
 7349ION    CL-11093   3.005   6.446   1.603 -0.0681 -0.1343  0.0713
 7350ION    CL-11094   6.145   6.164   3.905  0.1279 -0.0264  0.1391
 7351ION    CL-11095   5.486   4.444   9.474  0.0803  0.0778  0.2742
 7352ION    CL-11096   2.478   4.099  12.802  0.2915  0.0581  0.0663
 7353ION    CL-11097   4.515   3.889   0.373 -0.2364  0.0581 -0.2975
 7354ION    CL-11098   5.904   3.864   1.331  0.2333 -0.2774  0.0529
 7355ION    CL-11099   7.379   4.778  12.551  0.1149 -0.0443  0.1492
 7356ION    CL-11100   8.533   1.794   2.807 -0.1923  0.2426 -0.1611
 7357ION    CL-11101   9.253   3.425   3.052 -0.2137 -0.3360 -0.1707
 7358ION    CL-11102   8.792   3.080   2.206 -0.0846  0.0255  0.1731
 7359ION    CL-11103   8.100   5.588   1.089 -0.1295  0.1998 -0.0799
 7360ION    CL-11104   0.370   4.146  10.572 -0.1442  0.0874  0.3809
 7361ION    CL-11105   1.204   3.799   2.315  0.0754 -0.1776 -0.0528
 7362ION    CL-11106   5.851   6.164   9.647  0.0310 -0.2740  0.0707
 7363ION    CL-11107   7.494   9.752   9.868 -0.0710 -0.1894  0.1451
 7364ION    CL-11108   2.423   8.699  10.300  0.2303  0.1903 -0.2837
 7365ION    CL-11109   3.965   1.980  12.705 -0.0648  0.0429 -0.1957
 7366ION    CL-11110   0.551   4.477  12.549 -0.2545 -0.2043 -0.0840
 7367ION    CL-11111   8.793   0.774   4.472  0.0312  0.2681  0.0342
 7368ION    CL-11112   0.020   2.755  10.812 -0.2284 -0.0699 -0.2446
 7369ION    CL-11113   8.731   4.757  11.665  0.2539 -0.1394 -0.0579
 7370ION    CL-11114   7.495   6.594   1.744  0.0051 -0.3342  0.0156
 7371ION    CL-11115   9.461   7.149   1.502  0.1102  0.0845  0.1108
 7372ION    CL-11116   6.712   0.101  12.917 -0.1519 -0.1266  0.2660
 7373ION    CL-11117   4.972   5.457   3.481 -0.1503  0.4600  0.1078
 7374ION    CL-11118   3.207   7.436  10.687 -0.0151 -0.0236 -0.2139
 7375ION    CL-11119   6.698   3.584  11.795 -0.2206  0.0661  0.0533
 7376ION    CL-11120   2.675   1.808  10.869  0.0646 -0.2905  0.0762
 7377ION    CL-11121   4.274   2.961   0.048  0.0433  0.0787  0.1417
 7378ION    CL-11122   3.731   5.259   1.375 -0.3936 -0.3608 -0.2424
 7379ION    CL-11123   5.439   5.003  11.029 -0.3844 -0.0187  0.1504
 7380ION    CL-11124   8.452   9.209   1.936  0.0360  0.0311 -0.1455
 7381ION    CL-11125   9.124   2.520   4.447 -0.1780  0.2127  0.4477
   9.89770   9.89770  12.95090
