Protein in INSANE! Membrane UpperLeaflet>POPC=1.0 LowerLeaflet>POPC=1.0
10365
    1AU     AUC    1   4.948   5.092   5.897
    1AU     AUC    2   5.085   4.736   5.773
    1AU     AUC    3   5.633   4.947   5.886
    1AU     AUC    4   4.670   5.194   5.911
    1AU     AUC    5   4.898   5.448   6.046
    1AU     AUC    6   4.987   5.219   5.741
    1AU     AUC    7   5.199   4.939   5.617
    1AU     AUC    8   4.790   5.239   6.230
    1AU     AUC    9   5.030   5.078   6.179
    1AU     AUC   10   5.107   5.305   6.276
    1AU     AUC   11   5.242   5.184   5.832
    1AU     AUC   12   4.803   4.907   6.008
    1AU     AUC   13   4.850   4.928   5.710
    1AU     AUC   14   5.329   4.495   5.752
    1AU     AUC   15   5.726   4.776   5.741
    1AU     AUC   16   5.854   5.119   6.018
    1AU     AUC   17   4.405   5.281   5.861
    1AU     AUC   18   4.630   5.557   5.928
    1AU     AUC   19   4.907   5.744   6.083
    1AU     AUC   20   4.986   5.339   5.565
    1AU     AUC   21   5.148   5.042   5.411
    1AU     AUC   22   5.356   4.773   5.353
    1AU     AUC   23   4.584   5.284   6.465
    1AU     AUC   24   4.865   4.985   6.431
    1AU     AUC   25   5.243   4.911   6.128
    1AU     AUC   26   5.254   5.525   6.479
    1AU     AUC   27   5.353   5.612   6.294
    1AU     AUC   28   5.441   5.269   6.031
    1AU     AUC   29   4.638   4.690   6.181
    1AU     AUC   30   4.662   4.686   5.884
    1AU     AUC   31   4.692   4.752   5.536
    1AU     AUC   32   5.521   5.347   6.410
    1AU     AUC   33   5.617   5.077   6.264
    1AU     AUC   34   5.012   4.588   5.976
    1AU     AUC   35   4.998   4.560   5.661
    1AU     AUC   36   5.022   5.680   6.354
    1AU     AUC   37   5.249   5.606   6.020
    1AU     AUC   38   4.495   4.967   6.036
    1AU     AUC   39   4.487   4.961   5.693
    1AU     AUC   40   5.431   4.567   5.575
    1AU     AUC   41   5.529   4.880   5.678
    1AU     AUC   42   4.661   5.345   5.676
    1AU     AUC   43   5.002   5.518   5.902
    1AU     AUC   44   5.275   4.772   5.991
    1AU     AUC   45   5.803   5.102   5.913
    1AU     AUC   46   4.441   5.339   6.163
    1AU     AUC   47   4.683   5.560   6.282
    1AU     AUC   48   5.335   5.249   5.901
    1AU     AUC   49   5.368   4.960   5.609
    1AU     AUC   50   4.912   5.419   6.510
    1AU     AUC   51   5.249   5.255   6.426
    1AU     AUC   52   4.793   5.060   5.461
    1AU     AUC   53   5.024   4.827   5.367
    1AU     AUC   54   4.565   5.006   6.321
    1AU     AUC   55   4.926   4.797   6.171
    1AU    AUSL   56   5.948   5.185   6.481
    1AU    AUSL   57   5.601   5.504   6.627
    1AU     AUL   58   5.925   5.360   6.876
    1AU       S   59   5.984   5.802   6.937
    1AU     LIG   60   5.692   5.606   7.433
    1AU     LIG   61   5.295   5.438   7.782
    1AU     LIG   62   4.805   5.612   7.956
    1AU       S   63   6.029   5.200   6.478
    1AU     LIG   64   6.409   5.440   6.187
    1AU     LIG   65   6.463   5.719   5.845
    1AU     LIG   66   6.289   5.822   5.436
    1AU    AUSL   67   5.694   5.719   5.899
    1AU    AUSL   68   5.472   5.768   6.221
    1AU     AUL   69   5.487   6.036   5.819
    1AU       S   70   5.802   5.661   5.875
    1AU     LIG   71   5.760   5.669   5.327
    1AU     LIG   72   5.678   5.611   4.790
    1AU     LIG   73   5.500   5.179   4.594
    1AU       S   74   5.340   5.730   6.992
    1AU     LIG   75   4.702   5.646   7.381
    1AU     LIG   76   4.292   5.507   7.390
    1AU     LIG   77   3.935   5.211   7.415
    1AU    AUSL   78   5.598   5.096   6.703
    1AU    AUSL   79   5.649   4.979   6.267
    1AU     AUL   80   5.783   4.910   6.700
    1AU       S   81   5.614   4.550   6.490
    1AU     LIG   82   5.191   3.788   5.623
    1AU     LIG   83   4.972   3.650   5.205
    1AU     LIG   84   4.705   3.872   4.767
    1AU       S   85   4.621   4.520   5.145
    1AU     LIG   86   4.979   5.174   4.688
    1AU     LIG   87   5.210   5.668   4.945
    1AU     LIG   88   5.496   6.040   5.129
    1AU    AUSL   89   5.066   4.260   5.739
    1AU    AUSL   90   4.925   4.505   5.430
    1AU     AUL   91   4.849   4.113   5.649
    1AU       S   92   6.080   5.403   5.647
    1AU     LIG   93   6.102   5.914   6.139
    1AU     LIG   94   5.783   6.201   6.598
    1AU     LIG   95   5.454   6.527   6.594
    1AU       S   96   5.162   3.950   6.040
    1AU     LIG   97   4.957   4.414   6.930
    1AU     LIG   98   4.404   5.098   7.027
    1AU     LIG   99   4.166   5.516   6.855
    1AU    AUSL  100   5.109   4.543   6.425
    1AU    AUSL  101   5.231   4.448   6.043
    1AU     AUL  102   5.324   4.279   6.258
    1AU       S  103   4.556   4.416   6.741
    1AU     LIG  104   5.006   4.713   7.271
    1AU     LIG  105   5.228   4.989   7.561
    1AU     LIG  106   5.693   5.124   7.684
    1AU       S  107   6.305   4.957   6.246
    1AU     LIG  108   6.153   4.457   6.646
    1AU     LIG  109   6.039   4.156   7.043
    1AU     LIG  110   5.668   3.845   7.204
    1AU    AUSL  111   4.687   4.540   5.760
    1AU    AUSL  112   4.662   4.583   6.357
    1AU     AUL  113   4.900   4.543   6.511
    1AU       S  114   4.209   4.145   6.562
    1AU     LIG  115   4.012   3.856   6.886
    1AU     LIG  116   3.679   4.154   7.107
    1AU     LIG  117   3.295   4.400   6.956
    1AU       S  118   6.064   5.406   5.606
    1AU     LIG  119   5.962   6.085   5.708
    1AU     LIG  120   5.591   6.425   6.080
    1AU     LIG  121   5.121   6.474   6.049
    1AU    AUSL  122   5.125   5.984   6.152
    1AU    AUSL  123   5.518   5.384   6.019
    1AU     AUL  124   5.588   5.975   6.246
    1AU       S  125   5.399   5.686   6.984
    1AU     LIG  126   5.579   5.010   7.219
    1AU     LIG  127   5.374   4.348   7.145
    1AU     LIG  128   5.131   3.933   7.136
    1AU       S  129   5.278   4.818   6.903
    1AU     LIG  130   5.176   4.116   6.671
    1AU     LIG  131   5.205   3.691   6.447
    1AU     LIG  132   5.356   3.212   6.409
    1AU    AUSL  133   5.253   5.834   6.565
    1AU    AUSL  134   4.804   5.936   6.420
    1AU     AUL  135   5.127   6.159   6.453
    1AU       S  136   4.697   6.135   6.656
    1AU     LIG  137   4.628   6.296   6.144
    1AU     LIG  138   4.320   6.466   5.817
    1AU     LIG  139   4.143   6.285   5.465
    1AU       S  140   5.498   5.429   7.044
    1AU     LIG  141   5.744   4.596   7.037
    1AU     LIG  142   5.643   4.083   6.771
    1AU     LIG  143   5.696   3.600   6.394
    1AU    AUSL  144   4.238   4.889   5.842
    1AU    AUSL  145   4.407   4.903   6.225
    1AU     AUL  146   4.157   4.681   6.027
    1AU       S  147   4.129   4.165   6.415
    1AU     LIG  148   4.601   4.059   7.028
    1AU     LIG  149   5.003   4.272   7.461
    1AU     LIG  150   5.483   4.561   7.560
    1AU       S  151   3.929   4.914   6.364
    1AU     LIG  152   4.078   4.769   7.089
    1AU     LIG  153   4.402   5.023   7.483
    1AU     LIG  154   4.782   5.199   7.696
    1AU    AUSL  155   4.307   4.549   5.606
    1AU    AUSL  156   4.278   5.251   5.614
    1AU     AUL  157   4.033   4.820   5.591
    1AU       S  158   4.113   5.228   5.456
    1AU     LIG  159   3.699   4.853   5.935
    1AU     LIG  160   3.510   4.819   6.551
    1AU     LIG  161   3.584   4.798   7.060
    1AU       S  162   3.997   4.241   6.276
    1AU     LIG  163   4.170   4.286   7.036
    1AU     LIG  164   4.164   4.574   7.534
    1AU     LIG  165   4.148   4.974   7.890
    1AU    AUSL  166   5.670   4.547   5.315
    1AU    AUSL  167   5.433   4.458   5.662
    1AU     AUL  168   5.816   4.551   5.267
    1AU       S  169   5.540   3.990   5.909
    1AU     LIG  170   6.146   4.255   6.126
    1AU     LIG  171   6.610   4.625   5.873
    1AU     LIG  172   6.683   5.276   5.652
    1AU       S  173   5.977   4.312   4.940
    1AU     LIG  174   5.748   4.859   4.910
    1AU     LIG  175   5.973   5.277   5.022
    1AU     LIG  176   6.133   5.730   4.961
    1AU    AUSL  177   5.802   4.252   5.619
    1AU    AUSL  178   6.195   4.884   5.821
    1AU     AUL  179   6.222   4.417   5.707
    1AU       S  180   6.116   4.097   5.269
    1AU     LIG  181   6.284   3.945   4.837
    1AU     LIG  182   6.407   4.280   4.533
    1AU     LIG  183   6.592   4.711   4.527
    1AU       S  184   6.415   4.922   5.434
    1AU     LIG  185   6.251   4.787   4.984
    1AU     LIG  186   6.058   4.665   4.579
    1AU     LIG  187   5.595   4.618   4.489
    1AU    AUSL  188   5.959   4.986   5.502
    1AU    AUSL  189   5.559   4.932   5.369
    1AU     AUL  190   5.858   4.976   5.391
    1AU       S  191   5.141   4.743   4.702
    1AU     LIG  192   4.751   5.032   4.283
    1AU     LIG  193   4.257   5.324   4.306
    1AU     LIG  194   3.918   5.693   4.502
    1AU       S  195   6.157   4.286   5.275
    1AU     LIG  196   5.676   3.711   5.502
    1AU     LIG  197   5.361   3.471   5.952
    1AU     LIG  198   4.911   3.327   6.202
    1AU    AUSL  199   4.927   5.606   5.493
    1AU    AUSL  200   5.209   5.672   5.853
    1AU     AUL  201   5.280   5.753   5.511
    1AU       S  202   5.217   5.024   6.930
    1AU     LIG  203   4.534   4.646   7.173
    1AU     LIG  204   3.911   4.516   6.729
    1AU     LIG  205   3.657   4.089   6.609
    1AU       S  206   4.225   5.813   5.396
    1AU     LIG  207   3.847   5.377   5.800
    1AU     LIG  208   3.353   5.192   5.991
    1AU     LIG  209   3.184   4.834   6.176
    1AU    AUSL  210   4.534   5.610   5.650
    1AU    AUSL  211   4.659   5.267   5.421
    1AU     AUL  212   4.561   5.538   5.298
    1AU       S  213   4.134   5.686   5.390
    1AU     LIG  214   4.008   5.291   4.768
    1AU     LIG  215   4.020   4.889   4.515
    1AU     LIG  216   3.975   4.398   4.496
    1AU       S  217   4.215   5.254   5.172
    1AU     LIG  218   3.761   5.398   5.173
    1AU     LIG  219   3.527   5.476   4.800
    1AU     LIG  220   3.406   5.864   4.608
    1AU    AUSL  221   4.829   5.899   5.803
    1AU    AUSL  222   4.225   5.612   5.915
    1AU     AUL  223   4.428   5.979   5.766
    1AU       S  224   3.984   5.858   5.832
    1AU     LIG  225   3.726   5.964   5.390
    1AU     LIG  226   3.850   5.989   4.911
    1AU     LIG  227   4.308   5.988   4.565
    1AU       S  228   4.558   5.994   5.338
    1AU     LIG  229   4.755   6.264   4.892
    1AU     LIG  230   5.175   6.423   4.937
    1AU     LIG  231   5.361   6.498   5.367
    1AU    AUSL  232   5.680   5.274   5.659
    1AU    AUSL  233   5.995   5.228   6.041
    1AU     AUL  234   6.277   5.100   5.842
    1AU       S  235   6.341   5.145   5.331
    1AU     LIG  236   6.900   4.951   5.378
    1AU     LIG  237   7.172   5.084   5.798
    1AU     LIG  238   7.239   5.219   6.264
    1AU       S  239   6.175   5.630   6.547
    1AU     LIG  240   6.447   5.332   6.699
    1AU     LIG  241   6.824   5.451   6.547
    1AU     LIG  242   6.719   5.866   6.371
    1AU    AUSL  243   5.854   4.647   5.701
    1AU    AUSL  244   5.309   4.828   6.097
    1AU     AUL  245   5.616   5.281   5.594
    1AU       S  246   6.400   4.760   5.450
    1AU     LIG  247   6.734   5.036   6.046
    1AU     LIG  248   6.896   5.500   6.046
    1AU     LIG  249   7.214   5.780   6.215
    1AU       S  250   4.525   4.471   6.749
    1AU     LIG  251   3.916   5.085   6.801
    1AU     LIG  252   3.466   5.329   6.716
    1AU     LIG  253   2.966   5.436   6.859
    1AU    AUSL  254   4.244   5.598   6.347
    1AU    AUSL  255   4.177   5.231   6.087
    1AU     AUL  256   3.997   5.575   6.216
    1AU       S  257   3.943   5.126   6.215
    1AU     LIG  258   3.513   5.595   6.202
    1AU     LIG  259   3.048   5.622   5.934
    1AU     LIG  260   2.943   5.518   5.513
    1AU       S  261   4.027   6.014   6.078
    1AU     LIG  262   3.781   6.325   5.780
    1AU     LIG  263   3.707   6.480   5.328
    1AU     LIG  264   3.918   6.834   5.234
    1AU    AUSL  265   4.571   5.765   6.115
    1AU    AUSL  266   4.600   5.576   6.549
    1AU     AUL  267   4.400   5.910   6.378
    1AU       S  268   4.485   5.926   6.832
    1AU     LIG  269   4.063   5.895   7.141
    1AU     LIG  270   3.665   5.569   7.159
    1AU     LIG  271   3.308   5.222   7.196
    1AU       S  272   3.855   5.838   5.851
    1AU     LIG  273   3.577   5.125   5.545
    1AU     LIG  274   3.496   4.537   5.614
    1AU     LIG  275   3.547   4.002   5.816
    1AU    AUSL  276   5.941   4.742   6.104
    1AU    AUSL  277   5.338   4.877   6.493
    1AU     AUL  278   5.955   4.738   6.329
    1AU       S  279   5.350   4.729   6.829
    1AU     LIG  280   6.052   4.935   7.080
    1AU     LIG  281   6.426   4.842   6.794
    1AU     LIG  282   6.594   4.584   6.409
    1AU       S  283   5.656   4.100   5.253
    1AU     LIG  284   6.078   3.868   5.689
    1AU     LIG  285   6.466   3.727   5.544
    1AU     LIG  286   6.672   3.809   5.155
    1AU    AUSL  287   5.259   5.314   5.386
    1AU    AUSL  288   5.232   5.008   5.048
    1AU     AUL  289   5.471   5.290   5.089
    1AU       S  290   5.473   4.417   4.939
    1AU     LIG  291   5.393   3.832   4.938
    1AU     LIG  292   5.035   3.516   4.724
    1AU     LIG  293   4.512   3.442   4.776
    1AU       S  294   4.689   4.813   4.748
    1AU     LIG  295   4.230   4.611   4.881
    1AU     LIG  296   4.013   4.290   5.276
    1AU     LIG  297   3.565   4.098   5.322
    1AU    AUSL  298   5.271   4.275   5.347
    1AU    AUSL  299   5.607   4.560   6.072
    1AU     AUL  300   5.684   4.411   5.991
    1AU       S  301   4.583   4.483   5.192
    1AU     LIG  302   3.871   4.737   5.151
    1AU     LIG  303   3.388   4.919   5.154
    1AU     LIG  304   3.083   5.014   5.572
    1AU       S  305   5.182   4.134   5.270
    1AU     LIG  306   4.397   4.087   5.575
    1AU     LIG  307   3.918   4.319   5.810
    1AU     LIG  308   3.547   4.418   6.218
    1AU    AUSL  309   5.184   5.388   6.708
    1AU    AUSL  310   5.831   5.527   6.264
    1AU     AUL  311   5.675   5.711   6.632
    1AU       S  312   5.089   5.377   7.265
    1AU     LIG  313   5.089   5.838   7.631
    1AU     LIG  314   5.026   6.322   7.539
    1AU     LIG  315   4.892   6.469   7.081
    1AU       S  316   6.122   5.768   6.596
    1AU     LIG  317   6.250   6.199   6.541
    1AU     LIG  318   6.062   6.508   6.225
    1AU     LIG  319   5.892   6.611   5.748
    1AU    AUSL  320   4.756   5.263   6.786
    1AU    AUSL  321   4.925   5.709   6.780
    1AU     AUL  322   4.692   5.514   6.897
    1AU       S  323   5.033   5.420   7.153
    1AU     LIG  324   5.283   6.170   6.918
    1AU     LIG  325   5.671   6.371   7.057
    1AU     LIG  326   6.134   6.286   7.034
    1AU       S  327   4.795   5.978   6.884
    1AU     LIG  328   4.967   5.981   7.195
    1AU     LIG  329   5.440   6.048   7.375
    1AU     LIG  330   5.608   5.951   7.802
    1AU    AUSL  331   4.971   4.977   6.588
    1AU    AUSL  332   4.563   4.895   6.635
    1AU     AUL  333   4.788   4.877   6.868
    1AU       S  334   4.664   4.056   6.513
    1AU     LIG  335   4.760   3.715   6.702
    1AU     LIG  336   5.088   3.494   6.896
    1AU     LIG  337   5.538   3.477   6.846
    1AU       S  338   4.869   5.159   7.222
    1AU     LIG  339   4.720   4.701   7.646
    1AU     LIG  340   4.541   4.226   7.609
    1AU     LIG  341   4.699   3.787   7.443
    1AU    AUSL  342   4.831   4.875   5.174
    1AU    AUSL  343   5.263   4.654   5.239
    1AU     AUL  344   5.041   4.538   5.051
    1AU       S  345   4.672   4.611   4.700
    1AU     LIG  346   4.334   4.135   4.924
    1AU     LIG  347   4.427   3.636   5.232
    1AU     LIG  348   4.555   3.188   5.455
    1AU       S  349   5.459   4.053   5.828
    1AU     LIG  350   5.758   4.066   6.313
    1AU     LIG  351   6.077   3.850   6.609
    1AU     LIG  352   6.062   3.492   6.922
    1AU    AUSL  353   4.933   5.307   5.120
    1AU    AUSL  354   4.456   4.896   5.382
    1AU     AUL  355   4.649   5.154   5.063
    1AU       S  356   4.526   4.966   4.692
    1AU     LIG  357   4.571   5.435   4.664
    1AU     LIG  358   4.739   5.774   4.910
    1AU     LIG  359   5.014   6.057   5.253
    1AU       S  360   4.222   5.056   5.182
    1AU     LIG  361   4.244   5.670   4.934
    1AU     LIG  362   4.281   6.209   5.004
    1AU     LIG  363   4.576   6.489   5.315
    1AU    AUSL  364   4.281   4.564   6.407
    1AU    AUSL  365   4.299   5.210   6.515
    1AU     AUL  366   4.271   4.839   6.628
    1AU       S  367   3.762   5.193   6.308
    1AU     LIG  368   3.455   5.584   5.704
    1AU     LIG  369   3.338   5.672   5.238
    1AU     LIG  370   3.027   5.635   4.879
    1AU       S  371   4.489   3.906   6.262
    1AU     LIG  372   4.183   3.693   5.794
    1AU     LIG  373   3.955   3.751   5.304
    1AU     LIG  374   4.023   3.748   4.804
    1AU    AUSL  375   4.895   4.273   6.206
    1AU    AUSL  376   4.498   4.344   6.070
    1AU     AUL  377   4.791   4.263   6.113
    1AU       S  378   4.732   3.823   6.203
    1AU     LIG  379   4.803   3.516   5.757
    1AU     LIG  380   5.170   3.167   5.575
    1AU     LIG  381   5.540   2.834   5.429
    1AU       S  382   4.376   4.289   6.029
    1AU     LIG  383   4.702   4.045   5.229
    1AU     LIG  384   5.076   4.161   4.768
    1AU     LIG  385   5.513   4.105   4.531
    2POPC   NC3  386   3.516   1.396   8.140
    2POPC   PO4  387   3.092   0.793   8.217
    2POPC   GL1  388   3.303   0.829   7.789
    2POPC   GL2  389   3.475   1.140   7.692
    2POPC   C1A  390   3.153   0.881   7.342
    2POPC   D2A  391   3.130   0.960   6.878
    2POPC   C3A  392   3.350   0.994   6.454
    2POPC   C4A  393   3.324   0.935   5.969
    2POPC   C1B  394   3.465   1.280   7.251
    2POPC   C2B  395   3.452   1.371   6.801
    2POPC   C3B  396   3.722   1.344   6.435
    2POPC   C4B  397   3.769   1.204   6.026
    3POPC   NC3  398   7.274   0.303   8.144
    3POPC   PO4  399   7.860   9.937   8.026
    3POPC   GL1  400   7.589   0.199   7.737
    3POPC   GL2  401   7.391   0.532   7.706
    3POPC   C1A  402   7.425   0.173   7.323
    3POPC   D2A  403   7.537   0.433   6.950
    3POPC   C3A  404   7.369   0.372   6.545
    3POPC   C4A  405   7.397   0.106   6.174
    3POPC   C1B  406   7.191   0.629   7.331
    3POPC   C2B  407   7.238   0.818   6.953
    3POPC   C3B  408   7.120   0.836   6.514
    3POPC   C4B  409   7.252   0.700   6.105
    4POPC   NC3  410   1.084   1.434   8.153
    4POPC   PO4  411   0.705   0.817   8.090
    4POPC   GL1  412   0.847   1.132   7.785
    4POPC   GL2  413   1.183   1.041   7.830
    4POPC   C1A  414   1.119   1.298   7.393
    4POPC   D2A  415   1.369   1.380   6.985
    4POPC   C3A  416   1.207   1.312   6.549
    4POPC   C4A  417   1.024   1.474   6.140
    4POPC   C1B  418   1.312   0.824   7.477
    4POPC   C2B  419   1.266   0.860   7.056
    4POPC   C3B  420   1.474   0.767   6.681
    4POPC   C4B  421   1.385   0.920   6.293
    5POPC   NC3  422   0.663   5.129   8.079
    5POPC   PO4  423   0.109   4.646   7.948
    5POPC   GL1  424   0.471   4.782   7.627
    5POPC   GL2  425   0.735   5.042   7.594
    5POPC   C1A  426   0.614   4.866   7.146
    5POPC   D2A  427   0.442   5.017   6.732
    5POPC   C3A  428   0.687   4.981   6.342
    5POPC   C4A  429   0.832   4.863   5.940
    5POPC   C1B  430   0.383   5.251   7.406
    5POPC   C2B  431   0.166   5.389   7.034
    5POPC   C3B  432   0.034   5.355   6.603
    5POPC   C4B  433   0.197   5.101   6.255
    6POPC   NC3  434   6.272   7.550   8.608
    6POPC   PO4  435   5.737   7.719   8.177
    6POPC   GL1  436   5.628   8.016   7.759
    6POPC   GL2  437   5.621   8.392   7.801
    6POPC   C1A  438   5.704   8.073   7.273
    6POPC   D2A  439   5.524   8.011   6.831
    6POPC   C3A  440   5.842   7.898   6.506
    6POPC   C4A  441   6.273   7.706   6.475
    6POPC   C1B  442   5.411   8.490   7.402
    6POPC   C2B  443   5.603   8.479   6.970
    6POPC   C3B  444   5.651   8.372   6.486
    6POPC   C4B  445   5.648   8.423   5.995
    7POPC   NC3  446   0.332   8.141   8.233
    7POPC   PO4  447   0.868   7.702   8.156
    7POPC   GL1  448   0.499   7.885   7.833
    7POPC   GL2  449   0.393   8.285   7.753
    7POPC   C1A  450   0.232   7.912   7.446
    7POPC   D2A  451   0.404   7.858   7.024
    7POPC   C3A  452   0.144   7.934   6.643
    7POPC   C4A  453   0.164   7.749   6.220
    7POPC   C1B  454   0.529   8.309   7.295
    7POPC   C2B  455   0.460   8.322   6.823
    7POPC   C3B  456   0.558   8.172   6.414
    7POPC   C4B  457   0.854   8.270   6.059
    8POPC   NC3  458   8.579   6.431   8.132
    8POPC   PO4  459   9.246   6.303   8.343
    8POPC   GL1  460   9.083   6.443   7.919
    8POPC   GL2  461   8.930   6.766   7.803
    8POPC   C1A  462   8.911   6.376   7.480
    8POPC   D2A  463   8.639   6.570   7.157
    8POPC   C3A  464   8.765   6.560   6.734
    8POPC   C4A  465   8.992   6.456   6.331
    8POPC   C1B  466   8.954   6.937   7.327
    8POPC   C2B  467   9.089   6.947   6.844
    8POPC   C3B  468   8.868   6.956   6.424
    8POPC   C4B  469   8.654   6.823   6.045
    9POPC   NC3  470   2.556   6.265   8.108
    9POPC   PO4  471   2.704   6.888   8.213
    9POPC   GL1  472   2.551   6.748   7.771
    9POPC   GL2  473   2.667   6.431   7.627
    9POPC   C1A  474   2.456   6.765   7.293
    9POPC   D2A  475   2.590   6.614   6.878
    9POPC   C3A  476   2.430   6.790   6.538
    9POPC   C4A  477   2.623   6.810   6.164
    9POPC   C1B  478   2.939   6.620   7.257
    9POPC   C2B  479   3.069   6.812   6.815
    9POPC   C3B  480   3.097   6.780   6.339
    9POPC   C4B  481   2.952   6.490   5.977
   10POPC   NC3  482   7.542   9.593   7.990
   10POPC   PO4  483   6.970   9.886   8.159
   10POPC   GL1  484   7.164   9.853   7.723
   10POPC   GL2  485   7.202   9.484   7.633
   10POPC   C1A  486   7.048   9.818   7.267
   10POPC   D2A  487   7.143   0.070   6.896
   10POPC   C3A  488   7.053   9.925   6.504
   10POPC   C4A  489   6.844   9.951   6.108
   10POPC   C1B  490   7.500   9.591   7.291
   10POPC   C2B  491   7.356   9.589   6.854
   10POPC   C3B  492   7.441   9.572   6.411
   10POPC   C4B  493   7.679   9.680   6.012
   11POPC   NC3  494   8.071   4.842   8.077
   11POPC   PO4  495   8.032   4.177   8.360
   11POPC   GL1  496   8.189   4.325   7.904
   11POPC   GL2  497   8.506   4.387   7.784
   11POPC   C1A  498   8.214   4.164   7.434
   11POPC   D2A  499   8.270   4.014   6.970
   11POPC   C3A  500   8.148   4.176   6.508
   11POPC   C4A  501   7.883   4.244   6.112
   11POPC   C1B  502   8.597   4.520   7.346
   11POPC   C2B  503   8.673   4.375   6.904
   11POPC   C3B  504   8.650   4.492   6.450
   11POPC   C4B  505   8.327   4.512   6.132
   12POPC   NC3  506   3.338   2.043   8.226
   12POPC   PO4  507   3.781   2.554   8.110
   12POPC   GL1  508   3.567   2.232   7.815
   12POPC   GL2  509   3.489   1.858   7.772
   12POPC   C1A  510   3.556   2.194   7.362
   12POPC   D2A  511   3.382   2.395   6.966
   12POPC   C3A  512   3.506   2.313   6.512
   12POPC   C4A  513   3.392   2.136   6.081
   12POPC   C1B  514   3.754   1.685   7.426
   12POPC   C2B  515   3.862   1.656   6.965
   12POPC   C3B  516   3.662   1.817   6.585
   12POPC   C4B  517   3.257   1.814   6.464
   13POPC   NC3  518   9.249   5.943   8.064
   13POPC   PO4  519   9.516   5.354   8.177
   13POPC   GL1  520   9.272   5.476   7.843
   13POPC   GL2  521   9.492   5.714   7.659
   13POPC   C1A  522   8.999   5.499   7.487
   13POPC   D2A  523   9.106   5.330   7.081
   13POPC   C3A  524   9.000   5.606   6.741
   13POPC   C4A  525   9.056   5.799   6.321
   13POPC   C1B  526   9.274   5.856   7.257
   13POPC   C2B  527   8.855   6.002   7.074
   13POPC   C3B  528   8.751   6.058   6.633
   13POPC   C4B  529   8.542   6.189   6.279
   14POPC   NC3  530   2.010   4.401   8.338
   14POPC   PO4  531   1.429   4.252   8.026
   14POPC   GL1  532   1.704   4.332   7.725
   14POPC   GL2  533   1.915   4.575   7.850
   14POPC   C1A  534   1.715   4.359   7.285
   14POPC   D2A  535   1.696   4.078   6.918
   14POPC   C3A  536   1.733   4.322   6.551
   14POPC   C4A  537   1.821   4.190   6.107
   14POPC   C1B  538   2.178   4.341   7.542
   14POPC   C2B  539   2.171   4.129   7.126
   14POPC   C3B  540   2.193   4.132   6.658
   14POPC   C4B  541   2.175   4.488   6.355
   15POPC   NC3  542   4.344   9.040   8.156
   15POPC   PO4  543   3.875   8.524   8.242
   15POPC   GL1  544   3.906   8.777   7.801
   15POPC   GL2  545   4.031   9.124   7.723
   15POPC   C1A  546   3.741   8.915   7.347
   15POPC   D2A  547   3.891   8.818   6.914
   15POPC   C3A  548   4.091   9.027   6.537
   15POPC   C4A  549   4.164   9.241   6.079
   15POPC   C1B  550   4.227   8.828   7.366
   15POPC   C2B  551   4.518   8.669   7.070
   15POPC   C3B  552   4.540   8.839   6.661
   15POPC   C4B  553   4.482   8.856   6.208
   16POPC   NC3  554   0.328   1.162   7.940
   16POPC   PO4  555   0.670   1.673   8.080
   16POPC   GL1  556   0.445   1.620   7.677
   16POPC   GL2  557   0.144   1.418   7.555
   16POPC   C1A  558   0.620   1.403   7.289
   16POPC   D2A  559   0.883   1.215   6.938
   16POPC   C3A  560   0.700   1.231   6.503
   16POPC   C4A  561   0.374   1.485   6.330
   16POPC   C1B  562   0.245   1.033   7.307
   16POPC   C2B  563   0.375   1.117   6.896
   16POPC   C3B  564   0.214   1.012   6.496
   16POPC   C4B  565   0.174   0.965   6.050
   17POPC   NC3  566   7.969   5.782   8.092
   17POPC   PO4  567   8.640   5.896   8.063
   17POPC   GL1  568   8.364   5.797   7.741
   17POPC   GL2  569   8.207   6.154   7.806
   17POPC   C1A  570   8.511   5.640   7.306
   17POPC   D2A  571   8.482   5.671   6.836
   17POPC   C3A  572   8.183   5.405   6.588
   17POPC   C4A  573   8.058   5.500   6.160
   17POPC   C1B  574   8.420   6.160   7.372
   17POPC   C2B  575   8.336   6.197   6.892
   17POPC   C3B  576   8.153   5.936   6.498
   17POPC   C4B  577   7.814   5.944   6.137
   18POPC   NC3  578   5.769   0.390   8.332
   18POPC   PO4  579   6.239   9.902   8.316
   18POPC   GL1  580   6.077   0.303   7.936
   18POPC   GL2  581   5.796   0.562   7.861
   18POPC   C1A  582   5.892   0.282   7.458
   18POPC   D2A  583   6.007   0.007   7.104
   18POPC   C3A  584   6.086   0.079   6.664
   18POPC   C4A  585   5.925   0.036   6.276
   18POPC   C1B  586   5.578   0.671   7.449
   18POPC   C2B  587   5.772   0.761   7.033
   18POPC   C3B  588   5.796   0.526   6.625
   18POPC   C4B  589   5.967   0.542   6.212
   19POPC   NC3  590   9.553   6.591   8.130
   19POPC   PO4  591   0.228   6.268   8.157
   19POPC   GL1  592   9.976   6.492   7.788
   19POPC   GL2  593   9.813   6.785   7.744
   19POPC   C1A  594   9.817   6.536   7.292
   19POPC   D2A  595   9.910   6.416   6.827
   19POPC   C3A  596   9.886   6.597   6.377
   19POPC   C4A  597   9.962   6.402   5.925
   19POPC   C1B  598   9.403   6.769   7.512
   19POPC   C2B  599   9.271   6.546   7.118
   19POPC   C3B  600   9.418   6.587   6.665
   19POPC   C4B  601   9.359   6.883   6.315
   20POPC   NC3  602   9.619   0.921   8.512
   20POPC   PO4  603   9.952   1.408   8.078
   20POPC   GL1  604   9.661   1.336   7.734
   20POPC   GL2  605   9.313   1.285   7.829
   20POPC   C1A  606   9.727   1.193   7.314
   20POPC   D2A  607   9.866   0.956   6.944
   20POPC   C3A  608   9.713   1.086   6.528
   20POPC   C4A  609   9.700   0.809   6.162
   20POPC   C1B  610   9.211   1.159   7.398
   20POPC   C2B  611   9.340   1.134   6.937
   20POPC   C3B  612   9.379   1.476   6.600
   20POPC   C4B  613   9.499   1.539   6.147
   21POPC   NC3  614   1.942   8.075   8.070
   21POPC   PO4  615   2.369   7.545   8.061
   21POPC   GL1  616   2.249   7.785   7.659
   21POPC   GL2  617   1.904   8.037   7.570
   21POPC   C1A  618   2.277   7.964   7.246
   21POPC   D2A  619   2.034   7.918   6.882
   21POPC   C3A  620   2.312   7.911   6.514
   21POPC   C4A  621   2.508   8.024   6.104
   21POPC   C1B  622   1.532   8.310   7.404
   21POPC   C2B  623   1.384   8.292   6.959
   21POPC   C3B  624   1.661   8.154   6.615
   21POPC   C4B  625   1.971   8.198   6.290
   22POPC   NC3  626   4.168   1.498   8.182
   22POPC   PO4  627   4.712   1.125   8.428
   22POPC   GL1  628   4.610   1.341   7.985
   22POPC   GL2  629   4.295   1.161   7.824
   22POPC   C1A  630   4.648   1.288   7.473
   22POPC   D2A  631   4.411   1.065   7.084
   22POPC   C3A  632   4.565   0.922   6.628
   22POPC   C4A  633   4.623   0.954   6.148
   22POPC   C1B  634   3.992   1.236   7.488
   22POPC   C2B  635   3.909   1.162   7.034
   22POPC   C3B  636   3.983   0.941   6.649
   22POPC   C4B  637   4.188   1.145   6.300
   23POPC   NC3  638   7.748   7.017   8.071
   23POPC   PO4  639   8.329   7.502   8.149
   23POPC   GL1  640   8.078   7.306   7.841
   23POPC   GL2  641   8.219   7.455   7.608
   23POPC   C1A  642   7.931   7.105   7.411
   23POPC   D2A  643   8.042   7.257   6.975
   23POPC   C3A  644   7.886   7.034   6.584
   23POPC   C4A  645   7.641   7.034   6.182
   23POPC   C1B  646   8.291   7.687   7.272
   23POPC   C2B  647   8.448   7.616   6.880
   23POPC   C3B  648   8.305   7.634   6.443
   23POPC   C4B  649   8.282   7.395   6.039
   24POPC   NC3  650   9.241   3.517   8.048
   24POPC   PO4  651   8.749   3.966   8.016
   24POPC   GL1  652   8.914   3.691   7.705
   24POPC   GL2  653   8.847   3.302   7.797
   24POPC   C1A  654   9.174   3.764   7.348
   24POPC   D2A  655   9.376   3.593   6.977
   24POPC   C3A  656   9.119   3.670   6.601
   24POPC   C4A  657   8.770   3.514   6.343
   24POPC   C1B  658   9.094   3.282   7.421
   24POPC   C2B  659   8.955   3.308   6.977
   24POPC   C3B  660   9.021   3.132   6.552
   24POPC   C4B  661   8.785   3.041   6.140
   25POPC   NC3  662   0.187   1.801   8.159
   25POPC   PO4  663   0.449   2.227   8.480
   25POPC   GL1  664   0.401   2.151   7.889
   25POPC   GL2  665   0.686   2.088   7.683
   25POPC   C1A  666   0.220   2.079   7.451
   25POPC   D2A  667   9.968   2.167   7.053
   25POPC   C3A  668   0.132   2.017   6.646
   25POPC   C4A  669   0.182   2.027   6.191
   25POPC   C1B  670   0.691   2.159   7.228
   25POPC   C2B  671   0.625   2.113   6.781
   25POPC   C3B  672   0.642   1.946   6.384
   25POPC   C4B  673   0.586   1.761   5.960
   26POPC   NC3  674   9.877   4.370   8.238
   26POPC   PO4  675   9.362   4.734   7.931
   26POPC   GL1  676   9.680   4.578   7.668
   26POPC   GL2  677   9.831   4.232   7.750
   26POPC   C1A  678   9.626   4.661   7.226
   26POPC   D2A  679   9.401   4.577   6.835
   26POPC   C3A  680   9.587   4.493   6.442
   26POPC   C4A  681   9.551   4.652   6.022
   26POPC   C1B  682   9.925   4.246   7.319
   26POPC   C2B  683   9.896   4.384   6.890
   26POPC   C3B  684   0.025   4.203   6.526
   26POPC   C4B  685   9.955   3.841   6.273
   27POPC   NC3  686   7.304   0.956   8.114
   27POPC   PO4  687   7.721   1.411   7.813
   27POPC   GL1  688   7.272   1.347   7.669
   27POPC   GL2  689   7.101   1.024   7.658
   27POPC   C1A  690   7.140   1.278   7.215
   27POPC   D2A  691   7.342   1.277   6.786
   27POPC   C3A  692   7.038   1.333   6.447
   27POPC   C4A  693   7.004   1.151   6.004
   27POPC   C1B  694   7.523   0.986   7.393
   27POPC   C2B  695   7.740   0.961   7.001
   27POPC   C3B  696   7.630   0.855   6.585
   27POPC   C4B  697   7.467   1.143   6.276
   28POPC   NC3  698   9.294   4.966   8.320
   28POPC   PO4  699   8.614   4.932   8.082
   28POPC   GL1  700   8.887   4.764   7.696
   28POPC   GL2  701   9.120   5.022   7.592
   28POPC   C1A  702   9.064   4.676   7.220
   28POPC   D2A  703   8.934   4.824   6.761
   28POPC   C3A  704   9.155   4.779   6.334
   28POPC   C4A  705   9.107   4.733   5.823
   28POPC   C1B  706   8.727   5.073   7.339
   28POPC   C2B  707   8.603   5.185   6.930
   28POPC   C3B  708   8.677   5.277   6.488
   28POPC   C4B  709   8.549   5.655   6.294
   29POPC   NC3  710   6.015   8.886   8.440
   29POPC   PO4  711   5.454   9.226   8.276
   29POPC   GL1  712   5.677   9.249   7.884
   29POPC   GL2  713   5.867   8.938   7.864
   29POPC   C1A  714   5.790   9.245   7.440
   29POPC   D2A  715   5.968   9.137   7.026
   29POPC   C3A  716   5.745   9.208   6.632
   29POPC   C4A  717   5.421   9.178   6.300
   29POPC   C1B  718   5.867   8.735   7.449
   29POPC   C2B  719   6.103   8.651   7.090
   29POPC   C3B  720   5.951   8.727   6.689
   29POPC   C4B  721   5.767   8.817   6.290
   30POPC   NC3  722   5.044   8.870   8.201
   30POPC   PO4  723   4.443   8.660   7.929
   30POPC   GL1  724   4.854   8.744   7.726
   30POPC   GL2  725   4.925   9.130   7.740
   30POPC   C1A  726   4.976   8.814   7.284
   30POPC   D2A  727   4.873   9.224   7.160
   30POPC   C3A  728   4.777   9.291   6.748
   30POPC   C4A  729   4.961   9.022   6.467
   30POPC   C1B  730   5.348   9.005   7.565
   30POPC   C2B  731   5.487   8.945   7.113
   30POPC   C3B  732   5.395   8.820   6.667
   30POPC   C4B  733   5.256   8.665   6.246
   31POPC   NC3  734   5.924   9.673   8.047
   31POPC   PO4  735   5.403   0.047   8.296
   31POPC   GL1  736   5.621   0.033   7.837
   31POPC   GL2  737   5.797   9.761   7.561
   31POPC   C1A  738   5.413   0.067   7.411
   31POPC   D2A  739   5.564   0.266   7.020
   31POPC   C3A  740   5.507   0.073   6.588
   31POPC   C4A  741   5.564   9.668   6.345
   31POPC   C1B  742   6.152   9.552   7.259
   31POPC   C2B  743   6.268   9.585   6.832
   31POPC   C3B  744   6.049   9.567   6.434
   31POPC   C4B  745   5.893   9.281   6.116
   32POPC   NC3  746   7.169   2.435   8.180
   32POPC   PO4  747   7.236   3.107   8.190
   32POPC   GL1  748   7.335   2.797   7.870
   32POPC   GL2  749   7.541   2.860   7.612
   32POPC   C1A  750   7.128   2.589   7.502
   32POPC   D2A  751   7.271   2.642   7.080
   32POPC   C3A  752   7.113   2.697   6.661
   32POPC   C4A  753   7.217   3.047   6.386
   32POPC   C1B  754   7.802   2.690   7.299
   32POPC   C2B  755   7.748   2.532   6.905
   32POPC   C3B  756   7.603   2.686   6.526
   32POPC   C4B  757   7.627   2.886   6.126
   33POPC   NC3  758   8.980   9.248   8.407
   33POPC   PO4  759   9.216   8.550   8.301
   33POPC   GL1  760   9.048   8.766   7.909
   33POPC   GL2  761   8.712   8.797   8.041
   33POPC   C1A  762   9.090   8.912   7.419
   33POPC   D2A  763   9.167   8.751   6.993
   33POPC   C3A  764   9.153   9.008   6.637
   33POPC   C4A  765   8.961   8.976   6.267
   33POPC   C1B  766   8.597   8.860   7.596
   33POPC   C2B  767   8.670   8.872   7.123
   33POPC   C3B  768   8.699   8.743   6.668
   33POPC   C4B  769   8.459   8.666   6.262
   34POPC   NC3  770   5.067   0.362   8.178
   34POPC   PO4  771   4.662   0.850   7.958
   34POPC   GL1  772   4.874   0.530   7.710
   34POPC   GL2  773   4.693   0.207   7.695
   34POPC   C1A  774   5.100   0.490   7.301
   34POPC   D2A  775   5.269   0.656   6.902
   34POPC   C3A  776   5.024   0.582   6.522
   34POPC   C4A  777   5.079   0.552   6.047
   34POPC   C1B  778   4.753   0.111   7.237
   34POPC   C2B  779   5.038   0.179   6.837
   34POPC   C3B  780   5.032   0.100   6.341
   34POPC   C4B  781   4.863   0.112   5.873
   35POPC   NC3  782   0.330   6.766   8.240
   35POPC   PO4  783   0.876   6.615   8.107
   35POPC   GL1  784   0.813   6.451   7.715
   35POPC   GL2  785   0.486   6.499   7.774
   35POPC   C1A  786   0.788   6.612   7.299
   35POPC   D2A  787   0.789   6.936   6.964
   35POPC   C3A  788   0.782   6.722   6.576
   35POPC   C4A  789   0.645   6.773   6.154
   35POPC   C1B  790   0.304   6.479   7.385
   35POPC   C2B  791   0.438   6.455   6.946
   35POPC   C3B  792   0.344   6.452   6.517
   35POPC   C4B  793   0.198   6.112   6.267
   36POPC   NC3  794   7.621   8.615   7.957
   36POPC   PO4  795   7.840   9.243   8.068
   36POPC   GL1  796   7.537   9.102   7.768
   36POPC   GL2  797   7.212   8.993   7.907
   36POPC   C1A  798   7.614   9.068   7.316
   36POPC   D2A  799   7.836   9.089   6.913
   36POPC   C3A  800   7.638   9.038   6.509
   36POPC   C4A  801   7.548   9.186   6.065
   36POPC   C1B  802   7.220   8.782   7.488
   36POPC   C2B  803   7.291   8.708   7.052
   36POPC   C3B  804   7.045   8.672   6.662
   36POPC   C4B  805   7.214   8.855   6.297
   37POPC   NC3  806   1.981   8.724   8.153
   37POPC   PO4  807   2.298   8.245   7.835
   37POPC   GL1  808   1.990   8.546   7.678
   37POPC   GL2  809   2.033   8.941   7.693
   37POPC   C1A  810   1.908   8.655   7.266
   37POPC   D2A  811   2.047   8.944   6.966
   37POPC   C3A  812   2.037   8.726   6.567
   37POPC   C4A  813   1.663   8.623   6.315
   37POPC   C1B  814   2.189   9.297   7.387
   37POPC   C2B  815   2.408   9.315   6.963
   37POPC   C3B  816   2.238   9.216   6.548
   37POPC   C4B  817   1.915   9.103   6.232
   38POPC   NC3  818   0.708   6.198   8.155
   38POPC   PO4  819   0.474   5.576   7.999
   38POPC   GL1  820   0.513   5.973   7.747
   38POPC   GL2  821   0.857   5.925   7.726
   38POPC   C1A  822   0.623   6.101   7.316
   38POPC   D2A  823   0.526   5.821   6.965
   38POPC   C3A  824   0.585   5.982   6.576
   38POPC   C4A  825   0.758   6.268   6.281
   38POPC   C1B  826   0.716   5.613   7.401
   38POPC   C2B  827   0.713   5.357   7.029
   38POPC   C3B  828   0.680   5.455   6.572
   38POPC   C4B  829   0.365   5.615   6.262
   39POPC   NC3  830   2.123   7.164   8.166
   39POPC   PO4  831   1.548   7.659   8.140
   39POPC   GL1  832   1.787   7.575   7.744
   39POPC   GL2  833   2.041   7.314   7.692
   39POPC   C1A  834   1.909   7.606   7.282
   39POPC   D2A  835   1.817   7.414   6.872
   39POPC   C3A  836   1.870   7.644   6.498
   39POPC   C4A  837   2.109   7.649   6.093
   39POPC   C1B  838   2.263   7.226   7.327
   39POPC   C2B  839   2.205   7.075   6.910
   39POPC   C3B  840   2.259   7.288   6.507
   39POPC   C4B  841   2.261   7.154   6.078
   40POPC   NC3  842   6.559   0.107   8.023
   40POPC   PO4  843   6.975   0.641   7.998
   40POPC   GL1  844   6.923   0.316   7.705
   40POPC   GL2  845   6.608   0.463   7.657
   40POPC   C1A  846   6.856   0.283   7.250
   40POPC   D2A  847   6.801   0.546   6.876
   40POPC   C3A  848   6.862   0.411   6.423
   40POPC   C4A  849   6.722   0.691   6.097
   40POPC   C1B  850   6.368   0.345   7.334
   40POPC   C2B  851   6.211   0.469   6.962
   40POPC   C3B  852   6.367   0.553   6.559
   40POPC   C4B  853   6.399   0.281   6.228
   41POPC   NC3  854   8.925   7.368   8.185
   41POPC   PO4  855   8.465   6.872   8.188
   41POPC   GL1  856   8.627   7.179   7.802
   41POPC   GL2  857   9.039   7.280   7.704
   41POPC   C1A  858   8.703   7.418   7.374
   41POPC   D2A  859   8.983   7.401   7.026
   41POPC   C3A  860   8.834   7.415   6.628
   41POPC   C4A  861   8.758   7.494   6.213
   41POPC   C1B  862   9.234   7.610   7.395
   41POPC   C2B  863   9.406   7.700   6.934
   41POPC   C3B  864   9.205   7.728   6.467
   41POPC   C4B  865   9.224   7.691   5.970
   42POPC   NC3  866   2.443   3.704   8.225
   42POPC   PO4  867   1.834   3.982   8.390
   42POPC   GL1  868   1.805   3.863   7.919
   42POPC   GL2  869   1.849   3.487   7.821
   42POPC   C1A  870   1.762   3.869   7.455
   42POPC   D2A  871   2.025   3.635   7.156
   42POPC   C3A  872   1.941   3.656   6.705
   42POPC   C4A  873   1.648   3.807   6.398
   42POPC   C1B  874   1.673   3.342   7.394
   42POPC   C2B  875   1.546   3.153   6.980
   42POPC   C3B  876   1.717   3.132   6.541
   42POPC   C4B  877   2.010   3.352   6.279
   43POPC   NC3  878   1.028   3.079   8.096
   43POPC   PO4  879   0.726   2.514   7.991
   43POPC   GL1  880   0.936   2.759   7.695
   43POPC   GL2  881   1.302   2.772   7.766
   43POPC   C1A  882   0.875   2.743   7.274
   43POPC   D2A  883   0.787   2.572   6.902
   43POPC   C3A  884   0.905   2.788   6.561
   43POPC   C4A  885   1.011   2.663   6.143
   43POPC   C1B  886   1.498   2.744   7.355
   43POPC   C2B  887   1.294   2.696   6.961
   43POPC   C3B  888   1.411   2.711   6.557
   43POPC   C4B  889   1.464   2.886   6.160
   44POPC   NC3  890   9.407   1.861   7.917
   44POPC   PO4  891   9.959   2.253   8.081
   44POPC   GL1  892   9.771   2.175   7.690
   44POPC   GL2  893   9.886   1.825   7.734
   44POPC   C1A  894   9.524   2.258   7.286
   44POPC   D2A  895   9.510   2.467   6.854
   44POPC   C3A  896   9.845   2.420   6.485
   44POPC   C4A  897   9.782   2.282   5.983
   44POPC   C1B  898   9.800   1.727   7.298
   44POPC   C2B  899   9.845   1.477   6.897
   44POPC   C3B  900   9.889   1.583   6.469
   44POPC   C4B  901   9.687   1.959   6.359
   45POPC   NC3  902   0.310   2.562   8.207
   45POPC   PO4  903   0.514   3.186   8.131
   45POPC   GL1  904   0.375   2.923   7.762
   45POPC   GL2  905   0.137   2.612   7.717
   45POPC   C1A  906   0.225   3.038   7.339
   45POPC   D2A  907   0.496   2.979   6.980
   45POPC   C3A  908   0.500   3.083   6.563
   45POPC   C4A  909   0.548   2.870   6.176
   45POPC   C1B  910   0.372   2.555   7.306
   45POPC   C2B  911   0.277   2.520   6.848
   45POPC   C3B  912   0.395   2.446   6.420
   45POPC   C4B  913   0.213   2.541   5.997
   46POPC   NC3  914   8.168   7.150   8.378
   46POPC   PO4  915   7.910   6.579   8.076
   46POPC   GL1  916   8.176   6.814   7.768
   46POPC   GL2  917   8.449   6.605   7.671
   46POPC   C1A  918   8.415   7.004   7.365
   46POPC   D2A  919   8.600   7.081   6.947
   46POPC   C3A  920   8.389   7.118   6.532
   46POPC   C4A  921   8.157   6.911   6.168
   46POPC   C1B  922   8.127   6.590   7.318
   46POPC   C2B  923   8.221   6.755   6.913
   46POPC   C3B  924   8.299   6.584   6.525
   46POPC   C4B  925   7.979   6.385   6.323
   47POPC   NC3  926   4.990   1.489   8.370
   47POPC   PO4  927   4.485   1.844   8.121
   47POPC   GL1  928   4.771   1.788   7.799
   47POPC   GL2  929   5.074   1.840   7.982
   47POPC   C1A  930   4.766   1.797   7.346
   47POPC   D2A  931   5.002   1.888   6.941
   47POPC   C3A  932   4.718   2.047   6.594
   47POPC   C4A  933   4.826   2.387   6.336
   47POPC   C1B  934   5.242   1.923   7.544
   47POPC   C2B  935   5.481   2.089   7.178
   47POPC   C3B  936   5.482   2.165   6.721
   47POPC   C4B  937   5.196   1.954   6.421
   48POPC   NC3  938   2.638   4.566   7.996
   48POPC   PO4  939   2.741   5.222   8.089
   48POPC   GL1  940   2.600   5.158   7.691
   48POPC   GL2  941   2.490   4.812   7.558
   48POPC   C1A  942   2.697   5.264   7.282
   48POPC   D2A  943   2.491   5.135   6.924
   48POPC   C3A  944   2.605   5.171   6.473
   48POPC   C4A  945   2.698   5.194   6.007
   48POPC   C1B  946   2.351   4.669   7.127
   48POPC   C2B  947   2.516   4.685   6.672
   48POPC   C3B  948   2.693   4.683   6.228
   48POPC   C4B  949   2.957   4.545   5.825
   49POPC   NC3  950   4.305   2.281   8.139
   49POPC   PO4  951   3.768   1.788   8.206
   49POPC   GL1  952   4.027   1.923   7.823
   49POPC   GL2  953   4.258   1.664   7.689
   49POPC   C1A  954   4.088   2.056   7.340
   49POPC   D2A  955   3.855   2.152   6.933
   49POPC   C3A  956   4.080   2.093   6.533
   49POPC   C4A  957   4.342   2.116   6.182
   49POPC   C1B  958   4.292   1.580   7.243
   49POPC   C2B  959   4.373   1.754   6.835
   49POPC   C3B  960   4.404   1.645   6.382
   49POPC   C4B  961   4.157   1.581   5.989
   50POPC   NC3  962   6.376   7.300   7.998
   50POPC   PO4  963   6.849   7.098   8.434
   50POPC   GL1  964   6.813   7.159   7.807
   50POPC   GL2  965   7.051   7.398   7.658
   50POPC   C1A  966   6.650   7.295   7.352
   50POPC   D2A  967   6.455   7.392   6.911
   50POPC   C3A  968   6.621   7.319   6.473
   50POPC   C4A  969   6.597   7.187   6.027
   50POPC   C1B  970   7.082   7.513   7.222
   50POPC   C2B  971   7.025   7.300   6.854
   50POPC   C3B  972   7.092   7.486   6.449
   50POPC   C4B  973   6.829   7.639   6.089
   51POPC   NC3  974   9.710   2.641   8.064
   51POPC   PO4  975   9.178   3.086   8.220
   51POPC   GL1  976   9.369   2.949   7.753
   51POPC   GL2  977   9.608   2.670   7.593
   51POPC   C1A  978   9.310   2.860   7.261
   51POPC   D2A  979   9.453   3.086   6.908
   51POPC   C3A  980   9.513   2.869   6.541
   51POPC   C4A  981   9.291   2.926   6.161
   51POPC   C1B  982   9.860   2.669   7.220
   51POPC   C2B  983   9.970   2.940   6.865
   51POPC   C3B  984   0.053   2.883   6.427
   51POPC   C4B  985   9.771   2.765   6.101
   52POPC   NC3  986   6.715   1.865   8.324
   52POPC   PO4  987   7.102   1.376   8.148
   52POPC   GL1  988   6.804   1.552   7.903
   52POPC   GL2  989   6.787   1.930   7.810
   52POPC   C1A  990   6.776   1.544   7.473
   52POPC   D2A  991   6.566   1.387   7.149
   52POPC   C3A  992   6.631   1.525   6.709
   52POPC   C4A  993   6.844   1.797   6.383
   52POPC   C1B  994   6.509   2.012   7.436
   52POPC   C2B  995   6.374   1.863   7.002
   52POPC   C3B  996   6.378   1.981   6.545
   52POPC   C4B  997   6.475   2.291   6.173
   53POPC   NC3  998   0.232   3.492   7.920
   53POPC   PO4  999   9.880   3.022   8.271
   53POPC   GL1 1000   9.871   3.082   7.806
   53POPC   GL2 1001   9.694   3.412   7.782
   53POPC   C1A 1002   9.737   3.168   7.348
   53POPC   D2A 1003   9.984   3.434   7.043
   53POPC   C3A 1004   9.773   3.477   6.642
   53POPC   C4A 1005   9.710   3.242   6.257
   53POPC   C1B 1006   9.709   3.723   7.402
   53POPC   C2B 1007   9.769   3.904   6.968
   53POPC   C3B 1008   9.556   3.973   6.572
   53POPC   C4B 1009   9.483   3.682   6.235
   54POPC   NC3 1010   7.006   8.752   8.469
   54POPC   PO4 1011   6.437   9.063   8.354
   54POPC   GL1 1012   6.457   8.965   7.884
   54POPC   GL2 1013   6.763   8.724   7.826
   54POPC   C1A 1014   6.331   9.071   7.416
   54POPC   D2A 1015   6.517   9.134   6.970
   54POPC   C3A 1016   6.264   9.119   6.610
   54POPC   C4A 1017   6.268   8.831   6.296
   54POPC   C1B 1018   6.847   9.113   7.566
   54POPC   C2B 1019   7.110   9.237   7.176
   54POPC   C3B 1020   7.090   9.172   6.708
   54POPC   C4B 1021   6.736   8.999   6.426
   55POPC   NC3 1022   9.644   0.339   7.839
   55POPC   PO4 1023   9.258   0.728   8.254
   55POPC   GL1 1024   9.507   0.819   7.805
   55POPC   GL2 1025   9.881   0.827   7.703
   55POPC   C1A 1026   9.481   0.741   7.324
   55POPC   D2A 1027   9.581   0.528   6.922
   55POPC   C3A 1028   9.387   0.700   6.562
   55POPC   C4A 1029   9.217   0.623   6.148
   55POPC   C1B 1030   9.956   0.558   7.300
   55POPC   C2B 1031   9.996   0.225   6.953
   55POPC   C3B 1032   9.950   0.404   6.543
   55POPC   C4B 1033   9.601   0.301   6.316
   56POPC   NC3 1034   0.092   5.835   8.023
   56POPC   PO4 1035   9.566   6.188   7.824
   56POPC   GL1 1036   9.954   6.034   7.569
   56POPC   GL2 1037   0.148   5.703   7.513
   56POPC   C1A 1038   0.114   6.065   7.149
   56POPC   D2A 1039   0.051   5.870   6.746
   56POPC   C3A 1040   9.732   6.068   6.492
   56POPC   C4A 1041   9.721   5.978   6.069
   56POPC   C1B 1042   9.778   5.667   7.230
   56POPC   C2B 1043   9.542   5.600   6.844
   56POPC   C3B 1044   9.590   5.579   6.404
   56POPC   C4B 1045   9.389   5.613   5.991
   57POPC   NC3 1046   8.153   9.573   8.158
   57POPC   PO4 1047   8.644   9.999   7.996
   57POPC   GL1 1048   8.270   9.819   7.695
   57POPC   GL2 1049   8.245   9.413   7.676
   57POPC   C1A 1050   7.907   9.948   7.366
   57POPC   D2A 1051   7.695   9.959   6.922
   57POPC   C3A 1052   7.832   9.931   6.460
   57POPC   C4A 1053   8.159   9.847   6.141
   57POPC   C1B 1054   8.013   9.451   7.264
   57POPC   C2B 1055   8.025   9.565   6.797
   57POPC   C3B 1056   7.948   9.427   6.364
   57POPC   C4B 1057   8.092   9.384   5.910
   58POPC   NC3 1058   3.786   7.511   8.317
   58POPC   PO4 1059   3.700   6.951   8.139
   58POPC   GL1 1060   3.611   7.316   7.853
   58POPC   GL2 1061   3.287   7.452   7.822
   58POPC   C1A 1062   3.631   7.462   7.388
   58POPC   D2A 1063   3.610   7.493   6.909
   58POPC   C3A 1064   3.416   7.188   6.594
   58POPC   C4A 1065   3.523   7.042   6.165
   58POPC   C1B 1066   3.134   7.573   7.382
   58POPC   C2B 1067   3.082   7.534   6.928
   58POPC   C3B 1068   3.313   7.689   6.544
   58POPC   C4B 1069   3.621   7.555   6.213
   59POPC   NC3 1070   8.819   2.234   7.867
   59POPC   PO4 1071   8.988   1.643   7.957
   59POPC   GL1 1072   9.002   1.599   7.535
   59POPC   GL2 1073   8.744   1.828   7.516
   59POPC   C1A 1074   9.309   1.616   7.164
   59POPC   D2A 1075   9.491   1.931   6.858
   59POPC   C3A 1076   9.201   1.969   6.481
   59POPC   C4A 1077   9.028   1.671   6.212
   59POPC   C1B 1078   9.047   2.051   7.266
   59POPC   C2B 1079   8.997   2.224   6.866
   59POPC   C3B 1080   8.679   2.052   6.589
   59POPC   C4B 1081   8.549   1.728   6.316
   60POPC   NC3 1082   6.728   1.056   8.165
   60POPC   PO4 1083   6.106   0.758   8.265
   60POPC   GL1 1084   6.304   0.827   7.848
   60POPC   GL2 1085   6.548   1.088   7.686
   60POPC   C1A 1086   6.195   0.814   7.391
   60POPC   D2A 1087   6.338   0.952   6.978
   60POPC   C3A 1088   6.075   0.968   6.623
   60POPC   C4A 1089   6.233   0.973   6.199
   60POPC   C1B 1090   6.746   0.906   7.301
   60POPC   C2B 1091   6.823   1.063   6.869
   60POPC   C3B 1092   6.627   1.023   6.505
   60POPC   C4B 1093   6.566   1.360   6.215
   61POPC   NC3 1094   1.059   4.052   7.867
   61POPC   PO4 1095   0.918   4.682   7.932
   61POPC   GL1 1096   0.873   4.454   7.566
   61POPC   GL2 1097   1.229   4.386   7.524
   61POPC   C1A 1098   0.875   4.425   7.091
   61POPC   D2A 1099   0.848   4.659   6.721
   61POPC   C3A 1100   0.900   4.497   6.323
   61POPC   C4A 1101   1.060   4.396   5.893
   61POPC   C1B 1102   1.257   4.102   7.178
   61POPC   C2B 1103   1.193   4.183   6.715
   61POPC   C3B 1104   1.334   4.225   6.285
   61POPC   C4B 1105   1.362   3.963   5.933
   62POPC   NC3 1106   7.634   3.318   8.245
   62POPC   PO4 1107   7.171   3.787   8.034
   62POPC   GL1 1108   7.449   3.499   7.800
   62POPC   GL2 1109   7.215   3.264   7.681
   62POPC   C1A 1110   7.704   3.305   7.453
   62POPC   D2A 1111   7.564   3.064   7.052
   62POPC   C3A 1112   7.638   3.225   6.633
   62POPC   C4A 1113   7.823   3.380   6.250
   62POPC   C1B 1114   7.245   3.398   7.253
   62POPC   C2B 1115   7.092   3.344   6.807
   62POPC   C3B 1116   6.870   3.432   6.391
   62POPC   C4B 1117   7.007   3.663   5.997
   63POPC   NC3 1118   1.916   2.860   8.200
   63POPC   PO4 1119   2.490   3.235   8.279
   63POPC   GL1 1120   2.283   3.090   7.845
   63POPC   GL2 1121   2.169   2.746   7.753
   63POPC   C1A 1122   2.128   3.094   7.366
   63POPC   D2A 1123   2.061   3.188   6.915
   63POPC   C3A 1124   2.232   2.955   6.546
   63POPC   C4A 1125   2.192   2.905   6.084
   63POPC   C1B 1126   2.004   2.592   7.340
   63POPC   C2B 1127   1.857   2.703   6.891
   63POPC   C3B 1128   1.894   2.597   6.433
   63POPC   C4B 1129   1.861   2.529   5.983
   64POPC   NC3 1130   8.070   7.823   7.937
   64POPC   PO4 1131   8.269   8.399   8.279
   64POPC   GL1 1132   8.403   8.432   7.819
   64POPC   GL2 1133   8.334   8.109   7.631
   64POPC   C1A 1134   8.390   8.474   7.323
   64POPC   D2A 1135   8.407   8.131   7.024
   64POPC   C3A 1136   8.419   8.313   6.647
   64POPC   C4A 1137   8.371   8.153   6.261
   64POPC   C1B 1138   7.980   8.087   7.298
   64POPC   C2B 1139   7.965   7.825   6.891
   64POPC   C3B 1140   7.862   7.952   6.478
   64POPC   C4B 1141   8.015   7.861   6.073
   65POPC   NC3 1142   4.254   9.781   8.200
   65POPC   PO4 1143   4.769   9.277   8.231
   65POPC   GL1 1144   4.481   9.422   7.857
   65POPC   GL2 1145   4.404   9.773   7.723
   65POPC   C1A 1146   4.434   9.319   7.414
   65POPC   D2A 1147   4.432   9.599   7.030
   65POPC   C3A 1148   4.342   9.472   6.560
   65POPC   C4A 1149   4.627   9.352   6.240
   65POPC   C1B 1150   4.053   9.648   7.488
   65POPC   C2B 1151   3.934   9.793   7.067
   65POPC   C3B 1152   4.158   9.932   6.661
   65POPC   C4B 1153   4.054   9.865   6.191
   66POPC   NC3 1154   2.058   1.227   8.106
   66POPC   PO4 1155   1.555   0.824   8.098
   66POPC   GL1 1156   1.755   0.968   7.743
   66POPC   GL2 1157   2.119   0.968   7.640
   66POPC   C1A 1158   1.666   1.175   7.372
   66POPC   D2A 1159   1.764   1.036   6.982
   66POPC   C3A 1160   1.717   1.209   6.573
   66POPC   C4A 1161   1.969   1.109   6.226
   66POPC   C1B 1162   2.176   1.219   7.260
   66POPC   C2B 1163   2.138   1.368   6.835
   66POPC   C3B 1164   2.029   1.608   6.458
   66POPC   C4B 1165   1.949   1.627   5.998
   67POPC   NC3 1166   7.373   4.207   8.023
   67POPC   PO4 1167   7.612   4.782   7.979
   67POPC   GL1 1168   7.748   4.440   7.680
   67POPC   GL2 1169   7.795   4.040   7.740
   67POPC   C1A 1170   7.748   4.289   7.253
   67POPC   D2A 1171   7.744   4.072   6.864
   67POPC   C3A 1172   7.547   4.318   6.510
   67POPC   C4A 1173   7.459   4.558   6.110
   67POPC   C1B 1174   7.581   3.810   7.393
   67POPC   C2B 1175   7.285   3.867   7.049
   67POPC   C3B 1176   7.275   3.871   6.616
   67POPC   C4B 1177   7.355   3.553   6.355
   68POPC   NC3 1178   2.087   5.384   8.166
   68POPC   PO4 1179   2.267   4.767   8.205
   68POPC   GL1 1180   2.120   5.034   7.821
   68POPC   GL2 1181   1.778   5.099   7.733
   68POPC   C1A 1182   2.173   5.183   7.383
   68POPC   D2A 1183   2.011   5.323   6.997
   68POPC   C3A 1184   2.105   5.075   6.599
   68POPC   C4A 1185   2.241   4.960   6.164
   68POPC   C1B 1186   1.657   4.986   7.293
   68POPC   C2B 1187   1.589   5.094   6.838
   68POPC   C3B 1188   1.640   5.039   6.400
   68POPC   C4B 1189   1.790   4.714   6.126
   69POPC   NC3 1190   7.932   2.816   7.936
   69POPC   PO4 1191   8.478   2.503   7.979
   69POPC   GL1 1192   8.378   2.756   7.654
   69POPC   GL2 1193   8.381   3.087   7.728
   69POPC   C1A 1194   8.313   2.657   7.235
   69POPC   D2A 1195   8.467   2.464   6.868
   69POPC   C3A 1196   8.145   2.491   6.583
   69POPC   C4A 1197   7.934   2.495   6.181
   69POPC   C1B 1198   8.179   3.153   7.310
   69POPC   C2B 1199   8.036   2.976   6.890
   69POPC   C3B 1200   8.040   2.962   6.439
   69POPC   C4B 1201   8.288   2.842   6.112
   70POPC   NC3 1202   1.156   7.327   8.192
   70POPC   PO4 1203   1.708   6.805   8.194
   70POPC   GL1 1204   1.583   7.104   7.775
   70POPC   GL2 1205   1.305   7.383   7.716
   70POPC   C1A 1206   1.541   7.264   7.298
   70POPC   D2A 1207   1.289   7.190   6.921
   70POPC   C3A 1208   1.456   7.264   6.503
   70POPC   C4A 1209   1.767   7.268   6.182
   70POPC   C1B 1210   1.043   7.489   7.316
   70POPC   C2B 1211   0.919   7.517   6.869
   70POPC   C3B 1212   0.898   7.237   6.486
   70POPC   C4B 1213   0.957   7.271   6.012
   71POPC   NC3 1214   0.669   9.658   8.206
   71POPC   PO4 1215   1.263   9.258   8.147
   71POPC   GL1 1216   1.320   9.427   7.728
   71POPC   GL2 1217   1.006   9.616   7.751
   71POPC   C1A 1218   1.243   9.349   7.265
   71POPC   D2A 1219   0.953   9.103   6.961
   71POPC   C3A 1220   0.939   9.234   6.502
   71POPC   C4A 1221   0.913   9.309   6.037
   71POPC   C1B 1222   1.275   9.854   7.460
   71POPC   C2B 1223   1.348   9.922   7.020
   71POPC   C3B 1224   1.072   9.908   6.668
   71POPC   C4B 1225   0.876   9.850   6.290
   72POPC   NC3 1226   6.722   6.796   8.129
   72POPC   PO4 1227   6.205   6.946   7.747
   72POPC   GL1 1228   6.562   6.816   7.508
   72POPC   GL2 1229   6.823   6.613   7.649
   72POPC   C1A 1230   6.564   6.880   7.061
   72POPC   D2A 1231   6.770   6.885   6.689
   72POPC   C3A 1232   6.480   6.795   6.365
   72POPC   C4A 1233   6.334   6.784   5.900
   72POPC   C1B 1234   6.796   6.443   7.185
   72POPC   C2B 1235   6.682   6.379   6.713
   72POPC   C3B 1236   6.579   6.321   6.215
   72POPC   C4B 1237   6.474   6.264   5.784
   73POPC   NC3 1238   7.546   6.329   7.931
   73POPC   PO4 1239   7.169   6.860   7.998
   73POPC   GL1 1240   7.249   6.892   7.606
   73POPC   GL2 1241   7.602   6.780   7.652
   73POPC   C1A 1242   7.067   6.883   7.176
   73POPC   D2A 1243   7.179   6.589   6.821
   73POPC   C3A 1244   7.017   6.551   6.377
   73POPC   C4A 1245   6.817   6.699   6.007
   73POPC   C1B 1246   7.609   6.704   7.228
   73POPC   C2B 1247   7.747   6.600   6.823
   73POPC   C3B 1248   7.548   6.613   6.446
   73POPC   C4B 1249   7.427   6.253   6.258
   74POPC   NC3 1250   6.212   2.670   8.011
   74POPC   PO4 1251   6.719   2.300   8.166
   74POPC   GL1 1252   6.688   2.584   7.794
   74POPC   GL2 1253   6.851   2.914   7.823
   74POPC   C1A 1254   6.596   2.589   7.336
   74POPC   D2A 1255   6.567   2.392   6.888
   74POPC   C3A 1256   6.291   2.578   6.536
   74POPC   C4A 1257   6.001   2.632   6.148
   74POPC   C1B 1258   6.896   3.015   7.346
   74POPC   C2B 1259   6.734   2.896   6.928
   74POPC   C3B 1260   6.663   2.953   6.466
   74POPC   C4B 1261   6.385   2.966   6.086
   75POPC   NC3 1262   3.559   0.527   8.152
   75POPC   PO4 1263   3.903   1.092   8.165
   75POPC   GL1 1264   3.884   0.821   7.793
   75POPC   GL2 1265   3.761   0.481   7.701
   75POPC   C1A 1266   3.961   0.748   7.334
   75POPC   D2A 1267   3.589   0.765   7.059
   75POPC   C3A 1268   3.587   0.584   6.652
   75POPC   C4A 1269   3.723   0.711   6.231
   75POPC   C1B 1270   3.389   0.427   7.444
   75POPC   C2B 1271   3.203   0.421   7.036
   75POPC   C3B 1272   3.188   0.255   6.639
   75POPC   C4B 1273   3.171   0.554   6.278
   76POPC   NC3 1274   2.491   2.044   8.254
   76POPC   PO4 1275   3.016   2.430   8.357
   76POPC   GL1 1276   3.057   2.349   7.887
   76POPC   GL2 1277   2.863   2.030   7.861
   76POPC   C1A 1278   3.025   2.219   7.410
   76POPC   D2A 1279   2.715   2.110   7.062
   76POPC   C3A 1280   2.833   2.068   6.644
   76POPC   C4A 1281   2.810   2.225   6.240
   76POPC   C1B 1282   2.692   1.820   7.480
   76POPC   C2B 1283   2.501   1.638   7.091
   76POPC   C3B 1284   2.543   1.620   6.620
   76POPC   C4B 1285   2.823   1.702   6.252
   77POPC   NC3 1286   1.401   4.698   7.925
   77POPC   PO4 1287   1.420   5.255   8.061
   77POPC   GL1 1288   1.239   5.109   7.682
   77POPC   GL2 1289   1.108   5.421   7.645
   77POPC   C1A 1290   1.123   4.831   7.308
   77POPC   D2A 1291   1.358   4.600   6.992
   77POPC   C3A 1292   1.329   4.678   6.549
   77POPC   C4A 1293   1.295   4.807   6.104
   77POPC   C1B 1294   1.248   5.297   7.208
   77POPC   C2B 1295   1.089   5.083   6.843
   77POPC   C3B 1296   1.138   5.195   6.427
   77POPC   C4B 1297   1.350   5.337   6.063
   78POPC   NC3 1298   8.053   0.867   8.161
   78POPC   PO4 1299   8.034   1.540   8.242
   78POPC   GL1 1300   8.207   1.248   7.852
   78POPC   GL2 1301   8.477   1.438   7.719
   78POPC   C1A 1302   8.144   1.081   7.381
   78POPC   D2A 1303   8.302   1.129   6.925
   78POPC   C3A 1304   8.151   0.870   6.547
   78POPC   C4A 1305   7.920   0.971   6.131
   78POPC   C1B 1306   8.284   1.570   7.323
   78POPC   C2B 1307   7.905   1.455   7.051
   78POPC   C3B 1308   7.876   1.320   6.607
   78POPC   C4B 1309   8.243   1.319   6.311
   79POPC   NC3 1310   1.934   0.567   8.037
   79POPC   PO4 1311   1.948   9.920   8.094
   79POPC   GL1 1312   1.650   0.062   7.762
   79POPC   GL2 1313   1.588   0.448   7.684
   79POPC   C1A 1314   1.743   0.117   7.322
   79POPC   D2A 1315   2.108   0.231   7.047
   79POPC   C3A 1316   1.991   0.183   6.610
   79POPC   C4A 1317   2.072   0.200   6.179
   79POPC   C1B 1318   1.871   0.651   7.326
   79POPC   C2B 1319   2.196   0.775   6.955
   79POPC   C3B 1320   2.069   0.708   6.523
   79POPC   C4B 1321   1.718   0.544   6.264
   80POPC   NC3 1322   5.156   9.594   8.337
   80POPC   PO4 1323   4.643   0.069   8.210
   80POPC   GL1 1324   4.857   9.766   7.952
   80POPC   GL2 1325   5.120   9.946   7.855
   80POPC   C1A 1326   4.844   9.646   7.483
   80POPC   D2A 1327   4.981   9.703   7.024
   80POPC   C3A 1328   4.722   9.807   6.661
   80POPC   C4A 1329   4.571   9.876   6.246
   80POPC   C1B 1330   5.320   9.572   7.665
   80POPC   C2B 1331   5.351   9.420   7.233
   80POPC   C3B 1332   5.276   9.362   6.764
   80POPC   C4B 1333   5.070   9.554   6.365
   81POPC   NC3 1334   1.050   8.830   8.139
   81POPC   PO4 1335   1.589   8.392   8.098
   81POPC   GL1 1336   1.537   8.843   7.860
   81POPC   GL2 1337   1.195   8.943   7.676
   81POPC   C1A 1338   1.617   9.044   7.434
   81POPC   D2A 1339   1.383   8.799   7.099
   81POPC   C3A 1340   1.278   8.812   6.635
   81POPC   C4A 1341   1.358   9.042   6.214
   81POPC   C1B 1342   1.020   8.621   7.423
   81POPC   C2B 1343   0.900   8.558   7.004
   81POPC   C3B 1344   0.745   8.737   6.638
   81POPC   C4B 1345   0.936   8.747   6.248
   82POPC   NC3 1346   9.526   8.900   8.232
   82POPC   PO4 1347   9.970   8.449   8.196
   82POPC   GL1 1348   9.842   8.665   7.838
   82POPC   GL2 1349   9.515   8.537   7.852
   82POPC   C1A 1350   9.988   8.830   7.406
   82POPC   D2A 1351   9.977   9.167   7.051
   82POPC   C3A 1352   9.855   8.991   6.625
   82POPC   C4A 1353   9.849   8.740   6.179
   82POPC   C1B 1354   9.500   8.613   7.404
   82POPC   C2B 1355   9.667   8.668   6.986
   82POPC   C3B 1356   9.485   8.654   6.527
   82POPC   C4B 1357   9.479   9.084   6.235
   83POPC   NC3 1358   2.501   5.605   7.959
   83POPC   PO4 1359   1.940   5.716   8.429
   83POPC   GL1 1360   1.799   5.721   7.909
   83POPC   GL2 1361   2.052   5.576   7.687
   83POPC   C1A 1362   1.809   6.014   7.518
   83POPC   D2A 1363   2.039   6.046   7.121
   83POPC   C3A 1364   1.968   5.930   6.735
   83POPC   C4A 1365   1.729   6.013   6.411
   83POPC   C1B 1366   1.693   5.524   7.384
   83POPC   C2B 1367   1.606   5.618   6.921
   83POPC   C3B 1368   1.815   5.506   6.492
   83POPC   C4B 1369   2.214   5.460   6.239
   84POPC   NC3 1370   7.513   5.225   8.018
   84POPC   PO4 1371   7.547   5.871   7.954
   84POPC   GL1 1372   7.793   5.509   7.657
   84POPC   GL2 1373   7.817   5.100   7.633
   84POPC   C1A 1374   7.753   5.346   7.196
   84POPC   D2A 1375   7.697   5.243   6.740
   84POPC   C3A 1376   7.628   5.554   6.421
   84POPC   C4A 1377   7.574   5.517   5.946
   84POPC   C1B 1378   7.641   4.834   7.311
   84POPC   C2B 1379   7.594   4.664   6.905
   84POPC   C3B 1380   7.474   4.844   6.522
   84POPC   C4B 1381   7.726   5.092   6.222
   85POPC   NC3 1382   1.276   6.653   8.309
   85POPC   PO4 1383   0.758   7.079   8.334
   85POPC   GL1 1384   0.957   7.019   7.838
   85POPC   GL2 1385   1.240   6.746   7.804
   85POPC   C1A 1386   1.127   6.980   7.382
   85POPC   D2A 1387   1.257   6.680   7.040
   85POPC   C3A 1388   1.290   6.778   6.592
   85POPC   C4A 1389   1.134   6.604   6.192
   85POPC   C1B 1390   1.568   6.569   7.563
   85POPC   C2B 1391   1.663   6.402   7.172
   85POPC   C3B 1392   1.654   6.424   6.730
   85POPC   C4B 1393   1.618   6.510   6.298
   86POPC   NC3 1394   0.318   8.730   8.081
   86POPC   PO4 1395   0.309   9.345   8.106
   86POPC   GL1 1396   0.718   9.183   7.900
   86POPC   GL2 1397   0.687   8.834   7.744
   86POPC   C1A 1398   0.785   9.244   7.447
   86POPC   D2A 1399   0.488   9.304   7.081
   86POPC   C3A 1400   0.428   9.155   6.659
   86POPC   C4A 1401   0.536   9.048   6.236
   86POPC   C1B 1402   0.526   8.823   7.297
   86POPC   C2B 1403   0.241   8.756   6.934
   86POPC   C3B 1404   0.263   8.694   6.477
   86POPC   C4B 1405   0.447   8.566   6.098
   87POPC   NC3 1406   0.471   7.427   8.231
   87POPC   PO4 1407   9.933   7.022   8.236
   87POPC   GL1 1408   0.109   7.185   7.847
   87POPC   GL2 1409   0.046   7.532   7.782
   87POPC   C1A 1410   0.174   6.970   7.422
   87POPC   D2A 1411   0.107   6.868   6.972
   87POPC   C3A 1412   0.329   6.988   6.580
   87POPC   C4A 1413   0.420   7.251   6.226
   87POPC   C1B 1414   0.367   7.434   7.428
   87POPC   C2B 1415   0.430   7.337   6.966
   87POPC   C3B 1416   0.516   7.596   6.580
   87POPC   C4B 1417   0.837   7.747   6.293
   88POPC   NC3 1418   8.234   0.268   7.983
   88POPC   PO4 1419   7.656   0.619   8.145
   88POPC   GL1 1420   7.834   0.759   7.733
   88POPC   GL2 1421   8.183   0.670   7.667
   88POPC   C1A 1422   7.808   0.552   7.351
   88POPC   D2A 1423   8.064   0.578   6.971
   88POPC   C3A 1424   7.913   0.407   6.605
   88POPC   C4A 1425   7.726   0.510   6.207
   88POPC   C1B 1426   8.272   0.323   7.355
   88POPC   C2B 1427   8.211   0.062   6.967
   88POPC   C3B 1428   8.344   0.092   6.544
   88POPC   C4B 1429   8.226   0.374   6.200
   89POPC   NC3 1430   5.046   1.024   8.116
   89POPC   PO4 1431   5.440   1.558   8.209
   89POPC   GL1 1432   5.389   1.491   7.739
   89POPC   GL2 1433   5.079   1.368   7.754
   89POPC   C1A 1434   5.166   1.474   7.270
   89POPC   D2A 1435   4.768   1.435   6.981
   89POPC   C3A 1436   4.892   1.544   6.556
   89POPC   C4A 1437   5.331   1.443   6.413
   89POPC   C1B 1438   5.112   0.995   7.482
   89POPC   C2B 1439   4.920   0.961   7.116
   89POPC   C3B 1440   5.050   1.085   6.715
   89POPC   C4B 1441   5.099   1.011   6.285
   90POPC   NC3 1442   5.316   7.909   8.147
   90POPC   PO4 1443   4.869   8.416   8.275
   90POPC   GL1 1444   4.781   8.241   7.859
   90POPC   GL2 1445   5.130   8.239   7.787
   90POPC   C1A 1446   4.831   8.331   7.398
   90POPC   D2A 1447   5.104   8.326   7.030
   90POPC   C3A 1448   4.943   8.538   6.694
   90POPC   C4A 1449   4.652   8.400   6.378
   90POPC   C1B 1450   5.226   7.972   7.420
   90POPC   C2B 1451   5.078   7.813   7.011
   90POPC   C3B 1452   4.910   7.991   6.655
   90POPC   C4B 1453   5.195   8.191   6.425
   91POPC   NC3 1454   9.671   7.444   8.271
   91POPC   PO4 1455   9.230   7.033   8.122
   91POPC   GL1 1456   9.545   7.200   7.847
   91POPC   GL2 1457   9.507   7.539   7.803
   91POPC   C1A 1458   9.712   7.209   7.431
   91POPC   D2A 1459   9.593   6.959   7.060
   91POPC   C3A 1460   9.581   7.170   6.670
   91POPC   C4A 1461   9.854   7.117   6.297
   91POPC   C1B 1462   9.732   7.740   7.428
   91POPC   C2B 1463   9.977   7.576   7.086
   91POPC   C3B 1464   0.015   7.448   6.649
   91POPC   C4B 1465   9.686   7.598   6.340
   92POPC   NC3 1466   7.908   1.822   7.902
   92POPC   PO4 1467   7.670   2.423   7.947
   92POPC   GL1 1468   8.036   2.368   7.631
   92POPC   GL2 1469   8.416   2.243   7.532
   92POPC   C1A 1470   8.039   2.221   7.197
   92POPC   D2A 1471   7.844   1.964   6.902
   92POPC   C3A 1472   7.745   2.168   6.529
   92POPC   C4A 1473   7.691   2.001   6.142
   92POPC   C1B 1474   8.513   2.008   7.109
   92POPC   C2B 1475   8.314   1.686   6.811
   92POPC   C3B 1476   8.063   1.780   6.456
   92POPC   C4B 1477   8.253   2.121   6.242
   93POPC   NC3 1478   1.260   8.032   8.125
   93POPC   PO4 1479   0.706   8.485   8.136
   93POPC   GL1 1480   0.914   8.227   7.753
   93POPC   GL2 1481   1.042   7.851   7.705
   93POPC   C1A 1482   1.018   8.119   7.287
   93POPC   D2A 1483   0.887   8.033   6.859
   93POPC   C3A 1484   1.042   8.313   6.557
   93POPC   C4A 1485   1.327   8.249   6.248
   93POPC   C1B 1486   1.426   7.803   7.423
   93POPC   C2B 1487   1.409   7.736   6.956
   93POPC   C3B 1488   1.335   7.774   6.490
   93POPC   C4B 1489   1.626   7.858   6.120
   94POPC   NC3 1490   0.789   2.113   8.196
   94POPC   PO4 1491   1.377   1.796   8.249
   94POPC   GL1 1492   1.129   1.889   7.868
   94POPC   GL2 1493   1.155   2.259   7.831
   94POPC   C1A 1494   1.054   1.825   7.397
   94POPC   D2A 1495   0.926   1.716   6.946
   94POPC   C3A 1496   1.134   1.820   6.527
   94POPC   C4A 1497   1.036   2.002   6.082
   94POPC   C1B 1498   1.159   2.339   7.382
   94POPC   C2B 1499   1.126   2.193   6.941
   94POPC   C3B 1500   1.080   2.314   6.510
   94POPC   C4B 1501   1.417   2.352   6.178
   95POPC   NC3 1502   8.310   3.873   8.130
   95POPC   PO4 1503   8.065   3.241   8.096
   95POPC   GL1 1504   8.059   3.555   7.781
   95POPC   GL2 1505   8.414   3.607   7.722
   95POPC   C1A 1506   8.079   3.673   7.346
   95POPC   D2A 1507   7.891   3.490   7.001
   95POPC   C3A 1508   8.015   3.679   6.637
   95POPC   C4A 1509   7.748   3.865   6.397
   95POPC   C1B 1510   8.598   3.511   7.339
   95POPC   C2B 1511   8.410   3.512   6.953
   95POPC   C3B 1512   8.364   3.325   6.573
   95POPC   C4B 1513   8.312   3.350   6.147
   96POPC   NC3 1514   8.205   8.866   8.171
   96POPC   PO4 1515   7.900   8.256   7.919
   96POPC   GL1 1516   7.964   8.563   7.589
   96POPC   GL2 1517   8.011   8.900   7.703
   96POPC   C1A 1518   7.807   8.586   7.175
   96POPC   D2A 1519   7.935   8.329   6.833
   96POPC   C3A 1520   7.952   8.502   6.417
   96POPC   C4A 1521   7.654   8.679   6.105
   96POPC   C1B 1522   8.172   8.947   7.300
   96POPC   C2B 1523   8.229   8.752   6.896
   96POPC   C3B 1524   8.232   9.022   6.553
   96POPC   C4B 1525   8.048   8.965   6.181
   97POPC   NC3 1526   3.408   8.174   8.275
   97POPC   PO4 1527   3.343   7.567   8.400
   97POPC   GL1 1528   3.621   7.835   7.966
   97POPC   GL2 1529   3.528   8.197   7.801
   97POPC   C1A 1530   3.834   7.901   7.532
   97POPC   D2A 1531   3.691   7.951   7.110
   97POPC   C3A 1532   3.845   8.068   6.719
   97POPC   C4A 1533   3.668   8.045   6.326
   97POPC   C1B 1534   3.342   8.059   7.440
   97POPC   C2B 1535   3.204   8.027   7.012
   97POPC   C3B 1536   3.289   8.204   6.623
   97POPC   C4B 1537   3.261   8.344   6.199
   98POPC   NC3 1538   2.307   9.640   8.072
   98POPC   PO4 1539   2.940   9.948   8.167
   98POPC   GL1 1540   2.958   9.584   7.831
   98POPC   GL2 1541   2.618   9.520   7.685
   98POPC   C1A 1542   3.104   9.606   7.393
   98POPC   D2A 1543   2.838   9.630   7.001
   98POPC   C3A 1544   2.811   9.809   6.584
   98POPC   C4A 1545   2.474   9.901   6.275
   98POPC   C1B 1546   2.736   9.243   7.358
   98POPC   C2B 1547   2.915   9.120   6.966
   98POPC   C3B 1548   2.921   9.311   6.572
   98POPC   C4B 1549   2.610   9.413   6.257
   99POPC   NC3 1550   3.283   9.625   8.223
   99POPC   PO4 1551   3.950   9.349   8.189
   99POPC   GL1 1552   3.765   9.671   7.925
   99POPC   GL2 1553   3.495   9.479   7.780
   99POPC   C1A 1554   3.618   9.937   7.532
   99POPC   D2A 1555   3.416   9.937   7.093
   99POPC   C3A 1556   3.659   0.064   6.702
   99POPC   C4A 1557   3.564   0.222   6.274
   99POPC   C1B 1558   3.608   9.444   7.346
   99POPC   C2B 1559   3.349   9.427   6.969
   99POPC   C3B 1560   3.305   9.671   6.608
   99POPC   C4B 1561   3.553   9.723   6.246
  100POPC   NC3 1562   8.891   4.453   8.090
  100POPC   PO4 1563   9.472   4.535   8.409
  100POPC   GL1 1564   9.340   4.239   7.929
  100POPC   GL2 1565   9.008   4.239   7.662
  100POPC   C1A 1566   9.426   4.211   7.412
  100POPC   D2A 1567   9.257   4.098   6.977
  100POPC   C3A 1568   9.089   4.241   6.568
  100POPC   C4A 1569   9.121   4.330   6.114
  100POPC   C1B 1570   8.725   4.028   7.353
  100POPC   C2B 1571   8.791   3.850   6.958
  100POPC   C3B 1572   8.603   3.939   6.561
  100POPC   C4B 1573   8.619   4.089   6.132
  101POPC   NC3 1574   7.557   1.515   8.229
  101POPC   PO4 1575   7.168   2.019   8.383
  101POPC   GL1 1576   7.277   1.845   7.925
  101POPC   GL2 1577   7.276   2.163   7.742
  101POPC   C1A 1578   7.238   1.781   7.410
  101POPC   D2A 1579   7.094   1.714   6.932
  101POPC   C3A 1580   7.396   1.730   6.543
  101POPC   C4A 1581   7.288   1.626   6.098
  101POPC   C1B 1582   7.502   2.237   7.316
  101POPC   C2B 1583   7.359   2.171   6.867
  101POPC   C3B 1584   7.244   2.214   6.414
  101POPC   C4B 1585   7.211   2.576   6.158
  102POPC   NC3 1586   1.145   0.618   8.132
  102POPC   PO4 1587   0.954   0.025   8.086
  102POPC   GL1 1588   1.089   0.273   7.739
  102POPC   GL2 1589   0.902   0.583   7.678
  102POPC   C1A 1590   1.225   0.349   7.313
  102POPC   D2A 1591   1.100   0.381   6.887
  102POPC   C3A 1592   1.376   0.295   6.552
  102POPC   C4A 1593   1.325   0.094   6.167
  102POPC   C1B 1594   0.810   0.883   7.349
  102POPC   C2B 1595   0.756   0.741   6.939
  102POPC   C3B 1596   0.977   0.811   6.601
  102POPC   C4B 1597   0.896   0.836   6.188
  103POPC   NC3 1598   1.787   2.061   8.246
  103POPC   PO4 1599   2.284   1.627   8.171
  103POPC   GL1 1600   2.308   1.940   7.791
  103POPC   GL2 1601   2.065   2.220   7.774
  103POPC   C1A 1602   2.244   2.053   7.329
  103POPC   D2A 1603   2.027   2.045   6.924
  103POPC   C3A 1604   2.307   2.074   6.592
  103POPC   C4A 1605   2.365   1.889   6.198
  103POPC   C1B 1606   1.660   2.274   7.556
  103POPC   C2B 1607   1.602   2.302   7.100
  103POPC   C3B 1608   1.596   2.217   6.646
  103POPC   C4B 1609   1.885   2.097   6.285
  104POPC   NC3 1610   7.770   8.037   8.312
  104POPC   PO4 1611   7.219   8.467   8.177
  104POPC   GL1 1612   7.327   8.161   7.835
  104POPC   GL2 1613   7.507   8.336   7.552
  104POPC   C1A 1614   7.351   7.873   7.458
  104POPC   D2A 1615   7.525   8.034   7.050
  104POPC   C3A 1616   7.338   7.902   6.623
  104POPC   C4A 1617   7.298   7.846   6.175
  104POPC   C1B 1618   7.092   8.298   7.365
  104POPC   C2B 1619   7.083   8.237   6.925
  104POPC   C3B 1620   7.453   8.386   6.647
  104POPC   C4B 1621   7.219   8.342   6.291
  105POPC   NC3 1622   3.066   7.231   8.234
  105POPC   PO4 1623   3.116   7.909   8.027
  105POPC   GL1 1624   2.806   7.606   7.762
  105POPC   GL2 1625   2.742   7.253   7.837
  105POPC   C1A 1626   2.612   7.577   7.342
  105POPC   D2A 1627   2.399   7.561   6.942
  105POPC   C3A 1628   2.697   7.618   6.610
  105POPC   C4A 1629   2.619   7.529   6.196
  105POPC   C1B 1630   2.821   7.116   7.413
  105POPC   C2B 1631   2.703   7.143   6.967
  105POPC   C3B 1632   2.801   7.147   6.515
  105POPC   C4B 1633   3.097   7.321   6.200
  106POPC   NC3 1634   3.142   5.430   8.004
  106POPC   PO4 1635   2.824   5.921   7.988
  106POPC   GL1 1636   2.643   5.882   7.562
  106POPC   GL2 1637   2.332   6.015   7.580
  106POPC   C1A 1638   2.392   5.676   7.191
  106POPC   D2A 1639   2.339   5.585   6.725
  106POPC   C3A 1640   2.652   5.687   6.440
  106POPC   C4A 1641   3.042   5.417   6.369
  106POPC   C1B 1642   2.504   6.219   7.203
  106POPC   C2B 1643   2.467   6.097   6.787
  106POPC   C3B 1644   2.613   6.254   6.394
  106POPC   C4B 1645   2.919   6.033   6.168
  107POPC   NC3 1646   0.524   4.499   8.102
  107POPC   PO4 1647   0.225   3.906   8.162
  107POPC   GL1 1648   0.527   4.066   7.823
  107POPC   GL2 1649   0.340   4.278   7.662
  107POPC   C1A 1650   0.693   4.033   7.354
  107POPC   D2A 1651   0.819   3.915   6.966
  107POPC   C3A 1652   0.666   4.112   6.614
  107POPC   C4A 1653   0.417   4.020   6.262
  107POPC   C1B 1654   0.387   4.430   7.267
  107POPC   C2B 1655   0.398   4.478   6.845
  107POPC   C3B 1656   0.366   4.588   6.438
  107POPC   C4B 1657   0.034   4.581   6.148
  108POPC   NC3 1658   7.130   7.309   8.154
  108POPC   PO4 1659   7.737   7.557   8.193
  108POPC   GL1 1660   7.650   7.601   7.764
  108POPC   GL2 1661   7.550   7.301   7.700
  108POPC   C1A 1662   7.770   7.599   7.313
  108POPC   D2A 1663   7.517   7.536   6.915
  108POPC   C3A 1664   7.629   7.479   6.470
  108POPC   C4A 1665   7.666   7.507   6.001
  108POPC   C1B 1666   7.460   7.192   7.274
  108POPC   C2B 1667   7.458   7.030   6.851
  108POPC   C3B 1668   7.225   7.001   6.479
  108POPC   C4B 1669   7.099   7.135   6.081
  109POPC   NC3 1670   6.587   9.591   8.289
  109POPC   PO4 1671   6.246   9.866   7.788
  109POPC   GL1 1672   6.599   9.914   7.553
  109POPC   GL2 1673   6.712   9.617   7.743
  109POPC   C1A 1674   6.531   9.931   7.107
  109POPC   D2A 1675   6.605   0.095   6.735
  109POPC   C3A 1676   6.480   9.829   6.431
  109POPC   C4A 1677   6.302   9.807   6.014
  109POPC   C1B 1678   6.667   9.489   7.287
  109POPC   C2B 1679   6.819   9.594   6.839
  109POPC   C3B 1680   6.842   9.485   6.372
  109POPC   C4B 1681   6.436   9.355   6.199
  110POPC   NC3 1682   3.862   3.000   8.010
  110POPC   PO4 1683   4.412   2.731   8.191
  110POPC   GL1 1684   4.227   2.678   7.771
  110POPC   GL2 1685   4.007   2.428   7.669
  110POPC   C1A 1686   4.380   2.504   7.340
  110POPC   D2A 1687   4.353   2.297   6.910
  110POPC   C3A 1688   4.357   2.539   6.480
  110POPC   C4A 1689   4.581   2.804   6.133
  110POPC   C1B 1690   3.885   2.568   7.216
  110POPC   C2B 1691   3.896   2.613   6.721
  110POPC   C3B 1692   3.986   2.891   6.320
  110POPC   C4B 1693   3.866   3.336   6.110
  111POPC   NC3 1694   1.575   9.638   8.123
  111POPC   PO4 1695   2.183   9.197   8.118
  111POPC   GL1 1696   1.911   9.450   7.785
  111POPC   GL2 1697   2.092   9.755   7.623
  111POPC   C1A 1698   1.709   9.573   7.359
  111POPC   D2A 1699   1.847   9.774   6.940
  111POPC   C3A 1700   1.601   9.835   6.528
  111POPC   C4A 1701   1.731   9.826   6.041
  111POPC   C1B 1702   2.355   9.776   7.234
  111POPC   C2B 1703   2.334   9.805   6.775
  111POPC   C3B 1704   2.063   9.671   6.416
  111POPC   C4B 1705   2.166   9.516   5.992
  112POPC   NC3 1706   9.511   8.172   8.276
  112POPC   PO4 1707   0.047   7.745   8.265
  112POPC   GL1 1708   9.933   8.033   7.898
  112POPC   GL2 1709   9.588   8.032   7.812
  112POPC   C1A 1710   9.888   8.282   7.490
  112POPC   D2A 1711   9.872   8.127   7.056
  112POPC   C3A 1712   9.927   8.385   6.665
  112POPC   C4A 1713   9.897   8.218   6.230
  112POPC   C1B 1714   9.345   8.119   7.452
  112POPC   C2B 1715   9.354   8.243   7.033
  112POPC   C3B 1716   9.498   8.122   6.624
  112POPC   C4B 1717   9.350   8.161   6.203
  113POPC   NC3 1718   0.036   9.683   7.975
  113POPC   PO4 1719   0.444   0.037   8.377
  113POPC   GL1 1720   0.467   9.933   7.842
  113POPC   GL2 1721   0.484   9.604   7.700
  113POPC   C1A 1722   0.755   9.969   7.454
  113POPC   D2A 1723   0.875   9.678   7.113
  113POPC   C3A 1724   0.646   9.626   6.708
  113POPC   C4A 1725   0.462   9.562   6.292
  113POPC   C1B 1726   0.180   9.588   7.355
  113POPC   C2B 1727   0.205   9.740   6.934
  113POPC   C3B 1728   0.039   9.495   6.611
  113POPC   C4B 1729   0.076   9.222   6.240
  114POPC   NC3 1730   3.651   8.966   8.204
  114POPC   PO4 1731   3.125   8.540   8.314
  114POPC   GL1 1732   3.322   8.667   7.892
  114POPC   GL2 1733   3.434   8.972   7.743
  114POPC   C1A 1734   3.367   8.571   7.415
  114POPC   D2A 1735   3.559   8.427   7.000
  114POPC   C3A 1736   3.628   8.587   6.532
  114POPC   C4A 1737   3.477   8.800   6.134
  114POPC   C1B 1738   3.254   9.091   7.366
  114POPC   C2B 1739   3.368   8.903   6.962
  114POPC   C3B 1740   3.399   9.098   6.556
  114POPC   C4B 1741   3.714   9.244   6.290
  115POPC   NC3 1742   3.407   2.673   8.339
  115POPC   PO4 1743   3.470   3.259   8.083
  115POPC   GL1 1744   3.329   2.848   7.856
  115POPC   GL2 1745   3.574   2.714   7.615
  115POPC   C1A 1746   3.075   2.720   7.466
  115POPC   D2A 1747   2.879   2.606   7.042
  115POPC   C3A 1748   3.039   2.552   6.603
  115POPC   C4A 1749   3.182   2.588   6.178
  115POPC   C1B 1750   3.454   2.865   7.153
  115POPC   C2B 1751   3.435   2.861   6.661
  115POPC   C3B 1752   3.499   2.991   6.203
  115POPC   C4B 1753   3.657   2.993   5.769
  116POPC   NC3 1754   3.208   3.634   8.080
  116POPC   PO4 1755   2.691   4.091   8.081
  116POPC   GL1 1756   2.789   3.718   7.794
  116POPC   GL2 1757   2.749   3.363   7.879
  116POPC   C1A 1758   2.936   3.416   7.422
  116POPC   D2A 1759   2.975   3.162   7.036
  116POPC   C3A 1760   2.951   3.446   6.629
  116POPC   C4A 1761   3.103   3.596   6.191
  116POPC   C1B 1762   2.433   3.470   7.529
  116POPC   C2B 1763   2.501   3.438   7.074
  116POPC   C3B 1764   2.419   3.435   6.618
  116POPC   C4B 1765   2.550   3.266   6.216
  117POPC   NC3 1766   5.692   1.968   8.133
  117POPC   PO4 1767   6.248   1.524   8.144
  117POPC   GL1 1768   5.902   1.591   7.826
  117POPC   GL2 1769   6.005   1.942   7.725
  117POPC   C1A 1770   5.717   1.659   7.366
  117POPC   D2A 1771   5.824   1.814   6.913
  117POPC   C3A 1772   5.710   1.749   6.497
  117POPC   C4A 1773   5.829   1.726   6.068
  117POPC   C1B 1774   6.009   2.081   7.298
  117POPC   C2B 1775   6.069   2.256   6.876
  117POPC   C3B 1776   5.936   2.215   6.452
  117POPC   C4B 1777   5.604   2.165   6.192
  118POPC   NC3 1778   2.701   2.807   8.325
  118POPC   PO4 1779   2.146   2.400   8.233
  118POPC   GL1 1780   2.530   2.433   7.916
  118POPC   GL2 1781   2.704   2.757   7.825
  118POPC   C1A 1782   2.548   2.461   7.432
  118POPC   D2A 1783   2.339   2.451   6.992
  118POPC   C3A 1784   2.537   2.528   6.606
  118POPC   C4A 1785   2.670   2.731   6.200
  118POPC   C1B 1786   2.624   2.983   7.433
  118POPC   C2B 1787   2.498   2.936   6.999
  118POPC   C3B 1788   2.739   2.990   6.623
  118POPC   C4B 1789   3.018   3.087   6.261
  119POPC   NC3 1790   2.741   1.095   8.064
  119POPC   PO4 1791   3.118   1.654   8.109
  119POPC   GL1 1792   2.920   1.443   7.734
  119POPC   GL2 1793   2.515   1.396   7.723
  119POPC   C1A 1794   2.962   1.414   7.276
  119POPC   D2A 1795   2.989   1.618   6.882
  119POPC   C3A 1796   2.959   1.318   6.553
  119POPC   C4A 1797   2.879   1.043   6.208
  119POPC   C1B 1798   2.628   1.061   7.409
  119POPC   C2B 1799   2.623   1.152   6.937
  119POPC   C3B 1800   2.442   1.124   6.509
  119POPC   C4B 1801   2.394   1.385   6.149
  120POPC   NC3 1802   1.504   5.622   8.302
  120POPC   PO4 1803   1.220   6.194   8.256
  120POPC   GL1 1804   1.273   6.224   7.820
  120POPC   GL2 1805   1.361   5.886   7.703
  120POPC   C1A 1806   1.182   6.277   7.365
  120POPC   D2A 1807   1.337   6.088   6.935
  120POPC   C3A 1808   1.224   6.211   6.519
  120POPC   C4A 1809   1.356   6.110   6.098
  120POPC   C1B 1810   1.178   5.780   7.293
  120POPC   C2B 1811   1.106   5.630   6.851
  120POPC   C3B 1812   1.316   5.687   6.469
  120POPC   C4B 1813   0.966   5.799   6.270
  121POPC   NC3 1814   4.521   7.307   8.221
  121POPC   PO4 1815   5.144   7.469   8.108
  121POPC   GL1 1816   4.939   7.747   7.813
  121POPC   GL2 1817   4.603   7.720   7.885
  121POPC   C1A 1818   4.734   7.821   7.378
  121POPC   D2A 1819   4.597   7.634   6.941
  121POPC   C3A 1820   4.657   7.573   6.478
  121POPC   C4A 1821   4.693   7.441   6.030
  121POPC   C1B 1822   4.282   7.640   7.525
  121POPC   C2B 1823   4.161   7.811   7.098
  121POPC   C3B 1824   4.066   7.594   6.687
  121POPC   C4B 1825   3.937   7.201   6.430
  122POPC   NC3 1826   1.675   6.295   8.167
  122POPC   PO4 1827   2.208   5.949   8.065
  122POPC   GL1 1828   2.104   6.385   7.855
  122POPC   GL2 1829   2.025   6.781   7.784
  122POPC   C1A 1830   2.098   6.442   7.423
  122POPC   D2A 1831   2.099   6.567   6.968
  122POPC   C3A 1832   2.119   6.378   6.553
  122POPC   C4A 1833   2.222   6.494   6.158
  122POPC   C1B 1834   1.884   6.894   7.333
  122POPC   C2B 1835   1.718   6.905   6.895
  122POPC   C3B 1836   1.923   6.873   6.468
  122POPC   C4B 1837   1.877   6.803   5.971
  123POPC   NC3 1838   4.397   8.299   8.203
  123POPC   PO4 1839   4.219   7.656   8.249
  123POPC   GL1 1840   4.167   7.970   7.893
  123POPC   GL2 1841   4.032   8.277   7.842
  123POPC   C1A 1842   4.342   8.148   7.460
  123POPC   D2A 1843   4.554   8.156   7.007
  123POPC   C3A 1844   4.383   7.993   6.606
  123POPC   C4A 1845   4.519   7.961   6.153
  123POPC   C1B 1846   3.864   8.406   7.447
  123POPC   C2B 1847   4.071   8.357   7.082
  123POPC   C3B 1848   4.200   8.467   6.697
  123POPC   C4B 1849   4.099   8.327   6.332
  124POPC   NC3 1850   0.619   0.342   8.063
  124POPC   PO4 1851   9.981   0.128   8.064
  124POPC   GL1 1852   0.177   0.339   7.716
  124POPC   GL2 1853   0.384   0.668   7.711
  124POPC   C1A 1854   0.275   0.086   7.351
  124POPC   D2A 1855   0.585   0.129   6.979
  124POPC   C3A 1856   0.413   0.073   6.565
  124POPC   C4A 1857   0.038   9.941   6.348
  124POPC   C1B 1858   0.454   0.542   7.295
  124POPC   C2B 1859   0.277   0.624   6.874
  124POPC   C3B 1860   0.496   0.584   6.479
  124POPC   C4B 1861   0.878   0.348   6.397
  125POPC   NC3 1862   5.928   1.186   8.200
  125POPC   PO4 1863   5.407   0.713   8.185
  125POPC   GL1 1864   5.522   1.014   7.829
  125POPC   GL2 1865   5.871   1.058   7.722
  125POPC   C1A 1866   5.575   1.171   7.346
  125POPC   D2A 1867   5.569   1.334   6.907
  125POPC   C3A 1868   5.544   0.991   6.606
  125POPC   C4A 1869   5.533   0.785   6.210
  125POPC   C1B 1870   6.108   1.318   7.416
  125POPC   C2B 1871   6.101   1.403   6.959
  125POPC   C3B 1872   6.141   1.469   6.509
  125POPC   C4B 1873   5.816   1.262   6.267
  126POPC   NC3 1874   4.298   0.780   8.233
  126POPC   PO4 1875   3.841   0.251   8.411
  126POPC   GL1 1876   4.137   0.246   7.992
  126POPC   GL2 1877   4.300   0.529   7.789
  126POPC   C1A 1878   4.105   0.161   7.511
  126POPC   D2A 1879   3.812   0.286   7.165
  126POPC   C3A 1880   4.056   0.439   6.815
  126POPC   C4A 1881   4.084   0.349   6.372
  126POPC   C1B 1882   4.484   0.622   7.368
  126POPC   C2B 1883   4.671   0.542   6.970
  126POPC   C3B 1884   4.564   0.298   6.630
  126POPC   C4B 1885   4.608   0.415   6.239
  127POPC   NC3 1886   9.757   4.951   8.044
  127POPC   PO4 1887   0.379   4.878   8.343
  127POPC   GL1 1888   0.195   5.140   7.884
  127POPC   GL2 1889   9.894   5.385   7.821
  127POPC   C1A 1890   9.979   4.986   7.442
  127POPC   D2A 1891   0.104   4.830   7.066
  127POPC   C3A 1892   9.914   4.846   6.654
  127POPC   C4A 1893   9.688   5.056   6.324
  127POPC   C1B 1894   9.570   5.260   7.475
  127POPC   C2B 1895   9.667   5.146   7.049
  127POPC   C3B 1896   9.392   5.083   6.724
  127POPC   C4B 1897   9.186   5.280   6.392
  128POPC   NC3 1898   9.721   9.920   8.386
  128POPC   PO4 1899   9.373   9.345   8.199
  128POPC   GL1 1900   9.581   9.488   7.858
  128POPC   GL2 1901   9.834   9.207   7.856
  128POPC   C1A 1902   9.674   9.724   7.456
  128POPC   D2A 1903   9.728   9.619   7.039
  128POPC   C3A 1904   9.658   9.902   6.697
  128POPC   C4A 1905   9.327   9.831   6.410
  128POPC   C1B 1906   9.576   9.131   7.477
  128POPC   C2B 1907   9.463   9.166   7.031
  128POPC   C3B 1908   9.501   9.399   6.636
  128POPC   C4B 1909   9.699   9.560   6.237
  129POPC   NC3 1910   2.656   7.998   8.022
  129POPC   PO4 1911   2.350   8.507   8.331
  129POPC   GL1 1912   2.679   8.532   7.812
  129POPC   GL2 1913   2.974   8.321   7.736
  129POPC   C1A 1914   2.569   8.397   7.279
  129POPC   D2A 1915   2.312   8.340   6.861
  129POPC   C3A 1916   2.421   8.431   6.413
  129POPC   C4A 1917   2.786   8.516   6.165
  129POPC   C1B 1918   2.847   8.012   7.402
  129POPC   C2B 1919   2.700   7.988   6.975
  129POPC   C3B 1920   2.793   8.130   6.572
  129POPC   C4B 1921   2.983   7.907   6.240
  130POPC   NC3 1922   9.036   9.700   7.969
  130POPC   PO4 1923   8.534   9.280   8.265
  130POPC   GL1 1924   8.752   9.280   7.858
  130POPC   GL2 1925   9.119   9.251   7.770
  130POPC   C1A 1926   8.736   9.321   7.405
  130POPC   D2A 1927   8.954   9.283   7.003
  130POPC   C3A 1928   8.695   9.254   6.629
  130POPC   C4A 1929   8.444   9.551   6.416
  130POPC   C1B 1930   9.233   9.495   7.374
  130POPC   C2B 1931   9.212   9.744   6.970
  130POPC   C3B 1932   8.890   9.737   6.632
  130POPC   C4B 1933   8.936   9.507   6.219
  131POPC   NC3 1934   8.754   2.846   8.120
  131POPC   PO4 1935   9.267   2.319   7.910
  131POPC   GL1 1936   9.110   2.504   7.559
  131POPC   GL2 1937   8.901   2.782   7.649
  131POPC   C1A 1938   8.817   2.517   7.237
  131POPC   D2A 1939   8.956   2.764   6.901
  131POPC   C3A 1940   9.059   2.602   6.513
  131POPC   C4A 1941   9.381   2.417   6.274
  131POPC   C1B 1942   8.691   3.003   7.331
  131POPC   C2B 1943   8.531   3.019   6.945
  131POPC   C3B 1944   8.559   2.854   6.554
  131POPC   C4B 1945   8.594   2.484   6.333
  132POPC   NC3 1946   2.725   8.755   8.260
  132POPC   PO4 1947   3.214   9.185   8.141
  132POPC   GL1 1948   2.919   9.020   7.798
  132POPC   GL2 1949   2.543   9.020   7.790
  132POPC   C1A 1950   2.895   8.755   7.397
  132POPC   D2A 1951   3.005   8.507   6.997
  132POPC   C3A 1952   3.086   8.690   6.566
  132POPC   C4A 1953   3.014   8.983   6.191
  132POPC   C1B 1954   2.399   8.850   7.370
  132POPC   C2B 1955   2.539   8.790   6.934
  132POPC   C3B 1956   2.617   8.894   6.503
  132POPC   C4B 1957   2.501   8.953   6.051
  133POPC   NC3 1958   2.819   0.398   8.165
  133POPC   PO4 1959   2.328   0.846   8.080
  133POPC   GL1 1960   2.462   0.583   7.789
  133POPC   GL2 1961   2.820   0.641   7.687
  133POPC   C1A 1962   2.410   0.569   7.361
  133POPC   D2A 1963   2.746   0.682   7.082
  133POPC   C3A 1964   2.738   0.718   6.638
  133POPC   C4A 1965   2.510   0.683   6.249
  133POPC   C1B 1966   2.833   0.267   7.363
  133POPC   C2B 1967   2.707   0.211   6.881
  133POPC   C3B 1968   2.764   0.275   6.383
  133POPC   C4B 1969   2.992   0.160   5.970
  134POPC   NC3 1970   5.819   3.058   8.300
  134POPC   PO4 1971   5.820   2.426   8.091
  134POPC   GL1 1972   5.818   2.663   7.698
  134POPC   GL2 1973   6.119   2.500   7.537
  134POPC   C1A 1974   5.985   2.949   7.377
  134POPC   D2A 1975   6.212   2.751   7.031
  134POPC   C3A 1976   6.167   3.024   6.712
  134POPC   C4A 1977   5.872   3.085   6.384
  134POPC   C1B 1978   5.775   2.527   7.183
  134POPC   C2B 1979   5.777   2.648   6.708
  134POPC   C3B 1980   5.509   2.671   6.318
  134POPC   C4B 1981   5.158   2.785   6.007
  135POPC   NC3 1982   8.626   5.416   8.052
  135POPC   PO4 1983   7.964   5.309   8.103
  135POPC   GL1 1984   8.278   5.227   7.752
  135POPC   GL2 1985   8.348   4.866   7.654
  135POPC   C1A 1986   8.232   5.207   7.305
  135POPC   D2A 1987   8.085   5.001   6.947
  135POPC   C3A 1988   8.348   4.887   6.599
  135POPC   C4A 1989   8.236   5.022   6.196
  135POPC   C1B 1990   8.110   4.660   7.334
  135POPC   C2B 1991   8.077   4.502   6.884
  135POPC   C3B 1992   7.932   4.650   6.432
  135POPC   C4B 1993   7.900   4.718   5.937
  136POPC   NC3 1994   6.824   8.235   8.055
  136POPC   PO4 1995   6.736   7.599   8.062
  136POPC   GL1 1996   6.838   7.882   7.669
  136POPC   GL2 1997   6.608   8.198   7.593
  136POPC   C1A 1998   6.762   7.913   7.211
  136POPC   D2A 1999   6.836   7.758   6.804
  136POPC   C3A 2000   6.848   8.004   6.446
  136POPC   C4A 2001   6.492   8.043   6.167
  136POPC   C1B 2002   6.233   8.110   7.286
  136POPC   C2B 2003   6.019   8.198   6.867
  136POPC   C3B 2004   6.163   8.316   6.452
  136POPC   C4B 2005   6.589   8.458   6.492
  137POPC   NC3 2006   8.885   0.413   8.146
  137POPC   PO4 2007   9.418   9.969   8.036
  137POPC   GL1 2008   9.148   0.216   7.716
  137POPC   GL2 2009   8.786   0.366   7.659
  137POPC   C1A 2010   9.251   0.277   7.263
  137POPC   D2A 2011   9.065   0.463   6.878
  137POPC   C3A 2012   9.060   0.261   6.468
  137POPC   C4A 2013   9.223   0.126   6.034
  137POPC   C1B 2014   8.749   0.222   7.234
  137POPC   C2B 2015   8.554   0.442   6.894
  137POPC   C3B 2016   8.613   0.546   6.475
  137POPC   C4B 2017   8.746   0.453   6.045
  138POPC   NC3 2018   5.556   7.288   8.116
  138POPC   PO4 2019   6.098   7.193   8.356
  138POPC   GL1 2020   5.939   7.379   7.822
  138POPC   GL2 2021   6.040   7.716   7.755
  138POPC   C1A 2022   6.131   7.460   7.345
  138POPC   D2A 2023   5.999   7.693   6.970
  138POPC   C3A 2024   5.887   7.401   6.623
  138POPC   C4A 2025   6.153   7.182   6.303
  138POPC   C1B 2026   5.650   7.601   7.455
  138POPC   C2B 2027   5.511   7.534   6.995
  138POPC   C3B 2028   5.390   7.627   6.524
  138POPC   C4B 2029   5.394   7.442   6.083
  139POPC   NC3 2030   0.400   3.537   8.414
  139POPC   PO4 2031   0.988   3.667   8.104
  139POPC   GL1 2032   0.846   3.416   7.765
  139POPC   GL2 2033   0.606   3.622   7.614
  139POPC   C1A 2034   0.699   3.200   7.403
  139POPC   D2A 2035   0.527   3.485   7.085
  139POPC   C3A 2036   0.758   3.495   6.698
  139POPC   C4A 2037   0.663   3.559   6.285
  139POPC   C1B 2038   0.237   3.831   7.377
  139POPC   C2B 2039   0.278   3.993   6.978
  139POPC   C3B 2040   0.281   3.708   6.651
  139POPC   C4B 2041   0.186   3.398   6.335
  140POPC   NC3 2042   8.738   8.286   8.281
  140POPC   PO4 2043   9.252   7.754   8.245
  140POPC   GL1 2044   9.074   7.873   7.836
  140POPC   GL2 2045   9.091   8.236   7.890
  140POPC   C1A 2046   8.819   7.938   7.415
  140POPC   D2A 2047   8.932   7.899   6.959
  140POPC   C3A 2048   8.729   7.919   6.559
  140POPC   C4A 2049   8.852   7.988   6.127
  140POPC   C1B 2050   8.909   8.439   7.515
  140POPC   C2B 2051   8.839   8.384   7.069
  140POPC   C3B 2052   9.021   8.340   6.648
  140POPC   C4B 2053   8.915   8.465   6.244
  141POPC   NC3 2054   6.898   3.396   8.071
  141POPC   PO4 2055   6.238   3.120   8.131
  141POPC   GL1 2056   6.390   3.060   7.674
  141POPC   GL2 2057   6.643   3.350   7.624
  141POPC   C1A 2058   6.408   3.183   7.203
  141POPC   D2A 2059   6.551   3.350   6.787
  141POPC   C3A 2060   6.290   3.410   6.405
  141POPC   C4A 2061   6.041   3.377   5.986
  141POPC   C1B 2062   6.771   3.557   7.205
  141POPC   C2B 2063   6.794   3.790   6.777
  141POPC   C3B 2064   6.616   3.876   6.332
  141POPC   C4B 2065   6.601   4.074   5.905
  142POPC   NC3 2066   1.445   3.757   8.261
  142POPC   PO4 2067   1.508   3.084   8.164
  142POPC   GL1 2068   1.356   3.301   7.786
  142POPC   GL2 2069   1.349   3.651   7.726
  142POPC   C1A 2070   1.199   3.143   7.392
  142POPC   D2A 2071   1.002   3.143   6.979
  142POPC   C3A 2072   1.203   3.209   6.580
  142POPC   C4A 2073   0.987   3.169   6.206
  142POPC   C1B 2074   1.086   3.630   7.328
  142POPC   C2B 2075   1.247   3.634   6.883
  142POPC   C3B 2076   1.137   3.733   6.438
  142POPC   C4B 2077   0.901   4.005   6.171
  143POPC   NC3 2078   8.781   1.258   8.084
  143POPC   PO4 2079   8.477   0.673   8.080
  143POPC   GL1 2080   8.644   0.902   7.726
  143POPC   GL2 2081   8.994   0.842   7.774
  143POPC   C1A 2082   8.685   1.177   7.350
  143POPC   D2A 2083   8.761   1.515   7.055
  143POPC   C3A 2084   8.690   1.355   6.623
  143POPC   C4A 2085   8.730   1.270   6.158
  143POPC   C1B 2086   8.941   0.721   7.319
  143POPC   C2B 2087   8.807   0.911   6.910
  143POPC   C3B 2088   8.939   0.927   6.476
  143POPC   C4B 2089   9.258   1.113   6.236
  144POPC   NC3 2090   1.928   3.824   3.848
  144POPC   PO4 2091   1.935   3.086   3.897
  144POPC   GL1 2092   2.004   3.400   4.180
  144POPC   GL2 2093   1.667   3.551   4.213
  144POPC   C1A 2094   2.306   3.419   4.529
  144POPC   D2A 2095   2.507   3.319   4.936
  144POPC   C3A 2096   2.343   3.236   5.370
  144POPC   C4A 2097   2.267   3.361   5.815
  144POPC   C1B 2098   1.840   3.518   4.667
  144POPC   C2B 2099   1.990   3.403   5.056
  144POPC   C3B 2100   1.895   3.465   5.497
  144POPC   C4B 2101   1.808   3.670   5.916
  145POPC   NC3 2102   2.511   2.087   4.064
  145POPC   PO4 2103   2.533   1.496   3.739
  145POPC   GL1 2104   2.419   1.566   4.181
  145POPC   GL2 2105   2.738   1.732   4.332
  145POPC   C1A 2106   2.365   1.691   4.639
  145POPC   D2A 2107   2.741   1.604   4.915
  145POPC   C3A 2108   2.718   1.603   5.373
  145POPC   C4A 2109   2.346   1.615   5.665
  145POPC   C1B 2110   2.955   1.993   4.646
  145POPC   C2B 2111   3.101   1.969   5.085
  145POPC   C3B 2112   2.930   2.073   5.466
  145POPC   C4B 2113   2.681   1.968   5.817
  146POPC   NC3 2114   7.343   7.046   3.818
  146POPC   PO4 2115   7.693   6.626   4.036
  146POPC   GL1 2116   7.425   6.706   4.361
  146POPC   GL2 2117   7.122   6.917   4.274
  146POPC   C1A 2118   7.487   6.630   4.814
  146POPC   D2A 2119   7.562   6.870   5.194
  146POPC   C3A 2120   7.460   6.635   5.536
  146POPC   C4A 2121   7.310   6.666   5.967
  146POPC   C1B 2122   7.018   6.833   4.722
  146POPC   C2B 2123   7.076   6.698   5.179
  146POPC   C3B 2124   6.988   6.438   5.587
  146POPC   C4B 2125   7.004   6.192   5.973
  147POPC   NC3 2126   5.665   9.241   4.051
  147POPC   PO4 2127   5.397   8.643   3.964
  147POPC   GL1 2128   5.690   8.779   4.298
  147POPC   GL2 2129   6.013   8.859   4.412
  147POPC   C1A 2130   5.675   8.910   4.755
  147POPC   D2A 2131   5.886   8.985   5.131
  147POPC   C3A 2132   5.687   8.776   5.464
  147POPC   C4A 2133   5.494   8.895   5.853
  147POPC   C1B 2134   6.113   8.623   4.730
  147POPC   C2B 2135   6.279   8.674   5.096
  147POPC   C3B 2136   6.278   8.728   5.506
  147POPC   C4B 2137   6.016   8.865   5.841
  148POPC   NC3 2138   0.973   5.109   3.836
  148POPC   PO4 2139   1.572   5.364   4.009
  148POPC   GL1 2140   1.153   5.303   4.272
  148POPC   GL2 2141   1.190   4.972   4.332
  148POPC   C1A 2142   0.912   5.200   4.707
  148POPC   D2A 2143   0.934   5.014   5.135
  148POPC   C3A 2144   1.025   5.172   5.584
  148POPC   C4A 2145   0.839   5.369   5.998
  148POPC   C1B 2146   1.380   5.054   4.765
  148POPC   C2B 2147   1.425   5.093   5.225
  148POPC   C3B 2148   1.533   5.051   5.668
  148POPC   C4B 2149   1.834   5.225   5.975
  149POPC   NC3 2150   6.517   8.129   3.916
  149POPC   PO4 2151   6.153   8.637   4.002
  149POPC   GL1 2152   6.328   8.329   4.367
  149POPC   GL2 2153   6.454   7.949   4.398
  149POPC   C1A 2154   6.494   8.249   4.817
  149POPC   D2A 2155   6.313   8.197   5.241
  149POPC   C3A 2156   6.472   8.214   5.634
  149POPC   C4A 2157   6.339   8.473   5.957
  149POPC   C1B 2158   6.805   7.868   4.742
  149POPC   C2B 2159   6.803   8.021   5.163
  149POPC   C3B 2160   6.856   7.874   5.586
  149POPC   C4B 2161   6.907   8.155   5.931
  150POPC   NC3 2162   9.076   2.430   3.966
  150POPC   PO4 2163   8.924   3.090   3.954
  150POPC   GL1 2164   8.980   3.057   4.356
  150POPC   GL2 2165   9.048   2.706   4.398
  150POPC   C1A 2166   8.772   3.222   4.698
  150POPC   D2A 2167   8.547   3.105   5.071
  150POPC   C3A 2168   8.769   3.064   5.466
  150POPC   C4A 2169   8.476   3.116   5.739
  150POPC   C1B 2170   9.152   2.889   4.807
  150POPC   C2B 2171   8.908   2.698   5.128
  150POPC   C3B 2172   8.923   2.526   5.552
  150POPC   C4B 2173   8.958   2.573   5.997
  151POPC   NC3 2174   8.095   2.237   3.960
  151POPC   PO4 2175   8.727   2.124   4.120
  151POPC   GL1 2176   8.506   1.826   4.381
  151POPC   GL2 2177   8.146   1.905   4.350
  151POPC   C1A 2178   8.449   1.778   4.816
  151POPC   D2A 2179   8.619   1.717   5.222
  151POPC   C3A 2180   8.271   1.760   5.518
  151POPC   C4A 2181   8.212   1.703   5.941
  151POPC   C1B 2182   8.066   2.216   4.664
  151POPC   C2B 2183   8.109   2.100   5.080
  151POPC   C3B 2184   8.202   2.251   5.434
  151POPC   C4B 2185   8.031   2.160   5.800
  152POPC   NC3 2186   8.779   4.143   3.990
  152POPC   PO4 2187   8.982   4.774   3.868
  152POPC   GL1 2188   9.046   4.503   4.265
  152POPC   GL2 2189   9.053   4.159   4.402
  152POPC   C1A 2190   9.265   4.510   4.690
  152POPC   D2A 2191   9.323   4.607   5.137
  152POPC   C3A 2192   8.964   4.467   5.401
  152POPC   C4A 2193   8.700   4.453   5.792
  152POPC   C1B 2194   8.924   4.086   4.845
  152POPC   C2B 2195   8.784   4.008   5.277
  152POPC   C3B 2196   8.934   4.009   5.693
  152POPC   C4B 2197   9.045   3.847   6.099
  153POPC   NC3 2198   7.332   7.781   4.186
  153POPC   PO4 2199   7.651   7.335   3.653
  153POPC   GL1 2200   7.561   7.214   4.227
  153POPC   GL2 2201   7.631   7.535   4.528
  153POPC   C1A 2202   7.444   7.113   4.664
  153POPC   D2A 2203   7.548   7.353   5.024
  153POPC   C3A 2204   7.244   7.263   5.322
  153POPC   C4A 2205   7.447   7.106   5.705
  153POPC   C1B 2206   7.294   7.734   4.804
  153POPC   C2B 2207   7.262   7.794   5.217
  153POPC   C3B 2208   7.537   7.632   5.506
  153POPC   C4B 2209   7.208   7.537   5.780
  154POPC   NC3 2210   1.142   3.483   3.789
  154POPC   PO4 2211   0.564   3.697   3.804
  154POPC   GL1 2212   0.867   3.722   4.188
  154POPC   GL2 2213   1.147   3.495   4.299
  154POPC   C1A 2214   0.859   3.682   4.676
  154POPC   D2A 2215   1.005   3.433   5.062
  154POPC   C3A 2216   0.914   3.634   5.447
  154POPC   C4A 2217   0.981   3.600   5.889
  154POPC   C1B 2218   1.348   3.528   4.707
  154POPC   C2B 2219   1.518   3.588   5.154
  154POPC   C3B 2220   1.411   3.566   5.618
  154POPC   C4B 2221   1.414   3.430   6.110
  155POPC   NC3 2222   0.172   4.913   4.167
  155POPC   PO4 2223   0.766   4.642   3.860
  155POPC   GL1 2224   0.770   4.671   4.274
  155POPC   GL2 2225   0.665   4.989   4.325
  155POPC   C1A 2226   0.738   4.722   4.730
  155POPC   D2A 2227   0.434   4.937   5.032
  155POPC   C3A 2228   0.542   5.029   5.462
  155POPC   C4A 2229   0.347   4.851   5.829
  155POPC   C1B 2230   0.407   5.258   4.639
  155POPC   C2B 2231   0.096   5.351   4.994
  155POPC   C3B 2232   0.189   5.512   5.410
  155POPC   C4B 2233   0.359   5.376   5.806
  156POPC   NC3 2234   9.060   8.139   3.705
  156POPC   PO4 2235   8.602   7.781   3.864
  156POPC   GL1 2236   8.704   7.904   4.268
  156POPC   GL2 2237   9.040   7.869   4.238
  156POPC   C1A 2238   8.521   8.057   4.677
  156POPC   D2A 2239   8.399   8.342   5.043
  156POPC   C3A 2240   8.717   8.343   5.399
  156POPC   C4A 2241   8.576   8.339   5.835
  156POPC   C1B 2242   9.055   8.184   4.557
  156POPC   C2B 2243   9.319   8.327   4.901
  156POPC   C3B 2244   9.277   8.348   5.349
  156POPC   C4B 2245   9.082   8.289   5.765
  157POPC   NC3 2246   7.585   2.682   3.903
  157POPC   PO4 2247   7.060   2.282   3.877
  157POPC   GL1 2248   7.243   2.412   4.267
  157POPC   GL2 2249   7.288   2.741   4.305
  157POPC   C1A 2250   7.195   2.464   4.717
  157POPC   D2A 2251   7.026   2.422   5.098
  157POPC   C3A 2252   7.255   2.549   5.430
  157POPC   C4A 2253   7.277   2.858   5.728
  157POPC   C1B 2254   7.657   2.616   4.585
  157POPC   C2B 2255   7.657   2.370   4.984
  157POPC   C3B 2256   7.694   2.257   5.423
  157POPC   C4B 2257   7.580   2.447   5.827
  158POPC   NC3 2258   5.036   0.574   4.046
  158POPC   PO4 2259   5.155   9.936   3.947
  158POPC   GL1 2260   5.237   0.161   4.391
  158POPC   GL2 2261   5.282   0.543   4.500
  158POPC   C1A 2262   5.152   0.225   4.861
  158POPC   D2A 2263   5.344   0.486   5.208
  158POPC   C3A 2264   5.406   0.247   5.613
  158POPC   C4A 2265   5.535   0.297   6.063
  158POPC   C1B 2266   5.037   0.754   4.795
  158POPC   C2B 2267   4.838   0.585   5.131
  158POPC   C3B 2268   4.944   0.512   5.534
  158POPC   C4B 2269   4.634   0.597   5.779
  159POPC   NC3 2270   1.354   6.737   4.019
  159POPC   PO4 2271   0.877   6.228   3.908
  159POPC   GL1 2272   1.030   6.387   4.262
  159POPC   GL2 2273   1.366   6.342   4.419
  159POPC   C1A 2274   0.893   6.642   4.597
  159POPC   D2A 2275   0.985   6.850   4.989
  159POPC   C3A 2276   1.150   6.628   5.353
  159POPC   C4A 2277   0.957   6.758   5.745
  159POPC   C1B 2278   1.401   6.733   4.689
  159POPC   C2B 2279   1.501   6.948   5.086
  159POPC   C3B 2280   1.644   6.840   5.505
  159POPC   C4B 2281   1.448   6.504   5.771
  160POPC   NC3 2282   0.593   5.829   3.803
  160POPC   PO4 2283   0.494   5.142   3.880
  160POPC   GL1 2284   0.650   5.463   4.173
  160POPC   GL2 2285   0.374   5.649   4.250
  160POPC   C1A 2286   0.725   5.652   4.628
  160POPC   D2A 2287   0.608   5.464   5.068
  160POPC   C3A 2288   0.758   5.604   5.485
  160POPC   C4A 2289   0.656   5.844   5.878
  160POPC   C1B 2290   0.211   5.744   4.670
  160POPC   C2B 2291   0.342   5.939   5.043
  160POPC   C3B 2292   0.411   5.989   5.458
  160POPC   C4B 2293   0.151   5.882   5.810
  161POPC   NC3 2294   0.525   7.527   3.900
  161POPC   PO4 2295   0.015   7.060   3.875
  161POPC   GL1 2296   0.192   7.296   4.210
  161POPC   GL2 2297   0.500   7.084   4.245
  161POPC   C1A 2298   0.270   7.486   4.624
  161POPC   D2A 2299   0.140   7.679   5.045
  161POPC   C3A 2300   0.317   7.510   5.451
  161POPC   C4A 2301   0.540   7.600   5.873
  161POPC   C1B 2302   0.694   7.191   4.676
  161POPC   C2B 2303   0.671   7.505   5.036
  161POPC   C3B 2304   0.810   7.425   5.485
  161POPC   C4B 2305   0.555   7.101   5.737
  162POPC   NC3 2306   4.196   3.526   3.839
  162POPC   PO4 2307   4.698   3.684   4.010
  162POPC   GL1 2308   4.423   3.404   4.274
  162POPC   GL2 2309   4.367   3.072   4.178
  162POPC   C1A 2310   4.061   3.288   4.556
  162POPC   D2A 2311   3.869   3.291   4.981
  162POPC   C3A 2312   3.598   3.364   5.343
  162POPC   C4A 2313   3.429   3.466   5.775
  162POPC   C1B 2314   4.487   2.991   4.601
  162POPC   C2B 2315   4.308   3.059   5.029
  162POPC   C3B 2316   4.053   3.123   5.427
  162POPC   C4B 2317   4.182   3.035   5.847
  163POPC   NC3 2318   8.111   7.028   3.874
  163POPC   PO4 2319   7.752   7.624   4.066
  163POPC   GL1 2320   8.088   7.361   4.263
  163POPC   GL2 2321   8.427   7.481   4.267
  163POPC   C1A 2322   8.348   7.106   4.610
  163POPC   D2A 2323   8.410   6.950   5.056
  163POPC   C3A 2324   8.050   6.952   5.355
  163POPC   C4A 2325   7.946   7.119   5.753
  163POPC   C1B 2326   8.235   7.611   4.669
  163POPC   C2B 2327   8.119   7.369   5.027
  163POPC   C3B 2328   8.319   7.380   5.433
  163POPC   C4B 2329   8.035   7.617   5.641
  164POPC   NC3 2330   8.153   7.803   3.962
  164POPC   PO4 2331   7.540   8.145   3.923
  164POPC   GL1 2332   7.743   8.060   4.324
  164POPC   GL2 2333   8.034   8.242   4.237
  164POPC   C1A 2334   7.982   8.057   4.737
  164POPC   D2A 2335   8.018   7.875   5.163
  164POPC   C3A 2336   8.301   8.042   5.482
  164POPC   C4A 2337   8.465   7.841   5.845
  164POPC   C1B 2338   7.816   8.507   4.547
  164POPC   C2B 2339   7.893   8.520   4.994
  164POPC   C3B 2340   8.032   8.494   5.439
  164POPC   C4B 2341   8.072   8.400   5.913
  165POPC   NC3 2342   6.400   0.539   3.899
  165POPC   PO4 2343   6.077   1.069   4.066
  165POPC   GL1 2344   6.379   0.829   4.331
  165POPC   GL2 2345   6.676   0.591   4.323
  165POPC   C1A 2346   6.512   0.835   4.750
  165POPC   D2A 2347   6.410   0.562   5.065
  165POPC   C3A 2348   6.301   0.742   5.427
  165POPC   C4A 2349   6.287   0.625   5.828
  165POPC   C1B 2350   6.632   0.308   4.663
  165POPC   C2B 2351   6.626   0.079   5.058
  165POPC   C3B 2352   6.677   0.279   5.399
  165POPC   C4B 2353   6.541   0.186   5.766
  166POPC   NC3 2354   3.157   8.737   3.976
  166POPC   PO4 2355   3.804   8.958   4.001
  166POPC   GL1 2356   3.464   8.926   4.365
  166POPC   GL2 2357   3.406   9.259   4.543
  166POPC   C1A 2358   3.297   8.859   4.814
  166POPC   D2A 2359   3.412   9.183   5.116
  166POPC   C3A 2360   3.289   9.157   5.563
  166POPC   C4A 2361   3.345   9.336   5.969
  166POPC   C1B 2362   3.800   9.128   4.723
  166POPC   C2B 2363   3.820   8.885   5.089
  166POPC   C3B 2364   3.712   8.774   5.491
  166POPC   C4B 2365   3.746   9.070   5.796
  167POPC   NC3 2366   7.168   9.310   3.835
  167POPC   PO4 2367   6.955   9.934   3.938
  167POPC   GL1 2368   7.107   9.635   4.267
  167POPC   GL2 2369   7.465   9.516   4.202
  167POPC   C1A 2370   7.131   9.411   4.707
  167POPC   D2A 2371   7.333   9.313   5.111
  167POPC   C3A 2372   7.129   9.432   5.513
  167POPC   C4A 2373   7.181   9.576   5.969
  167POPC   C1B 2374   7.460   9.793   4.580
  167POPC   C2B 2375   7.573   9.816   5.011
  167POPC   C3B 2376   7.581   9.676   5.416
  167POPC   C4B 2377   7.393   9.955   5.696
  168POPC   NC3 2378   8.996   7.492   3.910
  168POPC   PO4 2379   8.563   7.084   3.979
  168POPC   GL1 2380   8.807   7.055   4.344
  168POPC   GL2 2381   8.923   7.378   4.386
  168POPC   C1A 2382   8.829   7.136   4.813
  168POPC   D2A 2383   8.810   7.287   5.224
  168POPC   C3A 2384   8.854   6.996   5.577
  168POPC   C4A 2385   9.065   7.152   5.975
  168POPC   C1B 2386   8.900   7.697   4.711
  168POPC   C2B 2387   8.937   8.004   5.060
  168POPC   C3B 2388   8.936   7.866   5.505
  168POPC   C4B 2389   8.788   7.487   5.705
  169POPC   NC3 2390   3.901   8.072   4.046
  169POPC   PO4 2391   3.231   7.862   3.853
  169POPC   GL1 2392   3.414   8.099   4.243
  169POPC   GL2 2393   3.600   8.442   4.245
  169POPC   C1A 2394   3.421   8.197   4.698
  169POPC   D2A 2395   3.237   8.148   5.114
  169POPC   C3A 2396   3.466   8.097   5.493
  169POPC   C4A 2397   3.385   7.933   5.912
  169POPC   C1B 2398   3.716   8.597   4.675
  169POPC   C2B 2399   3.796   8.371   5.101
  169POPC   C3B 2400   3.930   8.311   5.556
  169POPC   C4B 2401   3.716   8.377   5.941
  170POPC   NC3 2402   7.314   0.933   3.883
  170POPC   PO4 2403   7.449   1.570   3.855
  170POPC   GL1 2404   7.379   1.245   4.278
  170POPC   GL2 2405   7.702   1.214   4.465
  170POPC   C1A 2406   7.392   1.000   4.765
  170POPC   D2A 2407   7.467   1.156   5.222
  170POPC   C3A 2408   7.240   0.881   5.536
  170POPC   C4A 2409   6.824   0.717   5.592
  170POPC   C1B 2410   7.379   1.497   4.704
  170POPC   C2B 2411   7.131   1.528   5.072
  170POPC   C3B 2412   7.249   1.542   5.521
  170POPC   C4B 2413   7.477   1.263   5.772
  171POPC   NC3 2414   2.261   6.247   3.927
  171POPC   PO4 2415   1.617   6.362   3.992
  171POPC   GL1 2416   1.912   6.140   4.312
  171POPC   GL2 2417   1.868   5.771   4.326
  171POPC   C1A 2418   2.101   6.014   4.750
  171POPC   D2A 2419   1.956   5.979   5.225
  171POPC   C3A 2420   2.123   5.909   5.693
  171POPC   C4A 2421   2.208   5.967   6.195
  171POPC   C1B 2422   1.609   5.931   4.702
  171POPC   C2B 2423   1.423   5.984   5.122
  171POPC   C3B 2424   1.564   6.001   5.584
  171POPC   C4B 2425   1.697   5.729   5.966
  172POPC   NC3 2426   0.730   4.139   3.867
  172POPC   PO4 2427   1.354   3.860   3.654
  172POPC   GL1 2428   1.332   3.960   4.107
  172POPC   GL2 2429   1.156   4.296   4.137
  172POPC   C1A 2430   1.251   4.013   4.578
  172POPC   D2A 2431   1.157   3.920   5.048
  172POPC   C3A 2432   1.041   4.144   5.447
  172POPC   C4A 2433   0.666   4.011   5.712
  172POPC   C1B 2434   1.186   4.517   4.554
  172POPC   C2B 2435   1.204   4.597   4.999
  172POPC   C3B 2436   1.206   4.662   5.452
  172POPC   C4B 2437   1.533   4.522   5.740
  173POPC   NC3 2438   2.134   7.334   3.828
  173POPC   PO4 2439   2.399   6.668   3.794
  173POPC   GL1 2440   2.201   6.619   4.271
  173POPC   GL2 2441   1.812   6.651   4.370
  173POPC   C1A 2442   2.118   6.789   4.729
  173POPC   D2A 2443   2.012   7.025   5.130
  173POPC   C3A 2444   2.349   7.092   5.436
  173POPC   C4A 2445   2.352   6.766   5.742
  173POPC   C1B 2446   1.781   6.408   4.749
  173POPC   C2B 2447   1.684   6.437   5.184
  173POPC   C3B 2448   1.923   6.405   5.566
  173POPC   C4B 2449   1.844   6.231   5.956
  174POPC   NC3 2450   7.118   4.622   4.026
  174POPC   PO4 2451   7.460   4.085   3.998
  174POPC   GL1 2452   7.454   4.264   4.398
  174POPC   GL2 2453   7.627   3.976   4.488
  174POPC   C1A 2454   7.401   4.239   4.877
  174POPC   D2A 2455   7.347   4.047   5.282
  174POPC   C3A 2456   7.089   4.078   5.690
  174POPC   C4A 2457   7.337   4.031   6.116
  174POPC   C1B 2458   7.892   4.286   4.666
  174POPC   C2B 2459   7.985   4.417   5.064
  174POPC   C3B 2460   7.657   4.459   5.340
  174POPC   C4B 2461   7.565   4.249   5.713
  175POPC   NC3 2462   4.126   7.352   4.134
  175POPC   PO4 2463   3.916   6.796   4.119
  175POPC   GL1 2464   3.886   7.022   4.512
  175POPC   GL2 2465   3.890   7.409   4.594
  175POPC   C1A 2466   4.155   7.065   4.860
  175POPC   D2A 2467   4.414   6.965   5.219
  175POPC   C3A 2468   4.225   6.963   5.637
  175POPC   C4A 2469   4.341   7.068   6.086
  175POPC   C1B 2470   4.088   7.554   4.960
  175POPC   C2B 2471   4.300   7.457   5.348
  175POPC   C3B 2472   4.310   7.625   5.753
  175POPC   C4B 2473   4.203   7.569   6.198
  176POPC   NC3 2474   8.628   4.910   4.134
  176POPC   PO4 2475   8.240   5.384   3.715
  176POPC   GL1 2476   8.249   5.286   4.124
  176POPC   GL2 2477   8.084   4.951   4.101
  176POPC   C1A 2478   8.372   5.334   4.554
  176POPC   D2A 2479   8.405   5.087   4.926
  176POPC   C3A 2480   8.347   5.229   5.391
  176POPC   C4A 2481   8.430   5.351   5.855
  176POPC   C1B 2482   7.983   4.996   4.557
  176POPC   C2B 2483   7.929   4.958   5.032
  176POPC   C3B 2484   8.067   4.801   5.407
  176POPC   C4B 2485   8.356   4.828   5.727
  177POPC   NC3 2486   0.320   4.749   3.713
  177POPC   PO4 2487   0.243   4.115   3.992
  177POPC   GL1 2488   0.397   4.314   4.394
  177POPC   GL2 2489   0.726   4.171   4.392
  177POPC   C1A 2490   0.368   4.405   4.887
  177POPC   D2A 2491   0.724   4.541   5.193
  177POPC   C3A 2492   0.694   4.536   5.586
  177POPC   C4A 2493   0.534   4.417   5.985
  177POPC   C1B 2494   0.826   4.204   4.806
  177POPC   C2B 2495   0.625   4.048   5.182
  177POPC   C3B 2496   0.295   4.273   5.444
  177POPC   C4B 2497   0.117   4.129   5.863
  178POPC   NC3 2498   8.684   9.762   4.079
  178POPC   PO4 2499   9.272   9.429   3.855
  178POPC   GL1 2500   9.105   9.579   4.260
  178POPC   GL2 2501   9.118   9.937   4.341
  178POPC   C1A 2502   8.990   9.533   4.678
  178POPC   D2A 2503   9.151   9.373   5.049
  178POPC   C3A 2504   8.978   9.485   5.469
  178POPC   C4A 2505   9.065   9.208   5.824
  178POPC   C1B 2506   8.881   0.024   4.748
  178POPC   C2B 2507   8.976   9.944   5.218
  178POPC   C3B 2508   8.899   9.958   5.702
  178POPC   C4B 2509   8.729   9.977   6.186
  179POPC   NC3 2510   3.465   7.464   3.686
  179POPC   PO4 2511   4.045   7.692   3.793
  179POPC   GL1 2512   3.659   7.640   4.128
  179POPC   GL2 2513   3.606   7.331   4.198
  179POPC   C1A 2514   3.460   7.692   4.577
  179POPC   D2A 2515   3.207   7.646   4.970
  179POPC   C3A 2516   3.408   7.600   5.384
  179POPC   C4A 2517   3.425   7.363   5.766
  179POPC   C1B 2518   3.417   7.187   4.606
  179POPC   C2B 2519   3.628   7.298   5.018
  179POPC   C3B 2520   3.828   7.297   5.438
  179POPC   C4B 2521   3.914   7.273   5.894
  180POPC   NC3 2522   9.929   2.671   3.859
  180POPC   PO4 2523   0.045   3.258   4.232
  180POPC   GL1 2524   9.740   3.098   4.401
  180POPC   GL2 2525   9.508   2.882   4.309
  180POPC   C1A 2526   9.699   2.966   4.785
  180POPC   D2A 2527   9.573   3.125   5.121
  180POPC   C3A 2528   9.767   2.892   5.450
  180POPC   C4A 2529   9.585   3.123   5.783
  180POPC   C1B 2530   9.480   2.524   4.661
  180POPC   C2B 2531   9.443   2.590   5.110
  180POPC   C3B 2532   9.268   2.872   5.444
  180POPC   C4B 2533   9.413   2.609   5.779
  181POPC   NC3 2534   0.998   1.220   3.977
  181POPC   PO4 2535   0.897   0.618   3.665
  181POPC   GL1 2536   1.172   0.759   4.112
  181POPC   GL2 2537   1.427   0.990   4.267
  181POPC   C1A 2538   1.045   0.961   4.586
  181POPC   D2A 2539   1.036   1.292   4.916
  181POPC   C3A 2540   1.145   1.163   5.351
  181POPC   C4A 2541   1.163   1.069   5.812
  181POPC   C1B 2542   1.507   1.258   4.682
  181POPC   C2B 2543   1.534   1.457   5.135
  181POPC   C3B 2544   1.576   1.328   5.593
  181POPC   C4B 2545   1.532   1.336   6.061
  182POPC   NC3 2546   2.173   1.676   3.503
  182POPC   PO4 2547   1.923   1.795   4.098
  182POPC   GL1 2548   1.869   1.984   4.466
  182POPC   GL2 2549   1.814   2.286   4.266
  182POPC   C1A 2550   1.907   1.781   4.888
  182POPC   D2A 2551   2.296   1.792   5.145
  182POPC   C3A 2552   2.366   2.103   5.437
  182POPC   C4A 2553   2.109   2.083   5.811
  182POPC   C1B 2554   1.874   2.477   4.673
  182POPC   C2B 2555   2.016   2.264   5.076
  182POPC   C3B 2556   1.841   1.961   5.388
  182POPC   C4B 2557   1.596   2.136   5.744
  183POPC   NC3 2558   7.803   1.281   3.989
  183POPC   PO4 2559   8.386   1.521   3.721
  183POPC   GL1 2560   8.236   1.432   4.185
  183POPC   GL2 2561   8.445   1.255   4.375
  183POPC   C1A 2562   8.107   1.417   4.687
  183POPC   D2A 2563   8.210   1.403   5.164
  183POPC   C3A 2564   7.972   1.344   5.621
  183POPC   C4A 2565   7.796   1.485   6.091
  183POPC   C1B 2566   8.519   1.088   4.811
  183POPC   C2B 2567   8.524   1.012   5.263
  183POPC   C3B 2568   8.456   1.153   5.712
  183POPC   C4B 2569   8.422   0.863   6.096
  184POPC   NC3 2570   8.250   8.978   3.895
  184POPC   PO4 2571   7.590   9.110   3.843
  184POPC   GL1 2572   7.893   9.214   4.166
  184POPC   GL2 2573   7.982   8.906   4.305
  184POPC   C1A 2574   8.055   9.311   4.608
  184POPC   D2A 2575   7.841   9.369   5.003
  184POPC   C3A 2576   8.015   9.279   5.409
  184POPC   C4A 2577   7.852   8.961   5.704
  184POPC   C1B 2578   8.210   8.814   4.669
  184POPC   C2B 2579   8.222   8.925   5.082
  184POPC   C3B 2580   8.448   8.765   5.412
  184POPC   C4B 2581   8.323   8.806   5.793
  185POPC   NC3 2582   8.136   9.520   3.700
  185POPC   PO4 2583   8.381   0.138   3.930
  185POPC   GL1 2584   8.241   9.862   4.269
  185POPC   GL2 2585   7.949   9.711   4.217
  185POPC   C1A 2586   8.447   9.692   4.676
  185POPC   D2A 2587   8.641   9.599   5.061
  185POPC   C3A 2588   8.512   9.761   5.441
  185POPC   C4A 2589   8.538   9.638   5.879
  185POPC   C1B 2590   7.963   9.818   4.692
  185POPC   C2B 2591   8.080   9.780   5.160
  185POPC   C3B 2592   8.028   9.809   5.624
  185POPC   C4B 2593   7.857   0.137   5.888
  186POPC   NC3 2594   5.030   2.246   3.965
  186POPC   PO4 2595   5.158   1.462   4.105
  186POPC   GL1 2596   5.018   1.635   4.464
  186POPC   GL2 2597   5.163   1.913   4.420
  186POPC   C1A 2598   4.930   1.773   4.893
  186POPC   D2A 2599   5.172   1.854   5.270
  186POPC   C3A 2600   4.932   1.935   5.656
  186POPC   C4A 2601   4.790   1.896   6.090
  186POPC   C1B 2602   5.031   2.239   4.769
  186POPC   C2B 2603   4.896   2.290   5.198
  186POPC   C3B 2604   5.108   2.425   5.585
  186POPC   C4B 2605   5.165   2.257   5.987
  187POPC   NC3 2606   3.363   2.833   3.825
  187POPC   PO4 2607   3.980   3.130   3.882
  187POPC   GL1 2608   3.765   3.000   4.266
  187POPC   GL2 2609   3.591   2.696   4.332
  187POPC   C1A 2610   3.525   3.055   4.680
  187POPC   D2A 2611   3.261   2.839   4.981
  187POPC   C3A 2612   3.320   2.937   5.391
  187POPC   C4A 2613   3.128   2.909   5.786
  187POPC   C1B 2614   3.557   2.489   4.756
  187POPC   C2B 2615   3.426   2.410   5.216
  187POPC   C3B 2616   3.425   2.499   5.682
  187POPC   C4B 2617   3.698   2.544   6.061
  188POPC   NC3 2618   2.826   8.074   3.739
  188POPC   PO4 2619   2.232   7.833   3.867
  188POPC   GL1 2620   2.504   8.013   4.233
  188POPC   GL2 2621   2.867   8.137   4.223
  188POPC   C1A 2622   2.418   8.141   4.683
  188POPC   D2A 2623   2.198   8.026   5.073
  188POPC   C3A 2624   2.449   8.085   5.454
  188POPC   C4A 2625   2.486   8.420   5.771
  188POPC   C1B 2626   2.930   8.114   4.632
  188POPC   C2B 2627   2.855   8.442   4.946
  188POPC   C3B 2628   2.853   8.387   5.399
  188POPC   C4B 2629   2.932   8.170   5.803
  189POPC   NC3 2630   9.338   5.086   3.914
  189POPC   PO4 2631   9.961   5.321   4.159
  189POPC   GL1 2632   9.631   5.045   4.350
  189POPC   GL2 2633   9.518   4.724   4.249
  189POPC   C1A 2634   9.440   4.989   4.767
  189POPC   D2A 2635   9.642   5.092   5.132
  189POPC   C3A 2636   9.496   4.910   5.531
  189POPC   C4A 2637   9.382   5.126   5.929
  189POPC   C1B 2638   9.775   4.647   4.669
  189POPC   C2B 2639   9.974   4.692   5.095
  189POPC   C3B 2640   0.034   4.990   5.436
  189POPC   C4B 2641   9.879   5.005   5.856
  190POPC   NC3 2642   8.761   1.238   3.705
  190POPC   PO4 2643   9.354   1.397   3.940
  190POPC   GL1 2644   8.934   1.291   4.193
  190POPC   GL2 2645   8.755   0.940   4.153
  190POPC   C1A 2646   8.851   1.445   4.631
  190POPC   D2A 2647   9.066   1.482   5.040
  190POPC   C3A 2648   8.902   1.331   5.428
  190POPC   C4A 2649   9.144   1.363   5.809
  190POPC   C1B 2650   8.934   0.918   4.542
  190POPC   C2B 2651   9.037   0.970   4.976
  190POPC   C3B 2652   8.988   0.836   5.400
  190POPC   C4B 2653   8.887   0.905   5.850
  191POPC   NC3 2654   0.733   2.671   4.174
  191POPC   PO4 2655   1.341   2.402   3.988
  191POPC   GL1 2656   1.225   2.861   4.170
  191POPC   GL2 2657   1.422   3.130   4.032
  191POPC   C1A 2658   1.081   3.075   4.610
  191POPC   D2A 2659   0.928   2.932   5.046
  191POPC   C3A 2660   1.182   2.717   5.357
  191POPC   C4A 2661   1.513   2.690   5.672
  191POPC   C1B 2662   1.582   3.116   4.472
  191POPC   C2B 2663   1.569   3.113   4.931
  191POPC   C3B 2664   1.528   3.117   5.386
  191POPC   C4B 2665   1.209   3.107   5.743
  192POPC   NC3 2666   1.904   9.655   3.792
  192POPC   PO4 2667   1.343   9.707   4.064
  192POPC   GL1 2668   1.722   9.575   4.268
  192POPC   GL2 2669   2.046   9.766   4.262
  192POPC   C1A 2670   1.834   9.449   4.687
  192POPC   D2A 2671   2.046   9.523   5.093
  192POPC   C3A 2672   1.887   9.542   5.531
  192POPC   C4A 2673   1.646   9.342   5.857
  192POPC   C1B 2674   2.239   9.737   4.651
  192POPC   C2B 2675   2.380   9.957   4.976
  192POPC   C3B 2676   2.223   0.131   5.346
  192POPC   C4B 2677   2.124   9.968   5.733
  193POPC   NC3 2678   7.933   6.241   4.058
  193POPC   PO4 2679   8.342   6.620   3.760
  193POPC   GL1 2680   8.267   6.696   4.230
  193POPC   GL2 2681   7.956   6.886   4.371
  193POPC   C1A 2682   8.276   6.580   4.682
  193POPC   D2A 2683   8.483   6.458   5.108
  193POPC   C3A 2684   8.440   6.647   5.533
  193POPC   C4A 2685   8.286   6.462   5.928
  193POPC   C1B 2686   7.916   6.919   4.823
  193POPC   C2B 2687   7.953   6.537   5.089
  193POPC   C3B 2688   7.957   6.433   5.528
  193POPC   C4B 2689   7.805   6.627   5.913
  194POPC   NC3 2690   7.789   5.373   3.847
  194POPC   PO4 2691   7.512   4.786   3.884
  194POPC   GL1 2692   7.616   4.738   4.303
  194POPC   GL2 2693   7.299   4.886   4.424
  194POPC   C1A 2694   7.607   4.686   4.767
  194POPC   D2A 2695   7.408   4.877   5.148
  194POPC   C3A 2696   7.601   4.925   5.568
  194POPC   C4A 2697   7.951   5.191   5.751
  194POPC   C1B 2698   7.089   4.648   4.785
  194POPC   C2B 2699   7.098   4.488   5.243
  194POPC   C3B 2700   7.134   4.580   5.701
  194POPC   C4B 2701   6.979   4.383   6.119
  195POPC   NC3 2702   3.591   1.825   4.036
  195POPC   PO4 2703   3.669   2.474   3.886
  195POPC   GL1 2704   3.762   2.213   4.319
  195POPC   GL2 2705   3.392   2.184   4.356
  195POPC   C1A 2706   3.916   1.808   4.622
  195POPC   D2A 2707   4.086   1.726   5.059
  195POPC   C3A 2708   3.858   1.674   5.514
  195POPC   C4A 2709   3.663   1.713   5.974
  195POPC   C1B 2710   3.464   1.981   4.730
  195POPC   C2B 2711   3.625   1.951   5.132
  195POPC   C3B 2712   3.453   1.998   5.555
  195POPC   C4B 2713   3.157   1.773   5.813
  196POPC   NC3 2714   4.715   1.430   4.013
  196POPC   PO4 2715   4.007   1.557   3.918
  196POPC   GL1 2716   3.895   1.400   4.325
  196POPC   GL2 2717   4.068   1.109   4.293
  196POPC   C1A 2718   4.018   1.284   4.776
  196POPC   D2A 2719   3.997   1.229   5.237
  196POPC   C3A 2720   4.326   1.467   5.423
  196POPC   C4A 2721   4.604   1.483   5.737
  196POPC   C1B 2722   4.439   1.054   4.583
  196POPC   C2B 2723   4.593   1.019   5.011
  196POPC   C3B 2724   4.546   0.993   5.456
  196POPC   C4B 2725   4.215   1.110   5.763
  197POPC   NC3 2726   7.411   7.725   3.722
  197POPC   PO4 2727   6.903   7.982   4.101
  197POPC   GL1 2728   7.094   8.164   4.427
  197POPC   GL2 2729   7.343   8.417   4.358
  197POPC   C1A 2730   7.017   8.366   4.793
  197POPC   D2A 2731   7.249   8.561   5.108
  197POPC   C3A 2732   7.134   8.298   5.433
  197POPC   C4A 2733   7.323   8.042   5.700
  197POPC   C1B 2734   7.490   8.204   4.779
  197POPC   C2B 2735   7.604   8.171   5.231
  197POPC   C3B 2736   7.805   8.077   5.632
  197POPC   C4B 2737   7.644   8.187   6.067
  198POPC   NC3 2738   8.997   3.420   3.641
  198POPC   PO4 2739   9.329   3.853   4.044
  198POPC   GL1 2740   9.164   3.669   4.398
  198POPC   GL2 2741   8.874   3.555   4.193
  198POPC   C1A 2742   9.112   3.595   4.832
  198POPC   D2A 2743   9.071   3.300   5.137
  198POPC   C3A 2744   9.046   3.493   5.540
  198POPC   C4A 2745   9.152   3.375   5.964
  198POPC   C1B 2746   8.685   3.725   4.556
  198POPC   C2B 2747   8.618   3.628   4.981
  198POPC   C3B 2748   8.558   3.539   5.407
  198POPC   C4B 2749   8.653   3.594   5.855
  199POPC   NC3 2750   1.899   9.029   3.845
  199POPC   PO4 2751   2.349   9.472   3.952
  199POPC   GL1 2752   2.149   9.260   4.287
  199POPC   GL2 2753   2.182   8.894   4.272
  199POPC   C1A 2754   2.277   9.187   4.715
  199POPC   D2A 2755   2.107   8.906   5.031
  199POPC   C3A 2756   1.909   9.051   5.373
  199POPC   C4A 2757   2.100   9.069   5.753
  199POPC   C1B 2758   1.840   8.916   4.597
  199POPC   C2B 2759   1.584   8.822   4.999
  199POPC   C3B 2760   1.522   8.713   5.452
  199POPC   C4B 2761   1.665   8.836   5.846
  200POPC   NC3 2762   7.953   0.418   4.077
  200POPC   PO4 2763   7.771   0.923   3.709
  200POPC   GL1 2764   8.101   0.903   4.124
  200POPC   GL2 2765   8.363   0.627   4.276
  200POPC   C1A 2766   8.088   0.904   4.592
  200POPC   D2A 2767   7.917   1.010   5.000
  200POPC   C3A 2768   7.952   0.681   5.341
  200POPC   C4A 2769   8.034   0.602   5.784
  200POPC   C1B 2770   8.292   0.238   4.599
  200POPC   C2B 2771   8.434   0.121   5.011
  200POPC   C3B 2772   8.235   0.225   5.406
  200POPC   C4B 2773   8.408   0.141   5.796
  201POPC   NC3 2774   8.921   9.234   3.611
  201POPC   PO4 2775   8.404   9.392   4.053
  201POPC   GL1 2776   8.680   9.279   4.339
  201POPC   GL2 2777   8.956   9.109   4.142
  201POPC   C1A 2778   8.594   9.176   4.774
  201POPC   D2A 2779   8.742   9.110   5.204
  201POPC   C3A 2780   8.542   9.227   5.602
  201POPC   C4A 2781   8.532   9.166   6.085
  201POPC   C1B 2782   9.082   9.029   4.599
  201POPC   C2B 2783   9.107   8.808   5.014
  201POPC   C3B 2784   9.093   8.816   5.475
  201POPC   C4B 2785   8.823   8.769   5.822
  202POPC   NC3 2786   7.340   3.648   3.984
  202POPC   PO4 2787   7.648   3.128   3.779
  202POPC   GL1 2788   7.469   3.197   4.228
  202POPC   GL2 2789   7.431   3.475   4.443
  202POPC   C1A 2790   7.338   3.044   4.699
  202POPC   D2A 2791   7.240   3.015   5.172
  202POPC   C3A 2792   7.533   3.226   5.490
  202POPC   C4A 2793   7.416   3.298   5.935
  202POPC   C1B 2794   7.307   3.701   4.814
  202POPC   C2B 2795   7.247   3.556   5.225
  202POPC   C3B 2796   7.399   3.693   5.633
  202POPC   C4B 2797   7.714   3.753   5.915
  203POPC   NC3 2798   5.610   0.048   3.530
  203POPC   PO4 2799   5.501   0.523   4.065
  203POPC   GL1 2800   5.893   0.596   4.287
  203POPC   GL2 2801   5.883   0.875   4.492
  203POPC   C1A 2802   6.143   0.462   4.641
  203POPC   D2A 2803   6.147   0.107   4.937
  203POPC   C3A 2804   6.176   0.213   5.389
  203POPC   C4A 2805   6.008   0.198   5.808
  203POPC   C1B 2806   5.682   0.650   4.779
  203POPC   C2B 2807   5.867   0.504   5.114
  203POPC   C3B 2808   5.794   0.570   5.522
  203POPC   C4B 2809   5.412   0.759   5.691
  204POPC   NC3 2810   4.400   7.945   3.685
  204POPC   PO4 2811   4.116   7.765   4.309
  204POPC   GL1 2812   3.862   7.974   4.567
  204POPC   GL2 2813   4.043   8.257   4.503
  204POPC   C1A 2814   3.683   7.872   4.997
  204POPC   D2A 2815   3.921   7.826   5.353
  204POPC   C3A 2816   3.804   7.743   5.726
  204POPC   C4A 2817   4.035   7.989   5.973
  204POPC   C1B 2818   4.490   8.273   4.644
  204POPC   C2B 2819   4.540   8.307   5.099
  204POPC   C3B 2820   4.427   8.170   5.534
  204POPC   C4B 2821   4.373   8.404   5.915
  205POPC   NC3 2822   5.774   8.360   3.962
  205POPC   PO4 2823   6.158   7.818   3.971
  205POPC   GL1 2824   5.926   7.967   4.362
  205POPC   GL2 2825   5.799   8.308   4.446
  205POPC   C1A 2826   6.022   8.126   4.823
  205POPC   D2A 2827   5.841   8.412   5.132
  205POPC   C3A 2828   5.956   8.331   5.586
  205POPC   C4A 2829   6.019   8.059   5.969
  205POPC   C1B 2830   5.535   8.029   4.727
  205POPC   C2B 2831   5.431   8.118   5.186
  205POPC   C3B 2832   5.537   8.040   5.640
  205POPC   C4B 2833   5.525   7.941   6.105
  206POPC   NC3 2834   9.614   9.163   4.001
  206POPC   PO4 2835   9.988   8.655   3.876
  206POPC   GL1 2836   9.990   8.955   4.244
  206POPC   GL2 2837   9.687   8.806   4.362
  206POPC   C1A 2838   9.981   9.121   4.671
  206POPC   D2A 2839   0.194   9.203   5.066
  206POPC   C3A 2840   0.034   9.323   5.465
  206POPC   C4A 2841   9.787   9.267   5.836
  206POPC   C1B 2842   9.574   8.821   4.793
  206POPC   C2B 2843   9.571   8.791   5.245
  206POPC   C3B 2844   9.589   8.817   5.691
  206POPC   C4B 2845   9.314   8.672   6.016
  207POPC   NC3 2846   2.875   1.344   4.025
  207POPC   PO4 2847   2.325   0.984   3.934
  207POPC   GL1 2848   2.653   0.964   4.290
  207POPC   GL2 2849   2.792   1.255   4.508
  207POPC   C1A 2850   2.606   0.869   4.774
  207POPC   D2A 2851   2.723   1.127   5.104
  207POPC   C3A 2852   2.479   1.138   5.448
  207POPC   C4A 2853   2.509   0.990   5.849
  207POPC   C1B 2854   3.132   1.226   4.810
  207POPC   C2B 2855   3.211   1.089   5.227
  207POPC   C3B 2856   2.988   1.140   5.614
  207POPC   C4B 2857   2.794   1.419   5.845
  208POPC   NC3 2858   6.395   9.037   4.133
  208POPC   PO4 2859   6.930   8.918   3.751
  208POPC   GL1 2860   6.803   8.789   4.279
  208POPC   GL2 2861   6.717   9.126   4.544
  208POPC   C1A 2862   6.652   8.705   4.751
  208POPC   D2A 2863   6.736   8.521   5.200
  208POPC   C3A 2864   6.775   8.626   5.634
  208POPC   C4A 2865   6.812   8.626   6.087
  208POPC   C1B 2866   6.335   9.109   4.806
  208POPC   C2B 2867   6.380   9.161   5.222
  208POPC   C3B 2868   6.658   9.125   5.520
  208POPC   C4B 2869   6.522   8.983   5.891
  209POPC   NC3 2870   2.980   5.791   4.052
  209POPC   PO4 2871   2.314   5.768   3.947
  209POPC   GL1 2872   2.377   5.873   4.316
  209POPC   GL2 2873   2.636   6.082   4.291
  209POPC   C1A 2874   2.554   5.780   4.703
  209POPC   D2A 2875   2.514   6.030   5.062
  209POPC   C3A 2876   2.577   5.858   5.475
  209POPC   C4A 2877   2.561   5.709   5.922
  209POPC   C1B 2878   2.911   6.149   4.704
  209POPC   C2B 2879   3.001   6.057   5.167
  209POPC   C3B 2880   3.031   6.053   5.628
  209POPC   C4B 2881   3.380   6.041   5.929
  210POPC   NC3 2882   1.203   7.466   3.895
  210POPC   PO4 2883   0.912   6.880   3.973
  210POPC   GL1 2884   1.042   7.148   4.280
  210POPC   GL2 2885   0.852   7.470   4.287
  210POPC   C1A 2886   1.221   7.212   4.684
  210POPC   D2A 2887   1.142   7.327   5.116
  210POPC   C3A 2888   1.231   7.128   5.521
  210POPC   C4A 2889   1.391   6.982   5.957
  210POPC   C1B 2890   0.984   7.687   4.662
  210POPC   C2B 2891   1.220   7.828   5.034
  210POPC   C3B 2892   1.274   7.692   5.462
  210POPC   C4B 2893   1.450   7.473   5.831
  211POPC   NC3 2894   2.093   7.662   4.281
  211POPC   PO4 2895   1.651   7.323   3.897
  211POPC   GL1 2896   1.832   7.180   4.273
  211POPC   GL2 2897   2.161   7.120   4.322
  211POPC   C1A 2898   1.759   7.156   4.685
  211POPC   D2A 2899   1.592   7.464   4.941
  211POPC   C3A 2900   1.673   7.376   5.361
  211POPC   C4A 2901   1.927   7.254   5.699
  211POPC   C1B 2902   2.284   7.262   4.748
  211POPC   C2B 2903   2.087   7.528   5.025
  211POPC   C3B 2904   2.163   7.632   5.430
  211POPC   C4B 2905   2.484   7.637   5.720
  212POPC   NC3 2906   9.517   1.834   3.944
  212POPC   PO4 2907   9.547   2.471   4.036
  212POPC   GL1 2908   9.712   2.155   4.346
  212POPC   GL2 2909   9.898   1.832   4.312
  212POPC   C1A 2910   9.727   2.060   4.798
  212POPC   D2A 2911   9.826   2.114   5.239
  212POPC   C3A 2912   9.489   2.142   5.548
  212POPC   C4A 2913   9.329   2.006   5.958
  212POPC   C1B 2914   9.715   1.571   4.666
  212POPC   C2B 2915   9.547   1.666   5.125
  212POPC   C3B 2916   9.573   1.628   5.575
  212POPC   C4B 2917   9.843   1.790   5.894
  213POPC   NC3 2918   2.038   5.378   4.004
  213POPC   PO4 2919   2.391   4.839   4.119
  213POPC   GL1 2920   2.082   5.032   4.402
  213POPC   GL2 2921   1.727   4.965   4.362
  213POPC   C1A 2922   1.837   5.369   4.669
  213POPC   D2A 2923   1.649   5.533   5.062
  213POPC   C3A 2924   1.833   5.497   5.501
  213POPC   C4A 2925   2.243   5.367   5.717
  213POPC   C1B 2926   1.830   4.850   4.832
  213POPC   C2B 2927   1.753   4.710   5.293
  213POPC   C3B 2928   2.013   4.842   5.670
  213POPC   C4B 2929   2.461   4.712   5.776
  214POPC   NC3 2930   1.287   8.461   3.951
  214POPC   PO4 2931   0.897   7.856   3.950
  214POPC   GL1 2932   1.081   8.113   4.312
  214POPC   GL2 2933   1.455   8.159   4.329
  214POPC   C1A 2934   0.984   8.199   4.769
  214POPC   D2A 2935   0.755   8.010   5.164
  214POPC   C3A 2936   0.873   8.039   5.593
  214POPC   C4A 2937   1.161   7.890   5.918
  214POPC   C1B 2938   1.463   8.412   4.700
  214POPC   C2B 2939   1.314   8.355   5.127
  214POPC   C3B 2940   1.397   8.201   5.538
  214POPC   C4B 2941   1.673   8.323   5.874
  215POPC   NC3 2942   5.166   8.524   3.584
  215POPC   PO4 2943   4.803   9.001   3.973
  215POPC   GL1 2944   4.890   8.927   4.380
  215POPC   GL2 2945   5.202   8.839   4.394
  215POPC   C1A 2946   4.853   8.666   4.737
  215POPC   D2A 2947   4.684   8.806   5.104
  215POPC   C3A 2948   4.712   8.617   5.508
  215POPC   C4A 2949   4.841   8.636   5.928
  215POPC   C1B 2950   5.223   9.130   4.735
  215POPC   C2B 2951   5.058   9.187   5.140
  215POPC   C3B 2952   5.056   9.008   5.553
  215POPC   C4B 2953   5.033   9.098   5.988
  216POPC   NC3 2954   2.851   6.649   3.821
  216POPC   PO4 2955   3.295   7.095   3.918
  216POPC   GL1 2956   3.115   6.817   4.301
  216POPC   GL2 2957   2.821   6.542   4.335
  216POPC   C1A 2958   3.056   6.666   4.754
  216POPC   D2A 2959   2.725   6.539   5.075
  216POPC   C3A 2960   2.826   6.726   5.518
  216POPC   C4A 2961   3.154   6.931   5.813
  216POPC   C1B 2962   2.452   6.387   4.650
  216POPC   C2B 2963   2.209   6.429   5.070
  216POPC   C3B 2964   2.419   6.347   5.460
  216POPC   C4B 2965   2.536   6.218   5.864
  217POPC   NC3 2966   2.710   4.153   3.424
  217POPC   PO4 2967   2.792   4.092   4.047
  217POPC   GL1 2968   2.776   4.281   4.481
  217POPC   GL2 2969   2.598   4.607   4.552
  217POPC   C1A 2970   2.932   4.199   4.905
  217POPC   D2A 2971   3.038   4.215   5.359
  217POPC   C3A 2972   3.061   3.897   5.691
  217POPC   C4A 2973   3.002   4.099   6.105
  217POPC   C1B 2974   2.442   4.330   4.891
  217POPC   C2B 2975   2.508   4.123   5.275
  217POPC   C3B 2976   2.626   4.175   5.684
  217POPC   C4B 2977   2.489   4.224   6.078
  218POPC   NC3 2978   3.071   7.520   4.125
  218POPC   PO4 2979   2.471   7.476   4.129
  218POPC   GL1 2980   2.684   7.289   4.391
  218POPC   GL2 2981   2.630   6.978   4.182
  218POPC   C1A 2982   2.734   7.534   4.782
  218POPC   D2A 2983   2.728   7.914   5.054
  218POPC   C3A 2984   2.945   7.836   5.422
  218POPC   C4A 2985   2.988   7.628   5.808
  218POPC   C1B 2986   2.608   6.877   4.646
  218POPC   C2B 2987   2.728   7.067   5.047
  218POPC   C3B 2988   2.907   7.252   5.435
  218POPC   C4B 2989   2.716   7.180   5.834
  219POPC   NC3 2990   2.424   4.381   4.138
  219POPC   PO4 2991   1.876   4.016   4.259
  219POPC   GL1 2992   2.199   4.099   4.512
  219POPC   GL2 2993   2.081   4.462   4.566
  219POPC   C1A 2994   2.246   3.840   4.902
  219POPC   D2A 2995   2.047   3.886   5.277
  219POPC   C3A 2996   2.216   3.863   5.717
  219POPC   C4A 2997   2.189   3.826   6.215
  219POPC   C1B 2998   1.656   4.364   4.811
  219POPC   C2B 2999   1.512   4.235   5.242
  219POPC   C3B 3000   1.733   4.084   5.605
  219POPC   C4B 3001   2.104   4.346   5.722
  220POPC   NC3 3002   5.603   0.002   4.060
  220POPC   PO4 3003   6.270   0.104   3.888
  220POPC   GL1 3004   6.038   0.099   4.309
  220POPC   GL2 3005   5.909   9.786   4.402
  220POPC   C1A 3006   5.706   0.156   4.680
  220POPC   D2A 3007   5.571   0.039   5.104
  220POPC   C3A 3008   5.787   9.878   5.457
  220POPC   C4A 3009   5.809   9.722   5.876
  220POPC   C1B 3010   5.894   9.676   4.835
  220POPC   C2B 3011   5.998   9.485   5.219
  220POPC   C3B 3012   5.738   9.293   5.551
  220POPC   C4B 3013   5.411   9.394   5.838
  221POPC   NC3 3014   9.770   4.010   3.961
  221POPC   PO4 3015   9.899   4.661   3.890
  221POPC   GL1 3016   9.900   4.386   4.262
  221POPC   GL2 3017   9.561   4.223   4.362
  221POPC   C1A 3018   9.956   4.185   4.675
  221POPC   D2A 3019   9.723   4.248   5.046
  221POPC   C3A 3020   9.802   4.101   5.449
  221POPC   C4A 3021   9.877   4.523   5.648
  221POPC   C1B 3022   9.423   3.993   4.744
  221POPC   C2B 3023   9.299   4.041   5.235
  221POPC   C3B 3024   9.382   4.306   5.648
  221POPC   C4B 3025   9.624   4.157   6.040
  222POPC   NC3 3026   9.330   3.316   4.099
  222POPC   PO4 3027   9.861   3.379   3.758
  222POPC   GL1 3028   9.706   3.600   4.237
  222POPC   GL2 3029   9.946   3.759   4.435
  222POPC   C1A 3030   9.591   3.495   4.688
  222POPC   D2A 3031   9.705   3.682   5.075
  222POPC   C3A 3032   9.537   3.543   5.430
  222POPC   C4A 3033   9.403   3.805   5.739
  222POPC   C1B 3034   0.098   3.495   4.799
  222POPC   C2B 3035   0.076   3.242   5.133
  222POPC   C3B 3036   9.992   3.332   5.534
  222POPC   C4B 3037   9.837   3.573   5.864
  223POPC   NC3 3038   1.194   0.149   4.075
  223POPC   PO4 3039   0.707   0.602   4.170
  223POPC   GL1 3040   1.089   0.424   4.491
  223POPC   GL2 3041   1.463   0.436   4.394
  223POPC   C1A 3042   1.383   0.260   4.861
  223POPC   D2A 3043   1.177   0.209   5.231
  223POPC   C3A 3044   1.273   0.138   5.647
  223POPC   C4A 3045   0.902   0.212   5.905
  223POPC   C1B 3046   1.476   0.733   4.706
  223POPC   C2B 3047   1.244   0.730   5.078
  223POPC   C3B 3048   1.319   0.654   5.520
  223POPC   C4B 3049   1.270   0.556   5.966
  224POPC   NC3 3050   8.057   3.087   3.569
  224POPC   PO4 3051   8.569   3.518   3.783
  224POPC   GL1 3052   8.315   3.607   4.231
  224POPC   GL2 3053   7.936   3.589   4.323
  224POPC   C1A 3054   8.275   3.390   4.665
  224POPC   D2A 3055   8.139   3.465   5.111
  224POPC   C3A 3056   8.105   3.114   5.393
  224POPC   C4A 3057   7.940   3.129   5.823
  224POPC   C1B 3058   7.808   3.598   4.755
  224POPC   C2B 3059   7.781   3.922   5.036
  224POPC   C3B 3060   7.871   3.905   5.458
  224POPC   C4B 3061   8.121   3.564   5.663
  225POPC   NC3 3062   6.553   9.697   3.988
  225POPC   PO4 3063   6.057   9.335   4.255
  225POPC   GL1 3064   6.396   9.521   4.448
  225POPC   GL2 3065   6.487   9.883   4.448
  225POPC   C1A 3066   6.462   9.611   4.873
  225POPC   D2A 3067   6.662   9.589   5.244
  225POPC   C3A 3068   6.359   9.739   5.506
  225POPC   C4A 3069   6.209   9.373   5.722
  225POPC   C1B 3070   6.908   9.867   4.694
  225POPC   C2B 3071   7.089   9.840   5.150
  225POPC   C3B 3072   6.907   9.874   5.585
  225POPC   C4B 3073   6.705   9.537   5.819
  226POPC   NC3 3074   9.948   5.794   4.000
  226POPC   PO4 3075   9.402   5.515   3.734
  226POPC   GL1 3076   9.459   5.504   4.197
  226POPC   GL2 3077   9.513   5.809   4.278
  226POPC   C1A 3078   9.614   5.469   4.682
  226POPC   D2A 3079   9.581   5.614   5.143
  226POPC   C3A 3080   9.703   5.393   5.563
  226POPC   C4A 3081   9.892   5.481   6.004
  226POPC   C1B 3082   9.506   5.969   4.695
  226POPC   C2B 3083   9.852   6.068   4.944
  226POPC   C3B 3084   9.905   5.972   5.358
  226POPC   C4B 3085   9.572   5.876   5.601
  227POPC   NC3 3086   9.014   5.735   3.894
  227POPC   PO4 3087   9.273   6.390   3.853
  227POPC   GL1 3088   9.139   6.145   4.266
  227POPC   GL2 3089   8.981   5.828   4.383
  227POPC   C1A 3090   9.052   6.185   4.738
  227POPC   D2A 3091   9.127   5.841   5.044
  227POPC   C3A 3092   9.078   5.938   5.482
  227POPC   C4A 3093   9.205   6.087   5.900
  227POPC   C1B 3094   8.743   5.650   4.714
  227POPC   C2B 3095   8.718   5.464   5.120
  227POPC   C3B 3096   8.689   5.615   5.522
  227POPC   C4B 3097   8.765   5.856   5.884
  228POPC   NC3 3098   8.456   3.165   4.049
  228POPC   PO4 3099   8.034   2.674   3.794
  228POPC   GL1 3100   7.991   2.769   4.211
  228POPC   GL2 3101   7.973   3.107   4.162
  228POPC   C1A 3102   8.169   2.750   4.646
  228POPC   D2A 3103   8.110   2.645   5.091
  228POPC   C3A 3104   8.445   2.684   5.404
  228POPC   C4A 3105   8.474   2.472   5.828
  228POPC   C1B 3106   7.830   3.124   4.578
  228POPC   C2B 3107   7.749   3.046   5.017
  228POPC   C3B 3108   7.713   2.769   5.388
  228POPC   C4B 3109   8.019   2.659   5.688
  229POPC   NC3 3110   5.973   2.806   3.973
  229POPC   PO4 3111   5.305   2.684   3.991
  229POPC   GL1 3112   5.642   2.793   4.364
  229POPC   GL2 3113   5.824   2.512   4.416
  229POPC   C1A 3114   5.948   2.821   4.811
  229POPC   D2A 3115   6.232   2.840   5.242
  229POPC   C3A 3116   6.007   2.923   5.675
  229POPC   C4A 3117   5.628   3.025   5.934
  229POPC   C1B 3118   6.060   2.320   4.731
  229POPC   C2B 3119   6.066   2.359   5.145
  229POPC   C3B 3120   5.879   2.401   5.522
  229POPC   C4B 3121   5.588   2.520   5.829
  230POPC   NC3 3122   1.305   6.050   3.895
  230POPC   PO4 3123   0.980   5.577   3.763
  230POPC   GL1 3124   1.002   5.819   4.214
  230POPC   GL2 3125   1.352   5.778   4.303
  230POPC   C1A 3126   1.066   6.026   4.658
  230POPC   D2A 3127   0.853   5.944   5.057
  230POPC   C3A 3128   1.033   6.057   5.442
  230POPC   C4A 3129   0.976   6.254   5.821
  230POPC   C1B 3130   1.272   5.557   4.685
  230POPC   C2B 3131   1.127   5.501   5.086
  230POPC   C3B 3132   1.314   5.567   5.464
  230POPC   C4B 3133   1.167   5.737   5.816
  231POPC   NC3 3134   4.939   8.553   4.048
  231POPC   PO4 3135   5.447   8.033   3.924
  231POPC   GL1 3136   5.314   8.292   4.310
  231POPC   GL2 3137   4.993   8.245   4.447
  231POPC   C1A 3138   5.371   8.504   4.739
  231POPC   D2A 3139   5.183   8.655   5.152
  231POPC   C3A 3140   5.267   8.508   5.585
  231POPC   C4A 3141   5.150   8.242   5.922
  231POPC   C1B 3142   5.001   8.198   4.910
  231POPC   C2B 3143   4.945   8.162   5.384
  231POPC   C3B 3144   4.826   7.886   5.748
  231POPC   C4B 3145   5.020   7.797   6.170
  232POPC   NC3 3146   7.114   1.883   3.645
  232POPC   PO4 3147   7.648   2.164   4.046
  232POPC   GL1 3148   7.614   2.071   4.450
  232POPC   GL2 3149   7.679   1.711   4.348
  232POPC   C1A 3150   7.322   1.989   4.815
  232POPC   D2A 3151   7.293   1.994   5.263
  232POPC   C3A 3152   6.945   2.169   5.535
  232POPC   C4A 3153   6.904   2.104   5.985
  232POPC   C1B 3154   7.799   1.787   4.810
  232POPC   C2B 3155   7.777   1.681   5.245
  232POPC   C3B 3156   7.702   1.782   5.662
  232POPC   C4B 3157   7.351   2.006   5.772
  233POPC   NC3 3158   0.463   0.865   3.882
  233POPC   PO4 3159   0.669   1.558   3.882
  233POPC   GL1 3160   0.535   1.244   4.235
  233POPC   GL2 3161   0.185   1.127   4.240
  233POPC   C1A 3162   0.526   0.995   4.655
  233POPC   D2A 3163   0.745   0.880   5.068
  233POPC   C3A 3164   0.718   0.906   5.548
  233POPC   C4A 3165   0.641   1.184   5.930
  233POPC   C1B 3166   0.203   1.376   4.625
  233POPC   C2B 3167   0.485   1.362   5.005
  233POPC   C3B 3168   0.452   1.352   5.458
  233POPC   C4B 3169   0.207   1.435   5.846
  234POPC   NC3 3170   2.957   3.733   3.780
  234POPC   PO4 3171   2.349   3.961   3.644
  234POPC   GL1 3172   2.389   3.781   4.118
  234POPC   GL2 3173   2.566   3.443   4.082
  234POPC   C1A 3174   2.624   3.804   4.587
  234POPC   D2A 3175   2.777   3.740   5.049
  234POPC   C3A 3176   2.617   3.662   5.485
  234POPC   C4A 3177   2.638   3.731   5.968
  234POPC   C1B 3178   2.841   3.355   4.481
  234POPC   C2B 3179   3.043   3.310   4.922
  234POPC   C3B 3180   3.094   3.468   5.367
  234POPC   C4B 3181   2.916   3.362   5.778
  235POPC   NC3 3182   0.368   3.209   3.921
  235POPC   PO4 3183   0.397   2.520   3.871
  235POPC   GL1 3184   0.230   2.797   4.254
  235POPC   GL2 3185   9.946   2.618   4.414
  235POPC   C1A 3186   0.220   2.920   4.736
  235POPC   D2A 3187   0.435   2.871   5.152
  235POPC   C3A 3188   0.279   2.864   5.581
  235POPC   C4A 3189   0.130   3.087   5.947
  235POPC   C1B 3190   9.965   2.503   4.888
  235POPC   C2B 3191   0.311   2.325   5.175
  235POPC   C3B 3192   0.687   2.485   5.405
  235POPC   C4B 3193   0.793   2.792   5.702
  236POPC   NC3 3194   1.876   1.314   4.044
  236POPC   PO4 3195   1.692   0.642   4.006
  236POPC   GL1 3196   1.915   0.843   4.331
  236POPC   GL2 3197   2.228   0.724   4.414
  236POPC   C1A 3198   1.925   0.951   4.782
  236POPC   D2A 3199   1.686   0.976   5.141
  236POPC   C3A 3200   1.824   0.789   5.495
  236POPC   C4A 3201   1.655   0.877   5.872
  236POPC   C1B 3202   2.285   1.191   4.545
  236POPC   C2B 3203   2.264   1.314   4.970
  236POPC   C3B 3204   2.021   1.376   5.330
  236POPC   C4B 3205   2.051   1.187   5.740
  237POPC   NC3 3206   2.719   9.801   3.926
  237POPC   PO4 3207   3.106   9.204   4.109
  237POPC   GL1 3208   2.914   9.402   4.499
  237POPC   GL2 3209   2.629   9.595   4.387
  237POPC   C1A 3210   2.686   9.512   4.902
  237POPC   D2A 3211   2.457   9.258   5.195
  237POPC   C3A 3212   2.521   9.301   5.614
  237POPC   C4A 3213   2.863   9.311   5.830
  237POPC   C1B 3214   2.865   9.909   4.627
  237POPC   C2B 3215   2.892   9.981   5.072
  237POPC   C3B 3216   2.630   9.756   5.381
  237POPC   C4B 3217   2.604   9.773   5.818
  238POPC   NC3 3218   7.790   4.402   3.934
  238POPC   PO4 3219   8.471   4.504   3.913
  238POPC   GL1 3220   8.192   4.459   4.264
  238POPC   GL2 3221   8.092   4.087   4.251
  238POPC   C1A 3222   8.297   4.607   4.685
  238POPC   D2A 3223   8.595   4.457   4.986
  238POPC   C3A 3224   8.426   4.433   5.375
  238POPC   C4A 3225   8.071   4.351   5.642
  238POPC   C1B 3226   8.223   3.908   4.701
  238POPC   C2B 3227   8.287   3.978   5.172
  238POPC   C3B 3228   8.403   3.985   5.653
  238POPC   C4B 3229   8.193   3.840   6.090
  239POPC   NC3 3230   9.601   6.696   3.946
  239POPC   PO4 3231   9.941   6.178   4.255
  239POPC   GL1 3232   9.711   6.525   4.436
  239POPC   GL2 3233   9.888   6.860   4.341
  239POPC   C1A 3234   9.520   6.479   4.855
  239POPC   D2A 3235   9.429   6.228   5.226
  239POPC   C3A 3236   9.531   6.391   5.654
  239POPC   C4A 3237   9.481   6.406   6.159
  239POPC   C1B 3238   9.720   6.948   4.742
  239POPC   C2B 3239   9.772   6.826   5.169
  239POPC   C3B 3240   9.830   6.994   5.576
  239POPC   C4B 3241   9.667   6.815   5.926
  240POPC   NC3 3242   5.616   1.002   4.089
  240POPC   PO4 3243   5.900   1.489   3.682
  240POPC   GL1 3244   5.874   1.518   4.195
  240POPC   GL2 3245   5.570   1.501   4.360
  240POPC   C1A 3246   5.918   1.333   4.671
  240POPC   D2A 3247   6.047   0.990   4.980
  240POPC   C3A 3248   5.906   1.082   5.418
  240POPC   C4A 3249   5.866   0.947   5.852
  240POPC   C1B 3250   5.438   1.624   4.778
  240POPC   C2B 3251   5.518   1.473   5.196
  240POPC   C3B 3252   5.632   1.478   5.635
  240POPC   C4B 3253   5.428   1.224   5.945
  241POPC   NC3 3254   2.142   0.557   3.927
  241POPC   PO4 3255   1.705   0.178   3.537
  241POPC   GL1 3256   1.710   0.107   4.047
  241POPC   GL2 3257   1.953   0.286   4.287
  241POPC   C1A 3258   1.682   9.988   4.548
  241POPC   D2A 3259   1.839   9.983   4.987
  241POPC   C3A 3260   1.696   0.294   5.313
  241POPC   C4A 3261   1.730   0.346   5.781
  241POPC   C1B 3262   1.897   0.432   4.723
  241POPC   C2B 3263   2.114   0.590   5.104
  241POPC   C3B 3264   2.321   0.621   5.522
  241POPC   C4B 3265   2.114   0.670   5.938
  242POPC   NC3 3266   6.422   3.243   3.465
  242POPC   PO4 3267   6.123   3.256   4.046
  242POPC   GL1 3268   6.518   3.205   4.376
  242POPC   GL2 3269   6.925   3.218   4.306
  242POPC   C1A 3270   6.431   3.165   4.831
  242POPC   D2A 3271   6.275   3.360   5.221
  242POPC   C3A 3272   6.453   3.207   5.617
  242POPC   C4A 3273   6.552   3.460   5.977
  242POPC   C1B 3274   6.921   3.332   4.777
  242POPC   C2B 3275   6.795   3.318   5.220
  242POPC   C3B 3276   6.990   3.311   5.621
  242POPC   C4B 3277   6.896   3.079   5.996
  243POPC   NC3 3278   3.496   0.410   3.765
  243POPC   PO4 3279   3.194   1.008   3.909
  243POPC   GL1 3280   3.464   0.722   4.212
  243POPC   GL2 3281   3.626   0.364   4.238
  243POPC   C1A 3282   3.469   0.553   4.673
  243POPC   D2A 3283   3.372   0.171   4.956
  243POPC   C3A 3284   3.236   0.245   5.410
  243POPC   C4A 3285   3.379   0.457   5.806
  243POPC   C1B 3286   3.849   0.235   4.627
  243POPC   C2B 3287   3.808   0.440   5.047
  243POPC   C3B 3288   3.766   0.279   5.461
  243POPC   C4B 3289   3.875   0.312   5.889
  244POPC   NC3 3290   8.768   1.702   3.957
  244POPC   PO4 3291   9.215   2.080   3.715
  244POPC   GL1 3292   9.210   2.075   4.270
  244POPC   GL2 3293   9.149   1.737   4.308
  244POPC   C1A 3294   9.007   2.274   4.719
  244POPC   D2A 3295   8.643   2.239   5.089
  244POPC   C3A 3296   8.669   2.096   5.553
  244POPC   C4A 3297   8.782   2.091   6.023
  244POPC   C1B 3298   9.265   1.833   4.723
  244POPC   C2B 3299   9.155   2.005   5.148
  244POPC   C3B 3300   9.075   1.801   5.548
  244POPC   C4B 3301   8.702   1.634   5.792
  245POPC   NC3 3302   0.326   9.818   3.991
  245POPC   PO4 3303   0.740   9.312   3.834
  245POPC   GL1 3304   0.637   9.441   4.249
  245POPC   GL2 3305   0.327   9.357   4.364
  245POPC   C1A 3306   0.681   9.506   4.717
  245POPC   D2A 3307   0.538   9.561   5.138
  245POPC   C3A 3308   0.789   9.373   5.475
  245POPC   C4A 3309   0.465   9.310   5.792
  245POPC   C1B 3310   0.172   9.601   4.733
  245POPC   C2B 3311   0.071   9.791   5.127
  245POPC   C3B 3312   0.279   9.783   5.535
  245POPC   C4B 3313   0.121   9.657   5.929
  246POPC   NC3 3314   7.314   8.725   3.892
  246POPC   PO4 3315   6.790   9.291   4.097
  246POPC   GL1 3316   7.180   9.106   4.302
  246POPC   GL2 3317   7.478   8.940   4.327
  246POPC   C1A 3318   7.148   8.881   4.706
  246POPC   D2A 3319   6.919   8.996   5.084
  246POPC   C3A 3320   7.153   8.926   5.470
  246POPC   C4A 3321   7.027   9.081   5.892
  246POPC   C1B 3322   7.668   8.956   4.757
  246POPC   C2B 3323   7.652   8.902   5.225
  246POPC   C3B 3324   7.548   8.579   5.553
  246POPC   C4B 3325   7.242   8.564   5.845
  247POPC   NC3 3326   5.690   7.638   3.977
  247POPC   PO4 3327   6.133   7.113   3.991
  247POPC   GL1 3328   6.055   7.455   4.320
  247POPC   GL2 3329   5.730   7.378   4.428
  247POPC   C1A 3330   5.937   7.641   4.788
  247POPC   D2A 3331   5.903   7.870   5.242
  247POPC   C3A 3332   5.897   7.647   5.659
  247POPC   C4A 3333   5.890   7.578   6.120
  247POPC   C1B 3334   6.077   7.159   4.726
  247POPC   C2B 3335   6.330   7.270   5.132
  247POPC   C3B 3336   6.264   7.228   5.596
  247POPC   C4B 3337   5.902   7.131   5.863
  248POPC   NC3 3338   2.751   0.908   3.781
  248POPC   PO4 3339   2.603   0.249   3.882
  248POPC   GL1 3340   2.938   0.546   4.119
  248POPC   GL2 3341   3.123   0.308   4.346
  248POPC   C1A 3342   3.056   0.795   4.532
  248POPC   D2A 3343   3.082   0.640   4.991
  248POPC   C3A 3344   2.857   0.716   5.389
  248POPC   C4A 3345   2.885   0.650   5.846
  248POPC   C1B 3346   2.740   0.400   4.620
  248POPC   C2B 3347   2.604   0.411   5.072
  248POPC   C3B 3348   2.706   0.245   5.511
  248POPC   C4B 3349   2.498   0.292   5.909
  249POPC   NC3 3350   8.812   6.705   3.877
  249POPC   PO4 3351   8.674   6.075   4.009
  249POPC   GL1 3352   8.739   6.457   4.310
  249POPC   GL2 3353   9.106   6.644   4.294
  249POPC   C1A 3354   8.776   6.631   4.718
  249POPC   D2A 3355   9.048   6.591   5.082
  249POPC   C3A 3356   8.917   6.423   5.457
  249POPC   C4A 3357   8.771   6.357   5.862
  249POPC   C1B 3358   9.227   6.854   4.668
  249POPC   C2B 3359   9.291   7.036   5.107
  249POPC   C3B 3360   9.340   6.857   5.510
  249POPC   C4B 3361   9.156   6.669   5.875
  250POPC   NC3 3362   4.834   9.536   3.897
  250POPC   PO4 3363   5.558   9.616   3.800
  250POPC   GL1 3364   5.367   9.596   4.260
  250POPC   GL2 3365   5.060   9.399   4.324
  250POPC   C1A 3366   5.371   9.699   4.709
  250POPC   D2A 3367   5.468   9.526   5.138
  250POPC   C3A 3368   5.270   9.752   5.495
  250POPC   C4A 3369   5.301   9.868   5.955
  250POPC   C1B 3370   4.786   9.385   4.708
  250POPC   C2B 3371   4.852   9.673   5.053
  250POPC   C3B 3372   4.737   9.741   5.476
  250POPC   C4B 3373   4.889   9.579   5.865
  251POPC   NC3 3374   7.257   1.918   4.125
  251POPC   PO4 3375   6.640   1.850   3.794
  251POPC   GL1 3376   6.698   1.785   4.217
  251POPC   GL2 3377   6.368   1.697   4.312
  251POPC   C1A 3378   6.870   1.701   4.642
  251POPC   D2A 3379   6.834   1.955   5.025
  251POPC   C3A 3380   6.786   1.723   5.398
  251POPC   C4A 3381   6.818   1.613   5.838
  251POPC   C1B 3382   6.415   1.920   4.717
  251POPC   C2B 3383   6.349   1.941   5.196
  251POPC   C3B 3384   6.467   2.021   5.662
  251POPC   C4B 3385   6.378   1.799   6.058
  252POPC   NC3 3386   1.552   2.005   3.890
  252POPC   PO4 3387   1.420   1.405   3.991
  252POPC   GL1 3388   1.450   1.679   4.360
  252POPC   GL2 3389   1.363   2.030   4.361
  252POPC   C1A 3390   1.285   1.767   4.814
  252POPC   D2A 3391   1.058   1.691   5.249
  252POPC   C3A 3392   1.260   1.736   5.696
  252POPC   C4A 3393   1.490   1.823   6.132
  252POPC   C1B 3394   1.070   2.213   4.636
  252POPC   C2B 3395   0.928   2.163   5.050
  252POPC   C3B 3396   1.211   2.181   5.384
  252POPC   C4B 3397   1.123   2.373   5.748
  253POPC   NC3 3398   0.169   3.641   4.005
  253POPC   PO4 3399   0.818   3.229   4.008
  253POPC   GL1 3400   0.596   3.212   4.376
  253POPC   GL2 3401   0.445   3.541   4.407
  253POPC   C1A 3402   0.586   3.261   4.807
  253POPC   D2A 3403   0.508   3.557   5.102
  253POPC   C3A 3404   0.497   3.326   5.462
  253POPC   C4A 3405   0.625   3.244   5.856
  253POPC   C1B 3406   0.392   3.898   4.697
  253POPC   C2B 3407   0.147   3.937   5.077
  253POPC   C3B 3408   0.219   3.775   5.487
  253POPC   C4B 3409   0.335   3.651   5.902
  254POPC   NC3 3410   3.915   9.735   3.557
  254POPC   PO4 3411   4.379   9.419   3.788
  254POPC   GL1 3412   4.485   9.348   4.241
  254POPC   GL2 3413   4.596   9.692   4.353
  254POPC   C1A 3414   4.248   9.445   4.654
  254POPC   D2A 3415   4.336   9.599   5.106
  254POPC   C3A 3416   4.092   9.366   5.472
  254POPC   C4A 3417   3.829   9.563   5.823
  254POPC   C1B 3418   4.287   9.949   4.648
  254POPC   C2B 3419   4.075   0.022   5.070
  254POPC   C3B 3420   4.102   9.885   5.513
  254POPC   C4B 3421   4.367   9.641   5.824
  255POPC   NC3 3422   2.648   9.152   4.147
  255POPC   PO4 3423   2.695   8.522   3.885
  255POPC   GL1 3424   2.657   8.631   4.311
  255POPC   GL2 3425   2.935   8.831   4.438
  255POPC   C1A 3426   2.427   8.659   4.696
  255POPC   D2A 3427   2.377   8.497   5.139
  255POPC   C3A 3428   2.488   8.806   5.444
  255POPC   C4A 3429   2.866   8.815   5.709
  255POPC   C1B 3430   2.771   9.015   4.815
  255POPC   C2B 3431   2.920   9.017   5.214
  255POPC   C3B 3432   3.232   8.710   5.314
  255POPC   C4B 3433   3.293   8.531   5.714
  256POPC   NC3 3434   0.313   9.045   3.846
  256POPC   PO4 3435   0.895   8.676   4.073
  256POPC   GL1 3436   0.598   8.907   4.239
  256POPC   GL2 3437   0.376   8.647   4.213
  256POPC   C1A 3438   0.485   8.976   4.652
  256POPC   D2A 3439   0.690   9.075   5.016
  256POPC   C3A 3440   0.534   8.945   5.399
  256POPC   C4A 3441   0.729   8.869   5.794
  256POPC   C1B 3442   0.103   8.622   4.596
  256POPC   C2B 3443   0.221   8.704   5.020
  256POPC   C3B 3444   0.050   8.788   5.417
  256POPC   C4B 3445   0.175   8.917   5.827
  257POPC   NC3 3446   6.347   1.321   3.800
  257POPC   PO4 3447   6.808   0.793   3.866
  257POPC   GL1 3448   6.886   1.053   4.224
  257POPC   GL2 3449   6.619   1.262   4.238
  257POPC   C1A 3450   6.929   1.188   4.668
  257POPC   D2A 3451   6.971   1.026   5.102
  257POPC   C3A 3452   6.836   1.222   5.481
  257POPC   C4A 3453   6.531   1.086   5.786
  257POPC   C1B 3454   6.438   1.332   4.644
  257POPC   C2B 3455   6.572   1.408   5.058
  257POPC   C3B 3456   6.349   1.473   5.474
  257POPC   C4B 3457   6.129   1.384   5.861
  258POPC   NC3 3458   5.231   1.474   3.654
  258POPC   PO4 3459   4.795   0.943   3.884
  258POPC   GL1 3460   5.132   0.998   4.275
  258POPC   GL2 3461   4.921   1.138   4.461
  258POPC   C1A 3462   5.424   1.087   4.674
  258POPC   D2A 3463   5.480   0.973   5.114
  258POPC   C3A 3464   5.092   0.983   5.338
  258POPC   C4A 3465   4.961   0.995   5.772
  258POPC   C1B 3466   5.011   1.278   4.880
  258POPC   C2B 3467   4.846   1.432   5.268
  258POPC   C3B 3468   5.104   1.457   5.616
  258POPC   C4B 3469   4.966   1.429   6.061
  259POPC   NC3 3470   6.444   7.457   3.966
  259POPC   PO4 3471   7.086   7.417   3.958
  259POPC   GL1 3472   7.083   7.403   4.399
  259POPC   GL2 3473   6.778   7.540   4.358
  259POPC   C1A 3474   6.976   7.338   4.831
  259POPC   D2A 3475   6.792   7.530   5.180
  259POPC   C3A 3476   6.774   7.351   5.572
  259POPC   C4A 3477   6.969   6.954   5.618
  259POPC   C1B 3478   6.461   7.500   4.662
  259POPC   C2B 3479   6.372   7.763   5.005
  259POPC   C3B 3480   6.379   7.725   5.456
  259POPC   C4B 3481   6.353   7.628   5.908
  260POPC   NC3 3482   6.142   1.824   3.873
  260POPC   PO4 3483   6.165   2.374   4.067
  260POPC   GL1 3484   5.983   2.023   4.326
  260POPC   GL2 3485   5.662   2.003   4.384
  260POPC   C1A 3486   5.929   1.824   4.771
  260POPC   D2A 3487   5.788   1.907   5.196
  260POPC   C3A 3488   5.992   1.864   5.592
  260POPC   C4A 3489   6.042   2.165   5.937
  260POPC   C1B 3490   5.549   2.171   4.796
  260POPC   C2B 3491   5.459   2.290   5.236
  260POPC   C3B 3492   5.498   2.039   5.641
  260POPC   C4B 3493   5.333   1.763   5.966
  261POPC   NC3 3494   0.655   8.249   4.056
  261POPC   PO4 3495   0.147   7.800   3.938
  261POPC   GL1 3496   0.413   7.853   4.284
  261POPC   GL2 3497   0.255   8.177   4.381
  261POPC   C1A 3498   0.512   7.927   4.730
  261POPC   D2A 3499   0.277   8.185   5.051
  261POPC   C3A 3500   0.238   8.016   5.482
  261POPC   C4A 3501   0.410   8.078   5.913
  261POPC   C1B 3502   0.559   8.447   4.677
  261POPC   C2B 3503   0.689   8.518   5.115
  261POPC   C3B 3504   0.490   8.459   5.548
  261POPC   C4B 3505   0.077   8.429   5.787
  262POPC   NC3 3506   9.903   8.208   3.938
  262POPC   PO4 3507   9.374   7.821   3.792
  262POPC   GL1 3508   9.525   7.985   4.199
  262POPC   GL2 3509   9.835   7.851   4.324
  262POPC   C1A 3510   9.427   7.847   4.656
  262POPC   D2A 3511   9.644   7.914   5.062
  262POPC   C3A 3512   9.468   7.886   5.499
  262POPC   C4A 3513   9.734   7.827   5.886
  262POPC   C1B 3514   9.768   8.227   4.593
  262POPC   C2B 3515   9.815   8.409   4.983
  262POPC   C3B 3516   9.798   8.305   5.388
  262POPC   C4B 3517   9.591   8.310   5.784
  263POPC   NC3 3518   9.618   0.582   4.047
  263POPC   PO4 3519   0.045   0.098   3.725
  263POPC   GL1 3520   9.897   0.159   4.194
  263POPC   GL2 3521   9.589   0.143   4.379
  263POPC   C1A 3522   0.006   0.124   4.669
  263POPC   D2A 3523   9.833   0.262   5.104
  263POPC   C3A 3524   9.990   0.237   5.552
  263POPC   C4A 3525   0.044   0.419   6.015
  263POPC   C1B 3526   9.674   0.507   4.673
  263POPC   C2B 3527   9.482   0.678   5.038
  263POPC   C3B 3528   9.701   0.690   5.428
  263POPC   C4B 3529   9.593   0.451   5.807
  264POPC   NC3 3530   4.322   8.965   3.888
  264POPC   PO4 3531   4.551   8.356   3.834
  264POPC   GL1 3532   4.470   8.632   4.259
  264POPC   GL2 3533   4.110   8.734   4.354
  264POPC   C1A 3534   4.461   8.982   4.614
  264POPC   D2A 3535   4.281   9.105   5.030
  264POPC   C3A 3536   4.586   9.236   5.360
  264POPC   C4A 3537   4.583   9.140   5.775
  264POPC   C1B 3538   4.193   8.628   4.841
  264POPC   C2B 3539   4.226   8.656   5.305
  264POPC   C3B 3540   4.188   8.829   5.710
  264POPC   C4B 3541   3.987   8.763   6.120
  265POPC   NC3 3542   8.370   5.811   3.804
  265POPC   PO4 3543   7.774   5.816   3.958
  265POPC   GL1 3544   8.068   5.740   4.335
  265POPC   GL2 3545   8.421   5.796   4.334
  265POPC   C1A 3546   8.223   5.744   4.821
  265POPC   D2A 3547   8.231   5.721   5.302
  265POPC   C3A 3548   7.890   5.906   5.599
  265POPC   C4A 3549   7.533   6.183   5.766
  265POPC   C1B 3550   8.548   6.116   4.678
  265POPC   C2B 3551   8.652   5.993   5.129
  265POPC   C3B 3552   8.462   6.112   5.539
  265POPC   C4B 3553   8.275   5.924   5.929
  266POPC   NC3 3554   8.760   0.420   3.745
  266POPC   PO4 3555   9.325   0.249   3.956
  266POPC   GL1 3556   9.050   0.476   4.199
  266POPC   GL2 3557   8.744   0.289   4.280
  266POPC   C1A 3558   9.179   0.460   4.613
  266POPC   D2A 3559   9.360   0.163   4.904
  266POPC   C3A 3560   9.368   0.262   5.359
  266POPC   C4A 3561   9.112   0.453   5.680
  266POPC   C1B 3562   8.691   0.513   4.694
  266POPC   C2B 3563   8.935   0.445   5.064
  266POPC   C3B 3564   8.720   0.346   5.405
  266POPC   C4B 3565   8.508   0.637   5.629
  267POPC   NC3 3566   6.592   2.340   3.873
  267POPC   PO4 3567   6.273   2.836   3.609
  267POPC   GL1 3568   6.461   2.810   4.067
  267POPC   GL2 3569   6.791   2.712   4.180
  267POPC   C1A 3570   6.386   2.719   4.552
  267POPC   D2A 3571   6.555   2.399   4.870
  267POPC   C3A 3572   6.548   2.426   5.330
  267POPC   C4A 3573   6.336   2.540   5.724
  267POPC   C1B 3574   6.866   2.834   4.627
  267POPC   C2B 3575   6.747   2.843   5.054
  267POPC   C3B 3576   6.810   2.847   5.484
  267POPC   C4B 3577   6.825   2.586   5.834
  268POPC   NC3 3578   1.067   9.158   4.118
  268POPC   PO4 3579   1.571   9.325   3.723
  268POPC   GL1 3580   1.558   9.101   4.202
  268POPC   GL2 3581   1.374   8.782   4.340
  268POPC   C1A 3582   1.413   9.182   4.650
  268POPC   D2A 3583   1.165   9.276   4.985
  268POPC   C3A 3584   1.398   9.238   5.366
  268POPC   C4A 3585   1.210   9.056   5.711
  268POPC   C1B 3586   1.087   8.777   4.739
  268POPC   C2B 3587   1.087   8.822   5.199
  268POPC   C3B 3588   1.015   8.551   5.523
  268POPC   C4B 3589   1.232   8.575   5.884
  269POPC   NC3 3590   1.714   2.686   3.985
  269POPC   PO4 3591   2.333   2.465   3.882
  269POPC   GL1 3592   2.285   2.531   4.337
  269POPC   GL2 3593   2.105   2.832   4.303
  269POPC   C1A 3594   2.344   2.582   4.833
  269POPC   D2A 3595   2.455   2.677   5.302
  269POPC   C3A 3596   2.323   2.534   5.725
  269POPC   C4A 3597   2.310   2.389   6.169
  269POPC   C1B 3598   2.046   3.008   4.707
  269POPC   C2B 3599   2.008   2.882   5.137
  269POPC   C3B 3600   2.001   2.921   5.586
  269POPC   C4B 3601   1.767   3.148   5.870
  270POPC   NC3 3602   0.550   6.591   3.945
  270POPC   PO4 3603   0.219   6.091   3.732
  270POPC   GL1 3604   0.439   6.160   4.180
  270POPC   GL2 3605   0.310   6.508   4.379
  270POPC   C1A 3606   0.568   6.146   4.622
  270POPC   D2A 3607   0.616   6.432   4.986
  270POPC   C3A 3608   0.664   6.426   5.444
  270POPC   C4A 3609   0.469   6.335   5.867
  270POPC   C1B 3610   0.098   6.512   4.801
  270POPC   C2B 3611   0.145   6.418   5.245
  270POPC   C3B 3612   0.242   6.695   5.589
  270POPC   C4B 3613   0.173   6.858   6.005
  271POPC   NC3 3614   9.784   7.468   3.898
  271POPC   PO4 3615   9.248   7.023   3.957
  271POPC   GL1 3616   9.415   7.157   4.313
  271POPC   GL2 3617   9.417   7.496   4.250
  271POPC   C1A 3618   9.290   7.357   4.726
  271POPC   D2A 3619   9.232   7.588   5.119
  271POPC   C3A 3620   9.276   7.381   5.528
  271POPC   C4A 3621   9.548   7.307   5.904
  271POPC   C1B 3622   9.760   7.434   4.585
  271POPC   C2B 3623   9.707   7.374   5.052
  271POPC   C3B 3624   9.804   7.499   5.481
  271POPC   C4B 3625   0.053   7.372   5.876
  272POPC   NC3 3626   7.018   0.384   3.970
  272POPC   PO4 3627   7.582   0.684   4.182
  272POPC   GL1 3628   7.197   0.669   4.355
  272POPC   GL2 3629   7.127   0.281   4.448
  272POPC   C1A 3630   6.997   0.670   4.735
  272POPC   D2A 3631   7.061   0.316   4.974
  272POPC   C3A 3632   7.183   0.320   5.396
  272POPC   C4A 3633   7.042   0.323   5.835
  272POPC   C1B 3634   7.523   0.288   4.702
  272POPC   C2B 3635   7.882   0.240   4.989
  272POPC   C3B 3636   7.727   0.197   5.399
  272POPC   C4B 3637   7.532   0.485   5.724
  273POPC   NC3 3638   9.611   9.907   3.862
  273POPC   PO4 3639   0.015   9.400   3.981
  273POPC   GL1 3640   9.896   9.666   4.322
  273POPC   GL2 3641   9.593   9.618   4.281
  273POPC   C1A 3642   9.675   9.767   4.766
  273POPC   D2A 3643   9.482   9.754   5.189
  273POPC   C3A 3644   9.751   9.760   5.548
  273POPC   C4A 3645   9.728   9.981   5.939
  273POPC   C1B 3646   9.503   9.321   4.628
  273POPC   C2B 3647   9.666   9.278   5.063
  273POPC   C3B 3648   9.456   9.307   5.472
  273POPC   C4B 3649   9.344   9.631   5.840
  274POPC   NC3 3650   0.552   2.024   3.882
  274POPC   PO4 3651   0.470   2.382   4.411
  274POPC   GL1 3652   0.694   1.983   4.385
  274POPC   GL2 3653   0.444   1.750   4.336
  274POPC   C1A 3654   0.754   1.748   4.780
  274POPC   D2A 3655   0.542   1.833   5.204
  274POPC   C3A 3656   0.766   2.016   5.572
  274POPC   C4A 3657   0.656   2.308   5.951
  274POPC   C1B 3658   0.227   1.866   4.738
  274POPC   C2B 3659   0.049   1.629   5.065
  274POPC   C3B 3660   0.096   1.741   5.462
  274POPC   C4B 3661   0.246   2.113   5.680
  275POPC   NC3 3662   9.561   1.041   3.736
  275POPC   PO4 3663   8.976   0.835   3.728
  275POPC   GL1 3664   9.280   0.937   4.162
  275POPC   GL2 3665   9.650   1.070   4.226
  275POPC   C1A 3666   9.333   1.216   4.589
  275POPC   D2A 3667   9.572   1.185   4.983
  275POPC   C3A 3668   9.396   1.168   5.381
  275POPC   C4A 3669   9.374   0.908   5.752
  275POPC   C1B 3670   9.863   0.983   4.611
  275POPC   C2B 3671   0.073   1.034   5.024
  275POPC   C3B 3672   9.928   1.234   5.418
  275POPC   C4B 3673   9.751   1.222   5.846
  276POPC   NC3 3674   3.659   1.164   3.931
  276POPC   PO4 3675   3.174   1.667   4.108
  276POPC   GL1 3676   3.410   1.535   4.449
  276POPC   GL2 3677   3.318   1.222   4.340
  276POPC   C1A 3678   3.560   1.488   4.900
  276POPC   D2A 3679   3.328   1.569   5.304
  276POPC   C3A 3680   3.438   1.360   5.679
  276POPC   C4A 3681   3.275   1.404   6.141
  276POPC   C1B 3682   3.608   1.045   4.587
  276POPC   C2B 3683   3.644   0.929   4.991
  276POPC   C3B 3684   3.515   0.719   5.371
  276POPC   C4B 3685   3.761   0.796   5.728
  277POPC   NC3 3686   2.367   2.926   3.817
  277POPC   PO4 3687   2.990   3.144   3.796
  277POPC   GL1 3688   2.756   2.951   4.137
  277POPC   GL2 3689   2.757   2.601   4.125
  277POPC   C1A 3690   2.545   2.952   4.538
  277POPC   D2A 3691   2.760   2.872   4.931
  277POPC   C3A 3692   2.809   3.055   5.342
  277POPC   C4A 3693   2.599   2.964   5.746
  277POPC   C1B 3694   2.781   2.484   4.562
  277POPC   C2B 3695   2.808   2.376   5.008
  277POPC   C3B 3696   2.960   2.571   5.380
  277POPC   C4B 3697   2.840   2.476   5.791
  278POPC   NC3 3698   0.512   0.360   3.818
  278POPC   PO4 3699   9.968   0.844   3.859
  278POPC   GL1 3700   0.166   0.598   4.239
  278POPC   GL2 3701   0.375   0.248   4.301
  278POPC   C1A 3702   0.195   0.600   4.711
  278POPC   D2A 3703   0.283   0.539   5.168
  278POPC   C3A 3704   0.225   0.717   5.591
  278POPC   C4A 3705   0.522   0.604   5.950
  278POPC   C1B 3706   0.490   0.007   4.676
  278POPC   C2B 3707   0.524   0.075   5.135
  278POPC   C3B 3708   0.497   0.244   5.584
  278POPC   C4B 3709   0.424   0.092   6.042
  279POPC   NC3 3710   4.064   2.697   3.967
  279POPC   PO4 3711   4.555   2.290   3.929
  279POPC   GL1 3712   4.523   2.592   4.266
  279POPC   GL2 3713   4.179   2.645   4.435
  279POPC   C1A 3714   4.569   2.516   4.739
  279POPC   D2A 3715   4.295   2.560   5.107
  279POPC   C3A 3716   4.459   2.411   5.484
  279POPC   C4A 3717   4.674   2.350   5.856
  279POPC   C1B 3718   3.967   2.807   4.746
  279POPC   C2B 3719   3.782   2.785   5.150
  279POPC   C3B 3720   3.931   2.616   5.557
  279POPC   C4B 3721   4.193   2.533   5.933
  280POPC   NC3 3722   4.288   1.932   3.811
  280POPC   PO4 3723   4.914   1.797   3.766
  280POPC   GL1 3724   4.670   1.882   4.187
  280POPC   GL2 3725   4.712   2.143   4.397
  280POPC   C1A 3726   4.493   1.731   4.600
  280POPC   D2A 3727   4.484   2.051   4.934
  280POPC   C3A 3728   4.559   1.906   5.312
  280POPC   C4A 3729   4.376   1.944   5.704
  280POPC   C1B 3730   4.252   2.167   4.496
  280POPC   C2B 3731   3.987   2.237   4.881
  280POPC   C3B 3732   4.037   2.155   5.347
  280POPC   C4B 3733   3.896   2.135   5.795
  281POPC   NC3 3734   3.575   9.344   4.082
  281POPC   PO4 3735   3.543   9.944   3.724
  281POPC   GL1 3736   3.585   9.851   4.195
  281POPC   GL2 3737   3.286   9.740   4.368
  281POPC   C1A 3738   3.762   9.702   4.627
  281POPC   D2A 3739   3.808   9.543   5.059
  281POPC   C3A 3740   3.565   9.783   5.381
  281POPC   C4A 3741   3.510   9.969   5.803
  281POPC   C1B 3742   3.264   9.644   4.845
  281POPC   C2B 3743   3.084   9.541   5.261
  281POPC   C3B 3744   3.090   9.734   5.666
  281POPC   C4B 3745   3.033   9.692   6.144
  282POPC   NC3 3746   8.613   4.862   3.602
  282POPC   PO4 3747   8.896   5.304   4.039
  282POPC   GL1 3748   9.046   5.305   4.419
  282POPC   GL2 3749   9.099   4.984   4.403
  282POPC   C1A 3750   9.139   5.371   4.842
  282POPC   D2A 3751   9.148   5.156   5.223
  282POPC   C3A 3752   9.165   5.424   5.571
  282POPC   C4A 3753   8.925   5.397   5.986
  282POPC   C1B 3754   8.902   4.888   4.820
  282POPC   C2B 3755   8.718   4.883   5.253
  282POPC   C3B 3756   8.790   5.066   5.630
  282POPC   C4B 3757   8.720   4.927   6.092
  283POPC   NC3 3758   3.512   6.639   4.012
  283POPC   PO4 3759   3.045   6.241   3.982
  283POPC   GL1 3760   3.299   6.335   4.407
  283POPC   GL2 3761   3.610   6.547   4.497
  283POPC   C1A 3762   3.390   6.287   4.887
  283POPC   D2A 3763   3.204   6.513   5.227
  283POPC   C3A 3764   3.317   6.480   5.639
  283POPC   C4A 3765   3.453   6.544   6.077
  283POPC   C1B 3766   3.534   6.787   4.902
  283POPC   C2B 3767   3.423   6.954   5.344
  283POPC   C3B 3768   3.671   6.860   5.702
  283POPC   C4B 3769   3.941   6.750   6.044
  284POPC   NC3 3770   1.140   9.525   3.688
  284POPC   PO4 3771   0.776   0.007   3.942
  284POPC   GL1 3772   0.892   9.870   4.368
  284POPC   GL2 3773   1.119   9.571   4.486
  284POPC   C1A 3774   0.975   9.968   4.788
  284POPC   D2A 3775   1.001   9.730   5.138
  284POPC   C3A 3776   0.848   9.886   5.485
  284POPC   C4A 3777   0.708   9.737   5.838
  284POPC   C1B 3778   1.413   9.697   4.848
  284POPC   C2B 3779   1.469   9.767   5.317
  284POPC   C3B 3780   1.236   9.622   5.721
  284POPC   C4B 3781   1.306   9.572   6.194
  285POPC   NC3 3782   4.394   0.848   3.676
  285POPC   PO4 3783   3.820   0.742   3.797
  285POPC   GL1 3784   4.059   0.621   4.195
  285POPC   GL2 3785   4.435   0.703   4.213
  285POPC   C1A 3786   4.058   0.715   4.677
  285POPC   D2A 3787   4.306   0.587   5.086
  285POPC   C3A 3788   4.182   0.596   5.539
  285POPC   C4A 3789   4.197   0.684   6.017
  285POPC   C1B 3790   4.575   0.505   4.643
  285POPC   C2B 3791   4.599   0.160   4.994
  285POPC   C3B 3792   4.516   0.207   5.440
  285POPC   C4B 3793   4.352   0.169   5.872
  286POPC   NC3 3794   2.269   8.291   3.864
  286POPC   PO4 3795   1.704   8.637   3.963
  286POPC   GL1 3796   1.870   8.478   4.341
  286POPC   GL2 3797   2.004   8.157   4.371
  286POPC   C1A 3798   1.973   8.453   4.797
  286POPC   D2A 3799   1.831   8.378   5.213
  286POPC   C3A 3800   2.033   8.569   5.570
  286POPC   C4A 3801   2.100   8.625   6.035
  286POPC   C1B 3802   1.761   7.984   4.766
  286POPC   C2B 3803   1.699   7.882   5.208
  286POPC   C3B 3804   1.759   7.848   5.632
  286POPC   C4B 3805   2.098   8.069   5.810
  287W        W 3806   8.788   1.882   0.243
  288W        W 3807   4.518   0.972  10.732
  289W        W 3808   8.965   1.353   2.258
  290W        W 3809   0.023   7.989   1.666
  291W        W 3810   8.839   3.438   9.142
  292W        W 3811   7.152   7.366   9.532
  293W        W 3812   0.718   0.159   0.941
  294W        W 3813   3.473   7.663  11.198
  295W        W 3814   1.669   8.370   1.933
  296W        W 3815   8.654   1.729   3.330
  297W        W 3816   6.926   2.016  11.716
  298W        W 3817   2.191   0.761   8.931
  299W        W 3818   7.759   3.949   3.613
  300W        W 3819   4.653   3.672   8.934
  301W        W 3820   1.237   1.004   9.535
  302W        W 3821   5.706   6.471   2.444
  303W        W 3822   6.736   9.071  11.824
  304W        W 3823   8.675   2.634   2.481
  305W        W 3824   6.188   8.217   9.239
  306W        W 3825   4.674   6.816   9.528
  307W        W 3826   3.858   6.679   3.618
  308W        W 3827   5.120   4.668   0.964
  309W        W 3828   0.423   8.554   2.595
  310W        W 3829   7.286   6.020   1.947
  311W        W 3830   8.103   6.347  10.502
  312W        W 3831   4.495   1.862   0.441
  313W        W 3832   6.144   2.710  10.914
  314W        W 3833   2.656   3.390   3.483
  315W        W 3834   6.472   3.008  11.851
  316W        W 3835   7.040   6.909   2.773
  317W        W 3836   8.229   1.980   3.501
  318W        W 3837   5.483   0.545   1.684
  319W        W 3838   4.905   5.216  10.491
  320W        W 3839   2.779   4.710   9.488
  321W        W 3840   5.450   2.269  11.403
  322W        W 3841   2.269   9.337  10.388
  323W        W 3842   9.267   8.876   3.746
  324W        W 3843   3.678   0.551   3.296
  325W        W 3844   6.364   8.395   1.255
  326W        W 3845   8.757   4.499  11.068
  327W        W 3846   4.571   4.176  11.811
  328W        W 3847   9.547   0.738   9.538
  329W        W 3848   5.228   6.600  11.829
  330W        W 3849   8.656   2.294   3.287
  331W        W 3850   6.961   9.240   9.986
  332W        W 3851   3.375   4.583   0.980
  333W        W 3852   9.284   5.195   9.591
  334W        W 3853   5.847   7.973   3.618
  335W        W 3854   2.641   6.929   3.344
  336W        W 3855   2.642   6.667   9.576
  337W        W 3856   5.238   1.223   2.305
  338W        W 3857   1.402   2.090  10.606
  339W        W 3858   4.584   5.110   9.494
  340W        W 3859   0.456   5.929   1.674
  341W        W 3860   8.331   8.521   8.783
  342W        W 3861   6.901   2.788   0.111
  343W        W 3862   3.558   9.094   0.321
  344W        W 3863   4.055   1.851   9.434
  345W        W 3864   1.543   5.198   3.478
  346W        W 3865   0.369   3.433   2.111
  347W        W 3866   9.455   6.274   0.274
  348W        W 3867   3.099   4.744   8.649
  349W        W 3868   3.415   4.213   2.868
  350W        W 3869   2.916   0.403  11.511
  351W        W 3870   5.362   9.897   9.677
  352W        W 3871   8.023   2.397   0.475
  353W        W 3872   4.799   7.734   8.394
  354W        W 3873   4.719   0.913   0.691
  355W        W 3874   9.923   3.315  10.453
  356W        W 3875   9.390   0.659  10.031
  357W        W 3876   5.101   3.324   9.555
  358W        W 3877   7.337   3.625   9.708
  359W        W 3878   0.874   7.477   0.191
  360W        W 3879   3.100   4.192   1.773
  361W        W 3880   8.963   7.358  10.004
  362W        W 3881   0.382   0.886   8.845
  363W        W 3882   3.556   2.394  10.908
  364W        W 3883   4.631   5.209   2.991
  365W        W 3884   9.398   8.526   1.290
  366W        W 3885   1.418   3.571  11.545
  367W        W 3886   4.878   7.113   9.162
  368W        W 3887   0.136   1.056   8.422
  369W        W 3888   4.753   7.837   1.866
  370W        W 3889   9.496   9.646  11.208
  371W        W 3890   6.022   3.275   2.427
  372W        W 3891   5.498   1.759  10.787
  373W        W 3892   5.478   9.863   1.453
  374W        W 3893   2.267   3.969  11.464
  375W        W 3894   4.528   5.075   0.066
  376W        W 3895   2.649   2.205   9.265
  377W        W 3896   2.606   1.026   2.380
  378W        W 3897   5.961   8.196   1.014
  379W        W 3898   2.194   7.934  11.581
  380W        W 3899   4.600   6.141   0.305
  381W        W 3900   8.433   0.206   0.220
  382W        W 3901   3.681   3.378   2.699
  383W        W 3902   2.358   8.077   1.308
  384W        W 3903   3.935   6.383   1.322
  385W        W 3904   7.119   4.683  11.050
  386W        W 3905   9.649   2.405   9.678
  387W        W 3906   4.206   9.916   8.703
  388W        W 3907   6.872   1.519   2.719
  389W        W 3908   4.860   2.687   8.477
  390W        W 3909   3.492   8.103   9.854
  391W        W 3910   9.320   7.590   1.293
  392W        W 3911   1.175   7.303   1.499
  393W        W 3912   4.004   2.838   8.496
  394W        W 3913   2.428   1.560  11.304
  395W        W 3914   8.736   4.831   0.482
  396W        W 3915   2.518   2.481   8.715
  397W        W 3916   0.598   9.597  11.547
  398W        W 3917   7.925   9.869  11.383
  399W        W 3918   1.864   2.979   9.917
  400W        W 3919   5.242   2.682  11.197
  401W        W 3920   0.394   8.659  11.155
  402W        W 3921   5.065   5.594   8.893
  403W        W 3922   2.694   8.095   3.001
  404W        W 3923   0.368   3.243   1.092
  405W        W 3924   3.847   4.621  11.082
  406W        W 3925   1.668   0.477  10.587
  407W        W 3926   6.732   4.731   8.719
  408W        W 3927   4.810   2.407   1.100
  409W        W 3928   7.949   5.164   2.499
  410W        W 3929   4.110   6.137   0.177
  411W        W 3930   8.488   2.107   9.250
  412W        W 3931   6.014   7.458   3.610
  413W        W 3932   5.565   7.329  10.212
  414W        W 3933   2.716   6.614   8.987
  415W        W 3934   8.022   2.391  11.954
  416W        W 3935   3.187   3.122   9.554
  417W        W 3936   5.072   4.502   0.367
  418W        W 3937   8.788   1.669   1.291
  419W        W 3938   0.340   4.553   3.199
  420W        W 3939   1.908   5.395   2.728
  421W        W 3940   2.885   2.569   0.721
  422W        W 3941   3.674   3.977   9.049
  423W        W 3942   0.357   5.526   9.459
  424W        W 3943   4.179   2.788   2.617
  425W        W 3944   1.792   2.534   0.155
  426W        W 3945   5.459   0.148   9.217
  427W        W 3946   1.902   4.241   8.835
  428W        W 3947   2.887   7.686   3.254
  429W        W 3948   3.288   8.574   9.106
  430W        W 3949   6.543   5.151   8.467
  431W        W 3950   9.390   2.889   3.766
  432W        W 3951   9.794   7.783   0.668
  433W        W 3952   3.041   2.224   2.032
  434W        W 3953   0.472   7.481  11.857
  435W        W 3954   8.305   0.712   8.954
  436W        W 3955   4.944   3.569   0.326
  437W        W 3956   8.821   8.985  11.171
  438W        W 3957   4.228   9.960   3.203
  439W        W 3958   6.218   7.499   2.591
  440W        W 3959   3.563   3.652   1.213
  441W        W 3960   2.084   7.393   1.978
  442W        W 3961   6.173   1.471   1.859
  443W        W 3962   8.156   7.377   9.712
  444W        W 3963   9.700   2.931   0.922
  445W        W 3964   2.889   0.924   2.784
  446W        W 3965   8.030   5.550  11.462
  447W        W 3966   7.141   6.740   0.847
  448W        W 3967   9.202   7.409  11.496
  449W        W 3968   7.970   1.654   0.841
  450W        W 3969   6.886   9.542   0.177
  451W        W 3970   0.709   6.625   0.003
  452W        W 3971   4.233   2.055   0.908
  453W        W 3972   8.398   1.469   2.941
  454W        W 3973   2.218   8.087   2.288
  455W        W 3974   1.784   4.931   8.237
  456W        W 3975   9.858   3.500   3.191
  457W        W 3976   6.478   8.349  10.755
  458W        W 3977   4.004   6.187   0.843
  459W        W 3978   4.055   5.196   1.528
  460W        W 3979   8.502   4.634  10.088
  461W        W 3980   8.327   3.625   9.121
  462W        W 3981   3.303   1.979   0.880
  463W        W 3982   5.466   7.483  11.614
  464W        W 3983   0.847   4.509   9.218
  465W        W 3984   6.951   1.281  11.893
  466W        W 3985   0.526   4.407   0.911
  467W        W 3986   9.549   1.902   9.548
  468W        W 3987   8.922   7.043  10.440
  469W        W 3988   0.008   1.227   8.886
  470W        W 3989   5.185   3.514  11.900
  471W        W 3990   9.037   9.111   8.942
  472W        W 3991   3.196   7.364  11.506
  473W        W 3992   1.387   1.382  11.415
  474W        W 3993   1.768   6.017   3.325
  475W        W 3994   4.521   4.505   2.738
  476W        W 3995   9.387   7.704   9.947
  477W        W 3996   9.822   6.080   8.931
  478W        W 3997   6.611   2.143  10.390
  479W        W 3998   7.110   7.959  11.274
  480W        W 3999   7.543   2.583  11.870
  481W        W 4000   6.636   4.320   3.640
  482W        W 4001   7.267   5.630   2.608
  483W        W 4002   4.134   5.691   1.017
  484W        W 4003   0.535   2.723  10.756
  485W        W 4004   6.132   3.183   0.734
  486W        W 4005   8.595   1.092   0.085
  487W        W 4006   6.488   6.843   2.042
  488W        W 4007   6.663   9.754   0.928
  489W        W 4008   8.584   0.594  10.501
  490W        W 4009   0.750   8.412   8.925
  491W        W 4010   1.650   1.485   1.786
  492W        W 4011   5.436   6.618  11.331
  493W        W 4012   5.252   2.998   1.643
  494W        W 4013   6.666   0.010   9.941
  495W        W 4014   3.975   7.953   0.228
  496W        W 4015   4.142   1.673  11.643
  497W        W 4016   7.283   0.363   9.184
  498W        W 4017   6.932   4.172   9.348
  499W        W 4018   3.898   1.792   1.431
  500W        W 4019   2.298   4.624   8.715
  501W        W 4020   2.917   4.140  10.586
  502W        W 4021   5.477   5.189  11.809
  503W        W 4022   2.902   1.145   0.012
  504W        W 4023   9.526   5.105   9.151
  505W        W 4024   4.907   4.211  10.509
  506W        W 4025   4.145   1.532  10.756
  507W        W 4026   2.590   3.959   0.871
  508W        W 4027   3.752   8.814  11.942
  509W        W 4028   6.265   6.211   9.797
  510W        W 4029   9.669   4.523   3.099
  511W        W 4030   4.743   4.938   2.591
  512W        W 4031   2.982   0.784   0.420
  513W        W 4032   4.972   3.604   3.587
  514W        W 4033   8.321   3.951   1.852
  515W        W 4034   1.576   5.044   2.970
  516W        W 4035   2.958   1.373   2.258
  517W        W 4036   9.129   0.837   1.561
  518W        W 4037   2.450   5.310   0.682
  519W        W 4038   3.128   7.496   8.855
  520W        W 4039   3.323   2.091  11.919
  521W        W 4040   8.889   6.374   1.562
  522W        W 4041   0.441   5.432   1.637
  523W        W 4042   8.440   9.813  11.133
  524W        W 4043   3.210   0.985  10.870
  525W        W 4044   6.926   2.516   3.015
  526W        W 4045   4.530   5.609  10.535
  527W        W 4046   3.663   5.445   8.905
  528W        W 4047   1.332   1.725   3.533
  529W        W 4048   0.325   9.699   0.008
  530W        W 4049   5.092   2.972  10.209
  531W        W 4050   5.954   2.446   3.590
  532W        W 4051   9.509   9.821   8.896
  533W        W 4052   9.223   3.759   9.330
  534W        W 4053   7.342   7.214  11.925
  535W        W 4054   2.313   7.412   3.350
  536W        W 4055   1.226   6.444  11.393
  537W        W 4056   0.525   0.294   9.908
  538W        W 4057   1.257   5.375  11.673
  539W        W 4058   5.597   8.640   0.171
  540W        W 4059   4.062   3.798   8.391
  541W        W 4060   1.389   3.583   1.512
  542W        W 4061   1.424   8.736   3.537
  543W        W 4062   2.571   5.338   4.070
  544W        W 4063   2.698   2.675  10.798
  545W        W 4064   8.407   2.691   1.624
  546W        W 4065   6.156   6.369   1.304
  547W        W 4066   6.736   5.731   1.344
  548W        W 4067   4.967   9.612   1.727
  549W        W 4068   8.056   0.183  11.867
  550W        W 4069   7.965   9.672   0.986
  551W        W 4070   1.465   3.524  11.007
  552W        W 4071   1.764   3.270   1.952
  553W        W 4072   7.600   2.324   1.280
  554W        W 4073   7.127   5.564   2.127
  555W        W 4074   9.662   5.334   1.943
  556W        W 4075   1.682   2.755  11.701
  557W        W 4076   8.497   1.487  10.009
  558W        W 4077   3.694   8.844   2.109
  559W        W 4078   5.049   8.068   0.097
  560W        W 4079   7.623   4.658   1.292
  561W        W 4080   2.412   6.991   2.060
  562W        W 4081   7.049   0.641   0.783
  563W        W 4082   5.936   9.962  10.431
  564W        W 4083   8.115   5.116   9.066
  565W        W 4084   5.838   7.571   9.827
  566W        W 4085   0.954   9.527   1.878
  567W        W 4086   2.014   3.060   2.818
  568W        W 4087   9.485   3.413   9.727
  569W        W 4088   6.592   8.844   1.193
  570W        W 4089   7.773   6.190   2.046
  571W        W 4090   5.066   7.021   1.419
  572W        W 4091   0.459   0.794   9.833
  573W        W 4092   4.502   3.122   3.660
  574W        W 4093   1.355   6.118   2.555
  575W        W 4094   6.984   4.485   1.770
  576W        W 4095   9.584   2.961  11.051
  577W        W 4096   1.137   4.643   9.633
  578W        W 4097   0.336   9.593  11.084
  579W        W 4098   6.540   4.351   9.037
  580W        W 4099   4.340   1.130   2.440
  581W        W 4100   9.506   2.967   1.448
  582W        W 4101   9.736   9.388   1.277
  583W        W 4102   9.629   6.100  11.049
  584W        W 4103   0.265   0.507  11.746
  585W        W 4104   6.937   5.102  11.264
  586W        W 4105   4.940   2.346   2.130
  587W        W 4106   1.384   6.428   1.444
  588W        W 4107   5.769   0.193   9.947
  589W        W 4108   6.063   0.898   2.829
  590W        W 4109   5.084   3.220  11.501
  591W        W 4110   8.199   7.211  11.513
  592W        W 4111   1.661   4.593   2.688
  593W        W 4112   3.699   6.393   2.211
  594W        W 4113   2.264   2.427  11.067
  595W        W 4114   9.001   4.706   0.920
  596W        W 4115   6.520   5.135   4.220
  597W        W 4116   1.224   5.270   8.561
  598W        W 4117   3.617   7.304  10.382
  599W        W 4118   2.855   0.880   1.746
  600W        W 4119   8.372   2.193   2.472
  601W        W 4120   2.241   8.821   0.718
  602W        W 4121   9.956   6.186   1.907
  603W        W 4122   5.785   5.900   1.271
  604W        W 4123   6.845   3.899   3.262
  605W        W 4124   4.848   3.222   3.267
  606W        W 4125   4.248   2.711   1.876
  607W        W 4126   9.997   4.649  10.474
  608W        W 4127   3.267   5.543   0.814
  609W        W 4128   4.158   0.531   8.667
  610W        W 4129   0.389   4.132   2.919
  611W        W 4130   0.830   4.277  11.725
  612W        W 4131   1.667   2.261  11.448
  613W        W 4132   1.198   8.026  11.228
  614W        W 4133   3.960   0.323  10.947
  615W        W 4134   5.569   8.010   2.900
  616W        W 4135   0.202   0.058   2.191
  617W        W 4136   1.275   1.263   2.041
  618W        W 4137   2.132   3.736  10.407
  619W        W 4138   8.428   2.918   2.107
  620W        W 4139   5.479   5.750   3.144
  621W        W 4140   8.285   8.474  10.618
  622W        W 4141   6.449   2.525   3.250
  623W        W 4142   9.920   5.735   0.999
  624W        W 4143   6.756   1.853  11.050
  625W        W 4144   5.344   2.056   2.016
  626W        W 4145   5.856   5.949   9.967
  627W        W 4146   7.603   8.255   9.380
  628W        W 4147   2.219   6.004   9.243
  629W        W 4148   7.277   0.753  11.795
  630W        W 4149   4.941   4.028   1.972
  631W        W 4150   3.836   5.545   0.132
  632W        W 4151   7.872   4.973   2.952
  633W        W 4152   7.167   9.998  10.981
  634W        W 4153   6.134   6.951   3.151
  635W        W 4154   5.024   7.390  10.227
  636W        W 4155   0.771   7.407   0.692
  637W        W 4156   9.415   9.975  10.798
  638W        W 4157   8.026   1.165  10.130
  639W        W 4158   5.250   6.872   3.742
  640W        W 4159   4.750   3.854   9.889
  641W        W 4160   5.272   5.492   0.694
  642W        W 4161   7.441   1.227  11.018
  643W        W 4162   2.095   7.984   0.463
  644W        W 4163   9.875   1.508  10.520
  645W        W 4164   5.322   1.008   1.849
  646W        W 4165   2.913   8.305  10.897
  647W        W 4166   6.118   8.541  10.415
  648W        W 4167   0.007   9.415   9.541
  649W        W 4168   9.342   6.077   0.736
  650W        W 4169   7.026   0.897   1.223
  651W        W 4170   4.658   4.601   1.216
  652W        W 4171   8.364   1.987   2.970
  653W        W 4172   9.484   8.481   9.728
  654W        W 4173   1.751   3.656   0.259
  655W        W 4174   7.195   3.525  11.984
  656W        W 4175   6.957   0.445   0.327
  657W        W 4176   4.235   3.500  11.957
  658W        W 4177   9.319   3.561   0.302
  659W        W 4178   8.747   6.646   9.179
  660W        W 4179   3.653   5.429   1.233
  661W        W 4180   2.929   9.380   3.239
  662W        W 4181   9.729   1.910   9.028
  663W        W 4182   2.324   7.651  11.041
  664W        W 4183   6.982   5.166   3.972
  665W        W 4184   5.539   9.453   1.153
  666W        W 4185   9.236   3.280   1.790
  667W        W 4186   4.540   6.168   3.182
  668W        W 4187   0.360   7.091   9.759
  669W        W 4188   1.977   6.366   1.717
  670W        W 4189   2.043   0.399  10.965
  671W        W 4190   2.685   0.384   1.170
  672W        W 4191   3.838   2.925  11.231
  673W        W 4192   5.670   9.114   9.237
  674W        W 4193   5.509   7.203   0.420
  675W        W 4194   8.047   6.655  11.872
  676W        W 4195   6.045   7.581  10.319
  677W        W 4196   7.630   6.110   0.265
  678W        W 4197   2.993   1.316   3.540
  679W        W 4198   6.603   1.495   0.899
  680W        W 4199   3.522   3.317   3.714
  681W        W 4200   9.465   5.321   1.427
  682W        W 4201   3.614   0.748   1.296
  683W        W 4202   5.005   2.342   1.599
  684W        W 4203   5.681   7.174   3.153
  685W        W 4204   9.887   0.852  11.777
  686W        W 4205   5.198   7.502   0.071
  687W        W 4206   6.593   5.553   9.261
  688W        W 4207   2.325   9.098   0.270
  689W        W 4208   2.173   5.527  11.671
  690W        W 4209   8.809   9.062   2.796
  691W        W 4210   6.776   4.487  10.040
  692W        W 4211   4.038   9.244   2.790
  693W        W 4212   8.350   8.487   3.280
  694W        W 4213   2.303   7.589   2.393
  695W        W 4214   6.396   2.194  10.944
  696W        W 4215   4.265   1.424  10.245
  697W        W 4216   6.381   1.553   2.869
  698W        W 4217   4.619   0.746   1.173
  699W        W 4218   4.154   9.812   1.408
  700W        W 4219   5.425   7.057  11.917
  701W        W 4220   5.156   2.798  10.693
  702W        W 4221   0.094   9.558  11.555
  703W        W 4222   7.957   5.081   0.011
  704W        W 4223   4.270   5.123   2.650
  705W        W 4224   4.484   6.689   3.159
  706W        W 4225   3.910   3.936  10.367
  707W        W 4226   4.026   4.609   4.020
  708W        W 4227   0.874   9.884   9.738
  709W        W 4228   9.425   1.341   0.316
  710W        W 4229   9.792   3.831   0.630
  711W        W 4230   2.754   0.042  10.515
  712W        W 4231   3.183   4.920   8.162
  713W        W 4232   9.999   6.970   9.028
  714W        W 4233   2.441   8.327   9.020
  715W        W 4234   8.813   7.833   3.391
  716W        W 4235   4.242   3.851  11.589
  717W        W 4236   9.373   7.006  10.691
  718W        W 4237   5.685   6.440   1.081
  719W        W 4238   3.402   5.387   0.352
  720W        W 4239   5.598   7.822  10.383
  721W        W 4240   8.940   7.461   2.316
  722W        W 4241   8.615   4.805   3.071
  723W        W 4242   9.905   1.538   3.115
  724W        W 4243   2.831   1.462  11.620
  725W        W 4244   7.699   3.115   3.207
  726W        W 4245   5.096   5.417   3.074
  727W        W 4246   4.443   0.087   2.418
  728W        W 4247   9.516   0.265   9.735
  729W        W 4248   9.757   2.372  10.879
  730W        W 4249   7.616   5.291  11.665
  731W        W 4250   3.125   6.930   1.206
  732W        W 4251   8.858   6.249   0.824
  733W        W 4252   5.118   2.031   1.194
  734W        W 4253   4.266   5.811   3.445
  735W        W 4254   6.665   1.179   3.116
  736W        W 4255   3.827   4.606   0.055
  737W        W 4256   8.397   3.835   2.349
  738W        W 4257   8.135   5.890   1.155
  739W        W 4258   4.463   2.584   1.428
  740W        W 4259   7.178   7.248   0.780
  741W        W 4260   3.870   3.637   9.833
  742W        W 4261   8.954   4.609   0.049
  743W        W 4262   3.581   7.884  10.342
  744W        W 4263   4.016   8.249   1.532
  745W        W 4264   9.035   8.321   2.131
  746W        W 4265   7.524   8.934  10.495
  747W        W 4266   9.063   4.200   0.879
  748W        W 4267   0.310   2.882   3.534
  749W        W 4268   4.801   2.781  11.432
  750W        W 4269   1.764   0.690   2.270
  751W        W 4270   7.817   1.244  10.620
  752W        W 4271   2.790   3.417   2.984
  753W        W 4272   4.099   0.843  11.039
  754W        W 4273   2.786   8.034   1.650
  755W        W 4274   3.684   4.495   9.353
  756W        W 4275   7.486   4.421   3.058
  757W        W 4276   7.884   4.655   0.309
  758W        W 4277   9.798   7.671   2.002
  759W        W 4278   8.368   4.575  11.462
  760W        W 4279   1.505   0.562   9.395
  761W        W 4280   5.124   2.700   2.631
  762W        W 4281   8.694   6.113  11.950
  763W        W 4282   0.064   5.629   9.035
  764W        W 4283   8.943   7.050   9.474
  765W        W 4284   3.293   9.228   1.405
  766W        W 4285   0.436   6.618   9.915
  767W        W 4286   4.528   5.792   2.247
  768W        W 4287   7.875   1.878   1.326
  769W        W 4288   3.217   3.550  11.916
  770W        W 4289   7.079   6.436   8.287
  771W        W 4290   2.323   2.118  10.121
  772W        W 4291   6.981   6.362   8.784
  773W        W 4292   5.032   9.879   9.225
  774W        W 4293   2.322   1.916  10.914
  775W        W 4294   8.794   6.226  10.579
  776W        W 4295   7.347   3.185   2.699
  777W        W 4296   5.190   3.945  10.155
  778W        W 4297   2.618   7.988  11.280
  779W        W 4298   5.892   2.277  11.032
  780W        W 4299   9.173   9.303  11.516
  781W        W 4300   7.181   6.556   3.925
  782W        W 4301   8.475   7.937  11.042
  783W        W 4302   9.989   1.298  10.082
  784W        W 4303   1.645   3.753   0.785
  785W        W 4304   0.912   8.855   3.602
  786W        W 4305   2.094   3.462   3.190
  787W        W 4306   9.526   8.135   2.006
  788W        W 4307   9.397   4.845  11.814
  789W        W 4308   3.088   3.743   0.937
  790W        W 4309   2.197   3.843   1.771
  791W        W 4310   8.330   8.791   0.201
  792W        W 4311   5.148   8.730  10.930
  793W        W 4312   6.211   9.883   0.281
  794W        W 4313   5.877   1.632   8.469
  795W        W 4314   2.759   4.440   2.081
  796W        W 4315   2.780   2.079   0.907
  797W        W 4316   0.337   6.170   3.231
  798W        W 4317   6.664   9.272   2.355
  799W        W 4318   9.611   7.521  11.779
  800W        W 4319   4.178   8.973   9.033
  801W        W 4320   2.934   0.394   9.364
  802W        W 4321   8.728   6.419  11.221
  803W        W 4322   2.741   3.666  10.653
  804W        W 4323   5.413   0.862  11.074
  805W        W 4324   5.592   1.660   2.323
  806W        W 4325   5.149   8.878  10.435
  807W        W 4326   1.388   0.289   8.945
  808W        W 4327   6.014   8.021   3.149
  809W        W 4328   6.966   2.579   9.785
  810W        W 4329   3.619   4.571   3.698
  811W        W 4330   3.765   1.389   8.626
  812W        W 4331   9.889   6.849   9.968
  813W        W 4332   3.843   7.986   9.036
  814W        W 4333   6.830   2.792  10.216
  815W        W 4334   1.807   5.677   9.587
  816W        W 4335   8.801   0.874   8.917
  817W        W 4336   0.487   1.650   9.826
  818W        W 4337   3.318   8.445  10.608
  819W        W 4338   4.750   7.520   2.327
  820W        W 4339   3.837   9.791  11.828
  821W        W 4340   2.692   3.608   0.062
  822W        W 4341   5.057   6.371   0.246
  823W        W 4342   3.525   0.595   2.208
  824W        W 4343   5.226   5.676   1.185
  825W        W 4344   8.256   4.336   2.334
  826W        W 4345   6.675   8.517   1.811
  827W        W 4346   3.444   9.299   8.577
  828W        W 4347   7.225   1.990   1.449
  829W        W 4348   3.756   9.006   1.619
  830W        W 4349   8.940   9.911  10.953
  831W        W 4350   3.127   8.321   3.117
  832W        W 4351   0.048   1.787   2.673
  833W        W 4352   6.829   5.909   8.960
  834W        W 4353   0.331   0.027  11.612
  835W        W 4354   4.882   1.861   1.830
  836W        W 4355   6.580   8.759  10.446
  837W        W 4356   1.168   0.382  10.720
  838W        W 4357   6.435   2.727  10.507
  839W        W 4358   2.765   9.209  10.634
  840W        W 4359   6.252   3.677   0.799
  841W        W 4360   0.459   1.349  11.279
  842W        W 4361   4.533   9.184   2.761
  843W        W 4362   6.421   9.299   2.794
  844W        W 4363   5.845   4.610  10.473
  845W        W 4364   9.644   1.759   0.122
  846W        W 4365   6.098   9.063  11.164
  847W        W 4366   2.209   3.847   9.009
  848W        W 4367   7.629   2.566  11.358
  849W        W 4368   2.701   6.899   2.805
  850W        W 4369   1.361   3.840   9.287
  851W        W 4370   0.857   2.892  11.506
  852W        W 4371   2.129   0.981   0.827
  853W        W 4372   6.186   5.959   1.625
  854W        W 4373   0.624   2.822   9.538
  855W        W 4374   4.248   2.818   9.597
  856W        W 4375   9.618   0.554   3.551
  857W        W 4376   7.952   7.396   0.402
  858W        W 4377   9.438   8.626  10.239
  859W        W 4378   5.268   5.527   0.165
  860W        W 4379   2.761   3.374   9.701
  861W        W 4380   8.608   3.430   3.280
  862W        W 4381   8.282   1.972   1.686
  863W        W 4382   3.834   8.501   3.771
  864W        W 4383   8.302   3.222  11.452
  865W        W 4384   9.543   3.055   0.279
  866W        W 4385   3.952   2.407  11.272
  867W        W 4386   8.040   5.991   9.564
  868W        W 4387   3.199   4.286   3.787
  869W        W 4388   7.399   4.797   0.414
  870W        W 4389   5.219   2.268   0.170
  871W        W 4390   3.880   7.909   9.568
  872W        W 4391   7.828   1.676  10.296
  873W        W 4392   0.961   9.242   9.547
  874W        W 4393   5.225   5.995   8.124
  875W        W 4394   9.484   1.552   9.949
  876W        W 4395   6.574   2.416   0.920
  877W        W 4396   7.094   6.569   1.344
  878W        W 4397   7.550   3.732   1.965
  879W        W 4398   9.084   9.762  10.431
  880W        W 4399   9.914   4.766   0.898
  881W        W 4400   2.145   9.650   2.142
  882W        W 4401   0.384   4.597   1.778
  883W        W 4402   7.274   2.150   3.211
  884W        W 4403   2.178   3.015  11.447
  885W        W 4404   7.825   3.649   9.541
  886W        W 4405   1.355   9.498   2.639
  887W        W 4406   6.376   5.991   4.147
  888W        W 4407   8.634   5.062  10.379
  889W        W 4408   9.034   4.308  10.639
  890W        W 4409   4.505   7.668  11.358
  891W        W 4410   6.487   1.118   2.641
  892W        W 4411   7.957   0.195   0.975
  893W        W 4412   8.384   3.646  10.220
  894W        W 4413   8.979   4.705  10.273
  895W        W 4414   3.208   6.673  10.867
  896W        W 4415   6.444   7.184   3.508
  897W        W 4416   9.295   2.564  10.823
  898W        W 4417   9.927   9.854   9.247
  899W        W 4418   0.683   4.650  10.878
  900W        W 4419   4.215   4.315  10.621
  901W        W 4420   4.742   2.314   8.992
  902W        W 4421   0.228   3.925   2.253
  903W        W 4422   7.098   2.788  10.663
  904W        W 4423   1.790   6.164   1.240
  905W        W 4424   0.132   5.397   8.347
  906W        W 4425   2.479   3.162   0.208
  907W        W 4426   4.782   6.620   1.961
  908W        W 4427   1.500   8.610   2.805
  909W        W 4428   5.150   0.994   3.378
  910W        W 4429   0.769   7.956   0.022
  911W        W 4430   9.305   7.534   2.697
  912W        W 4431   6.574   7.118   2.961
  913W        W 4432   5.040   4.022  11.976
  914W        W 4433   3.007   7.388   2.848
  915W        W 4434   6.887   3.019   2.850
  916W        W 4435   7.576   1.203   0.507
  917W        W 4436   7.707   9.973   0.354
  918W        W 4437   3.203   7.859   2.867
  919W        W 4438   4.183   6.820   1.425
  920W        W 4439   6.046   3.336   9.180
  921W        W 4440   2.564   8.718   2.399
  922W        W 4441   0.943   7.598  11.676
  923W        W 4442   5.194   8.880   9.104
  924W        W 4443   1.029   5.661  10.851
  925W        W 4444   4.416   4.085   1.952
  926W        W 4445   6.191   5.231   9.339
  927W        W 4446   3.817   9.852   1.012
  928W        W 4447   5.609   0.622   0.777
  929W        W 4448   0.595   7.440  10.896
  930W        W 4449   6.683   9.955   0.465
  931W        W 4450   6.709   0.234   3.598
  932W        W 4451   6.214   4.224   8.249
  933W        W 4452   6.466   4.599   0.489
  934W        W 4453   0.536   3.522  11.764
  935W        W 4454   2.592   0.713   0.778
  936W        W 4455   2.000   2.662   9.550
  937W        W 4456   0.171   0.557  10.742
  938W        W 4457   3.325   2.171   3.528
  939W        W 4458   5.710   2.088  10.440
  940W        W 4459   9.991   2.159  11.496
  941W        W 4460   9.638   1.446   8.619
  942W        W 4461   3.288   3.653  11.036
  943W        W 4462   1.206   3.817   1.984
  944W        W 4463   4.760   2.822   0.809
  945W        W 4464   5.005   9.837   1.253
  946W        W 4465   4.010   3.417  10.408
  947W        W 4466   2.581   3.346  11.587
  948W        W 4467   0.102   6.508   8.855
  949W        W 4468   3.324   1.408  10.036
  950W        W 4469   5.293   6.453   0.724
  951W        W 4470   9.411   2.571  11.336
  952W        W 4471   9.642   7.004   3.540
  953W        W 4472   1.652   2.163   2.439
  954W        W 4473   3.276   3.087   2.377
  955W        W 4474   5.709   1.890   2.767
  956W        W 4475   0.289   0.933   3.387
  957W        W 4476   4.781   5.560   2.650
  958W        W 4477   4.370   7.692   1.096
  959W        W 4478   6.163   7.210  11.428
  960W        W 4479   8.648   2.400   9.646
  961W        W 4480   1.407   9.330   9.799
  962W        W 4481   4.946   9.374  10.500
  963W        W 4482   5.839   0.908   1.757
  964W        W 4483   6.517   3.741   3.615
  965W        W 4484   2.744   0.848  10.626
  966W        W 4485   1.881   6.971   0.857
  967W        W 4486   3.184   7.065   2.520
  968W        W 4487   9.837   4.308   1.324
  969W        W 4488   8.501   4.691   1.405
  970W        W 4489   2.240   1.298  10.920
  971W        W 4490   5.800   5.025   1.357
  972W        W 4491   7.543   6.297   1.597
  973W        W 4492   0.650   5.785   3.143
  974W        W 4493   2.894   0.640  11.065
  975W        W 4494   4.124   1.369   1.615
  976W        W 4495   7.364   6.211   9.546
  977W        W 4496   9.004   6.236   2.666
  978W        W 4497   0.534   7.688   3.155
  979W        W 4498   9.793   0.348   2.184
  980W        W 4499   1.952   9.901  11.983
  981W        W 4500   2.217   5.039   1.854
  982W        W 4501   9.211   7.276   3.523
  983W        W 4502   5.755   6.725   2.883
  984W        W 4503   1.720   2.315   1.449
  985W        W 4504   1.666   5.204   1.057
  986W        W 4505   7.432   2.996  11.551
  987W        W 4506   9.417   5.752   1.128
  988W        W 4507   0.801   7.882   8.845
  989W        W 4508   1.764   5.249  11.766
  990W        W 4509   3.255   8.249   0.445
  991W        W 4510   3.028   7.821  11.021
  992W        W 4511   9.579   5.034  10.426
  993W        W 4512   1.825   8.200   2.934
  994W        W 4513   6.085   1.460   2.368
  995W        W 4514   3.348   3.846  11.511
  996W        W 4515   8.845   3.310  10.484
  997W        W 4516   2.933   2.980   3.288
  998W        W 4517   3.094   9.448   2.373
  999W        W 4518   2.767   1.241  10.987
 1000W        W 4519   1.307   3.314   9.307
 1001W        W 4520   7.007   7.987   0.193
 1002W        W 4521   2.394   8.947  11.341
 1003W        W 4522   3.071   6.598   9.870
 1004W        W 4523   6.648   1.307   1.727
 1005W        W 4524   6.967   4.239   2.227
 1006W        W 4525   9.892   8.270   0.832
 1007W        W 4526   5.088   3.740   8.660
 1008W        W 4527   2.086   1.772   0.385
 1009W        W 4528   4.289   8.480   8.879
 1010W        W 4529   7.931   1.758   3.864
 1011W        W 4530   0.626   0.766   1.178
 1012W        W 4531   6.069   8.516   8.836
 1013W        W 4532   3.087   8.545   2.596
 1014W        W 4533   2.999   1.850   0.484
 1015W        W 4534   9.340   7.914   0.017
 1016W        W 4535   9.940   8.429  11.542
 1017W        W 4536   5.681   8.032   1.799
 1018W        W 4537   1.271   4.051  11.486
 1019W        W 4538   9.112   5.201  10.304
 1020W        W 4539   1.208   0.227   2.628
 1021W        W 4540   2.394   6.670   1.683
 1022W        W 4541   4.117   1.853  11.176
 1023W        W 4542   3.935   8.038   3.436
 1024W        W 4543   8.396   1.207   0.543
 1025W        W 4544   9.838   4.575  11.778
 1026W        W 4545   5.673   0.770  11.911
 1027W        W 4546   3.979   4.882   8.792
 1028W        W 4547   6.532   4.759   2.847
 1029W        W 4548   6.169   5.034   3.843
 1030W        W 4549   8.943   6.466   9.625
 1031W        W 4550   9.070   8.572  10.965
 1032W        W 4551   2.763   2.710   0.216
 1033W        W 4552   9.377   4.759   2.767
 1034W        W 4553   8.619   6.076   1.248
 1035W        W 4554   3.013   6.842  11.423
 1036W        W 4555   7.940   2.744   2.933
 1037W        W 4556   2.155   4.543   1.295
 1038W        W 4557   5.548   3.198   0.065
 1039W        W 4558   5.554   2.263   0.549
 1040W        W 4559   9.812   5.258   0.961
 1041W        W 4560   1.119   5.553   3.221
 1042W        W 4561   6.046   3.500  11.389
 1043W        W 4562   2.255   2.829   9.123
 1044W        W 4563   5.487   4.365  10.777
 1045W        W 4564   4.616   8.153   8.646
 1046W        W 4565   0.771   8.581   1.823
 1047W        W 4566   8.724   9.946   2.014
 1048W        W 4567   1.246   9.994   0.823
 1049W        W 4568   3.568   2.038  11.302
 1050W        W 4569   5.626   5.267   3.127
 1051W        W 4570   4.154   8.613  11.151
 1052W        W 4571   6.786   9.390   1.888
 1053W        W 4572   3.449   2.607   0.599
 1054W        W 4573   0.212   4.314  11.503
 1055W        W 4574   5.200   7.969   2.105
 1056W        W 4575   7.512   7.561   2.297
 1057W        W 4576   7.851   0.636   0.748
 1058W        W 4577   4.221   4.243   2.406
 1059W        W 4578   4.249   3.672   1.688
 1060W        W 4579   4.133   9.906  10.643
 1061W        W 4580   7.880   2.971  10.239
 1062W        W 4581   3.157   9.096   9.784
 1063W        W 4582   6.920   6.944   3.298
 1064W        W 4583   8.262   6.395  11.009
 1065W        W 4584   9.360   4.076   0.492
 1066W        W 4585   5.332   4.426  10.292
 1067W        W 4586   7.068   9.544   0.651
 1068W        W 4587   3.836   9.271   2.328
 1069W        W 4588   3.576   1.859   8.675
 1070W        W 4589   9.835   3.893  11.087
 1071W        W 4590   4.884   5.376  11.859
 1072W        W 4591   6.970   8.604  10.784
 1073W        W 4592   9.688   3.887   0.130
 1074W        W 4593   4.224   2.688  10.907
 1075W        W 4594   1.216   6.684  10.596
 1076W        W 4595   0.966   3.264   0.434
 1077W        W 4596   1.712   8.475  11.797
 1078W        W 4597   1.289   9.710   9.505
 1079W        W 4598   5.633   8.989   0.922
 1080W        W 4599   0.187   7.277  11.170
 1081W        W 4600   0.219   5.918  11.741
 1082W        W 4601   7.601   4.698   1.812
 1083W        W 4602   9.778   5.625  11.786
 1084W        W 4603   4.497   2.250  11.639
 1085W        W 4604   8.274   4.642  10.990
 1086W        W 4605   3.553   5.992   2.960
 1087W        W 4606   4.220   6.900   9.741
 1088W        W 4607   5.172   0.583  11.451
 1089W        W 4608   1.030   1.583   1.742
 1090W        W 4609   5.327   1.203   9.249
 1091W        W 4610   6.779   8.329  11.168
 1092W        W 4611   1.885   2.282   9.907
 1093W        W 4612   8.872   5.706  10.443
 1094W        W 4613   7.120   3.546   0.865
 1095W        W 4614   9.468   8.393  10.700
 1096W        W 4615   8.026   4.999  11.487
 1097W        W 4616   5.572   0.692  10.087
 1098W        W 4617   2.487   3.783   3.165
 1099W        W 4618   7.639   3.904  10.803
 1100W        W 4619   6.136   4.655   9.514
 1101W        W 4620   9.316   9.508   0.892
 1102W        W 4621   4.701   8.634  10.430
 1103W        W 4622   6.986   8.051   2.702
 1104W        W 4623   9.783   7.357   1.044
 1105W        W 4624   6.966   5.318   0.237
 1106W        W 4625   0.677   6.581   2.147
 1107W        W 4626   3.722   2.504   2.720
 1108W        W 4627   7.507   1.573   1.490
 1109W        W 4628   1.962   9.648   3.278
 1110W        W 4629   3.628   8.492   1.748
 1111W        W 4630   3.780   4.172  10.833
 1112W        W 4631   3.734   8.856   2.626
 1113W        W 4632   6.493   6.599   3.196
 1114W        W 4633   8.893   6.482  11.699
 1115W        W 4634   0.424   8.510   9.322
 1116W        W 4635   3.196   9.874   2.685
 1117W        W 4636   0.516   0.474   3.330
 1118W        W 4637   1.146   8.852   0.353
 1119W        W 4638   8.499   5.443  10.746
 1120W        W 4639   6.069   5.570   3.193
 1121W        W 4640   3.680   9.624   9.004
 1122W        W 4641   0.830   8.778  11.469
 1123W        W 4642   4.176   0.597  10.555
 1124W        W 4643   2.047   6.494  11.391
 1125W        W 4644   1.037   4.970  10.542
 1126W        W 4645   6.447   8.156  11.504
 1127W        W 4646   3.761   5.922  10.726
 1128W        W 4647   9.799   4.061  11.658
 1129W        W 4648   0.600   7.556   2.673
 1130W        W 4649   3.188   7.336   0.891
 1131W        W 4650   0.054   5.388   2.914
 1132W        W 4651   1.462   2.953   0.183
 1133W        W 4652   3.705   5.977   0.458
 1134W        W 4653   8.549   8.909   9.032
 1135W        W 4654   9.742   6.508   9.222
 1136W        W 4655   9.115   5.746   2.807
 1137W        W 4656   8.485   2.746  11.473
 1138W        W 4657   6.851   4.978  10.240
 1139W        W 4658   1.641   3.492  10.533
 1140W        W 4659   8.624   3.939   0.923
 1141W        W 4660   7.404   9.451  11.724
 1142W        W 4661   0.358   2.595   9.948
 1143W        W 4662   5.518   7.102   1.174
 1144W        W 4663   8.916   1.279   3.229
 1145W        W 4664   9.904   0.147   8.803
 1146W        W 4665   4.902   3.423   1.525
 1147W        W 4666   4.850   3.162   4.048
 1148W        W 4667   3.080   6.255   2.235
 1149W        W 4668   7.964   3.950   1.431
 1150W        W 4669   3.132   3.374   1.964
 1151W        W 4670   0.622   9.772   2.202
 1152W        W 4671   1.373   9.331   2.163
 1153W        W 4672   1.179   4.573  10.837
 1154W        W 4673   2.195   9.259   3.512
 1155W        W 4674   4.776   3.732  10.387
 1156W        W 4675   2.138   7.110  10.404
 1157W        W 4676   6.235   6.492   2.332
 1158W        W 4677   1.118   7.128  10.354
 1159W        W 4678   6.886   9.522  11.667
 1160W        W 4679   8.571   7.634   9.853
 1161W        W 4680   2.735   7.888   2.144
 1162W        W 4681   6.218   3.200   1.371
 1163W        W 4682   3.015   9.324   1.879
 1164W        W 4683   4.921   2.188  10.786
 1165W        W 4684   8.941   6.679   1.128
 1166W        W 4685   1.176   6.140  10.985
 1167W        W 4686   6.502   2.693   9.542
 1168W        W 4687   1.840   5.276   9.241
 1169W        W 4688   3.235   5.200   2.430
 1170W        W 4689   6.839   7.200  11.879
 1171W        W 4690   7.412   9.860  11.404
 1172W        W 4691   0.578   6.199  10.179
 1173W        W 4692   6.077   0.023   2.614
 1174W        W 4693   9.211   3.660   0.817
 1175W        W 4694   7.548   7.642   0.177
 1176W        W 4695   3.040   2.823   1.378
 1177W        W 4696   0.769   2.629   0.834
 1178W        W 4697   3.711   6.767   8.844
 1179W        W 4698   5.521   4.560   0.592
 1180W        W 4699   3.867   4.041   0.848
 1181W        W 4700   4.636   8.221   0.373
 1182W        W 4701   9.860   9.127   0.300
 1183W        W 4702   1.951   8.715   3.019
 1184W        W 4703   8.900   3.971   3.161
 1185W        W 4704   7.683   1.413   2.938
 1186W        W 4705   4.669   3.995  11.346
 1187W        W 4706   4.868   2.209   2.606
 1188W        W 4707   3.638   3.442   2.180
 1189W        W 4708   3.148   3.449   3.371
 1190W        W 4709   9.784   1.483   3.617
 1191W        W 4710   0.349   9.484   9.157
 1192W        W 4711   2.602   0.550   2.559
 1193W        W 4712   3.110   7.577  11.960
 1194W        W 4713   2.576   6.182   1.652
 1195W        W 4714   7.232   8.954   9.652
 1196W        W 4715   5.646   8.335  10.342
 1197W        W 4716   6.893   4.629  11.511
 1198W        W 4717   8.492   3.485   0.184
 1199W        W 4718   4.462   8.304   2.707
 1200W        W 4719   3.723   8.269  11.910
 1201W        W 4720   7.102   8.687  11.827
 1202W        W 4721   7.758   9.166   8.760
 1203W        W 4722   2.102   6.536  10.063
 1204W        W 4723   3.747   8.119   0.650
 1205W        W 4724   1.626   4.600   1.286
 1206W        W 4725   1.836   1.672   8.590
 1207W        W 4726   5.192   3.186   2.419
 1208W        W 4727   3.538   6.440   8.000
 1209W        W 4728   5.166   8.020  10.160
 1210W        W 4729   9.602   3.363   0.678
 1211W        W 4730   8.183   5.385   1.871
 1212W        W 4731   1.259   0.778  10.381
 1213W        W 4732   8.744   6.513   3.389
 1214W        W 4733   8.792   3.789   9.944
 1215W        W 4734   9.449   8.011   0.986
 1216W        W 4735   6.454   6.031  11.988
 1217W        W 4736   4.117   4.903  11.436
 1218W        W 4737   0.410   6.200   2.714
 1219W        W 4738   3.591   4.066   0.273
 1220W        W 4739   0.805   2.570   9.128
 1221W        W 4740   8.645   7.430  11.921
 1222W        W 4741   8.410   1.395   1.021
 1223W        W 4742   6.016   0.054  11.299
 1224W        W 4743   2.706   9.668  10.843
 1225W        W 4744   9.130   4.214   9.078
 1226W        W 4745   9.280   7.371   8.645
 1227W        W 4746   6.327   1.699   0.306
 1228W        W 4747   6.631   1.652  10.077
 1229W        W 4748   1.038   4.164   0.195
 1230W        W 4749   2.692   0.387   1.684
 1231W        W 4750   1.848   1.291  11.907
 1232W        W 4751   8.527   7.066   2.503
 1233W        W 4752   1.446   1.825   1.496
 1234W        W 4753   8.530   4.992   1.818
 1235W        W 4754   0.460   2.960   2.290
 1236W        W 4755   9.845   8.007  11.292
 1237W        W 4756   3.509   6.314   0.829
 1238W        W 4757   4.973   0.271  11.852
 1239W        W 4758   7.859   4.512  11.365
 1240W        W 4759   4.157   7.006   0.481
 1241W        W 4760   9.042   2.400  10.416
 1242W        W 4761   6.464   9.757   2.395
 1243W        W 4762   7.478   1.931   0.983
 1244W        W 4763   0.156   2.426  10.442
 1245W        W 4764   2.125   2.342   2.418
 1246W        W 4765   5.842   6.469  10.011
 1247W        W 4766   7.331   8.817   1.394
 1248W        W 4767   2.738   1.673  10.701
 1249W        W 4768   0.708   2.575  10.317
 1250W        W 4769   9.081   1.696  10.895
 1251W        W 4770   4.947   7.030   2.319
 1252W        W 4771   5.729   6.479  11.754
 1253W        W 4772   9.067   5.538   0.323
 1254W        W 4773   6.976   7.694   1.628
 1255W        W 4774   4.538   6.832   8.450
 1256W        W 4775   5.520   3.280   9.064
 1257W        W 4776   8.866   4.952   9.377
 1258W        W 4777   7.407   0.291   1.917
 1259W        W 4778   5.623   8.883  11.070
 1260W        W 4779   3.048   6.075   2.722
 1261W        W 4780   1.645   6.756   0.001
 1262W        W 4781   7.620   3.557   2.464
 1263W        W 4782   1.964   7.795   3.237
 1264W        W 4783   9.193   6.758   3.515
 1265W        W 4784   3.218   8.952   2.283
 1266W        W 4785   8.664   8.403   0.265
 1267W        W 4786   2.637   0.883   1.265
 1268W        W 4787   4.769   8.736   2.654
 1269W        W 4788   4.024   8.047  10.961
 1270W        W 4789   2.675   6.226   9.321
 1271W        W 4790   5.374   5.983   9.018
 1272W        W 4791   0.410   9.020   9.441
 1273W        W 4792   9.079   0.873   9.373
 1274W        W 4793   7.622   6.264   3.660
 1275W        W 4794   3.862   3.936   2.119
 1276W        W 4795   0.402   5.106   2.636
 1277W        W 4796   8.983   8.495  10.448
 1278W        W 4797   9.841   0.433  11.487
 1279W        W 4798   2.734   1.304   8.910
 1280W        W 4799   2.720   8.760   9.110
 1281W        W 4800   8.669   9.459  11.416
 1282W        W 4801   8.710   0.392   9.095
 1283W        W 4802   5.586   3.173   0.567
 1284W        W 4803   8.056   7.100  10.975
 1285W        W 4804   6.208   4.496  10.846
 1286W        W 4805   9.708   8.174  10.223
 1287W        W 4806   3.040   9.069   2.756
 1288W        W 4807   1.444   1.759  11.056
 1289W        W 4808   0.400   3.367  11.283
 1290W        W 4809   9.717   1.234   0.923
 1291W        W 4810   6.925   0.408   1.261
 1292W        W 4811   2.014   5.178   3.191
 1293W        W 4812   2.138   2.278   0.438
 1294W        W 4813   4.392   9.411   8.542
 1295W        W 4814   0.298   1.661   3.471
 1296W        W 4815   1.829   5.205   9.774
 1297W        W 4816   0.001   5.119  10.707
 1298W        W 4817   6.961   2.071   1.027
 1299W        W 4818   2.228   6.507   9.162
 1300W        W 4819   3.936   4.212   2.924
 1301W        W 4820   3.809   2.114   9.057
 1302W        W 4821   0.630   7.193  10.442
 1303W        W 4822   7.489   7.153   0.387
 1304W        W 4823   8.122   3.306   9.922
 1305W        W 4824   0.236   2.923  10.362
 1306W        W 4825   5.220   0.725   2.483
 1307W        W 4826   8.965   0.169   0.929
 1308W        W 4827   3.804   8.505   9.090
 1309W        W 4828   7.142   3.986   1.771
 1310W        W 4829   2.828   1.754   1.913
 1311W        W 4830   8.334   7.047   2.968
 1312W        W 4831   7.330   9.842  10.531
 1313W        W 4832   3.812   0.602   2.669
 1314W        W 4833   9.390   0.601  11.697
 1315W        W 4834   3.149   4.907  11.628
 1316W        W 4835   4.752   3.116   8.139
 1317W        W 4836   3.464   3.844   3.784
 1318W        W 4837   6.974   3.686  10.087
 1319W        W 4838   6.450   9.017   9.954
 1320W        W 4839   9.973   6.501  10.909
 1321W        W 4840   5.092   2.692   9.771
 1322W        W 4841   7.852   8.556   3.556
 1323W        W 4842   6.922   3.358   2.434
 1324W        W 4843   3.867   7.168   3.746
 1325W        W 4844   1.793   9.617  10.536
 1326W        W 4845   6.693   1.693   1.378
 1327W        W 4846   2.167   7.442   8.827
 1328W        W 4847   4.960   9.041   0.410
 1329W        W 4848   9.855   0.388   0.587
 1330W        W 4849   8.885   7.675  11.199
 1331W        W 4850   5.618   9.816  11.498
 1332W        W 4851   5.063   3.018  11.975
 1333W        W 4852   7.574   0.672   3.256
 1334W        W 4853   3.990   3.225   1.847
 1335W        W 4854   7.398   3.055   0.059
 1336W        W 4855   0.746   0.568   9.016
 1337W        W 4856   2.553   1.344   9.394
 1338W        W 4857   9.257   1.484   9.486
 1339W        W 4858   0.821   1.812  11.748
 1340W        W 4859   7.034   9.761   9.703
 1341W        W 4860   0.269   9.934   9.619
 1342W        W 4861   6.120   8.057   9.711
 1343W        W 4862   3.233   9.018  10.735
 1344W        W 4863   1.576   0.773   1.377
 1345W        W 4864   8.471   3.531   2.783
 1346W        W 4865   1.408   7.061   9.105
 1347W        W 4866   0.659   7.464   2.175
 1348W        W 4867   8.494   3.629  11.218
 1349W        W 4868   3.501   5.510  11.693
 1350W        W 4869   2.301   3.170  10.090
 1351W        W 4870   0.857   6.347   1.442
 1352W        W 4871   3.479   5.746   9.750
 1353W        W 4872   8.894   1.385   2.750
 1354W        W 4873   2.608   8.485  11.303
 1355W        W 4874   1.827   9.319   2.416
 1356W        W 4875   4.496   2.394  10.101
 1357W        W 4876   7.860   3.175   2.686
 1358W        W 4877   2.261   3.795  10.918
 1359W        W 4878   1.409   9.317  11.871
 1360W        W 4879   7.345   7.981  11.810
 1361W        W 4880   4.717   1.385   0.211
 1362W        W 4881   7.502   8.383   1.616
 1363W        W 4882   4.169   2.929  10.421
 1364W        W 4883   5.647   4.207   1.562
 1365W        W 4884   3.685   0.372   0.731
 1366W        W 4885   1.718   0.021  10.842
 1367W        W 4886   9.021   6.970   8.889
 1368W        W 4887   1.009   4.068   9.007
 1369W        W 4888   9.425   0.403   0.888
 1370W        W 4889   6.516   8.028   2.509
 1371W        W 4890   2.138   0.369  10.453
 1372W        W 4891   5.210   8.985  11.417
 1373W        W 4892   2.917   3.817   8.453
 1374W        W 4893   1.883   5.427  10.793
 1375W        W 4894   2.331   3.559   1.363
 1376W        W 4895   4.350   4.017   0.638
 1377W        W 4896   4.048   6.088   3.079
 1378W        W 4897   9.096   4.990  11.214
 1379W        W 4898   1.947   6.988   9.039
 1380W        W 4899   6.617   5.548   2.257
 1381W        W 4900   8.543   3.782  11.704
 1382W        W 4901   7.031   1.902  10.601
 1383W        W 4902   5.793   2.666  11.347
 1384W        W 4903   7.442   8.148   2.930
 1385W        W 4904   6.258   6.187  10.305
 1386W        W 4905   6.467   5.778  11.072
 1387W        W 4906   3.082   2.165  11.450
 1388W        W 4907   4.299   7.611   3.197
 1389W        W 4908   7.704   4.621   0.788
 1390W        W 4909   6.669   4.101   1.616
 1391W        W 4910   4.017   2.256   1.801
 1392W        W 4911   4.743   9.587   2.474
 1393W        W 4912   0.979   1.231  10.403
 1394W        W 4913   4.443   7.434   1.915
 1395W        W 4914   4.732   7.604   3.921
 1396W        W 4915   9.410   9.694  11.764
 1397W        W 4916   4.693   2.318   0.626
 1398W        W 4917   5.352   3.454   1.820
 1399W        W 4918   1.217   0.961   0.497
 1400W        W 4919   8.274   5.622   2.518
 1401W        W 4920   0.030   0.221   1.714
 1402W        W 4921   3.629   6.834   2.515
 1403W        W 4922   1.338   4.579   0.326
 1404W        W 4923   2.971   4.680  10.531
 1405W        W 4924   8.723   7.245  11.450
 1406W        W 4925   0.734   2.093  11.104
 1407W        W 4926   1.165   3.019   3.067
 1408W        W 4927   1.061   8.396   9.344
 1409W        W 4928   1.825   7.026   2.250
 1410W        W 4929   4.570   4.130   9.179
 1411W        W 4930   5.978   7.177   0.902
 1412W        W 4931   9.226   5.237   2.778
 1413W        W 4932   4.062   6.394   9.607
 1414W        W 4933   2.471   1.694   1.119
 1415W        W 4934   4.314   3.751   9.595
 1416W        W 4935   5.960   9.448   2.989
 1417W        W 4936   8.471   6.579   1.335
 1418W        W 4937   1.383   7.146   9.908
 1419W        W 4938   3.142   9.545  10.007
 1420W        W 4939   4.180   0.418   9.170
 1421W        W 4940   3.263   1.121   1.338
 1422W        W 4941   3.107   6.514   9.375
 1423W        W 4942   8.910   4.628   9.770
 1424W        W 4943   2.186   0.123   0.423
 1425W        W 4944   3.267   1.792   2.691
 1426W        W 4945   0.407   4.000  11.856
 1427W        W 4946   5.499   5.751  10.291
 1428W        W 4947   8.857   7.922   0.211
 1429W        W 4948   2.552   9.938   1.356
 1430W        W 4949   5.564   4.034   3.355
 1431W        W 4950   3.485   0.863   0.769
 1432W        W 4951   0.171   3.079   3.081
 1433W        W 4952   5.535   1.204  10.682
 1434W        W 4953   7.767   7.480   1.271
 1435W        W 4954   4.713   3.919   1.540
 1436W        W 4955   3.957   8.112  10.048
 1437W        W 4956   8.616   5.373   0.634
 1438W        W 4957   5.061   4.648  10.721
 1439W        W 4958   9.761   8.621   2.842
 1440W        W 4959   9.005   5.481  11.348
 1441W        W 4960   9.980   3.079  11.969
 1442W        W 4961   2.283   1.242   1.412
 1443W        W 4962   6.882   6.846  10.207
 1444W        W 4963   7.650   8.857   1.799
 1445W        W 4964   2.060   1.268   0.395
 1446W        W 4965   1.666   2.704   3.113
 1447W        W 4966   5.861   0.491   8.948
 1448W        W 4967   7.860   0.794   1.232
 1449W        W 4968   1.875   5.711   0.398
 1450W        W 4969   1.762   9.882   8.796
 1451W        W 4970   2.206   2.087   1.357
 1452W        W 4971   4.889   2.792   8.973
 1453W        W 4972   2.223   1.683   9.880
 1454W        W 4973   9.365   3.223   2.910
 1455W        W 4974   2.676   9.491   9.789
 1456W        W 4975   6.958   5.986   2.352
 1457W        W 4976   6.395   6.784  11.022
 1458W        W 4977   8.365   2.870  10.084
 1459W        W 4978   0.161   9.139   1.142
 1460W        W 4979   8.183   9.305   9.131
 1461W        W 4980   3.693   1.635   2.436
 1462W        W 4981   3.653   9.017   9.853
 1463W        W 4982   2.013   8.637   3.539
 1464W        W 4983   3.952   9.203   3.578
 1465W        W 4984   6.010   6.043   2.534
 1466W        W 4985   7.470   6.068   2.435
 1467W        W 4986   5.697   7.050   9.796
 1468W        W 4987   1.775   1.796  10.124
 1469W        W 4988   9.779   9.869   2.006
 1470W        W 4989   7.840   1.599  11.855
 1471W        W 4990   8.580   5.580   1.116
 1472W        W 4991   4.921   2.657   0.310
 1473W        W 4992   2.579   1.956   8.814
 1474W        W 4993   6.245   5.909   0.453
 1475W        W 4994   8.449   3.138   9.002
 1476W        W 4995   6.101   5.449   0.259
 1477W        W 4996   9.365   3.732   3.126
 1478W        W 4997   3.015   1.051   0.894
 1479W        W 4998   8.578   8.390   1.907
 1480W        W 4999   8.436   0.035   9.683
 1481W        W 5000   9.447   1.411  11.229
 1482W        W 5001   6.832   0.236   9.506
 1483W        W 5002   7.048   4.835   3.577
 1484W        W 5003   1.428   1.499   1.072
 1485W        W 5004   8.493   0.325  11.668
 1486W        W 5005   2.330   6.033  10.109
 1487W        W 5006   5.781   7.294  10.671
 1488W        W 5007   2.715   8.873   0.548
 1489W        W 5008   6.658   4.131   0.352
 1490W        W 5009   3.809   4.762   1.705
 1491W        W 5010   6.967   3.453   3.634
 1492W        W 5011   3.181   4.183   9.660
 1493W        W 5012   0.909   9.348   2.362
 1494W        W 5013   7.388   6.544   2.068
 1495W        W 5014   9.305   3.196   9.298
 1496W        W 5015   7.145   6.094   3.704
 1497W        W 5016   2.209   4.981  11.531
 1498W        W 5017   6.474   4.865  11.212
 1499W        W 5018   9.443   8.979   0.574
 1500W        W 5019   5.002   6.729   8.653
 1501W        W 5020   1.223   2.879   0.679
 1502W        W 5021   7.096   2.506   1.325
 1503W        W 5022   1.033   7.531   3.022
 1504W        W 5023   8.118   3.810   0.959
 1505W        W 5024   7.551   0.761  10.824
 1506W        W 5025   8.537   9.828   3.033
 1507W        W 5026   7.703   4.719   2.332
 1508W        W 5027   9.409   0.464  10.676
 1509W        W 5028   9.966   3.014   2.192
 1510W        W 5029   8.532   2.312  10.522
 1511W        W 5030   3.054   5.052   3.278
 1512W        W 5031   4.833   6.034   1.445
 1513W        W 5032   4.014   3.909   1.312
 1514W        W 5033   3.538   3.738   8.479
 1515W        W 5034   3.671   0.011   1.497
 1516W        W 5035   8.485   7.032  10.131
 1517W        W 5036   5.085   5.250   1.867
 1518W        W 5037   3.356   0.861   1.776
 1519W        W 5038   9.495   2.386   1.779
 1520W        W 5039   8.259   6.667   9.047
 1521W        W 5040   8.903   3.077   2.683
 1522W        W 5041   1.698   6.317   2.906
 1523W        W 5042   4.956   0.658  10.967
 1524W        W 5043   8.934   7.096   0.795
 1525W        W 5044   4.000   4.339   0.467
 1526W        W 5045   1.526   6.943   3.565
 1527W        W 5046   9.208   6.075   1.846
 1528W        W 5047   1.322   6.658   0.381
 1529W        W 5048   7.454   0.916   0.900
 1530W        W 5049   9.839   3.228   2.744
 1531W        W 5050   4.077   3.215  10.874
 1532W        W 5051   5.406   2.311   9.977
 1533W        W 5052   8.107   8.427   9.419
 1534W        W 5053   7.630   2.343   2.204
 1535W        W 5054   7.534   1.110   8.544
 1536W        W 5055   6.113   6.716   9.634
 1537W        W 5056   7.427   8.533   9.876
 1538W        W 5057   9.258   4.489  11.105
 1539W        W 5058   3.328   7.965   0.885
 1540W        W 5059   4.204   2.591   3.091
 1541W        W 5060   0.217   1.774  10.246
 1542W        W 5061   9.198   3.134   0.835
 1543W        W 5062   3.498   1.207  10.487
 1544W        W 5063   5.943   2.736  10.310
 1545W        W 5064   4.281   4.427   8.564
 1546W        W 5065   7.405   9.564   0.224
 1547W        W 5066   4.987   6.588  10.582
 1548W        W 5067   7.826   6.333   3.155
 1549W        W 5068   1.711   5.793   9.101
 1550W        W 5069   6.394   1.357  11.505
 1551W        W 5070   0.019   5.866   0.181
 1552W        W 5071   1.869   9.213   9.583
 1553W        W 5072   5.369   8.501  11.331
 1554W        W 5073   1.866   4.700  11.252
 1555W        W 5074   4.715   1.427   0.716
 1556W        W 5075   9.645   7.485   3.377
 1557W        W 5076   5.510   2.200   1.552
 1558W        W 5077   6.939   5.534   8.498
 1559W        W 5078   9.622   6.463   8.662
 1560W        W 5079   1.356   8.444   0.133
 1561W        W 5080   6.523   7.842   9.466
 1562W        W 5081   8.487   6.980   1.030
 1563W        W 5082   9.428   4.161   2.818
 1564W        W 5083   5.049   6.407  11.068
 1565W        W 5084   5.867   1.871   1.272
 1566W        W 5085   4.632   3.601   8.433
 1567W        W 5086   8.090   9.430  11.188
 1568W        W 5087   4.013   3.258   9.492
 1569W        W 5088   9.868   1.318  11.477
 1570W        W 5089   0.238   1.054   1.000
 1571W        W 5090   6.360   3.735   0.302
 1572W        W 5091   2.620   1.947  11.575
 1573W        W 5092   7.704   2.101  11.684
 1574W        W 5093   5.225   6.951   9.987
 1575W        W 5094   3.776   1.731   0.923
 1576W        W 5095   4.167   3.209   9.968
 1577W        W 5096   0.309   3.745  10.930
 1578W        W 5097   8.518   6.604   0.085
 1579W        W 5098   1.233   1.589  11.927
 1580W        W 5099   9.480   3.153   2.377
 1581W        W 5100   2.854   0.137  11.040
 1582W        W 5101   7.549   1.176  11.981
 1583W        W 5102   2.920   4.341   0.834
 1584W        W 5103   0.883   0.092   8.908
 1585W        W 5104   7.043   5.472   1.635
 1586W        W 5105   8.856   7.014   3.230
 1587W        W 5106   8.066   0.059  10.888
 1588W        W 5107   7.228   4.634  10.188
 1589W        W 5108   4.786   3.713   9.408
 1590W        W 5109   6.760   5.204   8.932
 1591W        W 5110   5.432   7.578   1.854
 1592W        W 5111   5.757   6.175  10.424
 1593W        W 5112   7.828   6.627  10.877
 1594W        W 5113   7.466   1.870   1.958
 1595W        W 5114   9.130   3.050   9.903
 1596W        W 5115   1.144   5.719   2.243
 1597W        W 5116   2.183   2.582   1.363
 1598W        W 5117   8.780   4.309   0.479
 1599W        W 5118   8.079   2.804   8.875
 1600W        W 5119   3.598   3.641   0.701
 1601W        W 5120   3.382   0.338  11.068
 1602W        W 5121   9.640   8.546   8.606
 1603W        W 5122   0.220   0.014   0.838
 1604W        W 5123   7.023   9.036  10.472
 1605W        W 5124   5.046   4.013   3.271
 1606W        W 5125   7.123   5.965  11.500
 1607W        W 5126   3.278   0.761  11.393
 1608W        W 5127   5.196   0.067  11.342
 1609W        W 5128   3.840   8.314  10.530
 1610W        W 5129   1.809   3.128   9.391
 1611W        W 5130   9.865   8.035  10.701
 1612W        W 5131   7.376   7.497   9.989
 1613W        W 5132   4.908   5.372   1.415
 1614W        W 5133   7.546   5.589  10.239
 1615W        W 5134   4.953   7.517  11.607
 1616W        W 5135   5.167   0.724  11.955
 1617W        W 5136   9.040   3.165   8.736
 1618W        W 5137   3.058   7.863  11.526
 1619W        W 5138   4.025   2.192  10.810
 1620W        W 5139   9.351   9.961   0.655
 1621W        W 5140   9.524   6.490   2.715
 1622W        W 5141   2.315   0.083   1.891
 1623W        W 5142   8.706   1.842  11.723
 1624W        W 5143   3.762   3.665   8.006
 1625W        W 5144   8.495   0.328   0.770
 1626W        W 5145   6.635   3.212  10.460
 1627W        W 5146   7.832   6.097  10.858
 1628W        W 5147   3.213   2.951   0.303
 1629W        W 5148   2.783   6.425  11.045
 1630W        W 5149   3.652   0.992   3.013
 1631W        W 5150   7.734   8.481  11.301
 1632W        W 5151   3.669   8.803  10.578
 1633W        W 5152   9.840   9.984  11.766
 1634W        W 5153   4.586   3.280  10.258
 1635W        W 5154   1.055   9.671   0.472
 1636W        W 5155   6.647   7.550   3.231
 1637W        W 5156   1.058   2.830  10.724
 1638W        W 5157   5.441   2.738   0.290
 1639W        W 5158   3.126   8.285  10.150
 1640W        W 5159   3.565   4.255  11.282
 1641W        W 5160   0.667   4.911   0.910
 1642W        W 5161   3.595   5.931   9.122
 1643W        W 5162   4.148   0.072   1.841
 1644W        W 5163   1.797   5.877   2.686
 1645W        W 5164   0.340   9.299   8.631
 1646W        W 5165   4.189   2.252   2.701
 1647W        W 5166   3.749   6.342  10.434
 1648W        W 5167   3.790   6.121   9.968
 1649W        W 5168   2.061   1.485   0.873
 1650W        W 5169   9.619   1.000   1.400
 1651W        W 5170   4.621   7.211   3.188
 1652W        W 5171   2.668   8.992   9.614
 1653W        W 5172   6.776   9.950   1.381
 1654W        W 5173   5.277   4.932   3.321
 1655W        W 5174   3.370   1.085   0.301
 1656W        W 5175   4.311   9.103  11.231
 1657W        W 5176   3.763   9.206   1.124
 1658W        W 5177   0.495   4.194   9.529
 1659W        W 5178   1.961   2.757   2.160
 1660W        W 5179   2.362   8.862   8.744
 1661W        W 5180   1.324   7.639   9.956
 1662W        W 5181   9.990   8.074   2.230
 1663W        W 5182   8.153   5.358   0.889
 1664W        W 5183   0.938   0.894   9.990
 1665W        W 5184   1.347   4.926  11.952
 1666W        W 5185   4.177   8.537   0.676
 1667W        W 5186   5.227   5.952   0.449
 1668W        W 5187   2.615   6.445  10.056
 1669W        W 5188   0.885   7.218   9.527
 1670W        W 5189   7.848   6.782   2.108
 1671W        W 5190   0.025   2.144   9.402
 1672W        W 5191   1.664   0.018   9.303
 1673W        W 5192   8.831   0.880   2.550
 1674W        W 5193   4.531   5.148   1.758
 1675W        W 5194   7.501   9.410   0.924
 1676W        W 5195   5.566   3.865  11.853
 1677W        W 5196   6.460   6.030   2.319
 1678W        W 5197   7.455   0.305   0.054
 1679W        W 5198   6.317   0.482   9.221
 1680W        W 5199   0.601   9.055   9.946
 1681W        W 5200   7.938   0.196   2.539
 1682W        W 5201   2.845   5.558   3.216
 1683W        W 5202   7.297   1.777   2.855
 1684W        W 5203   6.136   4.572   3.101
 1685W        W 5204   0.894   2.486   9.858
 1686W        W 5205   2.897   9.571   1.439
 1687W        W 5206   5.119   4.969   0.087
 1688W        W 5207   9.573   0.067   3.373
 1689W        W 5208   5.588   2.547   9.568
 1690W        W 5209   7.415   8.862  11.053
 1691W        W 5210   6.243   4.574   4.118
 1692W        W 5211   6.905   8.206  11.716
 1693W        W 5212   6.123   7.644  10.815
 1694W        W 5213   6.380   6.936   8.728
 1695W        W 5214   3.525   7.589   0.586
 1696W        W 5215   8.019   9.543   1.625
 1697W        W 5216   7.216   6.136  10.065
 1698W        W 5217   0.880   3.915   3.020
 1699W        W 5218   4.577   6.623   2.403
 1700W        W 5219   6.678   0.563  10.464
 1701W        W 5220   8.617   9.058   9.845
 1702W        W 5221   4.227   8.746   2.875
 1703W        W 5222   7.880   8.868   0.457
 1704W        W 5223   3.374   9.172   3.175
 1705W        W 5224   9.787   6.709  10.476
 1706W        W 5225   8.654   3.149  11.825
 1707W        W 5226   2.123   1.472   1.924
 1708W        W 5227   7.200   7.080  11.465
 1709W        W 5228   0.096   7.060   3.304
 1710W        W 5229   3.287   6.663   8.399
 1711W        W 5230   0.698   7.932  10.949
 1712W        W 5231   1.219   3.098  11.158
 1713W        W 5232   1.630   1.221   8.756
 1714W        W 5233   9.753   7.432   8.963
 1715W        W 5234   5.939   9.516  11.785
 1716W        W 5235   4.030   7.157  10.657
 1717W        W 5236   3.373   0.443  10.093
 1718W        W 5237   0.850   8.504   1.296
 1719W        W 5238   8.035   0.190   9.984
 1720W        W 5239   9.548   9.236   3.466
 1721W        W 5240   4.873   8.391  11.335
 1722W        W 5241   2.648   8.288  10.360
 1723W        W 5242   6.000   9.271   1.260
 1724W        W 5243   8.156   7.440   2.699
 1725W        W 5244   0.874   4.098   1.153
 1726W        W 5245   2.084   0.765   1.276
 1727W        W 5246   9.810   8.368   3.286
 1728W        W 5247   5.174   8.061   9.588
 1729W        W 5248   8.359   1.755   0.528
 1730W        W 5249   0.488   5.644   0.312
 1731W        W 5250   0.292   7.971   0.735
 1732W        W 5251   6.294   5.889   1.147
 1733W        W 5252   8.688   8.840  10.697
 1734W        W 5253   4.382   9.725   0.580
 1735W        W 5254   5.309   7.482  10.663
 1736W        W 5255   6.540   0.234   2.131
 1737W        W 5256   3.962   5.110  10.970
 1738W        W 5257   1.736   2.668   9.110
 1739W        W 5258   7.568   0.377  10.125
 1740W        W 5259   1.613   8.037  10.467
 1741W        W 5260   4.615   6.226   4.213
 1742W        W 5261   2.134   2.525  11.568
 1743W        W 5262   0.172   7.532   3.498
 1744W        W 5263   1.455   5.363   0.176
 1745W        W 5264   7.080   7.838   3.209
 1746W        W 5265   2.273   7.409  11.551
 1747W        W 5266   5.730   9.681   8.505
 1748W        W 5267   8.662   3.274  10.006
 1749W        W 5268   4.381   7.858   9.991
 1750W        W 5269   4.591   9.535   1.358
 1751W        W 5270   3.016   1.847   9.953
 1752W        W 5271   6.332   5.064   1.489
 1753W        W 5272   4.462   5.131  10.761
 1754W        W 5273   3.409   6.813   0.805
 1755W        W 5274   9.594   1.808  11.542
 1756W        W 5275   4.964   5.648   8.415
 1757W        W 5276   3.149   5.958   1.074
 1758W        W 5277   5.124   0.144   1.708
 1759W        W 5278   1.389   0.206   2.100
 1760W        W 5279   9.105   6.705   2.505
 1761W        W 5280   7.182   0.807   2.141
 1762W        W 5281   7.728   4.552   9.503
 1763W        W 5282   3.779   4.439  10.376
 1764W        W 5283   8.454   2.642   0.519
 1765W        W 5284   1.273   3.307   2.153
 1766W        W 5285   2.789   8.876   1.970
 1767W        W 5286   1.406   9.407  10.856
 1768W        W 5287   3.228   3.193   2.883
 1769W        W 5288   2.840   5.552   8.876
 1770W        W 5289   8.431   4.506   8.323
 1771W        W 5290   1.319   6.166   2.048
 1772W        W 5291   1.984   0.463   9.518
 1773W        W 5292   1.890   9.137  10.660
 1774W        W 5293   0.010   6.514   1.401
 1775W        W 5294   9.138   6.578   3.037
 1776W        W 5295   8.808   3.124  11.330
 1777W        W 5296   5.781   4.226   3.773
 1778W        W 5297   7.253   9.058   8.788
 1779W        W 5298   0.431   5.662   2.661
 1780W        W 5299   7.678   9.867   1.829
 1781W        W 5300   0.652   5.144   2.009
 1782W        W 5301   6.414   9.781   2.923
 1783W        W 5302   7.082   1.409   1.239
 1784W        W 5303   6.843   0.072  10.573
 1785W        W 5304   1.152   3.309  10.653
 1786W        W 5305   5.485   8.914   1.883
 1787W        W 5306   1.414   4.053   1.298
 1788W        W 5307   5.083   1.768   2.369
 1789W        W 5308   7.873   9.789   3.279
 1790W        W 5309   3.265   0.918   9.887
 1791W        W 5310   6.139   0.202   0.672
 1792W        W 5311   9.895   2.694   1.780
 1793W        W 5312   5.969   6.483   3.310
 1794W        W 5313   6.385   9.057   0.188
 1795W        W 5314   4.084   8.069   8.570
 1796W        W 5315   3.127   6.013   9.480
 1797W        W 5316   7.986   1.438   0.338
 1798W        W 5317   7.515   9.855   9.501
 1799W        W 5318   1.717   7.457   0.806
 1800W        W 5319   6.071   3.691  11.865
 1801W        W 5320   5.894   0.616   3.776
 1802W        W 5321   4.648   1.391   9.867
 1803W        W 5322   2.915   1.727  11.193
 1804W        W 5323   8.016   6.982   2.532
 1805W        W 5324   2.996   5.558   9.681
 1806W        W 5325   2.783   3.052   0.598
 1807W        W 5326   4.022   1.837   9.957
 1808W        W 5327   2.703   9.312   8.196
 1809W        W 5328   5.119   6.162   8.610
 1810W        W 5329   8.034   8.885  10.408
 1811W        W 5330   1.334   4.062  10.980
 1812W        W 5331   5.040   4.473   3.495
 1813W        W 5332   8.148   4.290   3.544
 1814W        W 5333   5.676   6.207   8.327
 1815W        W 5334   8.626   0.830  11.658
 1816W        W 5335   1.256   6.563   2.842
 1817W        W 5336   3.597   5.312  10.502
 1818W        W 5337   6.648   8.120   0.529
 1819W        W 5338   6.558   6.497   8.535
 1820W        W 5339   4.484   9.258  10.758
 1821W        W 5340   0.002   8.902   8.515
 1822W        W 5341   8.863   7.387   1.787
 1823W        W 5342   8.430   4.732   9.582
 1824W        W 5343   8.816   5.776  10.957
 1825W        W 5344   3.716   5.544   2.743
 1826W        W 5345   1.237   2.209  11.116
 1827W        W 5346   6.503   2.081   9.154
 1828W        W 5347   1.005   1.721   1.235
 1829W        W 5348   1.471   4.971  11.454
 1830W        W 5349   2.756   3.164   2.542
 1831W        W 5350  10.000   3.841   1.125
 1832W        W 5351   3.408   0.245   1.134
 1833W        W 5352   3.803   1.237   1.238
 1834W        W 5353   9.143   3.683   8.814
 1835W        W 5354   3.705   7.007   1.369
 1836W        W 5355   0.444   1.810   9.355
 1837W        W 5356   4.559   8.727   0.380
 1838W        W 5357   4.707   6.909  10.026
 1839W        W 5358   3.695   0.759  11.841
 1840W        W 5359   0.167   8.043   0.254
 1841W        W 5360   3.997   0.337   2.255
 1842W        W 5361   7.599   9.786   2.759
 1843W        W 5362   5.003   6.079   0.922
 1844W        W 5363   4.808   8.333  10.846
 1845W        W 5364   6.082   1.362  10.770
 1846W        W 5365   6.040   2.259   3.123
 1847W        W 5366   6.170   4.056   8.742
 1848W        W 5367   0.690   3.590  10.617
 1849W        W 5368   4.725   6.940   2.768
 1850W        W 5369   7.555   4.882   9.874
 1851W        W 5370   5.108   6.061  10.261
 1852W        W 5371   7.304   1.149  10.524
 1853W        W 5372   9.807   7.157   1.942
 1854W        W 5373   2.529   5.970  11.667
 1855W        W 5374   6.349   7.875   3.496
 1856W        W 5375   8.661   3.511   8.661
 1857W        W 5376   2.653   4.035   0.368
 1858W        W 5377   8.264   1.469  10.473
 1859W        W 5378   8.879   5.461   9.492
 1860W        W 5379   1.207   3.738   0.457
 1861W        W 5380   8.370   5.203   2.819
 1862W        W 5381   2.758   4.035   8.884
 1863W        W 5382   0.582   0.217   0.050
 1864W        W 5383   6.877   2.898   8.854
 1865W        W 5384   1.317   5.477   9.078
 1866W        W 5385   3.715   4.277   2.473
 1867W        W 5386   0.025   1.975  10.683
 1868W        W 5387   6.021   6.503   8.633
 1869W        W 5388   5.727   8.494   0.651
 1870W        W 5389   9.753   3.254   1.786
 1871W        W 5390   4.041   9.562   1.901
 1872W        W 5391   9.324   5.691  11.006
 1873W        W 5392   2.589   8.535   0.968
 1874W        W 5393   2.431   0.369   9.284
 1875W        W 5394   8.533   6.060   2.460
 1876W        W 5395   6.901   2.072   2.750
 1877W        W 5396   0.630   3.534   0.704
 1878W        W 5397   9.009   5.331  10.801
 1879W        W 5398   5.846   5.139  10.300
 1880W        W 5399   8.909   0.183   0.408
 1881W        W 5400   2.696   3.403   1.043
 1882W        W 5401   1.954   2.607  10.709
 1883W        W 5402   7.527   1.304  10.083
 1884W        W 5403   9.566   3.779   3.575
 1885W        W 5404   6.792   5.655   2.767
 1886W        W 5405   3.311   9.001   0.904
 1887W        W 5406   7.280   5.491  11.321
 1888W        W 5407   3.840   2.507   9.444
 1889W        W 5408   9.886   9.311  11.066
 1890W        W 5409   0.042   3.602  11.850
 1891W        W 5410   6.332   9.685   1.339
 1892W        W 5411   4.698   1.483  10.530
 1893W        W 5412   5.686   4.797   2.930
 1894W        W 5413   1.812   7.830   2.549
 1895W        W 5414   2.383   4.736   2.293
 1896W        W 5415   0.860   6.533  10.961
 1897W        W 5416   9.924   5.222  11.189
 1898W        W 5417   2.223   9.669   9.973
 1899W        W 5418   3.750   2.652   1.021
 1900W        W 5419   2.375   7.026   0.685
 1901W        W 5420   8.529   6.219   0.422
 1902W        W 5421   3.904   6.708   0.909
 1903W        W 5422   0.491   4.091   9.032
 1904W        W 5423   4.223   8.842  10.661
 1905W        W 5424   3.207   0.722   3.165
 1906W        W 5425   0.304   2.027   1.295
 1907W        W 5426   9.467   9.364  10.746
 1908W        W 5427   8.008   2.004   2.168
 1909W        W 5428   6.471   9.300   1.025
 1910W        W 5429   8.504   6.815  11.612
 1911W        W 5430   2.366   8.438   0.424
 1912W        W 5431   6.779   9.792   9.245
 1913W        W 5432   7.486   2.051  10.383
 1914W        W 5433   2.563   7.005  11.305
 1915W        W 5434   4.598   4.728   9.860
 1916W        W 5435   4.599   1.300   2.993
 1917W        W 5436   0.231   0.433   9.104
 1918W        W 5437   9.434   5.859  11.476
 1919W        W 5438   1.354   9.216   1.670
 1920W        W 5439   3.549   9.241  10.300
 1921W        W 5440   4.758   9.501   0.871
 1922W        W 5441   8.581   8.181  11.511
 1923W        W 5442   0.136   3.725   9.808
 1924W        W 5443   8.534   8.552   9.730
 1925W        W 5444   8.785   5.615  11.793
 1926W        W 5445   8.911   2.604   2.020
 1927W        W 5446   4.078   7.584   9.240
 1928W        W 5447   8.492   8.009  10.519
 1929W        W 5448   7.900   5.919   1.617
 1930W        W 5449   3.228   4.216   9.133
 1931W        W 5450   8.135   6.663   8.534
 1932W        W 5451   2.662   5.283   1.146
 1933W        W 5452   5.394   9.769   1.949
 1934W        W 5453   8.025   0.665   2.317
 1935W        W 5454   0.221   5.951   8.597
 1936W        W 5455   4.675   8.527   1.395
 1937W        W 5456   8.587   8.414   9.233
 1938W        W 5457   1.603   6.763   8.717
 1939W        W 5458   2.331   3.246   0.722
 1940W        W 5459   6.662   4.525  11.986
 1941W        W 5460   0.799   2.296   2.526
 1942W        W 5461   5.025   0.888   8.979
 1943W        W 5462   4.699   2.722   3.232
 1944W        W 5463   8.123   7.746   3.104
 1945W        W 5464   8.433   4.181   1.338
 1946W        W 5465   9.983   6.847   0.506
 1947W        W 5466   1.300   6.321   9.542
 1948W        W 5467   6.405   0.992   0.844
 1949W        W 5468   1.570   7.462   2.284
 1950W        W 5469   4.223   3.584   2.196
 1951W        W 5470   1.226   8.511   9.946
 1952W        W 5471   4.764   2.019   9.429
 1953W        W 5472   5.667   9.700  10.059
 1954W        W 5473   1.909   3.932   9.821
 1955W        W 5474   9.109   6.174  10.974
 1956W        W 5475   5.963   4.429   0.367
 1957W        W 5476   8.858   7.785   1.440
 1958W        W 5477   7.378   0.843   9.879
 1959W        W 5478   0.043   9.636   0.464
 1960W        W 5479   5.157   6.545   2.326
 1961W        W 5480   7.097   1.084   1.704
 1962W        W 5481   1.202   7.081   8.630
 1963W        W 5482   4.720   7.979   1.355
 1964W        W 5483   0.696   3.892  11.390
 1965W        W 5484   0.462   2.381  11.443
 1966W        W 5485   5.860   9.398  10.805
 1967W        W 5486   5.567   1.863   0.870
 1968W        W 5487   7.316   7.689   2.750
 1969W        W 5488   4.311   3.077   2.208
 1970W        W 5489   8.888   9.216   0.941
 1971W        W 5490   0.956   5.777   2.740
 1972W        W 5491   1.606   5.075   2.466
 1973W        W 5492   5.317   2.386   4.389
 1974W        W 5493   4.637   6.952   1.190
 1975W        W 5494   2.092   3.503  11.399
 1976W        W 5495   8.331   3.831   3.170
 1977W        W 5496   6.421   8.913   3.620
 1978W        W 5497   1.374   8.125   2.730
 1979W        W 5498   3.500   4.100   8.138
 1980W        W 5499   6.270   5.714   3.660
 1981W        W 5500   8.385   4.521   0.237
 1982W        W 5501   0.046   9.807  10.252
 1983W        W 5502   5.247   3.521   0.769
 1984W        W 5503   5.621   7.844   2.380
 1985W        W 5504   5.772   7.402   0.029
 1986W        W 5505   2.663   8.596   2.894
 1987W        W 5506   2.930   1.811   3.646
 1988W        W 5507   4.481   2.357  10.608
 1989W        W 5508   5.246   9.403   3.026
 1990W        W 5509   6.861   8.967   1.600
 1991W        W 5510   8.463   7.157  10.651
 1992W        W 5511   0.157   4.151   1.776
 1993W        W 5512   9.792   1.010   3.268
 1994W        W 5513   5.040   9.194   2.615
 1995W        W 5514   1.197   8.481  10.466
 1996W        W 5515   9.611   2.397   3.527
 1997W        W 5516   0.886   0.622   0.275
 1998W        W 5517   1.592   9.039   1.260
 1999W        W 5518   5.519   7.296   3.614
 2000W        W 5519   7.479   1.087   1.377
 2001W        W 5520   6.191   0.761   0.028
 2002W        W 5521   7.803   0.375  10.571
 2003W        W 5522   0.496   1.566   1.275
 2004W        W 5523   5.481   5.087  11.307
 2005W        W 5524   2.317   4.401   0.787
 2006W        W 5525   7.659   7.616  10.412
 2007W        W 5526   4.837   9.963   0.623
 2008W        W 5527   7.272   2.131   9.064
 2009W        W 5528   7.267   5.653   3.993
 2010W        W 5529   1.214   2.225   1.298
 2011W        W 5530   4.270   5.314   3.329
 2012W        W 5531   3.330   5.940   7.965
 2013W        W 5532   1.028   7.089   3.528
 2014W        W 5533   0.282   3.387   3.473
 2015W        W 5534   8.914   7.795  11.694
 2016W        W 5535   5.483   4.229  11.495
 2017W        W 5536   2.609   7.932  10.731
 2018W        W 5537   5.642   1.055   3.591
 2019W        W 5538   4.317   4.673   1.800
 2020W        W 5539   5.007   6.878   3.196
 2021W        W 5540   9.427   7.978  11.005
 2022W        W 5541   9.343   8.996  11.144
 2023W        W 5542   6.006   8.829   0.417
 2024W        W 5543   0.404   7.603   0.397
 2025W        W 5544   8.201   2.884   9.611
 2026W        W 5545   6.162   7.939   0.592
 2027W        W 5546   2.747   7.480  11.287
 2028W        W 5547   0.410   2.711   1.848
 2029W        W 5548   6.884   6.279  11.842
 2030W        W 5549   6.830   7.329   9.049
 2031W        W 5550   2.783   9.731   8.968
 2032W        W 5551   6.806   3.500   8.558
 2033W        W 5552   1.767   8.777   9.315
 2034W        W 5553   5.648   3.827   9.928
 2035W        W 5554   5.947   7.565   1.774
 2036W        W 5555   6.257   4.095   3.899
 2037W        W 5556   6.643   7.360   9.517
 2038W        W 5557   2.284   2.769   0.458
 2039W        W 5558   8.018   2.266   9.072
 2040W        W 5559   9.111   8.195   1.655
 2041W        W 5560   0.776   5.176  11.507
 2042W        W 5561   4.978   0.530   2.958
 2043W        W 5562   6.086   7.404   0.435
 2044W        W 5563   6.329   0.846  11.544
 2045W        W 5564   3.034   6.454   0.923
 2046W        W 5565   9.946   2.164   2.140
 2047W        W 5566   8.705   3.824   9.443
 2048W        W 5567   0.844   7.103  11.830
 2049W        W 5568   2.546   3.553   2.265
 2050W        W 5569   0.902   6.997   9.044
 2051W        W 5570   1.354   7.463   9.461
 2052W        W 5571   2.941   7.008   9.235
 2053W        W 5572   2.807   3.859   9.782
 2054W        W 5573   7.201   3.200   3.214
 2055W        W 5574   5.186   7.083  11.442
 2056W        W 5575   7.183   8.705   0.694
 2057W        W 5576   6.465   3.950   2.897
 2058W        W 5577   9.969   9.617   8.795
 2059W        W 5578   0.266   7.189   2.812
 2060W        W 5579   9.727   7.723   2.504
 2061W        W 5580   2.704   3.621   1.784
 2062W        W 5581   9.228   1.804   0.484
 2063W        W 5582   9.348   2.072  10.638
 2064W        W 5583   0.179   6.580   2.128
 2065W        W 5584   3.238   4.211   8.608
 2066W        W 5585   2.881   5.967  11.299
 2067W        W 5586   8.202   5.409   0.331
 2068W        W 5587   4.573   8.510   2.250
 2069W        W 5588   4.175   7.200  11.369
 2070W        W 5589   9.671   9.099   2.988
 2071W        W 5590   5.081   8.331   1.168
 2072W        W 5591   5.346   5.220   8.695
 2073W        W 5592   1.632   8.207   1.033
 2074W        W 5593   2.611   9.036   1.027
 2075W        W 5594   9.368   5.509   2.380
 2076W        W 5595   1.726   1.396   3.558
 2077W        W 5596   0.913   6.752   3.164
 2078W        W 5597   7.072   0.828   3.094
 2079W        W 5598   0.386   2.614   3.069
 2080W        W 5599   7.979   2.158   0.914
 2081W        W 5600   1.557   7.628   1.290
 2082W        W 5601   9.201   0.388   1.346
 2083W        W 5602   6.259   3.610   3.183
 2084W        W 5603   5.172   4.462   2.024
 2085W        W 5604   5.577   3.141   3.240
 2086W        W 5605   4.885   7.388   1.010
 2087W        W 5606   6.438   9.807   3.476
 2088W        W 5607   5.196   7.346   3.224
 2089W        W 5608   3.304   2.972  11.214
 2090W        W 5609   1.141   5.777   8.664
 2091W        W 5610   0.817   1.139   0.822
 2092W        W 5611   5.443   1.384  11.143
 2093W        W 5612   9.275   7.086   1.194
 2094W        W 5613   3.578   3.425   0.247
 2095W        W 5614   2.639   4.381   1.250
 2096W        W 5615   7.731   8.480   2.643
 2097W        W 5616   9.025   2.221  11.523
 2098W        W 5617   0.719   2.584   3.476
 2099W        W 5618   6.442   7.644   1.737
 2100W        W 5619   8.238   1.165   8.563
 2101W        W 5620   0.685   4.189   1.765
 2102W        W 5621   7.455   4.909  11.363
 2103W        W 5622   9.019   1.368  10.129
 2104W        W 5623   3.245   2.459   1.058
 2105W        W 5624   6.009   8.130  10.711
 2106W        W 5625   0.409   1.332   9.177
 2107W        W 5626   2.861   6.439  10.545
 2108W        W 5627   7.140   7.377   3.471
 2109W        W 5628   7.470   1.805   9.942
 2110W        W 5629   4.955   8.410   1.888
 2111W        W 5630   7.901   8.856   2.276
 2112W        W 5631   4.019   3.098   8.989
 2113W        W 5632   9.584   4.843  11.338
 2114W        W 5633   1.809   2.158  10.959
 2115W        W 5634   0.524   1.228  10.088
 2116W        W 5635   0.077   9.336   3.188
 2117W        W 5636   4.093   4.140   0.006
 2118W        W 5637   7.331   2.691   0.402
 2119W        W 5638   9.409   6.930  10.189
 2120W        W 5639   2.152   6.110   2.981
 2121W        W 5640   5.368   7.083   8.548
 2122W        W 5641   7.206   2.104   0.554
 2123W        W 5642   8.255   3.097   0.421
 2124W        W 5643   3.554   4.072   1.546
 2125W        W 5644   9.896   2.185   1.563
 2126W        W 5645   0.884   2.900   1.715
 2127W        W 5646   5.144   3.823  11.508
 2128W        W 5647   2.421   2.767   2.437
 2129W        W 5648   5.084   8.236   0.660
 2130W        W 5649   2.790   1.361   1.382
 2131W        W 5650   6.371   7.522   0.833
 2132W        W 5651   5.720   5.612  11.957
 2133W        W 5652   8.904   2.191  10.874
 2134W        W 5653   1.674   6.578   9.771
 2135W        W 5654   6.433   3.679  10.494
 2136W        W 5655   0.816   5.366   2.441
 2137W        W 5656   0.823   1.268  11.746
 2138W        W 5657   0.348   5.070   3.161
 2139W        W 5658   9.053   5.688   9.077
 2140W        W 5659   5.646   9.852  10.986
 2141W        W 5660   5.222   4.974   0.569
 2142W        W 5661   4.273   7.816   1.602
 2143W        W 5662   2.042   4.905   2.749
 2144W        W 5663   1.784   7.017   2.765
 2145W        W 5664   8.107   8.702   0.888
 2146W        W 5665   8.249   9.065   8.651
 2147W        W 5666   1.868   5.210  11.242
 2148W        W 5667   5.456   8.432   2.068
 2149W        W 5668   3.472   2.370   8.741
 2150W        W 5669   4.810   8.503   8.999
 2151W        W 5670   1.871   9.590  11.075
 2152W        W 5671   8.971   7.143   2.737
 2153W        W 5672   2.811   3.048  10.455
 2154W        W 5673   6.636   4.359   3.136
 2155W        W 5674   9.126   4.928   3.213
 2156W        W 5675   5.883   5.915   4.003
 2157W        W 5676   8.828   7.873   1.937
 2158W        W 5677   0.794   6.105   0.867
 2159W        W 5678   1.233   2.567  10.328
 2160W        W 5679   7.246   9.881   9.008
 2161W        W 5680   0.253   9.267   1.618
 2162W        W 5681   1.545   8.903  10.928
 2163W        W 5682   3.243   5.641   1.498
 2164W        W 5683   3.334   0.430   9.031
 2165W        W 5684   3.336   9.701   3.140
 2166W        W 5685   7.202   1.545   8.628
 2167W        W 5686   2.370   4.865   9.202
 2168W        W 5687   8.544   4.838   8.992
 2169W        W 5688   0.257   8.843   0.175
 2170W        W 5689   9.828   4.138   9.801
 2171W        W 5690   5.907   1.898   0.501
 2172W        W 5691   3.579   0.154   2.474
 2173W        W 5692   4.180   0.214   0.785
 2174W        W 5693   9.375   9.039   1.073
 2175W        W 5694   3.651   9.536   9.888
 2176W        W 5695   1.044   4.736  11.569
 2177W        W 5696   7.996   6.374   1.273
 2178W        W 5697   1.338   4.240  10.502
 2179W        W 5698   9.366   2.674   0.562
 2180W        W 5699   3.858   1.224   0.736
 2181W        W 5700   2.349   5.402   1.528
 2182W        W 5701   0.567   8.166   2.920
 2183W        W 5702   4.151   1.970   8.518
 2184W        W 5703   9.519   0.586   3.057
 2185W        W 5704   0.922   6.395   9.870
 2186W        W 5705   6.163   9.977  11.785
 2187W        W 5706   6.264   6.689  10.173
 2188W        W 5707   9.247   7.107   0.381
 2189W        W 5708   2.235   9.622   0.337
 2190W        W 5709   6.585   3.345   1.696
 2191W        W 5710   8.239   4.797   0.647
 2192W        W 5711   4.526   7.696   9.494
 2193W        W 5712   7.935   1.405   9.234
 2194W        W 5713   7.092   2.616  11.653
 2195W        W 5714   3.436   6.518   3.089
 2196W        W 5715   7.002   5.185   2.764
 2197W        W 5716   7.129   2.630  11.149
 2198W        W 5717   9.855   9.378   8.357
 2199W        W 5718   8.912   4.547   8.720
 2200W        W 5719   6.232   8.259   1.801
 2201W        W 5720   3.514   7.463   2.637
 2202W        W 5721   6.485   3.193   2.226
 2203W        W 5722   6.546   5.009   0.193
 2204W        W 5723   5.976   5.638  10.399
 2205W        W 5724   9.909   0.818   9.902
 2206W        W 5725   2.174   0.633   0.473
 2207W        W 5726   2.592   8.234  11.758
 2208W        W 5727   1.235   6.826   9.546
 2209W        W 5728   2.677   9.098   1.520
 2210W        W 5729   7.531   4.279  10.465
 2211W        W 5730   8.293   1.009   1.375
 2212W        W 5731   6.294   7.400  11.910
 2213W        W 5732   0.938   2.205   0.062
 2214W        W 5733   2.725   5.036   3.679
 2215W        W 5734   5.098   8.529  10.041
 2216W        W 5735   0.270   7.405   8.877
 2217W        W 5736   7.409   2.314   9.939
 2218W        W 5737   9.216   3.785   1.731
 2219W        W 5738   0.074   1.726   1.652
 2220W        W 5739   2.446   7.922   3.414
 2221W        W 5740   9.868   2.129   1.033
 2222W        W 5741   5.523   8.782  10.074
 2223W        W 5742   5.385   3.976   2.882
 2224W        W 5743   1.144   6.942  11.282
 2225W        W 5744   3.753   5.007   0.387
 2226W        W 5745   3.587   3.085  10.337
 2227W        W 5746   8.393   0.900   9.898
 2228W        W 5747   7.601   6.061   1.155
 2229W        W 5748   2.568   6.480  11.501
 2230W        W 5749   8.924   7.967   9.727
 2231W        W 5750   7.170   9.702   1.724
 2232W        W 5751   4.645   9.728  10.776
 2233W        W 5752   4.831   9.870   9.688
 2234W        W 5753   5.479   6.727   3.315
 2235W        W 5754   9.430   7.393   2.208
 2236W        W 5755  10.000   2.996   0.513
 2237W        W 5756   4.569   6.500  10.897
 2238W        W 5757   5.322   6.188  10.695
 2239W        W 5758   3.036   2.174   3.987
 2240W        W 5759   4.512   5.104   1.247
 2241W        W 5760   1.020   5.649   0.884
 2242W        W 5761   9.439   7.038  11.799
 2243W        W 5762   2.248   0.758  11.544
 2244W        W 5763   6.818   7.741   3.667
 2245W        W 5764   4.394   8.193  11.321
 2246W        W 5765   1.648   3.917  10.246
 2247W        W 5766   3.611   9.393  10.782
 2248W        W 5767   0.961   0.878  10.790
 2249W        W 5768   5.868   9.820   9.560
 2250W        W 5769   9.549   8.914   8.944
 2251W        W 5770   7.567   6.766   9.512
 2252W        W 5771   5.547   8.514   1.104
 2253W        W 5772   7.500   2.798   1.105
 2254W        W 5773   7.399   1.859   0.035
 2255W        W 5774   8.859   3.783   0.472
 2256W        W 5775   3.681   5.004   3.977
 2257W        W 5776   0.521   9.484   9.660
 2258W        W 5777   7.364   9.342  10.783
 2259W        W 5778   7.992   3.579   1.798
 2260W        W 5779   8.050   8.215  10.992
 2261W        W 5780   7.844   9.369  10.351
 2262W        W 5781   2.797   0.973  11.440
 2263W        W 5782   0.438   8.860   8.930
 2264W        W 5783   3.614   3.097   0.648
 2265W        W 5784   1.720   5.133   1.977
 2266W        W 5785   6.691   7.142   0.771
 2267W        W 5786   9.847   8.932   1.995
 2268W        W 5787   0.802   9.726   9.266
 2269W        W 5788   2.047   4.234  11.077
 2270W        W 5789   9.467   0.185  10.253
 2271W        W 5790   4.838   4.851   2.079
 2272W        W 5791   5.930   3.235   3.571
 2273W        W 5792   1.079   3.561   8.925
 2274W        W 5793   8.211   8.022   8.630
 2275W        W 5794   2.207   9.144  11.768
 2276W        W 5795   1.187   8.870   2.066
 2277W        W 5796   1.140   8.884   3.101
 2278W        W 5797   9.806   9.272   0.794
 2279W        W 5798   8.631   1.647  11.222
 2280W        W 5799   8.689   5.229   0.152
 2281W        W 5800   5.781   1.560  10.409
 2282W        W 5801   1.035   8.988  10.516
 2283W        W 5802   7.155   4.592   9.664
 2284W        W 5803   1.381   5.318   9.560
 2285W        W 5804   0.990   1.801  10.755
 2286W        W 5805   4.848   4.749   3.075
 2287W        W 5806   2.695   3.849   2.686
 2288W        W 5807   2.321   6.849  11.741
 2289W        W 5808   8.303   8.402   1.328
 2290W        W 5809   4.235   7.619   2.337
 2291W        W 5810   2.830   2.322  11.889
 2292W        W 5811   0.881   3.148   0.931
 2293W        W 5812   6.039   2.331   8.950
 2294W        W 5813   9.278   5.505  11.852
 2295W        W 5814   1.756   0.782  11.752
 2296W        W 5815   0.964   9.286   0.146
 2297W        W 5816   8.974   2.658   3.505
 2298W        W 5817   6.208   1.263   8.628
 2299W        W 5818   5.838   5.429   3.637
 2300W        W 5819   3.542   4.581   8.362
 2301W        W 5820   8.015   9.186   0.839
 2302W        W 5821   2.346   4.421   0.248
 2303W        W 5822   9.063   8.349   2.623
 2304W        W 5823   4.138   6.277  11.129
 2305W        W 5824   5.589   7.960  11.406
 2306W        W 5825   2.697   7.312  10.229
 2307W        W 5826   6.733   0.531   9.930
 2308W        W 5827   7.743   7.837   9.061
 2309W        W 5828   2.478   8.525   9.527
 2310W        W 5829   1.002   6.006   3.461
 2311W        W 5830   7.917   3.762  10.052
 2312W        W 5831   6.785   8.298  10.347
 2313W        W 5832   3.294   7.049  10.057
 2314W        W 5833   0.199   8.979   0.662
 2315W        W 5834   8.301   3.760   9.723
 2316W        W 5835   8.533   4.313   3.172
 2317W        W 5836   8.507   6.654  10.610
 2318W        W 5837   5.319   7.503   9.802
 2319W        W 5838   9.024   7.924   2.871
 2320W        W 5839   4.171   2.510  11.990
 2321W        W 5840   7.841   9.160  10.830
 2322W        W 5841   1.264   4.091   0.826
 2323W        W 5842   3.316   5.917   3.661
 2324W        W 5843   6.052   8.607  10.921
 2325W        W 5844   6.507   2.936   1.032
 2326W        W 5845   8.927   6.719   8.401
 2327W        W 5846   6.664   3.663  11.054
 2328W        W 5847   9.738   3.987   2.358
 2329W        W 5848   8.447   3.151  10.952
 2330W        W 5849   1.347   7.002   2.082
 2331W        W 5850   3.165   3.744   2.923
 2332W        W 5851   2.412   6.207  10.679
 2333W        W 5852   0.276   7.504   0.928
 2334W        W 5853   7.844   6.980   9.877
 2335W        W 5854   9.905   8.565   9.989
 2336W        W 5855   3.252   6.135  10.011
 2337W        W 5856   5.985   8.971  10.164
 2338W        W 5857   3.831   3.831  11.303
 2339W        W 5858   7.410   4.936   9.395
 2340W        W 5859   0.365   0.238   1.326
 2341W        W 5860   3.270   0.326   8.523
 2342W        W 5861   5.457   5.774   8.539
 2343W        W 5862   7.468   1.348   9.019
 2344W        W 5863   5.646   5.545   8.947
 2345W        W 5864   9.451   7.053   2.594
 2346W        W 5865   9.919   3.494   2.335
 2347W        W 5866   7.097   6.918   1.715
 2348W        W 5867   3.703   1.259  10.940
 2349W        W 5868   7.915   6.155  11.847
 2350W        W 5869   4.413   5.326  11.235
 2351W        W 5870   6.945   6.898   9.462
 2352W        W 5871   8.471   7.476   8.792
 2353W        W 5872   4.436   2.274  11.136
 2354W        W 5873   9.537   8.750   0.125
 2355W        W 5874   4.624   9.031   1.389
 2356W        W 5875   2.855   5.283   1.608
 2357W        W 5876   1.538   0.422  11.098
 2358W        W 5877   0.239   4.566   0.523
 2359W        W 5878   3.379   5.827   0.085
 2360W        W 5879   6.033   3.702   2.726
 2361W        W 5880   1.702   8.252   3.429
 2362W        W 5881   1.966   4.896  10.777
 2363W        W 5882   3.267   1.766   2.180
 2364W        W 5883   8.417   9.217  10.442
 2365W        W 5884   4.224   8.496   3.442
 2366W        W 5885   1.866   4.189   0.990
 2367W        W 5886   8.794   1.072   0.861
 2368W        W 5887   1.611   8.886   9.908
 2369W        W 5888   5.862   0.723   3.267
 2370W        W 5889   5.562   5.356  10.654
 2371W        W 5890   7.615   9.727   1.343
 2372W        W 5891   9.404   8.023   9.501
 2373W        W 5892   0.724   5.745  10.432
 2374W        W 5893   2.039   4.269   2.006
 2375W        W 5894   3.781   1.175  10.063
 2376W        W 5895   7.362   5.118  10.293
 2377W        W 5896   7.882   0.704   9.851
 2378W        W 5897   0.618   0.218   9.382
 2379W        W 5898   9.894   8.359   1.329
 2380W        W 5899   9.432   9.897   9.398
 2381W        W 5900   8.117   7.548  11.922
 2382W        W 5901   9.481   4.499   0.943
 2383W        W 5902   0.108   3.495   1.474
 2384W        W 5903   9.844   7.915   9.790
 2385W        W 5904   8.044   5.831   9.080
 2386W        W 5905   0.430   0.167  10.413
 2387W        W 5906   5.599   4.597   9.443
 2388W        W 5907   5.615   3.512  10.807
 2389W        W 5908   9.100   7.555   9.512
 2390W        W 5909   6.632   4.786   3.865
 2391W        W 5910   1.659   1.378   3.054
 2392W        W 5911   2.570   2.361   2.164
 2393W        W 5912   0.089   6.395  10.209
 2394W        W 5913   4.931   3.195   1.986
 2395W        W 5914   8.628   0.739   1.653
 2396W        W 5915   2.057   1.367   9.505
 2397W        W 5916   5.080   4.723   9.692
 2398W        W 5917   7.285   6.575   9.146
 2399W        W 5918   2.991   1.298  10.430
 2400W        W 5919   3.637   4.689  11.574
 2401W        W 5920   3.723   1.544   9.681
 2402W        W 5921   1.968   2.138  11.872
 2403W        W 5922   4.061   4.922   3.601
 2404W        W 5923   8.056   4.096  11.082
 2405W        W 5924   7.519   3.972   2.741
 2406W        W 5925   6.196   2.977  11.388
 2407W        W 5926   9.734   7.535  10.743
 2408W        W 5927   8.735   1.731   1.805
 2409W        W 5928   7.482   5.668   1.455
 2410W        W 5929   3.002   8.273   1.128
 2411W        W 5930   4.509   1.578   8.559
 2412W        W 5931   3.136   9.950   2.181
 2413W        W 5932   0.952   2.870   2.210
 2414W        W 5933   7.008   3.966   3.747
 2415W        W 5934   5.448   1.846   3.943
 2416W        W 5935   6.940   5.591  10.931
 2417W        W 5936   7.173   5.673   3.124
 2418W        W 5937   9.233   4.133   8.586
 2419W        W 5938   7.221   3.764   9.222
 2420W        W 5939   8.555   9.794   9.233
 2421W        W 5940   9.728   5.191   2.569
 2422W        W 5941   5.167   0.986  10.386
 2423W        W 5942   8.999   6.088   3.178
 2424W        W 5943   5.136   9.593   3.496
 2425W        W 5944   1.262   8.380   3.199
 2426W        W 5945   8.545   5.692   9.817
 2427W        W 5946   7.432   7.802   9.543
 2428W        W 5947   9.289   9.330  10.188
 2429W        W 5948   3.696   7.258  11.568
 2430W        W 5949   4.627   3.619   7.935
 2431W        W 5950   4.362   7.981   9.059
 2432W        W 5951   5.883   6.055   3.017
 2433W        W 5952   6.574   9.823   8.746
 2434W        W 5953   1.515   5.782  10.899
 2435W        W 5954   0.881   1.962   9.775
 2436W        W 5955   3.580   5.768  10.271
 2437W        W 5956   2.364   9.334   0.719
 2438W        W 5957   1.118   1.082   2.483
 2439W        W 5958   1.816   3.555   2.761
 2440W        W 5959   1.870   0.825  11.201
 2441W        W 5960   4.641   4.618   9.367
 2442W        W 5961   0.826   9.278   3.338
 2443W        W 5962   6.504   7.123   0.281
 2444W        W 5963   1.414   7.072   0.649
 2445W        W 5964   1.810   7.640  11.766
 2446W        W 5965   2.059   7.000  11.296
 2447W        W 5966   3.748   1.826   1.941
 2448W        W 5967   3.073   7.635   1.847
 2449W        W 5968   2.152   8.400  10.383
 2450W        W 5969   7.482   8.966   8.335
 2451W        W 5970   7.433   9.876  10.023
 2452W        W 5971   1.485   6.651  11.011
 2453W        W 5972   7.691   9.303   2.518
 2454W        W 5973   1.649   9.764   2.253
 2455W        W 5974   8.161   6.618  10.056
 2456W        W 5975   7.629   6.986   0.834
 2457W        W 5976   8.433   5.227   9.470
 2458W        W 5977   6.099   1.013   1.320
 2459W        W 5978   5.885   7.686   0.932
 2460W        W 5979   4.085   4.139   9.359
 2461W        W 5980   7.684   9.373   2.009
 2462W        W 5981   9.364   0.422   0.366
 2463W        W 5982   5.440   3.365   8.557
 2464W        W 5983   1.446   2.206  11.915
 2465W        W 5984   6.916   1.850   0.213
 2466W        W 5985   7.225   4.062   0.716
 2467W        W 5986   6.994   7.996   9.322
 2468W        W 5987   9.404   2.205   1.315
 2469W        W 5988   1.756   3.849  11.243
 2470W        W 5989   3.634   9.748  10.403
 2471W        W 5990   2.226   6.160   2.480
 2472W        W 5991   7.447   8.701   0.224
 2473W        W 5992   1.217   4.596   2.932
 2474W        W 5993   9.346   3.834  11.762
 2475W        W 5994   6.274   0.495   2.493
 2476W        W 5995   4.752   7.670   3.397
 2477W        W 5996   3.705   2.907   0.174
 2478W        W 5997   9.512   1.117  10.270
 2479W        W 5998   7.304   7.073   9.152
 2480W        W 5999   3.552   6.269   9.532
 2481W        W 6000   5.461   6.227   3.274
 2482W        W 6001   1.486   3.907   8.787
 2483W        W 6002   6.475   4.329  11.532
 2484W        W 6003   5.986   0.518   1.500
 2485W        W 6004   6.301   4.351   9.899
 2486W        W 6005   1.891   7.009   9.978
 2487W        W 6006   2.732   5.741   1.417
 2488W        W 6007   3.320   6.943   9.568
 2489W        W 6008   2.698   9.586  10.296
 2490W        W 6009   8.416   8.974   3.120
 2491W        W 6010   9.757   6.967   9.479
 2492W        W 6011   6.200   9.390   3.772
 2493W        W 6012   5.647   8.671   3.507
 2494W        W 6013   4.940   5.894  11.989
 2495W        W 6014   4.565   1.174   1.462
 2496W        W 6015   7.100   4.351   3.413
 2497W        W 6016   3.589   4.164   3.362
 2498W        W 6017   8.801   3.448   1.046
 2499W        W 6018   5.478   8.473   9.663
 2500W        W 6019   2.642   2.233   0.429
 2501W        W 6020   3.166   0.709  11.908
 2502W        W 6021   6.045   6.900   0.422
 2503W        W 6022   8.706   9.118   0.191
 2504W        W 6023   8.444   7.516   2.290
 2505W        W 6024   0.248   6.886  10.333
 2506W        W 6025   1.462   2.834   2.090
 2507W        W 6026   0.075   3.846   3.550
 2508W        W 6027   8.591   1.206   1.894
 2509W        W 6028   9.003   6.047   0.360
 2510W        W 6029   1.109   6.539   9.123
 2511W        W 6030   5.871   3.550   8.738
 2512W        W 6031   4.083   8.928   0.315
 2513W        W 6032   8.353   1.899   1.162
 2514W        W 6033   8.720   8.245  10.096
 2515W        W 6034   8.005   2.298   3.172
 2516W        W 6035   6.897   3.456   9.532
 2517W        W 6036   0.912   6.659   8.652
 2518W        W 6037   7.941   5.009   9.540
 2519W        W 6038   8.143   0.817  11.501
 2520W        W 6039   2.722   3.564   0.567
 2521W        W 6040   0.657   8.839   0.477
 2522W        W 6041   7.360   2.253  10.840
 2523W        W 6042   4.668   3.614   1.950
 2524W        W 6043   7.237   5.988   8.532
 2525W        W 6044   1.187   7.422   0.993
 2526W        W 6045   0.573   0.842  11.966
 2527W        W 6046   1.482   3.384   8.639
 2528W        W 6047   9.002   8.196   1.161
 2529W        W 6048   3.992   3.805   2.601
 2530W        W 6049   7.222   7.541   1.186
 2531W        W 6050   9.466   8.368  11.791
 2532W        W 6051   4.910   7.989   9.040
 2533W        W 6052   4.691   3.668   0.753
 2534W        W 6053   6.341   5.742  10.063
 2535W        W 6054   5.226   1.813  11.364
 2536W        W 6055   0.750   8.090   1.600
 2537W        W 6056   3.431   7.655   9.263
 2538W        W 6057   5.852   2.404   2.705
 2539W        W 6058   7.986   4.409  10.670
 2540W        W 6059   2.687   6.119   0.622
 2541W        W 6060   7.766   9.349   3.027
 2542W        W 6061   4.561   5.282   2.245
 2543W        W 6062   3.117   1.345   1.781
 2544W        W 6063   4.973   0.082   8.604
 2545W        W 6064   7.487   2.941  11.023
 2546W        W 6065   2.342   6.662  10.999
 2547W        W 6066   1.349   7.187  11.677
 2548W        W 6067   9.528   6.933   8.826
 2549W        W 6068   6.468   1.163   2.155
 2550W        W 6069   0.644   7.132  11.337
 2551W        W 6070   2.106   8.762  10.960
 2552W        W 6071   4.448   7.389   2.739
 2553W        W 6072   5.630   4.036  10.411
 2554W        W 6073   8.037   7.317  10.224
 2555W        W 6074   0.613   9.004   0.952
 2556W        W 6075   2.726   3.166   9.249
 2557W        W 6076   5.461   0.679   2.945
 2558W        W 6077   6.039   2.782   1.118
 2559W        W 6078   7.353   3.268   2.164
 2560W        W 6079   9.280   0.915   3.352
 2561W        W 6080   5.463   4.115   9.316
 2562W        W 6081   1.050   4.552   0.985
 2563W        W 6082   6.987   2.090   1.901
 2564W        W 6083   4.220   2.302   0.455
 2565W        W 6084   6.462   5.311   0.589
 2566W        W 6085   6.488   7.984   1.001
 2567W        W 6086   5.990   8.291   0.259
 2568W        W 6087   2.549   1.251   0.871
 2569W        W 6088   6.359   6.721   3.676
 2570W        W 6089   5.904   4.852   9.083
 2571W        W 6090   5.407   0.355   8.732
 2572W        W 6091   8.365   6.333  11.608
 2573W        W 6092   6.462   9.771  10.442
 2574W        W 6093   7.179   5.663   0.536
 2575W        W 6094   0.338   6.964  11.756
 2576W        W 6095   7.068   1.601   1.751
 2577W        W 6096   8.126   1.118   2.116
 2578W        W 6097   5.721   3.065   9.502
 2579W        W 6098   8.864   9.575   2.718
 2580W        W 6099   4.112   3.597   3.056
 2581W        W 6100   9.357   4.014  10.317
 2582W        W 6101   4.129   3.326  11.449
 2583W        W 6102   6.629   7.125   2.456
 2584W        W 6103   1.860   3.096   8.859
 2585W        W 6104   8.177   2.262  10.918
 2586W        W 6105   2.230   6.993   3.026
 2587W        W 6106   7.796   1.209  11.512
 2588W        W 6107   0.398   1.150   2.030
 2589W        W 6108   8.976   1.261  11.152
 2590W        W 6109   3.623   3.192   9.830
 2591W        W 6110   3.533   4.345   1.994
 2592W        W 6111   1.293   6.679  10.096
 2593W        W 6112   2.127   8.933   2.586
 2594W        W 6113   4.338   1.138   0.993
 2595W        W 6114   1.293   2.911   8.984
 2596W        W 6115   6.966   6.494   3.050
 2597W        W 6116   5.473   6.109  11.175
 2598W        W 6117   8.534   6.000   3.369
 2599W        W 6118   7.551   3.423  10.923
 2600W        W 6119   7.074   2.537   0.819
 2601W        W 6120   3.584   2.127   2.358
 2602W        W 6121   5.638   3.601   9.451
 2603W        W 6122   4.314   3.690  10.104
 2604W        W 6123   0.782   7.901   0.533
 2605W        W 6124   6.643   2.136   2.314
 2606W        W 6125   6.534   7.898  11.021
 2607W        W 6126   9.838   4.186  10.303
 2608W        W 6127   9.729   1.232   9.628
 2609W        W 6128   9.423   2.212   0.789
 2610W        W 6129   5.209   9.240   0.812
 2611W        W 6130   1.135   0.185   9.380
 2612W        W 6131   1.156   4.751   1.427
 2613W        W 6132   9.935   8.344   9.481
 2614W        W 6133   9.937   2.622  11.304
 2615W        W 6134   3.908   5.126   3.024
 2616W        W 6135   7.038   5.975   8.054
 2617W        W 6136   9.393   7.912  11.515
 2618W        W 6137   4.676   6.199   3.685
 2619W        W 6138   4.581   2.055   1.393
 2620W        W 6139   7.585   1.745   0.510
 2621W        W 6140   3.016   5.725  11.736
 2622W        W 6141   2.114   7.885   9.120
 2623W        W 6142   6.954   1.450   3.901
 2624W        W 6143   2.551   2.835  11.745
 2625W        W 6144   3.145   3.321   1.261
 2626W        W 6145   1.840   5.935   3.835
 2627W        W 6146   1.588   4.837   9.473
 2628W        W 6147   9.934   1.479   0.465
 2629W        W 6148   1.338   9.787  10.027
 2630W        W 6149   1.323   5.824   9.604
 2631W        W 6150   9.571   3.939   8.989
 2632W        W 6151   0.976   8.484   2.762
 2633W        W 6152   7.861   5.189  10.143
 2634W        W 6153   8.258   6.123   8.367
 2635W        W 6154   7.064   6.539   9.795
 2636W        W 6155   7.458   7.076   3.198
 2637W        W 6156   0.498   7.045   3.694
 2638W        W 6157   9.757   0.639  10.367
 2639W        W 6158   2.607   7.440   1.923
 2640W        W 6159   1.719   6.169   0.191
 2641W        W 6160   2.640   5.523  11.468
 2642W        W 6161   3.189   9.412   9.000
 2643W        W 6162   1.985   5.948  10.882
 2644W        W 6163   9.044   8.388   9.479
 2645W        W 6164   3.036   7.779   0.474
 2646W        W 6165   1.300   8.824   9.519
 2647W        W 6166   9.374   3.966  11.258
 2648W        W 6167   0.273   9.378  10.119
 2649W        W 6168   1.776   3.949  10.737
 2650W        W 6169   0.216   6.627   9.416
 2651W        W 6170   7.655   0.842  10.320
 2652W        W 6171   7.780   5.128   2.029
 2653W        W 6172   5.572   1.141   3.099
 2654W        W 6173   9.944   0.873   9.255
 2655W        W 6174   3.329   2.206   2.995
 2656W        W 6175   7.470   1.680   3.342
 2657W        W 6176   2.710   0.053   2.668
 2658W        W 6177   7.784   5.305   3.349
 2659W        W 6178   8.096   8.067  11.474
 2660W        W 6179   5.328   6.159   1.305
 2661W        W 6180   4.111   7.076   3.278
 2662W        W 6181   0.352   7.689   1.416
 2663W        W 6182   5.198   3.147   3.677
 2664W        W 6183   7.499   3.165   0.728
 2665W        W 6184   2.222   7.386   1.048
 2666W        W 6185   6.748   9.337   9.534
 2667W        W 6186   1.417   1.490   2.529
 2668W        W 6187   3.548   7.809  11.678
 2669W        W 6188   9.878   9.645   3.534
 2670W        W 6189   5.633   8.823   8.807
 2671W        W 6190   4.959   6.484  10.063
 2672W        W 6191   0.537   0.195   1.839
 2673W        W 6192   2.091   8.719   0.046
 2674W        W 6193   9.739   4.956   9.639
 2675W        W 6194   9.883   7.366   9.859
 2676W        W 6195   5.638   2.663   9.078
 2677W        W 6196   7.472   1.620  10.664
 2678W        W 6197   9.261   7.507  10.893
 2679W        W 6198   7.587   5.778   9.347
 2680W        W 6199   7.735   6.499   2.516
 2681W        W 6200   0.839   6.139   1.915
 2682W        W 6201   1.662   1.967   1.056
 2683W        W 6202   2.342   7.556  10.515
 2684W        W 6203   1.012   5.373  10.197
 2685W        W 6204   6.984   7.798  10.293
 2686W        W 6205   0.920   1.753   8.521
 2687W        W 6206   5.898   1.049   0.849
 2688W        W 6207   6.534   9.820   1.810
 2689W        W 6208   2.653   9.805  11.362
 2690W        W 6209   0.926   9.994  10.248
 2691W        W 6210   6.134   6.667   0.881
 2692W        W 6211   9.396   4.383  11.574
 2693W        W 6212   8.088   3.913  10.561
 2694W        W 6213   7.991   3.679   2.788
 2695W        W 6214   0.557   3.773   2.607
 2696W        W 6215   9.285   9.804   9.945
 2697W        W 6216   0.286   1.171  11.710
 2698W        W 6217   6.725   7.032  10.664
 2699W        W 6218   8.944   4.236  10.108
 2700W        W 6219   3.135   2.384  10.566
 2701W        W 6220   4.219   0.650   0.008
 2702W        W 6221   4.396   4.005   2.853
 2703W        W 6222   0.008   9.354  10.553
 2704W        W 6223   2.104   8.593   2.173
 2705W        W 6224   0.533   3.062   9.974
 2706W        W 6225   0.601   4.971   1.519
 2707W        W 6226   5.301   5.295  10.172
 2708W        W 6227   1.183   6.517   3.585
 2709W        W 6228   1.051   5.170   1.672
 2710W        W 6229   3.402   0.326   2.903
 2711W        W 6230   8.868   6.917   1.581
 2712W        W 6231   4.483   9.526  11.776
 2713W        W 6232   0.756   5.321   2.942
 2714W        W 6233   9.624   1.714   0.793
 2715W        W 6234   7.097   7.328   2.484
 2716W        W 6235   8.318   1.913  10.263
 2717W        W 6236   6.142   2.819   2.639
 2718W        W 6237   5.572   9.011   3.089
 2719W        W 6238   6.496   9.452   0.518
 2720W        W 6239   5.677   1.421   1.106
 2721W        W 6240   0.617   2.858   1.277
 2722W        W 6241   2.422   6.984   9.239
 2723W        W 6242   5.520   9.326   8.800
 2724W        W 6243   3.889   1.258  11.832
 2725W        W 6244   7.713   7.143  11.352
 2726W        W 6245   7.282   1.161   9.451
 2727W        W 6246   6.474   5.619  10.564
 2728W        W 6247   6.243   0.798   8.817
 2729W        W 6248   2.762   0.976   3.269
 2730W        W 6249   3.037   8.076  11.991
 2731W        W 6250   2.803   7.439  10.736
 2732W        W 6251   1.121   2.774   1.213
 2733W        W 6252   8.935   4.943   1.372
 2734W        W 6253   2.588   6.005   8.861
 2735W        W 6254   4.075   7.494  10.255
 2736W        W 6255   1.171   8.292   1.898
 2737W        W 6256   6.926   8.486   1.382
 2738W        W 6257   9.589   7.796   8.631
 2739W        W 6258   0.835   0.239   2.277
 2740W        W 6259   6.679   7.211   1.650
 2741W        W 6260   1.038   8.870  11.009
 2742W        W 6261   3.736   0.637   9.271
 2743W        W 6262   5.672   4.468   2.016
 2744W        W 6263   0.079   0.872  11.305
 2745W        W 6264   1.965   3.377  10.915
 2746W        W 6265   0.173   7.751  10.999
 2747W        W 6266   4.481   5.038  10.253
 2748W        W 6267   5.472   9.680  10.523
 2749W        W 6268   9.799   5.432   9.472
 2750W        W 6269   4.698   2.075   8.533
 2751W        W 6270   5.100   0.773   1.433
 2752W        W 6271   3.232   5.591   9.227
 2753W        W 6272   0.601   6.579   0.890
 2754W        W 6273   3.645   1.631   9.174
 2755W        W 6274   9.140   0.404   3.372
 2756W        W 6275   0.790   1.196   0.286
 2757W        W 6276   6.139   4.988  10.711
 2758W        W 6277   0.394   1.447   2.490
 2759W        W 6278   5.521   0.679  10.605
 2760W        W 6279   9.980   6.397   2.950
 2761W        W 6280   9.185   5.566   1.905
 2762W        W 6281   2.820   8.478   0.204
 2763W        W 6282   9.016   6.566   0.201
 2764W        W 6283   0.854   4.114  10.765
 2765W        W 6284   4.960   0.411   0.362
 2766W        W 6285   3.467   5.068   0.799
 2767W        W 6286   4.950   6.912  10.987
 2768W        W 6287   0.238   5.930  10.431
 2769W        W 6288   8.786   3.009   1.735
 2770W        W 6289   7.659   4.268  11.782
 2771W        W 6290   3.085   2.530  11.086
 2772W        W 6291   9.818   8.000  11.829
 2773W        W 6292   6.554   6.497   9.053
 2774W        W 6293   6.143   4.174  10.435
 2775W        W 6294   0.740   8.193  10.485
 2776W        W 6295   2.052   5.527   1.928
 2777W        W 6296   1.519   8.882  10.410
 2778W        W 6297   2.214   7.709   0.049
 2779W        W 6298   9.045   8.757  11.996
 2780W        W 6299   0.776   3.509   3.397
 2781W        W 6300   9.804   7.922   3.542
 2782W        W 6301   1.842   4.199   1.543
 2783W        W 6302   8.338   0.810   0.895
 2784W        W 6303   4.001   5.963   2.605
 2785W        W 6304   4.375   6.023   1.793
 2786W        W 6305   4.552   0.814   8.805
 2787W        W 6306   3.646   5.854   0.969
 2788W        W 6307   0.409   1.368   0.622
 2789W        W 6308   7.553   6.578   1.136
 2790W        W 6309   2.667   6.146   1.124
 2791W        W 6310   0.155   8.966   2.849
 2792W        W 6311   0.565   5.746   8.954
 2793W        W 6312   8.800   1.237   9.669
 2794W        W 6313   2.635   0.198   0.695
 2795W        W 6314   6.687   7.546   1.235
 2796W        W 6315   2.722   6.635   1.301
 2797W        W 6316   6.249   8.759   1.573
 2798W        W 6317   1.802   2.791   1.676
 2799W        W 6318   4.757   2.958   9.448
 2800W        W 6319   0.639   7.544   9.215
 2801W        W 6320   3.408   3.892  10.599
 2802W        W 6321   4.254   5.826  11.391
 2803W        W 6322   6.066   9.365   9.837
 2804W        W 6323   6.218   4.624   1.276
 2805W        W 6324   8.218   5.027   3.317
 2806W        W 6325   7.849   4.380   2.679
 2807W        W 6326   9.287   0.165  11.920
 2808W        W 6327   1.303   6.028   1.099
 2809W        W 6328   4.848   6.107   1.978
 2810W        W 6329   8.886   2.747   0.755
 2811W        W 6330   5.130   6.945   0.864
 2812W        W 6331   8.555   6.947   8.694
 2813W        W 6332   9.935   8.521  10.520
 2814W        W 6333   9.022   6.824  11.343
 2815W        W 6334   6.245   1.973   1.593
 2816W        W 6335   8.132   0.701   1.776
 2817W        W 6336   8.286   0.159  10.430
 2818W        W 6337   8.213   9.263   0.340
 2819W        W 6338   5.757   0.464   2.580
 2820W        W 6339   6.552   6.699   0.578
 2821W        W 6340   4.517   1.878  10.827
 2822W        W 6341   4.492   6.080   0.810
 2823W        W 6342   0.740   4.803   2.915
 2824W        W 6343   2.399   8.855  10.542
 2825W        W 6344   9.783   6.131  10.547
 2826W        W 6345   9.818   4.950   1.371
 2827W        W 6346   9.568   2.786   2.742
 2828W        W 6347   6.874   4.571  10.570
 2829W        W 6348   2.129   2.102   8.642
 2830W        W 6349   1.238   7.712   8.557
 2831W        W 6350   2.162   2.324   9.115
 2832W        W 6351   5.773   6.874  10.351
 2833W        W 6352   9.484   0.531   2.554
 2834W        W 6353   4.148   4.609   9.590
 2835W        W 6354   3.804   1.368   3.435
 2836W        W 6355   2.290   4.853   0.001
 2837W        W 6356   3.754   6.391   2.714
 2838W        W 6357   1.555   4.126   0.421
 2839W        W 6358   2.236   2.609   2.901
 2840W        W 6359   2.210   3.443   3.687
 2841W        W 6360   1.424   8.991   0.766
 2842W        W 6361   2.757   9.247   8.711
 2843W        W 6362   3.356   8.170  11.269
 2844W        W 6363   6.406   9.237   1.566
 2845W        W 6364   2.763   5.946   3.607
 2846W        W 6365   3.792   2.237  11.732
 2847W        W 6366   7.571   2.411   0.762
 2848W        W 6367   5.590   4.476   2.541
 2849W        W 6368   8.572   1.628   9.395
 2850W        W 6369   8.912   2.408   9.200
 2851W        W 6370   8.904   1.311   9.163
 2852W        W 6371   2.181   9.674   1.632
 2853W        W 6372   9.237   1.336   0.783
 2854W        W 6373   5.463   7.525   2.808
 2855W        W 6374   6.625   4.330   2.595
 2856W        W 6375   2.156   9.986   9.542
 2857W        W 6376   2.581   8.012   0.233
 2858W        W 6377   6.471   3.414   2.718
 2859W        W 6378   5.710   5.742   0.451
 2860W        W 6379   3.164   9.502  10.506
 2861W        W 6380   4.682   4.077   8.645
 2862W        W 6381   2.377   4.053   2.312
 2863W        W 6382   0.853   4.515   0.535
 2864W        W 6383   6.441   8.858   2.568
 2865W        W 6384   8.843   8.845   9.442
 2866W        W 6385   0.629   5.595  11.814
 2867W        W 6386   4.016   6.124   8.703
 2868W        W 6387   8.111   7.487   9.191
 2869W        W 6388   6.912   3.379   9.039
 2870W        W 6389   2.885   1.819  11.987
 2871W        W 6390   5.934   6.844   1.316
 2872W        W 6391   6.904   4.093  11.343
 2873W        W 6392   5.350   6.869   9.023
 2874W        W 6393   2.744   9.298  11.189
 2875W        W 6394   5.069   0.575   1.987
 2876W        W 6395   3.758   0.562  11.353
 2877W        W 6396   1.771   8.322   2.440
 2878W        W 6397   7.257   7.646  10.747
 2879W        W 6398   0.868   1.066   1.808
 2880W        W 6399   2.007   4.482   9.538
 2881W        W 6400   3.694   1.054  11.397
 2882W        W 6401   9.578   1.878   2.900
 2883W        W 6402   8.092   1.742   2.615
 2884W        W 6403   0.835   3.423   2.895
 2885W        W 6404   6.871   1.904   8.815
 2886W        W 6405   6.589   1.657  11.863
 2887W        W 6406   2.887   8.710  10.479
 2888W        W 6407   0.660   8.051   9.330
 2889W        W 6408   7.160   4.393  11.887
 2890W        W 6409   8.974   1.447   0.071
 2891W        W 6410   7.542   0.751   0.294
 2892W        W 6411   8.659   7.567   2.756
 2893W        W 6412   5.622   7.847  10.893
 2894W        W 6413   7.867   7.828   3.547
 2895W        W 6414   9.343   5.422   8.705
 2896W        W 6415   9.222   1.148   8.770
 2897W        W 6416   8.926   8.787   2.402
 2898W        W 6417   8.268   9.673  10.211
 2899W        W 6418   8.469   3.174   1.373
 2900W        W 6419   8.588   3.018   3.570
 2901W        W 6420   6.173   6.257   3.747
 2902W        W 6421   1.400   3.137   9.775
 2903W        W 6422   3.963   6.596   3.133
 2904W        W 6423   0.942   3.807   1.550
 2905W        W 6424   1.174   7.912   9.224
 2906W        W 6425   6.928   7.070   1.226
 2907W        W 6426   9.957   5.505   0.526
 2908W        W 6427   6.057   0.916   2.303
 2909W        W 6428   5.286   6.510   2.857
 2910W        W 6429   7.008   9.132   0.982
 2911W        W 6430   5.443   9.358   1.645
 2912W        W 6431   3.782   4.185   8.595
 2913W        W 6432   1.744   1.044   9.235
 2914W        W 6433   6.170   7.472   1.309
 2915W        W 6434   7.090   5.307   9.326
 2916W        W 6435   6.992   1.436  10.816
 2917W        W 6436   9.809   9.903   2.510
 2918W        W 6437   3.953   5.775   1.500
 2919W        W 6438   6.152   3.612  10.911
 2920W        W 6439   1.297   5.918  11.482
 2921W        W 6440   6.493   5.447  11.928
 2922W        W 6441   7.753   8.474  10.283
 2923W        W 6442   3.740   2.350   0.235
 2924W        W 6443   4.899   0.568   3.531
 2925W        W 6444   9.938   6.238   2.453
 2926W        W 6445   3.089   2.249   2.538
 2927W        W 6446   0.273   0.064  10.877
 2928W        W 6447   1.279   2.856   2.589
 2929W        W 6448   0.209   6.906   1.745
 2930W        W 6449   8.585   8.449  11.052
 2931W        W 6450   8.645   4.447   2.675
 2932W        W 6451   9.280   6.066  10.513
 2933W        W 6452   9.734   0.348   9.244
 2934W        W 6453   3.569   3.505   9.392
 2935W        W 6454   8.055   7.238   0.918
 2936W        W 6455   5.569   3.421  11.573
 2937W        W 6456   0.882   5.210   9.680
 2938W        W 6457   4.561   0.059  10.063
 2939W        W 6458   5.760   5.482   9.425
 2940W        W 6459   6.207   6.119   8.345
 2941W        W 6460   6.623   6.642   2.695
 2942W        W 6461   8.574   2.191  11.258
 2943W        W 6462   0.997   0.527   1.889
 2944W        W 6463   0.231   1.223   9.640
 2945W        W 6464   3.065   3.558   2.447
 2946W        W 6465   6.227   6.705   8.208
 2947W        W 6466   3.519   7.649   2.123
 2948W        W 6467   9.407   8.481   0.748
 2949W        W 6468   5.134   4.749   8.692
 2950W        W 6469   8.938   8.866   3.251
 2951W        W 6470   7.984   1.937   0.221
 2952W        W 6471   1.492   5.561  10.022
 2953W        W 6472   6.469   8.126   0.042
 2954W        W 6473   0.900   0.618   0.785
 2955W        W 6474   5.779   9.183   3.542
 2956W        W 6475   6.115   5.706   9.086
 2957W        W 6476   1.826   0.907   9.720
 2958W        W 6477   0.353   6.164   9.685
 2959W        W 6478   5.713   1.237   2.101
 2960W        W 6479   5.408   2.269  10.871
 2961W        W 6480   1.385   2.446   0.883
 2962W        W 6481   5.274   8.979  11.977
 2963W        W 6482   2.712   0.238   2.174
 2964W        W 6483   1.678   5.588   2.269
 2965W        W 6484   9.032   6.510   2.035
 2966W        W 6485   7.038   3.023   0.963
 2967W        W 6486   7.060   9.542  11.187
 2968W        W 6487   6.489   0.220  11.284
 2969W        W 6488   3.742   1.434   0.300
 2970W        W 6489   3.837   5.645   3.218
 2971W        W 6490   8.998   8.622  11.479
 2972W        W 6491   4.460   3.059  11.165
 2973W        W 6492   8.153   5.966   3.010
 2974W        W 6493   0.737   1.163   9.589
 2975W        W 6494   7.021   6.881   2.229
 2976W        W 6495   0.520   9.296   2.047
 2977W        W 6496   2.150   2.041  11.395
 2978W        W 6497   2.633   2.432  11.407
 2979W        W 6498   7.106   4.201  10.851
 2980W        W 6499   7.826   7.115  11.886
 2981W        W 6500   5.991   4.067  11.500
 2982W        W 6501   8.744   1.736   8.916
 2983W        W 6502   1.739   1.791   2.778
 2984W        W 6503   0.245   1.136   0.210
 2985W        W 6504   7.470   3.521   3.508
 2986W        W 6505   1.486   1.249  10.499
 2987W        W 6506   6.651   3.850   8.201
 2988W        W 6507   6.064   8.762   1.066
 2989W        W 6508   8.434   7.683  11.520
 2990W        W 6509   0.237   4.657   1.284
 2991W        W 6510   9.108   1.613   3.563
 2992W        W 6511   4.212   1.150   8.571
 2993W        W 6512   0.463   9.344   2.621
 2994W        W 6513   5.776   1.831   1.825
 2995W        W 6514   7.197   9.477   9.310
 2996W        W 6515   9.782   9.399  10.045
 2997W        W 6516   1.340   5.394  11.172
 2998W        W 6517   2.332   7.173  10.874
 2999W        W 6518   9.661   6.498   0.679
 3000W        W 6519   5.645   9.819   2.843
 3001W        W 6520   4.904   4.336   9.997
 3002W        W 6521   8.406   9.529   9.712
 3003W        W 6522   0.856   3.408   1.884
 3004W        W 6523   0.313   4.824   2.216
 3005W        W 6524   6.606   6.018  11.498
 3006W        W 6525   2.282   7.211   0.087
 3007W        W 6526   3.967   7.667  11.303
 3008W        W 6527   6.049   1.694  11.654
 3009W        W 6528   7.638   6.591  10.393
 3010W        W 6529   7.564   4.232   1.603
 3011W        W 6530   3.302   1.991   9.088
 3012W        W 6531   2.292   5.278   9.512
 3013W        W 6532   9.977   6.250  11.392
 3014W        W 6533   2.143   8.220   0.004
 3015W        W 6534   0.301   9.820   2.622
 3016W        W 6535   9.748   7.373   2.903
 3017W        W 6536   2.582   3.017   8.772
 3018W        W 6537   8.584   6.423   8.702
 3019W        W 6538   9.987   4.843   2.846
 3020W        W 6539   1.296   2.465   0.361
 3021W        W 6540   1.816   4.983   0.202
 3022W        W 6541   3.841   8.071   1.990
 3023W        W 6542   3.237   1.496  10.847
 3024W        W 6543   1.104   4.996   9.254
 3025W        W 6544   7.574   6.733  11.619
 3026W        W 6545   7.386   3.262   9.286
 3027W        W 6546   0.859   5.330   8.922
 3028W        W 6547   2.585   3.680   9.319
 3029W        W 6548   7.277   3.941  11.691
 3030W        W 6549   9.616   1.892   1.875
 3031W        W 6550   0.606   7.189   3.223
 3032W        W 6551   3.067   5.286  11.988
 3033W        W 6552   5.411   7.473   0.852
 3034W        W 6553   4.207   1.822   3.029
 3035W        W 6554   7.429   7.444   1.669
 3036W        W 6555   5.769   2.117   2.296
 3037W        W 6556   1.939   5.269   0.636
 3038W        W 6557   5.792   1.056   9.024
 3039W        W 6558   2.554   2.154   3.534
 3040W        W 6559   5.574   2.765   1.316
 3041W        W 6560   2.277   0.527   2.162
 3042W        W 6561   2.651   7.331   8.957
 3043W        W 6562   4.531   9.956   1.060
 3044W        W 6563   5.210   4.992   2.815
 3045W        W 6564   7.480   5.314   2.938
 3046W        W 6565   2.736   7.809  10.235
 3047W        W 6566   6.258   0.264   8.707
 3048W        W 6567   9.210   9.760   8.473
 3049W        W 6568   9.997   1.734  11.209
 3050W        W 6569   9.936   8.869   3.392
 3051W        W 6570   7.010   4.728   3.080
 3052W        W 6571   5.565   7.864  11.936
 3053W        W 6572   7.726   8.748   9.525
 3054W        W 6573   3.512   9.306   1.946
 3055W        W 6574   8.666   4.970  10.884
 3056W        W 6575   8.740   9.473  10.138
 3057W        W 6576   8.478   4.144  10.279
 3058W        W 6577   0.333   4.612   9.184
 3059W        W 6578   9.073   9.308   0.463
 3060W        W 6579   8.822   5.116   9.882
 3061W        W 6580   1.920   0.384  11.462
 3062W        W 6581   7.513   9.094   9.233
 3063W        W 6582   7.228   0.360  11.353
 3064W        W 6583   2.146   9.933  11.482
 3065W        W 6584   4.633   6.939   0.685
 3066W        W 6585   2.801   6.003  10.295
 3067W        W 6586   6.915   1.739   3.194
 3068W        W 6587   5.278   7.000  10.509
 3069W        W 6588   8.169   9.295   2.306
 3070W        W 6589   0.565   9.977   3.459
 3071W        W 6590   8.361   7.504   1.799
 3072W        W 6591   9.023   9.818  11.458
 3073W        W 6592   4.338   8.234   1.129
 3074W        W 6593   9.139   1.841   2.572
 3075W        W 6594   1.407   7.644  11.472
 3076W        W 6595   8.412   1.140   3.346
 3077W        W 6596   3.244   0.190   3.359
 3078W        W 6597   8.402   9.355   2.752
 3079W        W 6598   7.485   7.938   1.937
 3080W        W 6599   8.176   2.686  10.550
 3081W        W 6600   6.909   1.570  11.445
 3082W        W 6601   2.269   9.888   2.905
 3083W        W 6602   9.339   7.729   9.069
 3084W        W 6603   9.892   3.285   9.408
 3085W        W 6604   8.009   5.495   9.448
 3086W        W 6605   7.932   4.320   1.964
 3087W        W 6606   6.126   2.316   9.475
 3088W        W 6607   9.501   2.278  11.747
 3089W        W 6608   0.968   9.219   0.675
 3090W        W 6609   2.080   2.452   3.357
 3091W        W 6610   2.515   6.329   0.019
 3092W        W 6611   5.622   6.596   9.569
 3093W        W 6612   7.658   0.283  11.583
 3094W        W 6613   8.223   0.211   9.179
 3095W        W 6614   4.273   3.266   8.239
 3096W        W 6615   5.335   9.810   8.803
 3097W        W 6616   0.281   9.124  11.346
 3098W        W 6617   6.362   1.967   1.079
 3099W        W 6618   1.402   4.372   9.232
 3100W        W 6619   2.241   0.323   1.454
 3101W        W 6620   7.047   5.012   8.413
 3102W        W 6621   4.054   9.417  10.489
 3103W        W 6622   3.655   6.031   8.344
 3104W        W 6623   1.362   9.010  11.386
 3105W        W 6624   5.983   1.042   9.890
 3106W        W 6625   1.834   7.855   1.999
 3107W        W 6626   0.172   6.777  11.317
 3108W        W 6627   4.260   7.003  10.245
 3109W        W 6628   6.973   5.223   3.265
 3110W        W 6629   7.122   6.049   1.457
 3111W        W 6630   1.759   8.497  10.691
 3112W        W 6631   7.430   9.415   9.764
 3113W        W 6632   6.155   4.244   1.633
 3114W        W 6633   4.307   9.400   2.327
 3115W        W 6634   7.172   5.919  10.595
 3116W        W 6635   3.379   6.365   1.803
 3117W        W 6636   3.942   2.494   2.258
 3118W        W 6637   0.306   8.145   8.964
 3119W        W 6638   0.742   6.689  10.386
 3120W        W 6639   1.218   4.641   3.510
 3121W        W 6640   0.817   9.973  10.738
 3122W        W 6641   1.064   7.770   1.346
 3123W        W 6642   7.797   0.701  11.862
 3124W        W 6643   9.531   8.974   9.866
 3125W        W 6644   3.300   8.958  11.732
 3126W        W 6645   3.157   2.803  10.157
 3127W        W 6646   9.453   4.533  10.391
 3128W        W 6647   5.218   2.033  10.400
 3129W        W 6648   9.053   5.035   8.905
 3130W        W 6649   4.013   9.829   2.338
 3131W        W 6650   5.659   7.548   1.366
 3132W        W 6651   0.520   5.641   2.129
 3133W        W 6652   4.664   7.880  11.821
 3134W        W 6653   5.091   1.163   9.859
 3135W        W 6654   4.063   9.439  11.523
 3136W        W 6655   7.424   5.192   2.402
 3137W        W 6656   4.664   2.851  10.509
 3138W        W 6657   2.344   6.512   3.247
 3139W        W 6658   0.251   9.750   1.781
 3140W        W 6659   7.793   7.834   2.735
 3141W        W 6660   1.442   2.179  10.094
 3142W        W 6661   8.567   8.606  11.791
 3143W        W 6662   3.530   4.543   0.482
 3144W        W 6663   1.787   6.729   3.176
 3145W        W 6664   8.267   7.925   2.601
 3146W        W 6665   9.201   6.043  11.887
 3147W        W 6666   9.211   0.984   2.875
 3148W        W 6667   0.346   7.810  10.526
 3149W        W 6668   1.895   2.403   0.962
 3150W        W 6669   3.558   2.576  10.336
 3151W        W 6670   6.213   2.686   0.662
 3152W        W 6671   7.631   5.314   9.137
 3153W        W 6672   9.886   7.113   0.048
 3154W        W 6673   7.911   1.636   1.791
 3155W        W 6674   2.927   8.635   9.856
 3156W        W 6675   4.983   1.354  11.347
 3157W        W 6676   4.612   6.499   1.492
 3158W        W 6677   5.640   6.823   0.742
 3159W        W 6678   5.868   0.323   9.447
 3160W        W 6679   2.246   7.929  10.182
 3161W        W 6680   0.028   4.222  10.774
 3162W        W 6681   9.869   3.445   0.283
 3163W        W 6682   8.013   5.763  10.448
 3164W        W 6683   4.708   6.336   9.417
 3165W        W 6684   8.562   0.578  11.224
 3166W        W 6685   8.951   5.741   0.789
 3167W        W 6686   6.084   6.683   9.105
 3168W        W 6687   1.293   3.092  11.672
 3169W        W 6688   4.234   5.537   1.887
 3170W        W 6689   4.121   1.319  11.237
 3171W        W 6690   9.223   4.595   0.483
 3172W        W 6691   4.799   0.952   2.185
 3173W        W 6692   6.868   2.319  10.805
 3174W        W 6693   4.873   1.599   1.378
 3175W        W 6694   5.278   0.234   0.734
 3176W        W 6695   2.217   5.030   3.645
 3177W        W 6696   3.330   6.589  11.731
 3178W        W 6697   4.656   1.773   2.764
 3179W        W 6698   3.601   1.112   9.058
 3180W        W 6699   3.519   4.550   7.854
 3181W        W 6700   2.785   3.764  11.140
 3182W        W 6701   2.664   4.336   9.824
 3183W        W 6702   1.315   2.647  11.364
 3184W        W 6703   3.259   0.793   9.402
 3185W        W 6704   6.159   5.488   4.101
 3186W        W 6705   0.845   6.978   0.374
 3187W        W 6706   1.592   3.036  10.818
 3188W        W 6707   9.217   8.361   0.269
 3189W        W 6708   6.913   5.117   2.269
 3190W        W 6709   5.429   7.109  11.004
 3191W        W 6710   6.006   9.544  11.278
 3192W        W 6711   8.116   2.654   2.441
 3193W        W 6712   5.244   9.985   0.282
 3194W        W 6713   6.917   9.816   2.183
 3195W        W 6714   5.192   5.110  10.899
 3196W        W 6715   3.832   8.905   3.164
 3197W        W 6716   9.373   3.431  11.124
 3198W        W 6717   4.436   7.103   2.310
 3199W        W 6718   0.424   6.431   1.710
 3200W        W 6719   5.682   4.547   3.375
 3201W        W 6720   0.827   1.096   9.073
 3202W        W 6721   5.071   1.467   3.155
 3203W        W 6722   6.596   9.232  11.343
 3204W        W 6723   1.778   4.260  11.530
 3205W        W 6724   8.308   7.075   0.034
 3206W        W 6725   4.498   6.450   9.867
 3207W        W 6726   6.661   3.867   9.709
 3208W        W 6727   8.641   1.084  10.323
 3209W        W 6728   3.370   2.590  11.948
 3210W        W 6729   0.434   9.661  10.568
 3211W        W 6730   1.327   5.987   3.049
 3212W        W 6731   7.358   4.440   9.197
 3213W        W 6732   5.213   1.513  10.416
 3214W        W 6733   3.617   4.986   9.149
 3215W        W 6734   8.593   4.311  11.819
 3216W        W 6735   4.350   4.274   1.449
 3217W        W 6736   9.558   1.882   3.401
 3218W        W 6737   3.074   3.800  10.223
 3219W        W 6738   6.404   6.285  11.081
 3220W        W 6739   5.215   7.709   3.610
 3221W        W 6740   0.428   4.369  10.507
 3222W        W 6741   1.385   0.337   1.599
 3223W        W 6742   1.230   2.405   2.269
 3224W        W 6743   9.971   1.720   9.789
 3225W        W 6744   1.783   7.491   9.769
 3226W        W 6745   2.344   3.450   2.729
 3227W        W 6746   5.257   3.558   3.165
 3228W        W 6747   0.515   2.137  10.069
 3229W        W 6748   1.610   1.038   2.669
 3230W        W 6749   7.544   4.770  11.882
 3231W        W 6750   6.538   7.650   0.342
 3232W        W 6751   6.565   4.809   3.360
 3233W        W 6752   6.841   9.307   3.122
 3234W        W 6753   2.078   9.235   2.995
 3235W        W 6754   0.419   6.375  11.158
 3236W        W 6755   4.363   3.075   3.061
 3237W        W 6756   2.230   5.606  11.162
 3238W        W 6757   5.710   3.579   2.175
 3239W        W 6758   9.012   1.024   0.384
 3240W        W 6759   3.175   7.092  10.546
 3241W        W 6760   4.296   4.638  11.866
 3242W        W 6761   0.696   8.294   0.852
 3243W        W 6762   0.853   7.661  10.499
 3244W        W 6763   0.877   1.552   2.702
 3245W        W 6764   4.360   2.472   8.658
 3246W        W 6765   0.113   0.703   1.411
 3247W        W 6766   0.357   1.854   0.429
 3248W        W 6767   0.238   5.674   3.420
 3249W        W 6768   4.734   1.287   3.504
 3250W        W 6769   9.512   6.640   1.145
 3251W        W 6770   6.929   0.171   1.793
 3252W        W 6771   4.200   1.602   2.561
 3253W        W 6772   5.019   5.901  11.105
 3254W        W 6773   6.645   8.226   9.010
 3255W        W 6774   8.086   9.104   1.844
 3256W        W 6775   4.349   6.239   9.072
 3257W        W 6776   7.101   1.646   9.227
 3258W        W 6777   8.914   3.990  11.041
 3259W        W 6778   2.892   6.501   3.121
 3260W        W 6779   5.990   4.353   9.121
 3261W        W 6780   1.623   3.567   9.626
 3262W        W 6781   9.833   9.520  11.994
 3263W        W 6782   6.878   7.688   0.754
 3264W        W 6783   9.840   6.878   2.884
 3265W        W 6784   2.014   0.845  10.713
 3266W        W 6785   4.097   2.003   2.258
 3267W        W 6786   6.879   7.796   8.829
 3268W        W 6787   9.473   0.757   9.019
 3269W        W 6788   0.624   4.716   9.624
 3270W        W 6789   6.641   6.047   3.715
 3271W        W 6790   8.617   5.769   2.887
 3272W        W 6791   8.492   1.256   2.439
 3273W        W 6792   9.292   2.675   1.073
 3274W        W 6793   5.974   6.117   0.829
 3275W        W 6794   1.947   1.647   1.366
 3276W        W 6795   7.892   9.737   2.318
 3277W        W 6796   6.996   6.985   0.362
 3278W        W 6797   9.354   0.065   2.289
 3279W        W 6798   0.474   0.347   0.525
 3280W        W 6799   3.720   0.733  10.325
 3281W        W 6800   2.386   0.691   3.509
 3282W        W 6801   8.727   4.114   8.489
 3283W        W 6802   6.479   4.605   1.736
 3284W        W 6803   2.486   5.499   8.488
 3285W        W 6804   7.597   2.264   0.260
 3286W        W 6805   0.728   3.981  10.287
 3287W        W 6806   3.700   1.558  11.388
 3288W        W 6807   4.878   7.258   8.630
 3289W        W 6808   1.351   6.314   8.730
 3290W        W 6809   9.567   5.005   0.573
 3291W        W 6810   4.633   2.717  11.903
 3292W        W 6811   8.050   6.514   9.562
 3293W        W 6812   1.783   3.258   1.438
 3294W        W 6813   7.677   9.849  11.854
 3295W        W 6814   7.042   4.864   0.032
 3296W        W 6815   7.587   8.434  11.794
 3297W        W 6816   9.960   0.937   0.574
 3298W        W 6817   6.310   5.353  11.430
 3299W        W 6818   5.128   4.640   9.196
 3300W        W 6819   4.202   4.038   3.340
 3301W        W 6820   4.480   3.174   1.706
 3302W        W 6821   9.937   9.444   2.707
 3303W        W 6822   7.065   8.168   1.767
 3304W        W 6823   7.724   3.076   9.676
 3305W        W 6824   0.839   9.766   0.010
 3306W        W 6825   3.489   3.828   2.525
 3307W        W 6826   5.402   7.863   9.015
 3308W        W 6827   5.890   9.639   1.712
 3309W        W 6828   3.953   2.711   0.557
 3310W        W 6829   5.074   3.338  10.585
 3311W        W 6830   6.604   7.055   4.257
 3312W        W 6831   8.126   8.611   1.815
 3313W        W 6832   3.923   0.289  11.799
 3314W        W 6833   0.316   0.416  11.238
 3315W        W 6834   7.937   1.377   1.267
 3316W        W 6835   0.136   1.701   0.912
 3317W        W 6836   3.503   8.888   3.583
 3318W        W 6837   3.873   6.286   3.941
 3319W        W 6838   6.320   0.159   9.615
 3320W        W 6839   8.063   6.418   0.347
 3321W        W 6840   6.417   4.833   9.107
 3322W        W 6841   0.787   4.800   2.396
 3323W        W 6842   2.890   2.397   3.168
 3324W        W 6843   5.445   1.488   9.684
 3325W        W 6844   6.668   5.591   3.999
 3326W        W 6845   8.547   8.058   3.004
 3327W        W 6846   9.953   9.944  11.273
 3328W        W 6847   2.186   1.021   2.120
 3329W        W 6848   2.416   6.933   9.984
 3330W        W 6849   8.955   3.522   2.930
 3331W        W 6850   7.493   3.742   1.443
 3332W        W 6851   1.084   6.612   1.832
 3333W        W 6852   6.022   2.731   9.780
 3334W        W 6853   8.812   1.485   0.556
 3335W        W 6854   9.055   9.636   2.251
 3336W        W 6855   4.733   7.061  10.517
 3337W        W 6856   3.900   5.881  11.753
 3338W        W 6857   6.117   3.181  10.531
 3339W        W 6858   9.818   8.859   9.422
 3340W        W 6859   9.261   0.872  10.929
 3341W        W 6860   5.553   8.344  11.775
 3342W        W 6861   0.651   8.682  10.686
 3343W        W 6862   7.416   9.132   0.514
 3344W        W 6863   1.167   5.085   0.997
 3345W        W 6864   4.604   1.819   8.990
 3346W        W 6865   2.023   2.624   8.684
 3347W        W 6866   5.634   5.236   0.385
 3348W        W 6867   1.205   6.256   0.080
 3349W        W 6868   5.595   9.380   9.678
 3350W        W 6869   1.744   0.888  10.258
 3351W        W 6870   6.520   2.120   0.063
 3352W        W 6871   2.285   9.936  10.980
 3353W        W 6872   5.796   9.081   0.010
 3354W        W 6873   0.157   1.558   3.959
 3355W        W 6874   3.767   3.754  11.856
 3356W        W 6875   2.226   6.001   1.987
 3357W        W 6876   8.107   7.101   8.868
 3358W        W 6877   4.886   4.045   0.468
 3359W        W 6878   5.113   6.862   0.339
 3360W        W 6879   7.962   5.467   1.372
 3361W        W 6880   6.061   5.590   0.798
 3362W        W 6881   1.023   4.132   9.540
 3363W        W 6882   3.429   0.349   9.563
 3364W        W 6883   6.298   8.650  11.404
 3365W        W 6884   8.434   2.642   9.226
 3366W        W 6885   9.405   0.307   8.789
 3367W        W 6886   7.712   5.097   1.031
 3368W        W 6887   7.975   7.600  11.243
 3369W        W 6888   3.531   6.060   1.422
 3370W        W 6889   0.793   1.636   8.990
 3371W        W 6890   6.852   7.522  11.225
 3372W        W 6891   0.847   9.661   0.946
 3373W        W 6892   4.046   3.066   0.913
 3374W        W 6893   7.847   8.234   9.826
 3375W        W 6894   1.875   7.139  11.765
 3376W        W 6895   0.125   7.846   9.337
 3377W        W 6896   5.382   4.285   9.797
 3378W        W 6897   7.480   5.746   3.526
 3379W        W 6898   8.284   4.171   0.603
 3380W        W 6899   0.958   2.305  11.551
 3381W        W 6900   4.789   6.470   0.681
 3382W        W 6901   4.700   0.860   2.677
 3383W        W 6902   6.350   7.569   9.880
 3384W        W 6903   3.696   0.470   1.726
 3385W        W 6904   9.783   6.747   2.366
 3386W        W 6905   4.735   0.349  11.375
 3387W        W 6906   7.396   8.299  10.948
 3388W        W 6907   3.757   0.046  11.377
 3389W        W 6908   0.567   3.688   1.199
 3390W        W 6909   3.189   5.985   0.563
 3391W        W 6910   7.937   8.162   1.792
 3392W        W 6911   3.924   5.902   9.510
 3393W        W 6912   9.251   5.480   3.238
 3394W        W 6913   8.543   7.472   0.839
 3395W        W 6914   9.643   5.283   0.157
 3396W        W 6915   8.132   0.663  10.297
 3397W        W 6916   2.729   4.410   8.498
 3398W        W 6917   0.486   0.852   0.566
 3399W        W 6918   6.840   6.494   3.551
 3400W        W 6919   9.560   3.368  11.874
 3401W        W 6920   9.227   8.189  10.073
 3402W        W 6921   3.063   4.354   0.355
 3403W        W 6922   4.747   6.712   3.603
 3404W        W 6923   3.648   0.729  10.832
 3405W        W 6924   9.672   1.756   1.302
 3406W        W 6925   9.852   0.247   1.184
 3407W        W 6926   2.645   0.722  11.856
 3408W        W 6927   5.170   6.366   3.715
 3409W        W 6928   8.939   9.924   9.577
 3410W        W 6929   5.726   0.134   1.823
 3411W        W 6930   4.977   9.392  11.914
 3412W        W 6931   0.327   7.994  11.760
 3413W        W 6932   7.753   6.761   9.035
 3414W        W 6933   4.538   7.915  10.893
 3415W        W 6934   8.671   0.296   3.156
 3416W        W 6935   3.069   3.379  11.439
 3417W        W 6936   2.219   5.975   0.912
 3418W        W 6937   9.073   0.766  10.431
 3419W        W 6938   8.386   9.334  11.855
 3420W        W 6939   5.216   1.939   8.508
 3421W        W 6940   0.783   8.079  11.512
 3422W        W 6941   7.930   3.416   1.314
 3423W        W 6942   2.156   4.426   2.627
 3424W        W 6943   8.030   4.658   9.898
 3425W        W 6944   3.788   8.881   0.741
 3426W        W 6945   0.446   4.228  11.063
 3427W        W 6946   4.991   2.067  11.754
 3428W        W 6947   4.969   9.952   2.185
 3429W        W 6948   4.341   8.973   3.315
 3430W        W 6949   0.288   8.791  10.280
 3431W        W 6950   2.543   4.775   2.807
 3432W        W 6951   3.084   2.142   9.526
 3433W        W 6952   6.330   2.995  10.096
 3434W        W 6953   1.385   2.132   3.210
 3435W        W 6954   2.500   2.632   9.535
 3436W        W 6955   6.607   1.780   1.886
 3437W        W 6956   2.854   5.983   0.158
 3438W        W 6957   7.403   2.679   9.571
 3439W        W 6958   3.551   4.556   8.866
 3440W        W 6959   8.508   2.632  10.950
 3441W        W 6960   0.326   5.916   0.720
 3442W        W 6961   1.250   8.049  11.765
 3443W        W 6962   9.271   3.772  10.758
 3444W        W 6963   9.615   1.738  10.888
 3445W        W 6964   1.447   3.046  10.304
 3446W        W 6965   7.251   5.039   8.896
 3447W        W 6966   1.360   9.366  10.328
 3448W        W 6967   6.371   0.964  10.621
 3449W        W 6968   3.118   9.003   9.295
 3450W        W 6969   6.334   1.772   8.705
 3451W        W 6970   3.718   8.560  10.095
 3452W        W 6971   3.764   7.930   2.476
 3453W        W 6972   1.831   1.820   9.594
 3454W        W 6973   8.092   3.073   1.718
 3455W        W 6974   6.019   1.863  10.768
 3456W        W 6975   5.963   3.357  10.038
 3457W        W 6976   5.997   9.515   9.135
 3458W        W 6977   5.995   4.145   1.158
 3459W        W 6978   9.554   5.351   9.996
 3460W        W 6979   6.395   0.169   1.121
 3461W        W 6980   0.473   9.309   0.339
 3462W        W 6981   8.002   3.217   9.264
 3463W        W 6982   1.756   2.657   2.608
 3464W        W 6983   6.898   2.427   9.260
 3465W        W 6984   3.179   9.962   9.204
 3466W        W 6985   3.482   9.436   3.590
 3467W        W 6986   5.309   7.023   2.806
 3468W        W 6987   1.858   3.793  11.751
 3469W        W 6988   8.196   1.441  10.983
 3470W        W 6989   5.101   3.493   8.188
 3471W        W 6990   1.022   3.029   3.576
 3472W        W 6991   8.732   9.327   1.426
 3473W        W 6992   5.293   4.615  11.183
 3474W        W 6993   4.870   7.736   9.864
 3475W        W 6994   7.966   2.232  10.439
 3476W        W 6995   5.986   4.743   1.723
 3477W        W 6996   1.541   4.277   9.719
 3478W        W 6997   6.171   6.432   2.837
 3479W        W 6998   5.465   3.543  10.317
 3480W        W 6999   5.336   2.906   8.755
 3481W        W 7000   7.599   8.449   2.118
 3482W        W 7001   3.656   3.464   8.897
 3483W        W 7002   3.223   4.534   3.339
 3484W        W 7003   4.594   3.536   2.912
 3485W        W 7004   3.475   7.889   0.179
 3486W        W 7005   6.961   4.707   2.588
 3487W        W 7006   2.191   4.692   3.198
 3488W        W 7007   8.457   3.405   1.863
 3489W        W 7008   4.217   7.520   0.268
 3490W        W 7009   0.315   5.429  10.450
 3491W        W 7010   2.275   0.171  10.008
 3492W        W 7011   1.304   2.363   9.089
 3493W        W 7012   7.351   6.171   3.245
 3494W        W 7013   2.730   7.025   0.267
 3495W        W 7014   3.775   5.339   3.602
 3496W        W 7015   2.757   6.904  10.790
 3497W        W 7016   1.743   8.967  11.723
 3498W        W 7017   4.091   8.552  11.666
 3499W        W 7018   5.475   2.914  11.647
 3500W        W 7019   5.474   0.460   0.294
 3501W        W 7020   0.366   4.144   1.319
 3502W        W 7021   9.744   6.123   8.300
 3503W        W 7022   4.431   7.098   8.866
 3504W        W 7023   8.895   9.497  11.887
 3505W        W 7024   6.090   5.099   0.951
 3506W        W 7025   9.010   2.644   2.935
 3507W        W 7026   2.706   3.179   1.529
 3508W        W 7027   5.673   7.096   1.756
 3509W        W 7028   5.142   7.833   3.111
 3510W        W 7029   4.130   7.450   9.740
 3511W        W 7030   3.504   6.837  11.294
 3512W        W 7031   0.861   2.747   0.322
 3513W        W 7032   1.388   1.857   9.295
 3514W        W 7033   4.234   5.586   2.888
 3515W        W 7034   9.361   7.212   9.219
 3516W        W 7035   5.203   9.930   3.116
 3517W        W 7036   6.577   6.713   1.560
 3518W        W 7037   2.140   4.772  10.301
 3519W        W 7038   3.415   0.315  11.657
 3520W        W 7039   3.485   9.458   0.758
 3521W        W 7040   5.522   1.954  11.811
 3522W        W 7041   8.502   6.874  11.102
 3523W        W 7042   8.741   0.076   2.633
 3524W        W 7043   7.304   0.112   1.442
 3525W        W 7044   2.042   8.321   9.367
 3526W        W 7045   2.025   1.347   2.595
 3527W        W 7046   4.434   7.000  10.929
 3528W        W 7047   5.165   1.406   0.467
 3529W        W 7048   9.921   8.443  11.023
 3530W        W 7049   9.966   0.357   2.704
 3531W        W 7050   6.228   6.506  11.939
 3532W        W 7051   2.891   7.756   1.035
 3533W        W 7052   5.606   0.712   2.159
 3534W        W 7053   0.288   6.130   9.166
 3535W        W 7054   1.737   9.510   1.396
 3536W        W 7055   4.981   6.987   8.200
 3537W        W 7056   9.495   8.482   9.214
 3538W        W 7057   6.681   4.443  11.057
 3539W        W 7058   1.012   0.747  11.717
 3540W        W 7059   7.151   6.507   0.386
 3541W        W 7060   8.934   3.597  11.969
 3542W        W 7061   2.376   1.177   9.871
 3543W        W 7062   1.277   8.217   1.410
 3544W        W 7063   9.404   8.595   1.807
 3545W        W 7064   5.487   3.842   8.341
 3546W        W 7065   9.891   0.183  10.536
 3547W        W 7066   8.233   4.750   2.635
 3548W        W 7067   8.947   8.223   0.666
 3549W        W 7068   6.108   0.693   0.521
 3550W        W 7069   5.478   5.091   9.196
 3551W        W 7070   5.828   6.964   8.760
 3552W        W 7071   0.617   7.870  10.089
 3553W        W 7072   6.576   5.656   3.248
 3554W        W 7073   0.338   3.947   0.777
 3555W        W 7074   2.194   1.656  11.760
 3556W        W 7075   5.117   1.581  11.825
 3557W        W 7076   7.872   6.831   2.993
 3558W        W 7077   0.966   1.458   9.940
 3559W        W 7078   0.666   9.837   1.467
 3560W        W 7079   4.346   9.170   9.473
 3561W        W 7080   7.823   3.212  11.304
 3562W        W 7081   6.913   3.755  10.606
 3563W        W 7082   6.945   8.496   0.280
 3564W        W 7083   6.898   1.052   9.917
 3565W        W 7084   1.745   2.623  10.263
 3566W        W 7085   0.920   9.564  11.125
 3567W        W 7086   6.559   8.008   9.988
 3568W        W 7087   6.956   9.706  10.212
 3569W        W 7088   1.765   8.878   1.817
 3570W        W 7089   1.126   5.048   3.203
 3571W        W 7090   9.821   6.023   0.598
 3572W        W 7091   8.598   2.917   3.056
 3573W        W 7092   4.533   7.378  10.035
 3574W        W 7093   4.590   7.000   1.699
 3575W        W 7094   4.502   9.081  10.243
 3576W        W 7095   9.342   7.214   1.693
 3577W        W 7096   8.707   4.432   9.271
 3578W        W 7097   9.797   8.773   1.006
 3579W        W 7098   9.219   0.374   9.311
 3580W        W 7099   1.379   1.176  10.010
 3581W        W 7100   8.065   8.700   9.903
 3582W        W 7101   7.750   6.274   9.223
 3583W        W 7102   4.327   8.365  10.723
 3584W        W 7103   1.753   6.112   0.700
 3585W        W 7104   1.690   0.690   8.883
 3586W        W 7105   4.183   7.880   2.769
 3587W        W 7106   6.716   9.385   3.606
 3588W        W 7107   6.431   0.903  10.115
 3589W        W 7108   4.864   8.173   3.398
 3590W        W 7109   5.261   7.448   2.330
 3591W        W 7110   5.753   7.465   8.841
 3592W        W 7111   1.732   2.059   8.956
 3593W        W 7112   2.782   0.898   9.599
 3594W        W 7113   4.991   7.316   0.521
 3595W        W 7114   9.873   9.756  10.814
 3596W        W 7115   3.252   5.149   9.490
 3597W        W 7116   1.477   9.932   1.272
 3598W        W 7117   0.453   1.696   2.979
 3599W        W 7118   7.152   9.103  11.466
 3600W        W 7119   1.984   0.294   9.027
 3601W        W 7120   7.340   5.262   3.624
 3602W        W 7121   9.582   9.709  10.389
 3603W        W 7122   4.665   0.713   1.689
 3604W        W 7123   6.961   1.315   2.177
 3605W        W 7124   1.718   5.714   1.012
 3606W        W 7125   2.310   1.188   3.394
 3607W        W 7126   6.551   4.895   0.922
 3608W        W 7127   9.527   0.120   2.868
 3609W        W 7128   5.554   8.354   2.552
 3610W        W 7129   1.346   7.605  11.994
 3611W        W 7130   6.652   3.356   0.789
 3612W        W 7131   4.753   1.151   9.363
 3613W        W 7132   2.610   2.165   1.695
 3614W        W 7133   0.666   3.040   3.203
 3615W        W 7134   8.544   8.892   1.156
 3616W        W 7135   6.082   1.247   3.252
 3617W        W 7136   5.210   7.371   4.011
 3618W        W 7137   6.122   4.688  11.526
 3619W        W 7138   2.308   9.834   0.824
 3620W        W 7139   2.401   2.438   0.856
 3621W        W 7140   7.210   2.587   3.485
 3622W        W 7141   5.589   6.597   1.966
 3623W        W 7142   4.802   2.262   3.489
 3624W        W 7143   1.814   0.028   1.668
 3625W        W 7144   6.628   8.323   9.524
 3626W        W 7145   1.343   4.205   2.581
 3627W        W 7146   6.396   3.090   8.711
 3628W        W 7147   3.213   5.605   2.848
 3629W        W 7148   5.421   5.920   3.784
 3630W        W 7149   9.618   5.117   3.105
 3631W        W 7150   5.506   9.056   0.439
 3632W        W 7151   3.634   2.096  10.465
 3633W        W 7152   6.880   7.312   9.968
 3634W        W 7153   2.998   9.395   0.986
 3635W        W 7154   3.319   3.685   9.791
 3636W        W 7155   5.690   9.948   0.987
 3637W        W 7156   8.923   5.960   9.568
 3638W        W 7157   8.598   5.727   0.257
 3639W        W 7158   7.616   3.249   1.720
 3640W        W 7159   5.223   5.825   1.689
 3641W        W 7160   7.735   0.042   9.070
 3642W        W 7161   0.564   9.167  10.465
 3643W        W 7162   1.534   5.073   1.517
 3644W        W 7163   8.307   8.865   2.629
 3645W        W 7164   4.300   0.663   0.531
 3646W        W 7165   5.138   9.370   2.150
 3647W        W 7166   4.710   3.665  11.766
 3648W        W 7167   4.519   1.887   9.867
 3649W        W 7168   8.822   2.182   2.803
 3650W        W 7169   5.350   7.611   8.551
 3651W        W 7170   0.431   1.851  11.438
 3652W        W 7171   1.878   9.062   8.913
 3653W        W 7172   0.415   7.040   0.762
 3654W        W 7173   4.195   3.312   2.640
 3655W        W 7174   8.097   3.710  11.944
 3656W        W 7175   6.778   2.312  11.311
 3657W        W 7176   0.962   2.337  10.707
 3658W        W 7177   2.951   2.571   3.651
 3659W        W 7178   6.112   9.946   2.084
 3660W        W 7179   6.747   4.644   1.319
 3661W        W 7180   6.547   8.870   3.083
 3662W        W 7181   8.150   9.193   9.992
 3663W        W 7182   3.182   7.544  10.214
 3664W        W 7183   9.665   2.793  11.712
 3665W        W 7184   9.659   4.713  10.844
 3666W        W 7185   6.019   9.925   3.207
 3667W        W 7186   1.766   8.049   1.505
 3668W        W 7187   3.594   6.618   9.898
 3669W        W 7188   1.870   1.725   2.279
 3670W        W 7189   0.657   6.015  10.868
 3671W        W 7190   7.079   0.295   3.142
 3672W        W 7191   1.620   7.375   1.769
 3673W        W 7192   4.635   8.798   8.553
 3674W        W 7193   2.249   7.065   2.532
 3675W        W 7194   7.695   7.846  10.893
 3676W        W 7195   1.285   0.437   1.093
 3677W        W 7196   0.570   0.816  11.455
 3678W        W 7197   3.186   4.708   2.021
 3679W        W 7198   7.098   5.276  11.743
 3680W        W 7199   5.133   7.848   1.053
 3681W        W 7200   4.545   0.191  10.553
 3682W        W 7201   4.945   3.103  11.027
 3683W        W 7202   8.412   9.908   1.051
 3684W        W 7203   1.678   4.464  10.822
 3685W        W 7204   8.409   0.473   2.724
 3686W        W 7205   4.014   3.375   1.338
 3687W        W 7206   0.423   1.732  10.922
 3688W        W 7207   5.126   5.689   2.166
 3689W        W 7208   6.774   5.547  11.428
 3690W        W 7209   5.563   2.632   1.805
 3691W        W 7210   0.789   4.352   9.937
 3692W        W 7211   2.993   8.791   1.256
 3693W        W 7212   9.030   9.974   9.041
 3694W        W 7213   2.245   4.439  11.688
 3695W        W 7214   6.272   9.118   9.435
 3696W        W 7215   9.371   5.699   9.589
 3697W        W 7216   8.031   6.256   8.807
 3698W        W 7217   4.279   7.489  10.934
 3699W        W 7218   8.271   6.588   3.219
 3700W        W 7219   7.446   4.049   8.847
 3701W        W 7220   7.833   2.694   9.313
 3702W        W 7221   0.451   4.920  10.513
 3703W        W 7222   3.042   8.417  11.587
 3704W        W 7223   2.243   7.426   9.995
 3705W        W 7224   7.994   7.955   1.317
 3706W        W 7225   2.241   1.890   2.612
 3707W        W 7226   6.189   5.287   9.845
 3708W        W 7227   2.422   0.252   3.238
 3709W        W 7228   0.340   6.422  11.708
 3710W        W 7229   4.767   9.564   3.024
 3711W        W 7230   2.605   0.454   0.266
 3712W        W 7231   3.900   4.640   2.188
 3713W        W 7232   2.290   5.224  10.563
 3714W        W 7233   5.376   1.097   0.855
 3715W        W 7234   9.241   1.995  10.134
 3716W        W 7235   2.258   0.907   9.417
 3717W        W 7236   1.796   8.683   0.898
 3718W        W 7237   7.241   6.836  10.610
 3719W        W 7238   4.094   8.541   2.004
 3720W        W 7239   2.842   4.620  11.036
 3721W        W 7240   4.742   5.634   1.814
 3722W        W 7241   1.660   8.842   2.338
 3723W        W 7242   0.273   8.255  10.232
 3724W        W 7243   6.686   6.662   0.100
 3725W        W 7244   6.667   5.079   9.470
 3726W        W 7245   0.427   2.105  11.899
 3727W        W 7246   7.511   8.927   2.820
 3728W        W 7247   3.637   0.040   9.964
 3729W        W 7248   2.260   6.368   1.300
 3730W        W 7249   5.464   3.639   0.319
 3731W        W 7250   3.567   5.032   2.069
 3732W        W 7251   1.175   4.293   1.675
 3733W        W 7252   5.858   8.407  11.342
 3734W        W 7253   8.685   8.581   2.885
 3735W        W 7254   0.913   7.892   2.080
 3736W        W 7255   3.159   9.974   9.730
 3737W        W 7256   7.478   6.933   2.519
 3738W        W 7257   4.873   5.301   0.399
 3739W        W 7258   2.696   8.429   3.389
 3740W        W 7259   5.477   9.494   0.173
 3741W        W 7260   2.373   4.563   1.776
 3742W        W 7261   3.508   9.304   9.419
 3743W        W 7262   5.682   3.980   2.476
 3744W        W 7263   8.878   9.735   0.655
 3745W        W 7264   3.912   2.600   8.945
 3746W        W 7265   6.008   2.797   1.630
 3747W        W 7266   9.045   0.472   2.832
 3748W        W 7267   1.221   8.196   8.789
 3749W        W 7268   6.748   1.240  10.382
 3750W        W 7269   5.167   8.623   8.651
 3751W        W 7270   9.424   4.641   1.947
 3752W        W 7271   9.772   9.777   0.917
 3753W        W 7272   4.889   0.327   1.278
 3754W        W 7273   0.288   5.525  10.957
 3755W        W 7274   8.128   4.132  11.643
 3756W        W 7275   0.371   4.683  10.072
 3757W        W 7276   2.222   8.431   2.673
 3758W        W 7277   3.969   1.869   0.452
 3759W        W 7278   3.817   2.755  11.708
 3760W        W 7279   1.168   2.134   1.803
 3761W        W 7280   6.343   4.116   9.426
 3762W        W 7281   6.340   6.101   8.836
 3763W        W 7282   6.014   9.424   0.296
 3764W        W 7283   4.896   1.127  11.812
 3765W        W 7284   5.945   5.275   1.822
 3766W        W 7285   2.858   5.978  10.793
 3767W        W 7286   1.342   2.398   2.790
 3768W        W 7287   2.275   0.049   2.411
 3769W        W 7288   7.191   9.133   0.047
 3770W        W 7289   6.907   4.918   0.555
 3771W        W 7290   6.901   5.341   0.841
 3772W        W 7291   9.020   3.873   1.258
 3773W        W 7292   4.158   0.903  11.551
 3774W        W 7293   6.798   8.764  11.401
 3775W        W 7294   6.706   9.038   8.781
 3776W        W 7295   4.570   0.282   8.845
 3777W        W 7296   8.394   8.069   9.664
 3778W        W 7297   8.918   4.409   1.328
 3779W        W 7298   1.820   9.660   2.789
 3780W        W 7299   2.696   9.258  11.707
 3781W        W 7300   2.285   9.491   9.459
 3782W        W 7301   8.001   7.906   0.367
 3783W        W 7302   6.945   4.749   9.191
 3784W        W 7303   0.122   0.107   0.231
 3785W        W 7304   7.623   5.609   1.943
 3786W        W 7305   4.600   0.819   3.192
 3787W        W 7306   4.298   1.820   1.784
 3788W        W 7307   7.183   1.316   3.043
 3789W        W 7308   2.342   9.856   3.568
 3790W        W 7309   6.801   2.895   3.374
 3791W        W 7310   0.063   7.608  11.549
 3792W        W 7311   4.948   1.423   8.913
 3793W        W 7312   7.578   7.102  10.307
 3794W        W 7313   4.794   8.967   0.917
 3795W        W 7314   2.409   0.832  11.062
 3796W        W 7315   5.071   3.106   0.500
 3797W        W 7316   5.634   5.966   9.487
 3798W        W 7317   3.219   9.932  10.763
 3799W        W 7318   1.647   2.359   1.966
 3800W        W 7319   2.268   4.046   1.282
 3801W        W 7320   0.717   8.863   2.289
 3802W        W 7321   2.186   3.187   2.311
 3803W        W 7322   6.086   2.651  11.799
 3804W        W 7323   9.730   4.536   0.456
 3805W        W 7324   1.518   4.509   0.803
 3806W        W 7325   5.185   4.103   2.417
 3807W        W 7326   8.922   7.499   0.475
 3808W        W 7327   3.305   6.601  10.338
 3809W        W 7328   4.532   2.273   1.840
 3810W        W 7329   2.860   1.466   2.750
 3811W        W 7330   5.766   4.290   8.516
 3812W        W 7331   8.365   9.059  11.403
 3813W        W 7332   8.172   1.875  11.252
 3814W        W 7333   0.340   0.701   2.905
 3815W        W 7334   5.794   5.616   2.764
 3816W        W 7335   4.715   4.348  10.968
 3817W        W 7336   1.848   2.255   2.932
 3818W        W 7337   4.430   2.771   0.396
 3819W        W 7338   8.303   3.870   8.664
 3820W        W 7339   1.240   0.631   2.323
 3821W        W 7340   2.028   7.460   2.824
 3822W        W 7341   3.434   4.715   2.482
 3823W        W 7342   7.808   9.509   0.517
 3824W        W 7343   7.617   0.742  11.362
 3825W        W 7344   5.448   8.167   3.374
 3826W        W 7345   1.361   4.423  11.831
 3827W        W 7346   9.546   1.242  10.768
 3828W        W 7347   3.948   7.528   1.912
 3829W        W 7348   6.205   0.363   3.453
 3830W        W 7349   4.651   7.455   1.456
 3831W        W 7350   3.555   3.250  10.858
 3832W        W 7351   7.887   3.970   2.344
 3833W        W 7352   2.418   1.984   0.062
 3834W        W 7353   7.290   6.995   9.884
 3835W        W 7354   3.591   2.053   9.523
 3836W        W 7355   9.267   1.351   1.284
 3837W        W 7356   5.382   9.213  10.730
 3838W        W 7357   3.635   6.383  10.935
 3839W        W 7358   2.257   3.612   0.376
 3840W        W 7359   1.280   0.335  11.516
 3841W        W 7360   3.806   3.261  11.825
 3842W        W 7361   0.383   9.468   0.822
 3843W        W 7362   2.306   3.122   9.573
 3844W        W 7363   4.273   5.963   3.938
 3845W        W 7364   1.382   5.506   2.686
 3846W        W 7365   0.038   1.276  10.966
 3847W        W 7366   6.672   6.650   1.065
 3848W        W 7367   4.579   8.789   1.839
 3849W        W 7368   5.878   4.041  10.861
 3850W        W 7369   1.741   5.682  11.358
 3851W        W 7370   0.882   1.904   2.159
 3852W        W 7371   0.854   7.111   2.792
 3853W        W 7372   6.514   5.220   3.037
 3854W        W 7373   7.766   1.906   2.995
 3855W        W 7374   2.783   5.196   9.271
 3856W        W 7375   7.475   5.223   0.158
 3857W        W 7376   0.372   3.462  10.221
 3858W        W 7377   1.117   7.466   8.990
 3859W        W 7378   0.237   3.886  10.444
 3860W        W 7379   7.411   1.681  11.563
 3861W        W 7380   8.058   2.887   1.221
 3862W        W 7381   8.943   6.977  11.830
 3863W        W 7382   5.502   3.554   3.612
 3864W        W 7383   3.796   4.394   1.236
 3865W        W 7384   2.873   1.730   9.174
 3866W        W 7385   0.129   2.407   3.468
 3867W        W 7386   9.225   5.067   1.779
 3868W        W 7387   3.489   8.740   1.304
 3869W        W 7388   5.653   2.315   3.974
 3870W        W 7389   8.935   8.775   1.908
 3871W        W 7390   1.617   9.098   2.826
 3872W        W 7391   6.671   1.917   0.645
 3873W        W 7392   0.979   2.110  10.263
 3874W        W 7393   3.898   5.487   9.941
 3875W        W 7394   3.214   1.278  11.303
 3876W        W 7395   2.101   5.171   2.317
 3877W        W 7396   3.082   9.261   0.498
 3878W        W 7397   8.259   1.459  11.539
 3879W        W 7398   1.165   7.993   0.878
 3880W        W 7399   6.718   3.836   2.485
 3881W        W 7400   5.622   8.034   9.905
 3882W        W 7401   9.376   1.381  11.746
 3883W        W 7402   4.645   8.116  10.395
 3884W        W 7403   3.708   6.321  11.944
 3885W        W 7404   8.509   7.970   1.097
 3886W        W 7405   0.401   2.848  11.232
 3887W        W 7406   1.836   8.431   0.410
 3888W        W 7407   1.879   3.465  10.060
 3889W        W 7408   8.444   9.478   0.757
 3890W        W 7409   7.015   0.133   0.838
 3891W        W 7410   7.216   8.533   2.665
 3892W        W 7411   8.783   4.061   1.677
 3893W        W 7412   7.870   4.065   3.118
 3894W        W 7413   9.196   3.519  10.169
 3895W        W 7414   4.488   0.418   2.801
 3896W        W 7415   5.556   1.632   3.215
 3897W        W 7416   4.233   4.386   0.955
 3898W        W 7417   2.663   7.616   9.771
 3899W        W 7418   4.411   0.628   2.319
 3900W        W 7419   3.735   3.643   1.711
 3901W        W 7420   4.047   3.646   9.177
 3902W        W 7421   4.738   9.173  11.505
 3903W        W 7422   5.127   8.020  11.594
 3904W        W 7423   3.476   6.967   3.454
 3905W        W 7424   9.850   7.125  11.517
 3906W        W 7425   5.225   9.704   2.578
 3907W        W 7426   9.868   6.405   9.722
 3908W        W 7427   3.272   1.550   0.132
 3909W        W 7428   2.207   7.483   0.532
 3910W        W 7429   1.322   8.448  10.960
 3911W        W 7430   3.816   3.310   8.449
 3912W        W 7431   8.773   8.527   1.459
 3913W        W 7432   7.488   3.091  10.528
 3914W        W 7433   4.325   3.806  10.615
 3915W        W 7434   6.978   8.319   2.260
 3916W        W 7435   2.977   2.302   8.861
 3917W        W 7436   0.452   8.020   2.452
 3918W        W 7437   6.057   8.860   3.247
 3919W        W 7438   7.646   0.739   1.914
 3920W        W 7439   2.767   3.504   8.852
 3921W        W 7440   4.645   9.404   9.838
 3922W        W 7441   8.994   8.688   1.002
 3923W        W 7442   5.184   8.373  10.532
 3924W        W 7443   1.859   7.088   0.352
 3925W        W 7444   9.929   7.852   1.159
 3926W        W 7445   4.144   9.359   9.942
 3927W        W 7446   3.218   4.902   3.748
 3928W        W 7447   4.220   8.936   1.058
 3929W        W 7448   6.205   6.912   2.636
 3930W        W 7449   9.130   3.132  11.994
 3931W        W 7450   3.509   5.987   2.450
 3932W        W 7451   0.139   2.584  11.788
 3933W        W 7452   0.798   6.180   9.376
 3934W        W 7453   3.346   2.668   3.302
 3935W        W 7454   7.130   1.558  10.262
 3936W        W 7455   7.878   9.662   9.889
 3937W        W 7456   5.618   0.384  11.279
 3938W        W 7457   3.669   5.432   1.758
 3939W        W 7458   7.704   3.386  11.808
 3940W        W 7459   4.044   0.162   2.763
 3941W        W 7460   9.611   2.931   9.680
 3942W        W 7461   3.673   7.596   9.934
 3943W        W 7462   2.922   2.701   2.325
 3944W        W 7463   5.626   4.720  11.612
 3945W        W 7464   4.236   4.163  11.105
 3946W        W 7465   7.607   7.993  11.376
 3947W        W 7466   1.987   1.289  10.474
 3948W        W 7467   3.565   9.004   8.979
 3949W        W 7468   5.052   9.331   1.290
 3950W        W 7469   2.928   0.474   9.862
 3951W        W 7470   8.049   4.603  11.842
 3952W        W 7471   2.941   7.015   8.683
 3953W        W 7472   9.528   4.207  10.784
 3954W        W 7473   5.476   0.302  11.775
 3955W        W 7474   9.373   7.047   3.094
 3956W        W 7475   6.519   1.667  10.623
 3957W        W 7476   2.719   4.701   0.547
 3958W        W 7477   3.503   3.194   1.651
 3959W        W 7478   4.743   9.257   3.474
 3960W        W 7479   4.852   5.177   9.925
 3961W        W 7480   1.973   6.195  10.417
 3962W        W 7481   7.257   2.928   1.574
 3963W        W 7482   2.121   6.590   2.738
 3964W        W 7483   0.531   4.019   3.401
 3965W        W 7484   5.399   6.226   9.876
 3966W        W 7485   4.683   9.076   2.259
 3967W        W 7486   0.061   5.092   9.201
 3968W        W 7487   4.447   3.300   9.219
 3969W        W 7488   4.648   7.547   9.006
 3970W        W 7489   5.949   9.134   1.769
 3971W        W 7490   7.624   3.837   0.070
 3972W        W 7491   9.593   5.598   2.851
 3973W        W 7492   6.957   6.406   1.801
 3974W        W 7493   5.420   6.100   0.003
 3975W        W 7494   4.243   9.862   0.104
 3976W        W 7495   9.061   9.968   3.026
 3977W        W 7496   7.766   4.077   0.634
 3978W        W 7497   4.511   1.486   2.112
 3979W        W 7498   6.155   1.216   0.425
 3980W        W 7499   9.285   7.881   0.519
 3981W        W 7500   9.414   8.633   2.323
 3982W        W 7501   0.643   9.357   1.311
 3983W        W 7502   2.814   6.533   0.382
 3984W        W 7503   8.722   4.204   2.198
 3985W        W 7504   3.713   7.835   1.572
 3986W        W 7505   2.522   9.408   1.886
 3987W        W 7506   2.740   2.767   2.852
 3988W        W 7507   6.172   4.564   3.610
 3989W        W 7508   9.707   2.589   2.291
 3990W        W 7509   7.837   5.111   0.531
 3991W        W 7510   5.235   3.871   1.574
 3992W        W 7511   1.370   0.270  10.244
 3993W        W 7512   8.213   8.390   2.787
 3994W        W 7513   4.963   7.404   2.777
 3995W        W 7514   3.824   2.800   3.500
 3996W        W 7515   9.848   5.117  11.716
 3997W        W 7516   6.026   5.473  10.888
 3998W        W 7517   3.917   2.775   9.993
 3999W        W 7518   0.278   2.585   9.229
 4000W        W 7519   6.327   6.102   3.277
 4001W        W 7520   7.057   7.348   2.994
 4002W        W 7521   1.466   6.902   1.613
 4003W        W 7522   2.353   4.609  11.194
 4004W        W 7523   0.363   2.833   0.187
 4005W        W 7524   3.601   3.116   1.163
 4006W        W 7525   8.424   7.572   0.346
 4007W        W 7526   4.978   5.147   9.167
 4008W        W 7527   4.353   4.462   3.638
 4009W        W 7528   1.457   5.688   3.584
 4010W        W 7529   8.478   2.334   1.985
 4011W        W 7530   4.490   7.417   0.681
 4012W        W 7531   5.531   8.037   0.803
 4013W        W 7532   1.935   4.790   0.900
 4014W        W 7533   7.447   8.085   2.431
 4015W        W 7534   4.834   9.052   9.450
 4016W        W 7535   7.596   5.626  10.740
 4017W        W 7536   9.356   4.193   1.472
 4018W        W 7537   4.104   1.681   8.930
 4019W        W 7538   6.995   2.407   8.708
 4020W        W 7539   8.846   2.151   2.282
 4021W        W 7540   7.003   8.008   1.160
 4022W        W 7541   3.108   9.786   0.288
 4023W        W 7542   8.095   4.545   3.097
 4024W        W 7543   3.189   3.407  10.536
 4025W        W 7544   3.154   7.176  11.044
 4026W        W 7545   7.403   6.255  11.810
 4027W        W 7546   0.889   5.638  11.346
 4028W        W 7547   4.287   2.724  11.506
 4029W        W 7548   8.493   8.722  10.219
 4030W        W 7549   6.868   8.806   2.270
 4031W        W 7550   0.248   7.415   1.841
 4032W        W 7551   5.011   9.060   1.743
 4033W        W 7552   3.604   0.261  10.543
 4034W        W 7553   7.065   5.796   9.408
 4035W        W 7554   2.270   6.863   1.174
 4036W        W 7555   7.169   6.480   2.525
 4037W        W 7556   4.362   1.616   1.239
 4038W        W 7557   4.185   8.729   1.521
 4039W        W 7558   1.832   7.458   9.233
 4040W        W 7559   4.194   5.778   0.522
 4041W        W 7560   7.148   0.603   3.533
 4042W        W 7561   5.778   8.589   9.257
 4043W        W 7562   5.079   9.538  11.408
 4044W        W 7563   6.432   6.937  11.763
 4045W        W 7564   1.797   9.393   1.891
 4046W        W 7565   9.416   2.292   9.231
 4047W        W 7566   2.522   4.914   1.457
 4048W        W 7567   8.519   0.424  10.031
 4049W        W 7568   0.828   9.864   2.706
 4050W        W 7569   8.826   2.658  10.049
 4051W        W 7570   5.977   0.033   1.391
 4052W        W 7571   5.451   3.135  11.147
 4053W        W 7572   8.593   5.002   0.974
 4054W        W 7573   5.708   9.997   0.492
 4055W        W 7574   3.069   2.819   8.716
 4056W        W 7575   7.143   0.010   2.715
 4057W        W 7576   0.218   5.076   0.629
 4058W        W 7577   6.553   1.636   2.366
 4059W        W 7578   1.173   3.778  10.511
 4060W        W 7579   2.277   3.337   9.055
 4061W        W 7580   4.111   5.739   9.060
 4062W        W 7581   2.067   8.764   9.715
 4063W        W 7582   6.659   6.485   4.033
 4064W        W 7583   6.662   9.952  11.940
 4065W        W 7584   0.654   0.450  10.819
 4066W        W 7585   7.119   2.363   2.298
 4067W        W 7586   2.635   7.725  11.751
 4068W        W 7587   6.868   0.418  10.955
 4069W        W 7588   6.269   1.727  11.175
 4070W        W 7589   7.041   4.181   2.880
 4071W        W 7590   1.773   4.400  10.314
 4072W        W 7591   7.959   1.138   0.827
 4073W        W 7592   4.099   5.035   9.304
 4074W        W 7593   5.157   1.897   2.885
 4075W        W 7594   0.789   2.185   0.551
 4076W        W 7595   3.917   0.343   1.211
 4077W        W 7596   7.453   3.917  10.107
 4078W        W 7597   6.453   6.259   0.846
 4079W        W 7598   6.442   8.500  10.001
 4080W        W 7599   5.717   5.459   9.924
 4081W        W 7600   0.926   0.240   3.093
 4082W        W 7601   8.618   1.753   2.535
 4083W        W 7602   2.370   6.117  11.190
 4084W        W 7603   4.236   9.916  11.535
 4085W        W 7604   2.396   8.846   3.267
 4086W        W 7605   6.531   4.651   8.260
 4087W        W 7606   6.772   5.903   1.859
 4088W        W 7607   8.005   4.174   0.161
 4089W        W 7608   7.854   6.736   3.521
 4090W        W 7609   9.240   0.873   1.071
 4091W        W 7610   0.873   0.801   3.167
 4092W        W 7611   7.328   8.402   1.088
 4093W        W 7612   9.561   0.924  11.352
 4094W        W 7613   6.954   8.059  10.763
 4095W        W 7614   7.416   2.782   2.033
 4096W        W 7615   6.415   2.570   1.402
 4097W        W 7616   3.324   1.286   2.600
 4098W        W 7617   6.301   2.490  11.346
 4099W        W 7618   7.116   0.541   2.688
 4100W        W 7619   4.218   4.531   9.074
 4101W        W 7620   8.801   9.999  11.914
 4102W        W 7621   3.225   1.772  10.423
 4103W        W 7622   3.690   8.486  11.002
 4104W        W 7623   2.969   5.923   1.858
 4105W        W 7624   3.313   5.036   1.635
 4106W        W 7625   7.510   0.370   3.803
 4107W        W 7626   2.565   3.975  10.232
 4108W        W 7627   6.141   9.706   0.831
 4109W        W 7628   4.089   1.326   3.004
 4110W        W 7629   3.656   3.793   3.018
 4111W        W 7630   9.824   2.973   3.452
 4112W        W 7631   5.392   0.425   9.666
 4113W        W 7632   9.574   5.771   1.609
 4114W        W 7633   7.612   7.511   0.770
 4115W        W 7634   6.712   7.605   2.732
 4116W        W 7635   9.309   6.693   1.612
 4117W        W 7636   1.345   1.210   1.508
 4118W        W 7637   2.343   4.087   8.571
 4119W        W 7638   4.156   0.842   9.516
 4120W        W 7639   3.084   0.272   0.456
 4121W        W 7640   4.453   1.296   8.988
 4122W        W 7641   9.385   6.188   9.710
 4123W        W 7642   8.967   2.298   1.059
 4124W        W 7643   1.283   3.435   0.056
 4125W        W 7644   0.724   3.721   0.231
 4126W        W 7645   4.572   3.360  10.760
 4127W        W 7646   7.232   8.464  11.396
 4128W        W 7647   3.762   3.533   4.125
 4129W        W 7648   6.146   5.742  11.702
 4130W        W 7649   5.406   1.214   0.050
 4131W        W 7650   6.635   4.539   9.535
 4132W        W 7651   0.945   6.968   0.879
 4133W        W 7652   3.600   8.421   3.313
 4134W        W 7653   7.145   3.464   1.719
 4135W        W 7654   6.092   6.709  11.452
 4136W        W 7655   5.180   2.808   3.319
 4137W        W 7656   6.217   7.030  10.584
 4138W        W 7657   8.717   3.943   8.965
 4139W        W 7658   0.681   8.918   2.846
 4140W        W 7659   6.223   4.112   3.351
 4141W        W 7660   5.226   3.693   9.155
 4142W        W 7661   1.150   1.479   0.629
 4143W        W 7662   6.198   1.981   2.633
 4144W        W 7663   8.882   2.921   9.156
 4145W        W 7664   2.835   4.720   0.037
 4146W        W 7665   6.024   4.780  10.008
 4147W        W 7666   1.400   0.383   3.187
 4148W        W 7667   6.065   6.622   1.765
 4149W        W 7668   5.407   6.529  10.296
 4150W        W 7669   8.279   1.271   9.586
 4151W        W 7670   5.651   5.435   1.052
 4152W        W 7671   5.212   6.509   8.223
 4153W        W 7672   7.666   7.334   9.493
 4154W        W 7673   1.634   8.882   0.220
 4155W        W 7674   7.378   6.364  10.812
 4156W        W 7675   8.104   8.413  11.898
 4157W        W 7676   0.729   0.805   2.246
 4158W        W 7677   5.952   6.894   2.185
 4159W        W 7678   8.524   8.931   1.657
 4160W        W 7679   2.169   0.361   2.782
 4161W        W 7680   1.304   7.952   3.643
 4162W        W 7681   5.486   6.554   8.646
 4163W        W 7682   9.317   7.410  10.377
 4164W        W 7683   0.128   6.017  10.920
 4165W        W 7684   2.652   1.554   3.228
 4166W        W 7685   2.888   4.822   2.425
 4167W        W 7686   4.814   5.224   3.464
 4168W        W 7687   4.812   6.024   9.826
 4169W        W 7688   3.196   0.823  10.378
 4170W        W 7689   0.379   3.336   0.222
 4171W        W 7690   9.850   7.005  10.903
 4172W        W 7691   5.359   4.853   2.266
 4173W        W 7692   4.676   1.823  11.342
 4174W        W 7693   5.867   1.326   9.455
 4175W        W 7694   6.379   0.283  10.776
 4176W        W 7695   2.826   1.948   2.929
 4177W        W 7696   7.001   1.030   2.615
 4178W        W 7697   3.834   3.671  10.815
 4179W        W 7698   2.154   8.090   8.628
 4180W        W 7699   5.914   8.230   2.201
 4181W        W 7700   6.976   9.248   8.348
 4182W        W 7701   3.292   6.711   2.158
 4183W        W 7702   9.800   5.617  10.830
 4184W        W 7703   2.843   3.813  11.636
 4185W        W 7704   8.836   1.755  10.425
 4186W        W 7705   9.340   2.603  10.022
 4187W        W 7706   3.728   4.501   9.872
 4188W        W 7707   2.659   5.131   0.270
 4189W        W 7708   6.350   9.648   9.518
 4190W        W 7709   4.534   8.715  11.493
 4191W        W 7710   8.549   8.461   0.853
 4192W        W 7711   5.967   0.435  11.660
 4193W        W 7712   9.722   3.673  10.108
 4194W        W 7713   6.098   1.566   0.838
 4195W        W 7714   8.980   7.809   8.685
 4196W        W 7715   2.286   9.454  11.364
 4197W        W 7716   0.373   4.572   2.655
 4198W        W 7717   0.729   1.957   1.582
 4199W        W 7718   5.913   6.934  11.015
 4200W        W 7719   6.988   2.008  10.038
 4201W        W 7720   8.354   1.492   1.539
 4202W        W 7721   2.119   6.763   9.587
 4203W        W 7722   1.220   0.796   9.052
 4204W        W 7723   2.262   1.785   9.235
 4205W        W 7724   2.515   7.385   2.889
 4206W        W 7725   2.308   6.721   0.279
 4207W        W 7726   0.127   0.463   9.593
 4208W        W 7727   3.617   1.514   2.960
 4209W        W 7728   8.878   9.714   1.149
 4210W        W 7729   4.448   5.945  11.837
 4211W        W 7730   8.797   5.455   2.535
 4212W        W 7731   1.473   2.636   9.838
 4213W        W 7732   9.697   0.598   1.704
 4214W        W 7733   7.999   3.527   3.826
 4215W        W 7734   6.634   8.035   2.013
 4216W        W 7735   0.452   0.199   2.907
 4217W        W 7736   5.573   2.185   9.212
 4218W        W 7737   1.529   3.698   2.365
 4219W        W 7738   5.240   2.394   8.826
 4220W        W 7739   6.467   7.892  10.491
 4221W        W 7740   7.411   7.529  11.213
 4222W        W 7741   3.459   7.113   8.576
 4223W        W 7742   6.752   0.796  11.907
 4224W        W 7743   5.279   5.661  11.640
 4225W        W 7744   3.377   4.123   0.751
 4226W        W 7745   4.245   8.515  10.224
 4227W        W 7746   8.965   0.247  10.512
 4228W        W 7747   4.225   5.447   3.817
 4229W        W 7748   6.033   6.233   9.333
 4230W        W 7749   7.615   5.897   9.848
 4231W        W 7750   1.770   4.781   3.664
 4232W        W 7751   8.211   9.863   1.956
 4233W        W 7752   7.170   4.374   1.291
 4234W        W 7753   5.671   3.783   4.039
 4235W        W 7754   9.927   5.703   2.464
 4236W        W 7755   5.568   3.072  10.479
 4237W        W 7756   6.418   7.643  11.450
 4238W        W 7757   1.049   3.798   2.509
 4239W        W 7758   8.231   8.286  10.142
 4240W        W 7759   0.808   3.356   2.388
 4241W        W 7760   3.927   9.292   8.700
 4242W        W 7761   0.261   2.516   1.406
 4243W        W 7762   8.664   9.303   9.336
 4244W        W 7763   3.149   4.169   1.251
 4245W        W 7764   1.163   1.195   2.970
 4246W        W 7765   9.073   0.978  11.869
 4247W        W 7766   3.207   1.737   3.210
 4248W        W 7767   5.690   0.956   0.386
 4249W        W 7768   8.042   3.559  10.955
 4250W        W 7769   0.851   6.167   8.837
 4251W        W 7770   2.786   7.034   1.626
 4252W        W 7771   4.375   4.758   2.301
 4253W        W 7772   5.950   0.329   0.165
 4254W        W 7773   2.715   5.151   9.779
 4255W        W 7774   0.779   2.404   2.021
 4256W        W 7775   6.240   3.175   9.628
 4257W        W 7776   1.230   1.325  10.919
 4258W        W 7777   3.070   9.537   9.482
 4259W        W 7778   8.897   4.402   3.527
 4260W        W 7779   4.679   7.146  11.373
 4261W        W 7780   8.962   7.750   0.925
 4262W        W 7781   1.252   2.252   9.595
 4263W        W 7782   3.149   3.286  10.044
 4264W        W 7783   1.099   5.757  11.947
 4265W        W 7784   4.168   8.431   0.170
 4266W        W 7785   0.016   9.117   9.010
 4267W        W 7786   6.208   1.697   9.354
 4268W        W 7787   4.690   1.780   3.293
 4269W        W 7788   7.633   0.274  11.056
 4270W        W 7789   0.929   4.333  11.221
 4271W        W 7790   5.013   3.776   1.135
 4272W        W 7791   6.717   6.015   8.471
 4273W        W 7792   4.767   3.077   2.774
 4274W        W 7793   7.822   1.494   2.272
 4275W        W 7794   6.502   4.211   1.154
 4276W        W 7795   2.389   6.676  10.476
 4277W        W 7796   2.137   8.302   0.875
 4278W        W 7797   8.090   8.373   2.274
 4279W        W 7798   1.644   3.223   3.128
 4280W        W 7799   0.891   8.393   0.379
 4281W        W 7800   5.411   1.723   1.438
 4282W        W 7801   8.992   6.108  10.070
 4283W        W 7802   2.964   6.240  11.729
 4284W        W 7803   2.859   9.736  11.816
 4285W        W 7804   4.232   6.732   9.260
 4286W        W 7805   0.903   2.068   9.260
 4287W        W 7806   9.320   0.993   2.389
 4288W        W 7807   8.073   0.009   1.444
 4289W        W 7808   8.379   2.747   0.012
 4290W        W 7809   6.028   8.020   2.648
 4291W        W 7810   4.667   6.674   9.030
 4292W        W 7811   5.979   0.813   9.426
 4293W        W 7812   7.352   9.390  10.272
 4294W        W 7813   1.023   4.261   2.178
 4295W        W 7814   7.351   4.396   2.549
 4296W        W 7815   9.211   9.286   3.035
 4297W        W 7816   1.644   5.564   3.120
 4298W        W 7817   6.904   9.985  11.448
 4299W        W 7818   2.768   9.090  10.130
 4300W        W 7819   5.033   5.963   2.945
 4301W        W 7820   3.845   3.698   3.492
 4302W        W 7821   1.887   0.205   2.133
 4303W        W 7822   5.612   3.087   2.080
 4304W        W 7823   7.812   0.281   9.523
 4305W        W 7824   9.280   1.637   8.979
 4306W        W 7825   1.816   5.215  10.309
 4307W        W 7826   5.267   7.364   8.978
 4308W        W 7827   9.785   7.511   1.531
 4309W        W 7828   3.961   7.409   2.875
 4310W        W 7829   5.507   4.791   9.970
 4311W        W 7830   3.961   0.851   2.224
 4312W        W 7831   7.065   3.962   8.501
 4313W        W 7832   9.962   5.962   9.974
 4314W        W 7833   5.062   9.140   8.639
 4315W        W 7834   3.252   1.662   9.540
 4316W        W 7835   6.786   2.369   0.429
 4317W        W 7836   9.619   9.616   3.097
 4318W        W 7837   5.607   0.853   1.266
 4319W        W 7838   3.454   6.553   1.292
 4320W        W 7839   4.670   0.404   0.805
 4321W        W 7840   1.875   0.539   1.747
 4322W        W 7841   0.674   5.527   8.476
 4323W        W 7842   5.945   7.653  11.624
 4324W        W 7843   1.949   6.909   1.771
 4325W        W 7844   3.721   0.047   3.202
 4326W        W 7845   8.487   6.010  10.228
 4327W        W 7846   9.047   0.284   9.986
 4328W        W 7847   1.718   2.757   0.611
 4329W        W 7848   7.045   7.483   0.279
 4330W        W 7849   4.947   3.979   8.208
 4331W        W 7850   1.391   7.959   2.253
 4332W        W 7851   5.152   6.398   1.706
 4333W        W 7852   9.223   1.780   1.554
 4334W        W 7853   8.490   5.746   9.319
 4335W        W 7854   8.512   4.123  11.317
 4336W        W 7855   2.594   5.586  10.026
 4337W        W 7856   6.533   0.792  11.067
 4338W        W 7857   2.281   9.863   9.060
 4339W        W 7858   6.598   4.148  10.665
 4340W        W 7859   4.654   3.893   2.408
 4341W        W 7860   2.506   1.479   0.147
 4342W        W 7861   0.111   9.528   2.232
 4343W        W 7862   0.565   5.428   0.778
 4344W        W 7863   2.857   0.492   3.492
 4345W        W 7864   8.405   1.566   0.048
 4346W        W 7865   0.324   3.251  10.758
 4347W        W 7866   2.244   4.488   3.665
 4348W        W 7867   9.423   8.856  11.636
 4349W        W 7868   5.479   2.539  10.415
 4350W        W 7869   7.949   0.411   0.306
 4351W        W 7870   2.460   9.521   3.173
 4352W        W 7871   3.618   2.970   9.300
 4353W        W 7872   8.126   9.588  10.709
 4354W        W 7873   9.912   5.739  11.310
 4355W        W 7874   6.891   5.745  11.880
 4356W        W 7875   7.756   4.719  10.321
 4357W        W 7876   1.114   0.087   3.560
 4358W        W 7877   6.631   3.513  11.924
 4359W        W 7878   6.995   5.452  10.425
 4360W        W 7879   8.096   4.703   8.673
 4361W        W 7880   9.912   8.940  11.812
 4362W        W 7881   4.354   1.039   1.929
 4363W        W 7882   3.302   9.728   1.743
 4364W        W 7883   3.290   8.809  10.195
 4365W        W 7884   6.092   3.313   1.901
 4366W        W 7885   7.681   7.328   8.968
 4367W        W 7886   4.305   2.589   0.921
 4368W        W 7887   9.443   3.301   3.431
 4369W        W 7888   7.694   9.543   9.112
 4370W        W 7889   2.067   4.171   3.288
 4371W        W 7890   4.154   4.747   1.306
 4372W        W 7891   6.000   5.655   8.564
 4373W        W 7892   0.723   4.861   3.421
 4374W        W 7893   7.030   4.476   8.349
 4375W        W 7894   0.413   1.124   1.515
 4376W        W 7895   9.757   3.769  10.608
 4377W        W 7896   7.427   7.080   1.285
 4378W        W 7897   3.333   4.683  11.129
 4379W        W 7898   5.424   0.345   1.220
 4380W        W 7899   2.438   4.708  10.710
 4381W        W 7900   4.634   6.677   0.231
 4382W        W 7901   9.503   6.363   2.175
 4383W        W 7902   8.102   0.340  11.328
 4384W        W 7903   7.842   7.979  11.894
 4385W        W 7904   6.609   2.498  11.764
 4386W        W 7905   9.315   7.891   3.298
 4387W        W 7906   9.314   4.695   9.452
 4388W        W 7907   4.721   4.835   0.453
 4389W        W 7908   2.902   4.836   4.160
 4390W        W 7909   2.435   3.086   3.107
 4391W        W 7910   4.383   6.537   1.033
 4392W        W 7911   4.279   1.530   3.462
 4393W        W 7912   7.197   3.795   2.324
 4394W        W 7913   0.031   5.067  10.183
 4395W        W 7914   8.567   7.632   9.355
 4396W        W 7915   5.075   0.796   9.492
 4397W        W 7916   3.617   4.221  11.781
 4398W        W 7917   9.354   4.215   3.345
 4399W        W 7918   2.728   7.214  11.764
 4400W        W 7919   3.222   3.758   8.870
 4401W        W 7920   2.860   3.942   2.164
 4402W        W 7921   1.732   1.260  10.955
 4403W        W 7922   3.079   0.540   0.879
 4404W        W 7923   8.472   1.865  10.784
 4405W        W 7924   0.400   4.534  11.919
 4406W        W 7925   3.043   6.263   1.449
 4407W        W 7926   6.703   0.802   9.108
 4408W        W 7927   8.477   6.222   9.743
 4409W        W 7928   6.105   7.153  10.071
 4410W        W 7929   5.664   5.765   2.297
 4411W        W 7930   5.282   2.993   0.960
 4412W        W 7931   7.872   8.966  11.312
 4413W        W 7932   0.357   8.395   2.107
 4414W        W 7933   0.986   5.483   0.401
 4415W        W 7934   7.559   0.724   9.431
 4416W        W 7935   8.187   3.202   3.080
 4417W        W 7936   0.883   7.023   2.293
 4418W        W 7937   0.335   8.164  11.274
 4419W        W 7938   7.364   3.947   3.245
 4420W        W 7939   8.051   6.885  10.488
 4421W        W 7940   9.782   0.734   1.008
 4422W        W 7941   8.562   6.624   1.861
 4423W        W 7942   8.599   9.742  10.608
 4424W        W 7943   0.371   9.216  11.839
 4425W        W 7944   6.596   6.134   2.814
 4426W        W 7945   3.207   3.255   9.057
 4427W        W 7946   9.062   4.546   2.380
 4428W        W 7947   3.970   4.276   1.758
 4429W        W 7948   2.630   7.381   8.460
 4430W        W 7949   6.408   2.479  10.039
 4431W        W 7950   9.340   0.547   2.070
 4432W        W 7951   4.637   0.706  11.709
 4433W        W 7952   0.830   6.150  11.357
 4434W        W 7953   1.376   3.517  10.107
 4435W        W 7954   6.371   1.345   9.731
 4436W        W 7955   6.498   5.293  10.959
 4437W        W 7956   2.955   7.907   8.524
 4438W        W 7957   7.564   9.365  11.254
 4439W        W 7958   9.384   6.536  11.836
 4440W        W 7959   8.209   6.405   2.166
 4441W        W 7960   7.015   8.342   3.135
 4442W        W 7961   8.232   9.459   3.206
 4443W        W 7962   8.047   6.997   9.386
 4444W        W 7963   4.637   9.977   1.588
 4445W        W 7964   9.772   0.317  11.002
 4446W        W 7965   5.676   6.402   3.713
 4447W        W 7966   5.431   0.561   3.517
 4448W        W 7967   4.587   7.179   0.232
 4449W        W 7968   7.754   1.165   9.657
 4450W        W 7969   4.895   1.302   1.822
 4451W        W 7970   5.437   1.499   8.739
 4452W        W 7971   4.044   5.179   1.008
 4453W        W 7972   9.261   8.791   2.811
 4454W        W 7973   8.084   9.697   0.098
 4455W        W 7974   6.769   7.550  10.720
 4456W        W 7975   2.412   9.472   1.217
 4457W        W 7976   7.439   0.362   0.584
 4458W        W 7977   5.968   2.779   3.189
 4459W        W 7978   8.641   6.559   2.371
 4460W        W 7979   3.958   6.800  11.599
 4461W        W 7980   6.585   0.864   0.387
 4462W        W 7981   3.121   5.153  10.380
 4463W        W 7982   7.390   9.191   3.353
 4464W        W 7983   4.523   5.872  10.986
 4465W        W 7984   4.259   8.107   2.250
 4466W        W 7985   3.079   9.751   3.580
 4467W        W 7986   4.062   7.139  11.975
 4468W        W 7987   0.880   0.652   9.507
 4469W        W 7988   2.548   9.099   2.853
 4470W        W 7989   4.476   7.394  11.789
 4471W        W 7990   7.366   2.808  10.088
 4472W        W 7991   5.201   2.776   2.118
 4473W        W 7992   2.736   9.987   9.991
 4474W        W 7993   8.511   9.771   1.542
 4475W        W 7994   0.973   9.742   3.220
 4476W        W 7995   2.362   9.634  11.843
 4477W        W 7996   1.766   9.704   9.716
 4478W        W 7997   4.557   9.314   1.823
 4479W        W 7998   5.656   4.852  10.885
 4480W        W 7999   2.419   1.200  11.720
 4481W        W 8000   4.746   2.854   2.320
 4482W        W 8001   8.690   6.118   1.975
 4483W        W 8002   0.895   5.184   0.002
 4484W        W 8003   9.030   8.601   9.005
 4485W        W 8004   4.447   2.447   2.303
 4486W        W 8005   2.398   6.958   8.702
 4487W        W 8006   3.963   7.130   9.070
 4488W        W 8007   1.764   0.374   0.340
 4489W        W 8008   3.594   9.843   9.470
 4490W        W 8009   5.126   3.638   2.219
 4491W        W 8010   9.377   4.688   1.442
 4492W        W 8011   6.958   7.769   9.774
 4493W        W 8012   3.675   7.002   2.985
 4494W        W 8013   5.752   3.619   0.757
 4495W        W 8014   4.287   6.362   8.309
 4496W        W 8015   6.066   8.646  11.901
 4497W        W 8016   0.199   9.676   1.259
 4498W        W 8017   7.253   7.289   8.681
 4499W        W 8018   0.479   8.396   0.061
 4500W        W 8019   8.994   3.078   2.185
 4501W        W 8020   2.170   7.844   9.668
 4502W        W 8021   9.167   1.776   2.072
 4503W        W 8022   9.329   4.992   2.311
 4504W        W 8023   9.855   5.596  10.332
 4505W        W 8024   2.429   0.717   3.010
 4506W        W 8025   5.530   6.641  10.801
 4507W        W 8026   7.986   7.566   8.641
 4508W        W 8027   1.816   2.696  11.190
 4509W        W 8028   6.280   3.680   2.258
 4510W        W 8029   1.612   7.945   0.606
 4511W        W 8030   6.081   4.701   2.601
 4512W        W 8031   5.954   2.356   1.368
 4513W        W 8032   2.147   1.982   0.851
 4514W        W 8033   6.173   5.220   8.831
 4515W        W 8034   6.783   6.037   9.748
 4516W        W 8035   4.745   2.637  10.958
 4517W        W 8036   8.452   3.017   0.886
 4518W        W 8037   3.025   7.971   9.091
 4519W        W 8038   9.390   7.205   9.756
 4520W        W 8039   8.588   4.568  10.579
 4521W        W 8040   6.042   6.541  10.648
 4522W        W 8041   1.729   7.982   9.962
 4523W        W 8042   4.615   4.068   1.071
 4524W        W 8043   5.931   1.548   9.917
 4525W        W 8044   8.965   2.304   0.022
 4526W        W 8045   9.348   4.877   9.976
 4527W        W 8046   2.541   6.564   0.823
 4528W        W 8047   3.066   0.094   1.479
 4529W        W 8048   4.186   0.575   1.838
 4530W        W 8049   9.156   9.765   0.219
 4531W        W 8050   2.322   4.052   9.563
 4532W        W 8051   6.648   2.215   9.657
 4533W        W 8052   8.462   2.375   0.955
 4534W        W 8053   0.270   2.335  10.975
 4535W        W 8054   0.514   8.862   1.419
 4536W        W 8055   6.709   8.472   2.726
 4537W        W 8056   8.468   3.329   9.509
 4538W        W 8057   6.703   2.846  11.423
 4539W        W 8058   2.910   7.527   9.334
 4540W        W 8059   9.709   9.018   2.491
 4541W        W 8060   4.408   7.215   9.366
 4542W        W 8061   8.047   9.777   9.415
 4543W        W 8062   3.714   7.281   9.498
 4544W        W 8063   6.453   5.409   1.087
 4545W        W 8064   5.894   3.940   0.276
 4546W        W 8065   9.515   0.875   0.121
 4547W        W 8066   8.444   8.850   2.146
 4548W        W 8067   4.169   9.268   1.473
 4549W        W 8068   9.678   8.171   0.348
 4550W        W 8069   2.148   0.837   2.588
 4551W        W 8070   9.999   6.855   1.017
 4552W        W 8071   6.070   0.477   2.013
 4553W        W 8072   6.199   9.458   8.631
 4554W        W 8073   0.014   4.180   9.273
 4555W        W 8074   0.423   6.169   0.244
 4556W        W 8075   6.130   7.482   3.107
 4557W        W 8076   0.553   1.334   8.642
 4558W        W 8077   3.113   5.630  10.162
 4559W        W 8078   5.537   2.193   3.123
 4560W        W 8079   2.051   9.129   1.070
 4561W        W 8080   0.330   8.277  10.771
 4562W        W 8081   3.338   8.070   1.892
 4563W        W 8082   0.796   0.548   2.700
 4564W        W 8083   4.272   6.495   0.541
 4565W        W 8084   0.656   1.274   3.202
 4566W        W 8085   0.569   0.667   1.667
 4567W        W 8086   7.383   2.753   3.003
 4568W        W 8087   3.405   1.565   3.654
 4569W        W 8088   7.955   2.828  11.666
 4570W        W 8089   7.333   4.393  11.411
 4571W        W 8090   4.238   0.425  11.415
 4572W        W 8091   0.097   2.783   2.650
 4573W        W 8092   3.400   9.948   0.692
 4574W        W 8093   0.020   7.596   0.073
 4575W        W 8094   5.390   6.138   2.088
 4576W        W 8095   3.033   7.242   3.482
 4577W        W 8096   7.166   5.757   1.040
 4578W        W 8097   3.326   5.952  11.034
 4579W        W 8098   4.619   0.294   1.979
 4580W        W 8099   7.586   6.620   0.118
 4581W        W 8100   6.814   0.661   1.746
 4582W        W 8101   2.715   4.955   1.962
 4583W        W 8102   8.298   4.106   9.282
 4584W        W 8103   3.770   0.649   9.821
 4585W        W 8104   3.409   5.129   2.902
 4586W        W 8105   7.019   4.337   8.853
 4587W        W 8106   5.764   7.034   9.276
 4588W        W 8107   5.013   0.386   9.126
 4589W        W 8108   9.959   5.453   1.444
 4590W        W 8109   4.731   8.018   2.360
 4591W        W 8110   6.475   8.905   0.696
 4592W        W 8111   1.978   9.514   8.486
 4593W        W 8112   9.688   0.430   8.362
 4594W        W 8113   3.241   2.870  10.691
 4595W        W 8114   4.451   3.053   1.204
 4596W        W 8115   2.745   4.560   8.987
 4597W        W 8116   2.696   4.217  11.367
 4598W        W 8117   8.855   0.526   0.021
 4599W        W 8118   8.109   4.823   1.132
 4600W        W 8119   2.006   8.870  10.227
 4601W        W 8120   9.765   9.836   1.498
 4602W        W 8121   0.388   6.124   2.188
 4603W        W 8122   0.535   2.098  10.581
 4604W        W 8123   4.609   4.323   3.212
 4605W        W 8124   8.384   7.064   1.525
 4606W        W 8125   4.038   2.320   1.297
 4607W        W 8126   7.552   0.167   3.349
 4608W        W 8127   6.015   2.040   0.025
 4609W        W 8128   3.384   8.729   2.962
 4610W        W 8129   3.695   9.881  10.908
 4611W        W 8130   3.640   6.838  10.654
 4612W        W 8131   7.110   6.510  11.428
 4613W        W 8132   9.071   5.166   0.692
 4614W        W 8133   5.246   7.585  11.169
 4615W        W 8134   1.406   4.500  11.282
 4616W        W 8135   3.726   6.386  11.434
 4617W        W 8136   3.827   5.831   3.708
 4618W        W 8137   6.251   0.892   3.564
 4619W        W 8138   5.695   2.715   0.752
 4620W        W 8139   1.998   1.268  11.419
 4621W        W 8140   3.302   8.537   0.013
 4622W        W 8141   9.514   4.231   9.412
 4623W        W 8142   0.053   5.683   1.897
 4624W        W 8143   2.474   3.365  11.088
 4625W        W 8144   6.864   5.040  10.744
 4626W        W 8145   2.313   7.191   1.556
 4627W        W 8146   4.650   9.147   8.963
 4628W        W 8147   0.426   7.595   9.684
 4629W        W 8148   9.562   6.381  10.151
 4630W        W 8149   6.738   0.260   8.999
 4631W        W 8150   1.673   4.582   3.206
 4632W        W 8151   0.138   6.585   3.540
 4633W        W 8152   5.920   2.460   0.285
 4634W        W 8153   9.551   8.015   1.489
 4635W        W 8154   3.771   2.809  10.729
 4636W        W 8155   4.252   6.153  10.649
 4637W        W 8156   6.783   3.881   8.939
 4638W        W 8157   0.927   7.950   2.617
 4639W        W 8158   1.828   4.101   2.431
 4640W        W 8159   5.976   1.174  11.779
 4641W        W 8160   6.482   3.487  10.009
 4642W        W 8161   3.265   6.473   3.569
 4643W        W 8162   7.581   4.144   1.103
 4644W        W 8163   0.754   6.625   2.664
 4645W        W 8164   8.571   8.425   2.416
 4646W        W 8165   5.780   7.457  11.177
 4647W        W 8166   5.663   9.504   0.660
 4648W        W 8167   0.027   4.883   0.164
 4649W        W 8168   7.927   6.899   0.355
 4650W        W 8169   1.089   1.293   8.664
 4651W        W 8170   3.270   1.700  11.610
 4652W        W 8171   6.520   8.829  10.964
 4653W        W 8172   8.549   4.475   0.927
 4654W        W 8173   3.216   3.332   8.543
 4655W        W 8174   2.080   6.589   2.191
 4656W        W 8175   8.107   2.360  11.440
 4657W        W 8176   5.465   6.698   1.467
 4658W        W 8177   3.213   2.310  10.034
 4659W        W 8178   0.186   0.636   1.994
 4660W        W 8179   5.203   8.093  11.070
 4661W        W 8180   1.853   6.088   9.924
 4662W        W 8181   7.827   9.894  10.387
 4663W        W 8182   6.495   4.879   9.893
 4664W        W 8183   0.867   6.466   0.471
 4665W        W 8184   2.038   7.620   1.502
 4666W        W 8185   4.189   6.308   3.521
 4667W        W 8186   5.869   6.919   3.589
 4668W        W 8187   9.671   6.662  11.298
 4669W        W 8188   6.519   3.103   9.211
 4670W        W 8189   2.033   3.664   2.254
 4671W        W 8190   7.037   0.307   2.265
 4672W        W 8191   4.760   9.893  11.576
 4673W        W 8192   4.463   6.871  11.782
 4674W        W 8193   4.806   7.423  10.933
 4675W        W 8194   0.398   1.948   2.322
 4676W        W 8195   7.460   4.227   2.099
 4677W        W 8196   0.398   6.395  10.632
 4678W        W 8197   9.022   8.160  11.275
 4679W        W 8198   3.874   9.020  10.982
 4680W        W 8199   1.836   4.042   9.317
 4681W        W 8200   0.814   4.010   0.652
 4682W        W 8201   9.240   8.912  10.628
 4683W        W 8202   0.200   7.602   2.332
 4684W        W 8203   0.758   2.947   2.703
 4685W        W 8204   7.600   9.582   3.667
 4686W        W 8205   4.769   2.743   1.816
 4687W        W 8206   8.186   4.894  10.542
 4688W        W 8207   0.347   2.181   1.827
 4689W        W 8208   3.076   6.154   8.989
 4690W        W 8209   3.995   3.758   0.360
 4691W        W 8210   4.012   7.085   8.546
 4692W        W 8211   5.106   9.450   9.599
 4693W        W 8212   0.656   2.588  11.867
 4694W        W 8213   6.075   7.805   0.112
 4695W        W 8214   4.203   4.001   8.847
 4696W        W 8215   0.520   2.122   3.327
 4697W        W 8216   3.349   9.807  11.792
 4698W        W 8217   2.892   5.188   2.815
 4699W        W 8218   3.057   1.255   9.331
 4700W        W 8219   8.905   7.164  10.968
 4701W        W 8220   8.413   0.281   1.761
 4702W        W 8221   4.636   2.486   9.552
 4703W        W 8222   9.366   9.070   2.049
 4704W        W 8223   5.550   2.839   9.990
 4705W        W 8224   9.582   8.209   2.543
 4706W        W 8225   8.964   9.299   1.865
 4707W        W 8226   8.777   1.165   1.377
 4708W        W 8227   9.010   3.104   3.247
 4709W        W 8228   7.440   6.591   2.936
 4710W        W 8229   4.535   9.570  11.248
 4711W        W 8230   9.753   0.417   0.019
 4712W        W 8231   4.715   4.380   2.266
 4713W        W 8232   6.851   3.623   0.391
 4714W        W 8233   4.324   4.812   3.119
 4715W        W 8234   4.720   5.695   1.073
 4716W        W 8235   7.621   7.995   0.940
 4717W        W 8236   6.945   8.982   2.739
 4718W        W 8237   5.853   0.292  10.821
 4719W        W 8238   1.760   0.106   0.790
 4720W        W 8239   3.383   1.477   0.677
 4721W        W 8240   4.005   7.614  11.806
 4722W        W 8241   3.838   8.911   9.399
 4723W        W 8242   2.633   1.614  10.169
 4724W        W 8243   6.220   8.621   9.553
 4725W        W 8244   0.981   3.670  11.023
 4726W        W 8245   1.890   7.462  10.776
 4727W        W 8246   7.906   8.213   3.154
 4728W        W 8247   7.873   1.021   8.905
 4729W        W 8248   8.477   5.919   8.813
 4730W        W 8249   3.372   1.186  11.781
 4731W        W 8250   6.992   1.122   3.510
 4732W        W 8251   6.700   0.716   2.309
 4733W        W 8252   1.021   2.165   3.590
 4734W        W 8253   4.098   4.817  10.563
 4735W        W 8254   8.051   4.928   1.638
 4736W        W 8255   5.473   0.676   9.207
 4737W        W 8256   7.917   0.277   2.016
 4738W        W 8257   2.136   5.111   8.608
 4739W        W 8258   0.733   8.875  11.976
 4740W        W 8259   1.004   4.990  11.094
 4741W        W 8260   3.948   9.367   0.583
 4742W        W 8261   7.120   6.043   0.221
 4743W        W 8262   4.763   9.856   0.101
 4744W        W 8263   3.224   9.910  11.312
 4745W        W 8264   3.325   4.580  11.990
 4746W        W 8265   5.065   2.384   3.053
 4747W        W 8266   6.193   1.922   2.119
 4748W        W 8267   9.811   4.012   3.132
 4749W        W 8268   1.378   7.452   3.419
 4750W        W 8269   9.888   2.033   0.508
 4751W        W 8270   8.095   8.207   0.886
 4752W        W 8271   9.957   3.126  11.434
 4753W        W 8272   4.944   3.214   8.595
 4754W        W 8273   8.295   0.049   3.437
 4755W        W 8274   5.555   3.947   8.845
 4756W        W 8275   0.836   1.721   0.288
 4757W        W 8276   9.454   0.875   0.620
 4758W        W 8277   3.742   6.543   0.429
 4759W        W 8278   4.894   5.623  10.167
 4760W        W 8279   8.464   5.982  11.248
 4761W        W 8280   4.979   4.788  10.215
 4762W        W 8281   9.950   0.262  10.026
 4763W        W 8282   1.300   5.513   1.307
 4764W        W 8283   8.810   7.316   1.258
 4765W        W 8284   1.872   9.348   0.097
 4766W        W 8285   4.823   0.009   2.765
 4767W        W 8286   6.407   2.640   0.205
 4768W        W 8287   0.856   9.068   1.714
 4769W        W 8288   6.303   2.212   0.502
 4770W        W 8289   2.027   9.914   1.221
 4771W        W 8290   9.926   2.159   0.006
 4772W        W 8291   6.669   0.177   2.624
 4773W        W 8292   7.613   5.152   1.538
 4774W        W 8293   1.650   1.169   0.731
 4775W        W 8294   0.964   9.258  11.619
 4776W        W 8295   9.472   5.857  10.089
 4777W        W 8296   1.729   0.658   0.840
 4778W        W 8297   7.028   8.228   3.663
 4779W        W 8298   0.771   3.708   9.331
 4780W        W 8299   5.029   3.455  10.046
 4781W        W 8300   8.518   7.454   3.232
 4782W        W 8301   8.706   0.202   1.358
 4783W        W 8302   5.956   2.326   1.872
 4784W        W 8303   7.205   9.416   2.329
 4785W        W 8304   4.080   6.715   2.320
 4786W        W 8305   0.253   0.941   2.463
 4787W        W 8306   3.132   2.329   0.326
 4788W        W 8307   0.642   3.790   9.821
 4789W        W 8308   5.995   4.597   0.834
 4790W        W 8309   6.809   9.449   1.373
 4791W        W 8310   3.403   7.421   3.152
 4792W        W 8311   8.524   4.840  11.866
 4793W        W 8312   4.064   6.553  10.103
 4794W        W 8313   2.031   2.975   3.398
 4795W        W 8314   0.826   0.496  10.323
 4796W        W 8315   2.321   1.928   2.079
 4797W        W 8316   7.573   3.358  10.072
 4798W        W 8317   8.489   4.126  10.799
 4799W        W 8318   9.896   7.229   2.440
 4800W        W 8319   8.502   8.963   0.655
 4801W        W 8320   7.653   9.004   9.997
 4802W        W 8321   8.497   0.746   2.166
 4803W        W 8322   1.200   1.953   2.570
 4804W        W 8323   8.993   3.598  11.449
 4805W        W 8324   9.880   4.598   1.736
 4806W        W 8325   1.935   4.543   4.086
 4807W        W 8326   0.503   1.638   1.905
 4808W        W 8327   9.111   2.623   1.548
 4809W        W 8328   8.742   1.923   0.809
 4810W        W 8329   6.610   6.306   8.049
 4811W        W 8330   4.697   0.816   0.201
 4812W        W 8331   5.904   0.896  10.897
 4813W        W 8332   3.916   7.945   1.104
 4814W        W 8333   1.641   1.675   0.629
 4815W        W 8334   5.898   7.951   8.910
 4816W        W 8335   0.683   1.059   2.730
 4817W        W 8336   8.990   0.616   0.690
 4818W        W 8337   0.368   9.505   3.567
 4819W        W 8338   6.296   1.166   9.203
 4820W        W 8339   2.535   6.396   2.119
 4821W        W 8340   8.527   4.234   9.750
 4822W        W 8341   2.587   2.310   2.670
 4823W        W 8342   5.235   9.045   3.503
 4824W        W 8343   1.624   6.613   9.228
 4825W        W 8344   5.172   1.568   0.961
 4826W        W 8345   8.359   6.226   9.236
 4827W        W 8346   0.309   3.086   9.141
 4828W        W 8347   7.420   9.934   2.285
 4829W        W 8348   4.873   0.146  10.942
 4830W        W 8349   4.007   7.580   0.739
 4831W        W 8350   5.660   1.989   8.760
 4832W        W 8351   3.552   2.143   1.313
 4833W        W 8352   8.077   6.721   0.814
 4834W        W 8353   5.790   1.926   9.603
 4835W        W 8354   3.666   1.066   9.563
 4836W        W 8355   4.759   8.911  11.946
 4837W        W 8356   3.185   3.362   0.606
 4838W        W 8357   4.765   4.424   1.713
 4839W        W 8358   2.921   4.748   9.986
 4840W        W 8359   5.678   8.808  10.566
 4841W        W 8360   4.904   4.884   1.554
 4842W        W 8361   9.566   1.242   9.145
 4843W        W 8362   2.291   9.479   2.599
 4844W        W 8363   9.349   2.775   8.987
 4845W        W 8364   6.447   3.815  11.530
 4846W        W 8365   9.296   7.709   1.815
 4847W        W 8366   7.479   8.590   3.195
 4848W        W 8367   8.976   2.295   0.528
 4849W        W 8368   6.142   6.218  11.537
 4850W        W 8369   0.688   7.792   1.025
 4851W        W 8370   0.371   7.127   0.239
 4852W        W 8371   6.426   2.035  11.556
 4853W        W 8372   1.269   0.977   1.017
 4854W        W 8373   8.945   0.369   1.796
 4855W        W 8374   5.266   2.980   8.250
 4856W        W 8375   9.347   5.977   8.725
 4857W        W 8376   9.542   9.019   1.564
 4858W        W 8377   1.365   8.793   8.996
 4859W        W 8378   8.016   3.669  11.449
 4860W        W 8379   3.412   6.016  11.595
 4861W        W 8380   3.596   5.513   2.257
 4862W        W 8381   1.023   7.449  11.179
 4863W        W 8382   4.410   9.156   0.651
 4864W        W 8383   0.658   0.010  11.211
 4865W        W 8384   1.618   6.770  11.491
 4866W        W 8385   1.776   0.343   1.248
 4867W        W 8386   3.962   6.787  11.073
 4868W        W 8387   2.290   9.170   9.905
 4869W        W 8388   7.102   7.182  10.960
 4870W        W 8389   1.383   5.831   0.353
 4871W        W 8390   8.220   6.538   2.694
 4872W        W 8391   7.102   2.386  10.353
 4873W        W 8392   1.262   1.686   3.019
 4874W        W 8393   4.006   2.860   1.432
 4875W        W 8394   2.789   2.058  10.370
 4876W        W 8395   2.701   7.261   2.416
 4877W        W 8396   2.827   9.912   3.154
 4878W        W 8397   3.510   1.185   2.142
 4879W        W 8398   5.014   5.288  11.374
 4880W        W 8399   5.014   6.547   1.176
 4881W        W 8400   8.639   9.696   3.569
 4882W        W 8401   0.435   8.968   3.331
 4883W        W 8402   1.684   8.452  10.179
 4884W        W 8403   8.105   1.143  11.915
 4885W        W 8404   0.138   5.301   2.234
 4886W        W 8405   3.748   2.301   9.945
 4887W        W 8406   7.569   4.380  10.968
 4888W        W 8407   6.563   0.494   0.765
 4889W        W 8408   4.074   9.526  11.007
 4890W        W 8409   8.430   2.221   0.225
 4891W        W 8410   4.598   0.925  11.247
 4892W        W 8411   7.690   1.842   9.046
 4893W        W 8412   5.487   6.070   2.688
 4894W        W 8413   5.812   4.328  10.055
 4895W        W 8414   4.388   6.686  11.329
 4896W        W 8415   9.983   7.336   0.543
 4897W        W 8416   6.450   0.367   0.272
 4898W        W 8417   9.001   9.373   9.721
 4899W        W 8418   5.586   1.484  11.628
 4900W        W 8419   9.827   4.307   3.545
 4901W        W 8420   6.958   5.629   3.586
 4902W        W 8421   5.121   2.554  11.747
 4903W        W 8422   1.411   5.513   1.823
 4904W        W 8423   6.922   6.146  11.076
 4905W        W 8424   2.244   4.881   0.496
 4906W        W 8425   5.217   3.805   9.667
 4907W        W 8426   9.799   8.969  10.311
 4908W        W 8427   6.589   6.534  11.492
 4909W        W 8428   2.870   0.237   8.870
 4910W        W 8429   1.863   4.251   0.029
 4911W        W 8430   0.981   0.573  11.192
 4912W        W 8431   3.000   2.639   9.620
 4913W        W 8432   6.887   3.387   1.283
 4914W        W 8433   7.246   8.523  10.361
 4915W        W 8434   8.405   1.947   9.761
 4916W        W 8435   7.275   7.611   9.097
 4917W        W 8436   1.287   8.077   9.692
 4918W        W 8437   1.375   5.046  10.005
 4919W        W 8438   2.190   1.275   9.012
 4920W        W 8439   0.216   2.751   0.948
 4921W        W 8440   0.187   8.042   3.239
 4922W        W 8441   1.967   5.554   3.526
 4923W        W 8442   3.421   9.078  11.234
 4924W        W 8443   9.045   5.586   9.967
 4925W        W 8444   0.923   9.369   2.862
 4926W        W 8445   5.111   6.428   9.072
 4927W        W 8446   9.938   8.566   2.364
 4928W        W 8447   4.381   7.340   3.639
 4929W        W 8448   2.796   8.195   0.660
 4930W        W 8449   5.630   7.668   3.280
 4931W        W 8450   0.751   8.549   3.217
 4932W        W 8451   4.805   1.351   2.525
 4933W        W 8452   3.783   5.090   2.517
 4934W        W 8453   8.967   8.766   0.504
 4935W        W 8454   2.911   5.552   0.418
 4936W        W 8455   8.475   9.422   1.906
 4937W        W 8456   3.713   7.203   0.910
 4938W        W 8457   7.665   8.448   0.683
 4939W        W 8458   4.203   8.075  11.785
 4940W        W 8459   0.464   2.174   9.001
 4941W        W 8460   5.138   6.070   9.454
 4942W        W 8461   1.139   7.441   1.991
 4943W        W 8462   4.074   9.920   9.207
 4944W        W 8463   0.407   6.685   3.092
 4945W        W 8464   7.995   6.069  11.345
 4946W        W 8465   3.530   5.121  11.335
 4947W        W 8466   3.841   0.973   1.754
 4948W        W 8467   8.386   2.495   2.876
 4949W        W 8468   6.267   8.444   3.004
 4950W        W 8469   3.983   8.431   2.508
 4951W        W 8470   2.185   8.668   1.271
 4952W        W 8471   5.605   5.180   2.579
 4953W        W 8472   7.025   7.350   1.993
 4954W        W 8473   1.475   3.310   0.566
 4955W        W 8474   8.484   1.101  11.225
 4956W        W 8475   9.092   3.502   2.448
 4957W        W 8476   9.541   9.505   0.432
 4958W        W 8477   6.628   2.675   2.283
 4959W        W 8478   9.898   8.448   1.856
 4960W        W 8479   4.631   9.768   3.484
 4961W        W 8480   4.603   1.955   2.260
 4962W        W 8481   6.171   7.805   2.166
 4963W        W 8482   3.072   4.304  10.145
 4964W        W 8483   4.647   6.344   8.663
 4965W        W 8484   1.395   5.350  10.596
 4966W        W 8485   1.290   9.783   9.012
 4967W        W 8486   7.148   2.042   9.559
 4968W        W 8487   2.016   5.625  10.061
 4969W        W 8488   4.117   5.591  10.888
 4970W        W 8489   5.351   3.419   1.286
 4971W        W 8490   3.692   8.543   0.372
 4972W        W 8491   7.816   2.172   1.731
 4973W        W 8492   2.375   3.314  10.588
 4974W        W 8493   4.064   3.244   3.411
 4975W        W 8494   2.763   3.837   1.326
 4976W        W 8495   4.971   8.266   2.883
 4977W        W 8496   8.949   2.725  11.701
 4978W        W 8497   6.075   9.039   2.268
 4979W        W 8498   3.250   5.142  10.900
 4980W        W 8499   8.828   4.947   2.630
 4981W        W 8500   5.780   5.468  11.461
 4982W        W 8501   0.717   3.838   2.131
 4983W        W 8502   9.727   1.897  10.241
 4984W        W 8503   6.586   6.527   9.577
 4985W        W 8504   6.355   0.245  10.246
 4986W        W 8505   1.700   7.908   9.453
 4987W        W 8506   1.633   0.277  11.865
 4988W        W 8507   8.963   6.856   9.950
 4989W        W 8508   8.962   8.268  11.841
 4990W        W 8509   3.835   1.173   2.583
 4991W        W 8510   7.426   6.161   4.141
 4992W        W 8511   5.225   4.176   0.816
 4993W        W 8512   0.488   9.633   3.066
 4994W        W 8513   8.689   9.967  10.143
 4995W        W 8514   6.403   7.051   1.191
 4996W        W 8515   1.763   7.576   0.287
 4997W        W 8516   6.271   1.920   9.800
 4998W        W 8517   7.131   2.318   0.067
 4999W        W 8518   0.919   3.398  11.454
 5000W        W 8519   1.496   9.751   3.432
 5001W        W 8520   1.736   5.919   1.770
 5002W        W 8521   1.695   1.764   0.079
 5003W        W 8522   7.588   6.785   1.653
 5004W        W 8523   7.121   0.730  10.293
 5005W        W 8524   8.193   5.881   2.062
 5006W        W 8525   9.802   7.201  10.347
 5007W        W 8526   9.729   6.191   1.079
 5008W        W 8527   6.051   5.163   2.839
 5009W        W 8528   3.771   6.687   1.767
 5010W        W 8529   8.317   3.199  10.455
 5011W        W 8530   5.815   4.459  11.181
 5012W        W 8531   8.035   1.876   9.423
 5013W        W 8532   1.359   7.586  10.461
 5014W        W 8533   1.231   8.717   1.592
 5015W        W 8534   1.436   5.453   0.681
 5016W        W 8535   7.424   8.068  10.503
 5017W        W 8536   3.613   9.550  11.306
 5018W        W 8537   8.755   2.141  10.081
 5019W        W 8538   9.473   6.004   2.547
 5020W        W 8539   0.338   8.420   1.602
 5021W        W 8540   0.792   5.351   1.247
 5022W        W 8541   6.717   1.382   0.395
 5023W        W 8542   5.307   0.220   2.700
 5024W        W 8543   4.632   8.789  10.981
 5025W        W 8544   0.330   2.459   2.319
 5026W        W 8545   2.094   3.591   9.458
 5027W        W 8546   9.391   4.999   1.049
 5028W        W 8547   5.943   6.078   0.052
 5029W        W 8548   0.462   3.737   1.709
 5030W        W 8549   1.832   7.184   1.330
 5031W        W 8550   0.189   7.218   1.343
 5032W        W 8551   1.092   0.220  11.967
 5033W        W 8552   4.207   0.856   2.850
 5034W        W 8553   7.911   7.170   1.718
 5035W        W 8554   6.914   6.032   4.156
 5036W        W 8555   2.529   5.124   3.200
 5037W        W 8556   3.101   4.410   8.150
 5038W        W 8557   9.202   2.259   3.227
 5039W        W 8558   5.177   2.545   0.732
 5040W        W 8559   6.830   6.963   3.805
 5041W        W 8560   0.708   5.293  10.752
 5042W        W 8561   5.118   1.056   2.857
 5043W        W 8562   4.913   6.629   4.080
 5044W        W 8563   0.126   3.460   0.716
 5045W        W 8564   7.993   4.251  10.198
 5046W        W 8565   5.290   7.083   9.480
 5047W        W 8566   8.103   3.434   2.303
 5048W        W 8567   6.453   9.721  11.456
 5049W        W 8568   5.827   9.973   8.913
 5050W        W 8569   9.371   6.891   2.096
 5051W        W 8570   9.232   7.883   2.333
 5052W        W 8571   2.114   6.946   3.498
 5053W        W 8572   4.265   6.547   1.863
 5054W        W 8573   5.373   2.255   2.588
 5055W        W 8574   6.051   5.490   1.384
 5056W        W 8575   7.133   7.566  11.639
 5057W        W 8576   1.009   0.021   1.815
 5058W        W 8577   7.313   6.074   9.041
 5059W        W 8578   8.738   9.388   3.171
 5060W        W 8579   3.867   8.974  11.477
 5061W        W 8580   9.562   7.504   0.294
 5062W        W 8581   1.921   6.446  10.851
 5063W        W 8582   1.315   9.855  10.563
 5064W        W 8583   7.883   9.267   9.551
 5065W        W 8584   8.344   6.308   0.890
 5066W        W 8585   3.172   8.056   2.397
 5067W        W 8586   5.906   1.007  10.393
 5068W        W 8587   1.648   2.802   1.183
 5069W        W 8588   2.697   9.297   9.220
 5070W        W 8589   3.300   4.674   9.671
 5071W        W 8590   5.153   7.878   2.603
 5072W        W 8591   2.262   5.991   3.474
 5073W        W 8592   6.565   9.263  10.402
 5074W        W 8593   6.483   2.431   2.743
 5075W        W 8594   1.302   8.474   2.355
 5076W        W 8595   6.471   5.139   2.527
 5077W        W 8596   0.837   4.393   3.221
 5078W        W 8597   5.850   4.919   2.190
 5079W        W 8598   7.832   2.606   9.885
 5080W        W 8599   6.070   9.459  10.341
 5081W        W 8600   7.874   3.463  10.470
 5082W        W 8601   2.522   2.676   3.392
 5083W        W 8602   9.568   6.761   0.240
 5084W        W 8603   7.752   5.629   2.440
 5085W        W 8604   3.466   0.998   3.488
 5086W        W 8605   9.457   4.356   0.067
 5087W        W 8606   5.738   8.497   3.022
 5088W        W 8607   8.314   7.028   2.042
 5089W        W 8608   8.708   9.255   2.331
 5090W        W 8609   3.518   8.278   2.769
 5091W        W 8610   8.716   2.910   9.629
 5092W        W 8611   3.186   2.946   0.901
 5093W        W 8612   4.865   0.366   9.636
 5094W        W 8613   3.703   7.239  11.038
 5095W        W 8614   4.422   5.503  10.018
 5096W        W 8615   3.535   8.234   1.296
 5097W        W 8616   3.715   5.428   9.421
 5098W        W 8617   1.196   1.965   0.827
 5099W        W 8618   4.283   2.255   9.201
 5100W        W 8619   1.995   1.005   3.041
 5101W        W 8620   9.715   3.587  11.456
 5102W        W 8621   4.529   5.596   0.181
 5103W        W 8622   3.853   8.166  11.416
 5104W        W 8623   8.762   7.044   0.284
 5105W        W 8624   1.259   3.496   3.283
 5106W        W 8625   0.823   0.853   8.589
 5107W        W 8626   9.489   9.439   9.642
 5108W        W 8627   4.031   0.932   3.342
 5109W        W 8628   7.951   8.756   3.046
 5110W        W 8629   7.577   4.380   9.953
 5111W        W 8630   0.503   3.037   0.625
 5112W        W 8631   8.119   6.223   3.566
 5113W        W 8632   0.405   3.339   9.578
 5114W        W 8633   0.911   2.211   8.750
 5115W        W 8634   5.585   8.313   8.744
 5116W        W 8635   1.511   7.469   2.821
 5117W        W 8636   5.830   8.918   9.677
 5118W        W 8637   3.184   4.723   9.180
 5119W        W 8638   8.423   5.724   1.584
 5120W        W 8639   4.032   4.666   2.692
 5121W        W 8640   2.203   6.229   0.436
 5122W        W 8641   6.793   0.582  11.442
 5123W        W 8642   2.921   8.957   0.083
 5124W        W 8643   1.360   0.640   0.087
 5125W        W 8644   9.813   4.882   2.170
 5126W        W 8645   6.298   5.639   2.719
 5127W        W 8646   3.478   0.589   0.307
 5128W        W 8647   2.127   9.179   1.563
 5129W        W 8648   8.639   2.253   1.449
 5130W        W 8649   9.489   5.347  11.414
 5131W        W 8650   4.162   0.844   1.392
 5132W        W 8651   8.461   3.505   0.689
 5133W        W 8652   7.299   0.627   1.552
 5134W        W 8653   9.020   5.880   2.297
 5135W        W 8654   8.571   9.661   0.255
 5136W        W 8655   5.884   3.012   8.804
 5137W        W 8656   0.059   5.466   9.889
 5138W        W 8657   1.034   0.342   9.872
 5139W        W 8658   3.227   6.890   7.901
 5140W        W 8659   8.291   0.635   3.219
 5141W        W 8660   4.479   3.218   0.684
 5142W        W 8661   2.729   5.533  10.987
 5143W        W 8662   1.695   3.176  11.336
 5144W        W 8663   2.134   0.402  11.964
 5145W        W 8664   7.843   3.024   2.169
 5146W        W 8665   5.680   9.844   2.344
 5147W        W 8666   3.513   2.661   1.466
 5148W        W 8667   9.640   9.962   0.239
 5149W        W 8668   8.312   5.099   9.946
 5150W        W 8669   6.164   9.019  10.637
 5151W        W 8670   5.890   6.387  11.108
 5152W        W 8671   0.456   1.553   0.010
 5153W        W 8672   6.182   4.700   0.016
 5154W        W 8673   6.265   4.167   0.689
 5155W        W 8674   9.452   9.348   8.696
 5156W        W 8675   9.424   7.088  11.185
 5157W        W 8676   5.667   1.434   0.583
 5158W        W 8677   4.198   5.063   9.833
 5159W        W 8678   7.704   4.780   9.011
 5160W        W 8679   1.291   7.128   0.167
 5161W        W 8680   2.399   5.263   2.724
 5162W        W 8681   5.410   4.903  10.460
 5163W        W 8682   9.454   5.522   0.677
 5164W        W 8683   2.329   7.871   1.830
 5165W        W 8684   6.691   1.420   8.547
 5166W        W 8685   4.266   6.427   2.755
 5167W        W 8686   6.911   8.740  10.046
 5168W        W 8687   4.222   8.886   2.401
 5169W        W 8688   0.745   6.117  11.854
 5170W        W 8689   9.807   4.627  10.018
 5171W        W 8690   7.634   1.007   2.337
 5172W        W 8691   6.064   2.851   2.134
 5173W        W 8692   7.915   9.412  11.662
 5174W        W 8693   3.762   1.987   2.821
 5175W        W 8694   2.849   5.094  11.266
 5176W        W 8695   3.922   4.152   3.758
 5177W        W 8696   9.020   9.884   1.600
 5178W        W 8697   8.956   8.078  10.768
 5179W        W 8698   8.415   5.188   2.302
 5180W        W 8699   4.492   4.242   9.688
 5181W        W 8700   8.836   3.723   2.059
 5182W        W 8701   5.945   6.940  11.913
 5183W        W 8702   1.040   4.987   0.481
 5184W        W 8703   1.876   7.671  11.254
 5185W        W 8704   3.792   2.989   2.372
 5186W        W 8705   2.954   8.854   3.232
 5187W        W 8706   5.628   7.062   4.046
 5188W        W 8707   5.513   2.674   2.973
 5189W        W 8708   1.714   0.131   2.597
 5190W        W 8709   0.545   3.515   8.919
 5191W        W 8710   8.016   1.168   2.638
 5192W        W 8711   7.660   9.750  10.927
 5193W        W 8712   5.206   3.548   4.043
 5194W        W 8713   3.894   9.886   0.505
 5195W        W 8714   6.979   9.030   9.208
 5196W        W 8715   2.171   3.926   2.782
 5197W        W 8716   7.398   3.615   0.459
 5198W        W 8717   0.010   5.978   1.445
 5199W        W 8718   9.611   1.432   1.677
 5200W        W 8719   6.867   9.820   3.176
 5201W        W 8720   7.886   7.671   1.748
 5202W        W 8721   6.429   7.297  11.004
 5203W        W 8722   1.712   5.389   8.744
 5204W        W 8723   1.817   5.498   1.472
 5205W        W 8724   9.746   8.058   9.069
 5206W        W 8725   1.529   0.182   9.758
 5207W        W 8726   0.702   7.296   1.223
 5208W        W 8727   2.366   4.756   9.813
 5209W        W 8728   2.057   4.056   0.498
 5210W        W 8729   7.226   5.580   8.923
 5211W        W 8730   9.767   0.810  10.892
 5212W        W 8731   8.028   6.124  10.051
 5213W        W 8732   2.184   4.241  10.550
 5214W        W 8733   3.935   5.423  11.413
 5215W        W 8734   1.373   8.421   0.635
 5216W        W 8735   5.527   1.822  10.049
 5217W        W 8736   8.299   2.382  10.057
 5218W        W 8737   9.516   1.419   2.179
 5219W        W 8738   3.761   2.224   0.757
 5220W        W 8739   1.773   1.568   9.119
 5221W        W 8740   3.513   6.288   8.755
 5222W        W 8741   3.049   1.861   8.612
 5223W        W 8742   9.291   6.348  11.392
 5224W        W 8743   0.167   0.628   0.225
 5225W        W 8744   4.573   2.204   3.040
 5226W        W 8745   9.811   9.401   1.802
 5227W        W 8746   8.962   5.113  11.725
 5228W        W 8747   2.154   3.710   0.884
 5229W        W 8748   3.512   1.872  10.008
 5230W        W 8749   4.650   9.551   9.339
 5231W        W 8750   6.286   3.762   1.737
 5232W        W 8751   2.246   8.327   3.183
 5233W        W 8752   7.900   2.263   2.662
 5234W        W 8753   5.293   5.047   1.265
 5235W        W 8754   4.227   5.481   9.531
 5236W        W 8755   4.194   4.583  10.116
 5237W        W 8756   9.359   9.927   1.195
 5238W        W 8757   5.505   2.334   1.061
 5239W        W 8758   2.628   0.470  10.275
 5240W        W 8759   8.500   5.490  11.276
 5241W        W 8760   4.922   7.052  11.877
 5242W        W 8761   6.037   1.764   3.184
 5243W        W 8762   3.961   0.347   0.307
 5244W        W 8763   9.045   5.385   1.148
 5245W        W 8764   1.657   6.188  11.213
 5246W        W 8765   0.405   3.033  11.706
 5247W        W 8766   9.134   9.512   9.241
 5248W        W 8767   3.098   0.376   2.482
 5249W        W 8768   4.979   6.386   3.262
 5250W        W 8769   6.482   3.621   9.293
 5251W        W 8770   1.536   2.936   3.564
 5252W        W 8771   1.669   8.080  10.983
 5253W        W 8772   3.205   5.606  10.675
 5254W        W 8773   8.613   3.362   2.337
 5255W        W 8774   1.404   6.973   1.132
 5256W        W 8775   9.162   4.227   1.960
 5257W        W 8776   1.345   3.100   1.650
 5258W        W 8777   4.252   9.484   9.034
 5259W        W 8778   8.299   7.527   1.292
 5260W        W 8779   3.457   8.159   9.341
 5261W        W 8780   3.131   6.138   8.418
 5262W        W 8781   5.441   6.578   4.129
 5263W        W 8782   6.778   4.024  11.851
 5264W        W 8783   0.719   7.051   1.800
 5265W        W 8784   7.703   5.619   0.436
 5266W        W 8785   2.168   0.903   0.037
 5267W        W 8786   0.051   2.828  10.854
 5268W        W 8787   8.615   9.411   8.823
 5269W        W 8788   5.965   4.034   2.051
 5270W        W 8789   7.631   6.525   0.620
 5271W        W 8790   2.730   7.758   2.635
 5272W        W 8791   5.670   9.357   2.131
 5273W        W 8792   1.369   6.168  10.059
 5274W        W 8793   1.179   6.713  11.821
 5275W        W 8794   3.227   6.677   8.919
 5276W        W 8795   2.701   5.676   2.731
 5277W        W 8796   3.415   7.967   8.760
 5278W        W 8797   8.072   5.653  10.970
 5279W        W 8798   9.352   6.158   9.207
 5280W        W 8799   4.950   1.838   0.234
 5281W        W 8800   7.674   7.316   2.792
 5282W        W 8801   2.698   4.255  11.883
 5283W        W 8802   8.782   3.943   2.663
 5284W        W 8803   4.939   9.222  11.016
 5285W        W 8804   0.252   8.540   3.104
 5286W        W 8805   6.485   4.132   2.093
 5287W        W 8806   4.035   4.354  11.525
 5288W        W 8807   1.422   9.729   1.788
 5289W        W 8808   8.361   3.042   2.626
 5290W        W 8809   3.303   1.859   1.684
 5291W        W 8810   8.417   3.075   8.471
 5292W        W 8811   8.430   4.442   1.834
 5293W        W 8812   7.510   6.433   8.712
 5294W        W 8813   0.721   4.512   1.384
 5295W        W 8814   1.134   8.042  10.192
 5296W        W 8815   2.250   2.936  10.946
 5297W        W 8816   4.281   3.654  11.094
 5298W        W 8817   3.524   0.103   0.168
 5299W        W 8818   5.161   4.112  11.088
 5300W        W 8819   4.522   1.356  11.543
 5301W        W 8820   9.139   2.235   9.698
 5302W        W 8821   1.847   6.252   8.905
 5303W        W 8822   5.489   3.333   9.865
 5304W        W 8823   6.651   2.728  10.956
 5305W        W 8824   6.069   4.955   0.452
 5306W        W 8825   3.193   1.232   3.086
 5307W        W 8826   4.987   8.567   9.520
 5308W        W 8827   0.718   1.679  10.323
 5309W        W 8828   8.869   3.248   0.452
 5310W        W 8829   8.098   9.762   2.793
 5311W        W 8830   9.880   3.388  10.977
 5312W        W 8831   0.004   8.819   1.502
 5313W        W 8832   1.167   8.015  10.720
 5314W        W 8833   0.832   8.397  11.100
 5315W        W 8834   3.648   0.037   1.993
 5316W        W 8835   3.228   2.007  10.899
 5317W        W 8836   4.081   0.906   9.003
 5318W        W 8837   0.047   1.013  10.512
 5319W        W 8838   4.088   5.819  10.310
 5320W        W 8839   9.739   6.990   1.447
 5321W        W 8840   4.321   1.160   0.466
 5322W        W 8841   1.614   7.227  11.242
 5323W        W 8842   8.383   0.243   2.272
 5324W        W 8843   6.156   6.402   0.428
 5325W        W 8844   9.018   2.174   1.786
 5326W        W 8845   8.206   1.949  11.757
 5327W        W 8846   4.989   4.343  11.526
 5328W        W 8847   0.274   2.361   0.327
 5329W        W 8848   2.027   2.106   3.718
 5330W        W 8849   4.826   5.562   9.591
 5331W        W 8850   3.719   9.515   1.515
 5332W        W 8851   9.204   1.873  11.903
 5333W        W 8852   4.128   6.407   4.374
 5334W        W 8853   2.671   7.518   0.210
 5335W        W 8854   1.390   0.851  11.375
 5336W        W 8855   2.694   2.928  11.255
 5337W        W 8856   2.585   7.974   9.379
 5338W        W 8857   2.201   3.447  11.901
 5339W        W 8858   9.142   7.438   0.006
 5340W        W 8859   4.581   3.177  11.668
 5341W        W 8860   3.591   7.406   0.050
 5342W        W 8861   8.115   7.581  10.704
 5343W        W 8862   8.653   6.502  10.138
 5344W        W 8863   3.786   5.498   4.089
 5345W        W 8864   1.020   9.330   9.011
 5346W        W 8865   0.852   2.586  11.126
 5347W        W 8866   4.189   6.335  11.659
 5348W        W 8867   5.120   8.840   2.221
 5349W        W 8868   6.218   4.578   8.691
 5350W        W 8869   1.727   6.657  10.396
 5351W        W 8870   6.770   8.451   0.894
 5352W        W 8871   4.614   8.399  11.890
 5353W        W 8872   8.910   4.643   1.809
 5354W        W 8873   2.352   0.785   1.704
 5355W        W 8874   4.592   5.494   9.105
 5356W        W 8875   8.382   5.823   0.713
 5357W        W 8876   2.442   0.341  11.293
 5358W        W 8877   5.723   6.806   8.268
 5359W        W 8878   7.946   9.093   3.456
 5360W        W 8879   8.969   6.673  10.840
 5361W        W 8880   5.643   2.732  10.860
 5362W        W 8881   6.546   6.567  10.579
 5363W        W 8882   3.329   7.546  10.719
 5364W        W 8883   3.190   4.268   2.380
 5365W        W 8884   7.364   9.706   3.217
 5366W        W 8885   8.544   2.335  11.745
 5367W        W 8886   8.914   1.744   9.795
 5368W        W 8887   3.517   5.042   8.594
 5369W        W 8888   2.270   2.624   9.993
 5370W        W 8889   0.871   7.575   3.517
 5371W        W 8890   8.429   0.965   2.860
 5372W        W 8891   2.966   9.965   0.998
 5373W        W 8892   1.872   0.472  10.020
 5374W        W 8893   1.279   4.669   2.369
 5375W        W 8894   5.985   3.181  11.808
 5376W        W 8895   5.131   6.146   4.172
 5377W        W 8896   5.971   2.264   0.872
 5378W        W 8897   7.547   3.540   2.993
 5379W        W 8898   2.619   2.892   1.055
 5380W        W 8899   1.434   0.807   1.868
 5381W        W 8900   2.525   1.016   0.376
 5382W        W 8901   3.250   1.473   8.891
 5383W        W 8902   1.783   4.725   9.936
 5384W        W 8903   0.047   1.713  11.762
 5385W        W 8904   6.133   6.004  10.749
 5386W        W 8905   8.224   8.567  11.400
 5387W        W 8906   1.462   0.855  10.851
 5388W        W 8907   6.881   9.073   0.442
 5389W        W 8908   0.102   4.807  11.421
 5390W        W 8909   0.425   5.866  11.301
 5391W        W 8910   2.591   1.283   1.887
 5392W        W 8911   6.669   6.390  10.088
 5393W        W 8912   6.726   3.896   0.811
 5394W        W 8913   6.571   5.263   3.605
 5395W        W 8914   6.660   9.847  10.995
 5396W        W 8915   4.503   5.840   8.687
 5397W        W 8916   2.249   5.653   2.405
 5398W        W 8917   7.019   0.722   9.512
 5399W        W 8918   0.341   3.312   2.646
 5400W        W 8919   6.513   2.249   8.648
 5401W        W 8920   6.957   6.232   0.972
 5402W        W 8921   6.172   1.873  10.283
 5403W        W 8922   9.360   9.232   0.016
 5404W        W 8923   6.798   5.886  10.229
 5405W        W 8924   2.180   4.313  10.016
 5406W        W 8925   6.686   5.805   0.826
 5407W        W 8926   8.924   5.989  11.455
 5408W        W 8927   6.586   8.035   3.046
 5409W        W 8928   6.493   0.669   1.281
 5410W        W 8929   2.950   3.247  10.944
 5411W        W 8930   2.322   9.249  10.901
 5412W        W 8931   1.262   6.216   0.632
 5413W        W 8932   7.716   2.649   3.400
 5414W        W 8933   1.687   3.156   2.440
 5415W        W 8934   1.737   1.212   2.204
 5416W        W 8935   5.573   4.461   1.109
 5417W        W 8936   2.042   6.449  11.915
 5418W        W 8937   0.881   8.862   9.180
 5419W        W 8938   8.035   5.618   9.938
 5420W        W 8939   6.945   8.244   8.572
 5421W        W 8940   5.344   1.046  11.564
 5422W        W 8941   5.033   1.709   9.962
 5423W        W 8942   9.413   1.428   2.696
 5424W        W 8943   5.948   0.499  10.369
 5425W        W 8944   8.452   9.721   2.393
 5426W        W 8945   1.215   2.595   3.357
 5427W        W 8946   9.455   6.505  10.795
 5428W        W 8947   6.059   7.954  11.214
 5429W        W 8948   2.258   7.924   2.806
 5430W        W 8949   1.294   1.328   9.133
 5431W        W 8950   5.277   1.985   9.586
 5432W        W 8951   5.692   8.077   9.389
 5433W        W 8952   6.498   2.017   3.052
 5434W        W 8953   1.172   8.960   2.580
 5435W        W 8954   3.560   4.956   3.370
 5436W        W 8955   2.646   6.394   2.657
 5437W        W 8956   9.024   4.180   9.582
 5438W        W 8957   3.379   4.720  10.204
 5439W        W 8958   2.651   9.207   2.351
 5440W        W 8959   2.256   2.164   9.598
 5441W        W 8960   2.712   7.414   0.695
 5442W        W 8961   0.238   1.721   8.869
 5443W        W 8962   5.379   1.471   2.737
 5444W        W 8963   9.196   1.813   1.030
 5445W        W 8964   5.447   1.812   0.303
 5446W        W 8965   6.137   2.325  10.532
 5447W        W 8966   1.546   8.317   9.175
 5448W        W 8967   9.180   6.641   0.676
 5449W        W 8968   0.069   4.790   8.766
 5450W        W 8969   1.898   4.706   9.069
 5451W        W 8970   9.455   2.222   0.270
 5452W        W 8971   0.580   4.656  11.408
 5453W        W 8972   7.771   9.233   1.312
 5454W        W 8973   6.541   1.305  11.012
 5455W        W 8974   0.117   2.873   9.608
 5456W        W 8975   4.720   6.549   8.064
 5457W        W 8976   2.848   6.845  10.254
 5458W        W 8977   3.208   8.753   0.469
 5459W        W 8978   3.589   7.111   2.063
 5460W        W 8979   7.985   4.158   9.703
 5461W        W 8980   2.130   8.333   1.702
 5462W        W 8981   9.472   4.726   3.554
 5463W        W 8982   0.004   3.240   9.934
 5464W        W 8983   2.676   7.165   1.137
 5465W        W 8984   0.027   4.264   0.136
 5466W        W 8985   4.351   5.438  11.731
 5467W        W 8986   8.918   4.624  11.538
 5468W        W 8987   9.611   6.576   3.256
 5469W        W 8988   4.680   3.386   2.400
 5470W        W 8989   2.314   2.845   1.809
 5471W        W 8990   1.885   9.163   0.576
 5472W        W 8991   9.095   1.714  11.421
 5473W        W 8992   5.500   5.961   0.864
 5474W        W 8993   9.851   2.506   0.686
 5475W        W 8994   9.763   5.701   8.577
 5476W        W 8995   9.962   1.064   1.783
 5477W        W 8996   0.362   1.392  10.545
 5478W        W 8997   7.657   7.556  11.667
 5479W        W 8998   2.636   8.493   1.484
 5480W        W 8999   3.994   1.378   2.109
 5481W        W 9000   6.074   8.071  10.207
 5482W        W 9001   1.196   5.158   2.163
 5483W        W 9002   7.092   1.521   9.757
 5484W        W 9003   9.950   4.267   0.831
 5485W        W 9004   1.183   4.023  10.038
 5486W        W 9005   9.879   2.282   2.673
 5487W        W 9006   5.305   5.197   9.669
 5488W        W 9007   6.086   7.945   1.435
 5489W        W 9008   8.125   5.922   0.271
 5490W        W 9009   8.964   0.884   2.037
 5491W        W 9010   4.137   8.857   9.800
 5492W        W 9011   9.501   8.391   3.683
 5493W        W 9012   9.823   1.302  11.990
 5494W        W 9013   2.054   6.484   0.871
 5495W        W 9014   5.524   4.472   8.932
 5496W        W 9015   5.101   0.167  10.041
 5497W        W 9016   9.476   3.610   2.120
 5498W        W 9017   0.895   5.633   1.785
 5499W        W 9018   9.035   7.479   3.111
 5500W        W 9019   5.740   1.821  11.245
 5501W        W 9020   0.793   2.448   1.511
 5502W        W 9021   6.165   5.741   9.589
 5503W        W 9022   5.936   1.543   8.962
 5504W        W 9023   9.843   0.857   2.774
 5505W        W 9024   6.370   3.591   8.809
 5506W        W 9025   9.341   4.338   3.868
 5507W        W 9026   8.910   7.982   9.192
 5508W        W 9027   7.082   0.959   0.291
 5509W        W 9028   3.785   9.455   3.163
 5510W        W 9029   9.953   8.144   8.599
 5511W        W 9030   1.091   7.481   2.496
 5512W        W 9031   5.192   1.935   3.386
 5513W        W 9032   8.412   7.022   3.471
 5514W        W 9033   3.145   4.390  11.544
 5515W        W 9034   4.509   3.840   0.199
 5516W        W 9035   7.464   1.325   1.958
 5517W        W 9036   0.356   5.253   8.802
 5518W        W 9037   7.388   5.689  11.989
 5519W        W 9038   9.022   0.419  11.015
 5520W        W 9039   9.008   5.811   1.455
 5521W        W 9040   3.484   1.934   0.394
 5522W        W 9041   8.351   7.091   0.548
 5523W        W 9042   4.179   7.931  10.483
 5524W        W 9043   0.020   2.210   9.965
 5525W        W 9044   8.168   0.566  10.869
 5526W        W 9045   5.225   8.717   0.745
 5527W        W 9046   7.097   1.644   0.757
 5528W        W 9047   7.872   1.133   1.689
 5529W        W 9048   6.388   4.639  10.364
 5530W        W 9049   6.928   6.282   9.313
 5531W        W 9050   0.180   7.322  10.649
 5532W        W 9051   4.130   7.338   1.462
 5533W        W 9052   9.663   2.842  10.545
 5534W        W 9053   9.800   5.177   3.698
 5535W        W 9054   9.492   5.198  10.913
 5536W        W 9055   5.296   4.476  11.915
 5537W        W 9056   8.370   9.813  11.666
 5538W        W 9057   5.250   9.743   0.825
 5539W        W 9058   0.374   9.962   8.945
 5540W        W 9059   3.753   9.738   8.482
 5541W        W 9060   6.621   4.227   8.555
 5542W        W 9061   1.522   9.399   8.762
 5543W        W 9062   6.013   5.156  11.825
 5544W        W 9063   7.746   1.592  11.177
 5545W        W 9064   7.566   5.376   9.707
 5546W        W 9065   3.471   2.527  11.424
 5547W        W 9066   7.806   8.453   1.226
 5548W        W 9067   6.159   4.161   2.515
 5549W        W 9068   4.104   7.042   1.909
 5550W        W 9069   9.342   3.881   9.822
 5551W        W 9070   5.343   0.269  10.867
 5552W        W 9071   6.664   4.662   2.194
 5553W        W 9072   6.026   8.549   2.567
 5554W        W 9073   2.400   5.747   0.440
 5555W        W 9074   5.796   4.328  11.903
 5556W        W 9075   4.189   0.862  10.074
 5557W        W 9076   3.610   4.659   2.969
 5558W        W 9077   7.297   0.862   9.008
 5559W        W 9078   5.319   8.959   9.608
 5560W        W 9079   1.378   9.895   2.961
 5561W        W 9080   0.121   4.537   9.638
 5562W        W 9081   3.817   6.533   8.416
 5563W        W 9082   2.261   5.198  10.032
 5564W        W 9083   4.342   6.075   1.291
 5565W        W 9084   3.208   7.885   1.421
 5566W        W 9085   6.443   6.311   1.877
 5567W        W 9086   2.440   4.863   0.964
 5568W        W 9087   8.809   5.372   1.624
 5569W        W 9088   7.149   9.728   1.125
 5570W        W 9089   2.382   2.310  10.585
 5571W        W 9090   7.485   8.634   9.038
 5572W        W 9091   2.911   3.139  11.928
 5573W        W 9092   4.392   4.851   0.830
 5574W        W 9093   6.460   0.391  11.768
 5575W        W 9094   3.907   8.521   1.105
 5576W        W 9095   2.476   5.484   3.564
 5577W        W 9096   6.479   8.955   1.986
 5578W        W 9097   1.102   1.274   3.468
 5579W        W 9098   8.681   2.822  10.517
 5580W        W 9099   3.655   4.921   1.253
 5581W        W 9100   7.311   5.199  10.892
 5582W        W 9101   7.421   3.507  11.423
 5583W        W 9102   2.265   3.345   1.829
 5584W        W 9103   3.192   3.713   1.577
 5585W        W 9104   4.376   1.116  11.952
 5586W        W 9105   7.110   7.292  10.417
 5587W        W 9106   0.882   3.468  10.144
 5588W        W 9107   7.968   7.268   3.255
 5589W        W 9108   0.883   2.029   2.975
 5590W        W 9109   4.049   9.391   0.082
 5591W        W 9110   7.647   6.441   9.907
 5592W        W 9111   8.195   5.148  11.023
 5593W        W 9112   4.475   5.373   0.778
 5594W        W 9113   7.897   2.085   9.936
 5595W        W 9114   3.182   5.411   1.962
 5596W        W 9115   4.188   0.469   3.206
 5597W        W 9116   7.682   2.122   3.540
 5598W        W 9117   8.024   0.222   3.047
 5599W        W 9118   7.310   0.311   9.694
 5600W        W 9119   8.842   3.499   1.557
 5601W        W 9120   8.391   1.234   9.065
 5602W        W 9121   4.793   5.751   0.581
 5603W        W 9122   5.763   3.722   1.679
 5604W        W 9123   9.427   3.305  10.625
 5605W        W 9124   6.482   2.609   9.011
 5606W        W 9125   1.440   7.636  10.958
 5607W        W 9126   4.806   4.859  11.126
 5608W        W 9127   4.272   9.030  11.804
 5609W        W 9128   9.404   2.842   1.964
 5610W        W 9129   5.498   5.404   1.557
 5611W        W 9130   2.745   5.694   0.880
 5612W        W 9131   1.137   2.796   9.475
 5613W        W 9132   4.615   4.996  11.581
 5614W        W 9133   5.565   9.302   2.634
 5615W        W 9134   9.017   8.654   9.914
 5616W        W 9135   3.714   1.757  11.913
 5617W        W 9136   7.009   3.890   1.255
 5618W        W 9137   4.636   8.560   3.116
 5619W        W 9138   6.605   1.163   1.267
 5620W        W 9139   5.294   8.361   9.160
 5621W        W 9140   6.087   2.809   9.257
 5622W        W 9141   9.268   6.697   9.260
 5623W        W 9142   3.053   8.460   2.091
 5624W        W 9143   7.077   1.810   2.327
 5625W        W 9144   5.690   7.037  11.477
 5626W        W 9145   5.927   8.659   1.955
 5627W        W 9146   7.605   8.884   0.954
 5628W        W 9147   6.096   8.407   3.518
 5629W        W 9148   5.919   8.481   9.936
 5630W        W 9149   1.744   3.557   9.083
 5631W        W 9150   9.097   1.770   3.071
 5632W        W 9151   1.076   1.831   3.987
 5633W        W 9152   9.036   0.812  11.373
 5634W        W 9153   0.979   3.777  11.803
 5635W        W 9154   7.283   0.363  10.624
 5636W        W 9155   2.339   8.783   1.766
 5637W        W 9156   5.828   6.061   8.814
 5638W        W 9157   1.136   9.806   2.284
 5639W        W 9158   7.309   8.147   8.953
 5640W        W 9159   4.193   7.553   8.745
 5641W        W 9160   9.053   8.943   1.450
 5642W        W 9161   0.282   5.168   1.161
 5643W        W 9162   0.503   9.809  10.061
 5644W        W 9163   5.176   3.561  11.075
 5645W        W 9164   0.834   4.316   2.673
 5646W        W 9165   1.900   2.167  10.443
 5647W        W 9166   7.092   5.111   9.805
 5648W        W 9167   1.337   7.047   3.089
 5649W        W 9168   2.753   4.536   3.771
 5650W        W 9169   5.942   3.659  10.448
 5651W        W 9170   7.384   4.752  10.648
 5652W        W 9171   7.932   3.072  10.786
 5653W        W 9172   1.336   0.853   8.554
 5654W        W 9173   6.719   8.814   9.580
 5655W        W 9174   6.711   7.717  11.862
 5656W        W 9175   3.757   2.368   3.218
 5657W        W 9176   4.049   0.339  10.132
 5658W        W 9177   2.148   2.367   1.842
 5659W        W 9178   1.720   2.269   9.418
 5660W        W 9179   4.667   5.675   3.172
 5661W        W 9180   3.071   0.856   2.228
 5662W        W 9181   6.950   9.091  10.981
 5663W        W 9182   4.908   2.854   1.317
 5664W        W 9183   1.882   6.827   3.916
 5665W        W 9184   3.346   2.506   9.235
 5666W        W 9185   5.028   9.536   0.414
 5667W        W 9186   1.352   1.775   9.808
 5668W        W 9187   4.498   4.977   8.997
 5669W        W 9188   1.637   9.970  11.381
 5670W        W 9189   0.528   4.216   0.295
 5671W        W 9190   7.287   9.318   1.397
 5672W        W 9191   9.775   2.677   9.262
 5673W        W 9192   0.839   5.857   1.320
 5674W        W 9193   1.425   9.332   0.390
 5675W        W 9194   0.139   6.396   0.796
 5676W        W 9195   9.391   8.303   3.006
 5677W        W 9196   3.839   2.944   2.974
 5678W        W 9197   1.086   6.502   1.019
 5679W        W 9198   9.309   8.199   8.801
 5680W        W 9199   3.735   2.787   1.899
 5681W        W 9200   5.433   4.151   0.294
 5682W        W 9201   7.885   8.315   8.944
 5683W        W 9202   9.418   6.688   9.746
 5684W        W 9203   1.732   1.700  10.637
 5685W        W 9204   2.926   4.791   1.124
 5686W        W 9205   0.751   7.561   1.686
 5687W        W 9206   9.557   4.459   2.398
 5688W        W 9207   3.957   4.517   3.320
 5689W        W 9208   8.072   3.718   0.445
 5690W        W 9209   5.191   7.776   0.504
 5691W        W 9210   5.273   7.776   4.325
 5692W        W 9211   5.234   3.845  10.659
 5693W        W 9212   6.254   7.294   2.121
 5694W        W 9213   7.758   0.389   1.532
 5695W        W 9214   0.854   6.166   2.429
 5696W        W 9215   6.842   4.435   0.845
 5697W        W 9216   3.385   4.550   1.513
 5698W        W 9217   9.438   0.151   1.752
 5699W        W 9218   2.736   6.021   9.788
 5700W        W 9219   2.720   4.650   3.274
 5701W        W 9220   9.702   8.874  10.810
 5702W        W 9221   0.956   5.864   9.964
 5703W        W 9222   5.142   5.683  10.640
 5704W        W 9223   5.274   5.722   9.829
 5705W        W 9224   6.690   5.717   0.336
 5706W        W 9225   1.526   4.820  10.462
 5707W        W 9226   6.915   2.590   1.831
 5708W        W 9227   1.117   9.576   1.387
 5709W        W 9228   7.536   0.487   2.377
 5710W        W 9229   1.742   8.557  11.263
 5711W        W 9230   1.379   9.527  11.373
 5712W        W 9231   7.810   0.536   9.036
 5713W        W 9232   1.864   9.570   0.889
 5714W        W 9233   6.030   5.357   2.364
 5715W        W 9234   1.927   0.884   8.469
 5716W        W 9235   1.736   1.737  11.571
 5717W        W 9236   4.294   9.460   3.234
 5718W        W 9237   2.487   1.252  10.477
 5719W        W 9238   3.175   5.229   1.195
 5720W        W 9239   5.974   9.003   2.764
 5721W        W 9240   6.640   6.229   1.394
 5722W        W 9241   1.934   3.088  10.443
 5723W        W 9242   2.260   8.978   9.280
 5724W        W 9243   5.082   9.390   9.085
 5725W        W 9244   6.160   9.849   9.988
 5726W        W 9245   7.118   6.072   2.816
 5727W        W 9246   2.894   4.624   1.614
 5728W        W 9247   5.984   5.054  11.203
 5729W        W 9248   3.216   2.843   1.891
 5730W        W 9249   0.445   6.924   8.728
 5731W        W 9250   7.141   3.986   0.203
 5732W        W 9251   5.119   6.165  11.556
 5733W        W 9252   7.134   8.496   9.426
 5734W        W 9253   9.791   9.836   9.782
 5735W        W 9254   7.580   6.342  11.295
 5736W        W 9255   1.958   0.554   3.282
 5737W        W 9256   8.784   7.589  10.708
 5738W        W 9257   3.249   6.315   0.168
 5739W        W 9258   1.239   6.005   9.132
 5740W        W 9259   5.515   9.382  11.189
 5741W        W 9260   1.555   1.389   9.569
 5742W        W 9261   0.493   6.403   8.565
 5743W        W 9262   9.518   3.995   1.031
 5744W        W 9263   3.300   6.888   1.676
 5745W        W 9264   5.232   3.126   2.907
 5746W        W 9265   5.023   0.467  10.487
 5747W        W 9266   8.272   2.678   3.348
 5748W        W 9267   3.225   6.380  11.285
 5749W        W 9268   3.127   6.043   3.223
 5750W        W 9269   4.953   3.279   9.084
 5751W        W 9270   3.646   4.015   9.567
 5752W        W 9271   7.944   1.005  11.063
 5753W        W 9272   6.962   9.481   8.836
 5754W        W 9273   6.476   0.834   9.593
 5755W        W 9274   8.889   0.797   9.948
 5756W        W 9275   6.140   7.226   9.563
 5757W        W 9276   6.217   1.507   1.341
 5758W        W 9277   8.487   3.985   0.181
 5759W        W 9278   3.521   8.023  10.827
 5760W        W 9279   3.155   6.947   3.049
 5761W        W 9280   1.320   4.182   3.245
 5762W        W 9281   1.731   4.154   2.922
 5763W        W 9282   2.735   5.507  10.491
 5764W        W 9283   1.366   7.831   1.754
 5765W        W 9284   4.647   2.249   0.124
 5766W        W 9285   7.520   1.422   0.968
 5767W        W 9286   3.534   8.393   2.265
 5768W        W 9287   5.393   0.248   2.198
 5769W        W 9288   2.679   8.241   2.504
 5770W        W 9289   7.688   6.967   8.575
 5771W        W 9290   6.808   2.214   3.419
 5772W        W 9291   1.276   8.485  11.473
 5773W        W 9292   2.571   7.610   1.418
 5774W        W 9293   2.730   8.823  10.953
 5775W        W 9294   9.607   5.855   2.094
 5776W        W 9295   5.886   1.417   2.819
 5777W        W 9296   5.877   8.424   1.479
 5778W        W 9297   0.467   6.784   1.323
 5779W        W 9298   3.928   0.222   9.584
 5780W        W 9299   4.271   6.234   2.267
 5781W        W 9300   9.960   6.398   0.242
 5782W        W 9301   4.734   8.222   9.914
 5783W        W 9302   9.046   9.433  11.052
 5784W        W 9303   2.340   3.650   9.892
 5785W        W 9304   3.355   5.484   3.333
 5786W        W 9305   4.660   8.191   9.422
 5787W        W 9306   6.809   5.149   1.309
 5788W        W 9307   4.276   5.977   9.860
 5789W        W 9308   8.354   5.318  11.774
 5790W        W 9309   5.700   8.848  11.575
 5791W        W 9310   2.767   0.944  10.112
 5792W        W 9311   9.129   6.470   8.820
 5793W        W 9312   6.684   6.234   0.398
 5794W        W 9313   6.464   1.594   3.388
 5795W        W 9314   4.213   4.778   0.356
 5796W        W 9315   7.029   8.839   3.247
 5797W        W 9316   6.490   6.043   9.330
 5798W        W 9317   4.852   2.717   3.741
 5799W        W 9318   6.627   8.055   1.503
 5800W        W 9319   0.176   4.673  10.945
 5801W        W 9320   0.300   4.176  10.019
 5802W        W 9321   4.578   1.404  11.027
 5803W        W 9322   3.552   8.575  11.513
 5804W        W 9323   5.614   2.459  11.871
 5805W        W 9324   5.628   6.430   9.103
 5806W        W 9325   5.524   3.901   1.148
 5807W        W 9326   4.885   4.148   2.812
 5808W        W 9327   0.932   0.157   0.455
 5809W        W 9328   4.515   5.986   2.714
 5810W        W 9329   4.486   3.577   1.228
 5811W        W 9330   0.899   9.470  10.072
 5812W        W 9331   9.355   9.685   2.674
 5813W        W 9332   1.411   0.673   9.900
 5814W        W 9333   3.196   9.993  10.256
 5815W        W 9334   9.471   8.449  11.274
 5816W        W 9335   7.056   3.293  10.758
 5817W        W 9336   9.848   6.119   3.395
 5818W        W 9337   8.329   1.613   2.105
 5819W        W 9338   4.213   1.542   0.148
 5820W        W 9339   3.682   7.512   8.832
 5821W        W 9340   1.273   1.678  10.313
 5822W        W 9341   9.216   3.993   2.391
 5823W        W 9342   7.275   5.285   1.187
 5824W        W 9343   5.615   2.815   3.610
 5825W        W 9344   7.137   6.743  11.892
 5826W        W 9345   2.684   9.911   9.455
 5827W        W 9346   4.618   2.608   2.755
 5828W        W 9347   6.968   3.140  11.748
 5829W        W 9348   1.839   3.744   1.294
 5830W        W 9349   0.853   6.243   3.002
 5831W        W 9350   4.139   9.058   1.943
 5832W        W 9351   6.284   9.971   9.139
 5833W        W 9352   9.736   3.770   9.463
 5834W        W 9353   2.556   8.364   1.998
 5835W        W 9354   3.988   8.980  10.247
 5836W        W 9355   4.187   6.938   2.778
 5837W        W 9356   3.116   4.162  11.060
 5838W        W 9357   0.456   3.184   1.649
 5839W        W 9358   1.765   8.111   3.916
 5840W        W 9359   1.017   2.943  10.055
 5841W        W 9360   7.051   3.179  11.243
 5842W        W 9361   0.879   5.972   0.370
 5843W        W 9362   3.142   3.822   0.397
 5844W        W 9363   0.945   1.097  11.273
 5845W        W 9364   0.883   7.024  10.846
 5846W        W 9365   6.715   7.025  11.340
 5847W        W 9366   6.544   3.326  11.440
 5848W        W 9367   3.428   2.601   2.292
 5849W        W 9368   9.031   4.456   3.009
 5850W        W 9369   8.441   7.423  11.076
 5851W        W 9370   8.243   8.865  10.948
 5852W        W 9371   0.198   8.931  10.776
 5853W        W 9372   4.715   3.492  11.282
 5854W        W 9373   3.810   7.084   9.970
 5855W        W 9374   3.783   5.910  11.245
 5856W        W 9375   5.689   5.978  11.604
 5857W        W 9376   1.235   8.846  11.847
 5858W        W 9377   1.269   1.905  11.523
 5859W        W 9378   2.853   7.108   9.759
 5860W        W 9379   4.693   4.051   3.646
 5861W        W 9380   6.034   9.501   2.492
 5862W        W 9381   8.966   4.104  11.548
 5863W        W 9382   3.475   2.700   9.755
 5864W        W 9383   7.938   3.564   3.320
 5865W        W 9384   0.918   7.733   9.637
 5866W        W 9385   4.723   1.973  10.336
 5867W        W 9386   8.697   6.725   2.847
 5868W        W 9387   3.109   0.607   1.393
 5869W        W 9388   4.629   2.868   9.956
 5870W        W 9389   5.056   0.675  10.002
 5871W        W 9390   7.411   6.797  11.103
 5872W        W 9391   4.468   8.263   1.787
 5873W        W 9392   9.884   6.661  11.780
 5874W        W 9393   1.356   1.721   8.796
 5875W        W 9394   4.196   6.623   8.764
 5876W        W 9395   9.066   3.917   3.629
 5877W        W 9396   2.771   2.640   1.780
 5878W        W 9397   0.884   2.544   2.980
 5879W        W 9398   5.990   3.226   2.934
 5880W        W 9399   6.896   6.851   8.901
 5881W        W 9400   9.849   5.965   9.448
 5882W        W 9401   7.416   8.014  10.007
 5883W        W 9402   9.966   1.996   3.725
 5884W        W 9403   0.297   7.435  10.155
 5885W        W 9404   4.627   6.216  11.353
 5886W        W 9405   4.121   3.581   0.849
 5887W        W 9406   3.083   0.412  10.636
 5888W        W 9407   6.778   1.221   9.444
 5889W        W 9408   5.333   2.385   3.563
 5890W        W 9409   5.651   4.788   0.134
 5891W        W 9410   1.814   9.979  10.174
 5892W        W 9411   5.072   4.566   2.574
 5893W        W 9412   7.324   2.667   9.062
 5894W        W 9413   2.866   0.412   2.980
 5895W        W 9414   0.212   9.002   2.351
 5896W        W 9415   7.935   6.908   1.274
 5897W        W 9416   0.820   1.389   2.216
 5898W        W 9417   0.931   8.430  11.850
 5899W        W 9418   7.290   1.183  11.511
 5900W        W 9419   9.124   6.550  10.362
 5901W        W 9420   2.652   9.717   2.290
 5902W        W 9421   2.696   3.097   2.042
 5903W        W 9422   7.154   5.642   9.907
 5904W        W 9423   3.878   4.727   0.818
 5905W        W 9424   2.404   0.622   9.814
 5906W        W 9425   0.438   0.836   9.338
 5907W        W 9426   0.879   1.227   1.315
 5908W        W 9427   3.966   9.490   9.468
 5909W        W 9428   7.522   8.172   0.266
 5910W        W 9429   2.358   5.116  11.064
 5911W        W 9430   0.133   0.622   8.153
 5912W        W 9431   9.869   2.720  10.064
 5913W        W 9432   6.493   5.476   1.739
 5914W        W 9433   5.010   1.577   9.430
 5915W        W 9434   1.331   0.460   0.576
 5916W        W 9435   9.968   1.559   9.305
 5917W        W 9436   0.583   6.552   9.051
 5918W        W 9437   5.113   4.846  11.594
 5919W        W 9438   7.196   4.858   1.490
 5920W        W 9439   6.533   8.583   8.614
 5921W        W 9440   8.144   2.361   9.563
 5922W        W 9441   1.627   7.157  10.382
 5923W        W 9442   6.270   9.444   2.029
 5924W        W 9443   3.123   8.886   8.719
 5925W        W 9444   5.566   8.042   1.303
 5926W        W 9445   5.738   4.125   0.725
 5927W        W 9446   2.786   9.550   2.769
 5928W        W 9447   1.248   5.957   1.599
 5929W        W 9448   1.850   3.291   0.926
 5930W        W 9449   8.568   6.263   2.941
 5931W        W 9450   3.426   5.259   9.972
 5932W        W 9451   8.844   6.151   9.098
 5933W        W 9452   8.135   4.581   9.193
 5934W        W 9453   8.853   2.767   0.229
 5935W        W 9454   6.311   2.102   3.508
 5936W        W 9455   0.526   5.212  10.056
 5937W        W 9456   3.920   8.793   8.651
 5938W        W 9457   5.524   5.331   2.097
 5939W        W 9458   1.703   4.257   3.640
 5940W        W 9459   9.563   6.991   0.761
 5941W        W 9460   1.353   9.482   0.928
 5942W        W 9461   7.664   5.601   0.948
 5943W        W 9462   0.915   3.312   1.395
 5944W        W 9463   9.184   9.650   3.404
 5945W        W 9464   1.318   7.019   2.580
 5946W        W 9465   2.944   4.214   2.986
 5947W        W 9466   3.562   2.960   8.764
 5948W        W 9467   5.285   1.247   1.406
 5949W        W 9468   4.480   0.228   0.353
 5950W        W 9469   2.288   5.616   3.088
 5951W        W 9470   8.941   8.319   3.236
 5952W        W 9471   6.218   9.091  11.680
 5953W        W 9472   7.170   8.656   1.887
 5954W        W 9473   1.387   4.745   1.884
 5955W        W 9474   3.205   7.068  11.907
 5956W        W 9475   5.925   2.265  10.000
 5957W        W 9476   3.055   7.403   1.389
 5958W        W 9477   1.832   6.592   0.440
 5959W        W 9478   4.199   2.175   3.388
 5960W        W 9479   1.074   0.768   1.447
 5961W        W 9480   8.290   0.656  11.996
 5962W        W 9481   4.028   5.082  11.924
 5963W        W 9482   2.664   5.710   9.323
 5964W        W 9483   4.716   4.430   0.745
 5965W        W 9484   5.724   6.275   1.598
 5966W        W 9485   7.489   0.944   2.820
 5967W        W 9486   1.632   7.357   8.741
 5968W        W 9487   1.893   9.114  11.261
 5969W        W 9488   8.479   8.015   0.580
 5970W        W 9489   3.685   6.219   3.419
 5971W        W 9490   6.708   2.845   0.586
 5972W        W 9491   5.646   2.607   2.301
 5973W        W 9492   4.398   2.753   9.110
 5974W        W 9493   6.601   8.443   3.428
 5975W        W 9494   4.123   6.639   0.078
 5976W        W 9495   3.290   5.759   8.733
 5977W        W 9496   2.641   1.808   9.619
 5978W        W 9497   0.381   2.179   2.799
 5979W        W 9498   5.119   1.933   9.040
 5980W        W 9499   1.857   7.603  10.285
 5981W        W 9500   0.018   1.620   2.147
 5982W        W 9501   3.281   9.837   8.709
 5983W        W 9502   5.877   4.150   9.595
 5984W        W 9503   1.940   6.437   3.577
 5985W        W 9504   5.332   1.541   1.901
 5986W        W 9505   4.600   1.759  11.868
 5987W        W 9506   8.568   0.870   9.389
 5988W        W 9507   0.626   9.163  10.970
 5989W        W 9508   2.749   2.175  10.946
 5990W        W 9509   9.158   4.833  10.724
 5991W        W 9510   5.006   7.875  10.651
 5992W        W 9511   9.387   5.558  10.514
 5993W        W 9512   0.716   3.097  10.454
 5994W        W 9513   5.523   1.677   9.222
 5995W        W 9514   3.212   8.641  11.105
 5996W        W 9515   1.498   4.962  10.948
 5997W        W 9516   9.725   6.139  11.837
 5998W        W 9517   4.901   7.220   3.619
 5999W        W 9518   7.955   0.447   3.548
 6000W        W 9519   3.355   4.391  10.653
 6001W        W 9520   4.474   3.008   8.660
 6002W        W 9521   6.422   9.505  11.946
 6003W        W 9522   2.713   2.274   9.845
 6004W        W 9523   3.095   7.557   2.360
 6005W        W 9524   5.090   8.551  11.761
 6006W        W 9525   9.834   8.862  11.305
 6007W        W 9526   7.622   3.981  11.319
 6008W        W 9527   4.478   4.159  10.218
 6009W        W 9528   6.991   8.267   9.876
 6010W        W 9529   9.784   3.375   1.131
 6011W        W 9530   3.733   9.762   2.771
 6012W        W 9531   8.862   3.843  10.460
 6013W        W 9532   9.950   4.825   3.378
 6014W        W 9533   4.907   9.006   3.075
 6015W        W 9534   8.977   0.330  11.530
 6016W        W 9535   2.712   2.927   9.930
 6017W        W 9536   9.068   3.015  10.894
 6018W        W 9537   9.354   2.303   2.733
 6019W        W 9538   1.424   0.989   3.727
 6020W        W 9539   0.344   8.846   1.893
 6021W        W 9540   9.338   2.238   2.225
 6022W        W 9541   3.662   0.693   8.714
 6023W        W 9542   0.430   2.669   8.746
 6024W        W 9543   8.769   0.662   1.163
 6025W        W 9544   6.186   7.105   1.667
 6026W        W 9545   6.466   2.862   1.831
 6027W        W 9546   8.272   0.501   9.592
 6028W        W 9547   7.180   9.980   0.378
 6029W        W 9548   4.934   2.279  11.296
 6030W        W 9549   4.099   5.324  10.429
 6031W        W 9550   4.953   8.061   3.898
 6032W        W 9551   8.006   6.070   2.527
 6033W        W 9552   9.765   6.660   1.844
 6034W        W 9553   7.801   8.618  10.795
 6035W        W 9554   5.661   6.246   0.450
 6036W        W 9555   5.003   1.689  10.911
 6037W        W 9556   7.091   2.856   2.414
 6038W        W 9557   9.787   4.385  11.225
 6039W        W 9558   7.974   5.761   3.458
 6040W        W 9559   6.748   6.445   2.255
 6041W        W 9560   2.643   8.164   9.860
 6042W        W 9561   4.411   5.566   1.429
 6043W        W 9562   4.349   6.570   3.922
 6044W        W 9563   3.785   1.608  10.371
 6045W        W 9564   3.052   7.158   2.036
 6046W        W 9565   2.569   7.827   8.872
 6047W        W 9566   4.677   8.476   0.837
 6048W        W 9567   2.951   1.583   0.939
 6049W        W 9568   4.053   3.235   0.398
 6050W        W 9569   3.517   2.309   1.862
 6051W        W 9570   0.280   8.612   1.039
 6052W        W 9571   1.210   7.998   0.294
 6053W        W 9572   4.520   4.510  11.424
 6054W        W 9573   2.106   2.852   0.928
 6055W        W 9574   0.012   5.893   2.942
 6056W        W 9575   0.901   4.490  10.414
 6057W        W 9576   4.970   4.224   9.496
 6058W        W 9577   3.270   8.872   1.775
 6059W        W 9578   0.356   8.139   1.202
 6060W        W 9579   2.182   5.883   1.462
 6061W        W 9580   0.984   1.582   9.452
 6062W        W 9581   1.404   2.197   8.583
 6063W        W 9582   4.480   8.688   9.344
 6064W        W 9583   5.605   3.187   3.985
 6065W        W 9584   0.829   8.724   9.657
 6066W        W 9585   0.809   8.239   9.800
 6067W        W 9586   8.782   9.044  11.686
 6068W        W 9587   0.392   3.636   3.067
 6069W        W 9588   5.022   4.027   4.221
 6070W        W 9589   5.685   2.533   8.583
 6071W        W 9590   0.543   9.824   0.467
 6072W        W 9591   2.429   1.700   1.611
 6073W        W 9592   6.488   5.612   8.734
 6074W        W 9593   0.021   4.402   2.202
 6075W        W 9594   0.321   8.102   9.731
 6076W        W 9595   6.924   3.074   1.973
 6077W        W 9596   3.064   7.922   9.634
 6078W        W 9597   8.026   0.916   0.359
 6079W        W 9598   7.080   0.225  10.155
 6080W        W 9599   5.550   3.505   2.693
 6081W        W 9600   7.904   2.823   0.727
 6082W        W 9601   2.284   6.286   9.659
 6083W        W 9602   6.726   3.069   9.802
 6084W        W 9603   5.724   3.209   1.569
 6085W        W 9604   0.530   4.347   2.225
 6086W        W 9605   6.519   7.364  10.322
 6087W        W 9606   0.239   5.039   9.677
 6088W        W 9607   9.818   2.623   0.191
 6089W        W 9608   3.726   4.966   9.655
 6090W        W 9609   7.724   2.725   1.584
 6091W        W 9610   3.375   7.904   3.363
 6092W        W 9611   9.087   1.332   1.766
 6093W        W 9612   7.963   7.368   2.191
 6094W        W 9613   9.280   1.090   9.800
 6095W        W 9614   7.945   1.828  10.761
 6096W        W 9615   5.261   2.904   9.315
 6097W        W 9616   3.161   0.392   1.906
 6098W        W 9617   1.525   0.895   3.232
 6099W        W 9618   1.333   9.352   3.183
 6100W        W 9619   5.040   3.634   2.709
 6101W        W 9620   5.704   9.911   0.000
 6102W        W 9621   1.394   1.795   2.104
 6103W        W 9622   6.682   5.500   9.767
 6104W        W 9623   3.740   1.866   3.339
 6105W        W 9624   9.827   5.238   8.757
 6106W        W 9625   2.325   2.082   3.081
 6107W        W 9626   6.635   7.582   2.234
 6108W        W 9627   2.134   8.195  11.155
 6109W        W 9628   5.976   5.869  11.207
 6110W        W 9629   8.071   8.917  11.791
 6111W        W 9630   2.773   9.864   1.824
 6112W        W 9631   0.084   7.348   9.378
 6113W        W 9632   1.961   8.523   8.889
 6114W        W 9633   3.605   1.417   1.677
 6115W        W 9634   0.210   3.813   0.305
 6116W        W 9635   2.456   4.289   3.004
 6117W        W 9636   4.786   4.481   8.353
 6118W        W 9637   1.820   6.672   1.312
 6119W        W 9638   1.498   1.335   0.278
 6120W        W 9639   8.119   2.364   1.363
 6121W        W 9640   6.119   9.034   8.938
 6122W        W 9641   6.769   3.704   2.000
 6123W        W 9642   3.791   5.470   0.670
 6124W        W 9643   5.052   9.655  10.080
 6125W        W 9644   1.497   6.228  10.599
 6126W        W 9645   4.412   8.099   3.189
 6127W        W 9646   0.441   5.069  11.128
 6128W        W 9647   7.897   9.988   3.774
 6129W        W 9648   6.936   3.617  11.519
 6130W        W 9649   6.279   4.162  11.988
 6131W        W 9650   8.050   4.322   1.018
 6132W        W 9651   5.942   1.326  11.265
 6133W        W 9652   4.789   6.419   2.802
 6134W        W 9653   5.672   8.900   1.417
 6135W        W 9654   0.412   6.645   0.412
 6136W        W 9655   1.165   6.575   2.334
 6137W        W 9656   9.624   1.860   2.399
 6138W        W 9657   7.365   6.103   0.700
 6139W        W 9658   4.012   1.085  10.552
 6140W        W 9659   0.892   5.637   9.359
 6141W        W 9660   0.016   2.036   3.148
 6142W        W 9661   0.575   5.084   9.269
 6143W        W 9662   1.732   3.279  11.857
 6144W        W 9663   5.275   5.580   9.337
 6145W        W 9664   5.984   3.747   3.622
 6146W        W 9665   8.803   5.307   3.054
 6147W        W 9666   1.873   4.539   0.450
 6148W        W 9667   2.559   8.746  11.800
 6149W        W 9668   6.564   0.230   3.116
 6150W        W 9669   7.371   3.599  10.482
 6151W        W 9670   9.402   2.780   3.239
 6152W        W 9671   8.898   3.483  10.955
 6153W        W 9672   1.691   8.081  11.495
 6154W        W 9673   7.541   0.308   2.862
 6155W        W 9674   6.489   8.711   9.126
 6156W        W 9675   1.072   9.069   1.207
 6157W        W 9676   9.796   4.351   8.787
 6158W        W 9677   8.038   6.715  11.355
 6159W        W 9678   0.403   5.017  11.801
 6160W        W 9679   1.861   4.692   2.235
 6161W        W 9680   9.945   2.872   8.810
 6162W        W 9681   0.570   0.913  10.477
 6163W        W 9682   4.514   9.767   2.034
 6164W        W 9683   6.253   1.361  10.271
 6165W        W 9684   9.320   2.659   0.049
 6166W        W 9685   1.030   9.883  11.545
 6167W        W 9686   6.431   0.293   1.630
 6168W        W 9687   6.379   5.188  10.305
 6169W        W 9688   9.534   3.641   2.659
 6170W        W 9689   6.423   2.983   3.030
 6171W        W 9690   6.981   1.148   0.774
 6172W        W 9691   6.644   6.081  10.666
 6173W        W 9692   3.084   4.698   2.876
 6174W        W 9693   2.624   9.945   0.225
 6175W        W 9694   1.972   7.837   1.031
 6176W        W 9695   1.218   9.998  11.075
 6177W        W 9696   9.351   7.450   0.784
 6178W        W 9697   3.350   0.784   2.659
 6179W        W 9698   1.884   1.046   1.703
 6180W        W 9699   7.093   3.224  10.238
 6181W        W 9700   8.931   2.614  11.202
 6182W        W 9701   4.378   0.359   1.405
 6183W        W 9702   7.059   4.158  10.341
 6184W        W 9703   5.068   8.380   2.404
 6185W        W 9704   3.490   7.387   1.653
 6186W        W 9705   0.387   6.876  10.851
 6187W        W 9706   4.958   7.351   1.881
 6188W        W 9707   1.789   6.184   9.434
 6189W        W 9708   3.026   6.424   8.001
 6190W        W 9709   0.458   0.927  10.968
 6191W        W 9710   1.941   1.678  11.115
 6192W        W 9711   9.600   9.474   2.283
 6193W        W 9712   9.638   9.405   9.168
 6194W        W 9713   9.298   3.082  11.495
 6195W        W 9714   7.287   5.131   1.914
 6196W        W 9715   3.558   3.576  10.227
 6197W        W 9716   0.758   2.163   1.081
 6198W        W 9717   8.890   5.155   2.136
 6199W        W 9718   7.593   7.241  10.807
 6200W        W 9719   3.327   5.431   3.858
 6201W        W 9720   8.648   5.353   9.021
 6202W        W 9721   4.721   6.373  11.838
 6203W        W 9722   2.034   5.032   1.358
 6204W        W 9723   4.694   9.718   8.851
 6205W        W 9724   7.067   3.650   2.844
 6206W        W 9725   4.606   0.658   9.293
 6207W        W 9726   1.353   1.098  11.848
 6208W        W 9727   7.335   0.623   8.551
 6209W        W 9728   1.872   1.325   9.987
 6210W        W 9729   8.525   9.324  10.934
 6211W        W 9730   2.221   1.739  10.446
 6212W        W 9731   8.516   7.122   9.192
 6213W        W 9732   8.480   3.617  10.710
 6214W        W 9733   2.286   9.369   8.920
 6215W        W 9734   2.692   2.436   1.274
 6216W        W 9735   1.714   3.792   3.290
 6217W        W 9736   4.689   7.830   2.855
 6218W        W 9737   5.166   8.004   1.601
 6219W        W 9738   3.371   3.054  11.729
 6220W        W 9739   5.627   1.028   2.585
 6221W        W 9740   3.715   7.848   2.988
 6222W        W 9741   1.786   6.146   2.236
 6223W        W 9742   7.730   2.105  11.155
 6224W        W 9743   4.560   0.096   9.315
 6225W        W 9744   3.594   3.380  11.371
 6226W        W 9745   8.337   8.016   3.486
 6227W        W 9746   1.454   7.874   3.153
 6228W        W 9747   3.426   7.134   9.094
 6229W        W 9748   0.873   0.310   1.411
 6230W        W 9749   5.798   5.027   9.620
 6231W        W 9750   7.991   8.818   9.072
 6232W        W 9751   5.231   4.253   8.540
 6233W        W 9752   6.181   7.290   9.051
 6234W        W 9753   3.113   2.324   1.538
 6235W        W 9754   7.214   1.456   0.290
 6236W        W 9755   2.904   6.580   1.827
 6237W        W 9756   7.921   0.659   2.806
 6238W        W 9757   4.682   5.673   3.711
 6239W        W 9758   2.239   3.076   1.356
 6240W        W 9759   5.457   3.997   2.005
 6241W        W 9760   8.476   7.537  10.322
 6242W        W 9761   7.552   7.616   3.206
 6243W        W 9762   2.637   6.042   3.093
 6244W        W 9763   4.625   0.867   9.770
 6245W        W 9764   5.224   9.821  11.810
 6246W        W 9765   0.456   7.047   9.246
 6247W        W 9766   6.490   3.701   1.262
 6248W        W 9767   6.092   5.047   3.335
 6249W        W 9768   6.597   4.033  10.176
 6250W        W 9769   5.630   8.841   2.368
 6251W        W 9770   0.709   1.728   0.809
 6252W        W 9771   2.521   0.411  10.781
 6253W        W 9772   4.875   3.283   1.028
 6254W        W 9773   0.888   4.853  10.055
 6255W        W 9774   3.141   8.419   1.586
 6256W        W 9775   0.831   3.135   9.163
 6257W        W 9776   6.169   4.518   2.138
 6258W        W 9777   5.714   0.855   8.574
 6259W        W 9778   9.380   4.382   9.896
 6260W        W 9779   1.919   0.928   3.623
 6261W        W 9780   4.721   8.749   3.560
 6262W        W 9781   9.959   8.461   0.038
 6263W        W 9782   7.608   5.825  11.553
 6264W        W 9783   2.532   1.710   0.612
 6265W        W 9784   6.972   2.926   9.365
 6266W        W 9785   9.444   8.739   3.284
 6267W        W 9786   9.939   4.304   2.716
 6268W        W 9787   0.932   8.315   3.629
 6269W        W 9788   0.463   5.736   9.983
 6270W        W 9789   4.859   7.260   9.676
 6271W        W 9790   9.428   1.391   3.221
 6272W        W 9791   2.542   4.220  10.898
 6273W        W 9792   9.493   6.083   3.041
 6274W        W 9793   4.199   2.270   9.713
 6275W        W 9794   3.523   5.056  11.941
 6276W        W 9795   3.168   6.571   2.654
 6277W        W 9796   3.511   5.956   4.123
 6278W        W 9797   0.378   8.594   9.820
 6279W        W 9798   3.145   9.416  11.510
 6280W        W 9799   4.485   3.597   3.418
 6281W        W 9800   9.237   9.431   1.400
 6282W        W 9801   8.291   1.012  10.683
 6283W        W 9802   0.351   8.704  11.669
 6284W        W 9803   3.288   6.117  10.539
 6285W        W 9804   4.077   5.097   2.058
 6286W        W 9805   7.389   5.923  11.077
 6287W        W 9806   7.862   2.818   0.201
 6288W        W 9807   7.240   9.164   1.880
 6289W        W 9808   1.859   6.952  10.819
 6290W        W 9809   4.215   1.929  10.412
 6291W        W 9810   6.451   3.213   0.323
 6292W        W 9811   8.184   9.910   0.572
 6293W        W 9812   1.735   0.880   0.318
 6294W        W 9813   9.458   1.006   1.896
 6295W        W 9814   5.504   9.627   9.245
 6296W        W 9815   4.575   7.586  10.493
 6297W        W 9816   0.421   7.893   1.952
 6298W        W 9817   5.933   6.190   2.051
 6299W        W 9818   6.628   0.669   2.843
 6300W        W 9819   2.267   9.861  10.460
 6301W        W 9820   3.167   5.514  11.278
 6302W        W 9821   7.640   2.208   9.471
 6303W        W 9822   9.654   4.146   1.882
 6304W        W 9823   3.506   8.501   8.657
 6305W        W 9824   7.296   3.551   8.732
 6306W        W 9825   8.388   5.205   1.384
 6307W        W 9826   8.149   9.756   8.895
 6308W        W 9827   1.365   3.232   1.106
 6309W        W 9828   5.576   7.511   9.361
 6310W        W 9829   7.789   3.316   0.314
 6311W        W 9830   3.167   4.064  11.950
 6312W        W 9831   6.342   5.036   2.035
 6313W        W 9832   8.279   9.350   1.238
 6314W        W 9833   8.281   8.932   9.484
 6315W        W 9834   9.885   1.311   2.535
 6316W        W 9835   7.222   3.135   9.752
 6317W        W 9836   7.941   1.015   3.151
 6318W        W 9837   1.839   9.521  11.615
 6319W        W 9838   2.125   8.306   9.878
 6320W        W 9839   5.057   4.153   8.998
 6321W        W 9840   4.231   1.569   0.752
 6322W        W 9841   2.647   5.124  11.760
 6323W        W 9842   1.670   2.173   0.554
 6324W        W 9843   0.877   4.683   1.889
 6325W        W 9844   7.414   9.480   8.510
 6326W        W 9845   9.359   1.600  10.448
 6327W        W 9846   8.274   0.480   1.296
 6328W        W 9847   1.169   2.649  11.883
 6329W        W 9848   9.012   1.915   9.321
 6330W        W 9849   1.631   2.401   3.563
 6331W        W 9850   2.697   3.466  10.195
 6332W        W 9851   3.467   5.881   1.927
 6333W        W 9852   8.932   7.803  10.258
 6334W        W 9853   6.055   2.140   8.455
 6335W        W 9854   7.263   1.791  11.087
 6336W        W 9855   6.846   9.603   2.693
 6337W        W 9856   5.583   8.386  10.872
 6338W        W 9857   2.913   1.342   0.479
 6339W        W 9858   5.152   9.695  10.929
 6340W        W 9859   0.335   8.510   8.578
 6341W        W 9860   4.316   9.700   2.761
 6342W        W 9861   3.533   9.667   2.311
 6343W        W 9862   0.197   3.811  11.423
 6344W        W 9863   8.855   6.986   2.116
 6345W        W 9864   4.170   1.297   9.763
 6346W        W 9865   7.333   6.647   3.446
 6347W        W 9866   1.286   1.927   0.329
 6348W        W 9867   6.540   9.522   9.972
 6349W        W 9868   4.921   2.208   9.886
 6350W        W 9869   4.826   6.009   9.041
 6351W        W 9870   7.468   0.437   1.087
 6352W        W 9871   8.802   0.787   3.188
 6353W        W 9872   8.087   6.663   1.691
 6354W        W 9873   1.451   9.248   9.275
 6355W        W 9874   1.729   5.757  10.442
 6356W        W 9875   6.858   6.059   3.264
 6357W        W 9876   3.047   5.297   8.492
 6358W        W 9877   6.448   3.188  10.949
 6359W        W 9878   5.487   0.206  10.379
 6360W        W 9879   1.288   3.355   2.683
 6361W        W 9880   5.121   2.026   0.672
 6362W        W 9881   3.246   6.789   0.326
 6363W        W 9882   1.702   3.809   1.869
 6364W        W 9883   0.381   5.686   1.197
 6365W        W 9884   4.674   1.052  10.246
 6366W        W 9885   7.365   5.225   0.678
 6367W        W 9886   1.069   3.642   0.995
 6368W        W 9887   3.437   8.490   0.858
 6369W        W 9888   4.359   2.626   3.578
 6370W        W 9889   2.258   0.843  10.257
 6371W        W 9890   3.098   7.970  10.541
 6372W        W 9891   9.844   8.651   0.505
 6373W        W 9892   2.835   6.709  11.889
 6374W        W 9893   6.128   0.553   9.873
 6375W        W 9894   8.765   0.877  10.865
 6376W        W 9895   8.028   2.578   1.955
 6377W        W 9896   2.533   0.150  11.765
 6378W        W 9897   9.766   2.568   1.263
 6379W        W 9898   2.907   6.926   0.731
 6380W        W 9899   2.158   1.581   3.017
 6381W        W 9900   8.975   3.432   9.632
 6382W        W 9901   0.676   6.433   3.481
 6383W        W 9902   6.061   9.200   0.751
 6384W        W 9903   6.427   9.387  10.886
 6385W        W 9904   5.253   4.005   3.758
 6386W        W 9905   9.989   2.347   8.877
 6387W        W 9906   3.988   8.310   2.999
 6388W        W 9907   0.243   6.698   2.610
 6389W        W 9908   2.177   5.344   0.172
 6390W        W 9909   4.879   6.677  11.464
 6391W        W 9910   9.997   1.354   1.327
 6392W        W 9911   7.997   3.320   0.812
 6393W        W 9912   5.538   1.226  10.112
 6394W        W 9913   8.386   5.970  10.734
 6395W        W 9914   8.590   5.013  11.382
 6396W        W 9915   7.015   6.396  10.463
 6397W        W 9916   8.092   7.720   0.836
 6398W        W 9917   4.793   4.619  11.933
 6399W        W 9918   4.030   1.322   9.287
 6400W        W 9919   7.367   2.380   1.746
 6401W        W 9920   2.441   7.853   0.822
 6402W        W 9921   5.115   2.410   9.336
 6403W        W 9922   8.046   0.883   9.359
 6404W        W 9923   7.153   0.823  11.163
 6405W        W 9924   1.728   0.582   2.830
 6406W        W 9925   0.831   1.718   3.397
 6407W        W 9926   6.578   8.586  11.832
 6408W        W 9927   9.317   9.016   9.391
 6409W        W 9928   3.016   0.203  11.968
 6410W        W 9929   1.600   6.577   1.980
 6411W        W 9930   7.548   1.623   9.486
 6412W        W 9931   1.137   5.052   2.688
 6413W        W 9932   8.646   6.676   0.632
 6414W        W 9933   2.348   2.812  10.455
 6415W        W 9934   9.170   2.905  10.401
 6416W        W 9935   0.974   6.849   1.387
 6417W        W 9936   5.798   0.859  11.416
 6418W        W 9937   3.983   0.759   0.915
 6419W        W 9938   7.384   8.904   2.312
 6420W        W 9939   3.182   9.372   0.012
 6421W        W 9940   1.587   6.296  11.718
 6422W        W 9941   3.086   3.734   9.350
 6423W        W 9942   6.906   6.654  10.971
 6424W        W 9943   2.343   2.477   0.028
 6425W        W 9944   9.800   4.647   9.230
 6426W        W 9945   2.458   8.674  10.049
 6427W        W 9946   4.506   4.365   0.282
 6428W        W 9947   1.376   3.800   2.896
 6429W        W 9948   9.362   2.094  11.155
 6430W        W 9949   5.977   2.948   0.274
 6431W        W 9950   5.661   5.829  10.788
 6432W        W 9951   0.759   3.158  10.987
 6433W        W 9952   2.751   9.671   0.639
 6434W        W 9953   8.440   4.355   8.832
 6435W        W 9954   7.619   6.084  10.383
 6436W        W 9955   0.770   8.616  10.179
 6437W        W 9956   3.239   2.687   2.778
 6438W        W 9957   9.444   0.125  11.397
 6439W        W 9958   2.700   9.427   0.196
 6440W        W 9959   8.226   1.739   8.969
 6441W        W 9960   5.927   3.159  11.003
 6442W        W 9961   9.516   5.779   0.231
 6443W        W 9962   0.002   0.461   3.220
 6444W        W 9963   7.588   1.898   2.466
 6445W        W 9964   8.149   3.201  11.940
 6446W        W 9965   1.652   8.426   9.671
 6447W        W 9966   7.980   1.591   9.831
 6448W        W 9967   1.232   5.809  10.408
 6449W        W 9968   8.411   5.498  10.259
 6450W        W 9969   8.318   5.838  11.761
 6451W        W 9970   9.638   2.373  10.362
 6452W        W 9971   4.682   0.209   3.227
 6453W        W 9972   8.633   5.605   2.063
 6454W        W 9973   8.898   0.426   2.306
 6455W        W 9974   2.897   1.874   1.373
 6456W        W 9975   1.943   3.180   0.375
 6457W        W 9976   3.247   7.438   9.705
 6458W        W 9977   2.092   2.921  11.960
 6459W        W 9978   3.971   4.321   8.138
 6460W        W 9979   5.746   1.986   3.550
 6461W        W 9980   9.557   3.139  10.151
 6462W        W 9981   8.765   1.329  11.620
 6463W        W 9982   0.410   6.212   1.213
 6464W        W 9983   1.273   7.548   0.512
 6465W        W 9984   0.967   6.236  10.510
 6466W        W 9985   8.035   4.452   1.500
 6467W        W 9986   2.449   1.197   2.859
 6468W        W 9987   0.918   1.624  11.258
 6469W        W 9988   0.061   8.215   2.742
 6470W        W 9989   1.529   4.966   0.613
 6471W        W 9990   3.488   9.319   2.705
 6472W        W 9991   7.385   2.298   2.733
 6473W        W 9992   1.525   4.278   2.061
 6474W        W 9993   3.537   7.589   1.167
 6475W        W 9994   9.173   5.050   0.212
 6476W        W 9995   6.903   0.922  10.743
 6477W        W 9996   4.308   9.818   9.675
 6478W        W 9997   3.693   1.774  10.870
 6479W        W 9998   0.742   6.702   9.498
 6480W        W 9999   6.497   9.404   9.068
 6481W        W10000   2.633   4.998  10.289
 6482W        W10001   5.726   5.786   1.789
 6483W        W10002   2.927   8.383   8.779
 6484W        W10003   4.208   7.128   0.992
 6485W        W10004   6.467   2.340   1.884
 6486W        W10005   8.260   7.999   9.148
 6487W        W10006   5.934   2.196  11.548
 6488W        W10007   8.271   4.110   2.772
 6489W        W10008   5.159   7.516   1.429
 6490W        W10009   3.100   5.706   2.357
 6491W        W10010   1.811   7.261   3.238
 6492W        W10011   9.366   9.625   1.851
 6493W        W10012   5.200   6.902   1.889
 6494W        W10013   0.153   5.386   0.040
 6495W        W10014   8.556   0.712   0.430
 6496W        W10015   0.127   5.057   1.773
 6497W        W10016   7.841   1.495   8.705
 6498W        W10017   7.164   8.161   0.663
 6499W        W10018   9.211   6.225   1.206
 6500W        W10019   0.466   8.559   3.671
 6501W        W10020   8.094   7.800  10.046
 6502W        W10021   2.359   7.486   9.352
 6503W        W10022   3.183   5.173   8.956
 6504W        W10023   6.046   7.693   9.354
 6505W        W10024   2.910   8.889  11.432
 6506W        W10025   2.935   5.143   0.738
 6507W        W10026   5.104   0.670   0.931
 6508W        W10027   2.289   3.960  11.992
 6509W        W10028   5.615   4.959   0.876
 6510W        W10029   0.936   9.493  10.605
 6511W        W10030   7.495   1.180   3.401
 6512W        W10031   2.311   4.336   9.139
 6513W        W10032   5.018   9.945  10.495
 6514W        W10033   9.870   7.701  10.276
 6515W        W10034   5.845   1.543   0.109
 6516W        W10035   4.961   2.472  10.328
 6517W        W10036   5.979   3.844   9.162
 6518W        W10037   6.796   1.075  11.434
 6519W        W10038   7.622   3.659   0.930
 6520W        W10039   6.108   0.395   2.959
 6521W        W10040   4.257   8.020   0.661
 6522W        W10041   0.032   2.991   1.384
 6523W        W10042   2.671   0.809   9.116
 6524W        W10043   2.665   5.950   2.304
 6525W        W10044   5.687   7.712   0.438
 6526W        W10045   2.593   5.575  11.993
 6527W        W10046   6.158   9.826  10.867
 6528W        W10047   7.468   8.132   3.423
 6529W        W10048   9.385   4.636   8.924
 6530W        W10049   5.469   6.961   2.325
 6531W        W10050   1.601   7.832   8.952
 6532W        W10051   7.663   5.829   8.761
 6533W        W10052   5.467   9.349  11.689
 6534W        W10053   9.386   7.897  10.502
 6535W        W10054   9.011   4.092   0.074
 6536W        W10055   1.640   8.055   8.495
 6537W        W10056   8.086   8.864   1.377
 6538W        W10057   1.431   3.931  11.966
 6539W        W10058   4.711   4.529   8.870
 6540W        W10059   2.947   8.371   9.415
 6541W        W10060   2.769   4.186   9.358
 6542W        W10061   1.463   2.546  10.820
 6543W        W10062   2.297   5.768   9.671
 6544W        W10063   1.806   4.717  11.770
 6545W        W10064   8.084   2.797  11.173
 6546W        W10065   3.884   0.920   0.308
 6547W        W10066   3.608   3.324   3.209
 6548W        W10067   9.634   7.572   9.462
 6549W        W10068   5.840   5.942   3.495
 6550W        W10069   8.503   6.773   9.646
 6551W        W10070   7.745   6.156   8.367
 6552W        W10071   2.197   0.369   0.928
 6553W        W10072   3.172   9.484  11.010
 6554W        W10073   9.794   0.859   2.249
 6555W        W10074   4.469   0.239  11.842
 6556W        W10075   3.633   9.326  11.784
 6557W        W10076   7.406   3.288   1.234
 6558W        W10077   8.562   3.988   3.574
 6559W        W10078   0.073   9.012   9.844
 6560W        W10079   4.729   6.069   8.246
 6561W        W10080   1.854   9.548   9.178
 6562W        W10081   2.803   2.685   9.133
 6563W        W10082   3.653   7.089   0.435
 6564W        W10083   5.299   5.604   2.649
 6565W        W10084   7.726   5.309  11.151
 6566W        W10085   7.471   7.108   2.045
 6567W        W10086   4.984   6.073   2.464
 6568W        W10087   7.178   3.743  11.053
 6569W        W10088   9.935   3.718   1.890
 6570W        W10089   4.583   0.551  10.190
 6571W        W10090   5.639   3.002   2.613
 6572W        W10091   2.734   2.548  10.275
 6573W        W10092   9.671   9.295  11.543
 6574W        W10093   5.314   5.449   3.537
 6575W        W10094   9.655   7.537  11.247
 6576W        W10095   6.796   5.001   1.790
 6577W        W10096   7.597   2.741   2.532
 6578W        W10097   8.785   0.442   9.588
 6579W        W10098   7.475   7.913   1.427
 6580W        W10099   2.431   8.409  10.809
 6581W        W10100   4.766   3.829  10.883
 6582W        W10101   6.444   1.197  11.996
 6583W        W10102   7.176   9.880  11.880
 6584W        W10103   3.519   5.513   8.353
 6585W        W10104   5.176   0.879   0.441
 6586W        W10105   5.137   8.097   8.599
 6587W        W10106   0.744   0.338  11.585
 6588W        W10107   4.822   6.115  10.680
 6589W        W10108   9.748   5.588   3.338
 6590W        W10109   6.068   0.583   1.012
 6591W        W10110   0.348   7.061   2.240
 6592W        W10111   4.623   3.204   0.183
 6593W        W10112   5.074   5.241   2.378
 6594W        W10113   6.333   9.310   3.290
 6595W        W10114   2.572   5.607   1.930
 6596W        W10115   1.308   2.594   1.653
 6597W        W10116   4.204   2.997  11.966
 6598W        W10117   4.749   5.713  11.489
 6599W        W10118   7.464   4.897   3.280
 6600W        W10119   6.783   2.920   1.446
 6601W        W10120   7.419   4.841   2.764
 6602W        W10121   5.483   8.179   0.322
 6603W        W10122   4.051   4.113   9.903
 6604W        W10123   4.517   9.602  10.301
 6605W        W10124   1.828   9.340  10.099
 6606W        W10125   9.583   6.274   1.562
 6607W        W10126   8.920   7.437   9.045
 6608W        W10127   2.605   4.125   1.709
 6609W        W10128   2.705   4.356   2.566
 6610W        W10129   3.358   3.850   2.039
 6611W        W10130   3.972   0.254   3.624
 6612W        W10131   5.391   5.556  11.121
 6613W        W10132   9.189   2.687   2.436
 6614W        W10133   5.611   3.806  11.235
 6615W        W10134   4.858   0.395   2.433
 6616W        W10135   5.751   1.372   1.597
 6617W        W10136   2.770   5.081  10.766
 6618W        W10137   0.313   8.457   0.543
 6619W        W10138   1.885   1.935   1.788
 6620W        W10139   7.279   2.194  11.398
 6621W        W10140   7.025   4.462   0.373
 6622W        W10141   0.747   6.653  11.483
 6623W        W10142   4.480   5.893   9.411
 6624W        W10143   1.440   9.813  11.843
 6625W        W10144   4.913   1.147   1.092
 6626W        W10145   1.645   5.758  11.876
 6627W        W10146   0.524   2.284   9.555
 6628W        W10147   8.560   0.226  10.854
 6629W        W10148   5.609   9.602   3.300
 6630W        W10149   0.834   7.416  10.022
 6631W        W10150   0.743   1.341  10.851
 6632W        W10151   4.177   2.021   0.013
 6633W        W10152   8.361   5.518   3.239
 6634W        W10153   7.359   1.400   2.515
 6635W        W10154   7.218   4.703   2.161
 6636W        W10155   4.592   4.627  10.520
 6637W        W10156   3.941   7.222   2.402
 6638W        W10157   5.373   8.480   1.579
 6639W        W10158   7.959   8.048  10.501
 6640W        W10159   4.232   3.468   8.731
 6641W        W10160   0.864   6.917   9.945
 6642W        W10161   7.898   6.069   0.723
 6643W        W10162   1.749   9.064   3.332
 6644W        W10163   3.835   7.631  10.726
 6645W        W10164   5.122   6.589   9.586
 6646W        W10165   5.023   1.172  10.851
 6647W        W10166   7.071   7.816   2.223
 6648W        W10167   9.987   8.571   8.994
 6649W        W10168   1.655   3.429   3.645
 6650W        W10169   3.844   7.515   3.364
 6651W        W10170   6.977   8.599   8.950
 6652W        W10171   6.012   8.146  11.750
 6653W        W10172   5.869   4.153   2.950
 6654W        W10173   4.915   5.167   0.928
 6655W        W10174   0.237   3.719   9.296
 6656W        W10175   5.063   8.561   0.267
 6657W        W10176   0.537   7.652  11.362
 6658W        W10177   4.570   9.364   0.235
 6659W        W10178   1.368   7.146  10.814
 6660W        W10179   2.487   9.676   8.551
 6661W        W10180   4.708   1.879   0.931
 6662W        W10181   5.950   3.440   0.306
 6663W        W10182   4.442   4.075   8.189
 6664W        W10183   5.534   0.959   9.652
 6665W        W10184   8.311   6.213   1.658
 6666W        W10185   8.400   3.677   1.383
 6667W        W10186   1.651   6.597   2.488
 6668W        W10187   0.321   2.230   0.815
 6669W        W10188   4.813   5.454  10.948
 6670W        W10189   1.245   0.712   2.830
 6671W        W10190   9.213   9.212   2.515
 6672W        W10191   6.725   2.182   1.472
 6673W        W10192   1.677   8.034   0.077
 6674W        W10193   5.970   3.628   1.231
 6675W        W10194   2.083   7.973  10.685
 6676W        W10195   1.802   1.187   1.213
 6677W        W10196   8.137   8.394   0.426
 6678W        W10197   0.661   5.366   3.445
 6679W        W10198   2.162   5.469   1.067
 6680W        W10199   6.333   4.063  11.101
 6681W        W10200   5.798   7.186   2.661
 6682W        W10201   0.385   0.450   2.433
 6683W        W10202   1.106   8.994  10.014
 6684W        W10203   3.356   9.713   1.206
 6685W        W10204   6.662   0.687   3.365
 6686W        W10205   4.076   9.825  10.136
 6687W        W10206   4.568   6.053  10.259
 6688W        W10207   0.529   7.978   3.611
 6689W        W10208   2.580   4.478  10.292
 6690W        W10209   6.157   5.721   2.063
 6691W        W10210   6.182   2.653   8.537
 6692W        W10211   3.597   4.834  10.675
 6693W        W10212   0.940   7.996   3.226
 6694W        W10213   7.961   5.498   2.910
 6695W        W10214   3.655   6.845   0.002
 6696W        W10215   2.876   1.360   9.802
 6697W        W10216   7.215   4.806   0.966
 6698W        W10217   6.687   1.729   9.544
 6699W        W10218   7.072   3.174   0.443
 6700W        W10219   6.480   6.947   9.276
 6701W        W10220   6.984   0.337  11.832
 6702W        W10221   7.623   5.887   2.909
 6703W        W10222   0.251   0.606  10.242
 6704W        W10223   3.519   4.074  10.075
 6705ION    NA+10224   4.468   0.488  10.961
 6706ION    NA+10225   7.955   4.202   8.836
 6707ION    NA+10226   6.272   8.436   0.712
 6708ION    NA+10227   3.384   1.612   1.239
 6709ION    NA+10228   3.883   6.185   1.794
 6710ION    NA+10229   2.263   5.729  10.514
 6711ION    NA+10230   4.515   6.560  10.381
 6712ION    NA+10231   6.615   5.012  11.690
 6713ION    NA+10232   9.523   3.080   8.562
 6714ION    NA+10233   4.629   8.718   9.859
 6715ION    NA+10234   6.111   3.672   9.635
 6716ION    NA+10235   4.734   7.857   0.738
 6717ION    NA+10236   7.895   5.605  11.953
 6718ION    NA+10237   0.846   3.138  11.956
 6719ION    NA+10238   0.014   9.956   3.051
 6720ION    NA+10239   7.565   8.953  11.738
 6721ION    NA+10240   1.703   7.047   9.510
 6722ION    NA+10241   4.043   2.424  10.354
 6723ION    NA+10242   3.787   0.195   8.872
 6724ION    NA+10243   3.836   8.430   9.618
 6725ION    NA+10244   6.937   1.231   8.960
 6726ION    NA+10245   3.611   5.500  10.992
 6727ION    NA+10246   7.444   4.095   9.568
 6728ION    NA+10247   5.340   9.251  10.123
 6729ION    NA+10248   6.905   9.532  10.683
 6730ION    NA+10249   3.128   0.944   8.944
 6731ION    NA+10250   0.263   5.418  11.505
 6732ION    NA+10251   9.313   3.444   1.316
 6733ION    NA+10252   7.977   1.431   3.422
 6734ION    NA+10253   2.636   5.047   8.777
 6735ION    NA+10254   6.344   0.854   1.756
 6736ION    NA+10255   8.660   1.382  10.772
 6737ION    NA+10256   5.281   8.757   2.720
 6738ION    NA+10257   1.870   4.687   1.723
 6739ION    NA+10258   7.277   9.376   2.842
 6740ION    NA+10259   1.742   9.739   0.424
 6741ION    NA+10260   7.911   7.890   2.235
 6742ION    NA+10261   2.811   6.767   2.315
 6743ION    NA+10262   1.556   6.563   0.872
 6744ION    NA+10263   1.341   8.619   1.114
 6745ION    NA+10264   2.153   5.922   0.014
 6746ION    NA+10265   8.163   4.786   2.118
 6747ION    NA+10266   8.909   9.004  10.260
 6748ION    NA+10267   8.399   7.987  11.978
 6749ION    NA+10268   8.416   7.991   1.625
 6750ION    NA+10269   5.981   6.683   4.034
 6751ION    NA+10270   4.215   9.487   1.008
 6752ION    NA+10271   0.904   3.254   9.657
 6753ION    NA+10272   1.374   0.497   3.697
 6754ION    NA+10273   4.094   5.522   2.376
 6755ION    NA+10274   8.726   2.736   1.235
 6756ION    NA+10275   6.418   8.465   2.244
 6757ION    NA+10276   7.792   4.835  10.954
 6758ION    NA+10277   4.185   5.277   0.389
 6759ION    NA+10278   0.570   4.877   0.288
 6760ION    NA+10279   1.828   0.109   3.090
 6761ION    NA+10280   3.820   4.965  10.165
 6762ION    NA+10281   9.731   7.900   3.001
 6763ION    NA+10282   5.052   5.905   3.441
 6764ION    NA+10283   3.582   9.593   0.242
 6765ION    NA+10284   0.288   0.417   8.606
 6766ION    NA+10285   8.727   7.952   2.413
 6767ION    NA+10286   3.861   6.379   9.134
 6768ION    NA+10287   4.369   0.415   9.722
 6769ION    NA+10288   7.949   7.828   9.537
 6770ION    NA+10289   2.746   1.863   2.409
 6771ION    NA+10290   3.022   2.710  11.590
 6772ION    NA+10291   7.580   2.569  10.462
 6773ION    NA+10292   2.144   5.732   8.847
 6774ION    NA+10293   5.303   4.583   1.535
 6775ION    NA+10294   6.530   6.968   9.829
 6776ION    CL-10295   8.590   4.714   2.237
 6777ION    CL-10296   0.223   1.201   2.923
 6778ION    CL-10297   5.162   8.838   1.267
 6779ION    CL-10298   6.116   0.537  11.179
 6780ION    CL-10299   5.286   4.468   3.030
 6781ION    CL-10300   6.133   3.879  10.027
 6782ION    CL-10301   1.121   3.640   9.693
 6783ION    CL-10302   2.378   5.365   8.998
 6784ION    CL-10303   3.947   5.867   2.112
 6785ION    CL-10304   1.806   1.846   3.300
 6786ION    CL-10305   6.434   8.558   0.316
 6787ION    CL-10306   4.292   8.401   9.724
 6788ION    CL-10307   4.477   1.579   9.426
 6789ION    CL-10308   2.729   5.328   2.330
 6790ION    CL-10309   0.890   4.669   0.055
 6791ION    CL-10310   7.030   1.040   8.538
 6792ION    CL-10311   7.771   4.109   9.245
 6793ION    CL-10312   4.711   7.708   0.315
 6794ION    CL-10313   2.164   8.514  11.563
 6795ION    CL-10314   4.146   6.652  10.616
 6796ION    CL-10315   2.178   9.112   2.113
 6797ION    CL-10316   7.726   9.188   0.083
 6798ION    CL-10317   9.194   2.707   9.510
 6799ION    CL-10318   5.066   4.271   1.303
 6800ION    CL-10319   1.410   0.014   0.315
 6801ION    CL-10320   9.022   3.075   1.298
 6802ION    CL-10321   3.117   3.960   3.395
 6803ION    CL-10322   5.760   7.384   2.204
 6804ION    CL-10323   3.201   4.916   0.371
 6805ION    CL-10324   0.239   0.537   0.923
 6806ION    CL-10325   6.192   2.401   2.321
 6807ION    CL-10326   4.823   5.196   8.664
 6808ION    CL-10327   9.054   1.239  10.624
 6809ION    CL-10328   7.510   4.319   0.270
 6810ION    CL-10329   7.763   5.155  10.645
 6811ION    CL-10330   5.594   6.690   0.227
 6812ION    CL-10331   0.999   8.702   0.829
 6813ION    CL-10332   0.820   8.350   2.292
 6814ION    CL-10333   6.621   1.542   9.071
 6815ION    CL-10334   1.305   4.537  10.095
 6816ION    CL-10335   0.114   7.720   2.846
 6817ION    CL-10336   4.335   4.692  10.991
 6818ION    CL-10337   4.388   0.062  11.073
 6819ION    CL-10338   3.410   8.596   9.628
 6820ION    CL-10339   3.155   7.287   0.383
 6821ION    CL-10340   2.022   6.028  11.600
 6822ION    CL-10341   2.468   1.516   2.349
 6823ION    CL-10342   5.494   4.921   1.771
 6824ION    CL-10343   8.353   7.965   2.093
 6825ION    CL-10344   7.084   4.125   9.838
 6826ION    CL-10345   9.926   0.677   8.759
 6827ION    CL-10346   5.226   8.620   3.146
 6828ION    CL-10347   5.746   3.192   1.059
 6829ION    CL-10348   6.738   3.404   3.181
 6830ION    CL-10349   7.521   9.924   0.836
 6831ION    CL-10350   8.915   9.306  10.588
 6832ION    CL-10351   8.467   9.210   3.567
 6833ION    CL-10352   3.734   6.740   9.367
 6834ION    CL-10353   0.036   3.775   2.736
 6835ION    CL-10354   6.374   7.793   8.974
 6836ION    CL-10355   4.606   3.355   9.741
 6837ION    CL-10356   4.968   9.027   9.978
 6838ION    CL-10357   5.637   0.244   3.127
 6839ION    CL-10358   5.766   3.603   3.179
 6840ION    CL-10359   5.044   7.611   9.363
 6841ION    CL-10360   9.557   5.686   9.119
 6842ION    CL-10361   9.864   2.609   3.098
 6843ION    CL-10362   2.692   4.679  11.544
 6844ION    CL-10363   7.774   2.552  10.860
 6845ION    CL-10364   1.688   8.555   1.408
 6846ION    CL-10365   9.632   3.736   1.465
  10.00000  10.00000  12.00000
