generated by VMD, t= 0.000000
505
   81AUC    AUC    1   0.001   0.080  -0.001
   82AUC    AUC    2   0.247   0.080  -0.153
   83AUC    AUC    3   0.247   0.080   0.150
   84AUC    AUC    4  -0.244   0.080  -0.153
   85AUC    AUC    5  -0.244   0.080   0.150
   86AUC    AUC    6  -0.151   0.325  -0.001
   87AUC    AUC    7   0.153   0.325  -0.001
   88AUC    AUC    8  -0.151  -0.166  -0.001
   89AUC    AUC    9   0.153  -0.166  -0.001
   90AUC    AUC   10   0.001  -0.072   0.244
   91AUC    AUC   11   0.001   0.231   0.244
   92AUC    AUC   12   0.001  -0.072  -0.247
   93AUC    AUC   13   0.001   0.231  -0.247
   94AUC    AUC   14   0.492   0.080  -0.305
   95AUC    AUC   15   0.492   0.080  -0.001
   96AUC    AUC   16   0.492   0.080   0.302
   97AUC    AUC   17  -0.490   0.080  -0.305
   98AUC    AUC   18  -0.490   0.080  -0.001
   99AUC    AUC   19  -0.490   0.080   0.302
  100AUC    AUC   20  -0.302   0.570  -0.001
  101AUC    AUC   21   0.001   0.570  -0.001
  102AUC    AUC   22   0.304   0.570  -0.001
  103AUC    AUC   23  -0.302  -0.411  -0.001
  104AUC    AUC   24   0.001  -0.411  -0.001
  105AUC    AUC   25   0.304  -0.411  -0.001
  106AUC    AUC   26   0.001  -0.224   0.489
  107AUC    AUC   27   0.001   0.080   0.489
  108AUC    AUC   28   0.001   0.383   0.489
  109AUC    AUC   29   0.001  -0.224  -0.492
  110AUC    AUC   30   0.001   0.080  -0.492
  111AUC    AUC   31   0.001   0.383  -0.492
  112AUC    AUC   32   0.247  -0.072   0.396
  113AUC    AUC   33   0.247   0.231   0.396
  114AUC    AUC   34   0.247  -0.072  -0.398
  115AUC    AUC   35   0.247   0.231  -0.398
  116AUC    AUC   36  -0.244  -0.072   0.396
  117AUC    AUC   37  -0.244   0.231   0.396
  118AUC    AUC   38  -0.244  -0.072  -0.398
  119AUC    AUC   39  -0.244   0.231  -0.398
  120AUC    AUC   40   0.398   0.325  -0.153
  121AUC    AUC   41   0.398   0.325   0.150
  122AUC    AUC   42  -0.396   0.325  -0.153
  123AUC    AUC   43  -0.396   0.325   0.150
  124AUC    AUC   44   0.398  -0.166  -0.153
  125AUC    AUC   45   0.398  -0.166   0.150
  126AUC    AUC   46  -0.396  -0.166  -0.153
  127AUC    AUC   47  -0.396  -0.166   0.150
  128AUC    AUC   48  -0.151   0.477   0.244
  129AUC    AUC   49   0.153   0.477   0.244
  130AUC    AUC   50  -0.151  -0.318   0.244
  131AUC    AUC   51   0.153  -0.318   0.244
  132AUC    AUC   52  -0.151   0.477  -0.247
  133AUC    AUC   53   0.153   0.477  -0.247
  134AUC    AUC   54  -0.151  -0.318  -0.247
  135AUC    AUC   55   0.153  -0.318  -0.247
   56AUSL   AUS   56   0.410   0.080   0.579
   57AUSL   AUS   57   0.266  -0.337   0.509
   58AUL    AUL   58   0.492  -0.224   0.793
   59THSLK  S     59   0.380  -0.525   0.653
   60ETHY   C1    60   0.446  -0.910   0.888
   62ETHY   C1    61   0.589  -1.318   1.207
   64ETHY   C1    62   0.798  -1.654   1.563
   66ETHY   C1    63   1.064  -1.912   1.947
   68ETHY   C1    64   1.380  -2.088   2.352
   70THSLK  S     65   0.506   0.030   0.823
   71ETHY   C1    66   0.722  -0.156   1.178
   73ETHY   C1    67   0.997  -0.291   1.621
   75ETHY   C1    68   1.278  -0.321   2.072
   77ETHY   C1    69   1.556  -0.252   2.522
   79ETHY   C1    70   1.825  -0.084   2.963
   56AUSL   AUS   71   0.165  -0.072   0.672
   57AUSL   AUS   72  -0.162   0.231   0.672
   58AUL    AUL   73   0.001   0.080   0.980
   59THSLK  S     74   0.243  -0.125   0.914
   60ETHY   C1    75   0.320  -0.375   1.287
   62ETHY   C1    76   0.436  -0.592   1.766
   64ETHY   C1    77   0.573  -0.708   2.266
   66ETHY   C1    78   0.723  -0.726   2.778
   68ETHY   C1    79   0.882  -0.645   3.291
   70THSLK  S     80  -0.249   0.188   0.928
   71ETHY   C1    81  -0.331   0.076   1.361
   73ETHY   C1    82  -0.445   0.030   1.885
   75ETHY   C1    83  -0.577   0.088   2.398
   77ETHY   C1    84  -0.728   0.241   2.886
   79ETHY   C1    85  -0.894   0.485   3.341
   56AUSL   AUS   86   0.165   0.231   0.672
   57AUSL   AUS   87   0.511   0.344   0.415
   58AUL    AUL   88   0.492   0.383   0.793
   59THSLK  S     89   0.252   0.285   0.911
   60ETHY   C1    90   0.333   0.536   1.283
   62ETHY   C1    91   0.447   0.752   1.762
   64ETHY   C1    92   0.580   0.868   2.264
   66ETHY   C1    93   0.730   0.886   2.776
   68ETHY   C1    94   0.896   0.806   3.286
   70THSLK  S     95   0.685   0.446   0.577
   71ETHY   C1    96   1.049   0.456   0.851
   73ETHY   C1    97   1.465   0.558   1.177
   75ETHY   C1    98   1.845   0.757   1.492
   77ETHY   C1    99   2.180   1.044   1.793
   79ETHY   C1   100   2.461   1.412   2.074
   56AUSL   AUS  101   0.410   0.080  -0.581
   57AUSL   AUS  102   0.266   0.496  -0.511
   58AUL    AUL  103   0.492   0.383  -0.796
   59THSLK  S    104   0.513   0.030  -0.822
   60ETHY   C1   105   0.734  -0.156  -1.174
   62ETHY   C1   106   1.007  -0.291  -1.618
   64ETHY   C1   107   1.285  -0.321  -2.071
   66ETHY   C1   108   1.563  -0.252  -2.521
   68ETHY   C1   109   1.837  -0.084  -2.958
   70THSLK  S    110   0.444   0.611  -0.678
   71ETHY   C1   111   0.732   0.716  -1.015
   73ETHY   C1   112   1.032   0.920  -1.413
   75ETHY   C1   113   1.275   1.208  -1.789
   77ETHY   C1   114   1.459   1.572  -2.132
   79ETHY   C1   115   1.583   2.003  -2.438
   56AUSL   AUS  116   0.165  -0.072  -0.675
   57AUSL   AUS  117   0.511  -0.185  -0.418
   58AUL    AUL  118   0.492  -0.224  -0.796
   59THSLK  S    119   0.648  -0.377  -0.559
   60ETHY   C1   120   0.856  -0.720  -0.774
   62ETHY   C1   121   1.157  -1.062  -1.061
   64ETHY   C1   122   1.508  -1.315  -1.370
   66ETHY   C1   123   1.902  -1.477  -1.691
   68ETHY   C1   124   2.331  -1.548  -2.017
   70THSLK  S    125   0.252  -0.126  -0.913
   71ETHY   C1   126   0.333  -0.377  -1.286
   73ETHY   C1   127   0.447  -0.593  -1.765
   75ETHY   C1   128   0.580  -0.709  -2.267
   77ETHY   C1   129   0.730  -0.727  -2.778
   79ETHY   C1   130   0.896  -0.647  -3.289
   56AUSL   AUS  131   0.165   0.231  -0.675
   57AUSL   AUS  132  -0.162  -0.072  -0.675
   58AUL    AUL  133   0.001   0.080  -0.983
   59THSLK  S    134  -0.257  -0.126  -0.911
   60ETHY   C1   135  -0.394  -0.374  -1.268
   62ETHY   C1   136  -0.554  -0.588  -1.736
   64ETHY   C1   137  -0.701  -0.703  -2.234
   66ETHY   C1   138  -0.828  -0.722  -2.752
   68ETHY   C1   139  -0.933  -0.646  -3.279
   70THSLK  S    140   0.268   0.189  -0.925
   71ETHY   C1   141   0.409   0.074  -1.343
   73ETHY   C1   142   0.567   0.027  -1.856
   75ETHY   C1   143   0.710   0.083  -2.365
   77ETHY   C1   144   0.838   0.237  -2.860
   79ETHY   C1   145   0.949   0.485  -3.329
   56AUSL   AUS  146  -0.408   0.080   0.579
   57AUSL   AUS  147  -0.264   0.496   0.509
   58AUL    AUL  148  -0.490   0.383   0.793
   59THSLK  S    149  -0.511   0.030   0.819
   60ETHY   C1   150  -0.732  -0.156   1.171
   62ETHY   C1   151  -1.005  -0.291   1.615
   64ETHY   C1   152  -1.282  -0.321   2.068
   66ETHY   C1   153  -1.560  -0.252   2.518
   68ETHY   C1   154  -1.835  -0.084   2.955
   70THSLK  S    155  -0.384   0.625   0.699
   71ETHY   C1   156  -0.453   0.794   1.117
   73ETHY   C1   157  -0.595   1.047   1.570
   75ETHY   C1   158  -0.801   1.348   1.957
   77ETHY   C1   159  -1.068   1.687   2.272
   79ETHY   C1   160  -1.388   2.054   2.510
   56AUSL   AUS  161  -0.162  -0.072   0.672
   57AUSL   AUS  162  -0.509  -0.185   0.415
   58AUL    AUL  163  -0.490  -0.224   0.793
   59THSLK  S    164  -0.687  -0.349   0.526
   60ETHY   C1   165  -1.055  -0.602   0.622
   62ETHY   C1   166  -1.470  -0.881   0.820
   64ETHY   C1   167  -1.848  -1.121   1.108
   66ETHY   C1   168  -2.182  -1.317   1.475
   68ETHY   C1   169  -2.468  -1.463   1.912
   70THSLK  S    170  -0.265  -0.124   0.907
   71ETHY   C1   171  -0.407  -0.371   1.263
   73ETHY   C1   172  -0.565  -0.586   1.730
   75ETHY   C1   173  -0.708  -0.702   2.230
   77ETHY   C1   174  -0.835  -0.720   2.747
   79ETHY   C1   175  -0.947  -0.642   3.272
   56AUSL   AUS  176  -0.408   0.080  -0.581
   57AUSL   AUS  177  -0.264  -0.337  -0.511
   58AUL    AUL  178  -0.490  -0.224  -0.796
   59THSLK  S    179  -0.503   0.030  -0.826
   60ETHY   C1   180  -0.720  -0.156  -1.181
   62ETHY   C1   181  -0.995  -0.291  -1.624
   64ETHY   C1   182  -1.276  -0.321  -2.074
   66ETHY   C1   183  -1.554  -0.252  -2.525
   68ETHY   C1   184  -1.822  -0.084  -2.966
   70THSLK  S    185  -0.436  -0.511  -0.631
   71ETHY   C1   186  -0.721  -0.832  -0.786
   73ETHY   C1   187  -1.022  -1.191  -1.050
   75ETHY   C1   188  -1.267  -1.514  -1.394
   77ETHY   C1   189  -1.451  -1.797  -1.807
   79ETHY   C1   190  -1.570  -2.037  -2.280
   56AUSL   AUS  191  -0.162   0.231  -0.675
   57AUSL   AUS  192  -0.509   0.344  -0.418
   58AUL    AUL  193  -0.490   0.383  -0.796
   59THSLK  S    194  -0.640   0.474  -0.610
   60ETHY   C1   195  -0.846   0.574  -1.004
   62ETHY   C1   196  -1.148   0.738  -1.418
   64ETHY   C1   197  -1.502   0.950  -1.755
   66ETHY   C1   198  -1.895   1.204  -2.009
   68ETHY   C1   199  -2.320   1.497  -2.179
   70THSLK  S    200  -0.241   0.190  -0.932
   71ETHY   C1   201  -0.318   0.078  -1.367
   73ETHY   C1   202  -0.434   0.033  -1.891
   75ETHY   C1   203  -0.570   0.089  -2.402
   77ETHY   C1   204  -0.720   0.243  -2.890
   79ETHY   C1   205  -0.880   0.488  -3.347
   56AUSL   AUS  206   0.581   0.489  -0.001
   57AUSL   AUS  207   0.511   0.344  -0.418
   58AUL    AUL  208   0.795   0.570  -0.305
   59THSLK  S    209   0.690   0.447  -0.573
   60ETHY   C1   210   1.057   0.458  -0.844
   62ETHY   C1   211   1.472   0.560  -1.171
   64ETHY   C1   212   1.850   0.758  -1.489
   66ETHY   C1   213   2.184   1.045  -1.790
   68ETHY   C1   214   2.470   1.415  -2.065
   70THSLK  S    215   0.849   0.545   0.003
   71ETHY   C1   216   1.301   0.606   0.005
   73ETHY   C1   217   1.815   0.765   0.004
   75ETHY   C1   218   2.283   1.019   0.002
   77ETHY   C1   219   2.696   1.356   0.003
   79ETHY   C1   220   3.048   1.770   0.006
   56AUSL   AUS  221   0.675   0.243  -0.153
   57AUSL   AUS  222   0.675  -0.084   0.150
   58AUL    AUL  223   0.983   0.080  -0.001
   59THSLK  S    224   0.934   0.286  -0.155
   60ETHY   C1   225   1.379   0.216  -0.225
   62ETHY   C1   226   1.910   0.223  -0.313
   64ETHY   C1   227   2.423   0.333  -0.402
   66ETHY   C1   228   2.908   0.539  -0.486
   68ETHY   C1   229   3.355   0.836  -0.563
   70THSLK  S    230   0.907  -0.222   0.159
   71ETHY   C1   231   1.253  -0.511   0.225
   73ETHY   C1   232   1.714  -0.778   0.306
   75ETHY   C1   233   2.211  -0.947   0.389
   77ETHY   C1   234   2.732  -1.019   0.477
   79ETHY   C1   235   3.267  -0.993   0.568
   56AUSL   AUS  236   0.675   0.243   0.150
   57AUSL   AUS  237   0.418   0.590   0.263
   58AUL    AUL  238   0.795   0.570   0.302
   59THSLK  S    239   0.601   0.709   0.423
   60ETHY   C1   240   0.973   0.864   0.636
   62ETHY   C1   241   1.373   1.129   0.882
   64ETHY   C1   242   1.707   1.473   1.112
   66ETHY   C1   243   1.969   1.886   1.324
   68ETHY   C1   244   2.156   2.358   1.516
   70THSLK  S    245   0.933   0.286   0.161
   71ETHY   C1   246   1.377   0.216   0.235
   73ETHY   C1   247   1.908   0.223   0.322
   75ETHY   C1   248   2.422   0.333   0.407
   77ETHY   C1   249   2.906   0.539   0.491
   79ETHY   C1   250   3.353   0.836   0.575
   56AUSL   AUS  251  -0.579   0.489  -0.001
   57AUSL   AUS  252  -0.509   0.344   0.415
   58AUL    AUL  253  -0.793   0.570   0.302
   59THSLK  S    254  -0.645   0.467   0.606
   60ETHY   C1   255  -0.854   0.563   1.000
   62ETHY   C1   256  -1.155   0.729   1.414
   64ETHY   C1   257  -1.506   0.944   1.751
   66ETHY   C1   258  -1.900   1.198   2.006
   68ETHY   C1   259  -2.329   1.485   2.175
   70THSLK  S    260  -0.795   0.629   0.003
   71ETHY   C1   261  -1.051   1.007   0.005
   73ETHY   C1   262  -1.424   1.395   0.004
   75ETHY   C1   263  -1.860   1.701   0.002
   77ETHY   C1   264  -2.346   1.919   0.003
   79ETHY   C1   265  -2.873   2.049   0.006
   56AUSL   AUS  266  -0.673   0.243  -0.153
   57AUSL   AUS  267  -0.415   0.590  -0.266
   58AUL    AUL  268  -0.793   0.570  -0.305
   59THSLK  S    269  -0.904   0.358  -0.200
   60ETHY   C1   270  -1.251   0.546  -0.428
   62ETHY   C1   271  -1.711   0.738  -0.631
   64ETHY   C1   272  -2.209   0.888  -0.745
   66ETHY   C1   273  -2.730   0.998  -0.770
   68ETHY   C1   274  -3.264   1.068  -0.707
   70THSLK  S    275  -0.531   0.755  -0.445
   71ETHY   C1   276  -0.647   1.071  -0.753
   73ETHY   C1   277  -0.861   1.449  -1.071
   75ETHY   C1   278  -1.153   1.818  -1.320
   77ETHY   C1   279  -1.511   2.171  -1.495
   79ETHY   C1   280  -1.929   2.504  -1.594
   56AUSL   AUS  281  -0.673   0.243   0.150
   57AUSL   AUS  282  -0.673  -0.084  -0.153
   58AUL    AUL  283  -0.981   0.080  -0.001
   59THSLK  S    284  -0.931  -0.158  -0.113
   60ETHY   C1   285  -1.375  -0.193  -0.017
   62ETHY   C1   286  -1.906  -0.274   0.015
   64ETHY   C1   287  -2.420  -0.399  -0.045
   66ETHY   C1   288  -2.904  -0.567  -0.192
   68ETHY   C1   289  -3.351  -0.774  -0.420
   70THSLK  S    290  -0.906   0.350   0.201
   71ETHY   C1   291  -1.253   0.534   0.432
   73ETHY   C1   292  -1.713   0.727   0.634
   75ETHY   C1   293  -2.210   0.882   0.746
   77ETHY   C1   294  -2.731   0.992   0.771
   79ETHY   C1   295  -3.267   1.055   0.710
   56AUSL   AUS  296   0.581  -0.330  -0.001
   57AUSL   AUS  297   0.511  -0.185   0.415
   58AUL    AUL  298   0.795  -0.411   0.302
   59THSLK  S    299   0.797  -0.470   0.003
   60ETHY   C1   300   1.053  -0.848   0.005
   62ETHY   C1   301   1.426  -1.236   0.004
   64ETHY   C1   302   1.862  -1.542   0.002
   66ETHY   C1   303   2.348  -1.760   0.003
   68ETHY   C1   304   2.875  -1.890   0.006
   70THSLK  S    305   0.643  -0.375   0.563
   71ETHY   C1   306   0.848  -0.718   0.782
   73ETHY   C1   307   1.150  -1.060   1.067
   75ETHY   C1   308   1.504  -1.313   1.374
   77ETHY   C1   309   1.898  -1.476   1.695
   79ETHY   C1   310   2.322  -1.546   2.026
   56AUSL   AUS  311   0.675  -0.084  -0.153
   57AUSL   AUS  312   0.418  -0.431  -0.266
   58AUL    AUL  313   0.795  -0.411  -0.305
   59THSLK  S    314   0.908  -0.222  -0.153
   60ETHY   C1   315   1.256  -0.511  -0.214
   62ETHY   C1   316   1.715  -0.778  -0.297
   64ETHY   C1   317   2.212  -0.947  -0.385
   66ETHY   C1   318   2.734  -1.019  -0.472
   68ETHY   C1   319   3.269  -0.993  -0.556
   70THSLK  S    320   0.537  -0.621  -0.399
   71ETHY   C1   321   0.654  -1.038  -0.540
   73ETHY   C1   322   0.868  -1.492  -0.738
   75ETHY   C1   323   1.158  -1.878  -0.960
   77ETHY   C1   324   1.517  -2.193  -1.197
   79ETHY   C1   325   1.937  -2.432  -1.445
   56AUSL   AUS  326  -0.579  -0.330  -0.001
   57AUSL   AUS  327  -0.509  -0.185  -0.418
   58AUL    AUL  328  -0.793  -0.411  -0.305
   59THSLK  S    329  -0.682  -0.356  -0.530
   60ETHY   C1   330  -1.047  -0.613  -0.626
   62ETHY   C1   331  -1.463  -0.890  -0.824
   64ETHY   C1   332  -1.843  -1.127  -1.111
   66ETHY   C1   333  -2.177  -1.323  -1.478
   68ETHY   C1   334  -2.459  -1.475  -1.916
   70THSLK  S    335  -0.847  -0.386   0.003
   71ETHY   C1   336  -1.299  -0.447   0.005
   73ETHY   C1   337  -1.813  -0.606   0.004
   75ETHY   C1   338  -2.281  -0.860   0.002
   77ETHY   C1   339  -2.694  -1.197   0.003
   79ETHY   C1   340  -3.046  -1.611   0.006
   56AUSL   AUS  341  -0.673  -0.084   0.150
   57AUSL   AUS  342  -0.415  -0.431   0.263
   58AUL    AUL  343  -0.793  -0.411   0.302
   59THSLK  S    344  -0.603  -0.575   0.377
   60ETHY   C1   345  -0.977  -0.832   0.423
   62ETHY   C1   346  -1.375  -1.172   0.549
   64ETHY   C1   347  -1.708  -1.534   0.752
   66ETHY   C1   348  -1.970  -1.908   1.026
   68ETHY   C1   349  -2.161  -2.286   1.367
   70THSLK  S    350  -0.932  -0.151   0.114
   71ETHY   C1   351  -1.377  -0.181   0.021
   73ETHY   C1   352  -1.908  -0.263  -0.013
   75ETHY   C1   353  -2.421  -0.392   0.046
   77ETHY   C1   354  -2.905  -0.560   0.193
   79ETHY   C1   355  -3.353  -0.762   0.425
   56AUSL   AUS  356   0.001   0.660   0.408
   57AUSL   AUS  357  -0.415   0.590   0.263
   58AUL    AUL  358  -0.302   0.874   0.489
   59THSLK  S    359  -0.535   0.749   0.447
   60ETHY   C1   360  -0.652   1.061   0.758
   62ETHY   C1   361  -0.866   1.441   1.075
   64ETHY   C1   362  -1.156   1.812   1.321
   66ETHY   C1   363  -1.514   2.166   1.497
   68ETHY   C1   364  -1.935   2.494   1.599
   70THSLK  S    365   0.041   0.886   0.532
   71ETHY   C1   366   0.198   1.188   0.836
   73ETHY   C1   367   0.313   1.594   1.169
   75ETHY   C1   368   0.340   2.038   1.461
   77ETHY   C1   369   0.280   2.507   1.708
   79ETHY   C1   370   0.136   2.991   1.907
   56AUSL   AUS  371  -0.151   0.753   0.162
   57AUSL   AUS  372   0.153   0.753  -0.165
   58AUL    AUL  373   0.001   1.061  -0.001
   59THSLK  S    374  -0.110   1.001   0.271
   60ETHY   C1   375  -0.001   1.411   0.439
   62ETHY   C1   376   0.043   1.918   0.615
   64ETHY   C1   377  -0.014   2.426   0.762
   66ETHY   C1   378  -0.167   2.923   0.880
   68ETHY   C1   379  -0.410   3.400   0.969
   70THSLK  S    380   0.206   0.988  -0.262
   71ETHY   C1   381   0.451   1.344  -0.409
   73ETHY   C1   382   0.664   1.809  -0.576
   75ETHY   C1   383   0.779   2.307  -0.724
   77ETHY   C1   384   0.799   2.826  -0.848
   79ETHY   C1   385   0.724   3.355  -0.945
   56AUSL   AUS  386   0.153   0.753   0.162
   57AUSL   AUS  387   0.266   0.496   0.509
   58AUL    AUL  388   0.304   0.874   0.489
   59THSLK  S    389   0.438   0.609   0.681
   60ETHY   C1   390   0.723   0.712   1.021
   62ETHY   C1   391   1.025   0.916   1.418
   64ETHY   C1   392   1.270   1.206   1.791
   66ETHY   C1   393   1.454   1.569   2.135
   68ETHY   C1   394   1.573   1.999   2.445
   70THSLK  S    395   0.204   0.987   0.268
   71ETHY   C1   396   0.448   1.341   0.419
   73ETHY   C1   397   0.661   1.807   0.584
   75ETHY   C1   398   0.777   2.306   0.728
   77ETHY   C1   399   0.796   2.824   0.853
   79ETHY   C1   400   0.721   3.352   0.955
   56AUSL   AUS  401   0.001  -0.500   0.408
   57AUSL   AUS  402   0.418  -0.431   0.263
   58AUL    AUL  403   0.304  -0.715   0.489
   59THSLK  S    404  -0.043  -0.755   0.487
   60ETHY   C1   405  -0.203  -1.159   0.625
   62ETHY   C1   406  -0.317  -1.640   0.838
   64ETHY   C1   407  -0.342  -2.101   1.102
   66ETHY   C1   408  -0.283  -2.531   1.412
   68ETHY   C1   409  -0.142  -2.923   1.760
   70THSLK  S    410   0.533  -0.620   0.405
   71ETHY   C1   411   0.649  -1.036   0.549
   73ETHY   C1   412   0.863  -1.489   0.745
   75ETHY   C1   413   1.155  -1.877   0.964
   77ETHY   C1   414   1.514  -2.192   1.202
   79ETHY   C1   415   1.931  -2.429   1.455
   56AUSL   AUS  416  -0.151  -0.594   0.162
   57AUSL   AUS  417  -0.264  -0.337   0.509
   58AUL    AUL  418  -0.302  -0.715   0.489
   59THSLK  S    419  -0.204  -0.834   0.242
   60ETHY   C1   420  -0.449  -1.215   0.298
   62ETHY   C1   421  -0.662  -1.700   0.394
   64ETHY   C1   422  -0.777  -2.203   0.522
   66ETHY   C1   423  -0.796  -2.712   0.683
   68ETHY   C1   424  -0.722  -3.215   0.871
   70THSLK  S    425  -0.442  -0.505   0.630
   71ETHY   C1   426  -0.730  -0.823   0.786
   73ETHY   C1   427  -1.030  -1.183   1.049
   75ETHY   C1   428  -1.273  -1.509   1.393
   77ETHY   C1   429  -1.457  -1.792   1.806
   79ETHY   C1   430  -1.581  -2.026   2.280
   56AUSL   AUS  431   0.153  -0.594   0.162
   57AUSL   AUS  432  -0.151  -0.594  -0.165
   58AUL    AUL  433   0.001  -0.902  -0.001
   59THSLK  S    434  -0.202  -0.837  -0.237
   60ETHY   C1   435  -0.446  -1.219  -0.288
   62ETHY   C1   436  -0.659  -1.703  -0.386
   64ETHY   C1   437  -0.775  -2.205  -0.519
   66ETHY   C1   438  -0.794  -2.714  -0.678
   68ETHY   C1   439  -0.718  -3.219  -0.861
   70THSLK  S    440   0.110  -0.850   0.246
   71ETHY   C1   441  -0.000  -1.286   0.318
   73ETHY   C1   442  -0.043  -1.812   0.425
   75ETHY   C1   443   0.014  -2.324   0.556
   77ETHY   C1   444   0.167  -2.812   0.710
   79ETHY   C1   445   0.409  -3.265   0.885
   56AUSL   AUS  446   0.001   0.660  -0.410
   57AUSL   AUS  447   0.418   0.590  -0.266
   58AUL    AUL  448   0.304   0.874  -0.492
   59THSLK  S    449   0.045   0.890  -0.528
   60ETHY   C1   450   0.205   1.194  -0.829
   62ETHY   C1   451   0.319   1.599  -1.164
   64ETHY   C1   452   0.344   2.042  -1.458
   66ETHY   C1   453   0.285   2.511  -1.705
   68ETHY   C1   454   0.144   2.998  -1.899
   70THSLK  S    455   0.605   0.711  -0.418
   71ETHY   C1   456   0.979   0.867  -0.627
   73ETHY   C1   457   1.377   1.131  -0.874
   75ETHY   C1   458   1.710   1.475  -1.108
   77ETHY   C1   459   1.972   1.887  -1.319
   79ETHY   C1   460   2.163   2.361  -1.505
   56AUSL   AUS  461  -0.151   0.753  -0.165
   57AUSL   AUS  462  -0.264   0.496  -0.511
   58AUL    AUL  463  -0.302   0.874  -0.492
   59THSLK  S    464  -0.108   1.004  -0.266
   60ETHY   C1   465   0.002   1.415  -0.429
   62ETHY   C1   466   0.045   1.921  -0.607
   64ETHY   C1   467  -0.012   2.429  -0.758
   66ETHY   C1   468  -0.165   2.926  -0.876
   68ETHY   C1   469  -0.407   3.405  -0.958
   70THSLK  S    470  -0.378   0.631  -0.701
   71ETHY   C1   471  -0.444   0.803  -1.118
   73ETHY   C1   472  -0.587   1.055  -1.571
   75ETHY   C1   473  -0.796   1.354  -1.959
   77ETHY   C1   474  -1.062   1.692  -2.273
   79ETHY   C1   475  -1.378   2.065  -2.510
   56AUSL   AUS  476   0.001  -0.500  -0.410
   57AUSL   AUS  477  -0.415  -0.431  -0.266
   58AUL    AUL  478  -0.302  -0.715  -0.492
   59THSLK  S    479  -0.599  -0.581  -0.375
   60ETHY   C1   480  -0.971  -0.842  -0.418
   62ETHY   C1   481  -1.370  -1.180  -0.545
   64ETHY   C1   482  -1.705  -1.539  -0.750
   66ETHY   C1   483  -1.967  -1.913  -1.025
   68ETHY   C1   484  -2.154  -2.296  -1.361
   70THSLK  S    485  -0.039  -0.759  -0.484
   71ETHY   C1   486  -0.196  -1.165  -0.618
   73ETHY   C1   487  -0.311  -1.645  -0.832
   75ETHY   C1   488  -0.338  -2.104  -1.099
   77ETHY   C1   489  -0.278  -2.535  -1.409
   79ETHY   C1   490  -0.134  -2.930  -1.752
   56AUSL   AUS  491   0.153  -0.594  -0.165
   57AUSL   AUS  492   0.266  -0.337  -0.511
   58AUL    AUL  493   0.304  -0.715  -0.492
   59THSLK  S    494   0.112  -0.851  -0.241
   60ETHY   C1   495   0.003  -1.289  -0.308
   62ETHY   C1   496  -0.040  -1.815  -0.417
   64ETHY   C1   497   0.016  -2.326  -0.552
   66ETHY   C1   498   0.169  -2.814  -0.705
   68ETHY   C1   499   0.413  -3.268  -0.874
   70THSLK  S    500   0.386  -0.527  -0.650
   71ETHY   C1   501   0.455  -0.913  -0.882
   73ETHY   C1   502   0.597  -1.321  -1.203
   75ETHY   C1   503   0.804  -1.657  -1.561
   77ETHY   C1   504   1.070  -1.914  -1.944
   79ETHY   C1   505   1.390  -2.092  -2.345
  10.20023  10.17704  10.19129   0.00000   0.00000   0.00000   0.00000   0.00000   0.00000
