Protein in INSANE! Membrane UpperLeaflet>POPC=1.0 LowerLeaflet>POPC=1.0
12914
    1AU     AUC    1   4.127   0.862   6.562 -0.0671  0.0224 -0.0316
    1AU     AUC    2   4.274   0.746   6.286 -0.1127 -0.0984  0.0570
    1AU     AUC    3   4.237   1.083   6.346 -0.0001  0.0380  0.0111
    1AU     AUC    4   4.047   0.660   6.806 -0.0222 -0.0017 -0.0309
    1AU     AUC    5   3.948   1.009   6.810 -0.1564 -0.0016 -0.0840
    1AU     AUC    6   3.791   0.814   6.596  0.0337 -0.0321 -0.0352
    1AU     AUC    7   3.968   0.870   6.307 -0.0513  0.0575 -0.0084
    1AU     AUC    8   4.296   0.873   6.839  0.0448  0.0073  0.0341
    1AU     AUC    9   4.471   0.903   6.542  0.0337  0.0751  0.0565
    1AU     AUC   10   4.255   1.159   6.674 -0.0098 -0.0178 -0.0241
    1AU     AUC   11   3.942   1.123   6.517  0.0141  0.0623 -0.0686
    1AU     AUC   12   4.333   0.598   6.614 -0.0309  0.0354  0.0905
    1AU     AUC   13   4.033   0.593   6.464  0.0460 -0.0252 -0.0836
    1AU     AUC   14   4.431   0.635   6.006 -0.1498  0.0955  0.0332
    1AU     AUC   15   4.442   0.977   6.042 -0.0602  0.0290  0.1144
    1AU     AUC   16   4.361   1.302   6.152  0.0560 -0.0264  0.0164
    1AU     AUC   17   3.984   0.455   7.073 -0.0213 -0.0272 -0.0485
    1AU     AUC   18   3.852   0.806   7.108 -0.0428 -0.0245 -0.1014
    1AU     AUC   19   3.766   1.168   7.095 -0.1054 -0.0440  0.0310
    1AU     AUC   20   3.464   0.745   6.638  0.0151  0.0015 -0.0216
    1AU     AUC   21   3.592   0.810   6.314  0.0507  0.0633 -0.0074
    1AU     AUC   22   3.781   0.905   6.020  0.0693 -0.0125 -0.0227
    1AU     AUC   23   4.446   0.863   7.158  0.0904 -0.0600  0.0070
    1AU     AUC   24   4.653   0.884   6.871  0.0177  0.0414  0.0619
    1AU     AUC   25   4.836   0.933   6.561  0.0511 -0.0350  0.0069
    1AU     AUC   26   4.386   1.448   6.818 -0.0582 -0.0174  0.0180
    1AU     AUC   27   4.057   1.439   6.639  0.0333  0.0491 -0.0131
    1AU     AUC   28   3.739   1.386   6.493  0.0156  0.0513  0.0547
    1AU     AUC   29   4.501   0.344   6.630  0.0409  0.0260  0.0395
    1AU     AUC   30   4.215   0.271   6.474  0.0346 -0.0028  0.0133
    1AU     AUC   31   3.900   0.292   6.383 -0.0595  0.0276  0.0014
    1AU     AUC   32   4.402   1.392   6.481 -0.0283 -0.0001  0.1093
    1AU     AUC   33   4.097   1.420   6.281 -0.0187 -0.0643  0.0080
    1AU     AUC   34   4.464   0.420   6.274  0.0251 -0.0112  0.0188
    1AU     AUC   35   4.144   0.460   6.124 -0.0248  0.0000 -0.0040
    1AU     AUC   36   4.046   1.340   6.957  0.0265  0.0536 -0.1117
    1AU     AUC   37   3.712   1.298   6.767 -0.0157 -0.0141  0.0483
    1AU     AUC   38   4.236   0.374   6.856  0.0374  0.0024 -0.1197
    1AU     AUC   39   3.945   0.324   6.750 -0.0188  0.0514 -0.1134
    1AU     AUC   40   4.126   0.777   5.962  0.0229  0.0997  0.0466
    1AU     AUC   41   4.096   1.120   6.058  0.0460  0.0370  0.0141
    1AU     AUC   42   3.675   0.601   6.885  0.0431  0.0011  0.0167
    1AU     AUC   43   3.578   0.978   6.870 -0.0075  0.0385 -0.0376
    1AU     AUC   44   4.643   0.770   6.277  0.0422 -0.0297 -0.0147
    1AU     AUC   45   4.621   1.104   6.348  0.0352 -0.1160  0.0848
    1AU     AUC   46   4.210   0.672   7.143  0.0496 -0.0230 -0.0228
    1AU     AUC   47   4.105   1.022   7.113 -0.0208 -0.0428 -0.0784
    1AU     AUC   48   3.555   1.059   6.530 -0.0310 -0.0206  0.0788
    1AU     AUC   49   3.767   1.151   6.232  0.0567  0.0741 -0.0129
    1AU     AUC   50   4.413   1.163   6.994 -0.0520  0.0435  0.0091
    1AU     AUC   51   4.633   1.185   6.723  0.0193 -0.0009  0.0567
    1AU     AUC   52   3.704   0.510   6.518  0.1183 -0.0519 -0.0913
    1AU     AUC   53   3.824   0.558   6.174 -0.0620  0.1168 -0.0198
    1AU     AUC   54   4.499   0.594   6.917  0.0729 -0.0594  0.0458
    1AU     AUC   55   4.670   0.621   6.559  0.0070 -0.0677  0.0343
    1AU    AUSL   56   4.396   1.670   6.213 -0.0093  0.0079 -0.0850
    1AU    AUSL   57   4.669   1.580   6.621  0.0990  0.0050  0.0583
    1AU     AUL   58   4.752   1.769   6.352  0.0076 -0.0356  0.0185
    1AU       S   59   5.176   1.712   6.506 -0.0924 -0.2969 -0.1091
    1AU     LIG   60   5.502   1.620   6.878  0.0605 -0.1980 -0.0988
    1AU     LIG   61   5.901   1.789   6.886 -0.2630 -0.0376 -0.1792
    1AU     LIG   62   6.212   1.920   6.559  0.2232  0.0349 -0.3574
    1AU     LIG   63   6.644   1.647   6.501  0.2512 -0.1252 -0.1050
    1AU     LIG   64   6.897   1.378   6.773  0.0010  0.1909 -0.2171
    1AU       S   65   4.449   2.133   6.306 -0.1369  0.0840  0.5534
    1AU     LIG   66   4.159   2.411   6.380  0.2056  0.5643 -0.1473
    1AU     LIG   67   4.067   2.806   6.379  0.2162  0.1533  0.1832
    1AU     LIG   68   4.085   3.234   6.452 -0.3733  0.2587 -0.0823
    1AU     LIG   69   4.259   3.610   6.128  0.2246  0.2911 -0.0267
    1AU     LIG   70   4.318   3.688   5.706 -0.0174 -0.0271  0.1435
    1AU    AUSL   71   4.295   1.757   6.669  0.0189  0.0345 -0.0636
    1AU    AUSL   72   3.779   1.716   6.707  0.0185  0.1054  0.0852
    1AU     AUL   73   4.005   2.027   6.599  0.0960 -0.0384 -0.0019
    1AU       S   74   4.483   2.051   6.627  0.0832  0.2857 -0.1572
    1AU     LIG   75   4.409   2.489   6.779  0.1358  0.0743 -0.3966
    1AU     LIG   76   4.322   2.876   6.780 -0.0923 -0.1067  0.1433
    1AU     LIG   77   4.088   3.166   6.964 -0.0191  0.3775 -0.2373
    1AU     LIG   78   3.825   3.522   6.897  0.2690 -0.2253  0.3423
    1AU     LIG   79   3.847   3.727   6.510 -0.2801  0.1387  0.1067
    1AU       S   80   3.861   1.939   7.027  0.1051 -0.1083 -0.0168
    1AU     LIG   81   3.552   2.292   6.950 -0.0536  0.2740 -0.1380
    1AU     LIG   82   3.387   2.645   7.043  0.2243  0.1262  0.1216
    1AU     LIG   83   3.225   3.043   7.066 -0.3330  0.2422  0.4189
    1AU     LIG   84   3.144   3.282   6.806  0.0261  0.2701  0.4491
    1AU     LIG   85   3.104   3.570   6.520  0.1996 -0.0740 -0.3887
    1AU    AUSL   86   4.017   1.560   6.413  0.1041  0.1370 -0.0370
    1AU    AUSL   87   4.065   1.558   5.962  0.0368 -0.0594 -0.1087
    1AU     AUL   88   4.118   1.852   6.190  0.0350  0.0385  0.0162
    1AU       S   89   3.552   1.966   6.410 -0.0403 -0.1393 -0.3817
    1AU     LIG   90   3.232   2.145   6.249 -0.0418 -0.0375  0.1361
    1AU     LIG   91   2.825   2.326   6.329  0.3895  0.1872 -0.1272
    1AU     LIG   92   2.712   2.647   6.014  0.4404 -0.1535  0.1243
    1AU     LIG   93   2.673   2.961   5.888  0.1093 -0.1161  0.1437
    1AU     LIG   94   2.497   3.276   5.789  0.3088  0.3389  0.1329
    1AU       S   95   3.943   1.824   5.744  0.4686  0.0579  0.1127
    1AU     LIG   96   4.279   2.130   5.686 -0.0413  0.1119  0.2038
    1AU     LIG   97   4.405   2.474   5.943  0.2237  0.1569  0.1484
    1AU     LIG   98   4.557   2.743   6.311  0.0648  0.3767 -0.1072
    1AU     LIG   99   4.701   3.248   6.348 -0.0666  0.1042  0.1821
    1AU     LIG  100   4.743   3.773   6.463  0.0369 -0.0516  0.1800
    1AU    AUSL  101   4.331   0.326   5.990 -0.0659 -0.0224  0.0896
    1AU    AUSL  102   3.893   0.294   5.926 -0.0305 -0.0404 -0.1417
    1AU     AUL  103   4.114   0.129   5.732  0.0382  0.0900 -0.0357
    1AU       S  104   4.244  -0.244   6.002  0.4867  0.0895 -0.0884
    1AU     LIG  105   4.290  -0.594   6.309  0.0157  0.1336  0.0364
    1AU     LIG  106   4.448  -0.934   6.550 -0.1716  0.1673 -0.0741
    1AU     LIG  107   4.616  -1.071   6.911  0.0875 -0.3924  0.0972
    1AU     LIG  108   4.755  -0.800   7.270 -0.2990  0.1226  0.2455
    1AU     LIG  109   4.636  -0.408   7.331  0.3404 -0.1012 -0.2130
    1AU       S  110   3.742   0.383   5.485 -0.1145 -0.2016  0.0245
    1AU     LIG  111   3.686  -0.103   5.434  0.0250  0.2561  0.0478
    1AU     LIG  112   4.022  -0.379   5.601  0.1992  0.0709  0.1058
    1AU     LIG  113   4.307  -0.666   5.809  0.3161 -0.0225  0.3264
    1AU     LIG  114   4.524  -0.839   6.002 -0.1666  0.1990  0.1411
    1AU     LIG  115   4.948  -1.019   5.895  0.3187  0.3627 -0.0317
    1AU    AUSL  116   4.518   0.045   6.239 -0.0352  0.1071  0.0602
    1AU    AUSL  117   4.742   0.401   5.989 -0.0554  0.0561  0.0133
    1AU     AUL  118   4.591   0.175   5.817  0.1054  0.0626  0.0353
    1AU       S  119   5.012   0.209   5.956  0.2724 -0.1939  0.0269
    1AU     LIG  120   5.083   0.455   5.454 -0.2152  0.0017 -0.1423
    1AU     LIG  121   5.200   0.809   5.094 -0.1869  0.2725  0.0251
    1AU     LIG  122   5.310   0.833   4.705 -0.0629 -0.0426 -0.0567
    1AU     LIG  123   5.736   0.998   4.558 -0.0958 -0.5741 -0.1901
    1AU     LIG  124   6.057   1.173   4.469  0.4098  0.2766 -0.1669
    1AU       S  125   4.371  -0.243   5.984 -0.3503 -0.5719 -0.2285
    1AU     LIG  126   4.726  -0.443   6.221 -0.0216  0.3243  0.1204
    1AU     LIG  127   4.919  -0.865   6.361 -0.0102  0.0492  0.0070
    1AU     LIG  128   5.150  -1.136   6.456  0.0510 -0.0647 -0.1814
    1AU     LIG  129   5.392  -1.506   6.700  0.2868  0.2296  0.5429
    1AU     LIG  130   5.201  -1.955   6.592  0.2771  0.1631 -0.2389
    1AU    AUSL  131   4.085   0.122   6.271  0.0750  0.0643  0.0435
    1AU    AUSL  132   4.359   0.079   6.649  0.0048  0.0323 -0.0187
    1AU     AUL  133   4.443  -0.140   6.467 -0.0064  0.0875  0.0448
    1AU       S  134   4.290  -0.354   6.865  0.0620  0.4208 -0.2151
    1AU     LIG  135   4.741  -0.561   6.764  0.0422  0.0003  0.0564
    1AU     LIG  136   5.132  -0.816   6.889 -0.0519 -0.0322  0.4069
    1AU     LIG  137   5.059  -1.277   7.012  0.1841  0.0571  0.1462
    1AU     LIG  138   4.770  -1.489   6.749  0.0523 -0.0909  0.0082
    1AU     LIG  139   4.695  -1.339   6.305 -0.2207 -0.4092 -0.2358
    1AU       S  140   4.078  -0.122   6.131 -0.3673  0.2679  0.0121
    1AU     LIG  141   3.651  -0.229   5.925 -0.0393  0.0403 -0.2000
    1AU     LIG  142   3.319  -0.566   5.969 -0.0704 -0.0525 -0.0993
    1AU     LIG  143   3.105  -0.757   6.288 -0.0131  0.2264  0.2074
    1AU     LIG  144   2.801  -1.009   6.308  0.3101  0.3104  0.0732
    1AU     LIG  145   2.698  -1.436   6.483 -0.2529 -0.1230  0.2102
    1AU    AUSL  146   3.680   1.513   7.081  0.0538 -0.1301  0.0272
    1AU    AUSL  147   3.460   1.445   6.657  0.0357 -0.0840 -0.0526
    1AU     AUL  148   3.468   1.730   6.844  0.0432  0.0031  0.0881
    1AU       S  149   3.764   1.931   7.196 -0.3578  0.0264  0.1929
    1AU     LIG  150   3.427   2.230   7.431 -0.1170 -0.1440  0.2932
    1AU     LIG  151   3.140   2.508   7.718 -0.3323 -0.0506  0.2338
    1AU     LIG  152   2.919   2.722   8.030 -0.0297 -0.0398  0.1661
    1AU     LIG  153   3.021   3.196   8.020 -0.1037  0.0012 -0.0595
    1AU     LIG  154   2.850   3.677   7.920 -0.3680  0.0195  0.3185
    1AU       S  155   3.039   1.457   6.806 -0.2293 -0.1778 -0.3983
    1AU     LIG  156   3.009   1.910   6.601  0.4098 -0.0943 -0.3248
    1AU     LIG  157   3.161   2.335   6.722  0.1860  0.1324 -0.1889
    1AU     LIG  158   2.974   2.737   6.718 -0.1747 -0.1694  0.3208
    1AU     LIG  159   2.721   3.043   6.621 -0.0165 -0.1301  0.3476
    1AU     LIG  160   2.505   3.366   6.400  0.1656  0.2893  0.1822
    1AU    AUSL  161   4.079   1.491   6.924 -0.0815 -0.0904 -0.0467
    1AU    AUSL  162   4.015   1.434   7.345  0.0315  0.0579  0.0619
    1AU     AUL  163   3.762   1.524   7.381  0.0083 -0.0296  0.0855
    1AU       S  164   4.192   1.719   7.540  0.1806  0.1132  0.1698
    1AU     LIG  165   4.011   2.135   7.646  0.0681  0.2162 -0.1563
    1AU     LIG  166   3.869   2.445   7.327  0.3383  0.2429 -0.1042
    1AU     LIG  167   3.913   2.652   6.929 -0.0332  0.1459 -0.2496
    1AU     LIG  168   3.735   2.946   6.715  0.0911 -0.2033 -0.0429
    1AU     LIG  169   3.518   3.168   6.549 -0.1042  0.0279  0.2007
    1AU       S  170   4.046   1.848   7.073  0.0826 -0.1735  0.2105
    1AU     LIG  171   4.297   2.214   7.195  0.0457  0.1347  0.0313
    1AU     LIG  172   4.335   2.695   7.282  0.1391  0.1243 -0.0668
    1AU     LIG  173   4.443   3.074   7.369  0.2263  0.0246 -0.0907
    1AU     LIG  174   4.374   3.336   7.663 -0.3070  0.1421  0.1354
    1AU     LIG  175   4.474   3.533   8.054 -0.1866  0.1131 -0.0049
    1AU    AUSL  176   4.102   0.075   7.002 -0.0055  0.0476  0.0086
    1AU    AUSL  177   4.491   0.314   6.990 -0.0203  0.0418  0.0890
    1AU     AUL  178   4.559  -0.025   6.959 -0.0156 -0.0198  0.0727
    1AU       S  179   4.160  -0.330   7.078 -0.0800  0.1252 -0.2096
    1AU     LIG  180   4.050  -0.767   6.980 -0.4019 -0.0326  0.0476
    1AU     LIG  181   3.941  -0.979   6.596  0.4720 -0.0113 -0.2675
    1AU     LIG  182   3.616  -0.993   6.403  0.2573 -0.0141 -0.2039
    1AU     LIG  183   3.418  -1.349   6.191 -0.1252 -0.2851 -0.0186
    1AU     LIG  184   3.589  -1.751   5.923  0.2834 -0.2197 -0.0170
    1AU       S  185   4.459   0.058   7.403  0.0427 -0.1447  0.1251
    1AU     LIG  186   4.895  -0.012   7.568  0.0872 -0.0952 -0.0239
    1AU     LIG  187   5.419  -0.053   7.549 -0.1725 -0.0034  0.0508
    1AU     LIG  188   5.636  -0.203   7.216 -0.1298  0.2817  0.0010
    1AU     LIG  189   6.038  -0.149   7.017  0.0743  0.1022 -0.3617
    1AU     LIG  190   6.307  -0.111   6.676 -0.1337 -0.1667  0.0907
    1AU    AUSL  191   3.964  -0.091   6.612 -0.0355  0.0280 -0.0026
    1AU    AUSL  192   3.704   0.196   7.056  0.0151 -0.0769  0.0373
    1AU     AUL  193   3.798  -0.132   6.907  0.0335 -0.0317  0.0081
    1AU       S  194   3.444  -0.055   7.187  0.1171 -0.0768  0.1428
    1AU     LIG  195   3.510  -0.511   7.265  0.2480 -0.2109  0.2500
    1AU     LIG  196   3.273  -0.809   7.276  0.1541 -0.3325 -0.0676
    1AU     LIG  197   2.913  -0.997   7.247  0.0610 -0.2191  0.4137
    1AU     LIG  198   2.557  -0.915   7.540 -0.1859 -0.2589 -0.0605
    1AU     LIG  199   2.225  -1.002   7.879 -0.0188 -0.2135  0.0967
    1AU       S  200   4.037  -0.397   6.639  0.1621 -0.1466  0.0047
    1AU     LIG  201   3.788  -0.476   6.337 -0.1079 -0.0493  0.3952
    1AU     LIG  202   3.806  -0.753   5.985 -0.1007 -0.0580  0.2981
    1AU     LIG  203   4.132  -1.074   6.159 -0.1421  0.0666  0.0559
    1AU     LIG  204   4.230  -1.512   6.441  0.1703 -0.3806  0.0892
    1AU     LIG  205   4.250  -1.949   6.485 -0.1328 -0.0885  0.5034
    1AU    AUSL  206   4.009   1.023   5.663 -0.0298  0.0752 -0.0228
    1AU    AUSL  207   4.185   0.558   5.680  0.0792  0.0238  0.0732
    1AU     AUL  208   4.153   0.831   5.362  0.0115  0.0393  0.0520
    1AU       S  209   3.863   0.472   5.477 -0.3777  0.2518 -0.0325
    1AU     LIG  210   4.151   0.108   5.267  0.0483  0.0773 -0.0417
    1AU     LIG  211   4.472  -0.203   5.453  0.0074  0.2724 -0.3397
    1AU     LIG  212   4.792  -0.424   5.698  0.3859  0.1720  0.1726
    1AU     LIG  213   5.147  -0.554   5.818 -0.1188  0.2642 -0.1208
    1AU     LIG  214   5.517  -0.703   5.811  0.0035 -0.4156  0.6475
    1AU       S  215   4.261   1.308   5.398 -0.0390 -0.1325 -0.1451
    1AU     LIG  216   3.833   1.378   5.240  0.0618 -0.1713 -0.1999
    1AU     LIG  217   3.672   1.766   5.299 -0.2264 -0.4246 -0.3043
    1AU     LIG  218   3.330   1.952   5.471  0.2516 -0.0552  0.0621
    1AU     LIG  219   2.982   1.755   5.504  0.2023  0.1974 -0.0433
    1AU     LIG  220   2.677   1.418   5.743 -0.0219  0.1004 -0.0106
    1AU    AUSL  221   4.455   0.868   5.702  0.0088  0.0943  0.0271
    1AU    AUSL  222   4.731   1.178   5.889  0.0532  0.0387 -0.1148
    1AU     AUL  223   4.773   0.899   5.551  0.0172  0.0464 -0.0266
    1AU       S  224   4.453   1.213   5.423 -0.0932  0.2181  0.0513
    1AU     LIG  225   4.879   1.410   5.389 -0.0383 -0.1765 -0.0333
    1AU     LIG  226   5.260   1.298   5.303  0.0889  0.3436 -0.0089
    1AU     LIG  227   5.630   1.206   5.559  0.0284  0.0345  0.1957
    1AU     LIG  228   5.967   0.810   5.450 -0.1179 -0.1078  0.0224
    1AU     LIG  229   6.140   0.859   4.945 -0.3046  0.2881 -0.0558
    1AU       S  230   5.088   1.180   5.777  0.0011 -0.0206 -0.1996
    1AU     LIG  231   5.270   1.515   5.759  0.1649  0.3475  0.2089
    1AU     LIG  232   5.064   1.849   5.907 -0.0548  0.2114  0.2399
    1AU     LIG  233   5.020   2.173   6.277 -0.0698  0.2336 -0.0340
    1AU     LIG  234   4.904   2.491   6.569  0.1316  0.3085  0.0187
    1AU     LIG  235   5.004   2.779   6.858 -0.4502 -0.0175  0.2265
    1AU    AUSL  236   4.304   1.209   5.911 -0.0183 -0.0293  0.0002
    1AU    AUSL  237   3.834   1.196   6.015  0.0053 -0.0964  0.0583
    1AU     AUL  238   3.898   1.323   5.697  0.0055  0.1047 -0.0525
    1AU       S  239   3.682   1.712   5.753  0.0637 -0.1291  0.7529
    1AU     LIG  240   3.177   1.700   5.957 -0.0575 -0.0601  0.2017
    1AU     LIG  241   2.802   1.817   6.191 -0.2283  0.1737 -0.0639
    1AU     LIG  242   2.434   1.855   6.447 -0.1088 -0.3507  0.0776
    1AU     LIG  243   2.223   2.056   6.647 -0.1010  0.1203 -0.2111
    1AU     LIG  244   1.937   2.433   6.587  0.0141  0.4051  0.2863
    1AU       S  245   4.402   1.322   5.631  0.0575  0.0188 -0.0648
    1AU     LIG  246   4.510   1.687   5.730  0.1300  0.0840 -0.0031
    1AU     LIG  247   4.722   2.060   5.552  0.0863  0.3066  0.0325
    1AU     LIG  248   4.802   2.393   5.720 -0.0358 -0.1838  0.2128
    1AU     LIG  249   4.964   2.614   6.028 -0.0305 -0.1370 -0.4853
    1AU     LIG  250   5.137   2.927   6.141 -0.0227 -0.2115  0.0252
    1AU    AUSL  251   3.307   0.756   6.960  0.0804  0.0143 -0.0570
    1AU    AUSL  252   3.450   1.171   7.007 -0.0236 -0.0302 -0.1397
    1AU     AUL  253   3.119   0.980   7.171  0.0449  0.0116 -0.0184
    1AU       S  254   3.203   1.435   7.076 -0.1559 -0.1151 -0.0044
    1AU     LIG  255   3.113   1.866   7.164 -0.0147  0.3236  0.1622
    1AU     LIG  256   2.961   2.313   7.274  0.2135 -0.0636  0.0536
    1AU     LIG  257   2.711   2.677   7.116  0.1223  0.3218 -0.2196
    1AU     LIG  258   2.721   3.097   7.089 -0.0090 -0.0505  0.1014
    1AU     LIG  259   2.628   3.490   6.924 -0.3855  0.2536  0.5045
    1AU       S  260   2.993   0.675   6.839  0.1782  0.0753 -0.3219
    1AU     LIG  261   2.642   0.879   6.609  0.0785  0.2811  0.0663
    1AU     LIG  262   2.322   0.956   6.324  0.1342  0.0033  0.1382
    1AU     LIG  263   1.920   1.006   6.398  0.3252  0.4316 -0.0540
    1AU     LIG  264   1.788   1.337   6.226  0.6596  0.3116  0.0059
    1AU     LIG  265   1.604   1.719   6.257  0.1811  0.0785 -0.0723
    1AU    AUSL  266   3.706   0.592   7.104 -0.0399 -0.0519 -0.1057
    1AU    AUSL  267   3.393   0.353   6.826 -0.0080 -0.0469 -0.0194
    1AU     AUL  268   3.349   0.406   7.150 -0.0504  0.0513  0.0227
    1AU       S  269   3.765   0.205   7.499 -0.0215 -0.0565 -0.3757
    1AU     LIG  270   3.604  -0.112   7.832 -0.0276 -0.0951 -0.0045
    1AU     LIG  271   3.249  -0.339   7.817  0.2746 -0.0163 -0.0464
    1AU     LIG  272   2.965  -0.571   7.554  0.0506 -0.1390  0.0722
    1AU     LIG  273   2.657  -0.544   7.172 -0.5505  0.2113 -0.1910
    1AU     LIG  274   2.389  -0.620   6.828  0.2216 -0.0582  0.2683
    1AU       S  275   3.124   0.174   6.815 -0.2551  0.3214  0.0310
    1AU     LIG  276   2.952  -0.059   6.568 -0.1426  0.0365 -0.0008
    1AU     LIG  277   2.706  -0.511   6.464  0.5813 -0.1818 -0.2554
    1AU     LIG  278   2.365  -0.653   6.260 -0.5090  0.1743  0.0375
    1AU     LIG  279   1.863  -0.709   6.137  0.3111  0.3515 -0.1127
    1AU     LIG  280   1.627  -0.764   5.755 -0.1286  0.0679  0.2325
    1AU    AUSL  281   3.541   0.927   7.329  0.0065 -0.0556 -0.0188
    1AU    AUSL  282   3.886   0.648   7.479 -0.0355 -0.0379 -0.0595
    1AU     AUL  283   3.526   0.642   7.488  0.0697 -0.0350  0.0250
    1AU       S  284   3.867   0.932   7.706  0.1032  0.1721  0.0515
    1AU     LIG  285   3.483   0.837   7.923 -0.0510  0.0445 -0.1684
    1AU     LIG  286   2.973   0.685   8.047 -0.2020 -0.1610  0.1637
    1AU     LIG  287   2.633   0.923   7.859 -0.0207  0.2146 -0.1900
    1AU     LIG  288   2.510   0.846   7.402 -0.1397 -0.0149 -0.0044
    1AU     LIG  289   2.347   0.774   6.973  0.1197  0.4229  0.0508
    1AU       S  290   3.435   1.129   7.506  0.1833 -0.1289 -0.4640
    1AU     LIG  291   3.081   0.977   7.644 -0.0906  0.0871 -0.0706
    1AU     LIG  292   2.816   1.255   7.494 -0.0165 -0.1770 -0.2402
    1AU     LIG  293   2.555   1.612   7.364  0.1933 -0.0622  0.0673
    1AU     LIG  294   2.571   1.923   7.159 -0.1986  0.0635  0.1414
    1AU     LIG  295   2.632   2.242   6.830  0.1031  0.0431  0.0367
    1AU    AUSL  296   4.971   1.032   6.228  0.1364  0.0856 -0.0085
    1AU    AUSL  297   4.615   1.324   6.283  0.0790 -0.1104  0.0832
    1AU     AUL  298   4.821   1.418   6.056  0.0785  0.0199  0.0402
    1AU       S  299   5.248   1.041   6.078 -0.1984  0.1981  0.1929
    1AU     LIG  300   5.737   1.262   6.083 -0.0810  0.0641  0.2841
    1AU     LIG  301   5.738   1.506   6.492 -0.1802 -0.2627 -0.1120
    1AU     LIG  302   5.715   2.041   6.464  0.1273  0.1139 -0.0546
    1AU     LIG  303   5.439   2.171   6.732  0.1075  0.1195  0.2183
    1AU     LIG  304   5.089   2.101   6.801  0.1292  0.0738 -0.2325
    1AU       S  305   5.181   1.559   6.283 -0.4436  0.1760  0.1540
    1AU     LIG  306   5.539   1.769   6.103  0.0690 -0.3155 -0.0574
    1AU     LIG  307   5.466   2.202   6.024  0.0355 -0.1433 -0.0711
    1AU     LIG  308   5.396   2.500   6.310 -0.3216  0.1894  0.2413
    1AU     LIG  309   5.445   2.822   6.612 -0.3577  0.1180 -0.1275
    1AU     LIG  310   5.845   2.916   6.789  0.1155 -0.2889  0.4704
    1AU    AUSL  311   4.655   0.797   6.069  0.0402 -0.0239 -0.0238
    1AU    AUSL  312   5.006   0.614   6.275  0.0196  0.0059  0.0313
    1AU     AUL  313   4.963   0.675   5.954  0.0515  0.0184  0.0301
    1AU       S  314   5.181   1.073   5.817 -0.4524  0.0851  0.3740
    1AU     LIG  315   5.493   0.649   5.695  0.0987 -0.3701  0.1184
    1AU     LIG  316   5.491   0.260   5.744 -0.2332  0.1448 -0.3987
    1AU     LIG  317   5.375  -0.123   5.837  0.2707  0.1477 -0.0333
    1AU     LIG  318   5.288  -0.364   6.254  0.2957  0.1272 -0.2511
    1AU     LIG  319   5.501  -0.723   6.411  0.1187 -0.2921 -0.0582
    1AU       S  320   5.173   0.286   6.159  0.3307  0.3567  0.4324
    1AU     LIG  321   5.598   0.169   6.276  0.2887  0.0074  0.1585
    1AU     LIG  322   5.798  -0.139   6.465 -0.2050  0.2048 -0.2125
    1AU     LIG  323   5.968  -0.531   6.590  0.2669  0.0649  0.1079
    1AU     LIG  324   6.014  -0.890   6.817  0.0574  0.2513  0.3430
    1AU     LIG  325   5.945  -0.852   7.281 -0.0225  0.0449  0.1226
    1AU    AUSL  326   4.273   0.862   7.463  0.0320  0.1670  0.0834
    1AU    AUSL  327   4.163   0.430   7.242 -0.0132 -0.0435 -0.0205
    1AU     AUL  328   4.164   0.537   7.623 -0.0192 -0.0306  0.0425
    1AU       S  329   4.320   0.149   7.406  0.0829 -0.4742  0.1844
    1AU     LIG  330   4.029  -0.210   7.561  0.2860 -0.0387  0.2460
    1AU     LIG  331   3.743  -0.525   7.657  0.0086  0.1580 -0.3342
    1AU     LIG  332   3.686  -0.922   7.570 -0.0700  0.0259 -0.1807
    1AU     LIG  333   3.725  -1.312   7.313 -0.0336 -0.0485  0.0779
    1AU     LIG  334   4.131  -1.231   7.139  0.4367 -0.4098  0.2341
    1AU       S  335   4.061   0.939   7.854  0.3392  0.1387  0.1905
    1AU     LIG  336   4.270   0.759   8.119  0.3575  0.2723  0.2021
    1AU     LIG  337   4.386   0.315   8.194  0.0952  0.1687  0.1424
    1AU     LIG  338   4.591   0.007   8.101 -0.5047  0.2317  0.2640
    1AU     LIG  339   5.128  -0.024   7.954 -0.0368  0.0024 -0.1142
    1AU     LIG  340   5.471  -0.388   7.977 -0.3367 -0.2579 -0.6387
    1AU    AUSL  341   3.932   1.029   7.261  0.0906  0.0257 -0.0049
    1AU    AUSL  342   4.357   1.202   7.233  0.1088  0.0245 -0.0114
    1AU     AUL  343   4.237   1.229   7.488  0.0034  0.0087 -0.0019
    1AU       S  344   4.423   1.633   7.590  0.0409 -0.1035 -0.1966
    1AU     LIG  345   4.536   1.360   7.838  0.3346 -0.4056  0.1672
    1AU     LIG  346   4.705   1.411   8.247  0.3227  0.0535 -0.0948
    1AU     LIG  347   4.541   1.763   8.455  0.2385 -0.0674 -0.0175
    1AU     LIG  348   4.287   2.094   8.749 -0.0501 -0.0495  0.0655
    1AU     LIG  349   3.962   1.916   9.044  0.1502  0.3861 -0.3052
    1AU       S  350   3.862   1.088   7.691 -0.4229  0.2136  0.3912
    1AU     LIG  351   3.983   1.437   7.886  0.4572 -0.2756 -0.0610
    1AU     LIG  352   4.165   1.649   8.098  0.0486 -0.0857 -0.1666
    1AU     LIG  353   4.184   2.047   8.216 -0.3643  0.1221 -0.1406
    1AU     LIG  354   3.870   2.361   8.065 -0.1861 -0.4389  0.2939
    1AU     LIG  355   3.681   2.597   7.769  0.0147  0.1689  0.1726
    1AU    AUSL  356   3.454   1.234   6.282  0.0042 -0.0171 -0.0174
    1AU    AUSL  357   3.271   1.055   6.649 -0.0090  0.0579 -0.0033
    1AU     AUL  358   3.276   1.495   6.425  0.0474 -0.0972 -0.0369
    1AU       S  359   3.047   1.166   6.695  0.2379  0.0230  0.2359
    1AU     LIG  360   2.617   1.210   6.945  0.0160 -0.0737  0.1323
    1AU     LIG  361   2.216   1.234   7.071 -0.0380  0.0030  0.2783
    1AU     LIG  362   1.931   1.143   6.914  0.2307  0.0138  0.1832
    1AU     LIG  363   1.576   1.342   6.662 -0.1040 -0.6294 -0.3525
    1AU     LIG  364   1.203   1.366   6.337 -0.2639  0.1372 -0.3143
    1AU       S  365   3.018   1.282   6.128 -0.8117 -0.1228 -0.1105
    1AU     LIG  366   2.686   1.375   6.371 -0.1574 -0.1674 -0.4157
    1AU     LIG  367   2.295   1.381   6.590 -0.3672 -0.2725 -0.2317
    1AU     LIG  368   2.014   1.601   6.777 -0.1428 -0.0065  0.3682
    1AU     LIG  369   1.709   1.905   6.717  0.3095  0.1975  0.0040
    1AU     LIG  370   1.293   2.216   6.745 -0.2057  0.2626  0.1531
    1AU    AUSL  371   3.230   0.836   6.293 -0.0084 -0.0032 -0.1124
    1AU    AUSL  372   3.474   0.555   6.021  0.0364 -0.0149 -0.0013
    1AU     AUL  373   3.128   0.638   5.970 -0.0334  0.0499 -0.0293
    1AU       S  374   2.998   1.027   6.234 -0.1217  0.1244 -0.1205
    1AU     LIG  375   2.716   0.590   6.250  0.1809 -0.0898  0.0552
    1AU     LIG  376   2.357   0.500   6.158  0.0534 -0.3341 -0.2775
    1AU     LIG  377   1.965   0.472   6.216 -0.1372 -0.6408 -0.1107
    1AU     LIG  378   1.620   0.590   6.396  0.5077  0.2262 -0.0990
    1AU     LIG  379   1.408   0.892   6.617  0.0216 -0.1101 -0.0827
    1AU       S  380   3.168   0.192   6.076  0.1040 -0.2631  0.2988
    1AU     LIG  381   2.785   0.173   5.973 -0.0613 -0.1581  0.0711
    1AU     LIG  382   2.542  -0.016   6.224 -0.0895 -0.1638 -0.0357
    1AU     LIG  383   2.349  -0.053   6.689  0.1322 -0.1720  0.0801
    1AU     LIG  384   1.848   0.091   6.820 -0.0730  0.5921  0.1792
    1AU     LIG  385   1.458  -0.072   6.926  0.1332 -0.0694 -0.0509
    1AU    AUSL  386   3.481   0.986   5.936 -0.0617  0.0710 -0.0353
    1AU    AUSL  387   3.672   1.583   6.176 -0.0770 -0.1114  0.0711
    1AU     AUL  388   3.479   1.334   5.938  0.0507  0.0458 -0.0159
    1AU       S  389   3.643   1.813   5.978 -0.5753 -0.1460 -0.0037
    1AU     LIG  390   3.787   2.211   6.064  0.0387 -0.1906 -0.2771
    1AU     LIG  391   3.685   2.486   6.439  0.0204  0.1311  0.1948
    1AU     LIG  392   3.381   2.713   6.424 -0.1465  0.0288  0.0786
    1AU     LIG  393   3.072   2.943   6.232  0.0088 -0.1564  0.4307
    1AU     LIG  394   2.949   3.294   6.168 -0.1147 -0.1314  0.1356
    1AU       S  395   3.077   1.131   5.960  0.0678 -0.1171 -0.0566
    1AU     LIG  396   2.673   0.919   5.873 -0.1585  0.5575 -0.3154
    1AU     LIG  397   2.270   0.769   5.801 -0.1699 -0.1031  0.3833
    1AU     LIG  398   1.913   0.510   5.636  0.1333 -0.1919  0.0232
    1AU     LIG  399   1.665   0.252   5.882 -0.3893 -0.1234  0.0240
    1AU     LIG  400   1.494   0.081   6.307 -0.0895  0.1543  0.2320
    1AU    AUSL  401   4.658   1.319   6.952 -0.0368  0.0147 -0.0508
    1AU    AUSL  402   4.919   1.256   6.591 -0.0322 -0.0047  0.1222
    1AU     AUL  403   4.939   1.556   6.853 -0.0602  0.0008 -0.0234
    1AU       S  404   5.136   1.373   7.235  0.3681 -0.0759 -0.3937
    1AU     LIG  405   5.526   1.500   7.393 -0.2713 -0.3215 -0.0547
    1AU     LIG  406   5.953   1.340   7.477 -0.0277  0.1452 -0.0916
    1AU     LIG  407   6.297   1.514   7.142  0.1579 -0.2148 -0.1135
    1AU     LIG  408   6.553   1.881   6.967 -0.4143 -0.1357 -0.0637
    1AU     LIG  409   6.800   2.175   6.772  0.3056 -0.0105 -0.0735
    1AU       S  410   5.168   1.401   6.479  0.1364 -0.1042 -0.0294
    1AU     LIG  411   5.460   1.106   6.572  0.2184 -0.1395  0.2765
    1AU     LIG  412   5.859   1.018   6.478 -0.0638 -0.3094  0.1614
    1AU     LIG  413   6.167   0.713   6.658  0.4645 -0.0572 -0.0650
    1AU     LIG  414   6.521   0.376   6.833 -0.0196  0.0373 -0.0711
    1AU     LIG  415   6.779   0.450   7.084 -0.2281  0.2697  0.2124
    1AU    AUSL  416   4.721   1.022   7.295 -0.0073  0.0605 -0.0576
    1AU    AUSL  417   4.415   1.618   7.117 -0.0319  0.0013 -0.0321
    1AU     AUL  418   4.674   1.374   7.321 -0.0840 -0.0135  0.0338
    1AU       S  419   5.141   1.169   7.411  0.2553 -0.0867  0.0283
    1AU     LIG  420   5.485   0.855   7.379 -0.1307  0.2035 -0.0481
    1AU     LIG  421   5.921   0.828   7.389  0.1905 -0.1936  0.0869
    1AU     LIG  422   6.315   0.892   7.319  0.4029  0.1923 -0.2073
    1AU     LIG  423   6.567   1.022   7.093  0.0235  0.1385  0.2501
    1AU     LIG  424   6.724   0.859   6.666  0.2369 -0.0649 -0.1463
    1AU       S  425   4.437   1.774   7.384 -0.2219 -0.1146 -0.0862
    1AU     LIG  426   4.802   1.942   7.196 -0.3444 -0.1665  0.0894
    1AU     LIG  427   5.178   1.865   7.201 -0.0936  0.3733  0.1412
    1AU     LIG  428   5.649   2.054   7.237 -0.0563  0.1077  0.1277
    1AU     LIG  429   5.960   2.246   7.016 -0.0770 -0.2063 -0.3751
    1AU     LIG  430   6.361   2.350   6.978  0.1287  0.1359 -0.2983
    1AU    AUSL  431   4.976   1.045   6.948 -0.0059 -0.0142  0.0550
    1AU    AUSL  432   4.712   0.703   6.992 -0.0799  0.0108  0.0200
    1AU     AUL  433   4.953   0.787   7.260  0.0254 -0.0066  0.0608
    1AU       S  434   5.276   0.673   6.952 -0.1709  0.4227  0.0258
    1AU     LIG  435   5.700   0.602   6.953  0.2925  0.1054  0.0271
    1AU     LIG  436   5.916   0.285   6.652  0.3273 -0.0809 -0.2328
    1AU     LIG  437   6.136   0.249   6.288  0.1174  0.2267 -0.1350
    1AU     LIG  438   6.069  -0.077   6.050  0.2694  0.2902  0.3296
    1AU     LIG  439   5.831  -0.094   5.753  0.0288  0.1564 -0.2532
    1AU       S  440   5.153   1.148   7.026 -0.0541  0.0842  0.3056
    1AU     LIG  441   5.627   1.171   7.026 -0.0817  0.0271 -0.2148
    1AU     LIG  442   6.068   1.126   7.025 -0.0661  0.0017  0.2034
    1AU     LIG  443   6.268   1.329   6.619 -0.0224 -0.1325  0.0037
    1AU     LIG  444   6.222   1.526   6.241  0.0346  0.0189 -0.0752
    1AU     LIG  445   6.473   1.838   6.062  0.0437 -0.2244  0.3048
    1AU    AUSL  446   3.611   0.173   6.244 -0.0144  0.0262  0.0161
    1AU    AUSL  447   3.833   0.716   5.902 -0.0119  0.0616 -0.0031
    1AU     AUL  448   3.588   0.298   5.898 -0.0688  0.0364  0.0824
    1AU       S  449   3.250   0.015   6.192  0.4130  0.2179  0.0173
    1AU     LIG  450   3.302  -0.369   6.430 -0.0918  0.3398  0.0310
    1AU     LIG  451   3.482  -0.634   6.721  0.2148  0.2775 -0.0534
    1AU     LIG  452   3.570  -1.112   6.868 -0.0126 -0.1977 -0.3656
    1AU     LIG  453   3.833  -1.428   6.689 -0.3358 -0.2372 -0.0739
    1AU     LIG  454   3.800  -1.719   6.373  0.1308  0.0535  0.3943
    1AU       S  455   3.678   0.649   5.590 -0.3619 -0.0183  0.4397
    1AU     LIG  456   3.227   0.637   5.516 -0.4975 -0.0142  0.2964
    1AU     LIG  457   2.758   0.458   5.489  0.2330 -0.1112  0.2583
    1AU     LIG  458   2.346   0.180   5.646  0.4672 -0.1612  0.0582
    1AU     LIG  459   2.107   0.068   6.028  0.1065  0.1594  0.0069
    1AU     LIG  460   2.028  -0.231   6.344  0.1605 -0.0237 -0.0110
    1AU    AUSL  461   3.464   0.540   6.455 -0.0067 -0.0627  0.0235
    1AU    AUSL  462   3.783   0.274   6.619  0.0113  0.0527 -0.0494
    1AU     AUL  463   3.520   0.081   6.574  0.0590 -0.0217  0.0795
    1AU       S  464   3.106   0.359   6.384 -0.6192  0.4202  0.1777
    1AU     LIG  465   2.665   0.383   6.663 -0.0012 -0.0827 -0.0562
    1AU     LIG  466   2.196   0.398   6.723 -0.0577  0.2294  0.3751
    1AU     LIG  467   1.822   0.622   6.845 -0.2800 -0.1121 -0.1785
    1AU     LIG  468   1.372   0.438   6.912  0.3254 -0.1074 -0.1596
    1AU     LIG  469   1.128   0.439   6.558  0.0037  0.2745  0.0260
    1AU       S  470   3.339  -0.098   6.951  0.3206 -0.2557 -0.4106
    1AU     LIG  471   3.125  -0.413   7.000  0.1395 -0.1836 -0.2185
    1AU     LIG  472   2.984  -0.770   6.790 -0.1186 -0.1458 -0.2852
    1AU     LIG  473   3.116  -1.129   6.720  0.1007 -0.1066  0.0872
    1AU     LIG  474   3.221  -1.518   6.672 -0.2781 -0.0024  0.0021
    1AU     LIG  475   3.239  -1.811   6.359 -0.0820  0.0951  0.0104
    1AU    AUSL  476   4.877   0.344   6.816  0.0379 -0.0255 -0.0740
    1AU    AUSL  477   4.562   0.560   7.355 -0.0975  0.0012 -0.0574
    1AU     AUL  478   4.817   0.351   7.174 -0.0791  0.0260  0.0134
    1AU       S  479   4.532   0.250   7.557  0.1989 -0.1872  0.2932
    1AU     LIG  480   4.905   0.453   7.745  0.3659 -0.2475  0.1310
    1AU     LIG  481   5.154   0.758   7.829  0.2543  0.0963 -0.2953
    1AU     LIG  482   5.357   0.866   8.106  0.2073 -0.3556 -0.0633
    1AU     LIG  483   5.599   0.790   8.432 -0.0399  0.2127  0.3400
    1AU     LIG  484   5.678   0.893   8.900 -0.0675  0.3173  0.0099
    1AU       S  485   5.211   0.496   6.954 -0.3894 -0.2047 -0.2258
    1AU     LIG  486   5.436   0.157   6.857 -0.0396 -0.2836 -0.1565
    1AU     LIG  487   5.380  -0.259   6.748  0.1091 -0.0243  0.2468
    1AU     LIG  488   5.553  -0.597   6.867  0.0735 -0.0683  0.1437
    1AU     LIG  489   5.553  -1.030   6.884 -0.1844  0.1175  0.2580
    1AU     LIG  490   5.896  -1.386   6.944 -0.2912  0.3409 -0.0083
    1AU    AUSL  491   4.935   0.771   6.639  0.0364  0.0205  0.0350
    1AU    AUSL  492   4.694   0.361   6.445 -0.0028  0.1074 -0.0451
    1AU     AUL  493   5.043   0.382   6.560 -0.0649 -0.0167 -0.0852
    1AU       S  494   5.247   0.727   6.778 -0.0379  0.5572  0.1122
    1AU     LIG  495   5.459   0.639   6.459  0.1841 -0.0562 -0.1070
    1AU     LIG  496   5.700   0.620   6.127 -0.2329  0.0634  0.0045
    1AU     LIG  497   6.100   0.791   5.998  0.3261 -0.0359 -0.0670
    1AU     LIG  498   6.172   1.179   5.842 -0.3010  0.2658 -0.0155
    1AU     LIG  499   5.975   1.612   5.724  0.0875 -0.1792  0.0270
    1AU       S  500   4.999   0.062   6.183  0.1053 -0.3201 -0.1337
    1AU     LIG  501   4.973  -0.142   6.550  0.2517 -0.1699  0.0379
    1AU     LIG  502   5.069  -0.093   7.041  0.4378 -0.2064  0.0482
    1AU     LIG  503   5.166  -0.415   7.235 -0.0697  0.1069 -0.0391
    1AU     LIG  504   5.464  -0.588   7.523 -0.1335 -0.1322 -0.2744
    1AU     LIG  505   5.831  -0.493   7.697  0.3154 -0.3134  0.0494
    2POPC   NC3  506   8.320   1.432   9.011 -0.2447 -0.1983  0.2481
    2POPC   PO4  507   8.016   1.447   8.675 -0.1821 -0.0054 -0.1356
    2POPC   GL1  508   7.811   1.221   8.324  0.4309  0.3092  0.0010
    2POPC   GL2  509   7.649   0.910   8.300  0.1904 -0.0524  0.4592
    2POPC   C1A  510   7.531   1.276   7.916 -0.1471 -0.0379  0.2865
    2POPC   D2A  511   7.355   1.118   7.606  0.0572 -0.1979  0.1053
    2POPC   C3A  512   7.245   0.762   7.528 -0.2511  0.0224  0.0885
    2POPC   C4A  513   7.280   0.563   7.181 -0.2257  0.0710  0.2229
    2POPC   C1B  514   7.396   0.667   8.003  0.0850  0.1965 -0.1423
    2POPC   C2B  515   7.021   0.642   7.979 -0.2468  0.1784  0.1412
    2POPC   C3B  516   6.757   0.962   7.613  0.1363  0.2271 -0.1553
    2POPC   C4B  517   6.447   1.277   7.551  0.0639 -0.0914  0.3243
    3POPC   NC3  518   0.734   7.585   8.941 -0.1038 -0.2247  0.0475
    3POPC   PO4  519   1.090   7.722   8.683 -0.0859 -0.1842 -0.0124
    3POPC   GL1  520   0.973   7.789   8.242 -0.3581 -0.0129  0.1650
    3POPC   GL2  521   1.183   7.841   7.936 -0.0987  0.1872 -0.0667
    3POPC   C1A  522   0.731   7.598   7.903  0.1330  0.0494  0.1041
    3POPC   D2A  523   0.334   7.654   7.666 -0.2545 -0.1175 -0.0248
    3POPC   C3A  524   0.163   7.229   7.643  0.0213  0.3054  0.0560
    3POPC   C4A  525   0.027   6.949   7.904 -0.0712  0.3770 -0.3391
    3POPC   C1B  526   1.103   8.131   7.592  0.2491 -0.0751 -0.1272
    3POPC   C2B  527   0.934   8.326   7.224  0.1616 -0.0194 -0.2960
    3POPC   C3B  528   0.963   8.499   6.731 -0.2541  0.0002  0.3124
    3POPC   C4B  529   1.409   8.419   6.523  0.0115  0.3606  0.2365
    4POPC   NC3  530   7.751   9.438   8.566 -0.1497 -0.1437 -0.3376
    4POPC   PO4  531   8.197   9.537   8.599 -0.2266 -0.0092  0.0692
    4POPC   GL1  532   8.476   9.595   8.234 -0.0082 -0.2583 -0.0486
    4POPC   GL2  533   8.639   9.345   8.242 -0.2512 -0.1958  0.1355
    4POPC   C1A  534   8.627   9.714   7.833 -0.1941 -0.1394  0.1112
    4POPC   D2A  535   8.618   9.904   7.459  0.2066  0.1422 -0.1031
    4POPC   C3A  536   8.400   9.964   7.079 -0.1952 -0.2734  0.0280
    4POPC   C4A  537   8.394  10.255   6.698 -0.0076  0.1647 -0.0132
    4POPC   C1B  538   8.242   9.362   7.902 -0.2473  0.0223 -0.1058
    4POPC   C2B  539   7.818   9.368   7.690 -0.1719  0.1240 -0.2488
    4POPC   C3B  540   7.543   9.318   7.315 -0.2771 -0.3571 -0.2127
    4POPC   C4B  541   7.458   9.216   6.888 -0.0452 -0.0367 -0.0596
    5POPC   NC3  542   9.846   1.703   8.634 -0.2495  0.0782 -0.1435
    5POPC   PO4  543   9.923   2.104   8.689 -0.1106 -0.1061 -0.0943
    5POPC   GL1  544  10.108   2.051   8.320  0.0001  0.0320 -0.0832
    5POPC   GL2  545  10.195   2.329   8.236 -0.0268 -0.2041 -0.1432
    5POPC   C1A  546  10.008   1.872   7.914  0.1118 -0.0581  0.2462
    5POPC   D2A  547   9.919   1.895   7.470  0.1156 -0.0644  0.1747
    5POPC   C3A  548   9.490   1.772   7.198  0.1311  0.1816 -0.0677
    5POPC   C4A  549   9.409   1.794   6.823  0.1171 -0.2786  0.0355
    5POPC   C1B  550  10.240   2.438   7.783 -0.1778  0.1284 -0.4934
    5POPC   C2B  551  10.082   2.290   7.331  0.1658 -0.1940 -0.3537
    5POPC   C3B  552   9.703   2.281   7.123  0.0979 -0.1447 -0.0692
    5POPC   C4B  553   9.256   2.206   7.045 -0.2186  0.0082 -0.0783
    6POPC   NC3  554   7.316   5.787   8.838  0.0894  0.1784  0.0644
    6POPC   PO4  555   7.555   6.121   8.730 -0.1571 -0.1411  0.1636
    6POPC   GL1  556   7.750   6.009   8.361 -0.2885 -0.2391  0.0163
    6POPC   GL2  557   8.029   6.148   8.422 -0.1372  0.0621  0.1028
    6POPC   C1A  558   7.705   5.877   7.993  0.3066  0.2429 -0.0812
    6POPC   D2A  559   7.840   5.775   7.583  0.3077 -0.1219  0.1883
    6POPC   C3A  560   8.252   5.480   7.657 -0.0184  0.1003 -0.0072
    6POPC   C4A  561   8.529   5.468   7.962 -0.0980 -0.1205  0.1482
    6POPC   C1B  562   8.082   6.193   7.935  0.1788  0.2065  0.0512
    6POPC   C2B  563   8.104   6.665   7.643  0.0405  0.0523  0.2145
    6POPC   C3B  564   8.027   7.041   7.423  0.0044  0.1958 -0.0809
    6POPC   C4B  565   7.704   7.142   7.204  0.2425  0.1306  0.1887
    7POPC   NC3  566   3.470   7.329   8.616  0.2596 -0.2156  0.2822
    7POPC   PO4  567   3.638   7.680   8.676 -0.1088 -0.0950  0.0927
    7POPC   GL1  568   3.642   8.076   8.279 -0.1278  0.1523 -0.1547
    7POPC   GL2  569   3.202   8.207   8.243  0.1117  0.1444 -0.2399
    7POPC   C1A  570   3.808   8.154   7.923 -0.0069 -0.0849 -0.0422
    7POPC   D2A  571   4.105   8.151   7.496  0.0422  0.0439 -0.0923
    7POPC   C3A  572   4.242   8.222   7.051  0.1850  0.1169  0.2240
    7POPC   C4A  573   4.004   8.130   6.667 -0.3148  0.0223 -0.1137
    7POPC   C1B  574   3.223   8.287   7.820 -0.0916 -0.0774 -0.0998
    7POPC   C2B  575   2.974   8.065   7.479 -0.1796  0.1826 -0.3519
    7POPC   C3B  576   3.193   8.166   7.100 -0.1374  0.0243  0.3902
    7POPC   C4B  577   2.953   7.902   6.817 -0.2978 -0.1494  0.0450
    8POPC   NC3  578   0.519   6.089   8.754 -0.0663 -0.0949  0.1124
    8POPC   PO4  579   0.875   5.862   8.521 -0.0508 -0.2934 -0.0142
    8POPC   GL1  580   0.972   5.893   8.094  0.0127 -0.2306  0.0442
    8POPC   GL2  581   0.981   5.659   7.798  0.1374  0.1255 -0.0077
    8POPC   C1A  582   1.249   6.136   7.759  0.1340 -0.1810  0.0317
    8POPC   D2A  583   1.588   6.279   7.565  0.1205 -0.0320 -0.3257
    8POPC   C3A  584   1.560   6.398   7.118  0.0431  0.1319 -0.1608
    8POPC   C4A  585   1.759   6.305   6.798  0.0185  0.1620 -0.1483
    8POPC   C1B  586   0.730   5.454   7.424 -0.3325 -0.0642  0.1847
    8POPC   C2B  587   0.587   5.286   6.985 -0.1796 -0.1303 -0.1148
    8POPC   C3B  588   0.742   5.453   6.613  0.0279  0.0050  0.1485
    8POPC   C4B  589   0.786   5.276   6.329  0.1589 -0.1592 -0.2518
    9POPC   NC3  590   8.748  10.356   8.518 -0.2513 -0.3153  0.3128
    9POPC   PO4  591   9.137  10.145   8.593 -0.1639 -0.0174  0.1098
    9POPC   GL1  592   9.377  10.054   8.270  0.2387  0.1539 -0.3463
    9POPC   GL2  593   9.428   9.847   8.194 -0.0405  0.1290  0.0253
    9POPC   C1A  594   9.575  10.221   7.943  0.0615 -0.0432 -0.1152
    9POPC   D2A  595   9.507  10.168   7.464 -0.0871 -0.1760  0.0320
    9POPC   C3A  596   9.610  10.517   7.304 -0.2318 -0.2565  0.0210
    9POPC   C4A  597   9.707  10.606   6.844 -0.0976 -0.2932  0.1471
    9POPC   C1B  598   9.558   9.692   7.725  0.0922  0.2736  0.0020
    9POPC   C2B  599   9.590   9.606   7.292  0.1535  0.0161 -0.0975
    9POPC   C3B  600   9.676   9.277   6.948 -0.3283  0.0472  0.0420
    9POPC   C4B  601   9.578   8.940   6.911  0.0798  0.1058  0.0705
   10POPC   NC3  602   3.616   3.554   9.017  0.1975 -0.0793  0.0986
   10POPC   PO4  603   3.208   3.446   8.977 -0.0563 -0.2786  0.3483
   10POPC   GL1  604   3.105   3.628   8.541 -0.1669  0.0896 -0.2836
   10POPC   GL2  605   2.792   3.511   8.400 -0.2295 -0.1294 -0.1677
   10POPC   C1A  606   3.386   3.590   8.240 -0.3187 -0.2811  0.0050
   10POPC   D2A  607   3.296   3.581   7.794  0.1231 -0.0606  0.1229
   10POPC   C3A  608   3.150   3.917   7.446 -0.1327  0.1538  0.0216
   10POPC   C4A  609   3.055   3.828   7.013 -0.4267 -0.3053  0.2147
   10POPC   C1B  610   2.492   3.182   8.125  0.1702  0.0037 -0.2872
   10POPC   C2B  611   2.455   3.150   7.627  0.0921  0.1862 -0.0361
   10POPC   C3B  612   2.315   3.298   7.275 -0.0778  0.3868 -0.0258
   10POPC   C4B  613   2.114   3.587   7.264 -0.1990 -0.0351  0.1132
   11POPC   NC3  614   3.689   4.385   8.765 -0.0651 -0.1217 -0.0548
   11POPC   PO4  615   3.261   4.411   8.599 -0.2310  0.1677  0.3036
   11POPC   GL1  616   3.382   4.106   8.303  0.0575  0.1071  0.2176
   11POPC   GL2  617   3.090   4.243   8.077 -0.3083 -0.0549  0.3515
   11POPC   C1A  618   3.659   3.923   7.940 -0.0247 -0.0725 -0.2061
   11POPC   D2A  619   3.998   3.706   7.576 -0.1640 -0.1750  0.2110
   11POPC   C3A  620   4.003   3.422   7.388  0.0298 -0.0058  0.5097
   11POPC   C4A  621   3.692   3.014   7.325  0.3276  0.3333  0.0943
   11POPC   C1B  622   3.143   4.366   7.684 -0.1370  0.0160  0.0900
   11POPC   C2B  623   3.316   4.464   7.366 -0.1098  0.3424 -0.1512
   11POPC   C3B  624   3.409   4.489   6.875  0.2309  0.0631  0.0482
   11POPC   C4B  625   3.401   4.605   6.428  0.0989  0.1376 -0.0680
   12POPC   NC3  626   7.610   5.341   8.748 -0.3118  0.1051 -0.1076
   12POPC   PO4  627   7.276   5.175   8.912  0.2959  0.0725  0.1621
   12POPC   GL1  628   7.326   5.228   8.403  0.0956  0.1965  0.0507
   12POPC   GL2  629   7.595   5.095   8.191  0.4312  0.0255  0.1402
   12POPC   C1A  630   7.178   5.435   7.986 -0.0746  0.0496 -0.3584
   12POPC   D2A  631   7.088   5.331   7.627  0.0858 -0.0400 -0.2024
   12POPC   C3A  632   7.386   5.197   7.338  0.0736  0.1567  0.0978
   12POPC   C4A  633   7.656   5.038   7.050 -0.1170  0.0385  0.0332
   12POPC   C1B  634   7.633   5.370   7.800  0.1959  0.3907  0.0186
   12POPC   C2B  635   7.884   5.217   7.456 -0.2041 -0.2261  0.0013
   12POPC   C3B  636   8.021   4.797   7.316  0.0167 -0.2843 -0.2676
   12POPC   C4B  637   7.815   4.596   6.944 -0.0976 -0.1941  0.0367
   13POPC   NC3  638   1.486   3.798   8.801  0.1029 -0.1781  0.1066
   13POPC   PO4  639   1.397   3.876   8.371 -0.0253 -0.1416  0.0788
   13POPC   GL1  640   1.526   4.020   7.974  0.0910 -0.3699  0.0784
   13POPC   GL2  641   1.375   3.692   7.757  0.0987 -0.1220 -0.0866
   13POPC   C1A  642   1.698   4.048   7.548 -0.0859  0.4230  0.0305
   13POPC   D2A  643   2.048   4.392   7.347  0.2189  0.0588  0.1789
   13POPC   C3A  644   1.908   4.520   6.864 -0.0093  0.0434 -0.2508
   13POPC   C4A  645   1.876   4.395   6.392 -0.1386  0.0741 -0.0956
   13POPC   C1B  646   1.431   3.675   7.346  0.0985 -0.1185 -0.1463
   13POPC   C2B  647   1.650   3.552   7.044  0.1327 -0.0673  0.1500
   13POPC   C3B  648   1.603   3.426   6.629 -0.1314 -0.2152  0.0301
   13POPC   C4B  649   1.378   3.651   6.296  0.2681  0.2857  0.0154
   14POPC   NC3  650   6.542   8.627   8.951  0.1970 -0.0721 -0.2272
   14POPC   PO4  651   7.042   8.782   8.769  0.1631 -0.2024  0.1741
   14POPC   GL1  652   6.933   8.980   8.328 -0.1403 -0.1359 -0.3557
   14POPC   GL2  653   7.095   8.778   8.251  0.2164 -0.0702  0.4061
   14POPC   C1A  654   6.960   9.090   7.854  0.2108 -0.1003 -0.1442
   14POPC   D2A  655   6.811   9.209   7.484  0.1451  0.1127  0.0045
   14POPC   C3A  656   6.921   9.407   7.084 -0.1014  0.1726  0.0717
   14POPC   C4A  657   7.078   9.588   6.724 -0.2896  0.4315  0.0715
   14POPC   C1B  658   7.169   8.641   7.904  0.1338  0.2133 -0.2182
   14POPC   C2B  659   7.086   8.313   7.605 -0.0304  0.1528  0.1365
   14POPC   C3B  660   7.094   7.892   7.458  0.2290  0.2563 -0.1495
   14POPC   C4B  661   6.961   7.532   7.703 -0.2088  0.1617 -0.0258
   15POPC   NC3  662   9.241   5.259   8.931 -0.0473  0.0442 -0.1212
   15POPC   PO4  663   9.458   5.500   8.678  0.1874  0.0895  0.0837
   15POPC   GL1  664   9.316   5.495   8.264 -0.0048  0.1782 -0.0030
   15POPC   GL2  665   9.073   5.639   7.961  0.1737  0.2733  0.0895
   15POPC   C1A  666   9.581   5.400   7.884 -0.3035  0.0340  0.3862
   15POPC   D2A  667   9.897   5.146   7.778  0.4464  0.2168 -0.2080
   15POPC   C3A  668   9.835   4.810   7.456 -0.2221 -0.1540 -0.1047
   15POPC   C4A  669   9.738   4.547   7.075 -0.0523  0.1698 -0.0431
   15POPC   C1B  670   8.945   5.710   7.635 -0.3382 -0.2393 -0.1983
   15POPC   C2B  671   9.113   5.851   7.322  0.3174  0.0304 -0.2077
   15POPC   C3B  672   9.302   5.605   6.906  0.2110  0.3999  0.0009
   15POPC   C4B  673   9.715   5.866   6.678 -0.0841  0.1562 -0.0964
   16POPC   NC3  674   1.732   1.886   9.027  0.0090 -0.1122 -0.0815
   16POPC   PO4  675   1.688   2.328   8.878 -0.0255 -0.0555 -0.1357
   16POPC   GL1  676   1.593   2.548   8.510 -0.2619  0.2713 -0.1880
   16POPC   GL2  677   1.490   2.715   8.226 -0.0249  0.0944  0.2305
   16POPC   C1A  678   1.967   2.614   8.206 -0.1380 -0.2016  0.0383
   16POPC   D2A  679   2.376   2.677   8.063 -0.1382 -0.2522 -0.1576
   16POPC   C3A  680   2.494   2.524   7.696 -0.2755  0.0535 -0.2843
   16POPC   C4A  681   2.647   2.207   7.604 -0.0996 -0.0536  0.0762
   16POPC   C1B  682   1.548   2.530   7.948  0.6878 -0.2325 -0.0368
   16POPC   C2B  683   1.784   2.267   7.791 -0.2487 -0.0242 -0.1989
   16POPC   C3B  684   2.106   2.297   7.487  0.0086  0.2327 -0.1249
   16POPC   C4B  685   2.217   2.291   7.073  0.3570 -0.0958 -0.1138
   17POPC   NC3  686   2.529   5.750   8.905  0.0004  0.0568  0.0074
   17POPC   PO4  687   2.185   5.749   8.746 -0.2114  0.0724  0.2395
   17POPC   GL1  688   2.248   5.784   8.306 -0.2379 -0.3539  0.0138
   17POPC   GL2  689   2.357   6.001   8.049  0.3249  0.3120 -0.2686
   17POPC   C1A  690   2.147   5.556   8.046 -0.0914  0.0761 -0.2192
   17POPC   D2A  691   1.931   5.319   7.832  0.3124 -0.2295 -0.2858
   17POPC   C3A  692   1.994   4.816   7.864  0.2393 -0.2524 -0.0178
   17POPC   C4A  693   1.700   4.489   7.687  0.0435  0.0117 -0.2458
   17POPC   C1B  694   2.365   6.004   7.629  0.2184 -0.1330  0.0276
   17POPC   C2B  695   2.211   5.765   7.430  0.1037  0.3937 -0.0376
   17POPC   C3B  696   2.087   5.588   7.046  0.0618  0.1016 -0.2603
   17POPC   C4B  697   2.228   5.555   6.723 -0.0612  0.0849  0.1866
   18POPC   NC3  698   1.047   5.452   8.242  0.1481 -0.2685 -0.0084
   18POPC   PO4  699   1.311   5.126   8.377 -0.3268  0.1449 -0.1158
   18POPC   GL1  700   1.323   5.079   7.988 -0.1253 -0.0144  0.0696
   18POPC   GL2  701   1.078   5.140   7.754  0.1665 -0.0168  0.0677
   18POPC   C1A  702   1.571   4.956   7.605  0.3310 -0.3331 -0.2336
   18POPC   D2A  703   1.535   4.703   7.244  0.0247  0.1670  0.1480
   18POPC   C3A  704   1.526   4.865   6.878  0.1736 -0.0684 -0.0852
   18POPC   C4A  705   1.750   5.005   6.568 -0.1496 -0.0025 -0.0125
   18POPC   C1B  706   1.211   5.237   7.321  0.2072  0.0476 -0.0244
   18POPC   C2B  707   1.029   5.155   6.919  0.0575 -0.1672 -0.4282
   18POPC   C3B  708   0.659   4.968   6.646 -0.0418  0.0925 -0.2976
   18POPC   C4B  709   0.344   4.788   6.423 -0.0048  0.0887 -0.0886
   19POPC   NC3  710   7.358  10.458   9.347 -0.2532  0.0339  0.1011
   19POPC   PO4  711   7.160  10.240   8.954  0.3388  0.1503  0.0884
   19POPC   GL1  712   7.183  10.245   8.570  0.0633  0.0470 -0.0384
   19POPC   GL2  713   7.422  10.361   8.421 -0.0626 -0.0959 -0.1803
   19POPC   C1A  714   6.919  10.296   8.218  0.0719  0.1001 -0.1132
   19POPC   D2A  715   6.803  10.400   7.801  0.2598  0.2516  0.0940
   19POPC   C3A  716   6.749  10.093   7.531 -0.2390 -0.0975 -0.0095
   19POPC   C4A  717   6.774   9.857   7.159  0.2283  0.1961 -0.0160
   19POPC   C1B  718   7.524  10.352   7.971 -0.0366 -0.0389  0.1602
   19POPC   C2B  719   7.776  10.257   7.537 -0.0352  0.3469  0.1421
   19POPC   C3B  720   8.022  10.288   7.185  0.0632  0.0201 -0.3904
   19POPC   C4B  721   7.944  10.343   6.776 -0.1251  0.2667  0.0620
   20POPC   NC3  722   7.562   4.030   9.340  0.2424  0.0309 -0.1480
   20POPC   PO4  723   7.276   4.229   9.036 -0.1416 -0.0196 -0.2705
   20POPC   GL1  724   7.402   4.170   8.615  0.0162  0.1376  0.0522
   20POPC   GL2  725   7.736   4.301   8.468  0.0699 -0.4390  0.3179
   20POPC   C1A  726   7.247   4.076   8.164 -0.2932  0.1627  0.0681
   20POPC   D2A  727   6.984   4.386   7.872 -0.2024 -0.3737  0.2063
   20POPC   C3A  728   6.575   4.672   8.104  0.3571  0.0274  0.0290
   20POPC   C4A  729   6.274   5.006   8.092  0.2878 -0.1017 -0.0964
   20POPC   C1B  730   8.014   4.244   8.040 -0.2539  0.0267 -0.1363
   20POPC   C2B  731   8.222   4.494   7.699 -0.3296  0.1578  0.0334
   20POPC   C3B  732   8.518   4.646   7.359  0.1121  0.1095 -0.0867
   20POPC   C4B  733   8.861   4.876   7.342  0.5504  0.0634  0.2957
   21POPC   NC3  734   7.362   7.429   8.899 -0.1051  0.1680 -0.0295
   21POPC   PO4  735   7.380   7.194   8.492  0.0105  0.1705 -0.0391
   21POPC   GL1  736   7.302   7.387   8.062 -0.0050 -0.2433  0.3224
   21POPC   GL2  737   7.598   7.699   7.891 -0.1937 -0.0338 -0.1185
   21POPC   C1A  738   7.307   7.200   7.634  0.0579  0.1514 -0.0139
   21POPC   D2A  739   7.146   6.906   7.357  0.2746  0.1422 -0.4806
   21POPC   C3A  740   6.980   7.048   7.024  0.1572  0.1183  0.0589
   21POPC   C4A  741   6.720   7.356   6.820  0.2071 -0.1668 -0.1163
   21POPC   C1B  742   7.566   7.698   7.462  0.1477 -0.0298  0.0453
   21POPC   C2B  743   7.601   7.884   7.049 -0.1717  0.3479  0.0891
   21POPC   C3B  744   7.924   8.017   6.760 -0.2283  0.2618 -0.1222
   21POPC   C4B  745   8.046   8.462   6.579 -0.0530  0.1464  0.0962
   22POPC   NC3  746   3.459   8.608   8.975  0.2867 -0.0401 -0.1961
   22POPC   PO4  747   3.038   8.598   8.686 -0.0861  0.1571  0.1916
   22POPC   GL1  748   3.168   8.693   8.272  0.4335 -0.2101  0.1035
   22POPC   GL2  749   2.946   8.930   8.286 -0.0007  0.0901  0.1925
   22POPC   C1A  750   3.561   8.605   7.995 -0.1474  0.1473  0.0827
   22POPC   D2A  751   3.977   8.580   7.795 -0.1223  0.0391 -0.0667
   22POPC   C3A  752   4.066   8.599   7.344  0.1820 -0.1156  0.1620
   22POPC   C4A  753   4.339   8.805   6.950 -0.0973 -0.0543 -0.0813
   22POPC   C1B  754   3.063   8.789   7.777  0.0782 -0.0119 -0.0484
   22POPC   C2B  755   3.049   8.640   7.377 -0.2145 -0.0369 -0.0884
   22POPC   C3B  756   3.384   8.640   7.090  0.0994  0.2256 -0.1104
   22POPC   C4B  757   3.797   8.515   6.903 -0.2041  0.0565 -0.4311
   23POPC   NC3  758   6.498   3.955   9.547  0.2071 -0.1940  0.0829
   23POPC   PO4  759   6.423   3.959   9.098  0.3429 -0.0242  0.1672
   23POPC   GL1  760   6.569   3.655   8.812  0.1953 -0.1742  0.2323
   23POPC   GL2  761   6.492   3.257   8.864  0.0813  0.2828  0.0531
   23POPC   C1A  762   6.552   3.471   8.368 -0.0883 -0.0814 -0.0023
   23POPC   D2A  763   6.455   3.132   8.168  0.2478 -0.0874 -0.0537
   23POPC   C3A  764   6.288   3.129   7.867  0.0498  0.2243 -0.0072
   23POPC   C4A  765   5.897   3.067   7.626 -0.1184 -0.2711  0.0939
   23POPC   C1B  766   6.627   3.029   8.594  0.2761  0.0429  0.0316
   23POPC   C2B  767   6.337   2.710   8.361 -0.1904  0.1071  0.2697
   23POPC   C3B  768   5.995   2.342   8.274 -0.0931 -0.1765  0.0386
   23POPC   C4B  769   6.012   1.846   8.249  0.0407 -0.0785  0.2376
   24POPC   NC3  770   5.328   7.079   9.120  0.0587  0.0406  0.1216
   24POPC   PO4  771   4.984   7.269   8.985 -0.1204  0.1165 -0.0830
   24POPC   GL1  772   5.166   7.405   8.693 -0.2037 -0.1853 -0.0199
   24POPC   GL2  773   5.255   7.197   8.395 -0.0335  0.0926 -0.3482
   24POPC   C1A  774   5.119   7.690   8.230  0.0062  0.0984 -0.1569
   24POPC   D2A  775   4.664   7.852   8.071 -0.0985 -0.1236  0.3058
   24POPC   C3A  776   4.404   7.720   7.696  0.2149 -0.1880 -0.0243
   24POPC   C4A  777   3.918   7.649   7.677  0.1351  0.0861 -0.1149
   24POPC   C1B  778   5.089   7.241   8.045 -0.1013 -0.2627  0.0094
   24POPC   C2B  779   4.921   7.570   7.751 -0.1114  0.0066  0.0531
   24POPC   C3B  780   5.045   7.783   7.450  0.3656 -0.1524  0.1152
   24POPC   C4B  781   4.955   8.014   7.026 -0.2923 -0.0815  0.1900
   25POPC   NC3  782   4.423   8.469   8.870 -0.1275 -0.2019  0.3400
   25POPC   PO4  783   4.406   8.068   8.755  0.2375  0.1561  0.3429
   25POPC   GL1  784   4.463   8.152   8.358  0.2617  0.2547 -0.1883
   25POPC   GL2  785   4.865   8.253   8.270  0.4776 -0.1146 -0.2551
   25POPC   C1A  786   4.366   8.262   7.977  0.2433 -0.1326  0.0283
   25POPC   D2A  787   4.483   8.637   7.661  0.2592 -0.1357  0.0351
   25POPC   C3A  788   4.560   9.073   7.762  0.0227  0.1643 -0.2848
   25POPC   C4A  789   4.586   9.482   7.663 -0.4285  0.0076 -0.2008
   25POPC   C1B  790   4.833   8.291   7.888  0.1645 -0.0304  0.0607
   25POPC   C2B  791   4.690   8.242   7.475 -0.1153 -0.3572  0.2441
   25POPC   C3B  792   4.706   8.495   7.194  0.4351 -0.3759  0.0504
   25POPC   C4B  793   4.681   8.430   6.753 -0.0035  0.0746 -0.2836
   26POPC   NC3  794   8.455   5.711   8.699 -0.0034 -0.0301 -0.1365
   26POPC   PO4  795   7.939   5.731   8.716 -0.1639 -0.2804 -0.2215
   26POPC   GL1  796   7.892   5.526   8.337  0.2202  0.2084 -0.0368
   26POPC   GL2  797   8.171   5.774   8.089 -0.0599 -0.1249  0.0043
   26POPC   C1A  798   8.076   5.237   8.169  0.3597 -0.0249 -0.0719
   26POPC   D2A  799   8.233   5.066   7.889 -0.0092 -0.2558  0.1652
   26POPC   C3A  800   8.584   4.740   7.878 -0.0897 -0.3300 -0.0085
   26POPC   C4A  801   9.007   4.593   7.860 -0.0816 -0.0208 -0.1711
   26POPC   C1B  802   8.473   5.928   7.737 -0.0058 -0.1806 -0.1050
   26POPC   C2B  803   8.521   5.863   7.333  0.0443 -0.1657 -0.0485
   26POPC   C3B  804   8.679   5.564   7.173  0.1636  0.3503 -0.0827
   26POPC   C4B  805   9.111   5.273   7.234 -0.1450 -0.2041 -0.0098
   27POPC   NC3  806   4.070   7.884   8.423  0.2779 -0.1808 -0.1359
   27POPC   PO4  807   4.368   7.537   8.352  0.0484 -0.0187  0.1797
   27POPC   GL1  808   4.642   7.318   8.082  0.3674  0.0788 -0.2863
   27POPC   GL2  809   4.589   6.982   8.105  0.2138  0.3502  0.1466
   27POPC   C1A  810   4.537   7.268   7.592  0.1180 -0.0324 -0.2741
   27POPC   D2A  811   4.109   7.314   7.342 -0.0914 -0.0088  0.0005
   27POPC   C3A  812   4.124   7.646   6.957  0.2555  0.1705 -0.0167
   27POPC   C4A  813   4.058   7.692   6.477 -0.4746 -0.0948 -0.1297
   27POPC   C1B  814   4.777   6.793   7.716 -0.0107 -0.1015 -0.3371
   27POPC   C2B  815   4.869   6.422   7.419 -0.2103  0.1766  0.0447
   27POPC   C3B  816   5.105   6.160   7.105 -0.0907 -0.0486  0.1127
   27POPC   C4B  817   5.039   5.797   6.839 -0.1406  0.0656  0.0484
   28POPC   NC3  818   5.486   8.644   8.770 -0.0454 -0.2098  0.1498
   28POPC   PO4  819   5.937   8.811   8.759  0.1614 -0.0837 -0.2176
   28POPC   GL1  820   5.933   8.800   8.296 -0.0851 -0.0694 -0.1876
   28POPC   GL2  821   5.774   8.572   8.222 -0.3518 -0.0959  0.0137
   28POPC   C1A  822   5.844   8.970   7.882 -0.0467 -0.1541 -0.3760
   28POPC   D2A  823   5.853   9.046   7.456 -0.0392  0.1201  0.1503
   28POPC   C3A  824   5.574   9.303   7.351  0.0928 -0.1958 -0.1738
   28POPC   C4A  825   5.214   9.547   7.342  0.1058  0.0787  0.1585
   28POPC   C1B  826   5.424   8.703   7.974  0.1493  0.2984  0.0163
   28POPC   C2B  827   5.405   9.007   7.695  0.1356  0.3244  0.0146
   28POPC   C3B  828   5.118   9.083   7.466 -0.0668 -0.0330 -0.0821
   28POPC   C4B  829   4.656   9.179   7.317 -0.0557  0.1854  0.0257
   29POPC   NC3  830   2.384   6.280   8.504  0.0067  0.1318  0.0091
   29POPC   PO4  831   2.305   6.691   8.350 -0.0238 -0.0440  0.0847
   29POPC   GL1  832   2.515   6.655   7.981 -0.0022  0.1739  0.1291
   29POPC   GL2  833   2.547   7.005   7.960 -0.0992 -0.0736 -0.1317
   29POPC   C1A  834   2.649   6.457   7.616 -0.0551 -0.1630  0.0421
   29POPC   D2A  835   2.575   6.230   7.163 -0.0430 -0.1238  0.1618
   29POPC   C3A  836   2.214   6.058   7.009  0.1030 -0.1555 -0.2837
   29POPC   C4A  837   2.000   6.197   7.304  0.0893 -0.3174  0.1088
   29POPC   C1B  838   2.264   7.101   7.581 -0.0542 -0.2435 -0.0765
   29POPC   C2B  839   2.291   7.201   7.140  0.1382 -0.0709 -0.0223
   29POPC   C3B  840   2.133   7.295   6.692  0.1003  0.0107  0.1998
   29POPC   C4B  841   2.437   7.047   6.579  0.1032 -0.0333  0.0226
   30POPC   NC3  842   4.201   7.138   8.544  0.0540 -0.2536 -0.0903
   30POPC   PO4  843   3.809   7.034   8.420 -0.0302  0.1800  0.0243
   30POPC   GL1  844   3.678   7.035   8.017 -0.3091  0.0492  0.2120
   30POPC   GL2  845   3.377   7.219   8.013 -0.1141 -0.1665  0.4333
   30POPC   C1A  846   3.725   7.079   7.493  0.0749 -0.1161 -0.3999
   30POPC   D2A  847   3.693   7.407   7.104 -0.0423 -0.0499 -0.1315
   30POPC   C3A  848   3.927   7.285   6.722  0.1142  0.0828 -0.1043
   30POPC   C4A  849   3.942   6.839   6.500 -0.2996  0.2955 -0.2104
   30POPC   C1B  850   3.286   7.103   7.663  0.2472  0.3034 -0.1202
   30POPC   C2B  851   3.280   7.120   7.230 -0.0315  0.3598 -0.0781
   30POPC   C3B  852   3.483   7.004   6.831 -0.1691 -0.2432  0.0779
   30POPC   C4B  853   3.524   7.033   6.328 -0.0170  0.1926 -0.3465
   31POPC   NC3  854   1.811   8.230   8.668  0.1494  0.0737  0.1906
   31POPC   PO4  855   1.443   8.526   8.446 -0.2003 -0.0029 -0.2179
   31POPC   GL1  856   1.431   8.733   8.048 -0.0929  0.2892  0.0655
   31POPC   GL2  857   1.529   9.042   8.142 -0.0583  0.3528  0.4389
   31POPC   C1A  858   1.420   8.585   7.580 -0.1100 -0.2902  0.1709
   31POPC   D2A  859   1.357   8.652   7.130 -0.1264 -0.1530 -0.2811
   31POPC   C3A  860   1.826   8.650   6.823  0.1260  0.1031 -0.0020
   31POPC   C4A  861   1.872   8.542   6.362  0.0209  0.2058 -0.1745
   31POPC   C1B  862   1.535   9.147   7.764 -0.1369 -0.3334  0.2675
   31POPC   C2B  863   1.662   8.959   7.346  0.0264  0.3354  0.1494
   31POPC   C3B  864   1.760   9.123   6.956  0.2897  0.1805 -0.1674
   31POPC   C4B  865   1.396   8.926   6.673 -0.1520  0.0638  0.0460
   32POPC   NC3  866   6.905   9.799   8.994  0.1548  0.3838 -0.3540
   32POPC   PO4  867   6.634   9.475   9.193 -0.2490 -0.2456  0.0472
   32POPC   GL1  868   6.418   9.516   8.836  0.0780 -0.2453  0.0759
   32POPC   GL2  869   6.540   9.708   8.633  0.0328 -0.1217  0.0157
   32POPC   C1A  870   6.257   9.321   8.417 -0.2210 -0.1253  0.0704
   32POPC   D2A  871   6.312   9.091   8.089 -0.0403  0.0650 -0.1192
   32POPC   C3A  872   6.304   9.105   7.592  0.3448 -0.0544 -0.0599
   32POPC   C4A  873   6.508   8.932   7.253 -0.2628 -0.0161 -0.0462
   32POPC   C1B  874   6.591   9.934   8.201  0.4259 -0.0375  0.0869
   32POPC   C2B  875   6.359  10.044   7.778 -0.0367 -0.0623 -0.2805
   32POPC   C3B  876   6.270  10.070   7.371 -0.3909  0.0358  0.2423
   32POPC   C4B  877   6.359   9.953   6.901 -0.0083 -0.1311 -0.2265
   33POPC   NC3  878   8.430   2.822   8.835  0.1384 -0.2802  0.0515
   33POPC   PO4  879   8.789   2.530   8.918  0.2014  0.1069 -0.0669
   33POPC   GL1  880   8.929   2.658   8.438  0.1441 -0.0759  0.3952
   33POPC   GL2  881   9.229   2.845   8.401  0.3026 -0.1305 -0.1572
   33POPC   C1A  882   8.678   2.839   8.234  0.0830  0.3543  0.0835
   33POPC   D2A  883   8.346   3.052   8.401 -0.3846 -0.1733 -0.1347
   33POPC   C3A  884   7.979   3.417   8.317  0.0265 -0.1722 -0.1173
   33POPC   C4A  885   7.770   3.810   8.275 -0.0867 -0.4338 -0.4158
   33POPC   C1B  886   9.130   3.062   8.121 -0.2955 -0.0765 -0.0729
   33POPC   C2B  887   8.971   3.258   7.760  0.2177  0.4239 -0.2092
   33POPC   C3B  888   8.774   3.223   7.392 -0.0584  0.0994  0.2087
   33POPC   C4B  889   8.327   3.032   7.262 -0.0695 -0.1567  0.1390
   34POPC   NC3  890   5.648   2.522   9.701 -0.1661  0.1288 -0.0967
   34POPC   PO4  891   5.508   2.607   9.273 -0.1101  0.2140 -0.0295
   34POPC   GL1  892   5.461   2.305   8.943 -0.2159 -0.0031  0.2272
   34POPC   GL2  893   5.177   2.434   8.808 -0.2576  0.2656 -0.1676
   34POPC   C1A  894   5.667   1.953   8.692 -0.0778  0.1638  0.0203
   34POPC   D2A  895   5.519   1.718   8.341 -0.1012 -0.2144  0.0367
   34POPC   C3A  896   5.627   1.630   8.019  0.2121 -0.1463  0.2301
   34POPC   C4A  897   5.884   1.791   7.706  0.0956 -0.0859 -0.0621
   34POPC   C1B  898   5.042   2.542   8.368 -0.1826 -0.2537  0.0756
   34POPC   C2B  899   5.154   2.486   7.838  0.0457 -0.0250  0.2153
   34POPC   C3B  900   4.883   2.171   7.687  0.3615  0.0482  0.1562
   34POPC   C4B  901   4.621   1.916   7.963  0.0071  0.3067  0.2222
   35POPC   NC3  902   6.389   7.655   8.840 -0.0054  0.0620  0.1048
   35POPC   PO4  903   6.178   7.208   8.845  0.0116 -0.0050 -0.1133
   35POPC   GL1  904   6.096   7.103   8.422  0.0774  0.1473  0.3341
   35POPC   GL2  905   5.977   6.815   8.293  0.0274  0.0306  0.0169
   35POPC   C1A  906   5.973   7.248   8.078  0.0310  0.0211 -0.0987
   35POPC   D2A  907   5.936   7.353   7.647  0.0723 -0.1309  0.1784
   35POPC   C3A  908   5.858   7.792   7.546  0.0858 -0.0549 -0.1466
   35POPC   C4A  909   6.140   8.128   7.662  0.1215 -0.0970  0.2913
   35POPC   C1B  910   5.909   6.860   7.737  0.2498  0.0544  0.0736
   35POPC   C2B  911   6.020   6.697   7.333  0.0495  0.4926  0.2710
   35POPC   C3B  912   5.811   6.762   6.884  0.3130 -0.1469  0.2135
   35POPC   C4B  913   5.663   6.666   6.522 -0.2884  0.2710 -0.0477
   36POPC   NC3  914   6.640  10.208   8.825 -0.3370 -0.1811 -0.1141
   36POPC   PO4  915   6.321  10.429   9.036  0.1809 -0.1485 -0.1038
   36POPC   GL1  916   6.179  10.306   8.580  0.1159 -0.1608  0.2802
   36POPC   GL2  917   6.410  10.414   8.325 -0.1489 -0.1678  0.2699
   36POPC   C1A  918   5.964  10.238   8.212  0.1826  0.0958  0.1688
   36POPC   D2A  919   5.844  10.459   7.915  0.0466 -0.2668  0.0073
   36POPC   C3A  920   5.989  10.501   7.521  0.2894 -0.1996 -0.2296
   36POPC   C4A  921   5.808  10.743   7.214 -0.3840 -0.1452  0.1294
   36POPC   C1B  922   6.342  10.609   7.865 -0.2607 -0.2521 -0.2215
   36POPC   C2B  923   6.459  10.475   7.507  0.1738  0.2154 -0.0951
   36POPC   C3B  924   6.559  10.470   7.122  0.0263 -0.2618 -0.0206
   36POPC   C4B  925   6.867  10.479   6.733 -0.0473 -0.1799  0.2310
   37POPC   NC3  926   7.674   9.948   8.640  0.1662  0.5153 -0.0142
   37POPC   PO4  927   7.304   9.693   8.666  0.0647 -0.1549  0.2538
   37POPC   GL1  928   6.966   9.739   8.435 -0.0306  0.3370  0.1491
   37POPC   GL2  929   6.855   9.479   8.298  0.3990 -0.1263 -0.1444
   37POPC   C1A  930   7.032   9.901   7.945  0.0447  0.1212  0.5047
   37POPC   D2A  931   7.238  10.079   7.664 -0.1399  0.4844  0.0727
   37POPC   C3A  932   7.064  10.267   7.197 -0.0197  0.1930  0.0226
   37POPC   C4A  933   7.245  10.188   6.721 -0.1335  0.1169  0.1354
   37POPC   C1B  934   6.648   9.571   7.896  0.2694  0.1182 -0.1547
   37POPC   C2B  935   6.472   9.567   7.547  0.0578 -0.0098 -0.0689
   37POPC   C3B  936   6.397   9.381   7.152  0.1633 -0.2498  0.0480
   37POPC   C4B  937   6.583   9.509   6.743  0.1038 -0.3432  0.1501
   38POPC   NC3  938   2.580   2.578   9.970 -0.1018 -0.3323  0.1372
   38POPC   PO4  939   3.009   2.349   9.699 -0.1016  0.0368  0.0165
   38POPC   GL1  940   2.817   2.096   9.348  0.0546 -0.2974  0.4191
   38POPC   GL2  941   2.733   1.828   9.246 -0.1088 -0.2141 -0.1153
   38POPC   C1A  942   2.795   2.083   8.834 -0.1976  0.0616 -0.4141
   38POPC   D2A  943   2.527   1.732   8.660 -0.1051  0.0345  0.0864
   38POPC   C3A  944   2.742   1.666   8.359  0.2219  0.0093 -0.0089
   38POPC   C4A  945   2.646   1.860   7.951  0.1891 -0.0628 -0.0192
   38POPC   C1B  946   3.009   1.579   8.941  0.2459 -0.4448  0.0279
   38POPC   C2B  947   3.249   1.459   8.637 -0.4635 -0.0182 -0.0596
   38POPC   C3B  948   3.650   1.188   8.760 -0.0690 -0.0161  0.1495
   38POPC   C4B  949   4.028   1.024   8.694 -0.0140  0.0000 -0.1400
   39POPC   NC3  950   5.112   9.839   9.530 -0.1367 -0.3597 -0.1440
   39POPC   PO4  951   4.818   9.619   9.655  0.3998  0.3961 -0.1790
   39POPC   GL1  952   4.651   9.905   9.330 -0.2242  0.0621 -0.0877
   39POPC   GL2  953   4.836  10.223   9.348  0.0304  0.0464  0.2760
   39POPC   C1A  954   4.443  10.192   8.995 -0.1603 -0.2733 -0.0128
   39POPC   D2A  955   4.420  10.202   8.555 -0.1753 -0.1090 -0.1363
   39POPC   C3A  956   4.622   9.811   8.473  0.0707  0.2148 -0.1743
   39POPC   C4A  957   4.567   9.602   8.911  0.0696 -0.2075 -0.0152
   39POPC   C1B  958   4.905  10.100   8.895  0.3361  0.1934 -0.1382
   39POPC   C2B  959   5.096   9.766   8.640  0.1133  0.1777  0.0887
   39POPC   C3B  960   5.195   9.482   8.336 -0.0789 -0.1064  0.0009
   39POPC   C4B  961   5.210   9.065   8.234  0.0020 -0.1774 -0.2551
   40POPC   NC3  962   0.526   8.342   8.779  0.1908  0.4500 -0.0086
   40POPC   PO4  963   0.078   8.441   8.582  0.0902 -0.1667  0.2036
   40POPC   GL1  964   0.072   8.399   8.118 -0.1159 -0.2639  0.0955
   40POPC   GL2  965   0.124   8.709   8.011 -0.1116  0.1909 -0.0551
   40POPC   C1A  966   0.088   8.235   7.702  0.0349 -0.1668  0.0127
   40POPC   D2A  967  -0.203   8.459   7.265 -0.1543 -0.0629 -0.0555
   40POPC   C3A  968  -0.303   8.287   6.874 -0.1636  0.0768  0.0357
   40POPC   C4A  969  -0.373   8.056   6.490  0.2150 -0.2487  0.1635
   40POPC   C1B  970   0.360   8.951   7.739 -0.3127  0.0712 -0.0154
   40POPC   C2B  971   0.534   9.101   7.349 -0.1637 -0.2800 -0.0408
   40POPC   C3B  972   0.457   9.311   6.948  0.1089  0.0254 -0.2710
   40POPC   C4B  973   0.242   9.199   6.654  0.0524  0.2637  0.2493
   41POPC   NC3  974   8.395   0.209   8.427  0.2430  0.3357  0.0617
   41POPC   PO4  975   8.102   0.111   8.791  0.0177 -0.1936 -0.0050
   41POPC   GL1  976   7.976  -0.018   8.403 -0.0594  0.3064 -0.0061
   41POPC   GL2  977   7.896  -0.354   8.250 -0.2145  0.0264 -0.1271
   41POPC   C1A  978   8.002   0.048   7.921 -0.1033 -0.1186 -0.2050
   41POPC   D2A  979   7.990   0.192   7.439  0.1118 -0.2318  0.3253
   41POPC   C3A  980   7.590   0.129   7.186 -0.2471 -0.0631  0.1470
   41POPC   C4A  981   7.316   0.124   6.916 -0.0207 -0.2756 -0.1338
   41POPC   C1B  982   8.051  -0.504   7.868 -0.1852  0.1334  0.1580
   41POPC   C2B  983   8.178  -0.791   7.584 -0.0804 -0.3778 -0.0918
   41POPC   C3B  984   8.520  -1.127   7.427 -0.0586 -0.0532 -0.1600
   41POPC   C4B  985   8.675  -1.401   7.749 -0.2002  0.0257  0.0633
   42POPC   NC3  986   7.463   0.475   8.956  0.0896 -0.3396  0.1325
   42POPC   PO4  987   7.048   0.598   8.974 -0.0377  0.0611 -0.1696
   42POPC   GL1  988   6.738   0.718   8.713 -0.1153 -0.0356 -0.0470
   42POPC   GL2  989   6.346   0.659   8.872  0.2224  0.1746 -0.2325
   42POPC   C1A  990   6.616   0.906   8.365 -0.2673 -0.2435  0.1466
   42POPC   D2A  991   6.471   1.034   8.032  0.0152 -0.0525  0.1136
   42POPC   C3A  992   6.297   0.674   7.757 -0.0639  0.0320 -0.1444
   42POPC   C4A  993   6.277   0.400   7.387  0.3817 -0.0545 -0.1601
   42POPC   C1B  994   6.161   0.804   8.572 -0.0797  0.0589  0.0459
   42POPC   C2B  995   6.031   0.882   8.147 -0.0636  0.0409  0.1402
   42POPC   C3B  996   5.789   0.955   7.846  0.2285 -0.3148  0.0881
   42POPC   C4B  997   5.516   1.228   7.776  0.2467  0.0039 -0.2969
   43POPC   NC3  998   1.383   6.203   8.737 -0.0824 -0.3655  0.0262
   43POPC   PO4  999   1.038   6.293   8.636  0.1011 -0.1757  0.1677
   43POPC   GL1 1000   0.893   6.406   8.175  0.0381 -0.1900 -0.3298
   43POPC   GL2 1001   0.697   6.596   8.151 -0.0103  0.3496  0.0680
   43POPC   C1A 1002   0.765   6.236   7.770  0.1648 -0.0006  0.2339
   43POPC   D2A 1003   0.576   6.347   7.303 -0.1791  0.0113  0.0074
   43POPC   C3A 1004   0.852   6.099   6.967 -0.0146 -0.1782  0.3338
   43POPC   C4A 1005   1.287   6.116   6.795 -0.0652  0.1494  0.0007
   43POPC   C1B 1006   0.504   6.685   7.723 -0.4092 -0.1788 -0.0659
   43POPC   C2B 1007   0.207   6.791   7.358  0.0660 -0.1095 -0.0189
   43POPC   C3B 1008   0.049   6.578   7.074 -0.2775  0.0133 -0.0857
   43POPC   C4B 1009  -0.273   6.434   6.958 -0.2538  0.0318  0.1876
   44POPC   NC3 1010   5.935   1.344   9.491 -0.0892  0.0496  0.1225
   44POPC   PO4 1011   5.648   1.295   9.676  0.1932 -0.0296 -0.2134
   44POPC   GL1 1012   5.442   1.256   9.223  0.0898 -0.1029 -0.0829
   44POPC   GL2 1013   5.128   1.243   9.244 -0.4655  0.1192 -0.3507
   44POPC   C1A 1014   5.196   0.973   8.711 -0.1236 -0.2923  0.1216
   44POPC   D2A 1015   4.866   0.974   8.596 -0.0748 -0.1766  0.0450
   44POPC   C3A 1016   4.739   0.842   8.179 -0.3916  0.0495  0.0238
   44POPC   C4A 1017   4.622   0.853   7.778 -0.1475 -0.3079  0.0737
   44POPC   C1B 1018   4.963   1.440   8.936 -0.0344 -0.0519  0.1334
   44POPC   C2B 1019   5.001   1.556   8.658 -0.4173 -0.0663  0.1004
   44POPC   C3B 1020   5.191   1.378   8.358 -0.1943  0.1789 -0.0046
   44POPC   C4B 1021   4.999   1.195   7.925  0.0818 -0.1478  0.0565
   45POPC   NC3 1022   9.877   4.367   9.035 -0.0434 -0.2055 -0.2608
   45POPC   PO4 1023   9.605   4.033   9.070  0.1551  0.1289  0.2703
   45POPC   GL1 1024   9.263   3.994   8.726  0.4681  0.0928  0.3532
   45POPC   GL2 1025   9.371   3.943   8.421 -0.0973  0.1320 -0.1218
   45POPC   C1A 1026   8.861   3.904   8.339  0.0234  0.0219  0.0500
   45POPC   D2A 1027   8.382   3.743   8.225 -0.0995  0.2323  0.1400
   45POPC   C3A 1028   8.255   3.888   7.740 -0.0494 -0.0482 -0.0937
   45POPC   C4A 1029   7.995   3.829   7.273  0.2097 -0.1592  0.0542
   45POPC   C1B 1030   9.593   3.820   8.063  0.1519  0.0055  0.1257
   45POPC   C2B 1031   9.406   3.543   7.696 -0.1823 -0.1155 -0.0939
   45POPC   C3B 1032   9.157   3.518   7.317 -0.1810  0.1705 -0.0096
   45POPC   C4B 1033   8.970   3.269   6.918 -0.0585 -0.0063  0.2591
   46POPC   NC3 1034   7.523   4.600   8.855 -0.0118 -0.4714  0.2351
   46POPC   PO4 1035   7.514   4.824   8.630  0.0913 -0.0465  0.1096
   46POPC   GL1 1036   7.396   4.596   8.274  0.1640 -0.0481  0.2883
   46POPC   GL2 1037   7.062   4.778   8.187 -0.3157  0.1008 -0.3760
   46POPC   C1A 1038   7.485   4.405   7.820  0.0119  0.3509  0.0498
   46POPC   D2A 1039   7.825   4.271   7.549  0.0157  0.0893  0.0566
   46POPC   C3A 1040   8.104   4.306   7.258 -0.3759  0.3322  0.0576
   46POPC   C4A 1041   8.477   4.000   7.088  0.1130  0.0065 -0.0975
   46POPC   C1B 1042   6.835   5.066   7.958 -0.3306  0.0910  0.1667
   46POPC   C2B 1043   6.588   5.023   7.565  0.0796  0.0749 -0.1990
   46POPC   C3B 1044   6.504   4.697   7.313 -0.1499  0.2300  0.2161
   46POPC   C4B 1045   6.508   4.722   6.814  0.0741  0.3204  0.0485
   47POPC   NC3 1046   0.762  10.102   8.979 -0.0453  0.1441  0.3924
   47POPC   PO4 1047   0.726  10.323   8.626  0.2612  0.0183  0.0968
   47POPC   GL1 1048   0.704  10.323   8.256 -0.1137 -0.1219  0.1063
   47POPC   GL2 1049   0.756  10.045   8.036 -0.0186 -0.2401  0.4459
   47POPC   C1A 1050   0.501  10.534   7.939 -0.2667 -0.0198 -0.0563
   47POPC   D2A 1051   0.292  10.922   7.856 -0.4105 -0.0820  0.0065
   47POPC   C3A 1052   0.189  10.977   7.361  0.3077  0.0891 -0.1737
   47POPC   C4A 1053   0.268  10.852   6.992 -0.0486 -0.0126  0.0650
   47POPC   C1B 1054   0.513  10.071   7.652  0.3542  0.2116 -0.0700
   47POPC   C2B 1055   0.493  10.120   7.196 -0.0495 -0.2462  0.1888
   47POPC   C3B 1056   0.400   9.791   6.774  0.0296  0.3259 -0.3708
   47POPC   C4B 1057   0.233   9.682   6.433  0.2578  0.1477 -0.0857
   48POPC   NC3 1058   0.454   0.726   8.825 -0.1940  0.5061  0.0861
   48POPC   PO4 1059   0.105   0.443   8.692 -0.0362 -0.0834  0.1081
   48POPC   GL1 1060  -0.052   0.482   8.286 -0.1719  0.0778  0.0009
   48POPC   GL2 1061  -0.075   0.193   8.113 -0.2145  0.2185 -0.0216
   48POPC   C1A 1062   0.006   0.805   7.905 -0.0119 -0.0089  0.0765
   48POPC   D2A 1063   0.182   0.955   7.471 -0.1040 -0.1953  0.0966
   48POPC   C3A 1064   0.419   0.789   7.120  0.1992 -0.0038 -0.1726
   48POPC   C4A 1065   0.850   0.729   6.917 -0.1605  0.0405 -0.2239
   48POPC   C1B 1066  -0.224   0.382   7.697 -0.0860  0.0791  0.3462
   48POPC   C2B 1067  -0.578   0.489   7.269  0.0800 -0.2903 -0.3567
   48POPC   C3B 1068  -0.667   0.611   6.855 -0.0810  0.0305 -0.2682
   48POPC   C4B 1069  -0.520   0.865   6.636  0.1409 -0.0937 -0.1679
   49POPC   NC3 1070   2.906   6.789   8.290  0.0968  0.0852  0.0225
   49POPC   PO4 1071   3.298   6.905   8.381 -0.0878 -0.2336 -0.2901
   49POPC   GL1 1072   3.323   6.690   8.034  0.3350  0.0578 -0.1265
   49POPC   GL2 1073   3.015   6.713   7.825 -0.1535  0.1015  0.0462
   49POPC   C1A 1074   3.525   6.650   7.567 -0.1008 -0.0217  0.0695
   49POPC   D2A 1075   3.470   6.568   7.201  0.0502 -0.1354  0.1541
   49POPC   C3A 1076   3.877   6.756   6.994  0.0212  0.0528 -0.0619
   49POPC   C4A 1077   4.153   6.976   6.976  0.3223  0.1942 -0.1560
   49POPC   C1B 1078   3.030   6.672   7.413 -0.2805 -0.0278 -0.1058
   49POPC   C2B 1079   2.904   6.553   7.104 -0.3100 -0.0346  0.1925
   49POPC   C3B 1080   2.955   6.113   6.882 -0.1739  0.1224 -0.0809
   49POPC   C4B 1081   3.124   5.789   7.081 -0.1102 -0.0304 -0.1840
   50POPC   NC3 1082   1.969   4.033   8.421 -0.1320  0.2986 -0.1646
   50POPC   PO4 1083   1.838   3.585   8.476 -0.1712 -0.1130  0.1177
   50POPC   GL1 1084   1.828   3.542   8.111  0.0123  0.3469 -0.1398
   50POPC   GL2 1085   1.763   3.213   8.063 -0.2681  0.1453 -0.0169
   50POPC   C1A 1086   1.911   3.591   7.684  0.0541  0.0417  0.0564
   50POPC   D2A 1087   1.807   3.217   7.432 -0.1001  0.0192 -0.1238
   50POPC   C3A 1088   1.874   3.008   7.089 -0.1513  0.0616  0.0076
   50POPC   C4A 1089   2.000   3.016   6.588  0.2038 -0.3005 -0.2725
   50POPC   C1B 1090   1.999   2.887   7.817 -0.1377 -0.0248 -0.1234
   50POPC   C2B 1091   2.209   2.756   7.342  0.2408 -0.2429  0.2241
   50POPC   C3B 1092   2.273   2.755   6.914  0.1435  0.3929 -0.0092
   50POPC   C4B 1093   2.476   2.631   6.497  0.0218  0.0378  0.2197
   51POPC   NC3 1094   7.523   2.246   9.478 -0.1817 -0.1253  0.1820
   51POPC   PO4 1095   7.144   2.296   9.153  0.2745  0.0909  0.0094
   51POPC   GL1 1096   6.938   2.339   8.805 -0.1138 -0.0647 -0.0002
   51POPC   GL2 1097   7.259   2.260   8.575  0.2298  0.0487 -0.0220
   51POPC   C1A 1098   6.789   2.585   8.504 -0.1371  0.1748 -0.2483
   51POPC   D2A 1099   6.678   2.698   8.027  0.3704  0.1490 -0.0898
   51POPC   C3A 1100   6.994   2.799   7.812 -0.2791 -0.1138  0.0745
   51POPC   C4A 1101   7.200   2.759   7.352  0.0298 -0.0597  0.4176
   51POPC   C1B 1102   6.998   2.254   8.155  0.0595 -0.1462  0.0845
   51POPC   C2B 1103   6.972   2.338   7.773  0.2355  0.2100  0.3101
   51POPC   C3B 1104   6.670   2.493   7.493  0.1236  0.2492 -0.1524
   51POPC   C4B 1105   6.355   2.798   7.353  0.0891  0.2288 -0.0477
   52POPC   NC3 1106  10.187   9.301   8.811  0.1194  0.1448 -0.0614
   52POPC   PO4 1107  10.424   8.933   8.594  0.1914 -0.1744 -0.1069
   52POPC   GL1 1108  10.177   8.646   8.349 -0.1030  0.3815 -0.2238
   52POPC   GL2 1109   9.885   8.691   8.142 -0.0662 -0.0881  0.0774
   52POPC   C1A 1110  10.073   8.217   8.031 -0.0309  0.3411 -0.0894
   52POPC   D2A 1111   9.864   7.788   8.095 -0.0975 -0.0690  0.1163
   52POPC   C3A 1112   9.390   7.735   8.034 -0.1507  0.2114 -0.2684
   52POPC   C4A 1113   9.135   7.539   7.906 -0.2048 -0.1617 -0.2968
   52POPC   C1B 1114   9.851   8.660   7.667 -0.0933 -0.2101  0.0789
   52POPC   C2B 1115   9.811   8.577   7.265 -0.0191 -0.0495 -0.0299
   52POPC   C3B 1116  10.138   8.887   6.964  0.1409 -0.0575  0.1261
   52POPC   C4B 1117  10.251   9.331   6.911 -0.1414  0.1237 -0.0688
   53POPC   NC3 1118   4.449   4.103   9.139  0.1628 -0.1576  0.4729
   53POPC   PO4 1119   4.619   4.116   8.673 -0.2585 -0.2296  0.1116
   53POPC   GL1 1120   4.647   3.981   8.319  0.3733 -0.1005  0.0565
   53POPC   GL2 1121   4.380   4.023   8.215  0.1982  0.1649  0.0576
   53POPC   C1A 1122   4.910   3.857   8.037  0.1472  0.1676 -0.0251
   53POPC   D2A 1123   5.024   3.697   7.597 -0.1399  0.4684 -0.0565
   53POPC   C3A 1124   4.819   3.442   7.265 -0.2522  0.1001 -0.3372
   53POPC   C4A 1125   4.715   3.228   6.921  0.2422 -0.0248  0.0743
   53POPC   C1B 1126   4.114   4.110   7.794 -0.2037 -0.4301  0.1283
   53POPC   C2B 1127   4.150   4.118   7.386  0.2463  0.1135 -0.2802
   53POPC   C3B 1128   4.047   4.091   6.923 -0.2170 -0.0472  0.0534
   53POPC   C4B 1129   4.278   3.969   6.502  0.1584  0.2914 -0.0348
   54POPC   NC3 1130   6.624   1.697   9.826 -0.4658  0.3445  0.0229
   54POPC   PO4 1131   6.704   1.453   9.422 -0.0739 -0.1842  0.0156
   54POPC   GL1 1132   6.861   1.510   9.016  0.3580 -0.3213 -0.0808
   54POPC   GL2 1133   6.929   1.832   8.981  0.2059  0.0660 -0.0160
   54POPC   C1A 1134   7.027   1.812   8.505 -0.0018 -0.2941  0.0793
   54POPC   D2A 1135   7.142   1.687   8.066  0.2623 -0.2352  0.1377
   54POPC   C3A 1136   7.030   1.880   7.631  0.2250  0.4753  0.2705
   54POPC   C4A 1137   6.542   1.991   7.564  0.2941  0.1476 -0.2994
   54POPC   C1B 1138   6.602   1.772   8.707 -0.0355 -0.0391 -0.0595
   54POPC   C2B 1139   6.540   1.967   8.249  0.0786  0.1828 -0.1037
   54POPC   C3B 1140   6.361   2.248   7.938  0.0093 -0.0507 -0.2365
   54POPC   C4B 1141   6.221   2.554   7.774 -0.3388  0.0005  0.1439
   55POPC   NC3 1142   4.452   6.731   8.664  0.0537 -0.0486 -0.1295
   55POPC   PO4 1143   4.242   6.722   8.326  0.0892  0.1131  0.1017
   55POPC   GL1 1144   4.110   6.716   7.920  0.2030  0.1645 -0.0863
   55POPC   GL2 1145   4.207   6.467   7.743  0.0383 -0.0582 -0.2985
   55POPC   C1A 1146   4.184   6.864   7.475  0.1815 -0.0766  0.0983
   55POPC   D2A 1147   4.621   6.832   7.239 -0.1473  0.5649 -0.0399
   55POPC   C3A 1148   4.655   7.125   6.905 -0.1456 -0.0148 -0.1793
   55POPC   C4A 1149   4.564   7.586   7.159 -0.1015  0.0793  0.0831
   55POPC   C1B 1150   3.952   6.282   7.437 -0.0993  0.0234 -0.2319
   55POPC   C2B 1151   4.023   6.235   6.996  0.1018  0.1803  0.2287
   55POPC   C3B 1152   4.237   6.336   6.585  0.1037 -0.0548  0.5540
   55POPC   C4B 1153   4.470   6.199   6.220  0.0954  0.2155  0.2361
   56POPC   NC3 1154   8.366   4.723   8.836  0.0779  0.0358  0.0027
   56POPC   PO4 1155   8.523   4.316   8.984  0.0970  0.1452  0.0791
   56POPC   GL1 1156   8.474   4.220   8.502 -0.1980  0.1620 -0.2987
   56POPC   GL2 1157   8.210   4.373   8.475  0.0768  0.0986 -0.2066
   56POPC   C1A 1158   8.515   4.216   8.059  0.2212  0.1862 -0.1808
   56POPC   D2A 1159   8.683   4.168   7.609  0.1806  0.2060 -0.0726
   56POPC   C3A 1160   9.027   4.421   7.387  0.1604 -0.0188 -0.5238
   56POPC   C4A 1161   9.355   4.630   7.456  0.2414  0.0452 -0.0397
   56POPC   C1B 1162   8.055   4.725   8.165  0.2858  0.0750 -0.3519
   56POPC   C2B 1163   7.761   4.824   7.815  0.2738  0.1990 -0.0672
   56POPC   C3B 1164   7.321   4.896   7.799  0.0741 -0.0277 -0.0140
   56POPC   C4B 1165   7.047   4.732   7.536 -0.3048 -0.1756  0.0216
   57POPC   NC3 1166   8.323   0.426   9.244  0.1512  0.1274  0.2372
   57POPC   PO4 1167   7.928   0.622   8.968 -0.1440  0.0724  0.1001
   57POPC   GL1 1168   7.735   0.435   8.571  0.1675  0.2229  0.0448
   57POPC   GL2 1169   7.909   0.522   8.259 -0.1480 -0.0440 -0.2159
   57POPC   C1A 1170   7.450   0.287   8.293  0.0299  0.0364 -0.1120
   57POPC   D2A 1171   7.164   0.179   8.076 -0.3709 -0.1901 -0.4665
   57POPC   C3A 1172   6.741   0.371   8.297  0.2196  0.2568  0.0530
   57POPC   C4A 1173   6.357   0.467   8.208  0.0812  0.0659 -0.1028
   57POPC   C1B 1174   7.814   0.467   7.803  0.4323 -0.0143  0.2282
   57POPC   C2B 1175   7.467   0.256   7.621 -0.1225 -0.0481  0.1986
   57POPC   C3B 1176   7.104   0.233   7.470  0.1793 -0.3453 -0.0749
   57POPC   C4B 1177   6.734   0.411   7.590 -0.0028  0.2173 -0.1548
   58POPC   NC3 1178   0.837   3.186   8.453 -0.0501  0.1381 -0.1125
   58POPC   PO4 1179   1.118   2.884   8.550  0.1474 -0.0162  0.0866
   58POPC   GL1 1180   1.103   2.966   8.080  0.2379  0.0849  0.0457
   58POPC   GL2 1181   0.866   2.817   7.989 -0.0371 -0.1790 -0.1311
   58POPC   C1A 1182   1.399   3.027   7.616  0.0339 -0.0949  0.1496
   58POPC   D2A 1183   1.205   2.870   7.271  0.2031  0.2370  0.0836
   58POPC   C3A 1184   1.535   2.674   6.914 -0.0335  0.1960  0.0456
   58POPC   C4A 1185   1.693   2.292   7.051  0.3700  0.1476  0.1808
   58POPC   C1B 1186   0.851   2.793   7.520  0.0167 -0.3363  0.0800
   58POPC   C2B 1187   0.639   2.886   7.132 -0.0588 -0.0477  0.1211
   58POPC   C3B 1188   0.445   3.147   6.849  0.1676  0.1891 -0.0875
   58POPC   C4B 1189   0.320   3.162   6.417 -0.1173 -0.0726 -0.3007
   59POPC   NC3 1190   5.317   1.606   9.622 -0.0829 -0.1248  0.0039
   59POPC   PO4 1191   5.749   1.825   9.521 -0.0925 -0.2607 -0.0678
   59POPC   GL1 1192   5.767   1.695   9.105  0.2612 -0.0466  0.1880
   59POPC   GL2 1193   5.405   1.736   9.107  0.0555 -0.0228 -0.0123
   59POPC   C1A 1194   6.127   1.746   8.727 -0.1495 -0.2958  0.3734
   59POPC   D2A 1195   6.323   1.444   8.455  0.2705 -0.0648 -0.2691
   59POPC   C3A 1196   6.651   1.510   8.235  0.0999 -0.0754  0.1995
   59POPC   C4A 1197   6.828   1.347   8.588  0.2748  0.1793 -0.1096
   59POPC   C1B 1198   5.498   1.433   8.749 -0.0310 -0.1538 -0.1657
   59POPC   C2B 1199   5.762   1.284   8.401  0.1985  0.0909 -0.0729
   59POPC   C3B 1200   6.093   1.374   7.997 -0.0278 -0.2549  0.1180
   59POPC   C4B 1201   6.339   1.651   7.863  0.0821  0.0527  0.0138
   60POPC   NC3 1202   1.546   9.354   8.549  0.2178 -0.2802 -0.0553
   60POPC   PO4 1203   1.120   9.446   8.549  0.1719  0.2487 -0.0364
   60POPC   GL1 1204   1.264   9.601   8.109 -0.1708 -0.0481  0.1564
   60POPC   GL2 1205   1.288   9.942   8.038  0.1672 -0.0190  0.1011
   60POPC   C1A 1206   1.489   9.659   7.702 -0.0762 -0.0513  0.1206
   60POPC   D2A 1207   1.593   9.993   7.321 -0.0403  0.3087 -0.0586
   60POPC   C3A 1208   1.849  10.295   7.382  0.0902  0.2015 -0.0176
   60POPC   C4A 1209   1.968  10.591   7.661  0.0222 -0.3138 -0.1157
   60POPC   C1B 1210   1.044   9.978   7.646 -0.0181 -0.0774  0.0580
   60POPC   C2B 1211   1.103   9.699   7.368 -0.3197 -0.2358 -0.2012
   60POPC   C3B 1212   1.465   9.401   7.269 -0.1579 -0.1330 -0.2529
   60POPC   C4B 1213   1.844   9.421   7.429  0.0811 -0.1309  0.3534
   61POPC   NC3 1214   6.915   2.679   9.352  0.1883 -0.1414 -0.2195
   61POPC   PO4 1215   7.146   2.851   8.945 -0.1531 -0.1411  0.2190
   61POPC   GL1 1216   7.126   3.064   8.546 -0.2425 -0.3025 -0.2875
   61POPC   GL2 1217   7.200   2.826   8.420  0.0629  0.1319  0.1740
   61POPC   C1A 1218   6.919   3.203   8.229  0.0979 -0.0818  0.0522
   61POPC   D2A 1219   6.950   3.270   7.811  0.0933  0.1340 -0.0856
   61POPC   C3A 1220   6.717   3.131   7.548 -0.4023  0.3299 -0.0315
   61POPC   C4A 1221   6.721   3.115   7.106  0.0492  0.1506 -0.1765
   61POPC   C1B 1222   7.464   2.560   8.100  0.0285 -0.0144 -0.5148
   61POPC   C2B 1223   7.773   2.561   7.769 -0.0259 -0.1708 -0.0871
   61POPC   C3B 1224   8.060   2.604   7.431 -0.0421 -0.3108  0.2086
   61POPC   C4B 1225   8.064   2.613   7.006 -0.0212 -0.0362 -0.1144
   62POPC   NC3 1226   3.058   0.941   9.643 -0.1798  0.1370  0.0716
   62POPC   PO4 1227   3.280   1.401   9.579 -0.0216  0.2497  0.0390
   62POPC   GL1 1228   3.292   1.145   9.182 -0.0998  0.0208  0.0537
   62POPC   GL2 1229   3.583   0.974   9.314  0.3665  0.1281  0.1128
   62POPC   C1A 1230   2.993   1.061   8.873 -0.0316 -0.0620 -0.3139
   62POPC   D2A 1231   2.658   1.148   8.639  0.0948  0.1538  0.1592
   62POPC   C3A 1232   2.874   1.158   8.257 -0.0871  0.1346 -0.1536
   62POPC   C4A 1233   2.890   1.432   7.924  0.4436  0.0011 -0.2296
   62POPC   C1B 1234   3.596   0.725   8.858 -0.1095  0.1493  0.0743
   62POPC   C2B 1235   3.757   0.634   8.413 -0.4672 -0.2729 -0.1432
   62POPC   C3B 1236   3.811   0.412   8.020  0.1670 -0.3565  0.0573
   62POPC   C4B 1237   4.077   0.115   7.939 -0.0988  0.1585 -0.1119
   63POPC   NC3 1238   0.314   6.880   8.470  0.1777 -0.0055 -0.1010
   63POPC   PO4 1239   0.174   6.448   8.558 -0.0968  0.1258  0.1022
   63POPC   GL1 1240   0.176   6.413   8.051 -0.3411  0.0489  0.4792
   63POPC   GL2 1241  -0.092   6.505   8.042 -0.1677 -0.0209  0.5064
   63POPC   C1A 1242   0.142   6.291   7.595 -0.1325  0.3357 -0.0434
   63POPC   D2A 1243   0.173   6.036   7.164 -0.2125 -0.0754  0.3218
   63POPC   C3A 1244   0.535   5.742   7.088 -0.0000  0.2000 -0.1518
   63POPC   C4A 1245   1.081   5.631   6.964 -0.1400  0.1466  0.1560
   63POPC   C1B 1246  -0.292   6.466   7.748 -0.1476  0.2428 -0.1185
   63POPC   C2B 1247  -0.467   6.701   7.377  0.2887  0.0639  0.2316
   63POPC   C3B 1248  -0.431   6.887   6.969  0.1097 -0.1165  0.0744
   63POPC   C4B 1249  -0.477   7.224   6.730 -0.0658  0.2422 -0.0374
   64POPC   NC3 1250   0.948   8.258   8.521  0.2981 -0.2520 -0.0299
   64POPC   PO4 1251   0.603   7.952   8.465  0.0999  0.0698  0.2147
   64POPC   GL1 1252   0.606   8.118   8.017 -0.0151 -0.0787  0.0504
   64POPC   GL2 1253   0.518   8.456   7.825 -0.2338  0.1586 -0.0074
   64POPC   C1A 1254   0.586   8.059   7.511  0.0112  0.0650  0.1140
   64POPC   D2A 1255   0.524   7.905   7.168  0.0501 -0.0955 -0.2210
   64POPC   C3A 1256   0.494   7.613   6.724  0.1860  0.0617 -0.1127
   64POPC   C4A 1257   0.614   7.571   6.257 -0.2357 -0.0069  0.2450
   64POPC   C1B 1258   0.409   8.516   7.416 -0.1341  0.0771  0.1722
   64POPC   C2B 1259   0.167   8.746   7.084 -0.2261  0.0655  0.3240
   64POPC   C3B 1260  -0.061   8.641   6.641 -0.0994  0.0541 -0.2125
   64POPC   C4B 1261  -0.005   8.335   6.345  0.0460  0.0913 -0.0471
   65POPC   NC3 1262   2.825   5.866   8.471  0.1579  0.1228 -0.0816
   65POPC   PO4 1263   2.857   6.263   8.336  0.3061 -0.2343 -0.1179
   65POPC   GL1 1264   3.225   6.180   8.173  0.0054 -0.0031  0.0505
   65POPC   GL2 1265   3.319   5.861   8.230  0.2950 -0.2366  0.2320
   65POPC   C1A 1266   3.168   6.265   7.783 -0.4744 -0.1335  0.1763
   65POPC   D2A 1267   3.208   6.211   7.380 -0.1936  0.0902 -0.0129
   65POPC   C3A 1268   3.541   6.105   7.020 -0.0820 -0.1647  0.1094
   65POPC   C4A 1269   3.591   5.919   6.605  0.0371  0.1288 -0.3326
   65POPC   C1B 1270   3.190   5.730   7.785  0.1776 -0.0385  0.2764
   65POPC   C2B 1271   2.852   5.909   7.500  0.1279 -0.0388 -0.2274
   65POPC   C3B 1272   2.624   5.719   7.158  0.0689  0.0925 -0.0125
   65POPC   C4B 1273   2.759   5.487   6.783  0.2475 -0.2181  0.1464
   66POPC   NC3 1274   4.859   9.114   9.422 -0.2025  0.2599 -0.1348
   66POPC   PO4 1275   5.142   9.107   8.973 -0.0439  0.0405 -0.0840
   66POPC   GL1 1276   4.684   9.104   8.921 -0.1126 -0.1568 -0.2663
   66POPC   GL2 1277   4.566   8.924   8.660 -0.1705  0.2237 -0.4700
   66POPC   C1A 1278   4.190   9.220   8.793 -0.1086 -0.2255 -0.0207
   66POPC   D2A 1279   4.056   9.596   8.737  0.0099 -0.1685  0.1228
   66POPC   C3A 1280   4.172   9.660   8.352 -0.1262 -0.0766 -0.1043
   66POPC   C4A 1281   4.170   9.677   7.963 -0.0524  0.3151 -0.1400
   66POPC   C1B 1282   4.494   9.252   8.370  0.2020  0.1095  0.1298
   66POPC   C2B 1283   4.724   9.513   8.109  0.3287  0.0670 -0.1143
   66POPC   C3B 1284   5.045   9.475   7.857  0.0428  0.1894 -0.2487
   66POPC   C4B 1285   5.475   9.485   7.860 -0.2477  0.4180 -0.1296
   67POPC   NC3 1286   7.573   2.611   8.750  0.1947 -0.0898 -0.4251
   67POPC   PO4 1287   7.931   2.877   8.948 -0.5030  0.2756  0.2007
   67POPC   GL1 1288   8.013   2.729   8.544  0.1873 -0.4192 -0.0578
   67POPC   GL2 1289   7.720   2.959   8.431 -0.1615 -0.0379  0.0679
   67POPC   C1A 1290   8.083   2.814   8.105 -0.0535 -0.1238  0.3227
   67POPC   D2A 1291   7.972   3.076   7.817 -0.1876 -0.0072  0.1730
   67POPC   C3A 1292   7.918   3.530   7.861 -0.0954 -0.1668  0.0077
   67POPC   C4A 1293   7.656   3.901   7.825 -0.1562  0.0997  0.0045
   67POPC   C1B 1294   7.572   3.139   8.118  0.0240 -0.0119 -0.1050
   67POPC   C2B 1295   7.451   2.975   7.796 -0.1295  0.2779 -0.0159
   67POPC   C3B 1296   7.668   2.984   7.418  0.3016 -0.4883 -0.0429
   67POPC   C4B 1297   7.633   2.980   6.938  0.0024 -0.2435 -0.1708
   68POPC   NC3 1298   7.526   6.596   8.619  0.0103 -0.0464  0.0811
   68POPC   PO4 1299   7.988   6.679   8.582 -0.2948  0.0691  0.1017
   68POPC   GL1 1300   7.782   6.596   8.167 -0.0058 -0.1531 -0.2455
   68POPC   GL2 1301   7.482   6.796   8.105  0.2942 -0.0819  0.3560
   68POPC   C1A 1302   7.418   6.360   7.811  0.0150 -0.2121 -0.1871
   68POPC   D2A 1303   7.506   6.188   7.409 -0.0534  0.1228 -0.0583
   68POPC   C3A 1304   7.882   6.291   7.343 -0.1510 -0.2034 -0.0089
   68POPC   C4A 1305   8.352   6.304   7.347 -0.0950  0.1639  0.2850
   68POPC   C1B 1306   7.636   6.894   7.805 -0.3009  0.5238 -0.1478
   68POPC   C2B 1307   7.602   6.689   7.459 -0.2469  0.1804  0.0287
   68POPC   C3B 1308   7.820   6.707   6.989 -0.0010  0.0582  0.0484
   68POPC   C4B 1309   7.903   7.024   6.720 -0.2387 -0.0102  0.0596
   69POPC   NC3 1310   4.828   7.763   9.109  0.0756  0.1777 -0.1301
   69POPC   PO4 1311   4.912   8.203   8.851  0.1808 -0.2787 -0.1060
   69POPC   GL1 1312   5.241   8.131   8.555 -0.1255  0.1967  0.1942
   69POPC   GL2 1313   5.493   7.822   8.633  0.0364 -0.0758  0.1056
   69POPC   C1A 1314   5.355   8.167   8.153  0.1184  0.1071  0.1284
   69POPC   D2A 1315   5.278   8.051   7.815  0.0823 -0.0744 -0.0444
   69POPC   C3A 1316   5.489   8.097   7.429  0.0943  0.3800 -0.2605
   69POPC   C4A 1317   5.400   8.338   7.099  0.0858 -0.0273  0.1955
   69POPC   C1B 1318   5.624   7.646   8.208 -0.2553  0.3708 -0.0563
   69POPC   C2B 1319   5.439   7.586   7.885  0.2357 -0.1138  0.0653
   69POPC   C3B 1320   5.440   7.514   7.421 -0.0099  0.1390 -0.0452
   69POPC   C4B 1321   5.368   7.770   7.057  0.0543  0.1380 -0.2228
   70POPC   NC3 1322   3.367   9.343   9.167 -0.1151 -0.2033  0.0373
   70POPC   PO4 1323   3.673   9.575   9.276  0.1993 -0.4294 -0.1298
   70POPC   GL1 1324   3.410   9.811   8.941 -0.1035  0.0331 -0.3796
   70POPC   GL2 1325   3.468  10.007   9.194 -0.0553 -0.1565 -0.0962
   70POPC   C1A 1326   3.585   9.816   8.564  0.3281 -0.2649  0.0393
   70POPC   D2A 1327   3.742  10.053   8.158 -0.2434  0.0827  0.0093
   70POPC   C3A 1328   4.155  10.175   8.154  0.1355  0.2598  0.3145
   70POPC   C4A 1329   4.557   9.958   7.962 -0.0362  0.0113  0.2134
   70POPC   C1B 1330   3.104  10.277   8.943  0.0475  0.0286  0.0039
   70POPC   C2B 1331   3.213  10.610   8.698  0.1689  0.2414 -0.0030
   70POPC   C3B 1332   3.257  10.940   8.447  0.0813 -0.1942  0.1028
   70POPC   C4B 1333   3.282  11.349   8.501  0.2278 -0.0459  0.1004
   71POPC   NC3 1334   5.261   5.113   8.377 -0.3836 -0.0741 -0.1051
   71POPC   PO4 1335   5.367   4.625   8.467  0.1431 -0.1718  0.2478
   71POPC   GL1 1336   5.604   4.628   8.176 -0.0104 -0.1021 -0.0905
   71POPC   GL2 1337   5.666   4.299   8.139 -0.1533 -0.0451 -0.0376
   71POPC   C1A 1338   5.890   4.630   7.855  0.0077 -0.0403  0.0383
   71POPC   D2A 1339   6.238   4.490   7.726  0.0103 -0.0231  0.0279
   71POPC   C3A 1340   6.226   4.242   7.421 -0.0901  0.0977 -0.1078
   71POPC   C4A 1341   6.304   3.910   7.120  0.1003  0.0621  0.1446
   71POPC   C1B 1342   5.991   4.051   7.879  0.0009  0.0780  0.0130
   71POPC   C2B 1343   6.022   3.615   7.608  0.1733  0.2172  0.4828
   71POPC   C3B 1344   6.265   3.330   7.251 -0.0067  0.1883 -0.0477
   71POPC   C4B 1345   6.227   3.332   6.835  0.3280  0.1308  0.2261
   72POPC   NC3 1346   6.345   5.832   9.275 -0.0762 -0.0818 -0.3551
   72POPC   PO4 1347   6.379   6.094   8.854  0.2916 -0.0483 -0.0480
   72POPC   GL1 1348   6.272   6.351   8.451  0.3500 -0.0851  0.3682
   72POPC   GL2 1349   6.084   6.132   8.237 -0.2005 -0.2212  0.0261
   72POPC   C1A 1350   6.598   6.225   8.143  0.1758 -0.1219  0.2428
   72POPC   D2A 1351   6.926   6.087   7.951  0.2539  0.3068 -0.1476
   72POPC   C3A 1352   7.205   5.848   7.664 -0.1491 -0.0667  0.1432
   72POPC   C4A 1353   6.957   5.691   7.283 -0.2525  0.0897  0.3052
   72POPC   C1B 1354   6.125   6.370   7.863  0.0864 -0.1887 -0.0056
   72POPC   C2B 1355   6.431   6.501   7.694  0.0132 -0.2093 -0.0852
   72POPC   C3B 1356   6.547   6.526   7.341 -0.1635  0.0244  0.1641
   72POPC   C4B 1357   6.804   6.553   7.021 -0.2339  0.0267  0.1057
   73POPC   NC3 1358   9.642  10.257   8.653  0.1408  0.0260  0.1233
   73POPC   PO4 1359   9.480  10.618   8.515 -0.0615 -0.0985 -0.0272
   73POPC   GL1 1360   9.248  10.629   8.134 -0.1864  0.0114 -0.1775
   73POPC   GL2 1361   9.227  11.073   8.114  0.1103  0.2641 -0.0146
   73POPC   C1A 1362   9.297  10.628   7.678  0.0650 -0.1561 -0.2437
   73POPC   D2A 1363   9.157  10.885   7.321 -0.3284  0.0417 -0.2182
   73POPC   C3A 1364   9.345  11.195   7.093 -0.0864 -0.3944 -0.3750
   73POPC   C4A 1365   9.487  11.443   6.652  0.2204 -0.0024 -0.1310
   73POPC   C1B 1366   8.927  10.890   7.885 -0.0481 -0.2897 -0.2126
   73POPC   C2B 1367   8.670  10.889   7.438  0.0989 -0.1108  0.0910
   73POPC   C3B 1368   8.767  11.023   7.013  0.0247  0.0081  0.0890
   73POPC   C4B 1369   8.975  11.365   6.826 -0.0593 -0.0733 -0.0321
   74POPC   NC3 1370   6.421   0.393   9.288  0.4551  0.1392  0.1264
   74POPC   PO4 1371   6.033   0.387   9.276  0.2242  0.1097  0.1068
   74POPC   GL1 1372   5.981   0.220   8.855 -0.2571  0.1883 -0.1988
   74POPC   GL2 1373   5.757  -0.035   8.842  0.1513 -0.3384 -0.2948
   74POPC   C1A 1374   5.935   0.332   8.429 -0.1345 -0.1098  0.1291
   74POPC   D2A 1375   5.954   0.441   7.987  0.0597 -0.0032  0.0980
   74POPC   C3A 1376   5.601   0.388   7.771 -0.0422  0.1854  0.0039
   74POPC   C4A 1377   5.251   0.383   7.399  0.3204 -0.2629  0.0254
   74POPC   C1B 1378   5.534   0.028   8.353 -0.2866  0.0434  0.1785
   74POPC   C2B 1379   5.292   0.380   8.232  0.2456  0.0869  0.1795
   74POPC   C3B 1380   4.815   0.453   8.410 -0.1485 -0.1557  0.0124
   74POPC   C4B 1381   4.621   0.237   8.661  0.1026  0.2004 -0.0492
   75POPC   NC3 1382   1.764   5.924   8.890  0.0205  0.1501 -0.1777
   75POPC   PO4 1383   1.813   6.057   8.499  0.0685  0.1112  0.0490
   75POPC   GL1 1384   1.890   6.167   8.128 -0.1273 -0.0360 -0.0363
   75POPC   GL2 1385   1.924   6.540   8.029 -0.0685  0.5562 -0.1208
   75POPC   C1A 1386   1.802   5.906   7.733 -0.0581 -0.2366 -0.0535
   75POPC   D2A 1387   1.561   5.554   7.509 -0.1619  0.1104  0.5957
   75POPC   C3A 1388   1.770   5.220   7.199 -0.0151 -0.0783  0.0051
   75POPC   C4A 1389   2.039   4.877   7.350  0.2951  0.1012  0.2066
   75POPC   C1B 1390   2.009   6.668   7.608  0.1402 -0.0071  0.2359
   75POPC   C2B 1391   2.199   6.657   7.203 -0.4448 -0.3419 -0.3716
   75POPC   C3B 1392   2.044   6.695   6.813 -0.2047 -0.0102  0.1808
   75POPC   C4B 1393   1.960   6.763   6.409  0.1158  0.1643  0.2376
   76POPC   NC3 1394   3.717   6.523   8.414 -0.1451 -0.1028 -0.2201
   76POPC   PO4 1395   3.667   6.156   8.459  0.0775  0.1263  0.2368
   76POPC   GL1 1396   3.863   6.019   8.144 -0.3857 -0.3076  0.1178
   76POPC   GL2 1397   3.729   6.359   7.912  0.0498  0.1975 -0.1177
   76POPC   C1A 1398   4.120   6.001   7.751 -0.0107  0.0982 -0.0181
   76POPC   D2A 1399   4.466   6.082   7.529  0.0761  0.0305  0.1177
   76POPC   C3A 1400   4.466   6.347   7.109 -0.1983  0.0230 -0.0256
   76POPC   C4A 1401   4.870   6.531   6.911  0.2100 -0.0717  0.1056
   76POPC   C1B 1402   3.612   6.016   7.668 -0.0679 -0.0260  0.0654
   76POPC   C2B 1403   3.519   5.694   7.303  0.1756  0.0690 -0.0306
   76POPC   C3B 1404   3.640   5.479   6.966 -0.1298 -0.0486 -0.0979
   76POPC   C4B 1405   4.010   5.390   6.770 -0.0657 -0.1447 -0.1827
   77POPC   NC3 1406   2.703   9.046   8.695  0.1215 -0.1357 -0.1276
   77POPC   PO4 1407   3.050   8.941   9.005 -0.0060 -0.1065  0.3437
   77POPC   GL1 1408   3.336   8.956   8.647  0.1964 -0.3895  0.0189
   77POPC   GL2 1409   3.589   9.186   8.696 -0.1854 -0.2291 -0.3270
   77POPC   C1A 1410   3.485   9.069   8.247  0.2315 -0.0700 -0.1018
   77POPC   D2A 1411   3.677   9.063   7.829  0.3534  0.1653 -0.1016
   77POPC   C3A 1412   3.544   8.805   7.512  0.2300 -0.0268 -0.2574
   77POPC   C4A 1413   3.638   8.373   7.497 -0.0550  0.2296 -0.1198
   77POPC   C1B 1414   3.234   9.416   8.493 -0.0936 -0.2175 -0.0060
   77POPC   C2B 1415   2.985   9.371   8.089  0.0385 -0.3752 -0.1955
   77POPC   C3B 1416   3.147   9.331   7.639 -0.2110  0.0861 -0.2753
   77POPC   C4B 1417   3.241   9.120   7.192  0.1398  0.1827  0.1045
   78POPC   NC3 1418   0.275   9.847   8.366  0.1233  0.1601 -0.0931
   78POPC   PO4 1419   0.595   9.711   8.593 -0.1048 -0.2092  0.1160
   78POPC   GL1 1420   0.721   9.569   8.229  0.1464 -0.1055 -0.1588
   78POPC   GL2 1421   0.553   9.341   8.119 -0.0726  0.1649  0.1928
   78POPC   C1A 1422   0.788   9.613   7.806  0.1174  0.2351  0.1571
   78POPC   D2A 1423   0.562   9.630   7.388 -0.0513 -0.0453 -0.0907
   78POPC   C3A 1424   0.856   9.724   6.941 -0.3278  0.1310  0.0975
   78POPC   C4A 1425   0.902  10.039   6.706  0.0407  0.0247 -0.0476
   78POPC   C1B 1426   0.250   9.455   7.724 -0.0309 -0.3113 -0.1701
   78POPC   C2B 1427  -0.197   9.515   7.735 -0.1954 -0.1808  0.1257
   78POPC   C3B 1428  -0.537   9.369   7.654  0.1063 -0.2571  0.1397
   78POPC   C4B 1429  -0.657   9.109   7.391  0.0751 -0.1231  0.0799
   79POPC   NC3 1430   1.639   7.021   9.010  0.0411 -0.1850 -0.0011
   79POPC   PO4 1431   1.757   7.073   8.621 -0.0988 -0.0949 -0.1777
   79POPC   GL1 1432   1.677   7.006   8.155 -0.2949 -0.3256  0.1059
   79POPC   GL2 1433   1.946   7.017   7.967  0.0819 -0.1600  0.2332
   79POPC   C1A 1434   1.490   6.714   7.826 -0.2033  0.2439 -0.3613
   79POPC   D2A 1435   1.371   6.845   7.377 -0.2219 -0.0462  0.2946
   79POPC   C3A 1436   1.629   6.919   7.037  0.2489 -0.0491 -0.1634
   79POPC   C4A 1437   1.686   7.088   6.616  0.4300  0.0016  0.1261
   79POPC   C1B 1438   1.752   7.109   7.538 -0.1605  0.0988 -0.0221
   79POPC   C2B 1439   1.768   7.374   7.049  0.1364 -0.0341 -0.2287
   79POPC   C3B 1440   1.544   7.632   6.887 -0.2705 -0.2586 -0.1274
   79POPC   C4B 1441   1.265   7.959   6.804 -0.2633  0.3322 -0.1712
   80POPC   NC3 1442  10.170   5.688   8.611 -0.0306  0.1368 -0.0441
   80POPC   PO4 1443  10.216   6.169   8.738 -0.0436  0.1882  0.2334
   80POPC   GL1 1444  10.080   6.141   8.278  0.0322  0.1877  0.1638
   80POPC   GL2 1445   9.864   6.384   8.212 -0.1385 -0.1102 -0.0113
   80POPC   C1A 1446   9.988   5.995   7.864 -0.0160 -0.2048 -0.1116
   80POPC   D2A 1447   9.967   5.656   7.708 -0.0471 -0.0971 -0.5374
   80POPC   C3A 1448  10.050   5.423   7.330 -0.0154 -0.0551  0.2233
   80POPC   C4A 1449  10.028   4.997   7.034 -0.1591  0.0937  0.0113
   80POPC   C1B 1450   9.755   6.445   7.706  0.1579  0.0329  0.1993
   80POPC   C2B 1451  10.038   6.140   7.388  0.1389 -0.2507  0.2561
   80POPC   C3B 1452  10.198   5.918   6.968  0.2079 -0.1357 -0.0959
   80POPC   C4B 1453  10.544   5.833   6.628  0.2557 -0.0779  0.0546
   81POPC   NC3 1454   0.728   9.174   8.712 -0.3654  0.0063  0.1268
   81POPC   PO4 1455   0.806   8.758   8.648 -0.1427  0.3081 -0.0357
   81POPC   GL1 1456   0.986   8.752   8.296 -0.1299  0.0229  0.1291
   81POPC   GL2 1457   1.017   9.065   8.229  0.4038  0.1765 -0.0287
   81POPC   C1A 1458   0.934   8.687   7.886 -0.0622  0.2296  0.0001
   81POPC   D2A 1459   0.989   8.710   7.472  0.1247 -0.6066  0.2513
   81POPC   C3A 1460   0.733   8.769   7.065  0.2743 -0.1987 -0.0786
   81POPC   C4A 1461   0.810   9.047   6.594  0.4247  0.0702  0.3979
   81POPC   C1B 1462   0.957   9.151   7.906 -0.0654 -0.0153 -0.0486
   81POPC   C2B 1463   0.980   9.203   7.480 -0.0352  0.1628  0.0322
   81POPC   C3B 1464   1.054   9.173   7.069  0.1077  0.0781  0.0407
   81POPC   C4B 1465   1.148   9.332   6.796 -0.1247 -0.1866 -0.1621
   82POPC   NC3 1466   0.825   0.732   8.496  0.0286  0.0649 -0.1222
   82POPC   PO4 1467   0.643   1.170   8.677  0.1767  0.4076 -0.3010
   82POPC   GL1 1468   0.778   1.162   8.272 -0.0293 -0.1680  0.1170
   82POPC   GL2 1469   0.972   0.990   8.099 -0.2567 -0.3504 -0.0632
   82POPC   C1A 1470   0.793   1.447   7.870  0.3189  0.1413 -0.0684
   82POPC   D2A 1471   1.118   1.607   7.636  0.0347  0.0680  0.4219
   82POPC   C3A 1472   1.297   1.521   7.244  0.0847  0.0666  0.2749
   82POPC   C4A 1473   1.272   1.723   6.896  0.0614 -0.0226  0.3920
   82POPC   C1B 1474   1.200   1.173   7.745 -0.1025  0.3607 -0.2962
   82POPC   C2B 1475   1.604   1.269   7.551 -0.0227  0.0427  0.2414
   82POPC   C3B 1476   1.809   1.457   7.242  0.2012 -0.0843  0.0459
   82POPC   C4B 1477   2.055   1.851   7.225 -0.0679 -0.0924  0.3838
   83POPC   NC3 1478   7.928   8.223   9.025 -0.2785 -0.1420 -0.1853
   83POPC   PO4 1479   7.659   8.159   8.705 -0.0210  0.1198 -0.1447
   83POPC   GL1 1480   7.845   8.038   8.249  0.2059 -0.0600 -0.2770
   83POPC   GL2 1481   8.039   7.733   8.221 -0.3071 -0.3413 -0.0465
   83POPC   C1A 1482   8.072   8.393   8.045  0.3919 -0.0992  0.2528
   83POPC   D2A 1483   7.816   8.653   7.765  0.3581  0.0049  0.1084
   83POPC   C3A 1484   7.929   8.962   7.462  0.1605  0.0007  0.3046
   83POPC   C4A 1485   8.042   9.328   7.247 -0.0348  0.2720 -0.0087
   83POPC   C1B 1486   8.165   7.919   7.827  0.2972  0.3369 -0.1052
   83POPC   C2B 1487   8.517   7.986   7.529 -0.2331  0.1174 -0.1478
   83POPC   C3B 1488   8.871   8.051   7.197  0.2827 -0.0117  0.2354
   83POPC   C4B 1489   8.924   8.009   6.876  0.0294  0.0631  0.0503
   84POPC   NC3 1490   9.319   2.630   8.826  0.0429  0.2575  0.1897
   84POPC   PO4 1491   9.430   2.163   8.806 -0.2825  0.0005 -0.1513
   84POPC   GL1 1492   9.345   2.099   8.420  0.2365 -0.1282 -0.1319
   84POPC   GL2 1493   9.624   2.021   8.240  0.0142 -0.0309 -0.0816
   84POPC   C1A 1494   9.180   2.082   8.033  0.4358 -0.1760  0.1631
   84POPC   D2A 1495   9.398   2.153   7.693  0.0380  0.0958 -0.0645
   84POPC   C3A 1496   9.211   2.467   7.477 -0.0325  0.0456  0.0006
   84POPC   C4A 1497   8.729   2.597   7.302 -0.0429  0.2066  0.2547
   84POPC   C1B 1498   9.736   2.349   7.993 -0.0060 -0.2714  0.1398
   84POPC   C2B 1499   9.795   2.559   7.658 -0.0628  0.1202  0.2788
   84POPC   C3B 1500   9.639   2.741   7.301  0.2215  0.3627  0.4087
   84POPC   C4B 1501   9.518   2.899   6.918 -0.1489  0.0829  0.0396
   85POPC   NC3 1502   2.166   9.472   9.113 -0.0928 -0.0814 -0.0239
   85POPC   PO4 1503   1.989   9.491   8.652 -0.2172  0.0669  0.3703
   85POPC   GL1 1504   2.090   9.491   8.367  0.2143  0.3732  0.1820
   85POPC   GL2 1505   1.813   9.478   8.148  0.0473 -0.0182  0.1399
   85POPC   C1A 1506   2.590   9.658   8.241  0.1133 -0.0987 -0.5246
   85POPC   D2A 1507   2.901   9.863   8.023  0.4385  0.1580 -0.1545
   85POPC   C3A 1508   3.337   9.694   8.035 -0.4040 -0.1326 -0.1040
   85POPC   C4A 1509   3.714   9.514   8.249  0.0380  0.2375  0.0504
   85POPC   C1B 1510   1.975   9.091   7.942  0.0393 -0.0477  0.1379
   85POPC   C2B 1511   2.178   9.122   7.558 -0.2331  0.0303 -0.2162
   85POPC   C3B 1512   2.311   9.393   7.176 -0.1547  0.0110 -0.1263
   85POPC   C4B 1513   2.536   9.421   6.896 -0.1580 -0.0687 -0.0876
   86POPC   NC3 1514   9.679   3.073   8.556  0.0850 -0.0404 -0.0056
   86POPC   PO4 1515  10.086   3.291   8.416  0.2765 -0.2558  0.2724
   86POPC   GL1 1516  10.069   3.455   8.038 -0.1024  0.0694 -0.0427
   86POPC   GL2 1517  10.367   3.579   7.926  0.0825  0.0735 -0.0876
   86POPC   C1A 1518   9.902   3.683   7.620 -0.0002 -0.2037  0.2926
   86POPC   D2A 1519  10.072   3.630   7.190  0.1450 -0.1500  0.0374
   86POPC   C3A 1520  10.165   3.152   7.113 -0.2828 -0.2459  0.3340
   86POPC   C4A 1521  10.195   2.827   7.484  0.1024 -0.3208 -0.6326
   86POPC   C1B 1522  10.453   3.260   7.614  0.0835 -0.1372  0.1575
   86POPC   C2B 1523  10.597   2.934   7.220 -0.0386  0.0941 -0.1847
   86POPC   C3B 1524  10.375   2.593   6.987 -0.3276 -0.0773 -0.0272
   86POPC   C4B 1525   9.943   2.505   6.774 -0.2482  0.0845  0.0230
   87POPC   NC3 1526   7.566   7.629   8.513  0.0392  0.2299  0.0489
   87POPC   PO4 1527   7.142   7.655   8.510 -0.2412  0.0288  0.0791
   87POPC   GL1 1528   7.221   8.000   8.282  0.1285  0.3998  0.4915
   87POPC   GL2 1529   7.021   8.241   8.108  0.0800  0.1544  0.2694
   87POPC   C1A 1530   7.508   8.168   7.894  0.1235 -0.1079 -0.0520
   87POPC   D2A 1531   7.634   8.264   7.482  0.0421  0.3308  0.1403
   87POPC   C3A 1532   7.816   8.556   7.154 -0.1514 -0.0203 -0.0525
   87POPC   C4A 1533   7.831   8.922   6.989 -0.1883 -0.1256  0.2117
   87POPC   C1B 1534   6.648   8.118   7.772  0.1157 -0.2444 -0.1263
   87POPC   C2B 1535   6.546   8.083   7.313 -0.0113  0.2783 -0.1924
   87POPC   C3B 1536   6.255   7.885   7.070  0.1284  0.0771 -0.1119
   87POPC   C4B 1537   5.871   7.549   7.075 -0.0294  0.0608 -0.0499
   88POPC   NC3 1538   5.962   3.452   8.962  0.0388 -0.2934 -0.1576
   88POPC   PO4 1539   5.570   3.602   8.748  0.0728 -0.0186  0.0068
   88POPC   GL1 1540   5.611   3.475   8.367 -0.0340  0.0104  0.1237
   88POPC   GL2 1541   5.374   3.740   8.282 -0.2033 -0.0111  0.0415
   88POPC   C1A 1542   5.542   3.355   7.917  0.2532  0.0590  0.0408
   88POPC   D2A 1543   5.568   3.369   7.491 -0.0316  0.0546  0.4562
   88POPC   C3A 1544   5.362   3.569   7.220  0.2044 -0.1772  0.4275
   88POPC   C4A 1545   5.047   3.639   6.883 -0.0583  0.0463  0.1830
   88POPC   C1B 1546   5.551   3.805   7.861 -0.3396  0.0669 -0.0938
   88POPC   C2B 1547   5.579   3.951   7.505 -0.0437 -0.0636 -0.4797
   88POPC   C3B 1548   5.749   4.101   7.119 -0.0288 -0.0434 -0.1170
   88POPC   C4B 1549   6.164   4.306   6.873  0.0341 -0.3850 -0.0253
   89POPC   NC3 1550   8.363   7.095   8.673 -0.6508 -0.2536  0.0898
   89POPC   PO4 1551   8.363   7.542   8.611 -0.0146 -0.0432  0.1013
   89POPC   GL1 1552   8.628   7.555   8.263 -0.1082  0.2170 -0.0206
   89POPC   GL2 1553   8.517   7.319   8.189 -0.2512  0.1339 -0.3099
   89POPC   C1A 1554   8.624   7.560   7.806 -0.4799 -0.0548 -0.1765
   89POPC   D2A 1555   8.888   7.594   7.429 -0.3127 -0.2577  0.0218
   89POPC   C3A 1556   9.265   7.289   7.319 -0.2167 -0.3065 -0.2296
   89POPC   C4A 1557   9.704   7.306   7.182  0.2859  0.0887  0.2906
   89POPC   C1B 1558   8.812   7.105   7.986  0.0337 -0.0735 -0.1718
   89POPC   C2B 1559   8.965   7.091   7.608  0.2385 -0.0667 -0.1981
   89POPC   C3B 1560   9.058   6.838   7.226  0.1309 -0.1044  0.1584
   89POPC   C4B 1561   8.887   6.630   6.898 -0.1602 -0.1090  0.1548
   90POPC   NC3 1562   0.789   2.111   8.567 -0.0923 -0.0727 -0.2258
   90POPC   PO4 1563   0.665   2.616   8.444 -0.0422  0.0193 -0.0552
   90POPC   GL1 1564   0.530   2.329   8.166  0.0262 -0.1667  0.5399
   90POPC   GL2 1565   0.194   2.289   7.964  0.0222  0.2048 -0.3671
   90POPC   C1A 1566   0.549   2.315   7.649  0.0503 -0.0275  0.3980
   90POPC   D2A 1567   0.848   2.348   7.330 -0.2085 -0.0457  0.0572
   90POPC   C3A 1568   1.172   2.011   7.373  0.2243 -0.0245  0.3790
   90POPC   C4A 1569   1.629   1.957   7.431 -0.1550 -0.0083 -0.0645
   90POPC   C1B 1570   0.111   2.062   7.607  0.0285 -0.1101  0.1316
   90POPC   C2B 1571  -0.152   1.833   7.237  0.1765 -0.2245 -0.0845
   90POPC   C3B 1572  -0.537   1.808   6.934  0.1448 -0.0220  0.3461
   90POPC   C4B 1573  -0.656   1.972   6.520 -0.2475 -0.0984 -0.3676
   91POPC   NC3 1574   2.633   8.562   8.348 -0.0327 -0.2075  0.1166
   91POPC   PO4 1575   2.202   8.497   8.514 -0.2340 -0.1109 -0.0511
   91POPC   GL1 1576   2.178   8.541   8.095 -0.2316 -0.0769  0.1410
   91POPC   GL2 1577   1.918   8.603   8.079 -0.3364  0.2217 -0.1259
   91POPC   C1A 1578   2.438   8.819   7.839 -0.1401  0.0119  0.3121
   91POPC   D2A 1579   2.583   9.125   7.816 -0.0346 -0.0511 -0.1479
   91POPC   C3A 1580   2.749   9.006   7.422  0.0012 -0.1103  0.1625
   91POPC   C4A 1581   2.820   8.983   7.018 -0.2861 -0.1569  0.1288
   91POPC   C1B 1582   1.976   8.619   7.654 -0.0526  0.0309 -0.1963
   91POPC   C2B 1583   1.956   8.414   7.242  0.1671 -0.1374  0.1247
   91POPC   C3B 1584   2.253   8.382   6.908  0.1800  0.2006 -0.2076
   91POPC   C4B 1585   2.462   8.132   6.726 -0.0203  0.0428 -0.0663
   92POPC   NC3 1586   8.898   1.354   8.842 -0.0199  0.0034 -0.1192
   92POPC   PO4 1587   9.265   1.140   8.759  0.1307 -0.2891 -0.0219
   92POPC   GL1 1588   9.233   1.028   8.320  0.0854 -0.3810 -0.1191
   92POPC   GL2 1589   8.953   1.082   8.156  0.2068 -0.1589 -0.2115
   92POPC   C1A 1590   9.482   0.978   8.076  0.3073 -0.0165  0.1290
   92POPC   D2A 1591   9.728   1.144   7.790  0.2376 -0.0915 -0.0109
   92POPC   C3A 1592   9.994   0.904   7.608 -0.2416  0.1120  0.0370
   92POPC   C4A 1593  10.281   0.867   7.190 -0.0545 -0.1707  0.0541
   92POPC   C1B 1594   8.975   1.259   7.785 -0.2026  0.2459  0.3608
   92POPC   C2B 1595   9.134   1.422   7.343  0.0412 -0.0727 -0.0588
   92POPC   C3B 1596   9.376   1.239   6.987  0.1505 -0.1078 -0.0946
   92POPC   C4B 1597   9.271   1.411   6.542 -0.0112 -0.1893  0.0650
   93POPC   NC3 1598  10.112   8.475   8.882  0.0810  0.1046 -0.2262
   93POPC   PO4 1599   9.703   8.412   9.021 -0.0901 -0.0724  0.0160
   93POPC   GL1 1600   9.634   8.490   8.528  0.0672  0.0658 -0.2636
   93POPC   GL2 1601   9.388   8.701   8.295 -0.1895 -0.1362  0.0836
   93POPC   C1A 1602   9.585   8.277   8.116 -0.2780 -0.2567  0.1536
   93POPC   D2A 1603   9.596   8.160   7.709 -0.0951 -0.1281 -0.0346
   93POPC   C3A 1604   9.981   8.056   7.587 -0.2431 -0.3302 -0.1391
   93POPC   C4A 1605  10.014   7.610   7.363  0.1976  0.0348 -0.0039
   93POPC   C1B 1606   9.298   8.689   7.913 -0.0592 -0.1459  0.1344
   93POPC   C2B 1607   9.013   8.682   7.655  0.0379  0.3967  0.0841
   93POPC   C3B 1608   8.779   8.523   7.396 -0.1017 -0.0782 -0.2355
   93POPC   C4B 1609   8.724   8.517   6.943 -0.1908 -0.1243  0.3451
   94POPC   NC3 1610   1.737   0.929   9.758  0.3222 -0.2804 -0.1692
   94POPC   PO4 1611   1.734   1.120   9.361 -0.0413  0.0946 -0.0371
   94POPC   GL1 1612   1.884   1.362   8.969  0.3133 -0.0285  0.1158
   94POPC   GL2 1613   1.707   1.183   8.699 -0.0050  0.2191 -0.0318
   94POPC   C1A 1614   2.159   1.400   8.624  0.3678  0.0129 -0.0388
   94POPC   D2A 1615   2.252   1.536   8.171  0.1615  0.2693  0.1536
   94POPC   C3A 1616   2.386   1.439   7.854  0.0708  0.0640  0.0020
   94POPC   C4A 1617   2.258   1.241   7.607 -0.0900 -0.0266  0.1693
   94POPC   C1B 1618   1.480   0.972   8.369 -0.0840 -0.0076  0.0399
   94POPC   C2B 1619   1.562   0.918   7.962  0.0352 -0.0549 -0.0028
   94POPC   C3B 1620   1.469   0.801   7.578  0.1698  0.1470  0.2470
   94POPC   C4B 1621   1.495   0.877   7.122  0.0189 -0.2183 -0.0510
   95POPC   NC3 1622   7.343   1.340   9.302  0.1335  0.0761 -0.2463
   95POPC   PO4 1623   7.692   1.388   9.157 -0.3057 -0.0730  0.1129
   95POPC   GL1 1624   7.418   1.479   8.803 -0.0009  0.0956  0.1114
   95POPC   GL2 1625   7.564   1.728   8.597 -0.4010  0.1046 -0.0606
   95POPC   C1A 1626   7.273   1.295   8.405  0.0302  0.1262 -0.0109
   95POPC   D2A 1627   7.054   1.115   8.075 -0.0767 -0.0555  0.0249
   95POPC   C3A 1628   6.902   1.402   7.724  0.3437 -0.4258  0.1341
   95POPC   C4A 1629   6.786   1.540   7.288  0.0894 -0.0901  0.1595
   95POPC   C1B 1630   7.595   1.714   8.169  0.2454  0.2506 -0.1143
   95POPC   C2B 1631   7.497   2.109   7.930 -0.5332 -0.2180 -0.1260
   95POPC   C3B 1632   7.451   2.186   7.536  0.1019  0.2576  0.3037
   95POPC   C4B 1633   7.106   2.239   7.304 -0.0827  0.0974 -0.1803
   96POPC   NC3 1634   4.817   4.549   8.576  0.0888  0.2433 -0.0743
   96POPC   PO4 1635   4.408   4.677   8.385  0.1775 -0.0314  0.0036
   96POPC   GL1 1636   4.137   4.553   8.077 -0.1310  0.1317 -0.1438
   96POPC   GL2 1637   3.946   4.320   8.257  0.1264  0.0387  0.0197
   96POPC   C1A 1638   4.208   4.584   7.620 -0.2000  0.1329  0.0809
   96POPC   D2A 1639   4.354   4.452   7.099  0.2474  0.2826 -0.1578
   96POPC   C3A 1640   4.203   4.575   6.762 -0.0614 -0.2769  0.2364
   96POPC   C4A 1641   4.240   4.510   6.280  0.0854 -0.0732 -0.2418
   96POPC   C1B 1642   3.576   4.582   8.124 -0.1364 -0.1258 -0.0863
   96POPC   C2B 1643   3.331   4.807   7.803  0.0637 -0.2551 -0.1557
   96POPC   C3B 1644   3.084   4.891   7.449 -0.0868  0.1231 -0.0140
   96POPC   C4B 1645   3.064   4.853   7.001 -0.1230 -0.0835 -0.0224
   97POPC   NC3 1646   8.239   1.915   8.580  0.1956  0.0228  0.0286
   97POPC   PO4 1647   8.602   1.766   8.732  0.0080  0.0293  0.1893
   97POPC   GL1 1648   8.848   1.606   8.396 -0.1480 -0.0062  0.0745
   97POPC   GL2 1649   8.736   1.527   8.103  0.0159  0.2118 -0.1640
   97POPC   C1A 1650   9.232   1.534   8.091  0.0533 -0.0836 -0.0069
   97POPC   D2A 1651   9.539   1.647   7.721 -0.0922  0.2810 -0.0204
   97POPC   C3A 1652   9.749   1.391   7.371 -0.0431 -0.0686  0.0511
   97POPC   C4A 1653   9.838   1.093   7.154  0.0386  0.2641  0.0482
   97POPC   C1B 1654   8.880   1.747   7.801  0.0575  0.0337  0.0861
   97POPC   C2B 1655   8.979   1.968   7.356  0.1977  0.1170  0.2071
   97POPC   C3B 1656   8.763   2.045   7.044  0.0504 -0.1589  0.3152
   97POPC   C4B 1657   8.568   2.166   6.681  0.0804  0.2365  0.0141
   98POPC   NC3 1658   8.435   8.851   8.496  0.1630 -0.0865 -0.2391
   98POPC   PO4 1659   7.986   8.983   8.621  0.0503 -0.2906 -0.2537
   98POPC   GL1 1660   8.004   8.972   8.159 -0.0064 -0.3639 -0.0397
   98POPC   GL2 1661   7.703   9.060   8.194  0.0193 -0.1818  0.2042
   98POPC   C1A 1662   8.244   8.863   7.848  0.2616 -0.0804 -0.4093
   98POPC   D2A 1663   8.409   8.857   7.424 -0.2345 -0.1093 -0.1147
   98POPC   C3A 1664   8.315   8.732   6.944 -0.4812 -0.1051  0.2750
   98POPC   C4A 1665   8.632   8.951   6.594 -0.0495 -0.0629  0.1523
   98POPC   C1B 1666   7.424   9.073   7.840  0.2142  0.1596  0.1756
   98POPC   C2B 1667   7.397   8.796   7.372  0.1711 -0.1043  0.0216
   98POPC   C3B 1668   7.107   8.926   7.137  0.3854 -0.0360 -0.1541
   98POPC   C4B 1669   6.997   8.982   6.708 -0.0440  0.5328  0.0193
   99POPC   NC3 1670   3.667   1.594  10.133 -0.1458  0.2280  0.0064
   99POPC   PO4 1671   3.817   1.808   9.818 -0.4100  0.0800  0.1683
   99POPC   GL1 1672   3.611   1.700   9.429  0.3706  0.3346 -0.0750
   99POPC   GL2 1673   3.328   1.822   9.320  0.0606  0.0986  0.1389
   99POPC   C1A 1674   3.820   1.390   9.186  0.0204  0.1110  0.3209
   99POPC   D2A 1675   4.040   1.008   9.210  0.0510  0.0127  0.2917
   99POPC   C3A 1676   4.384   1.021   9.497 -0.0863 -0.1625  0.1056
   99POPC   C4A 1677   4.788   0.938   9.487 -0.2576 -0.1536  0.2638
   99POPC   C1B 1678   3.499   1.800   8.946 -0.0621  0.0126  0.0245
   99POPC   C2B 1679   3.750   1.986   8.615  0.3005  0.0820  0.1724
   99POPC   C3B 1680   3.708   1.927   8.173 -0.2432  0.0324 -0.1059
   99POPC   C4B 1681   3.655   1.807   7.743  0.2411 -0.0777  0.0705
  100POPC   NC3 1682   3.891   0.616  10.070  0.0507 -0.2298  0.1176
  100POPC   PO4 1683   3.487   0.782   9.886  0.2567  0.0689 -0.2452
  100POPC   GL1 1684   3.585   0.393   9.535  0.0383 -0.0281  0.1305
  100POPC   GL2 1685   3.359   0.125   9.369 -0.0007 -0.0115  0.4110
  100POPC   C1A 1686   3.774   0.410   9.230  0.0296 -0.1650 -0.0937
  100POPC   D2A 1687   3.707   0.222   8.834 -0.1683  0.3964  0.0960
  100POPC   C3A 1688   3.584  -0.239   8.792 -0.0980  0.2156 -0.2671
  100POPC   C4A 1689   3.970  -0.413   8.774  0.1109  0.0987 -0.3295
  100POPC   C1B 1690   3.836  -0.127   9.184  0.3064  0.2621  0.0985
  100POPC   C2B 1691   4.162   0.080   9.162 -0.2550 -0.1954 -0.1386
  100POPC   C3B 1692   4.230   0.464   8.911  0.4610  0.0330 -0.1146
  100POPC   C4B 1693   4.429   0.733   8.615 -0.1143 -0.0859  0.2940
  101POPC   NC3 1694   7.028   3.383   8.923  0.0906  0.0808 -0.0171
  101POPC   PO4 1695   7.315   3.687   8.958  0.0280 -0.0915  0.2390
  101POPC   GL1 1696   7.331   3.606   8.448 -0.0258 -0.0537  0.1552
  101POPC   GL2 1697   7.007   3.700   8.532  0.0382  0.1766  0.0468
  101POPC   C1A 1698   7.325   3.541   7.987 -0.3152 -0.3396  0.0591
  101POPC   D2A 1699   7.441   3.483   7.627 -0.4598 -0.0301  0.1411
  101POPC   C3A 1700   7.529   3.785   7.276  0.0933  0.0036 -0.3001
  101POPC   C4A 1701   7.594   4.147   7.102 -0.1751  0.1863 -0.1717
  101POPC   C1B 1702   6.874   3.743   8.093 -0.1275  0.0934 -0.0604
  101POPC   C2B 1703   7.079   3.881   7.706 -0.0181  0.1759  0.1058
  101POPC   C3B 1704   7.241   4.267   7.390  0.3697 -0.0708 -0.1886
  101POPC   C4B 1705   7.496   4.626   7.299  0.1331 -0.0861 -0.1766
  102POPC   NC3 1706  10.296   5.218   7.970 -0.2526 -0.4108 -0.2540
  102POPC   PO4 1707  10.469   5.446   8.307  0.2599 -0.0910  0.1167
  102POPC   GL1 1708  10.381   5.745   8.007 -0.3228  0.1027  0.1529
  102POPC   GL2 1709  10.601   5.927   7.936  0.0013 -0.2058  0.2482
  102POPC   C1A 1710  10.390   5.785   7.499 -0.1956 -0.3833 -0.1711
  102POPC   D2A 1711  10.562   5.496   7.207 -0.0932  0.3102  0.1065
  102POPC   C3A 1712  10.322   5.448   6.803 -0.2330  0.0286 -0.0076
  102POPC   C4A 1713  10.100   5.517   6.348  0.0908 -0.1508  0.3780
  102POPC   C1B 1714  10.936   5.954   7.580 -0.0570  0.2741 -0.2351
  102POPC   C2B 1715  11.476   5.912   7.373 -0.0690 -0.0321  0.3176
  102POPC   C3B 1716  11.832   5.974   7.259  0.0753  0.1849  0.0804
  102POPC   C4B 1717  12.176   5.850   7.065 -0.0319  0.0097  0.1368
  103POPC   NC3 1718  10.199   0.809   8.632  0.2136 -0.2374 -0.1578
  103POPC   PO4 1719  10.203   1.303   8.666 -0.0543  0.1697  0.1846
  103POPC   GL1 1720  10.168   1.477   8.281 -0.1335  0.0642 -0.2384
  103POPC   GL2 1721  10.168   1.094   8.206 -0.4035  0.0237 -0.2231
  103POPC   C1A 1722  10.468   1.753   8.138 -0.2681  0.0588 -0.1709
  103POPC   D2A 1723  10.951   1.842   7.948 -0.1828  0.0232 -0.4198
  103POPC   C3A 1724  11.150   1.833   7.507  0.2353  0.0114 -0.2628
  103POPC   C4A 1725  11.297   1.506   7.292  0.1480  0.0360  0.2376
  103POPC   C1B 1726  10.165   1.409   7.817  0.0604 -0.1054  0.1014
  103POPC   C2B 1727  10.274   1.357   7.348  0.1945 -0.0292  0.1466
  103POPC   C3B 1728  10.204   1.387   6.911  0.2405  0.0905 -0.2297
  103POPC   C4B 1729  10.309   1.694   6.567 -0.0185 -0.3413 -0.1155
  104POPC   NC3 1730   9.358   6.019   8.762  0.1315 -0.0447 -0.1491
  104POPC   PO4 1731   8.935   6.097   8.675 -0.2860 -0.3052  0.2140
  104POPC   GL1 1732   9.029   6.201   8.225 -0.2898 -0.2417 -0.1251
  104POPC   GL2 1733   9.224   6.019   8.288  0.0429  0.2628  0.1477
  104POPC   C1A 1734   8.970   6.185   7.765 -0.3027  0.2290 -0.0513
  104POPC   D2A 1735   8.920   6.342   7.331  0.1236  0.1869  0.1519
  104POPC   C3A 1736   8.820   5.929   6.866 -0.1229  0.1005 -0.2647
  104POPC   C4A 1737   9.129   5.863   6.533 -0.0034  0.2965  0.2377
  104POPC   C1B 1738   9.466   6.005   7.912  0.1085 -0.0097 -0.1197
  104POPC   C2B 1739   9.587   5.869   7.528  0.0595  0.0691  0.0440
  104POPC   C3B 1740   9.670   5.731   7.187  0.0861  0.0660 -0.0466
  104POPC   C4B 1741   9.797   5.408   6.871  0.0549  0.0766  0.0428
  105POPC   NC3 1742  10.045   7.611   8.566  0.2146 -0.0405  0.3720
  105POPC   PO4 1743  10.430   7.548   8.801 -0.0665  0.5937 -0.5720
  105POPC   GL1 1744  10.501   7.368   8.468  0.1641  0.1454 -0.1966
  105POPC   GL2 1745  10.310   7.113   8.362 -0.0378 -0.1557 -0.3298
  105POPC   C1A 1746  10.731   7.387   8.168  0.1393  0.0435 -0.2021
  105POPC   D2A 1747  10.977   7.043   8.063 -0.0920 -0.0439 -0.0073
  105POPC   C3A 1748  11.162   7.138   7.646 -0.0629  0.1865  0.3402
  105POPC   C4A 1749  11.301   6.846   7.335 -0.1075  0.0991 -0.1593
  105POPC   C1B 1750  10.280   7.384   7.954 -0.0835  0.2142  0.1211
  105POPC   C2B 1751  10.386   7.760   7.733 -0.2086  0.1159 -0.0144
  105POPC   C3B 1752  10.473   7.892   7.331 -0.0507 -0.0879 -0.0485
  105POPC   C4B 1753  10.222   7.761   6.968 -0.1371  0.0953 -0.0827
  106POPC   NC3 1754   3.578   5.478   8.873 -0.1332  0.0100 -0.0296
  106POPC   PO4 1755   3.306   5.485   8.537  0.2939 -0.3019  0.0167
  106POPC   GL1 1756   3.442   5.369   8.149  0.2070  0.3509  0.1085
  106POPC   GL2 1757   3.643   5.115   8.119 -0.1191 -0.1677 -0.3311
  106POPC   C1A 1758   3.483   5.329   7.708 -0.1275  0.1680  0.4329
  106POPC   D2A 1759   3.478   5.155   7.316 -0.0318 -0.1370 -0.0840
  106POPC   C3A 1760   3.593   4.907   6.929  0.2128 -0.1619 -0.4389
  106POPC   C4A 1761   3.847   4.892   6.545  0.0745 -0.2536  0.0423
  106POPC   C1B 1762   3.786   4.876   7.718  0.1056 -0.0061 -0.3204
  106POPC   C2B 1763   3.733   4.424   7.633 -0.0596  0.0093 -0.1887
  106POPC   C3B 1764   3.618   4.052   7.400  0.3026 -0.2817  0.0951
  106POPC   C4B 1765   3.544   3.964   6.930 -0.0432 -0.1530  0.1882
  107POPC   NC3 1766   7.534   8.737   8.652  0.0453  0.1632  0.2114
  107POPC   PO4 1767   7.310   9.218   8.529  0.1111  0.0825 -0.0055
  107POPC   GL1 1768   7.422   9.525   8.188 -0.1064  0.2527 -0.2613
  107POPC   GL2 1769   7.436   9.877   8.196  0.0388  0.0751  0.0117
  107POPC   C1A 1770   7.240   9.495   7.772 -0.2235  0.0650 -0.3661
  107POPC   D2A 1771   7.026   9.615   7.525 -0.1632 -0.2449  0.1493
  107POPC   C3A 1772   7.312   9.769   7.158  0.0126 -0.3613 -0.1386
  107POPC   C4A 1773   7.566  10.121   7.098  0.0750 -0.0686  0.2626
  107POPC   C1B 1774   7.621   9.786   7.837  0.2915  0.2944 -0.1465
  107POPC   C2B 1775   7.731   9.772   7.474  0.0757 -0.2848 -0.0336
  107POPC   C3B 1776   7.934   9.804   7.065 -0.2390 -0.1953 -0.0983
  107POPC   C4B 1777   8.101   9.886   6.608 -0.0627 -0.0853 -0.2013
  108POPC   NC3 1778   5.104   2.842   9.081 -0.0412 -0.0611 -0.2064
  108POPC   PO4 1779   4.827   3.119   8.854 -0.1969 -0.0770  0.0780
  108POPC   GL1 1780   4.974   3.065   8.495  0.0166  0.0729  0.0002
  108POPC   GL2 1781   5.316   3.182   8.571 -0.0842 -0.1801  0.1664
  108POPC   C1A 1782   5.016   3.348   8.133  0.0106 -0.0401  0.2944
  108POPC   D2A 1783   4.859   3.186   7.745 -0.4781  0.2094 -0.1098
  108POPC   C3A 1784   4.975   2.986   7.297 -0.1320 -0.0412  0.1813
  108POPC   C4A 1785   5.243   3.196   6.932 -0.2279 -0.2632 -0.1088
  108POPC   C1B 1786   5.301   2.950   8.161 -0.0443 -0.3178 -0.0078
  108POPC   C2B 1787   5.410   2.910   7.707  0.1288 -0.0896  0.0854
  108POPC   C3B 1788   5.598   2.839   7.250 -0.0554 -0.0536 -0.3154
  108POPC   C4B 1789   5.400   2.506   7.131  0.5548 -0.0482 -0.0944
  109POPC   NC3 1790   0.825   7.039   8.880 -0.1654  0.0029 -0.2140
  109POPC   PO4 1791   0.857   6.904   8.511  0.1543 -0.0661 -0.3545
  109POPC   GL1 1792   0.952   7.041   8.114 -0.1080  0.4549 -0.0469
  109POPC   GL2 1793   1.264   7.254   8.026 -0.0599 -0.0011 -0.3061
  109POPC   C1A 1794   1.038   6.817   7.775  0.1386  0.3638 -0.1369
  109POPC   D2A 1795   1.084   6.452   7.455  0.0705 -0.0276 -0.1879
  109POPC   C3A 1796   1.095   6.518   7.089  0.3130 -0.0342  0.4039
  109POPC   C4A 1797   1.315   6.609   6.674 -0.1616 -0.2610  0.0793
  109POPC   C1B 1798   1.195   7.332   7.573  0.2761  0.0118 -0.0094
  109POPC   C2B 1799   1.300   7.314   7.241 -0.0407 -0.2995  0.1301
  109POPC   C3B 1800   1.101   7.059   6.953 -0.0585  0.1355  0.0041
  109POPC   C4B 1801   0.727   7.151   6.667 -0.2431  0.1724 -0.0655
  110POPC   NC3 1802   5.071   0.290  10.051 -0.2013  0.0615 -0.0001
  110POPC   PO4 1803   4.958   0.196   9.634  0.2046  0.0481  0.1168
  110POPC   GL1 1804   4.900   0.337   9.293  0.3079  0.0997 -0.0833
  110POPC   GL2 1805   5.122   0.130   9.105  0.1514  0.2524  0.0554
  110POPC   C1A 1806   4.703   0.605   8.989 -0.1150  0.1279 -0.0468
  110POPC   D2A 1807   4.531   0.998   9.038 -0.2212 -0.0807  0.1102
  110POPC   C3A 1808   4.487   1.335   8.682 -0.1399  0.2580  0.2775
  110POPC   C4A 1809   4.272   1.218   8.334  0.2101 -0.0883  0.0931
  110POPC   C1B 1810   5.205  -0.091   8.755  0.2413 -0.3665 -0.4916
  110POPC   C2B 1811   4.927  -0.263   8.414 -0.0656 -0.0890  0.1307
  110POPC   C3B 1812   5.045  -0.578   8.156  0.1601 -0.0680 -0.0864
  110POPC   C4B 1813   5.005  -0.509   7.747 -0.1768 -0.0777  0.3064
  111POPC   NC3 1814   9.398   9.248   8.606  0.2313  0.0478 -0.1126
  111POPC   PO4 1815   9.817   9.431   8.519  0.0923 -0.1579 -0.4341
  111POPC   GL1 1816   9.877   9.338   8.123 -0.0807 -0.0044 -0.2383
  111POPC   GL2 1817   9.628   9.135   8.154  0.1126  0.1414 -0.3955
  111POPC   C1A 1818  10.150   9.049   7.958  0.0231  0.0129 -0.1739
  111POPC   D2A 1819  10.341   8.952   7.580  0.2242  0.2271  0.1318
  111POPC   C3A 1820  10.499   9.156   7.328 -0.0213 -0.1657  0.0913
  111POPC   C4A 1821  10.633   9.606   7.166  0.1891  0.0521  0.4203
  111POPC   C1B 1822   9.460   9.185   7.747 -0.0537  0.0508 -0.1280
  111POPC   C2B 1823   9.374   8.789   7.377  0.2243 -0.1027  0.0422
  111POPC   C3B 1824   8.927   8.930   7.218  0.0398  0.0014 -0.0125
  111POPC   C4B 1825   8.712   9.092   7.033 -0.1875  0.1230  0.1068
  112POPC   NC3 1826   5.846   4.437   8.640 -0.0769 -0.0129  0.0980
  112POPC   PO4 1827   5.516   4.136   8.590 -0.0634 -0.0696 -0.0714
  112POPC   GL1 1828   5.818   3.914   8.382  0.0106 -0.2556 -0.0386
  112POPC   GL2 1829   6.106   3.721   8.583  0.0840  0.0128 -0.0527
  112POPC   C1A 1830   6.095   3.546   8.151  0.0549 -0.0429  0.2488
  112POPC   D2A 1831   6.473   3.604   7.863 -0.2471 -0.0827  0.0768
  112POPC   C3A 1832   6.746   3.608   7.531  0.0311 -0.0302 -0.2374
  112POPC   C4A 1833   7.177   3.418   7.240  0.4837  0.1316 -0.0289
  112POPC   C1B 1834   6.404   3.930   8.275 -0.2909 -0.0069  0.0071
  112POPC   C2B 1835   6.487   4.145   7.907  0.0138  0.1024 -0.1854
  112POPC   C3B 1836   6.709   4.271   7.474 -0.1146 -0.3244 -0.2427
  112POPC   C4B 1837   6.670   4.258   6.933  0.1549  0.0773  0.1172
  113POPC   NC3 1838   6.203   8.435   8.610  0.2341 -0.3019 -0.0180
  113POPC   PO4 1839   6.192   8.036   8.516 -0.1536 -0.1215  0.1639
  113POPC   GL1 1840   6.107   7.896   8.140 -0.2825 -0.0332  0.1040
  113POPC   GL2 1841   5.851   8.050   8.164  0.0142  0.1984 -0.1011
  113POPC   C1A 1842   6.277   7.656   7.850 -0.0676  0.0983 -0.1008
  113POPC   D2A 1843   6.355   7.533   7.451 -0.0600 -0.3482 -0.1361
  113POPC   C3A 1844   6.787   7.621   7.206 -0.1144  0.1663 -0.1810
  113POPC   C4A 1845   7.231   7.452   7.104 -0.1642  0.0519 -0.0375
  113POPC   C1B 1846   5.741   8.340   7.814  0.0719 -0.3265 -0.0247
  113POPC   C2B 1847   5.704   8.555   7.480 -0.2306  0.1033 -0.2964
  113POPC   C3B 1848   5.476   8.806   7.232 -0.2400 -0.2992 -0.0847
  113POPC   C4B 1849   5.067   8.776   7.040 -0.0460  0.4546 -0.0369
  114POPC   NC3 1850   1.410   7.965   8.387  0.2601 -0.1325  0.0566
  114POPC   PO4 1851   1.777   8.108   8.219 -0.0813 -0.2121  0.0480
  114POPC   GL1 1852   1.652   8.187   7.834 -0.0268 -0.2355  0.0685
  114POPC   GL2 1853   1.911   8.112   7.666 -0.2867 -0.1950  0.0943
  114POPC   C1A 1854   1.549   8.141   7.314  0.0890  0.2271  0.0059
  114POPC   D2A 1855   1.725   8.148   6.878 -0.0916 -0.1475  0.2290
  114POPC   C3A 1856   2.017   7.809   6.720 -0.0553  0.1474  0.0264
  114POPC   C4A 1857   2.094   7.652   6.295  0.1632 -0.1071  0.1155
  114POPC   C1B 1858   2.014   7.847   7.204  0.1065 -0.0122 -0.1149
  114POPC   C2B 1859   2.383   7.705   7.032  0.0143 -0.2030  0.1426
  114POPC   C3B 1860   2.664   7.530   6.822  0.0740  0.0601  0.0106
  114POPC   C4B 1861   3.022   7.294   6.756  0.1483 -0.2261 -0.1781
  115POPC   NC3 1862  10.470   2.815   8.871  0.0241 -0.1906 -0.1818
  115POPC   PO4 1863  10.128   2.794   8.503 -0.0157 -0.0824 -0.0478
  115POPC   GL1 1864   9.820   2.909   8.115 -0.0876 -0.0610 -0.1780
  115POPC   GL2 1865   9.619   3.256   8.097 -0.0201 -0.0402  0.0522
  115POPC   C1A 1866   9.889   3.165   7.677 -0.0188  0.1003  0.1631
  115POPC   D2A 1867   9.694   3.325   7.258 -0.0922 -0.0048  0.1575
  115POPC   C3A 1868   9.686   3.408   6.860 -0.0771 -0.0970 -0.2975
  115POPC   C4A 1869   9.788   3.531   6.431 -0.1591 -0.2439 -0.2880
  115POPC   C1B 1870   9.425   3.030   7.640 -0.0460  0.0697 -0.0417
  115POPC   C2B 1871   9.150   2.922   7.272  0.1362  0.1018 -0.1968
  115POPC   C3B 1872   9.044   2.654   6.853 -0.1390  0.2564  0.0121
  115POPC   C4B 1873   8.997   2.356   6.556 -0.3752  0.1625  0.1727
  116POPC   NC3 1874   8.705   7.961   8.710 -0.2453  0.1505  0.1777
  116POPC   PO4 1875   8.621   8.363   8.697  0.1741  0.2220  0.1512
  116POPC   GL1 1876   8.855   8.412   8.323 -0.0108  0.1801  0.0134
  116POPC   GL2 1877   9.065   8.169   8.236 -0.1725 -0.1174 -0.1309
  116POPC   C1A 1878   8.668   8.427   7.861  0.2495 -0.0143 -0.2475
  116POPC   D2A 1879   8.219   8.413   7.610 -0.0910 -0.0071  0.0560
  116POPC   C3A 1880   8.314   8.311   7.185 -0.1036  0.3685 -0.1066
  116POPC   C4A 1881   8.400   8.192   6.874  0.1177  0.3806 -0.1620
  116POPC   C1B 1882   8.876   7.962   7.991 -0.1188  0.0182  0.2686
  116POPC   C2B 1883   8.996   8.069   7.678 -0.1065 -0.0727 -0.0325
  116POPC   C3B 1884   9.258   8.303   7.371  0.1342 -0.3148 -0.0426
  116POPC   C4B 1885   9.184   8.445   6.914  0.1758 -0.4183 -0.1080
  117POPC   NC3 1886  10.468   4.673   8.198 -0.2440 -0.0998 -0.2260
  117POPC   PO4 1887  10.228   4.327   8.359 -0.2013  0.2464 -0.0061
  117POPC   GL1 1888  10.331   4.214   7.949 -0.0453 -0.0895  0.3769
  117POPC   GL2 1889   9.986   4.058   7.953 -0.0969  0.1363  0.0010
  117POPC   C1A 1890  10.440   3.919   7.622 -0.2788 -0.0224  0.0974
  117POPC   D2A 1891  10.508   3.693   7.290  0.1152  0.2385 -0.3352
  117POPC   C3A 1892  10.642   3.559   6.906 -0.2566  0.1015 -0.0084
  117POPC   C4A 1893  10.643   3.571   6.582  0.0275 -0.0000 -0.1455
  117POPC   C1B 1894  10.079   4.357   7.525 -0.0787  0.2653  0.2385
  117POPC   C2B 1895  10.191   4.095   7.179  0.1788  0.1869  0.0844
  117POPC   C3B 1896  10.313   3.934   6.828  0.2335 -0.0379 -0.0430
  117POPC   C4B 1897  10.164   3.946   6.402  0.0016 -0.1679 -0.2629
  118POPC   NC3 1898   5.999   2.652   9.131  0.1162 -0.1765  0.2389
  118POPC   PO4 1899   6.183   3.055   9.151  0.1131  0.0245 -0.0867
  118POPC   GL1 1900   5.925   2.981   8.703 -0.2871  0.0721 -0.0855
  118POPC   GL2 1901   6.123   3.224   8.490  0.3557  0.1860  0.0009
  118POPC   C1A 1902   5.639   2.757   8.550 -0.1471  0.2398  0.0900
  118POPC   D2A 1903   5.506   2.383   8.433  0.1175  0.0773 -0.1103
  118POPC   C3A 1904   5.620   2.112   8.068  0.0996  0.5136 -0.0902
  118POPC   C4A 1905   5.351   1.997   7.684 -0.2092  0.4335 -0.1053
  118POPC   C1B 1906   5.906   3.081   8.219 -0.1982  0.3328  0.2157
  118POPC   C2B 1907   5.745   2.682   8.019  0.2637  0.0956  0.1070
  118POPC   C3B 1908   5.756   2.383   7.659  0.0948  0.0794 -0.0039
  118POPC   C4B 1909   6.074   2.131   7.477 -0.0731 -0.1053 -0.2990
  119POPC   NC3 1910   9.913   0.118   8.872  0.0046 -0.0054  0.0727
  119POPC   PO4 1911   9.997   0.396   8.590  0.1289 -0.0624 -0.1939
  119POPC   GL1 1912   9.904   0.307   8.152 -0.3025 -0.0992  0.1372
  119POPC   GL2 1913   9.913   0.583   7.956  0.0867 -0.3886  0.2571
  119POPC   C1A 1914   9.778   0.118   7.777 -0.0007 -0.0991 -0.0432
  119POPC   D2A 1915  10.113  -0.060   7.417 -0.0796  0.0754 -0.4263
  119POPC   C3A 1916  10.240   0.152   7.031 -0.1626 -0.0475  0.0881
  119POPC   C4A 1917  10.331   0.557   6.859 -0.0997  0.0745 -0.0211
  119POPC   C1B 1918   9.559   0.600   7.729  0.0570  0.0286 -0.0595
  119POPC   C2B 1919   9.113   0.766   7.613  0.3121  0.3098  0.0381
  119POPC   C3B 1920   8.735   1.002   7.295 -0.1560 -0.0273  0.1184
  119POPC   C4B 1921   8.492   1.071   7.063 -0.3009 -0.1767 -0.3935
  120POPC   NC3 1922   5.467   6.223   9.040 -0.0391  0.1957  0.0576
  120POPC   PO4 1923   5.535   5.954   8.709  0.2004  0.0051  0.2457
  120POPC   GL1 1924   5.671   5.822   8.296  0.1452  0.2449 -0.1345
  120POPC   GL2 1925   5.519   5.577   8.122  0.0436 -0.3081 -0.2824
  120POPC   C1A 1926   5.825   5.829   7.845  0.0254  0.3256 -0.1014
  120POPC   D2A 1927   5.884   6.144   7.447 -0.0773  0.2089 -0.2575
  120POPC   C3A 1928   5.663   6.230   7.057  0.2958  0.0449 -0.2425
  120POPC   C4A 1929   5.407   6.233   6.651  0.0234  0.2169  0.1503
  120POPC   C1B 1930   5.280   5.548   7.759  0.0766 -0.0309  0.1394
  120POPC   C2B 1931   5.103   5.590   7.334 -0.0167 -0.1524 -0.1710
  120POPC   C3B 1932   4.869   5.338   7.045  0.0131 -0.4166 -0.0747
  120POPC   C4B 1933   4.505   5.434   6.880 -0.1206 -0.0850 -0.2456
  121POPC   NC3 1934   6.178   4.858   9.395  0.3092  0.2032 -0.2050
  121POPC   PO4 1935   6.061   4.837   8.901  0.5408 -0.1000 -0.0196
  121POPC   GL1 1936   5.928   4.995   8.467  0.0100  0.1006 -0.0201
  121POPC   GL2 1937   5.783   5.243   8.449 -0.0601 -0.3844 -0.1086
  121POPC   C1A 1938   5.727   5.100   8.005  0.0076 -0.1455 -0.1724
  121POPC   D2A 1939   5.328   4.985   7.894  0.1998 -0.0672  0.1729
  121POPC   C3A 1940   5.173   4.660   7.827 -0.1700 -0.2147 -0.0695
  121POPC   C4A 1941   5.198   4.230   7.807  0.0668 -0.0027 -0.0978
  121POPC   C1B 1942   6.068   5.507   8.173 -0.0579 -0.1128 -0.0472
  121POPC   C2B 1943   6.122   5.312   7.669  0.1255 -0.1296 -0.0194
  121POPC   C3B 1944   6.050   4.994   7.460  0.2613 -0.2145  0.2302
  121POPC   C4B 1945   6.094   4.846   7.019 -0.1490  0.1005  0.0487
  122POPC   NC3 1946   0.567   4.038   8.686 -0.2411 -0.0387  0.0078
  122POPC   PO4 1947   0.898   3.824   8.414  0.3514  0.1454  0.2539
  122POPC   GL1 1948   0.952   3.691   8.054 -0.1646  0.0883 -0.0066
  122POPC   GL2 1949   0.973   3.428   8.001 -0.0438  0.2226  0.3747
  122POPC   C1A 1950   0.789   3.938   7.644  0.0106  0.1146 -0.0694
  122POPC   D2A 1951   0.388   4.137   7.604 -0.1436  0.0191 -0.1443
  122POPC   C3A 1952   0.268   4.506   7.308 -0.1242 -0.1522  0.1215
  122POPC   C4A 1953  -0.144   4.608   7.200  0.0141 -0.0846  0.2451
  122POPC   C1B 1954   0.915   3.248   7.667 -0.1080  0.0243  0.1613
  122POPC   C2B 1955   0.931   3.474   7.316  0.0032 -0.0327 -0.1439
  122POPC   C3B 1956   1.034   3.345   6.880  0.0806  0.0486  0.1306
  122POPC   C4B 1957   1.253   3.078   6.630 -0.0339  0.1799  0.2334
  123POPC   NC3 1958   2.170  10.468   9.416  0.2781  0.2956 -0.1157
  123POPC   PO4 1959   1.993  10.116   9.159 -0.0437 -0.1173  0.0378
  123POPC   GL1 1960   2.202  10.481   8.871  0.0718  0.4111  0.1226
  123POPC   GL2 1961   1.983  10.425   8.554  0.1352  0.0583  0.1646
  123POPC   C1A 1962   2.252  10.887   8.583 -0.1754  0.2820 -0.1058
  123POPC   D2A 1963   2.041  11.049   8.111  0.2338  0.1469  0.2508
  123POPC   C3A 1964   1.957  11.320   7.688  0.0257  0.0013  0.1306
  123POPC   C4A 1965   1.963  11.356   7.324 -0.2640 -0.1809  0.0758
  123POPC   C1B 1966   2.000  10.454   8.225  0.1284  0.1442  0.4189
  123POPC   C2B 1967   2.403  10.714   7.974  0.2756  0.1620  0.0093
  123POPC   C3B 1968   2.685  10.923   7.725 -0.0146 -0.3044 -0.0623
  123POPC   C4B 1969   2.893  10.978   7.316 -0.2598 -0.2896  0.2530
  124POPC   NC3 1970   5.844   9.863  10.184 -0.3313 -0.2836 -0.1943
  124POPC   PO4 1971   5.623   9.830   9.965 -0.0131 -0.0055 -0.3933
  124POPC   GL1 1972   5.654   9.859   9.481  0.1693 -0.2296 -0.0365
  124POPC   GL2 1973   5.830   9.935   9.326 -0.1705  0.0566  0.0922
  124POPC   C1A 1974   5.479  10.014   8.987 -0.0834  0.0389  0.0226
  124POPC   D2A 1975   5.501  10.042   8.532  0.2504  0.0229  0.1060
  124POPC   C3A 1976   5.664   9.702   8.227  0.0491  0.0902 -0.0239
  124POPC   C4A 1977   5.740   9.248   8.246  0.0265  0.0991  0.1030
  124POPC   C1B 1978   5.964   9.823   8.885 -0.1024 -0.1521 -0.1934
  124POPC   C2B 1979   6.118   9.828   8.430  0.3597  0.2817 -0.0563
  124POPC   C3B 1980   6.132   9.710   8.073 -0.0207  0.2925 -0.1481
  124POPC   C4B 1981   6.011   9.571   7.748  0.2234  0.0092  0.2014
  125POPC   NC3 1982   8.082   0.919   8.576 -0.5563  0.0042  0.0443
  125POPC   PO4 1983   8.501   1.259   8.487 -0.0315 -0.0500  0.0899
  125POPC   GL1 1984   8.281   1.253   8.171 -0.0186  0.1277  0.0926
  125POPC   GL2 1985   8.208   1.553   8.239  0.1304  0.0241  0.1596
  125POPC   C1A 1986   8.104   0.941   7.907 -0.0560  0.0095 -0.0284
  125POPC   D2A 1987   7.926   0.992   7.560  0.0326 -0.1831  0.1979
  125POPC   C3A 1988   7.744   0.617   7.351  0.2232  0.0578  0.3765
  125POPC   C4A 1989   7.725   0.502   6.863  0.1572 -0.4880 -0.3335
  125POPC   C1B 1990   7.916   1.575   7.824 -0.1024 -0.0005  0.2977
  125POPC   C2B 1991   7.472   1.699   7.642 -0.1018  0.3963 -0.0223
  125POPC   C3B 1992   7.260   1.471   7.228 -0.1580  0.0959  0.0638
  125POPC   C4B 1993   7.051   1.049   7.162  0.0521 -0.0651 -0.1838
  126POPC   NC3 1994   9.229   3.363   9.396  0.0098  0.1416 -0.0446
  126POPC   PO4 1995   9.261   3.482   8.996 -0.1212 -0.1392  0.2874
  126POPC   GL1 1996   9.211   3.343   8.564 -0.5072 -0.0670  0.1544
  126POPC   GL2 1997   8.928   3.215   8.539  0.2367 -0.2281  0.3132
  126POPC   C1A 1998   9.152   3.562   8.099 -0.0249 -0.1627  0.2676
  126POPC   D2A 1999   8.794   3.776   7.886  0.1372  0.2368  0.2504
  126POPC   C3A 2000   8.607   3.686   7.439  0.0629 -0.0298  0.0147
  126POPC   C4A 2001   8.420   3.493   7.044 -0.1777 -0.1457 -0.0700
  126POPC   C1B 2002   8.683   3.366   8.192 -0.2136  0.0270  0.0665
  126POPC   C2B 2003   8.485   3.260   7.842  0.0109  0.1494 -0.1176
  126POPC   C3B 2004   8.249   3.416   7.551 -0.1965  0.2152  0.2159
  126POPC   C4B 2005   7.860   3.414   7.337  0.1802  0.1256 -0.1429
  127POPC   NC3 2006   2.726  10.396  10.202 -0.0396  0.0038  0.2127
  127POPC   PO4 2007   2.595  10.447   9.743  0.1011  0.0374  0.1097
  127POPC   GL1 2008   2.742  10.591   9.310 -0.1592 -0.0080 -0.0998
  127POPC   GL2 2009   2.597  10.391   9.108 -0.1673 -0.2546 -0.0189
  127POPC   C1A 2010   2.702  10.915   9.003 -0.2441  0.4400 -0.2304
  127POPC   D2A 2011   2.837  11.125   8.570  0.0287 -0.0286 -0.0921
  127POPC   C3A 2012   2.440  11.302   8.289  0.2182 -0.0193 -0.1076
  127POPC   C4A 2013   2.121  11.566   8.074  0.0212 -0.0036  0.1848
  127POPC   C1B 2014   2.701  10.531   8.706 -0.1562 -0.0973  0.1811
  127POPC   C2B 2015   2.869  10.729   8.216  0.1451 -0.0581 -0.1233
  127POPC   C3B 2016   3.220  10.797   7.954  0.1207 -0.1996 -0.1635
  127POPC   C4B 2017   3.267  10.695   7.578  0.1273  0.3003 -0.1602
  128POPC   NC3 2018   1.393   1.557   8.878 -0.0211 -0.3280 -0.0527
  128POPC   PO4 2019   1.216   1.931   8.858  0.2983  0.0170  0.1207
  128POPC   GL1 2020   1.155   1.703   8.436  0.4291  0.1515 -0.0942
  128POPC   GL2 2021   0.991   1.802   8.143 -0.0142 -0.1465 -0.0305
  128POPC   C1A 2022   1.371   1.484   8.153 -0.0009 -0.1163  0.0457
  128POPC   D2A 2023   1.738   1.371   8.126  0.2064 -0.1222  0.1971
  128POPC   C3A 2024   1.876   1.587   7.706  0.0805  0.1577 -0.0707
  128POPC   C4A 2025   2.220   1.861   7.685  0.1831  0.0289 -0.1805
  128POPC   C1B 2026   0.904   2.096   7.850  0.1290  0.0732 -0.2937
  128POPC   C2B 2027   1.094   2.376   7.730  0.5142  0.2517  0.0168
  128POPC   C3B 2028   1.374   2.419   7.435 -0.0960 -0.0985  0.1554
  128POPC   C4B 2029   1.687   2.651   7.442 -0.1507 -0.0590 -0.1250
  129POPC   NC3 2030   2.545  10.008   9.434 -0.3152  0.2406  0.0861
  129POPC   PO4 2031   2.606   9.688   9.178 -0.1967  0.0150  0.1108
  129POPC   GL1 2032   2.784   9.920   8.901  0.2297  0.0961 -0.4377
  129POPC   GL2 2033   2.594  10.021   8.658  0.1654  0.2815 -0.0076
  129POPC   C1A 2034   3.086   9.934   8.530  0.0666 -0.0992  0.1471
  129POPC   D2A 2035   3.171  10.353   8.302 -0.0952 -0.1891  0.5621
  129POPC   C3A 2036   3.493  10.432   8.348 -0.0753  0.1822  0.1586
  129POPC   C4A 2037   3.972  10.537   8.504 -0.0045 -0.1129 -0.0828
  129POPC   C1B 2038   2.711  10.231   8.221 -0.0133 -0.0526 -0.0582
  129POPC   C2B 2039   2.795  10.357   7.810 -0.0492  0.0678 -0.0532
  129POPC   C3B 2040   2.907  10.468   7.429 -0.0892 -0.2195 -0.0344
  129POPC   C4B 2041   2.745  10.538   7.078 -0.0360 -0.0646 -0.2574
  130POPC   NC3 2042   6.618   6.912   8.790 -0.0573  0.3368  0.0664
  130POPC   PO4 2043   6.247   6.730   8.785 -0.1447  0.1563  0.1000
  130POPC   GL1 2044   6.523   6.823   8.310  0.3647 -0.1496 -0.0835
  130POPC   GL2 2045   6.910   7.146   8.351 -0.2033  0.2763  0.1198
  130POPC   C1A 2046   6.528   6.953   7.991  0.1123  0.0360  0.1297
  130POPC   D2A 2047   6.540   6.959   7.522 -0.2982 -0.1542  0.2335
  130POPC   C3A 2048   6.180   7.127   7.190 -0.1882 -0.1197  0.1634
  130POPC   C4A 2049   6.259   7.327   6.920 -0.1043 -0.0454  0.1301
  130POPC   C1B 2050   7.061   6.874   7.933 -0.1497 -0.0696  0.0065
  130POPC   C2B 2051   6.929   6.539   7.759 -0.0020  0.1497  0.0567
  130POPC   C3B 2052   7.041   6.285   7.472  0.1590 -0.2573  0.2813
  130POPC   C4B 2053   7.119   6.088   7.001 -0.0262 -0.2625  0.0034
  131POPC   NC3 2054   2.843   4.085   8.460 -0.0815 -0.1293  0.1640
  131POPC   PO4 2055   2.413   3.824   8.602  0.0130 -0.0223 -0.2030
  131POPC   GL1 2056   2.324   3.664   8.250  0.1014 -0.1207  0.2736
  131POPC   GL2 2057   2.459   3.992   8.111 -0.0957 -0.3344  0.1251
  131POPC   C1A 2058   2.393   3.574   7.802 -0.1079  0.2908 -0.0405
  131POPC   D2A 2059   2.634   3.748   7.434  0.1299 -0.0345 -0.0660
  131POPC   C3A 2060   2.966   3.439   7.366  0.3269 -0.2295 -0.0490
  131POPC   C4A 2061   3.464   3.495   7.338  0.2778  0.1669  0.0015
  131POPC   C1B 2062   2.708   4.140   7.704  0.0986  0.1129  0.1138
  131POPC   C2B 2063   2.762   4.294   7.311 -0.0068 -0.3416 -0.0104
  131POPC   C3B 2064   2.808   4.433   6.881 -0.0950 -0.1187 -0.1639
  131POPC   C4B 2065   2.889   4.620   6.523 -0.2015 -0.0616 -0.1107
  132POPC   NC3 2066   3.753   5.684   8.477  0.2478  0.0173  0.3682
  132POPC   PO4 2067   3.929   5.298   8.496 -0.3276  0.2702 -0.3155
  132POPC   GL1 2068   4.173   5.094   8.126 -0.3853 -0.0554  0.2784
  132POPC   GL2 2069   4.514   5.155   8.031 -0.0355  0.0120  0.0719
  132POPC   C1A 2070   4.246   5.046   7.673 -0.1491 -0.1179  0.0243
  132POPC   D2A 2071   4.566   5.048   7.297  0.1093 -0.2633  0.1146
  132POPC   C3A 2072   4.590   4.903   6.855  0.5356  0.0671  0.0695
  132POPC   C4A 2073   4.811   4.441   6.839  0.0733  0.1741 -0.1001
  132POPC   C1B 2074   4.830   5.287   7.680 -0.1324 -0.0003  0.1610
  132POPC   C2B 2075   5.085   5.097   7.425 -0.0281 -0.0267 -0.2667
  132POPC   C3B 2076   5.490   4.836   7.376  0.1486  0.0402  0.1869
  132POPC   C4B 2077   5.726   4.503   7.424  0.0166  0.2165 -0.1518
  133POPC   NC3 2078   0.671   4.425   8.416  0.2277 -0.1743  0.0367
  133POPC   PO4 2079   0.402   4.313   8.166 -0.0720  0.2729  0.0054
  133POPC   GL1 2080   0.244   4.683   7.784  0.1551 -0.2317  0.2125
  133POPC   GL2 2081  -0.099   4.678   7.730 -0.1937 -0.5165  0.0888
  133POPC   C1A 2082   0.565   4.961   7.597  0.1538 -0.2109  0.3709
  133POPC   D2A 2083   0.973   4.733   7.311 -0.2362 -0.1283  0.2771
  133POPC   C3A 2084   0.918   4.637   6.904  0.0694 -0.1315 -0.0816
  133POPC   C4A 2085   1.154   4.828   6.495 -0.2120 -0.1099  0.1650
  133POPC   C1B 2086   0.124   4.993   7.375 -0.0162 -0.2988  0.0334
  133POPC   C2B 2087   0.123   4.979   6.930 -0.4812 -0.0241 -0.1497
  133POPC   C3B 2088   0.255   5.225   6.641 -0.3167 -0.0358 -0.0752
  133POPC   C4B 2089   0.301   5.517   6.374  0.1151  0.0507  0.0757
  134POPC   NC3 2090   6.866   5.015   8.609 -0.2241 -0.0588 -0.3273
  134POPC   PO4 2091   6.942   5.504   8.575 -0.0262 -0.3639 -0.1580
  134POPC   GL1 2092   6.784   5.631   8.175  0.1215  0.2129 -0.1123
  134POPC   GL2 2093   6.465   5.789   8.408 -0.2045 -0.1084  0.0930
  134POPC   C1A 2094   6.664   5.635   7.679 -0.0109  0.0463  0.2598
  134POPC   D2A 2095   6.478   5.547   7.210  0.2231 -0.0697  0.1620
  134POPC   C3A 2096   6.528   5.214   7.120  0.2463 -0.0961 -0.1257
  134POPC   C4A 2097   6.915   5.033   7.185 -0.2187 -0.3072 -0.0374
  134POPC   C1B 2098   6.311   5.841   7.931 -0.3535 -0.3395 -0.0744
  134POPC   C2B 2099   6.312   5.952   7.582 -0.1126  0.5363  0.1998
  134POPC   C3B 2100   6.563   6.071   7.111 -0.2827 -0.1688  0.3262
  134POPC   C4B 2101   6.591   6.191   6.720 -0.0012 -0.2427  0.0067
  135POPC   NC3 2102   9.294   4.784   8.503  0.1371  0.2774  0.2119
  135POPC   PO4 2103   9.051   5.151   8.518 -0.1191  0.3487 -0.1859
  135POPC   GL1 2104   9.046   4.969   8.140 -0.1026  0.2679  0.1031
  135POPC   GL2 2105   8.819   5.159   8.128  0.4781  0.1051 -0.0939
  135POPC   C1A 2106   9.285   5.094   7.720 -0.0030 -0.1456  0.4797
  135POPC   D2A 2107   9.575   5.310   7.414  0.0482  0.1172  0.0885
  135POPC   C3A 2108   9.480   5.003   7.072 -0.0563  0.1540 -0.2381
  135POPC   C4A 2109   9.141   4.756   6.841  0.0872  0.0388  0.0241
  135POPC   C1B 2110   8.772   5.144   7.711  0.0515  0.0118 -0.0447
  135POPC   C2B 2111   8.426   5.120   7.380 -0.0096  0.0247  0.3198
  135POPC   C3B 2112   8.175   5.443   7.122 -0.2599 -0.0384 -0.4103
  135POPC   C4B 2113   8.107   5.879   7.112  0.1817  0.1925  0.0992
  136POPC   NC3 2114   4.237   6.273   8.248  0.1260 -0.0097 -0.1244
  136POPC   PO4 2115   4.236   5.915   8.517 -0.2353 -0.0165  0.1948
  136POPC   GL1 2116   4.189   5.661   8.197 -0.0550  0.0091 -0.0292
  136POPC   GL2 2117   3.950   5.538   8.076  0.0462 -0.3491 -0.1889
  136POPC   C1A 2118   4.472   5.577   7.814 -0.1724  0.0521  0.0861
  136POPC   D2A 2119   4.491   5.503   7.438  0.2108 -0.1615  0.2392
  136POPC   C3A 2120   4.216   5.781   7.163 -0.2295 -0.2856 -0.1205
  136POPC   C4A 2121   4.103   5.858   6.709 -0.0359  0.1420 -0.2198
  136POPC   C1B 2122   3.940   5.549   7.559 -0.0560  0.2879 -0.1682
  136POPC   C2B 2123   3.997   5.297   7.341 -0.0487 -0.1757  0.2231
  136POPC   C3B 2124   4.058   4.919   7.146  0.1240  0.1871  0.2080
  136POPC   C4B 2125   3.852   4.497   7.116  0.4722 -0.0277 -0.1224
  137POPC   NC3 2126   1.499   4.786   8.719  0.0697 -0.1922 -0.2899
  137POPC   PO4 2127   1.055   4.748   8.612 -0.1844 -0.1168 -0.1480
  137POPC   GL1 2128   0.978   4.750   8.172  0.0060  0.1549  0.1315
  137POPC   GL2 2129   0.700   4.808   8.074 -0.2924  0.0624  0.0986
  137POPC   C1A 2130   1.259   4.643   7.861 -0.4149 -0.1482 -0.1559
  137POPC   D2A 2131   1.242   4.281   7.596 -0.0965 -0.0044 -0.1954
  137POPC   C3A 2132   1.253   4.312   7.215  0.0862  0.1075  0.0240
  137POPC   C4A 2133   1.365   4.419   6.845 -0.0853 -0.1426 -0.0505
  137POPC   C1B 2134   0.762   4.509   7.680  0.1958  0.1611 -0.0626
  137POPC   C2B 2135   0.676   4.292   7.193 -0.0608 -0.1522 -0.3107
  137POPC   C3B 2136   0.862   4.095   6.861 -0.0294  0.0758  0.3346
  137POPC   C4B 2137   1.326   3.873   6.786 -0.1965 -0.3544 -0.5255
  138POPC   NC3 2138   8.651   9.731   8.680  0.0327 -0.0402 -0.1917
  138POPC   PO4 2139   8.908   9.394   8.712 -0.0499  0.1141  0.5319
  138POPC   GL1 2140   9.062   9.622   8.414  0.2289 -0.3628  0.1422
  138POPC   GL2 2141   8.897   9.965   8.221  0.1930  0.1964 -0.1903
  138POPC   C1A 2142   9.106   9.424   8.013  0.0220  0.0342 -0.2287
  138POPC   D2A 2143   8.987   9.428   7.536  0.1060  0.0382 -0.0181
  138POPC   C3A 2144   9.276   9.275   7.194  0.4336 -0.2342 -0.2232
  138POPC   C4A 2145   9.153   9.007   6.672 -0.3454  0.1891 -0.1094
  138POPC   C1B 2146   9.103   9.950   7.788 -0.0327 -0.0637 -0.3534
  138POPC   C2B 2147   9.159   9.836   7.323  0.1264 -0.2649  0.0891
  138POPC   C3B 2148   9.371  10.148   6.971  0.3727 -0.2959 -0.1033
  138POPC   C4B 2149   9.905  10.185   7.039  0.1478 -0.1070 -0.0425
  139POPC   NC3 2150   7.208   8.361   8.577 -0.1361 -0.3846 -0.2545
  139POPC   PO4 2151   6.775   8.441   8.567  0.1015  0.0616  0.1304
  139POPC   GL1 2152   6.571   8.629   8.186 -0.0491  0.1499 -0.2205
  139POPC   GL2 2153   6.381   8.361   8.078 -0.3712 -0.1715 -0.1838
  139POPC   C1A 2154   6.699   8.682   7.689 -0.3091 -0.1098 -0.1204
  139POPC   D2A 2155   6.785   8.524   7.253  0.1328  0.1689  0.0104
  139POPC   C3A 2156   7.165   8.194   7.088 -0.2844 -0.0206 -0.1871
  139POPC   C4A 2157   7.570   8.363   6.818  0.0198 -0.1192  0.1250
  139POPC   C1B 2158   6.179   8.617   7.889 -0.1113  0.2329  0.3303
  139POPC   C2B 2159   6.235   8.595   7.544  0.2887 -0.1239  0.0916
  139POPC   C3B 2160   6.067   8.665   7.145  0.2924  0.4446 -0.1438
  139POPC   C4B 2161   5.773   8.563   6.879 -0.1393  0.3178 -0.0520
  140POPC   NC3 2162   9.219   0.621   8.709  0.2827  0.1498 -0.2225
  140POPC   PO4 2163   8.858   0.454   8.560  0.1036  0.2182  0.3442
  140POPC   GL1 2164   8.675   0.704   8.244  0.0868  0.1874  0.2040
  140POPC   GL2 2165   8.349   0.665   8.201 -0.4039 -0.1576  0.1006
  140POPC   C1A 2166   8.630   0.931   7.780 -0.0183  0.1732 -0.0941
  140POPC   D2A 2167   8.428   1.336   7.641  0.0501  0.2048  0.1088
  140POPC   C3A 2168   8.676   1.538   7.313  0.1602  0.0261  0.0616
  140POPC   C4A 2169   8.884   1.378   6.895 -0.3993  0.0160  0.0850
  140POPC   C1B 2170   8.302   0.498   7.797  0.1856  0.2210 -0.0564
  140POPC   C2B 2171   8.221   0.645   7.382  0.2286 -0.1908  0.1393
  140POPC   C3B 2172   8.058   0.857   6.975 -0.2190  0.0742  0.3245
  140POPC   C4B 2173   8.095   1.310   6.940  0.1353 -0.3648 -0.0756
  141POPC   NC3 2174   1.920   4.999   8.972  0.1781  0.0203  0.1169
  141POPC   PO4 2175   2.353   4.783   8.786 -0.2350  0.0142 -0.1729
  141POPC   GL1 2176   2.385   4.790   8.303 -0.0283  0.0381  0.0153
  141POPC   GL2 2177   2.678   4.601   8.157 -0.4598 -0.2197  0.2800
  141POPC   C1A 2178   2.419   5.124   7.969  0.0407 -0.0301  0.0892
  141POPC   D2A 2179   2.275   5.266   7.450 -0.0185 -0.0614 -0.0034
  141POPC   C3A 2180   2.652   5.172   7.168 -0.0879 -0.2127  0.0344
  141POPC   C4A 2181   2.660   5.011   6.747  0.0098  0.0824  0.0911
  141POPC   C1B 2182   2.883   4.930   8.014  0.0155 -0.2241  0.3029
  141POPC   C2B 2183   2.911   5.248   7.776 -0.1966 -0.0842  0.1340
  141POPC   C3B 2184   3.065   5.399   7.398  0.2728  0.0880 -0.1347
  141POPC   C4B 2185   3.187   5.304   6.966  0.0276 -0.0540 -0.1410
  142POPC   NC3 2186   4.226   3.780   8.681  0.1722  0.1181  0.0387
  142POPC   PO4 2187   4.085   3.496   8.922  0.0788 -0.3335  0.1458
  142POPC   GL1 2188   4.055   3.449   8.388  0.0280 -0.0904  0.1467
  142POPC   GL2 2189   4.024   3.686   8.130  0.1573 -0.0323 -0.2652
  142POPC   C1A 2190   4.284   3.071   8.106  0.0623 -0.1009 -0.0367
  142POPC   D2A 2191   4.656   2.797   8.088  0.3051 -0.0945 -0.2270
  142POPC   C3A 2192   4.694   2.715   7.628  0.0943  0.0759  0.1346
  142POPC   C4A 2193   4.827   2.506   7.281 -0.3540  0.0115  0.2223
  142POPC   C1B 2194   3.867   3.332   7.985  0.0205 -0.1549 -0.0443
  142POPC   C2B 2195   3.528   3.093   7.820  0.3509 -0.0966  0.1529
  142POPC   C3B 2196   3.242   2.946   7.567 -0.1800  0.0772  0.0878
  142POPC   C4B 2197   2.899   2.924   7.584 -0.1497  0.0780 -0.0704
  143POPC   NC3 2198   9.069   4.315   9.091 -0.1986  0.2768 -0.0159
  143POPC   PO4 2199   8.944   4.462   8.659 -0.2170  0.2736  0.3650
  143POPC   GL1 2200   9.147   4.387   8.302  0.3926 -0.1085  0.1211
  143POPC   GL2 2201   9.490   4.335   8.201 -0.2721 -0.0147 -0.1151
  143POPC   C1A 2202   9.113   4.129   7.925 -0.1970  0.0691  0.0171
  143POPC   D2A 2203   9.195   3.959   7.524 -0.0143 -0.0159  0.3335
  143POPC   C3A 2204   8.982   3.990   7.153 -0.1586 -0.3915 -0.2758
  143POPC   C4A 2205   8.781   4.273   6.780  0.0621  0.2819 -0.1920
  143POPC   C1B 2206   9.582   4.236   7.718 -0.0445  0.1535 -0.2347
  143POPC   C2B 2207   9.657   3.986   7.284  0.1727 -0.0225 -0.1943
  143POPC   C3B 2208   9.771   3.938   6.840 -0.1596 -0.4855  0.0883
  143POPC   C4B 2209   9.845   4.267   6.630  0.5012 -0.3149 -0.2919
  144POPC   NC3 2210   3.742   2.606   9.177  0.2899  0.0886  0.1966
  144POPC   PO4 2211   3.480   2.916   9.031 -0.0335  0.0296 -0.1900
  144POPC   GL1 2212   3.045   2.769   8.918  0.0993 -0.2064  0.1302
  144POPC   GL2 2213   3.048   2.488   9.158  0.0529 -0.0540 -0.1204
  144POPC   C1A 2214   3.056   2.499   8.506  0.0771 -0.2036  0.2627
  144POPC   D2A 2215   2.917   2.183   8.242 -0.3546  0.1183 -0.1424
  144POPC   C3A 2216   3.135   2.029   7.775 -0.0511  0.3357  0.0819
  144POPC   C4A 2217   3.194   1.561   7.550 -0.1555  0.0097 -0.2695
  144POPC   C1B 2218   3.274   2.245   8.906 -0.0201 -0.0751  0.0875
  144POPC   C2B 2219   3.285   2.005   8.534  0.4592 -0.1478 -0.0839
  144POPC   C3B 2220   3.251   1.768   8.204 -0.0433 -0.2205  0.1498
  144POPC   C4B 2221   3.347   1.303   7.988  0.2402  0.1261  0.3699
  145POPC   NC3 2222  10.428   1.300   9.151  0.0630  0.1918 -0.1887
  145POPC   PO4 2223  10.635   1.056   8.726 -0.1357 -0.0379 -0.0598
  145POPC   GL1 2224  10.706   1.102   8.264  0.0618 -0.0393  0.0862
  145POPC   GL2 2225  10.904   0.776   8.238 -0.4442 -0.0098 -0.1872
  145POPC   C1A 2226  10.670   1.304   7.886  0.0309 -0.0380  0.0165
  145POPC   D2A 2227  10.807   1.477   7.536 -0.6280 -0.2398  0.0182
  145POPC   C3A 2228  10.701   1.267   7.113  0.1777 -0.1243  0.0652
  145POPC   C4A 2229  10.560   0.988   6.815 -0.3520 -0.0114  0.2167
  145POPC   C1B 2230  11.048   0.840   7.827  0.0970 -0.1306  0.0371
  145POPC   C2B 2231  11.167   1.061   7.531 -0.1434 -0.3447  0.1628
  145POPC   C3B 2232  11.521   1.039   7.304  0.0695  0.1052 -0.3100
  145POPC   C4B 2233  11.617   1.237   6.852 -0.0248  0.2797  0.0218
  146POPC   NC3 2234   4.621   2.435   9.411 -0.1880 -0.3585 -0.1617
  146POPC   PO4 2235   4.615   2.721   9.166 -0.0324  0.3618  0.1141
  146POPC   GL1 2236   4.700   2.542   8.794  0.4126  0.0523  0.3947
  146POPC   GL2 2237   4.609   2.748   8.586  0.1617  0.0417  0.0241
  146POPC   C1A 2238   4.605   2.298   8.393 -0.0766  0.1169 -0.0719
  146POPC   D2A 2239   4.455   2.346   7.895 -0.1684 -0.1935 -0.2423
  146POPC   C3A 2240   4.199   2.674   7.813  0.0159 -0.1625 -0.3770
  146POPC   C4A 2241   4.056   2.948   7.647  0.1421  0.0216 -0.1897
  146POPC   C1B 2242   4.294   2.614   8.395  0.4817  0.0009  0.0275
  146POPC   C2B 2243   3.915   2.514   8.561 -0.0278 -0.4984  0.0657
  146POPC   C3B 2244   3.590   2.407   8.489  0.0629 -0.0390  0.1829
  146POPC   C4B 2245   3.373   2.383   8.117 -0.2076  0.0945 -0.0640
  147POPC   NC3 2246   2.737   7.832   9.055  0.0733 -0.0710 -0.1777
  147POPC   PO4 2247   2.487   7.617   8.628  0.1720 -0.0286 -0.0482
  147POPC   GL1 2248   2.596   7.503   8.224  0.2816  0.2506  0.0613
  147POPC   GL2 2249   2.447   7.608   7.955  0.0541 -0.3690  0.3305
  147POPC   C1A 2250   2.840   7.353   7.801  0.1305  0.1538  0.2170
  147POPC   D2A 2251   2.792   7.076   7.462  0.1177 -0.0742  0.0673
  147POPC   C3A 2252   2.729   7.016   7.054 -0.0042  0.0302  0.0694
  147POPC   C4A 2253   2.977   6.808   6.627  0.2168  0.0700  0.1829
  147POPC   C1B 2254   2.384   7.954   7.717  0.0283  0.0505 -0.2170
  147POPC   C2B 2255   2.532   8.154   7.325  0.2249 -0.1094 -0.1215
  147POPC   C3B 2256   2.739   8.424   7.067  0.2659 -0.1268  0.2134
  147POPC   C4B 2257   2.885   8.516   6.698 -0.0548  0.1059 -0.0417
  148POPC   NC3 2258   1.355   0.472   9.188 -0.3020  0.0878 -0.1598
  148POPC   PO4 2259   1.231   0.602   8.769 -0.6008 -0.0547 -0.2421
  148POPC   GL1 2260   1.182   0.421   8.406  0.0123 -0.2528 -0.4561
  148POPC   GL2 2261   0.931   0.276   8.339 -0.0670 -0.2403  0.0124
  148POPC   C1A 2262   1.295   0.554   8.095  0.1977 -0.2345 -0.0585
  148POPC   D2A 2263   1.285   0.362   7.631  0.1867  0.2548  0.2499
  148POPC   C3A 2264   1.637   0.328   7.358  0.0314  0.2399 -0.0624
  148POPC   C4A 2265   2.053   0.365   7.219 -0.2383  0.1150 -0.1484
  148POPC   C1B 2266   0.848   0.402   7.867 -0.0089  0.0710 -0.1967
  148POPC   C2B 2267   0.832   0.525   7.471  0.1049  0.1304  0.2584
  148POPC   C3B 2268   0.949   0.349   7.241  0.0852 -0.0200  0.3106
  148POPC   C4B 2269   0.876   0.041   6.930 -0.3185  0.0822 -0.1370
  149POPC   NC3 2270   2.262   7.980   8.856 -0.0431  0.1183 -0.0428
  149POPC   PO4 2271   2.572   8.165   8.720 -0.0471  0.0375 -0.0260
  149POPC   GL1 2272   2.766   8.023   8.333  0.1194  0.3166 -0.0322
  149POPC   GL2 2273   2.752   8.229   8.001 -0.0285 -0.0534 -0.0805
  149POPC   C1A 2274   2.929   7.826   7.970  0.1271  0.3157 -0.1077
  149POPC   D2A 2275   3.238   7.637   7.791 -0.1473 -0.0002  0.2617
  149POPC   C3A 2276   3.493   7.929   7.560 -0.0993 -0.2567 -0.2356
  149POPC   C4A 2277   3.713   8.032   7.120  0.1020 -0.1012  0.0169
  149POPC   C1B 2278   2.714   8.454   7.679  0.2873  0.3830  0.1792
  149POPC   C2B 2279   2.404   8.631   7.388 -0.2536 -0.1076  0.2302
  149POPC   C3B 2280   2.285   8.922   7.095 -0.2558 -0.1355 -0.0030
  149POPC   C4B 2281   2.206   9.067   6.695  0.0284 -0.1267  0.0743
  150POPC   NC3 2282   8.876   2.148   8.609 -0.2739 -0.0894 -0.0454
  150POPC   PO4 2283   8.402   2.391   8.617 -0.0637  0.0810  0.1510
  150POPC   GL1 2284   8.589   2.269   8.253  0.1842 -0.0207 -0.0586
  150POPC   GL2 2285   8.467   2.006   8.114  0.0687  0.1107  0.1045
  150POPC   C1A 2286   8.703   2.247   7.718  0.2463  0.0522 -0.0930
  150POPC   D2A 2287   8.428   2.203   7.437 -0.0257  0.5537  0.0201
  150POPC   C3A 2288   8.222   2.074   7.006 -0.2185 -0.2863 -0.1000
  150POPC   C4A 2289   8.379   1.740   6.847 -0.2494 -0.0727  0.1259
  150POPC   C1B 2290   8.418   1.802   7.724 -0.1714 -0.2217  0.0049
  150POPC   C2B 2291   8.177   1.668   7.378 -0.0712  0.5016 -0.0505
  150POPC   C3B 2292   7.792   1.390   7.308  0.3423  0.1447  0.0008
  150POPC   C4B 2293   7.578   1.004   7.017  0.1490 -0.1961  0.0322
  151POPC   NC3 2294   1.355   0.101   8.803  0.0943  0.4896 -0.0173
  151POPC   PO4 2295   1.178  -0.211   8.792  0.0632  0.0882 -0.2017
  151POPC   GL1 2296   1.292  -0.168   8.349 -0.0291  0.0633 -0.1806
  151POPC   GL2 2297   1.540   0.056   8.322 -0.1152 -0.0362 -0.0713
  151POPC   C1A 2298   1.062  -0.011   7.937 -0.0452  0.2248  0.2086
  151POPC   D2A 2299   0.843  -0.034   7.494 -0.2595 -0.0723 -0.1309
  151POPC   C3A 2300   0.437   0.053   7.459 -0.0809  0.0484 -0.0405
  151POPC   C4A 2301   0.048  -0.073   7.663 -0.0770  0.0553  0.1351
  151POPC   C1B 2302   1.577  -0.045   7.940 -0.0639  0.1553  0.0995
  151POPC   C2B 2303   1.348  -0.141   7.563  0.1510 -0.1135 -0.0172
  151POPC   C3B 2304   1.135  -0.327   7.182  0.2327 -0.0474 -0.0112
  151POPC   C4B 2305   1.344  -0.654   6.901  0.2331  0.2773  0.3512
  152POPC   NC3 2306   8.146  10.160   8.791 -0.0451 -0.1337 -0.0414
  152POPC   PO4 2307   8.386  10.066   8.413  0.4124  0.0247 -0.0697
  152POPC   GL1 2308   8.422  10.204   8.066 -0.1407 -0.1617 -0.0076
  152POPC   GL2 2309   8.606  10.476   8.000 -0.0187 -0.1415 -0.0720
  152POPC   C1A 2310   8.348  10.291   7.580  0.3602  0.1363 -0.0483
  152POPC   D2A 2311   8.504  10.512   7.237 -0.0333 -0.2431 -0.0752
  152POPC   C3A 2312   8.298  10.739   6.925 -0.1784 -0.1604  0.2228
  152POPC   C4A 2313   8.310  11.032   6.585  0.0662  0.0592 -0.1864
  152POPC   C1B 2314   8.834  10.371   7.645 -0.2328  0.1063  0.0545
  152POPC   C2B 2315   8.993  10.390   7.257 -0.1697  0.0052 -0.0857
  152POPC   C3B 2316   8.996  10.611   6.832  0.0951  0.3697 -0.0115
  152POPC   C4B 2317   8.766  10.725   6.553 -0.0335  0.0890 -0.1298
  153POPC   NC3 2318  10.081   6.714   9.033 -0.0644 -0.2644 -0.1034
  153POPC   PO4 2319   9.709   6.909   8.702  0.0579 -0.0173 -0.1323
  153POPC   GL1 2320   9.736   6.915   8.301  0.1924 -0.0457 -0.1970
  153POPC   GL2 2321   9.827   7.311   8.190  0.1625 -0.3620  0.1425
  153POPC   C1A 2322  10.016   6.878   7.959  0.1011 -0.4688 -0.2352
  153POPC   D2A 2323  10.063   7.165   7.516  0.4215  0.2483 -0.0823
  153POPC   C3A 2324  10.366   7.287   7.131  0.0008 -0.0478  0.1328
  153POPC   C4A 2325  10.741   7.159   6.914  0.0189  0.0304  0.1149
  153POPC   C1B 2326   9.706   7.501   7.734 -0.3394  0.0972 -0.0083
  153POPC   C2B 2327   9.431   7.695   7.481 -0.0054 -0.0129 -0.2983
  153POPC   C3B 2328   9.602   7.895   7.215  0.3190 -0.0868 -0.2465
  153POPC   C4B 2329   9.736   8.160   6.983 -0.1996 -0.0451  0.1048
  154POPC   NC3 2330   2.457   4.213   8.972 -0.0443 -0.2624 -0.1552
  154POPC   PO4 2331   2.354   4.334   8.522  0.0141  0.0612 -0.1912
  154POPC   GL1 2332   2.108   4.334   8.039 -0.1734  0.0361 -0.2516
  154POPC   GL2 2333   2.012   4.031   7.932 -0.2548  0.4226 -0.0343
  154POPC   C1A 2334   2.365   4.480   7.817 -0.2045 -0.0657  0.0338
  154POPC   D2A 2335   2.553   4.853   7.571 -0.0040  0.1261  0.1252
  154POPC   C3A 2336   2.432   4.687   7.117 -0.0090  0.0412  0.1607
  154POPC   C4A 2337   2.365   4.556   6.690  0.0472  0.0805  0.2655
  154POPC   C1B 2338   2.217   4.000   7.646  0.0509  0.0265  0.1356
  154POPC   C2B 2339   2.355   4.070   7.148 -0.0917 -0.0017 -0.0727
  154POPC   C3B 2340   2.324   4.022   6.718  0.1428 -0.2592  0.1286
  154POPC   C4B 2341   2.219   3.961   6.263 -0.0143  0.1314  0.0974
  155POPC   NC3 2342   8.126   6.217   8.945  0.1072  0.1411  0.1073
  155POPC   PO4 2343   8.450   6.506   8.755  0.2919 -0.0550  0.3614
  155POPC   GL1 2344   8.647   6.776   8.384  0.3272 -0.0222  0.1593
  155POPC   GL2 2345   8.364   6.861   8.049  0.0418 -0.3239  0.0861
  155POPC   C1A 2346   8.845   6.604   8.046 -0.2014  0.1958 -0.0545
  155POPC   D2A 2347   8.629   6.597   7.636 -0.2618 -0.1595  0.3374
  155POPC   C3A 2348   8.558   6.895   7.329  0.1178 -0.0481 -0.1970
  155POPC   C4A 2349   8.505   7.302   7.370  0.2372 -0.0709 -0.0314
  155POPC   C1B 2350   8.304   7.084   7.826  0.1121  0.0012  0.1355
  155POPC   C2B 2351   8.072   7.418   7.796  0.0263  0.3310 -0.0490
  155POPC   C3B 2352   8.098   7.603   7.391 -0.1958  0.3189  0.0579
  155POPC   C4B 2353   8.012   7.995   7.334  0.2167 -0.0297 -0.2837
  156POPC   NC3 2354   4.507   5.366   8.525 -0.1501  0.1297 -0.0328
  156POPC   PO4 2355   4.788   5.046   8.530 -0.1801 -0.3060 -0.3256
  156POPC   GL1 2356   4.896   4.843   8.157 -0.1679 -0.4528 -0.2764
  156POPC   GL2 2357   4.752   4.459   8.066 -0.0959  0.1037  0.1193
  156POPC   C1A 2358   4.694   4.798   7.730 -0.1141  0.2414 -0.3888
  156POPC   D2A 2359   4.749   4.561   7.413 -0.1801  0.0776 -0.1028
  156POPC   C3A 2360   4.821   4.124   7.268  0.0100 -0.2215  0.0970
  156POPC   C4A 2361   4.568   4.015   6.915 -0.3727  0.0206 -0.1350
  156POPC   C1B 2362   4.611   4.162   7.739 -0.1913  0.1950  0.2188
  156POPC   C2B 2363   4.506   3.815   7.552  0.1572  0.0496 -0.0235
  156POPC   C3B 2364   4.353   3.657   7.167  0.0337  0.1431  0.0955
  156POPC   C4B 2365   4.337   3.544   6.744  0.1080 -0.1967  0.2434
  157POPC   NC3 2366   9.218   6.974   8.879 -0.1954 -0.0972 -0.1326
  157POPC   PO4 2367   8.876   7.181   8.613 -0.0240  0.0015 -0.0935
  157POPC   GL1 2368   9.166   6.943   8.323 -0.2101  0.1024  0.3241
  157POPC   GL2 2369   9.369   7.210   8.206  0.0162 -0.0215 -0.2846
  157POPC   C1A 2370   9.387   6.582   8.041  0.0075  0.1038 -0.3326
  157POPC   D2A 2371   9.274   6.492   7.696  0.2086  0.1021  0.3296
  157POPC   C3A 2372   9.431   6.300   7.295 -0.2006 -0.1502 -0.0120
  157POPC   C4A 2373   9.245   6.191   6.901  0.1432 -0.1571  0.3712
  157POPC   C1B 2374   9.403   7.000   7.817  0.0936  0.2017  0.1831
  157POPC   C2B 2375   9.550   6.829   7.466  0.0005 -0.1854 -0.0244
  157POPC   C3B 2376   9.509   6.769   7.048 -0.1138  0.2930  0.1388
  157POPC   C4B 2377   9.330   6.719   6.617  0.1735 -0.0207 -0.1180
  158POPC   NC3 2378   4.773   1.589  10.316 -0.2775 -0.1196  0.0832
  158POPC   PO4 2379   4.885   1.692   9.879 -0.0771 -0.2066 -0.1478
  158POPC   GL1 2380   4.900   1.709   9.362  0.0470 -0.1619 -0.1792
  158POPC   GL2 2381   4.705   1.440   9.423 -0.2231 -0.4428 -0.1836
  158POPC   C1A 2382   5.001   1.924   8.955 -0.1478 -0.0908  0.0540
  158POPC   D2A 2383   5.149   2.040   8.514  0.0754  0.1275 -0.2266
  158POPC   C3A 2384   5.094   1.860   8.150  0.2516 -0.1593 -0.0022
  158POPC   C4A 2385   5.072   1.595   7.677 -0.1218 -0.1173  0.0902
  158POPC   C1B 2386   4.306   1.495   9.139  0.1590 -0.1462 -0.0321
  158POPC   C2B 2387   4.059   1.621   8.678  0.0410  0.0608 -0.2259
  158POPC   C3B 2388   3.785   1.473   8.320  0.0422  0.4778 -0.0933
  158POPC   C4B 2389   3.780   1.116   8.207  0.0774  0.2045 -0.0422
  159POPC   NC3 2390   1.628  10.114   8.775  0.0412 -0.0091  0.2227
  159POPC   PO4 2391   1.494   9.861   8.496  0.0435  0.1376  0.2140
  159POPC   GL1 2392   1.755  10.014   8.271  0.1025  0.0423  0.2436
  159POPC   GL2 2393   2.216  10.045   8.288 -0.3271 -0.0437 -0.0733
  159POPC   C1A 2394   1.907  10.018   7.886 -0.3678  0.0509 -0.2660
  159POPC   D2A 2395   2.171   9.894   7.542  0.0023  0.0884  0.0381
  159POPC   C3A 2396   2.064   9.839   7.227 -0.0868  0.2818  0.0261
  159POPC   C4A 2397   1.851   9.606   6.852 -0.0362  0.3718  0.1767
  159POPC   C1B 2398   2.324  10.245   7.843  0.0510 -0.2935  0.1582
  159POPC   C2B 2399   2.411  10.410   7.483 -0.3956  0.1334  0.0272
  159POPC   C3B 2400   2.315  10.314   7.113  0.2821  0.0514 -0.1156
  159POPC   C4B 2401   1.979  10.127   6.842  0.0294  0.2171 -0.1405
  160POPC   NC3 2402   7.996   2.352   8.904 -0.0260  0.2762  0.3648
  160POPC   PO4 2403   7.825   2.203   8.541 -0.0860  0.2763 -0.2449
  160POPC   GL1 2404   7.968   2.377   8.250  0.0226  0.1023  0.2020
  160POPC   GL2 2405   7.973   1.993   8.029  0.0588 -0.1629 -0.0201
  160POPC   C1A 2406   8.250   2.432   7.906  0.0953  0.0034  0.1339
  160POPC   D2A 2407   8.461   2.770   7.691  0.0225 -0.0287 -0.1323
  160POPC   C3A 2408   8.892   2.731   7.810  0.2576 -0.0111  0.0330
  160POPC   C4A 2409   9.302   2.608   7.985  0.1418  0.1803  0.1387
  160POPC   C1B 2410   7.940   2.095   7.640 -0.0857 -0.0681 -0.1327
  160POPC   C2B 2411   7.834   2.006   7.294  0.1297 -0.0213 -0.1833
  160POPC   C3B 2412   7.480   1.913   7.067 -0.3378 -0.2201 -0.1278
  160POPC   C4B 2413   7.085   1.808   6.924 -0.3628  0.1142 -0.0383
  161POPC   NC3 2414   0.774   2.748   8.921  0.1460 -0.5416  0.1915
  161POPC   PO4 2415   0.452   2.944   8.707  0.1795 -0.0282  0.0289
  161POPC   GL1 2416   0.423   2.977   8.181 -0.2847  0.0595  0.0664
  161POPC   GL2 2417   0.490   3.279   7.874 -0.0507 -0.0096 -0.3931
  161POPC   C1A 2418   0.361   2.764   7.672  0.2518 -0.0630  0.0207
  161POPC   D2A 2419   0.157   2.506   7.428 -0.0770 -0.0568  0.1652
  161POPC   C3A 2420   0.325   2.122   7.211 -0.0831 -0.2051  0.1972
  161POPC   C4A 2421   0.384   1.844   6.817 -0.1986  0.0436 -0.1324
  161POPC   C1B 2422   0.457   3.382   7.441  0.0546 -0.2141  0.0148
  161POPC   C2B 2423   0.547   3.803   7.214  0.2612  0.1714  0.0553
  161POPC   C3B 2424   0.324   4.076   6.953  0.1158 -0.0296  0.2451
  161POPC   C4B 2425   0.346   4.517   6.791  0.1758  0.2456  0.0803
  162POPC   NC3 2426   1.231   7.307   8.515  0.0319 -0.0532  0.0805
  162POPC   PO4 2427   1.617   7.438   8.326 -0.2777 -0.2313  0.3466
  162POPC   GL1 2428   1.642   7.560   7.959 -0.0577 -0.3735 -0.0660
  162POPC   GL2 2429   1.929   7.694   7.920  0.0801 -0.0769 -0.0205
  162POPC   C1A 2430   1.602   7.689   7.549  0.0595 -0.0181  0.1296
  162POPC   D2A 2431   1.226   7.784   7.271  0.1726 -0.2095 -0.0472
  162POPC   C3A 2432   0.827   7.638   7.435  0.0721 -0.0072  0.0929
  162POPC   C4A 2433   0.447   7.440   7.248 -0.1124  0.1418 -0.1951
  162POPC   C1B 2434   2.086   7.556   7.568  0.4552  0.1873  0.0502
  162POPC   C2B 2435   2.551   7.588   7.444  0.2652  0.2428 -0.1119
  162POPC   C3B 2436   2.936   7.500   7.264  0.4190  0.1850 -0.1252
  162POPC   C4B 2437   3.255   7.675   7.219  0.0315 -0.1513 -0.0058
  163POPC   NC3 2438   3.916   8.226   9.439  0.0486 -0.0507  0.0653
  163POPC   PO4 2439   3.921   8.535   9.126  0.0189  0.0820  0.2667
  163POPC   GL1 2440   4.031   8.763   8.764  0.1060 -0.0754  0.0553
  163POPC   GL2 2441   3.751   8.718   8.507 -0.0458  0.1193 -0.0601
  163POPC   C1A 2442   4.258   8.697   8.351  0.1774 -0.0231 -0.0067
  163POPC   D2A 2443   4.711   8.791   8.154 -0.1440 -0.0785  0.0089
  163POPC   C3A 2444   4.934   8.762   7.757  0.3976  0.1503 -0.3648
  163POPC   C4A 2445   5.178   8.473   7.527 -0.0594 -0.0117 -0.0574
  163POPC   C1B 2446   4.030   9.103   8.307  0.0244 -0.3802 -0.2633
  163POPC   C2B 2447   4.139   9.055   7.977 -0.1453  0.0848  0.1337
  163POPC   C3B 2448   4.138   9.278   7.608 -0.0211  0.1227 -0.0692
  163POPC   C4B 2449   4.188   9.782   7.450  0.4547 -0.1132  0.1628
  164POPC   NC3 2450  10.133  10.458   8.407 -0.0345  0.1123  0.1016
  164POPC   PO4 2451  10.297  10.069   8.632 -0.2758 -0.2156 -0.0110
  164POPC   GL1 2452  10.374  10.067   8.163 -0.1312  0.0570  0.1164
  164POPC   GL2 2453  10.175  10.261   7.950  0.0645  0.0009  0.1169
  164POPC   C1A 2454  10.527   9.961   7.683 -0.0473  0.0337  0.0545
  164POPC   D2A 2455  10.437  10.129   7.168 -0.1176  0.2685  0.0974
  164POPC   C3A 2456  10.643  10.298   6.891 -0.2989 -0.1196  0.1141
  164POPC   C4A 2457  10.981  10.330   6.730  0.3294  0.1236 -0.2068
  164POPC   C1B 2458   9.955   9.913   7.706 -0.3336  0.0123 -0.1395
  164POPC   C2B 2459  10.071   9.668   7.265 -0.2973 -0.3862  0.1121
  164POPC   C3B 2460   9.912   9.723   6.929  0.0917 -0.2096  0.3252
  164POPC   C4B 2461   9.919   9.570   6.520 -0.0431 -0.1186  0.1424
  165POPC   NC3 2462   4.386   5.950   8.993 -0.1155 -0.3505 -0.0215
  165POPC   PO4 2463   4.573   6.261   8.686  0.1915  0.0446  0.0176
  165POPC   GL1 2464   4.728   6.457   8.313 -0.0784  0.0631  0.2313
  165POPC   GL2 2465   4.956   6.644   8.385 -0.2230  0.1905  0.0928
  165POPC   C1A 2466   4.806   6.257   7.857 -0.0352 -0.3270 -0.1694
  165POPC   D2A 2467   4.888   5.836   7.700  0.0718 -0.2276  0.4853
  165POPC   C3A 2468   4.728   5.868   7.191  0.2698  0.3857  0.0717
  165POPC   C4A 2469   4.586   5.924   6.799  0.0153 -0.1107 -0.0535
  165POPC   C1B 2470   5.217   6.519   7.965 -0.1045 -0.0772 -0.2773
  165POPC   C2B 2471   5.307   6.122   7.636 -0.1300  0.1041 -0.0236
  165POPC   C3B 2472   5.544   5.757   7.358  0.2636 -0.0032 -0.2230
  165POPC   C4B 2473   5.615   5.276   7.558  0.1231 -0.2796 -0.2431
  166POPC   NC3 2474   1.946   2.822   8.821 -0.0615 -0.3627  0.3266
  166POPC   PO4 2475   2.282   2.908   9.176  0.2604  0.0566 -0.0112
  166POPC   GL1 2476   2.480   2.628   8.909  0.0436 -0.0646 -0.0789
  166POPC   GL2 2477   2.411   2.849   8.709  0.1108  0.0469 -0.0726
  166POPC   C1A 2478   2.500   2.408   8.520 -0.2847  0.0079 -0.2122
  166POPC   D2A 2479   2.262   2.185   8.159  0.1209 -0.0304  0.1541
  166POPC   C3A 2480   1.938   1.913   8.125 -0.0028  0.3765  0.2050
  166POPC   C4A 2481   1.535   1.919   7.967  0.0496  0.0879 -0.0182
  166POPC   C1B 2482   2.720   2.860   8.482  0.4269  0.3661  0.0210
  166POPC   C2B 2483   3.010   3.027   8.474 -0.1996  0.2173  0.1643
  166POPC   C3B 2484   3.457   3.106   8.341 -0.0462 -0.0002 -0.0229
  166POPC   C4B 2485   3.841   2.847   8.217 -0.4512  0.1462 -0.3194
  167POPC   NC3 2486   5.851   6.385   8.769  0.2924  0.0197  0.0339
  167POPC   PO4 2487   5.372   6.646   8.826 -0.0354 -0.2713 -0.0922
  167POPC   GL1 2488   5.481   6.639   8.416  0.0102  0.1806 -0.0961
  167POPC   GL2 2489   5.532   6.329   8.355  0.1140  0.0216  0.0148
  167POPC   C1A 2490   5.549   6.898   8.054 -0.1145 -0.3789 -0.0696
  167POPC   D2A 2491   5.430   7.093   7.679 -0.1516  0.1169  0.3394
  167POPC   C3A 2492   5.675   7.129   7.223 -0.0889 -0.1381  0.0701
  167POPC   C4A 2493   5.346   7.303   6.881  0.1802  0.0296  0.1113
  167POPC   C1B 2494   5.676   6.363   8.000 -0.2070 -0.2214  0.0332
  167POPC   C2B 2495   5.577   6.546   7.500 -0.0425 -0.3230 -0.1257
  167POPC   C3B 2496   5.136   6.826   7.377 -0.0498  0.0179  0.0592
  167POPC   C4B 2497   4.979   7.181   7.439 -0.3947  0.1472  0.2015
  168POPC   NC3 2498   3.938   3.219   3.994 -0.0800 -0.1969  0.0319
  168POPC   PO4 2499   3.906   3.600   4.201 -0.2241  0.3266  0.0190
  168POPC   GL1 2500   3.695   3.589   4.559 -0.2058 -0.2563  0.0436
  168POPC   GL2 2501   3.861   3.936   4.829  0.0228 -0.1400 -0.2819
  168POPC   C1A 2502   3.448   3.627   4.898  0.2708  0.1382  0.1028
  168POPC   D2A 2503   3.558   3.679   5.227 -0.2566 -0.0036  0.2028
  168POPC   C3A 2504   3.392   3.556   5.629  0.0159 -0.1661  0.1075
  168POPC   C4A 2505   3.176   3.790   6.000 -0.3974 -0.1336  0.0927
  168POPC   C1B 2506   3.678   4.173   5.060 -0.0534 -0.0417  0.1583
  168POPC   C2B 2507   3.335   4.420   5.156  0.2199  0.0468 -0.0444
  168POPC   C3B 2508   3.336   4.653   5.545 -0.3279  0.1294  0.2879
  168POPC   C4B 2509   3.325   4.763   5.947 -0.0300 -0.3177  0.3425
  169POPC   NC3 2510   8.470   5.120   4.979  0.1497  0.0697  0.0555
  169POPC   PO4 2511   8.055   4.966   5.122  0.1820  0.3499 -0.0999
  169POPC   GL1 2512   8.203   4.998   5.542  0.0846  0.0428  0.1153
  169POPC   GL2 2513   8.084   4.732   5.760  0.1203  0.1601  0.1395
  169POPC   C1A 2514   8.364   5.109   5.938  0.0182  0.0845  0.1156
  169POPC   D2A 2515   8.709   5.101   6.089 -0.4448  0.4678 -0.0319
  169POPC   C3A 2516   8.652   4.894   6.529 -0.1573  0.0203 -0.0125
  169POPC   C4A 2517   8.676   5.084   6.905  0.2482  0.2882 -0.1470
  169POPC   C1B 2518   8.196   4.393   6.150 -0.0618 -0.2423 -0.3123
  169POPC   C2B 2519   8.319   4.158   6.548  0.0237  0.0418  0.1225
  169POPC   C3B 2520   8.094   3.938   6.755 -0.0398 -0.0675  0.1523
  169POPC   C4B 2521   7.882   3.513   6.794  0.2946 -0.2630 -0.0146
  170POPC   NC3 2522   8.226   8.844   4.627 -0.1108  0.0182 -0.1776
  170POPC   PO4 2523   8.372   8.956   5.096  0.0762 -0.2523 -0.0554
  170POPC   GL1 2524   8.233   9.147   5.427  0.2681  0.0219 -0.0449
  170POPC   GL2 2525   8.416   9.384   5.475 -0.0307 -0.1914 -0.2853
  170POPC   C1A 2526   8.158   9.221   5.869  0.0069 -0.2801 -0.0304
  170POPC   D2A 2527   8.246   9.449   6.323 -0.0132 -0.0304 -0.0666
  170POPC   C3A 2528   8.390   9.379   6.862 -0.3318  0.0270  0.2537
  170POPC   C4A 2529   8.778   9.609   7.102 -0.1615 -0.0329 -0.1975
  170POPC   C1B 2530   8.290   9.704   5.708 -0.2698  0.0768  0.1310
  170POPC   C2B 2531   7.914   9.699   5.995 -0.1861  0.1764  0.2961
  170POPC   C3B 2532   7.741   9.654   6.294  0.0976  0.1933  0.0538
  170POPC   C4B 2533   7.591   9.726   6.667  0.1536  0.0033 -0.0626
  171POPC   NC3 2534   0.253   8.604   4.607 -0.0166  0.3980  0.2881
  171POPC   PO4 2535   0.514   8.917   4.449 -0.2770  0.3468  0.1759
  171POPC   GL1 2536   0.474   8.965   4.883 -0.2222  0.1576 -0.0158
  171POPC   GL2 2537   0.233   9.290   4.919 -0.0365  0.0043 -0.0288
  171POPC   C1A 2538   0.509   8.943   5.356 -0.0095 -0.1654  0.1006
  171POPC   D2A 2539   0.356   8.574   5.619 -0.1092  0.1203 -0.3359
  171POPC   C3A 2540   0.361   8.614   6.090 -0.3291  0.1253 -0.0412
  171POPC   C4A 2541   0.476   8.657   6.547 -0.2672  0.0625  0.0772
  171POPC   C1B 2542   0.428   9.470   5.251 -0.2455 -0.4087  0.0272
  171POPC   C2B 2543   0.503   9.394   5.681 -0.2915 -0.4749  0.5875
  171POPC   C3B 2544   0.824   9.347   6.072 -0.2531  0.1033 -0.0179
  171POPC   C4B 2545   0.653   9.498   6.484 -0.0177 -0.0603 -0.1813
  172POPC   NC3 2546   6.090   5.628   4.738 -0.1045  0.1889  0.0290
  172POPC   PO4 2547   6.021   5.863   5.127  0.0299  0.0819 -0.0569
  172POPC   GL1 2548   6.167   5.936   5.537 -0.0909  0.0206  0.1402
  172POPC   GL2 2549   6.011   6.012   5.928 -0.3149 -0.2689  0.1063
  172POPC   C1A 2550   6.483   5.800   5.852  0.2192 -0.1072  0.0564
  172POPC   D2A 2551   6.795   5.972   6.119 -0.0312  0.2539  0.1304
  172POPC   C3A 2552   7.074   5.978   6.506 -0.1663 -0.0180  0.0718
  172POPC   C4A 2553   7.348   5.775   6.681 -0.0702  0.0446 -0.1992
  172POPC   C1B 2554   6.282   6.007   6.291  0.1960 -0.1553 -0.2551
  172POPC   C2B 2555   6.191   5.884   6.692 -0.2295 -0.1190 -0.0486
  172POPC   C3B 2556   6.042   5.847   7.059  0.2886 -0.3047  0.2718
  172POPC   C4B 2557   5.968   5.497   7.267 -0.0342 -0.1170  0.2206
  173POPC   NC3 2558   8.817   3.853   4.640  0.0837 -0.1053  0.3757
  173POPC   PO4 2559   8.615   4.159   4.850 -0.0259  0.4969  0.0474
  173POPC   GL1 2560   8.619   4.378   5.235 -0.1000  0.1747 -0.0475
  173POPC   GL2 2561   8.495   4.654   5.282  0.0718  0.0111 -0.0082
  173POPC   C1A 2562   8.814   4.655   5.652 -0.0283  0.0603 -0.1196
  173POPC   D2A 2563   8.670   4.642   6.048 -0.1046  0.1940  0.0115
  173POPC   C3A 2564   8.742   4.273   6.226  0.0074 -0.0731 -0.0810
  173POPC   C4A 2565   9.040   3.929   6.362 -0.2682  0.2875 -0.0666
  173POPC   C1B 2566   8.409   4.334   5.660 -0.3200  0.1912  0.1891
  173POPC   C2B 2567   8.515   3.953   5.943 -0.0506  0.2374  0.1580
  173POPC   C3B 2568   8.443   3.573   5.758  0.1260 -0.0994 -0.4777
  173POPC   C4B 2569   8.450   3.116   5.632  0.2186  0.6199  0.3594
  174POPC   NC3 2570   4.317   7.020   4.501  0.0871  0.1261 -0.2597
  174POPC   PO4 2571   4.159   7.036   4.931  0.1751  0.0624  0.1927
  174POPC   GL1 2572   4.180   7.391   5.247 -0.0060 -0.1427 -0.2086
  174POPC   GL2 2573   3.926   7.581   5.297 -0.1269  0.0655  0.0689
  174POPC   C1A 2574   4.275   7.613   5.609  0.0129 -0.0989 -0.1639
  174POPC   D2A 2575   4.113   7.856   5.986  0.2097  0.2764  0.0223
  174POPC   C3A 2576   4.448   7.989   6.353 -0.0122 -0.2022  0.0410
  174POPC   C4A 2577   4.496   7.971   6.706 -0.0630 -0.2337  0.0132
  174POPC   C1B 2578   3.824   7.880   5.561 -0.0112 -0.1403 -0.1011
  174POPC   C2B 2579   3.619   7.983   5.891 -0.1424  0.0264 -0.2730
  174POPC   C3B 2580   3.618   8.306   6.227 -0.1602 -0.3643 -0.1526
  174POPC   C4B 2581   3.388   8.292   6.669  0.0087 -0.0915  0.1930
  175POPC   NC3 2582   2.252   5.976   4.499 -0.2031 -0.0935  0.0430
  175POPC   PO4 2583   2.568   5.505   4.407  0.1814  0.0461  0.1192
  175POPC   GL1 2584   2.716   5.584   4.815 -0.0709 -0.1161  0.0156
  175POPC   GL2 2585   2.535   5.898   4.961  0.1324  0.2639  0.0461
  175POPC   C1A 2586   2.843   5.618   5.262  0.1736  0.2454 -0.0070
  175POPC   D2A 2587   2.868   5.825   5.624  0.0279  0.1285  0.2553
  175POPC   C3A 2588   3.034   5.729   6.084  0.2649 -0.0724  0.2873
  175POPC   C4A 2589   3.141   5.739   6.483 -0.1836 -0.2912  0.0571
  175POPC   C1B 2590   2.607   6.086   5.337 -0.0037 -0.2485 -0.0394
  175POPC   C2B 2591   2.874   6.338   5.542 -0.0295 -0.0941 -0.0654
  175POPC   C3B 2592   3.204   6.193   5.795 -0.2487  0.5742 -0.0452
  175POPC   C4B 2593   3.421   6.088   6.192  0.2240 -0.1095 -0.0433
  176POPC   NC3 2594   7.069   5.033   5.268 -0.0536  0.1042  0.0811
  176POPC   PO4 2595   6.772   4.734   5.235 -0.1405 -0.4149 -0.0222
  176POPC   GL1 2596   6.676   4.527   5.604 -0.0678 -0.0256 -0.1944
  176POPC   GL2 2597   6.443   4.267   5.603  0.2841 -0.1178 -0.0650
  176POPC   C1A 2598   6.536   4.590   6.045  0.1398 -0.0093 -0.3554
  176POPC   D2A 2599   6.379   4.444   6.335  0.0883  0.0321 -0.1470
  176POPC   C3A 2600   6.011   4.670   6.524 -0.0641  0.2208  0.1926
  176POPC   C4A 2601   5.590   4.888   6.631  0.0117 -0.3721 -0.0823
  176POPC   C1B 2602   6.183   4.104   5.836  0.3320 -0.0702  0.0764
  176POPC   C2B 2603   5.952   4.135   6.292  0.2304  0.1657 -0.0525
  176POPC   C3B 2604   5.663   4.280   6.643 -0.0133  0.3490 -0.2676
  176POPC   C4B 2605   5.571   4.533   6.952  0.1349 -0.0934 -0.1525
  177POPC   NC3 2606   3.806   0.553   3.633 -0.0201 -0.1222 -0.2965
  177POPC   PO4 2607   4.045   0.219   3.714  0.0250 -0.0813  0.0278
  177POPC   GL1 2608   3.934   0.081   4.028  0.3209  0.0788  0.0773
  177POPC   GL2 2609   3.711   0.387   4.106  0.1573  0.1450 -0.3168
  177POPC   C1A 2610   3.959  -0.265   4.253  0.2792 -0.0976  0.2971
  177POPC   D2A 2611   4.195  -0.574   4.453 -0.1550 -0.2003 -0.3955
  177POPC   C3A 2612   4.611  -0.606   4.426 -0.1312  0.2981 -0.2760
  177POPC   C4A 2613   4.958  -0.871   4.317 -0.2630  0.2845  0.2531
  177POPC   C1B 2614   3.438   0.195   4.503  0.1623  0.3940  0.1082
  177POPC   C2B 2615   3.594  -0.114   4.894  0.3684  0.2015  0.0937
  177POPC   C3B 2616   3.985  -0.287   5.019 -0.1267  0.1447  0.1725
  177POPC   C4B 2617   4.373  -0.361   4.896 -0.1759  0.1847 -0.0098
  178POPC   NC3 2618   6.822   4.140   5.127 -0.0682 -0.0770  0.0339
  178POPC   PO4 2619   7.217   4.026   5.274  0.0769  0.0772  0.2793
  178POPC   GL1 2620   6.985   4.054   5.662  0.0448  0.3483  0.0728
  178POPC   GL2 2621   6.751   3.883   5.692 -0.1904  0.1520  0.0343
  178POPC   C1A 2622   6.935   4.133   6.091 -0.2176 -0.3262  0.2079
  178POPC   D2A 2623   6.683   4.051   6.463 -0.2340  0.6081 -0.0911
  178POPC   C3A 2624   6.797   3.749   6.821 -0.0081  0.3578 -0.0423
  178POPC   C4A 2625   6.961   3.861   7.182 -0.2379 -0.0124 -0.0305
  178POPC   C1B 2626   6.575   3.751   6.082 -0.1479 -0.2645 -0.0526
  178POPC   C2B 2627   6.419   3.576   6.430  0.1538  0.0712 -0.0680
  178POPC   C3B 2628   6.070   3.742   6.699  0.1627 -0.0580 -0.0354
  178POPC   C4B 2629   5.880   3.608   7.142 -0.1795  0.1401 -0.0201
  179POPC   NC3 2630   3.016   0.823   2.923 -0.0758  0.1121  0.0967
  179POPC   PO4 2631   2.981   0.852   3.384  0.2427 -0.3729 -0.1596
  179POPC   GL1 2632   2.944   0.903   3.895  0.1937 -0.1040  0.0415
  179POPC   GL2 2633   2.697   1.136   3.977 -0.0001 -0.0018  0.2571
  179POPC   C1A 2634   2.748   0.708   4.175 -0.1693  0.1102 -0.3955
  179POPC   D2A 2635   2.874   0.694   4.579 -0.0538  0.1801  0.1146
  179POPC   C3A 2636   2.602   1.054   4.785 -0.1397 -0.5360 -0.0637
  179POPC   C4A 2637   2.173   1.226   4.679  0.0923  0.1065  0.2306
  179POPC   C1B 2638   2.884   1.172   4.341 -0.0845 -0.1004  0.0728
  179POPC   C2B 2639   3.334   1.134   4.547 -0.2711  0.1262  0.1883
  179POPC   C3B 2640   3.479   1.104   4.911 -0.2637  0.2599  0.0623
  179POPC   C4B 2641   3.687   0.858   5.006 -0.2682 -0.1459  0.2650
  180POPC   NC3 2642   9.354   4.197   4.672  0.1995  0.0026  0.3852
  180POPC   PO4 2643   9.412   3.717   4.809  0.1416 -0.0854 -0.2434
  180POPC   GL1 2644   9.672   3.540   5.224 -0.0579 -0.1508  0.1111
  180POPC   GL2 2645   9.692   3.694   5.580 -0.1589 -0.4049  0.1829
  180POPC   C1A 2646   9.900   3.234   5.520 -0.2579 -0.0714 -0.1776
  180POPC   D2A 2647   9.817   3.034   5.992  0.0106 -0.0651  0.0039
  180POPC   C3A 2648   9.942   2.836   6.361  0.1643  0.2412 -0.0282
  180POPC   C4A 2649   9.934   3.003   6.705  0.0408  0.1811  0.0267
  180POPC   C1B 2650   9.432   3.409   5.672  0.0934  0.1760  0.1960
  180POPC   C2B 2651   9.333   3.414   6.066 -0.1012  0.1151 -0.0226
  180POPC   C3B 2652   9.131   3.333   6.437  0.1597 -0.0549  0.0630
  180POPC   C4B 2653   9.328   3.691   6.767  0.0797 -0.0504  0.0570
  181POPC   NC3 2654   4.496   2.609   3.955  0.3243  0.1824  0.1463
  181POPC   PO4 2655   3.996   2.697   4.064  0.0681 -0.1881 -0.2079
  181POPC   GL1 2656   3.739   2.966   4.363 -0.1700  0.1024 -0.1796
  181POPC   GL2 2657   3.981   3.181   4.546 -0.3571 -0.0088 -0.1115
  181POPC   C1A 2658   3.528   3.066   4.781  0.0918 -0.0449  0.3048
  181POPC   D2A 2659   3.887   2.887   5.067 -0.3952  0.0049 -0.3777
  181POPC   C3A 2660   4.221   2.859   4.849 -0.0525 -0.0955 -0.1066
  181POPC   C4A 2661   4.664   2.699   4.677  0.1173 -0.0849  0.0929
  181POPC   C1B 2662   3.928   3.397   4.967 -0.0933 -0.1242 -0.0844
  181POPC   C2B 2663   3.914   3.391   5.429  0.1303 -0.0021  0.1493
  181POPC   C3B 2664   3.802   3.368   5.860 -0.3700  0.0776 -0.0374
  181POPC   C4B 2665   3.437   3.393   6.122 -0.1648 -0.1099 -0.0291
  182POPC   NC3 2666   4.524   0.825   3.310 -0.0443 -0.1265 -0.1536
  182POPC   PO4 2667   4.245   0.878   3.668 -0.1766  0.2397  0.0081
  182POPC   GL1 2668   4.428   0.893   4.073 -0.1094  0.0462 -0.2042
  182POPC   GL2 2669   4.680   0.696   4.119 -0.0048 -0.2389  0.0365
  182POPC   C1A 2670   4.347   1.062   4.584  0.3936  0.1064  0.1470
  182POPC   D2A 2671   4.179   1.085   4.884 -0.1103  0.2309  0.1192
  182POPC   C3A 2672   4.032   1.472   4.742  0.0186  0.0210  0.1535
  182POPC   C4A 2673   3.950   1.900   4.885  0.2056 -0.0679  0.1108
  182POPC   C1B 2674   4.824   0.302   4.231  0.0634 -0.1893 -0.0483
  182POPC   C2B 2675   4.659   0.279   4.650 -0.2169  0.0367 -0.0982
  182POPC   C3B 2676   4.343   0.111   4.832  0.0960  0.2803  0.2202
  182POPC   C4B 2677   3.987   0.025   4.616 -0.0042  0.1306 -0.0733
  183POPC   NC3 2678   1.909   0.294   3.939 -0.1682  0.0406  0.0002
  183POPC   PO4 2679   1.576   0.649   3.959 -0.0388 -0.0464 -0.1353
  183POPC   GL1 2680   1.777   0.547   4.355  0.2103 -0.1267 -0.0664
  183POPC   GL2 2681   1.746   0.801   4.529 -0.2024 -0.1133  0.1107
  183POPC   C1A 2682   2.013   0.319   4.795 -0.0274 -0.0750 -0.0705
  183POPC   D2A 2683   2.056  -0.169   4.897 -0.2333 -0.0277  0.2598
  183POPC   C3A 2684   2.280  -0.304   5.287 -0.2079 -0.0152  0.0788
  183POPC   C4A 2685   2.729  -0.561   5.457 -0.1273  0.0479  0.1813
  183POPC   C1B 2686   1.743   0.891   5.140  0.0726 -0.0166  0.4467
  183POPC   C2B 2687   1.915   1.024   5.550  0.1727 -0.0191  0.1333
  183POPC   C3B 2688   2.157   1.239   5.902 -0.2685 -0.3554  0.0267
  183POPC   C4B 2689   2.251   1.541   6.125  0.0302  0.0924 -0.0651
  184POPC   NC3 2690   7.904   5.398   5.288  0.0219  0.2472 -0.1803
  184POPC   PO4 2691   7.588   5.002   5.256  0.1361  0.1598  0.0925
  184POPC   GL1 2692   7.693   4.983   5.730 -0.1476 -0.1033 -0.0150
  184POPC   GL2 2693   7.846   5.202   5.830  0.2542 -0.1030  0.0964
  184POPC   C1A 2694   7.694   4.642   6.078 -0.2894 -0.3251  0.0893
  184POPC   D2A 2695   7.721   4.370   6.523  0.1533  0.3117 -0.4162
  184POPC   C3A 2696   7.594   4.001   6.634  0.0008 -0.0429  0.3212
  184POPC   C4A 2697   7.344   3.726   6.825  0.1155  0.3553  0.0354
  184POPC   C1B 2698   8.029   5.349   6.233  0.1282 -0.1251  0.2526
  184POPC   C2B 2699   8.177   5.276   6.636 -0.1085 -0.2166  0.0086
  184POPC   C3B 2700   8.173   4.966   6.909 -0.0359 -0.2515 -0.3304
  184POPC   C4B 2701   8.368   4.507   6.915 -0.0269 -0.1401  0.0827
  185POPC   NC3 2702   8.865   6.074   4.875 -0.0458 -0.1904  0.2045
  185POPC   PO4 2703   8.616   5.912   5.092 -0.1596 -0.1358 -0.1512
  185POPC   GL1 2704   8.356   6.030   5.447  0.0116  0.3497  0.0643
  185POPC   GL2 2705   8.383   6.378   5.593 -0.1285  0.0550  0.1388
  185POPC   C1A 2706   8.470   5.973   5.899 -0.3520  0.0157 -0.1385
  185POPC   D2A 2707   8.367   5.765   6.352  0.2298  0.0886 -0.1320
  185POPC   C3A 2708   8.419   6.092   6.648 -0.1813 -0.2359  0.4935
  185POPC   C4A 2709   8.129   6.294   6.865 -0.1294 -0.0358 -0.0652
  185POPC   C1B 2710   8.281   6.504   5.964 -0.0764  0.2523 -0.0517
  185POPC   C2B 2711   8.428   6.539   6.361  0.1004  0.1638 -0.0293
  185POPC   C3B 2712   8.409   6.741   6.756 -0.1191 -0.1055  0.2528
  185POPC   C4B 2713   8.394   7.180   6.771  0.1551 -0.0115 -0.0496
  186POPC   NC3 2714   6.562  10.328   4.221  0.0096 -0.0565 -0.2005
  186POPC   PO4 2715   6.841  10.558   4.305  0.0150  0.1071  0.0837
  186POPC   GL1 2716   6.726  10.464   4.711  0.0727 -0.0660  0.1366
  186POPC   GL2 2717   6.363  10.426   4.701  0.0745 -0.0657 -0.1152
  186POPC   C1A 2718   6.637  10.622   5.191  0.0751  0.0793  0.3912
  186POPC   D2A 2719   6.373  10.913   5.408 -0.0778  0.2491  0.0640
  186POPC   C3A 2720   6.459  10.895   5.889  0.0809 -0.0099 -0.2368
  186POPC   C4A 2721   6.544  11.016   6.281  0.1723 -0.0054  0.1322
  186POPC   C1B 2722   6.451  10.129   5.069 -0.2357 -0.3700  0.1117
  186POPC   C2B 2723   6.306   9.845   5.440 -0.1029  0.2841  0.4869
  186POPC   C3B 2724   6.044   9.964   5.712  0.2586  0.0372 -0.0844
  186POPC   C4B 2725   5.835   9.920   6.139  0.1536  0.1586 -0.0698
  187POPC   NC3 2726   0.134   1.058   4.684 -0.1168 -0.5158 -0.0112
  187POPC   PO4 2727   0.527   0.821   4.740  0.0886  0.1619  0.0755
  187POPC   GL1 2728   0.220   0.739   5.088 -0.0645 -0.1436  0.2731
  187POPC   GL2 2729  -0.066   0.897   5.177  0.2353 -0.1522  0.0679
  187POPC   C1A 2730   0.186   0.622   5.456  0.3558 -0.2674 -0.0030
  187POPC   D2A 2731   0.326   0.425   5.807 -0.1052  0.0756  0.0551
  187POPC   C3A 2732   0.783   0.282   5.750  0.1971  0.0198  0.0049
  187POPC   C4A 2733   1.178   0.378   6.040 -0.0089 -0.3109  0.1752
  187POPC   C1B 2734   0.009   1.144   5.440 -0.0205  0.2129 -0.0035
  187POPC   C2B 2735   0.064   1.512   5.652 -0.2271  0.1253 -0.1549
  187POPC   C3B 2736   0.008   1.603   6.007  0.1203  0.1133  0.0518
  187POPC   C4B 2737   0.243   1.536   6.417  0.1518  0.0811 -0.1524
  188POPC   NC3 2738   8.294   0.963   4.194 -0.1786  0.0537  0.2324
  188POPC   PO4 2739   8.382   1.228   4.492  0.1672 -0.0833 -0.3393
  188POPC   GL1 2740   8.288   1.119   4.836 -0.0377  0.3331 -0.1447
  188POPC   GL2 2741   7.959   1.151   4.978 -0.3202  0.1245 -0.0569
  188POPC   C1A 2742   8.362   0.733   5.256  0.1198 -0.1774 -0.1938
  188POPC   D2A 2743   8.323   0.844   5.700  0.2491 -0.1663  0.0843
  188POPC   C3A 2744   8.218   0.676   6.073  0.2564 -0.1242  0.1608
  188POPC   C4A 2745   7.893   0.714   6.379  0.1738  0.2329  0.1908
  188POPC   C1B 2746   7.833   0.915   5.398  0.0248  0.2330 -0.0819
  188POPC   C2B 2747   7.785   0.756   5.838  0.1819 -0.0949  0.1373
  188POPC   C3B 2748   7.525   0.936   6.160  0.0156  0.0051 -0.0442
  188POPC   C4B 2749   7.114   1.263   6.349  0.0776  0.1198  0.4036
  189POPC   NC3 2750   1.672   6.324   4.932 -0.0749 -0.0213 -0.3352
  189POPC   PO4 2751   1.884   5.885   4.801 -0.4837 -0.0831 -0.0033
  189POPC   GL1 2752   1.787   5.670   5.175  0.2880  0.2950  0.2118
  189POPC   GL2 2753   2.081   5.786   5.293 -0.0736  0.0584 -0.0290
  189POPC   C1A 2754   1.692   5.720   5.575 -0.1714  0.1342 -0.0426
  189POPC   D2A 2755   1.824   5.859   5.969  0.1220 -0.1620 -0.1955
  189POPC   C3A 2756   2.155   5.725   6.242  0.0382  0.0319  0.0266
  189POPC   C4A 2757   2.618   5.605   6.324 -0.3668  0.0574 -0.3728
  189POPC   C1B 2758   2.259   5.888   5.706  0.3386  0.0925  0.0847
  189POPC   C2B 2759   2.546   5.999   6.013 -0.3934 -0.1394  0.1473
  189POPC   C3B 2760   2.891   6.293   6.328 -0.0054 -0.1332  0.0600
  189POPC   C4B 2761   3.246   6.447   6.760  0.0374 -0.1245 -0.0848
  190POPC   NC3 2762   6.932   2.549   4.553  0.3133 -0.0331 -0.0947
  190POPC   PO4 2763   7.273   2.269   4.675  0.0974  0.0733  0.0671
  190POPC   GL1 2764   7.048   2.369   5.006 -0.1708  0.1253 -0.0858
  190POPC   GL2 2765   6.779   2.362   5.083  0.0462  0.0268  0.3202
  190POPC   C1A 2766   7.078   2.318   5.472  0.0528 -0.0761 -0.0774
  190POPC   D2A 2767   7.078   2.375   5.969  0.0961 -0.1752 -0.0105
  190POPC   C3A 2768   6.739   2.232   6.275  0.1093  0.1634  0.0109
  190POPC   C4A 2769   6.392   2.451   6.500 -0.2280 -0.1647 -0.1863
  190POPC   C1B 2770   6.660   2.004   5.133  0.0514 -0.0332 -0.0952
  190POPC   C2B 2771   6.584   1.605   5.027 -0.2047  0.1253  0.0351
  190POPC   C3B 2772   6.815   1.198   5.087  0.0823 -0.1415 -0.2474
  190POPC   C4B 2773   7.000   0.839   4.855  0.1025  0.0408  0.1086
  191POPC   NC3 2774   3.016   4.716   4.340  0.0725  0.0629 -0.1033
  191POPC   PO4 2775   2.647   4.446   4.363  0.3025 -0.0043  0.2618
  191POPC   GL1 2776   2.610   4.119   4.785  0.0129 -0.0152 -0.1198
  191POPC   GL2 2777   2.334   4.062   4.929 -0.1782 -0.0138  0.0873
  191POPC   C1A 2778   2.787   4.289   5.161 -0.0715 -0.1766 -0.0612
  191POPC   D2A 2779   2.880   4.201   5.593 -0.3730  0.0668 -0.1892
  191POPC   C3A 2780   3.144   4.291   6.001 -0.0304  0.2693  0.0832
  191POPC   C4A 2781   3.295   4.109   6.429  0.2346  0.1033 -0.0314
  191POPC   C1B 2782   2.595   3.841   5.239 -0.0552 -0.3670 -0.2453
  191POPC   C2B 2783   2.677   3.632   5.448 -0.0879 -0.6115 -0.2076
  191POPC   C3B 2784   2.979   3.334   5.670  0.3139 -0.5344  0.0311
  191POPC   C4B 2785   3.290   3.111   5.774  0.1902 -0.0704 -0.3863
  192POPC   NC3 2786   9.214   9.086   4.483  0.0320 -0.0412  0.0799
  192POPC   PO4 2787   9.564   9.314   4.716  0.0500  0.2020 -0.2864
  192POPC   GL1 2788   9.569   9.208   5.088  0.1889  0.1939  0.1568
  192POPC   GL2 2789   9.309   9.343   5.338  0.0400  0.4308 -0.0469
  192POPC   C1A 2790   9.718   9.258   5.590  0.0663  0.2823  0.1428
  192POPC   D2A 2791   9.812   9.283   6.047  0.0484 -0.0199 -0.3583
  192POPC   C3A 2792  10.205   9.490   6.126 -0.0874 -0.1215  0.0336
  192POPC   C4A 2793  10.609   9.431   6.002  0.0178 -0.3476 -0.1802
  192POPC   C1B 2794   9.247   9.169   5.794  0.4180 -0.4189 -0.0791
  192POPC   C2B 2795   9.029   9.174   6.232  0.0282 -0.0717  0.0336
  192POPC   C3B 2796   8.871   9.465   6.608 -0.0162  0.1558  0.1859
  192POPC   C4B 2797   8.563   9.776   6.632 -0.1365  0.0400 -0.2598
  193POPC   NC3 2798   1.304   5.854   4.533  0.2758  0.2468  0.4166
  193POPC   PO4 2799   1.172   6.099   4.901  0.1158 -0.0068  0.2508
  193POPC   GL1 2800   1.223   6.267   5.295  0.0486 -0.3196 -0.2906
  193POPC   GL2 2801   1.515   6.121   5.394  0.0509 -0.0228 -0.1969
  193POPC   C1A 2802   1.508   6.629   5.485 -0.0843  0.2585 -0.0377
  193POPC   D2A 2803   1.690   6.894   5.763 -0.2236  0.2098  0.0708
  193POPC   C3A 2804   1.946   7.087   5.576  0.0074 -0.2797 -0.2950
  193POPC   C4A 2805   2.187   6.986   5.318  0.1492 -0.0417  0.2324
  193POPC   C1B 2806   1.374   6.124   5.791  0.1016 -0.5398 -0.2386
  193POPC   C2B 2807   1.193   5.867   6.134  0.4567  0.2904 -0.0166
  193POPC   C3B 2808   1.196   5.603   6.447 -0.0172 -0.1710 -0.4132
  193POPC   C4B 2809   1.481   5.371   6.771 -0.0940  0.1015 -0.2027
  194POPC   NC3 2810   2.166   8.416   4.470 -0.2438  0.0801  0.3220
  194POPC   PO4 2811   1.806   8.538   4.610 -0.1526 -0.0965 -0.0314
  194POPC   GL1 2812   1.749   8.680   4.933  0.0511  0.2290  0.2367
  194POPC   GL2 2813   1.444   8.788   4.995  0.1121 -0.2430  0.0928
  194POPC   C1A 2814   1.687   8.469   5.288  0.0592  0.0545  0.1320
  194POPC   D2A 2815   1.352   8.384   5.539  0.0673 -0.0818  0.0456
  194POPC   C3A 2816   1.066   8.542   5.831 -0.0041 -0.2111 -0.2551
  194POPC   C4A 2817   0.844   8.656   6.202 -0.1481  0.2717  0.1448
  194POPC   C1B 2818   1.457   8.886   5.301  0.0713  0.0060  0.2034
  194POPC   C2B 2819   1.429   8.984   5.690 -0.1748  0.0743  0.1899
  194POPC   C3B 2820   1.355   9.297   6.044  0.2305  0.0950  0.2017
  194POPC   C4B 2821   1.436   9.620   6.450  0.2487  0.0093  0.2948
  195POPC   NC3 2822   5.867   0.607   3.649  0.0935 -0.2022 -0.0855
  195POPC   PO4 2823   5.641   1.080   3.715 -0.1784 -0.0136 -0.1430
  195POPC   GL1 2824   5.345   1.137   4.111  0.0574  0.0555 -0.1092
  195POPC   GL2 2825   4.977   1.057   4.115 -0.1670 -0.0806 -0.0938
  195POPC   C1A 2826   5.245   1.322   4.484 -0.2779  0.3169  0.2479
  195POPC   D2A 2827   5.450   1.378   4.817  0.1589  0.2627  0.2995
  195POPC   C3A 2828   5.737   1.103   5.117  0.0137 -0.3699  0.2372
  195POPC   C4A 2829   5.670   0.689   5.099  0.3615  0.3757  0.1577
  195POPC   C1B 2830   4.794   0.806   4.564  0.0474  0.1535 -0.3655
  195POPC   C2B 2831   5.061   0.433   4.843 -0.0180 -0.0193  0.3709
  195POPC   C3B 2832   4.833   0.177   5.066  0.0597  0.4384 -0.0640
  195POPC   C4B 2833   4.948   0.005   5.537  0.2726 -0.1508  0.0817
  196POPC   NC3 2834   8.638   6.465   5.159 -0.0685 -0.0970 -0.0099
  196POPC   PO4 2835   8.274   6.678   5.214  0.0513  0.0352 -0.1918
  196POPC   GL1 2836   8.001   6.660   5.583  0.2500  0.1677 -0.3561
  196POPC   GL2 2837   7.762   6.789   5.665  0.0261  0.3097  0.1485
  196POPC   C1A 2838   7.775   6.523   6.031  0.0660  0.0054 -0.1450
  196POPC   D2A 2839   7.873   6.549   6.489 -0.5804  0.0416 -0.2317
  196POPC   C3A 2840   7.479   6.751   6.625 -0.2624  0.1821  0.1835
  196POPC   C4A 2841   7.377   7.215   6.737 -0.2066  0.4582 -0.2161
  196POPC   C1B 2842   7.742   7.217   5.790  0.0683 -0.2898  0.0363
  196POPC   C2B 2843   7.712   7.551   6.152 -0.1095  0.1877  0.0682
  196POPC   C3B 2844   7.721   7.520   6.625  0.1280 -0.1615  0.1472
  196POPC   C4B 2845   7.997   7.546   6.912 -0.2170 -0.0632  0.3936
  197POPC   NC3 2846   8.498  10.478   4.646  0.3771  0.6697 -0.5554
  197POPC   PO4 2847   8.795  10.282   4.694 -0.2157  0.0505  0.3110
  197POPC   GL1 2848   8.566  10.136   5.055 -0.0792  0.0345  0.0495
  197POPC   GL2 2849   8.245  10.226   5.187 -0.0020  0.1177 -0.2437
  197POPC   C1A 2850   8.626  10.036   5.521 -0.3539 -0.2513  0.1373
  197POPC   D2A 2851   8.678   9.988   5.885 -0.1430  0.0104  0.0315
  197POPC   C3A 2852   8.706   9.573   6.056 -0.1405 -0.4375 -0.3575
  197POPC   C4A 2853   8.753   9.231   5.745 -0.0762  0.4352 -0.1644
  197POPC   C1B 2854   8.115  10.267   5.686  0.2768  0.1623  0.2282
  197POPC   C2B 2855   8.003  10.197   6.036  0.3682  0.0581 -0.0111
  197POPC   C3B 2856   7.657  10.235   6.336 -0.0810  0.0720  0.0565
  197POPC   C4B 2857   7.538  10.581   6.521  0.0508 -0.1370  0.0937
  198POPC   NC3 2858   2.554  10.424   3.313 -0.2627 -0.0039  0.0513
  198POPC   PO4 2859   2.562  10.362   3.765 -0.0113 -0.1458 -0.0242
  198POPC   GL1 2860   2.871  10.564   3.950  0.1413  0.0018 -0.0188
  198POPC   GL2 2861   2.952  10.817   3.883 -0.0895  0.2167 -0.2563
  198POPC   C1A 2862   2.954  10.670   4.402 -0.2291 -0.0301  0.0192
  198POPC   D2A 2863   2.991  10.818   4.861  0.1511 -0.0767  0.0880
  198POPC   C3A 2864   2.951  10.635   5.192  0.1389  0.0846 -0.3573
  198POPC   C4A 2865   2.724  10.433   5.504  0.1107 -0.1327 -0.3047
  198POPC   C1B 2866   3.193  11.053   4.182 -0.3916  0.2658 -0.0373
  198POPC   C2B 2867   3.377  11.125   4.662  0.0266 -0.1944  0.2082
  198POPC   C3B 2868   3.143  11.303   5.039  0.1423 -0.1400 -0.0078
  198POPC   C4B 2869   2.767  11.271   5.123  0.1535 -0.1621 -0.1967
  199POPC   NC3 2870   5.422   3.014   4.471  0.0702 -0.4796 -0.3873
  199POPC   PO4 2871   5.469   2.675   4.219 -0.1383 -0.3054  0.1651
  199POPC   GL1 2872   5.345   2.350   4.559  0.3369  0.2304  0.2771
  199POPC   GL2 2873   5.478   2.021   4.777  0.0542 -0.0446 -0.0135
  199POPC   C1A 2874   5.163   2.350   4.975  0.2139  0.0347 -0.1001
  199POPC   D2A 2875   4.859   2.592   5.238 -0.1536  0.2532  0.0363
  199POPC   C3A 2876   4.509   2.671   5.462 -0.0570 -0.0487  0.0636
  199POPC   C4A 2877   4.170   2.951   5.485  0.1066  0.2132  0.3845
  199POPC   C1B 2878   5.783   2.209   5.066  0.0390 -0.1808  0.3353
  199POPC   C2B 2879   6.100   2.295   5.346  0.1354 -0.1082  0.1804
  199POPC   C3B 2880   6.151   2.072   5.717  0.2927  0.2437  0.2704
  199POPC   C4B 2881   5.951   1.965   6.038 -0.0139 -0.0500 -0.3960
  200POPC   NC3 2882   3.034   5.805   4.282  0.0576  0.0063  0.1137
  200POPC   PO4 2883   2.743   6.011   4.535 -0.1594 -0.0686  0.1658
  200POPC   GL1 2884   2.898   6.332   4.933 -0.0845 -0.2770  0.0031
  200POPC   GL2 2885   3.184   6.201   5.182  0.2689  0.0981  0.3462
  200POPC   C1A 2886   2.804   6.737   5.174  0.0418  0.5601  0.1201
  200POPC   D2A 2887   2.646   7.172   5.377  0.1007 -0.1298 -0.1673
  200POPC   C3A 2888   2.634   7.186   5.848 -0.1131 -0.2126  0.0978
  200POPC   C4A 2889   2.733   6.970   6.160  0.3641  0.0703 -0.0370
  200POPC   C1B 2890   3.541   6.100   5.373 -0.0666  0.4622  0.0033
  200POPC   C2B 2891   3.748   6.205   5.743  0.2521  0.0313  0.0793
  200POPC   C3B 2892   3.845   6.445   6.172  0.0870 -0.0474 -0.2314
  200POPC   C4B 2893   3.729   6.384   6.584 -0.1889  0.1165 -0.0015
  201POPC   NC3 2894   8.088   4.482   5.064 -0.2553 -0.3077  0.3261
  201POPC   PO4 2895   8.094   4.110   5.031  0.0690  0.0825 -0.2283
  201POPC   GL1 2896   8.329   3.995   5.300  0.2205 -0.0311 -0.1627
  201POPC   GL2 2897   8.086   3.812   5.495 -0.0606  0.2487  0.1804
  201POPC   C1A 2898   8.699   3.819   5.427 -0.0429  0.2517 -0.2232
  201POPC   D2A 2899   8.937   3.683   5.878  0.2060  0.0682 -0.3475
  201POPC   C3A 2900   9.300   3.890   5.945 -0.1179 -0.0552 -0.1140
  201POPC   C4A 2901   9.595   3.852   6.111  0.1382 -0.1921 -0.0113
  201POPC   C1B 2902   7.729   3.715   5.782  0.1711 -0.1190 -0.0860
  201POPC   C2B 2903   7.410   4.047   5.995  0.2065  0.2865 -0.2273
  201POPC   C3B 2904   7.273   4.305   6.341 -0.0134 -0.0033 -0.0927
  201POPC   C4B 2905   7.220   4.272   6.783 -0.1352 -0.2441  0.0476
  202POPC   NC3 2906   9.486  10.225   4.316  0.0248  0.1497  0.2943
  202POPC   PO4 2907   9.763  10.200   4.721  0.0863  0.0713 -0.2269
  202POPC   GL1 2908   9.670  10.263   5.108  0.0376  0.0871  0.0617
  202POPC   GL2 2909   9.977  10.413   5.262  0.0279  0.2397 -0.0260
  202POPC   C1A 2910   9.491  10.440   5.516  0.0203 -0.0907 -0.2949
  202POPC   D2A 2911   9.556  10.396   5.959 -0.0212  0.0762  0.6229
  202POPC   C3A 2912   9.659  10.751   6.283 -0.1338  0.0440 -0.0754
  202POPC   C4A 2913   9.401  10.902   6.621 -0.0177 -0.2698 -0.2697
  202POPC   C1B 2914  10.060  10.214   5.652 -0.1025  0.3122  0.3126
  202POPC   C2B 2915  10.082   9.939   5.889  0.1089 -0.1587  0.0283
  202POPC   C3B 2916  10.212   9.945   6.344 -0.1899 -0.3652  0.1478
  202POPC   C4B 2917  10.361   9.857   6.780 -0.0678  0.2550 -0.1278
  203POPC   NC3 2918   5.175   7.872   4.490 -0.2069 -0.2662 -0.1221
  203POPC   PO4 2919   5.509   7.756   4.888 -0.0602 -0.1984 -0.0517
  203POPC   GL1 2920   5.528   7.637   5.270 -0.0758  0.1941  0.2734
  203POPC   GL2 2921   5.711   7.333   5.350  0.0458  0.1164 -0.1909
  203POPC   C1A 2922   5.153   7.520   5.546 -0.3251  0.0955  0.0914
  203POPC   D2A 2923   5.084   7.434   5.972 -0.2528  0.1310 -0.0612
  203POPC   C3A 2924   5.077   7.678   6.258 -0.0229  0.1495  0.0113
  203POPC   C4A 2925   4.931   7.644   6.686 -0.1382  0.0118  0.1085
  203POPC   C1B 2926   5.588   7.339   5.849 -0.1598 -0.2793  0.0507
  203POPC   C2B 2927   5.600   7.475   6.247  0.0990 -0.1214 -0.2063
  203POPC   C3B 2928   5.466   7.693   6.579  0.0198  0.3304 -0.0389
  203POPC   C4B 2929   5.299   8.089   6.698  0.0089  0.2476 -0.0435
  204POPC   NC3 2930   0.346   6.293   4.140  0.0211 -0.1480 -0.1105
  204POPC   PO4 2931   0.588   6.200   4.444 -0.1456  0.2081 -0.1096
  204POPC   GL1 2932   0.676   5.952   4.793  0.0747  0.0176  0.1880
  204POPC   GL2 2933   0.704   6.083   5.046  0.1181  0.1503 -0.3198
  204POPC   C1A 2934   0.674   5.604   4.988  0.0987  0.0946  0.0332
  204POPC   D2A 2935   0.567   5.079   5.084 -0.2603  0.0170 -0.1372
  204POPC   C3A 2936   0.983   4.840   5.332 -0.0996  0.2258  0.1069
  204POPC   C4A 2937   1.399   4.763   5.329 -0.2003 -0.3325 -0.2298
  204POPC   C1B 2938   0.803   5.850   5.392 -0.2311 -0.1430 -0.1280
  204POPC   C2B 2939   0.781   5.587   5.839 -0.0543  0.0393 -0.2726
  204POPC   C3B 2940   0.707   5.742   6.186 -0.1579 -0.2888 -0.0450
  204POPC   C4B 2941   0.914   6.013   6.482 -0.1954  0.0263  0.2202
  205POPC   NC3 2942   6.691   0.433   3.357 -0.0424  0.1053 -0.0264
  205POPC   PO4 2943   6.335   0.487   3.552 -0.3249 -0.1581  0.0274
  205POPC   GL1 2944   6.136   0.452   4.036 -0.2953  0.0105 -0.1144
  205POPC   GL2 2945   6.292   0.256   4.066  0.0585  0.2724 -0.0038
  205POPC   C1A 2946   6.042   0.647   4.531 -0.0812  0.0447  0.3122
  205POPC   D2A 2947   6.036   0.359   4.916 -0.1037  0.0417  0.0397
  205POPC   C3A 2948   5.913   0.320   5.295 -0.1615 -0.0292 -0.2897
  205POPC   C4A 2949   5.957   0.399   5.754 -0.2162 -0.0360 -0.2090
  205POPC   C1B 2950   6.000   0.135   4.419  0.0786 -0.3911 -0.1823
  205POPC   C2B 2951   5.684  -0.179   4.575  0.0856 -0.0554  0.0408
  205POPC   C3B 2952   5.471  -0.370   4.920 -0.0248 -0.1869  0.2317
  205POPC   C4B 2953   5.661  -0.371   5.355  0.1292 -0.3510 -0.0582
  206POPC   NC3 2954   8.041   9.310   4.766 -0.4471 -0.0697 -0.0863
  206POPC   PO4 2955   7.977   9.611   4.448 -0.2026 -0.2366 -0.1506
  206POPC   GL1 2956   7.754   9.734   4.875  0.1413 -0.0150  0.0781
  206POPC   GL2 2957   7.847  10.039   4.854  0.0865 -0.1598  0.0913
  206POPC   C1A 2958   7.464   9.791   5.119  0.0293 -0.2218 -0.0837
  206POPC   D2A 2959   7.188   9.733   5.552 -0.1848  0.1317  0.1192
  206POPC   C3A 2960   7.356   9.530   5.942  0.1688 -0.0688  0.0368
  206POPC   C4A 2961   7.291   9.313   6.353  0.1920 -0.0438 -0.0006
  206POPC   C1B 2962   7.695  10.260   5.172 -0.3137 -0.0039 -0.1785
  206POPC   C2B 2963   7.654  10.471   5.626  0.0887  0.1774 -0.0523
  206POPC   C3B 2964   7.420  10.588   5.945  0.0075  0.1363 -0.3980
  206POPC   C4B 2965   7.565  10.930   6.178  0.0003 -0.1430  0.1582
  207POPC   NC3 2966   8.119   3.538   5.008 -0.0086  0.1207  0.5580
  207POPC   PO4 2967   7.704   3.346   4.892 -0.0604 -0.1674  0.3193
  207POPC   GL1 2968   7.728   3.218   5.294 -0.1666 -0.0574  0.5399
  207POPC   GL2 2969   7.970   3.306   5.422 -0.2798 -0.0723  0.0353
  207POPC   C1A 2970   7.521   3.225   5.655 -0.0336  0.0855  0.2253
  207POPC   D2A 2971   7.345   3.115   6.099  0.2917  0.1913 -0.1721
  207POPC   C3A 2972   7.334   2.713   6.379 -0.1646 -0.2186  0.2525
  207POPC   C4A 2973   7.275   2.608   6.765 -0.1081 -0.1701 -0.1710
  207POPC   C1B 2974   7.979   3.295   5.896 -0.0049 -0.1338 -0.0900
  207POPC   C2B 2975   8.190   3.574   6.203  0.2506  0.0089 -0.1130
  207POPC   C3B 2976   8.578   3.691   6.374 -0.1647  0.0174  0.0781
  207POPC   C4B 2977   8.745   3.701   6.784 -0.3716 -0.0242  0.2854
  208POPC   NC3 2978   4.511   8.920   4.030  0.0379  0.1102 -0.0912
  208POPC   PO4 2979   4.517   8.527   3.952 -0.1172  0.2143 -0.1845
  208POPC   GL1 2980   4.683   8.533   4.362 -0.1766 -0.1165 -0.2320
  208POPC   GL2 2981   4.790   8.245   4.573  0.0107  0.1605 -0.2915
  208POPC   C1A 2982   4.595   8.738   4.789  0.1796  0.0240 -0.0816
  208POPC   D2A 2983   4.326   8.733   5.195 -0.3464 -0.0603  0.1197
  208POPC   C3A 2984   4.440   8.667   5.570  0.0180  0.2123 -0.0068
  208POPC   C4A 2985   4.281   8.779   5.937 -0.1910 -0.3810  0.0791
  208POPC   C1B 2986   4.687   8.348   5.066  0.1734 -0.0981  0.1517
  208POPC   C2B 2987   4.913   8.562   5.399 -0.0625 -0.2191  0.1797
  208POPC   C3B 2988   4.946   8.704   5.763  0.1298  0.0538  0.0585
  208POPC   C4B 2989   4.774   8.641   6.210 -0.0557 -0.0360 -0.3551
  209POPC   NC3 2990   0.743   4.776   4.386  0.0195  0.0288 -0.0664
  209POPC   PO4 2991   0.649   4.592   4.801 -0.0333  0.0905 -0.2656
  209POPC   GL1 2992   0.729   4.423   5.190  0.2812 -0.1893 -0.1839
  209POPC   GL2 2993   1.042   4.381   5.131  0.1597 -0.3312  0.0939
  209POPC   C1A 2994   0.739   4.138   5.450  0.0122 -0.0966 -0.1541
  209POPC   D2A 2995   0.880   3.760   5.543 -0.1605  0.0208 -0.0817
  209POPC   C3A 2996   0.946   3.722   5.968  0.1285  0.2593  0.1341
  209POPC   C4A 2997   0.946   3.862   6.324 -0.2154  0.1153  0.1915
  209POPC   C1B 2998   1.085   4.423   5.551 -0.3624 -0.2346  0.2405
  209POPC   C2B 2999   0.966   4.197   5.917  0.2853 -0.1468  0.0642
  209POPC   C3B 3000   0.494   4.014   5.863 -0.0293  0.2338 -0.0478
  209POPC   C4B 3001   0.046   3.850   6.116  0.0886 -0.0093  0.1677
  210POPC   NC3 3002  10.159   5.431   4.865  0.2411 -0.1649 -0.0482
  210POPC   PO4 3003   9.736   5.333   4.673  0.0344 -0.0866  0.0440
  210POPC   GL1 3004   9.697   5.561   5.111  0.0138  0.0808 -0.2046
  210POPC   GL2 3005   9.379   5.508   5.287 -0.0769  0.1004 -0.1289
  210POPC   C1A 3006   9.982   5.560   5.441  0.1712  0.1421  0.0102
  210POPC   D2A 3007  10.349   5.661   5.702 -0.0867 -0.2020  0.1296
  210POPC   C3A 3008  10.561   5.436   5.976  0.3647  0.1523  0.4262
  210POPC   C4A 3009  10.493   5.141   6.227  0.2148  0.0644 -0.4021
  210POPC   C1B 3010   9.556   5.735   5.653  0.3280 -0.1657 -0.0383
  210POPC   C2B 3011   9.491   5.564   6.171  0.3278 -0.0651 -0.2219
  210POPC   C3B 3012   9.655   5.205   6.422 -0.2628 -0.4538  0.1897
  210POPC   C4B 3013  10.079   5.051   6.540  0.1844 -0.2719  0.1851
  211POPC   NC3 3014   9.332   1.722   4.380  0.2473  0.0794  0.1379
  211POPC   PO4 3015   9.410   1.517   4.764 -0.0645 -0.1482  0.0539
  211POPC   GL1 3016   9.267   1.525   5.178 -0.0090 -0.1701 -0.1536
  211POPC   GL2 3017   9.324   1.274   5.360 -0.3400  0.1985  0.1733
  211POPC   C1A 3018   9.201   1.799   5.461  0.1514  0.1797 -0.1175
  211POPC   D2A 3019   9.514   1.808   5.827  0.1756  0.3519  0.6264
  211POPC   C3A 3020   9.665   1.468   5.836 -0.1264  0.2328  0.0327
  211POPC   C4A 3021   9.697   1.106   5.743  0.2110  0.1726 -0.0076
  211POPC   C1B 3022   9.073   1.352   5.698 -0.2063 -0.0083 -0.4307
  211POPC   C2B 3023   9.149   1.515   6.011 -0.4355  0.1685 -0.0947
  211POPC   C3B 3024   8.906   1.798   6.035 -0.1224 -0.4460  0.0104
  211POPC   C4B 3025   8.597   2.106   6.180  0.1160 -0.2289 -0.0345
  212POPC   NC3 3026   5.296   9.019   3.544 -0.0980  0.1432 -0.0646
  212POPC   PO4 3027   4.836   9.090   3.679 -0.3116 -0.1717 -0.0823
  212POPC   GL1 3028   5.073   9.166   4.117  0.3166  0.0840  0.1005
  212POPC   GL2 3029   5.041   9.035   4.507 -0.2731  0.0765 -0.0990
  212POPC   C1A 3030   5.407   9.376   4.437  0.3517 -0.2815  0.0301
  212POPC   D2A 3031   5.523   9.710   4.690 -0.0007 -0.0122  0.2340
  212POPC   C3A 3032   5.447   9.623   5.122 -0.2899 -0.0601  0.1482
  212POPC   C4A 3033   5.260   9.496   5.497 -0.1864 -0.1369 -0.2108
  212POPC   C1B 3034   4.867   9.281   4.825 -0.0276 -0.0842  0.3559
  212POPC   C2B 3035   4.902   9.571   5.197 -0.0190  0.0368  0.0156
  212POPC   C3B 3036   4.565   9.509   5.520 -0.2742  0.2158  0.0884
  212POPC   C4B 3037   4.391   9.209   5.751 -0.0626  0.3085  0.1084
  213POPC   NC3 3038   9.892   9.682   4.778  0.0302 -0.0027 -0.1393
  213POPC   PO4 3039  10.337   9.591   4.766  0.0772  0.0042  0.2887
  213POPC   GL1 3040  10.283   9.411   5.097 -0.0050  0.1574 -0.0572
  213POPC   GL2 3041   9.976   9.442   5.187 -0.2793 -0.1918 -0.1163
  213POPC   C1A 3042  10.542   9.156   5.386  0.3123 -0.0454  0.1552
  213POPC   D2A 3043  10.674   9.006   5.797 -0.0390 -0.1382  0.3067
  213POPC   C3A 3044  10.413   8.910   6.229  0.0370 -0.3359  0.0471
  213POPC   C4A 3045  10.028   9.031   6.465 -0.0833  0.3643 -0.0642
  213POPC   C1B 3046  10.036   8.965   5.237 -0.1790  0.0824 -0.0582
  213POPC   C2B 3047  10.375   8.645   5.435  0.0739  0.0214  0.0921
  213POPC   C3B 3048  10.369   8.527   5.879  0.1059  0.2398  0.0534
  213POPC   C4B 3049  10.279   8.053   5.988 -0.0459 -0.0336 -0.1412
  214POPC   NC3 3050   0.641   3.196   4.847 -0.2158 -0.0266  0.4589
  214POPC   PO4 3051   0.450   2.887   5.015 -0.2717 -0.0101  0.1434
  214POPC   GL1 3052   0.576   2.678   5.358 -0.0947 -0.0394  0.0928
  214POPC   GL2 3053   0.724   2.333   5.352  0.1285 -0.4492 -0.1652
  214POPC   C1A 3054   0.584   2.611   5.852  0.0794  0.1301  0.0505
  214POPC   D2A 3055   0.350   2.431   6.165 -0.1696 -0.2466  0.0172
  214POPC   C3A 3056   0.058   2.718   6.525 -0.1693 -0.2215 -0.1882
  214POPC   C4A 3057  -0.043   2.995   6.740  0.0834 -0.0040 -0.2221
  214POPC   C1B 3058   0.965   2.345   5.748 -0.0705  0.0543  0.1858
  214POPC   C2B 3059   0.821   2.304   6.163 -0.0500 -0.1892 -0.3081
  214POPC   C3B 3060   0.670   2.169   6.548  0.0710  0.0618  0.2035
  214POPC   C4B 3061   0.830   2.003   6.933  0.2293  0.2617  0.2848
  215POPC   NC3 3062   3.755   5.979   4.429  0.0040 -0.0365  0.1811
  215POPC   PO4 3063   3.538   5.604   4.477  0.1123 -0.1017  0.1113
  215POPC   GL1 3064   3.503   5.282   4.852 -0.4559 -0.2459  0.0635
  215POPC   GL2 3065   3.211   5.408   5.032  0.1962  0.1347  0.1037
  215POPC   C1A 3066   3.579   5.212   5.309  0.0657 -0.2697  0.2908
  215POPC   D2A 3067   3.369   5.258   5.697  0.3035  0.3324  0.1028
  215POPC   C3A 3068   3.543   5.165   6.063  0.1010 -0.1397 -0.1837
  215POPC   C4A 3069   3.409   5.269   6.488  0.1019 -0.1944  0.1335
  215POPC   C1B 3070   3.350   5.646   5.260  0.0058  0.0268  0.0257
  215POPC   C2B 3071   3.381   5.747   5.749 -0.3379  0.0110  0.3747
  215POPC   C3B 3072   3.605   5.649   6.067 -0.0938  0.0745 -0.4517
  215POPC   C4B 3073   3.810   5.501   6.330 -0.2708 -0.1569 -0.0562
  216POPC   NC3 3074   2.624   6.481   4.544 -0.4053  0.0876 -0.0209
  216POPC   PO4 3075   2.185   6.374   4.741  0.0700  0.0359  0.2320
  216POPC   GL1 3076   2.250   6.606   5.048  0.1317 -0.3424 -0.0736
  216POPC   GL2 3077   2.037   6.435   5.232  0.2807 -0.1129  0.3633
  216POPC   C1A 3078   2.432   6.588   5.468 -0.0969 -0.0489  0.4030
  216POPC   D2A 3079   2.436   6.496   5.861 -0.1328  0.2543  0.0232
  216POPC   C3A 3080   2.430   6.550   6.330  0.0071 -0.1626 -0.2475
  216POPC   C4A 3081   2.502   6.561   6.789  0.2752 -0.0016  0.0703
  216POPC   C1B 3082   1.913   6.334   5.698  0.6011 -0.1088  0.0595
  216POPC   C2B 3083   1.982   6.351   6.161  0.1141 -0.1190  0.0032
  216POPC   C3B 3084   2.097   6.157   6.533 -0.0317  0.2766  0.1764
  216POPC   C4B 3085   2.540   5.989   6.612  0.0990 -0.1901 -0.0969
  217POPC   NC3 3086   4.973   5.513   4.513 -0.0054 -0.3686 -0.0437
  217POPC   PO4 3087   5.268   5.258   4.843 -0.0554  0.1481  0.3160
  217POPC   GL1 3088   5.335   5.117   5.266 -0.0745  0.0785  0.0629
  217POPC   GL2 3089   5.083   4.922   5.448  0.3622 -0.3985 -0.0947
  217POPC   C1A 3090   5.199   5.301   5.672 -0.0495 -0.0757  0.0177
  217POPC   D2A 3091   4.959   5.300   6.052 -0.1344  0.1156 -0.0234
  217POPC   C3A 3092   4.500   5.420   6.062  0.4154  0.1448  0.2108
  217POPC   C4A 3093   4.339   5.682   6.262 -0.1234  0.1321  0.2919
  217POPC   C1B 3094   4.938   4.889   5.751 -0.1791  0.1364  0.3053
  217POPC   C2B 3095   4.984   4.817   6.096  0.2234 -0.0145 -0.1175
  217POPC   C3B 3096   4.860   5.102   6.477  0.0830  0.0568 -0.2574
  217POPC   C4B 3097   4.757   5.537   6.487 -0.2763 -0.0236  0.2307
  218POPC   NC3 3098   7.996   1.514   4.673  0.1639 -0.2013 -0.0022
  218POPC   PO4 3099   7.548   1.389   4.594 -0.4961 -0.1885  0.0589
  218POPC   GL1 3100   7.595   1.518   5.004 -0.2360  0.0839 -0.1164
  218POPC   GL2 3101   7.340   1.267   5.224 -0.1270 -0.0464  0.1971
  218POPC   C1A 3102   7.724   1.515   5.492  0.1968  0.0535  0.1422
  218POPC   D2A 3103   7.564   1.329   5.788 -0.2255  0.0701 -0.4740
  218POPC   C3A 3104   7.094   1.182   5.840 -0.0255 -0.0315 -0.2551
  218POPC   C4A 3105   6.729   1.454   5.989  0.1003  0.0340 -0.1113
  218POPC   C1B 3106   7.117   0.878   5.367  0.3057 -0.0537 -0.1273
  218POPC   C2B 3107   6.852   0.691   5.535  0.2504 -0.0760  0.1305
  218POPC   C3B 3108   6.719   0.834   5.893 -0.2422  0.2539 -0.1223
  218POPC   C4B 3109   6.502   1.003   6.205  0.0696 -0.0884  0.2902
  219POPC   NC3 3110   0.606  10.360   4.616  0.0291 -0.0926 -0.1083
  219POPC   PO4 3111   0.144  10.532   4.545 -0.1047 -0.2221  0.2141
  219POPC   GL1 3112   0.199  10.416   4.943 -0.1591 -0.1502 -0.2163
  219POPC   GL2 3113  -0.111  10.348   4.998 -0.1319 -0.4676  0.0305
  219POPC   C1A 3114   0.364  10.555   5.397  0.1453 -0.1567  0.0475
  219POPC   D2A 3115   0.462  10.357   5.845  0.3197 -0.0350  0.1717
  219POPC   C3A 3116   0.832  10.292   5.882 -0.1921  0.0484 -0.2940
  219POPC   C4A 3117   1.244  10.418   5.828  0.2073  0.0046  0.0053
  219POPC   C1B 3118   0.014  10.178   5.411 -0.1474  0.1633 -0.1043
  219POPC   C2B 3119   0.070  10.029   5.897  0.4841 -0.0928  0.4984
  219POPC   C3B 3120   0.107  10.249   6.318 -0.2770  0.0718  0.5650
  219POPC   C4B 3121   0.001  10.684   6.594  0.0884 -0.1105 -0.0087
  220POPC   NC3 3122   5.394   1.568   3.651  0.1878  0.2143 -0.0949
  220POPC   PO4 3123   4.940   1.523   3.754  0.0481  0.0056 -0.1138
  220POPC   GL1 3124   5.039   1.624   4.164  0.0468 -0.1315  0.2681
  220POPC   GL2 3125   5.331   1.643   4.143 -0.2554 -0.0648  0.0525
  220POPC   C1A 3126   5.066   1.809   4.538  0.0184 -0.1651 -0.0205
  220POPC   D2A 3127   5.112   1.706   4.935 -0.1432  0.0212 -0.0141
  220POPC   C3A 3128   4.718   1.827   5.063 -0.1247 -0.2129 -0.3429
  220POPC   C4A 3129   4.466   1.462   5.003  0.0051  0.0560 -0.2954
  220POPC   C1B 3130   5.746   1.558   4.436 -0.0759 -0.1073 -0.0103
  220POPC   C2B 3131   5.959   1.494   4.867 -0.0362  0.3133  0.0879
  220POPC   C3B 3132   5.657   1.589   5.222 -0.0213 -0.2146 -0.2634
  220POPC   C4B 3133   5.672   1.999   5.492  0.0754  0.0482  0.3039
  221POPC   NC3 3134   6.036   8.715   4.110 -0.0527  0.0580 -0.1647
  221POPC   PO4 3135   6.271   8.841   4.578  0.2011  0.1170 -0.0506
  221POPC   GL1 3136   6.334   8.960   5.088 -0.2217  0.1539  0.0137
  221POPC   GL2 3137   6.750   9.009   5.181 -0.0076 -0.2243  0.0205
  221POPC   C1A 3138   6.276   9.161   5.482  0.0567 -0.1672 -0.3050
  221POPC   D2A 3139   6.371   9.391   5.738 -0.1039  0.0026 -0.1337
  221POPC   C3A 3140   6.238   9.352   6.279  0.0094  0.0956  0.0878
  221POPC   C4A 3141   6.163   9.031   6.510 -0.0920 -0.1197 -0.0974
  221POPC   C1B 3142   6.724   8.978   5.608  0.2189  0.0005 -0.0645
  221POPC   C2B 3143   6.873   9.348   5.940  0.2281 -0.0842  0.0459
  221POPC   C3B 3144   6.796   9.572   6.306  0.0194  0.3404 -0.0449
  221POPC   C4B 3145   6.738  10.019   6.495 -0.4213 -0.0819  0.0535
  222POPC   NC3 3146   3.576   8.618   4.086 -0.0678  0.1856  0.2129
  222POPC   PO4 3147   3.538   8.331   4.365  0.3322 -0.1185 -0.1828
  222POPC   GL1 3148   3.765   8.749   4.531 -0.0781  0.1918 -0.1076
  222POPC   GL2 3149   3.475   8.879   4.471  0.4249  0.0304 -0.2088
  222POPC   C1A 3150   4.191   9.053   4.641 -0.1194  0.1773  0.0415
  222POPC   D2A 3151   4.492   9.369   4.505 -0.1704  0.1669 -0.4878
  222POPC   C3A 3152   4.449   9.634   4.874  0.1415  0.0635 -0.2689
  222POPC   C4A 3153   4.283   9.848   5.260 -0.3868 -0.1244 -0.0316
  222POPC   C1B 3154   3.464   9.225   4.544  0.0186  0.0001 -0.0821
  222POPC   C2B 3155   3.455   9.400   4.962 -0.0463  0.1064 -0.1592
  222POPC   C3B 3156   3.536   9.353   5.359 -0.0672 -0.0005  0.2068
  222POPC   C4B 3157   3.779   9.283   5.803 -0.0820 -0.0117 -0.1224
  223POPC   NC3 3158   4.760   3.737   4.642  0.3306 -0.2176  0.0517
  223POPC   PO4 3159   4.583   4.111   4.861 -0.0389 -0.3625  0.0571
  223POPC   GL1 3160   4.393   4.051   5.095  0.0159 -0.1824 -0.2263
  223POPC   GL2 3161   4.438   3.733   5.208  0.0573 -0.2189 -0.0312
  223POPC   C1A 3162   3.998   3.958   5.367 -0.3900 -0.0731  0.0462
  223POPC   D2A 3163   3.833   3.829   5.770  0.3695  0.1959 -0.0820
  223POPC   C3A 3164   3.880   4.059   6.098  0.3000 -0.0478  0.3794
  223POPC   C4A 3165   3.750   4.216   6.512 -0.0160  0.0653 -0.0965
  223POPC   C1B 3166   4.418   3.412   5.254  0.2973 -0.1481  0.1955
  223POPC   C2B 3167   4.602   3.057   5.114 -0.1808  0.0382 -0.1532
  223POPC   C3B 3168   4.948   3.069   4.930  0.4321  0.1667 -0.0784
  223POPC   C4B 3169   5.275   2.842   5.077 -0.1409  0.0781  0.1673
  224POPC   NC3 3170  10.434   2.327   4.921  0.1660 -0.1226 -0.1346
  224POPC   PO4 3171  10.273   1.918   4.864  0.0819  0.0411 -0.5150
  224POPC   GL1 3172  10.185   2.075   5.296  0.3512 -0.2786  0.0305
  224POPC   GL2 3173   9.950   2.386   5.270  0.5106  0.4386  0.0225
  224POPC   C1A 3174  10.242   1.885   5.674 -0.2620  0.1050 -0.2567
  224POPC   D2A 3175   9.967   1.828   6.071  0.2353 -0.0833  0.0636
  224POPC   C3A 3176  10.023   1.480   6.271  0.3840  0.2743  0.4420
  224POPC   C4A 3177  10.338   1.156   6.449  0.1804  0.2484  0.1756
  224POPC   C1B 3178   9.900   2.265   5.705 -0.1069  0.2345  0.1537
  224POPC   C2B 3179   9.719   2.268   6.071 -0.1061 -0.0938 -0.1343
  224POPC   C3B 3180   9.480   2.647   6.222 -0.1268 -0.1206 -0.0112
  224POPC   C4B 3181   9.445   2.972   6.426 -0.2046 -0.1885 -0.0118
  225POPC   NC3 3182   3.769   9.698   3.499  0.0715  0.0612  0.0155
  225POPC   PO4 3183   3.739   9.235   3.628  0.3312 -0.2858  0.0387
  225POPC   GL1 3184   3.689   9.576   4.046 -0.1926  0.1820 -0.2102
  225POPC   GL2 3185   3.591   9.905   3.936  0.4011 -0.1592 -0.0241
  225POPC   C1A 3186   3.724   9.680   4.509 -0.0404 -0.1370  0.0932
  225POPC   D2A 3187   3.961   9.687   4.823 -0.1285  0.3467 -0.3563
  225POPC   C3A 3188   3.744   9.777   5.099  0.0097 -0.3683 -0.1742
  225POPC   C4A 3189   3.635   9.824   5.483 -0.1666 -0.0177  0.0310
  225POPC   C1B 3190   3.483  10.191   4.415 -0.0242  0.1698 -0.1059
  225POPC   C2B 3191   3.144  10.353   4.781 -0.0377 -0.0318  0.1908
  225POPC   C3B 3192   2.835  10.165   5.002  0.0739 -0.0101  0.0700
  225POPC   C4B 3193   2.514   9.824   5.007 -0.1431 -0.0374 -0.2035
  226POPC   NC3 3194   7.737   6.823   5.168  0.0270  0.1363  0.0816
  226POPC   PO4 3195   7.403   6.480   4.962  0.1107 -0.2436  0.0740
  226POPC   GL1 3196   7.348   6.604   5.392  0.0216  0.2493 -0.5513
  226POPC   GL2 3197   7.464   6.329   5.662  0.3794 -0.1261  0.2197
  226POPC   C1A 3198   7.293   6.874   5.807 -0.4204  0.0239 -0.2173
  226POPC   D2A 3199   6.975   6.906   6.076  0.2399 -0.3855 -0.0493
  226POPC   C3A 3200   7.022   7.316   6.398 -0.0331 -0.1158 -0.1322
  226POPC   C4A 3201   7.059   7.699   6.735  0.2157 -0.1941  0.1365
  226POPC   C1B 3202   7.487   6.151   6.086  0.3724  0.1082  0.1083
  226POPC   C2B 3203   7.545   6.202   6.499  0.0842  0.2027 -0.0486
  226POPC   C3B 3204   7.601   6.247   6.885  0.0498 -0.2661  0.1849
  226POPC   C4B 3205   7.355   6.554   7.046 -0.3024 -0.0298  0.5291
  227POPC   NC3 3206   4.763   1.996   3.834 -0.1130  0.2673  0.1030
  227POPC   PO4 3207   4.481   1.757   3.714 -0.0966  0.0748  0.3166
  227POPC   GL1 3208   4.390   1.714   4.123  0.0847  0.0772 -0.0940
  227POPC   GL2 3209   4.564   1.455   4.079 -0.3792  0.1523  0.1179
  227POPC   C1A 3210   4.443   1.870   4.541 -0.0258  0.2115 -0.2002
  227POPC   D2A 3211   4.559   2.214   4.787 -0.2071 -0.0502  0.0693
  227POPC   C3A 3212   4.415   2.182   5.137  0.4091 -0.4718 -0.0595
  227POPC   C4A 3213   4.158   1.768   5.329 -0.3017 -0.2119  0.0215
  227POPC   C1B 3214   4.729   1.426   4.539  0.1097  0.1697  0.2403
  227POPC   C2B 3215   4.888   1.210   4.898 -0.1332  0.1779 -0.0659
  227POPC   C3B 3216   4.624   0.820   5.072 -0.3277 -0.2316  0.1166
  227POPC   C4B 3217   4.532   0.484   5.331  0.1106 -0.0631  0.0744
  228POPC   NC3 3218   9.240   7.728   4.827 -0.1534 -0.0746  0.0487
  228POPC   PO4 3219   9.603   7.380   4.831 -0.1233 -0.1371 -0.2238
  228POPC   GL1 3220   9.615   7.366   5.176  0.1073 -0.0719 -0.2709
  228POPC   GL2 3221   9.822   7.100   5.314 -0.1577  0.0170 -0.0772
  228POPC   C1A 3222   9.521   7.530   5.550  0.1273  0.1018  0.2118
  228POPC   D2A 3223   9.504   7.622   6.000  0.3791 -0.0079  0.0043
  228POPC   C3A 3224   9.751   7.882   6.256 -0.2116  0.1764  0.0746
  228POPC   C4A 3225   9.784   7.717   6.713 -0.1268 -0.0196 -0.1546
  228POPC   C1B 3226  10.001   6.887   5.582  0.0047  0.0287 -0.2217
  228POPC   C2B 3227  10.200   6.942   6.023 -0.1311 -0.1421  0.0706
  228POPC   C3B 3228  10.555   7.048   6.081 -0.1410  0.2532  0.0710
  228POPC   C4B 3229  10.849   7.207   6.384 -0.4469  0.0595  0.0685
  229POPC   NC3 3230   9.951   8.029   4.717 -0.3217 -0.0724  0.0756
  229POPC   PO4 3231   9.821   8.437   4.736 -0.6627 -0.1226 -0.2007
  229POPC   GL1 3232   9.854   8.419   5.111  0.0195  0.0194  0.1676
  229POPC   GL2 3233  10.193   8.262   5.137 -0.0672  0.2843 -0.1281
  229POPC   C1A 3234   9.958   8.473   5.616  0.4616 -0.1623  0.1217
  229POPC   D2A 3235   9.828   8.312   6.043  0.0189 -0.1120  0.3163
  229POPC   C3A 3236   9.831   8.442   6.328  0.0259 -0.0061 -0.2167
  229POPC   C4A 3237   9.654   8.531   6.684 -0.0755  0.3656 -0.3326
  229POPC   C1B 3238  10.491   8.144   5.528 -0.2546 -0.2236 -0.1136
  229POPC   C2B 3239  10.786   8.146   5.865 -0.3204  0.1143 -0.1180
  229POPC   C3B 3240  11.039   8.118   6.263 -0.2483 -0.1966  0.0536
  229POPC   C4B 3241  11.292   8.029   6.680  0.0757 -0.2511  0.2081
  230POPC   NC3 3242   9.985   3.799   4.846  0.2868 -0.1868  0.2550
  230POPC   PO4 3243   9.872   4.233   4.574 -0.1878  0.2113 -0.0696
  230POPC   GL1 3244  10.046   4.310   5.048 -0.2340  0.1908  0.2248
  230POPC   GL2 3245  10.334   4.170   5.149  0.0373  0.0300 -0.2634
  230POPC   C1A 3246  10.222   4.589   5.417  0.2904 -0.0594  0.0699
  230POPC   D2A 3247  10.367   4.812   5.724 -0.0490 -0.0101 -0.1794
  230POPC   C3A 3248  10.748   4.652   5.941  0.0508  0.4237  0.2419
  230POPC   C4A 3249  10.895   4.372   6.168 -0.0265 -0.5101 -0.0512
  230POPC   C1B 3250  10.082   4.064   5.458 -0.1414  0.2120 -0.1836
  230POPC   C2B 3251  10.046   3.907   5.889 -0.1029  0.3174 -0.3941
  230POPC   C3B 3252  10.107   3.516   5.993  0.0588 -0.2323  0.2055
  230POPC   C4B 3253  10.316   3.259   5.789 -0.0801  0.1366 -0.0009
  231POPC   NC3 3254   8.892   4.877   4.197 -0.2761 -0.3898  0.0714
  231POPC   PO4 3255   8.872   5.102   4.661  0.0650  0.0255 -0.2018
  231POPC   GL1 3256   8.911   4.958   5.123 -0.1662  0.0423 -0.0537
  231POPC   GL2 3257   9.192   4.997   5.310 -0.0847  0.0010 -0.1472
  231POPC   C1A 3258   8.832   5.188   5.532  0.0693 -0.0817 -0.1045
  231POPC   D2A 3259   8.628   5.495   5.844 -0.3172 -0.0732 -0.0836
  231POPC   C3A 3260   8.913   5.647   6.138  0.1859  0.0492  0.1243
  231POPC   C4A 3261   8.940   6.129   6.012 -0.0606 -0.3508 -0.1031
  231POPC   C1B 3262   9.590   5.016   5.435 -0.0472  0.1746 -0.2297
  231POPC   C2B 3263   9.839   4.738   5.725 -0.0342  0.0089 -0.0079
  231POPC   C3B 3264   9.919   4.810   6.113  0.1153  0.2388 -0.1755
  231POPC   C4B 3265   9.595   4.732   6.496 -0.2812 -0.0628 -0.0049
  232POPC   NC3 3266   0.721   2.248   4.547 -0.3354 -0.1690  0.0533
  232POPC   PO4 3267   0.442   2.390   4.957  0.1092  0.0994 -0.0007
  232POPC   GL1 3268   0.265   2.128   5.229  0.0430  0.0130 -0.1040
  232POPC   GL2 3269   0.122   1.718   5.214  0.0371 -0.4026 -0.0201
  232POPC   C1A 3270   0.464   2.070   5.699  0.1131 -0.3313 -0.0739
  232POPC   D2A 3271   0.477   1.864   6.134  0.1922 -0.1713 -0.2409
  232POPC   C3A 3272   0.707   1.563   6.420  0.3365  0.0341  0.1594
  232POPC   C4A 3273   0.616   1.256   6.795  0.0270 -0.0397  0.0168
  232POPC   C1B 3274   0.559   1.693   5.426  0.1790  0.1013 -0.1137
  232POPC   C2B 3275   0.571   1.488   5.809  0.0075 -0.0898 -0.0028
  232POPC   C3B 3276   0.903   1.161   5.838  0.0158  0.2729 -0.0653
  232POPC   C4B 3277   1.236   0.872   6.107 -0.1065 -0.4188  0.2111
  233POPC   NC3 3278   8.594   9.468   5.013 -0.2497  0.0889 -0.0973
  233POPC   PO4 3279   8.813   9.797   4.773 -0.3334 -0.0133 -0.0861
  233POPC   GL1 3280   8.971   9.773   5.194  0.0604 -0.0996 -0.1269
  233POPC   GL2 3281   9.035  10.111   5.227 -0.0526  0.2406  0.0417
  233POPC   C1A 3282   9.005   9.645   5.605 -0.0444  0.0064 -0.1600
  233POPC   D2A 3283   9.331   9.658   6.100  0.2987 -0.1265  0.0239
  233POPC   C3A 3284   9.305   9.834   6.471 -0.1508  0.1160 -0.3101
  233POPC   C4A 3285   9.258   9.621   6.826 -0.0800  0.2631 -0.2921
  233POPC   C1B 3286   9.110  10.142   5.676 -0.0562 -0.1667  0.1175
  233POPC   C2B 3287   9.100  10.116   6.094  0.3263 -0.2740 -0.1939
  233POPC   C3B 3288   8.818  10.104   6.409  0.0211 -0.0264  0.3395
  233POPC   C4B 3289   8.873  10.049   6.905 -0.3281  0.0712  0.0014
  234POPC   NC3 3290   5.789   2.239   4.203 -0.0493 -0.1428 -0.2572
  234POPC   PO4 3291   5.954   2.620   4.571 -0.0062  0.0590 -0.1665
  234POPC   GL1 3292   5.720   2.662   4.905 -0.2709  0.4956  0.0631
  234POPC   GL2 3293   5.787   2.944   5.085  0.2922  0.1432 -0.1844
  234POPC   C1A 3294   5.645   2.579   5.377 -0.1955  0.2469 -0.0409
  234POPC   D2A 3295   5.535   2.760   5.869 -0.2167  0.2651 -0.1322
  234POPC   C3A 3296   5.783   2.899   6.185  0.1742  0.1439 -0.2800
  234POPC   C4A 3297   6.274   2.947   6.354  0.0669  0.0579  0.0911
  234POPC   C1B 3298   5.962   3.319   5.351  0.0094 -0.1766 -0.4540
  234POPC   C2B 3299   5.972   3.629   5.574  0.2626 -0.1147  0.1877
  234POPC   C3B 3300   5.897   3.706   5.996 -0.2547 -0.0171  0.2112
  234POPC   C4B 3301   5.954   3.364   6.382 -0.0111 -0.1963  0.0624
  235POPC   NC3 3302   6.440   9.105   3.582  0.0077 -0.1576 -0.3149
  235POPC   PO4 3303   6.306   9.128   4.069  0.1686  0.1123  0.2943
  235POPC   GL1 3304   6.261   9.370   4.455 -0.1024  0.0138  0.3582
  235POPC   GL2 3305   6.427   9.363   4.787 -0.0304 -0.0919  0.0677
  235POPC   C1A 3306   5.928   9.359   4.720 -0.0385 -0.0368  0.0426
  235POPC   D2A 3307   6.019   9.469   5.150  0.1280  0.0619  0.1774
  235POPC   C3A 3308   5.818   9.607   5.441  0.1662 -0.0789  0.1163
  235POPC   C4A 3309   5.906   9.505   5.931  0.0717  0.3002  0.2927
  235POPC   C1B 3310   6.530   9.448   5.155 -0.0202 -0.2193 -0.1122
  235POPC   C2B 3311   6.793   9.490   5.494 -0.1751 -0.1716 -0.0800
  235POPC   C3B 3312   6.766   9.804   5.864 -0.0143 -0.0052 -0.1804
  235POPC   C4B 3313   6.375  10.026   6.158 -0.0369  0.0759 -0.1989
  236POPC   NC3 3314   1.183   9.722   4.540  0.0011 -0.1528  0.2836
  236POPC   PO4 3315   0.789   9.898   4.616  0.0900  0.0170  0.0425
  236POPC   GL1 3316   0.707   9.839   4.987  0.2568 -0.1389 -0.2955
  236POPC   GL2 3317   0.599  10.152   5.104  0.0710  0.0979 -0.0517
  236POPC   C1A 3318   0.921   9.739   5.371 -0.3119 -0.2268  0.0272
  236POPC   D2A 3319   1.115   9.821   5.793  0.2974  0.0589 -0.1948
  236POPC   C3A 3320   1.238  10.081   6.253  0.1654  0.0038  0.1707
  236POPC   C4A 3321   1.612  10.066   6.552  0.0992  0.1016  0.1369
  236POPC   C1B 3322   0.401   9.907   5.491 -0.2170  0.0045  0.0302
  236POPC   C2B 3323   0.544   9.879   5.947  0.3369 -0.1102 -0.4127
  236POPC   C3B 3324   0.642  10.133   6.274 -0.2814 -0.1419 -0.2328
  236POPC   C4B 3325   0.934  10.490   6.378 -0.0833  0.0508 -0.0465
  237POPC   NC3 3326   1.708  10.290   3.946 -0.0690 -0.0869  0.0812
  237POPC   PO4 3327   1.498  10.572   4.248  0.0577  0.1538  0.3052
  237POPC   GL1 3328   1.593  10.524   4.732 -0.1666  0.0345  0.2077
  237POPC   GL2 3329   1.533  10.902   4.795  0.0375  0.0934  0.0734
  237POPC   C1A 3330   1.355  10.570   5.146  0.1182  0.0225  0.1936
  237POPC   D2A 3331   1.244  10.858   5.487  0.0347  0.0253  0.2088
  237POPC   C3A 3332   1.450  11.202   5.684  0.0514 -0.3433  0.2617
  237POPC   C4A 3333   1.760  11.364   5.948 -0.1542 -0.1301  0.2177
  237POPC   C1B 3334   1.723  10.928   5.217  0.1127 -0.1168 -0.0625
  237POPC   C2B 3335   1.967  10.559   5.345  0.0010 -0.2909 -0.1195
  237POPC   C3B 3336   1.924  10.229   5.682 -0.0791  0.1375 -0.0525
  237POPC   C4B 3337   1.587  10.167   5.991 -0.0399 -0.0947 -0.0498
  238POPC   NC3 3338   7.354   9.833   4.002  0.2584  0.0424 -0.0227
  238POPC   PO4 3339   7.049   9.552   4.116  0.2458  0.1432  0.0009
  238POPC   GL1 3340   6.644   9.736   4.463  0.3560  0.1347 -0.1414
  238POPC   GL2 3341   6.709   9.832   4.720  0.0387 -0.0880  0.0027
  238POPC   C1A 3342   6.240   9.810   4.687  0.3676  0.1716  0.0828
  238POPC   D2A 3343   5.949   9.924   4.881  0.0463  0.0915 -0.0184
  238POPC   C3A 3344   5.982  10.357   5.037 -0.4140  0.0433  0.1288
  238POPC   C4A 3345   6.181  10.328   5.393 -0.0932 -0.1291  0.3131
  238POPC   C1B 3346   6.880   9.873   5.179 -0.1675  0.2534  0.1364
  238POPC   C2B 3347   6.787  10.137   5.473  0.1721 -0.4071  0.0701
  238POPC   C3B 3348   6.611  10.486   5.724  0.2175  0.1040  0.0891
  238POPC   C4B 3349   6.620  10.507   6.215 -0.0814  0.2655  0.3379
  239POPC   NC3 3350   8.258   7.026   4.339 -0.0722  0.3647  0.1345
  239POPC   PO4 3351   8.021   6.981   4.811  0.4256  0.2765 -0.1815
  239POPC   GL1 3352   7.967   7.261   5.109 -0.0281 -0.3203 -0.1516
  239POPC   GL2 3353   8.112   7.110   5.379  0.2048 -0.1910 -0.3052
  239POPC   C1A 3354   7.988   7.587   5.413  0.2645 -0.1580 -0.2137
  239POPC   D2A 3355   8.057   7.683   5.821  0.1459  0.1032  0.2111
  239POPC   C3A 3356   8.234   7.395   6.107  0.2480 -0.0748  0.1193
  239POPC   C4A 3357   8.359   7.001   6.332  0.0824 -0.1395  0.1101
  239POPC   C1B 3358   8.212   7.053   5.801 -0.0747  0.3709 -0.0389
  239POPC   C2B 3359   7.829   7.016   6.220 -0.0832  0.0572  0.0396
  239POPC   C3B 3360   7.469   7.172   6.256  0.2391  0.1128 -0.3529
  239POPC   C4B 3361   7.252   7.395   5.928 -0.1014 -0.0663 -0.0155
  240POPC   NC3 3362   4.094   4.944   4.567  0.1039 -0.0770  0.0105
  240POPC   PO4 3363   4.025   5.373   4.543  0.0918 -0.2990 -0.2984
  240POPC   GL1 3364   4.038   5.381   4.944  0.2889  0.0499 -0.0030
  240POPC   GL2 3365   4.256   5.187   5.001 -0.0176 -0.0907 -0.0879
  240POPC   C1A 3366   4.092   5.369   5.492  0.0351 -0.0367 -0.1593
  240POPC   D2A 3367   3.935   5.304   5.765  0.3972 -0.1711 -0.0911
  240POPC   C3A 3368   3.963   4.869   6.069 -0.2222 -0.1642  0.0678
  240POPC   C4A 3369   3.725   4.485   6.117 -0.0501 -0.0018 -0.2366
  240POPC   C1B 3370   4.294   4.861   5.293 -0.0475  0.2730  0.1364
  240POPC   C2B 3371   4.598   4.630   5.531  0.0998  0.1366 -0.1744
  240POPC   C3B 3372   4.620   4.463   5.895 -0.1425 -0.0948  0.3415
  240POPC   C4B 3373   4.727   4.327   6.375 -0.0441 -0.2121 -0.1413
  241POPC   NC3 3374   1.633   4.188   4.416  0.0748 -0.1254  0.1444
  241POPC   PO4 3375   1.918   3.846   4.632 -0.0851  0.0940 -0.2397
  241POPC   GL1 3376   2.016   3.654   4.984  0.1310 -0.3920  0.0894
  241POPC   GL2 3377   2.273   3.528   4.999  0.1677  0.0494 -0.0074
  241POPC   C1A 3378   2.135   3.823   5.379 -0.1356 -0.1239 -0.1246
  241POPC   D2A 3379   2.025   4.080   5.746 -0.1214 -0.1723 -0.1526
  241POPC   C3A 3380   2.220   4.489   5.883 -0.1051 -0.1184  0.1006
  241POPC   C4A 3381   2.138   4.800   6.276 -0.1184 -0.3532 -0.1193
  241POPC   C1B 3382   2.616   3.208   5.078  0.0254 -0.2734  0.1537
  241POPC   C2B 3383   2.704   2.970   5.410 -0.4790  0.0590 -0.0795
  241POPC   C3B 3384   3.067   2.668   5.571  0.3325  0.3239  0.2846
  241POPC   C4B 3385   3.283   2.519   5.934  0.2468 -0.3855 -0.0672
  242POPC   NC3 3386   7.644   1.932   4.755 -0.1075 -0.0824  0.0882
  242POPC   PO4 3387   7.968   2.055   4.839 -0.2617  0.1466  0.0970
  242POPC   GL1 3388   7.918   1.914   5.235  0.2149  0.0735 -0.0120
  242POPC   GL2 3389   7.631   1.976   5.326 -0.1948 -0.1020 -0.1519
  242POPC   C1A 3390   8.119   1.765   5.667  0.0680 -0.1607 -0.0664
  242POPC   D2A 3391   7.905   1.637   6.072  0.0781 -0.1429  0.0565
  242POPC   C3A 3392   7.541   1.557   6.275  0.0176 -0.3811  0.2815
  242POPC   C4A 3393   7.393   1.543   6.703  0.0485  0.1355  0.1827
  242POPC   C1B 3394   7.261   1.761   5.417 -0.2073  0.3520 -0.2098
  242POPC   C2B 3395   6.883   1.921   5.661  0.3360  0.0398 -0.0891
  242POPC   C3B 3396   6.600   2.235   5.607 -0.3625 -0.3852  0.0308
  242POPC   C4B 3397   6.546   2.536   5.460 -0.4138 -0.3160 -0.0720
  243POPC   NC3 3398   4.558   7.611   3.925 -0.0790  0.1946  0.1815
  243POPC   PO4 3399   4.195   7.576   4.431 -0.1087 -0.0133  0.1279
  243POPC   GL1 3400   4.255   7.882   4.687  0.0378  0.0892 -0.1258
  243POPC   GL2 3401   4.335   8.202   4.818 -0.1553 -0.2267 -0.0524
  243POPC   C1A 3402   3.975   8.037   5.045 -0.1230  0.2411  0.0376
  243POPC   D2A 3403   3.462   8.058   5.220  0.0262  0.0344  0.1340
  243POPC   C3A 3404   3.441   8.354   5.635 -0.2811  0.1494  0.1461
  243POPC   C4A 3405   3.137   8.388   5.895 -0.0287  0.3406  0.1679
  243POPC   C1B 3406   4.036   8.506   4.870 -0.2013 -0.0347  0.1278
  243POPC   C2B 3407   3.846   8.907   5.000 -0.0451  0.3680 -0.1608
  243POPC   C3B 3408   4.038   9.276   5.087  0.1892 -0.1498  0.2055
  243POPC   C4B 3409   4.057   9.469   5.456 -0.1017 -0.0562  0.1944
  244POPC   NC3 3410   6.507   3.341   4.248 -0.2044  0.1821 -0.0312
  244POPC   PO4 3411   6.606   3.257   4.633 -0.1181  0.3049 -0.0793
  244POPC   GL1 3412   6.557   3.310   5.103 -0.1600  0.1021 -0.5432
  244POPC   GL2 3413   6.467   2.971   5.267  0.0615  0.2357 -0.1217
  244POPC   C1A 3414   6.402   3.443   5.485 -0.0213  0.0358 -0.0149
  244POPC   D2A 3415   6.241   3.296   5.903  0.1245 -0.2274  0.1363
  244POPC   C3A 3416   6.436   2.857   5.873 -0.1441 -0.0490  0.0242
  244POPC   C4A 3417   6.428   2.553   5.987 -0.0871 -0.0086  0.0312
  244POPC   C1B 3418   6.105   2.857   5.486  0.2250  0.2345  0.2722
  244POPC   C2B 3419   6.001   2.587   5.777 -0.0953 -0.2244 -0.2489
  244POPC   C3B 3420   5.933   2.423   6.203  0.4638  0.0098  0.0948
  244POPC   C4B 3421   5.875   2.465   6.571  0.1897  0.0678 -0.2086
  245POPC   NC3 3422   9.815   5.995   4.876 -0.0638  0.2802 -0.3267
  245POPC   PO4 3423  10.276   5.907   4.739  0.0345  0.3111  0.1025
  245POPC   GL1 3424  10.475   5.864   5.196  0.0541 -0.1104 -0.2943
  245POPC   GL2 3425  10.832   5.907   5.314  0.2970 -0.2143  0.0577
  245POPC   C1A 3426  10.525   6.265   5.514  0.0655 -0.1555  0.0626
  245POPC   D2A 3427  10.832   6.344   5.876 -0.1354  0.1984  0.1059
  245POPC   C3A 3428  10.996   6.276   6.263 -0.2829  0.1944 -0.4159
  245POPC   C4A 3429  10.945   6.098   6.710 -0.1785 -0.3462 -0.3941
  245POPC   C1B 3430  10.815   5.842   5.708  0.1583  0.0213 -0.0088
  245POPC   C2B 3431  10.677   5.913   6.048  0.0171 -0.0668  0.0734
  245POPC   C3B 3432  10.300   5.988   6.075 -0.1400 -0.0792  0.0481
  245POPC   C4B 3433   9.939   5.856   6.012  0.1715 -0.0776  0.4944
  246POPC   NC3 3434   1.126   3.531   4.281  0.0931 -0.0173 -0.3117
  246POPC   PO4 3435   1.222   3.913   4.414 -0.3116 -0.0149 -0.0090
  246POPC   GL1 3436   1.412   4.089   4.885  0.1887  0.1298  0.2746
  246POPC   GL2 3437   1.238   3.968   5.223 -0.0978 -0.2564 -0.1428
  246POPC   C1A 3438   1.556   4.294   5.376  0.1273 -0.1879 -0.0088
  246POPC   D2A 3439   1.559   4.471   5.748 -0.0897  0.0411 -0.2215
  246POPC   C3A 3440   1.286   4.485   6.069 -0.2876  0.0974  0.0453
  246POPC   C4A 3441   1.294   4.261   6.420 -0.1748  0.1941  0.0338
  246POPC   C1B 3442   1.347   4.049   5.707 -0.0066  0.1969 -0.1773
  246POPC   C2B 3443   1.632   4.055   6.076 -0.0472  0.2163 -0.2841
  246POPC   C3B 3444   1.808   3.856   6.551  0.0090  0.2421 -0.1051
  246POPC   C4B 3445   1.845   4.052   7.008  0.0784  0.1943 -0.1009
  247POPC   NC3 3446   3.051   8.191   4.278  0.0463 -0.2823 -0.1576
  247POPC   PO4 3447   2.659   7.998   4.402 -0.1371 -0.0876  0.0798
  247POPC   GL1 3448   2.781   8.241   4.693 -0.0787  0.1393  0.1357
  247POPC   GL2 3449   2.459   8.326   4.836 -0.0009 -0.2726 -0.2377
  247POPC   C1A 3450   2.834   8.492   5.036  0.1993  0.0610 -0.2472
  247POPC   D2A 3451   3.106   8.557   5.355 -0.0250 -0.1174 -0.0182
  247POPC   C3A 3452   3.508   8.804   5.423 -0.0683 -0.2333  0.2369
  247POPC   C4A 3453   3.928   8.919   5.514  0.0864  0.1564  0.2055
  247POPC   C1B 3454   2.298   8.464   5.281  0.2290 -0.2467 -0.2483
  247POPC   C2B 3455   2.155   8.461   5.724  0.1389  0.0773  0.3395
  247POPC   C3B 3456   2.254   8.592   6.093 -0.2129  0.2442  0.1056
  247POPC   C4B 3457   2.381   8.599   6.530  0.0212 -0.1032 -0.0565
  248POPC   NC3 3458   9.672   4.765   4.522 -0.0288  0.3554  0.0804
  248POPC   PO4 3459   9.569   4.573   4.964 -0.1837 -0.2831 -0.1541
  248POPC   GL1 3460   9.630   4.526   5.367 -0.0845  0.0407  0.2511
  248POPC   GL2 3461   9.271   4.463   5.465 -0.0554  0.1391 -0.0062
  248POPC   C1A 3462   9.707   4.281   5.715  0.5000 -0.2274 -0.2902
  248POPC   D2A 3463   9.809   4.299   6.100  0.1859 -0.0843  0.1092
  248POPC   C3A 3464   9.448   4.250   6.377 -0.1089 -0.3098  0.4269
  248POPC   C4A 3465   9.340   4.303   6.788  0.1784  0.0815 -0.0913
  248POPC   C1B 3466   9.324   4.823   5.799  0.3054  0.0763 -0.2255
  248POPC   C2B 3467   9.377   4.969   6.131  0.2130  0.1697 -0.0989
  248POPC   C3B 3468   9.160   5.238   6.473 -0.1124  0.2128  0.0854
  248POPC   C4B 3469   8.743   5.456   6.540  0.3818 -0.0083 -0.2063
  249POPC   NC3 3470   2.922   7.159   4.419 -0.0391 -0.0744 -0.0546
  249POPC   PO4 3471   2.981   7.599   4.344  0.2627 -0.1530  0.1071
  249POPC   GL1 3472   3.006   7.689   4.694  0.0762 -0.1520 -0.0695
  249POPC   GL2 3473   3.184   7.995   4.747  0.1458  0.2282 -0.0009
  249POPC   C1A 3474   3.369   7.605   5.050  0.2340 -0.1327  0.0205
  249POPC   D2A 3475   3.413   7.530   5.580  0.1564  0.1179 -0.0470
  249POPC   C3A 3476   3.386   7.182   5.883 -0.0252 -0.1103 -0.2086
  249POPC   C4A 3477   3.178   7.311   6.196 -0.0569 -0.0498  0.0786
  249POPC   C1B 3478   2.979   8.050   5.141  0.1864 -0.1388 -0.0200
  249POPC   C2B 3479   2.858   8.189   5.492 -0.0831  0.1867 -0.3593
  249POPC   C3B 3480   2.683   8.496   5.725 -0.1383 -0.0334 -0.0554
  249POPC   C4B 3481   2.760   8.632   6.124 -0.3771  0.1524 -0.2243
  250POPC   NC3 3482   5.937   8.505   4.584 -0.1831 -0.1746  0.1414
  250POPC   PO4 3483   5.552   8.202   4.560 -0.0269 -0.1026 -0.1333
  250POPC   GL1 3484   5.722   8.326   4.994  0.1412  0.2256 -0.2211
  250POPC   GL2 3485   5.946   8.068   5.032 -0.0420 -0.1297 -0.2418
  250POPC   C1A 3486   5.479   8.156   5.433 -0.0752 -0.1765 -0.0396
  250POPC   D2A 3487   5.411   7.888   5.812 -0.4506 -0.0262 -0.2456
  250POPC   C3A 3488   5.459   7.993   6.180 -0.2083 -0.1092  0.1347
  250POPC   C4A 3489   5.640   8.296   6.436 -0.1838  0.0608  0.1214
  250POPC   C1B 3490   5.967   8.166   5.524 -0.2570  0.0924  0.0400
  250POPC   C2B 3491   5.701   8.362   5.853 -0.2051 -0.1516 -0.1072
  250POPC   C3B 3492   5.413   8.611   5.637 -0.3445  0.3290  0.0637
  250POPC   C4B 3493   5.349   8.583   5.169  0.0266  0.0443 -0.0511
  251POPC   NC3 3494   2.149   5.471   4.703 -0.1074 -0.1298  0.1213
  251POPC   PO4 3495   1.983   5.024   4.664  0.1874 -0.0232  0.2441
  251POPC   GL1 3496   1.774   5.115   5.050 -0.1147  0.0329  0.0778
  251POPC   GL2 3497   2.121   5.181   5.143 -0.0840  0.2446 -0.1880
  251POPC   C1A 3498   1.611   5.225   5.496 -0.0116  0.1925 -0.1139
  251POPC   D2A 3499   1.321   5.481   5.831  0.2167 -0.0003 -0.0796
  251POPC   C3A 3500   1.347   5.240   6.180  0.0594 -0.0112  0.0096
  251POPC   C4A 3501   1.576   4.885   6.128 -0.4934 -0.0855 -0.3727
  251POPC   C1B 3502   2.220   5.300   5.503 -0.2989 -0.3041  0.2381
  251POPC   C2B 3503   2.439   5.471   5.902  0.3605 -0.2634 -0.0375
  251POPC   C3B 3504   2.260   5.263   6.364 -0.3781 -0.1012 -0.0903
  251POPC   C4B 3505   2.180   5.014   6.823 -0.1377 -0.1029  0.0625
  252POPC   NC3 3506   0.851   2.636   4.975 -0.1585  0.0202 -0.0877
  252POPC   PO4 3507   1.080   2.792   4.650  0.0150 -0.0775  0.1946
  252POPC   GL1 3508   1.285   2.835   4.968 -0.3578 -0.0158  0.0905
  252POPC   GL2 3509   1.001   3.014   5.220 -0.0861 -0.0605  0.3212
  252POPC   C1A 3510   1.586   2.847   5.263  0.4023  0.1468  0.2488
  252POPC   D2A 3511   1.595   2.979   5.703  0.0898 -0.2795  0.4109
  252POPC   C3A 3512   1.928   3.006   5.903 -0.2013 -0.3309  0.2009
  252POPC   C4A 3513   2.230   2.858   6.172  0.2109 -0.1801 -0.0544
  252POPC   C1B 3514   1.157   2.768   5.552 -0.4774  0.1645 -0.1025
  252POPC   C2B 3515   1.108   2.805   5.997  0.0566  0.1223  0.0304
  252POPC   C3B 3516   1.072   2.682   6.426 -0.0500 -0.0548 -0.0513
  252POPC   C4B 3517   0.918   2.569   6.814 -0.4236  0.0593  0.2934
  253POPC   NC3 3518   7.253   3.823   4.756 -0.1653 -0.2236  0.1534
  253POPC   PO4 3519   6.783   3.766   4.812 -0.1621  0.2059 -0.4438
  253POPC   GL1 3520   6.874   3.646   5.284  0.1452 -0.2691 -0.1317
  253POPC   GL2 3521   7.048   3.482   5.329  0.0817  0.1318 -0.0065
  253POPC   C1A 3522   7.115   3.650   5.855  0.0241  0.4840 -0.1508
  253POPC   D2A 3523   7.049   3.691   6.288 -0.1434 -0.0126 -0.1352
  253POPC   C3A 3524   7.150   3.342   6.462  0.2113  0.2042  0.1748
  253POPC   C4A 3525   7.170   3.085   6.842 -0.1522 -0.1812 -0.0825
  253POPC   C1B 3526   6.783   3.281   5.695  0.2481  0.1033 -0.0194
  253POPC   C2B 3527   6.722   3.269   6.168 -0.2057 -0.1323  0.0081
  253POPC   C3B 3528   6.664   3.190   6.595  0.1457  0.4380  0.0747
  253POPC   C4B 3529   6.380   2.849   6.825  0.1201  0.1111 -0.2330
  254POPC   NC3 3530   3.801   7.134   4.359 -0.0710  0.1095 -0.2222
  254POPC   PO4 3531   3.423   6.824   4.323  0.1770  0.0972 -0.1901
  254POPC   GL1 3532   3.578   6.881   4.771 -0.2698 -0.0199 -0.0227
  254POPC   GL2 3533   3.653   7.065   5.035  0.0620  0.1995 -0.0846
  254POPC   C1A 3534   3.282   6.789   5.136 -0.1907  0.0301 -0.2167
  254POPC   D2A 3535   3.345   6.566   5.470 -0.1367 -0.2128  0.1475
  254POPC   C3A 3536   3.535   6.622   5.783 -0.0513 -0.0409  0.0652
  254POPC   C4A 3537   3.831   6.920   5.952 -0.1076  0.1192 -0.5370
  254POPC   C1B 3538   3.843   7.110   5.522 -0.1137  0.2234  0.0127
  254POPC   C2B 3539   3.842   7.415   5.816  0.1725 -0.0773  0.0362
  254POPC   C3B 3540   3.642   7.512   6.194 -0.1285  0.1980  0.3328
  254POPC   C4B 3541   3.504   7.574   6.656  0.1468  0.0822  0.0615
  255POPC   NC3 3542   2.756   2.895   4.086 -0.2359  0.2048 -0.0069
  255POPC   PO4 3543   2.684   3.431   4.138 -0.2209  0.2219 -0.0244
  255POPC   GL1 3544   2.607   3.185   4.515  0.1206  0.0013 -0.3999
  255POPC   GL2 3545   2.472   2.956   4.440  0.0075 -0.0774  0.1550
  255POPC   C1A 3546   2.929   3.003   4.779 -0.3888 -0.1644  0.2401
  255POPC   D2A 3547   3.095   2.913   5.166 -0.1942 -0.1321 -0.1793
  255POPC   C3A 3548   3.431   2.560   5.285  0.0446 -0.0414 -0.1744
  255POPC   C4A 3549   3.633   2.308   5.603  0.1052 -0.3072  0.1308
  255POPC   C1B 3550   2.467   2.735   4.776  0.1740  0.0238  0.3227
  255POPC   C2B 3551   2.443   2.630   5.159 -0.0941 -0.2510  0.1811
  255POPC   C3B 3552   2.405   2.387   5.597 -0.0843  0.3081  0.0647
  255POPC   C4B 3553   2.348   2.247   6.100 -0.0403 -0.1697  0.1902
  256POPC   NC3 3554   5.486   6.484   4.828 -0.2200  0.2585  0.0633
  256POPC   PO4 3555   5.004   6.492   4.864  0.2646  0.1953  0.2813
  256POPC   GL1 3556   5.205   6.297   5.193 -0.0533  0.1912 -0.1156
  256POPC   GL2 3557   5.481   6.008   5.294 -0.0698 -0.2532  0.1305
  256POPC   C1A 3558   5.146   6.103   5.620 -0.0769 -0.6089 -0.0875
  256POPC   D2A 3559   5.345   6.129   6.011 -0.2765  0.1648  0.0634
  256POPC   C3A 3560   5.453   6.573   6.042 -0.1157  0.4663  0.1725
  256POPC   C4A 3561   5.386   6.998   6.227 -0.0751  0.0107 -0.4281
  256POPC   C1B 3562   5.522   5.752   5.638 -0.3858  0.0935 -0.1320
  256POPC   C2B 3563   5.248   5.691   6.036 -0.1817 -0.0017 -0.3934
  256POPC   C3B 3564   5.334   5.772   6.403 -0.2949 -0.2394  0.0805
  256POPC   C4B 3565   5.643   5.771   6.767  0.1370 -0.0423  0.2503
  257POPC   NC3 3566   3.356   3.768   4.209 -0.1510  0.2284  0.0920
  257POPC   PO4 3567   2.950   3.838   4.449  0.2570  0.1068  0.1545
  257POPC   GL1 3568   2.979   3.861   4.877 -0.0823  0.1143  0.0263
  257POPC   GL2 3569   2.829   3.582   4.872  0.3685 -0.1648  0.2859
  257POPC   C1A 3570   3.115   3.860   5.340 -0.0392  0.2284  0.1212
  257POPC   D2A 3571   3.378   4.074   5.581 -0.1851  0.1849 -0.0077
  257POPC   C3A 3572   3.706   4.324   5.572 -0.3023 -0.2634  0.2193
  257POPC   C4A 3573   4.047   4.416   5.231 -0.0131 -0.2142  0.2350
  257POPC   C1B 3574   3.102   3.378   5.181  0.1743 -0.0955 -0.3236
  257POPC   C2B 3575   3.470   3.157   5.289 -0.4970  0.1002 -0.1415
  257POPC   C3B 3576   3.676   2.924   5.559 -0.1078  0.0066 -0.1313
  257POPC   C4B 3577   3.672   2.912   6.072 -0.2828  0.2916  0.4210
  258POPC   NC3 3578   5.045   5.955   4.826  0.2710 -0.2615 -0.0778
  258POPC   PO4 3579   4.734   6.049   4.507 -0.1500 -0.2171  0.0536
  258POPC   GL1 3580   4.517   6.113   4.939 -0.0413  0.0907 -0.0272
  258POPC   GL2 3581   4.744   6.103   5.272  0.0665 -0.0813 -0.0225
  258POPC   C1A 3582   4.332   6.425   5.320  0.0608  0.0522 -0.0790
  258POPC   D2A 3583   4.354   6.930   5.419 -0.0082  0.2101 -0.0398
  258POPC   C3A 3584   4.329   7.107   5.811  0.3305 -0.2125  0.5535
  258POPC   C4A 3585   4.236   7.217   6.196  0.0141 -0.2078  0.1316
  258POPC   C1B 3586   4.611   6.149   5.702  0.1017  0.2218  0.0323
  258POPC   C2B 3587   4.871   6.357   5.989  0.3347 -0.3267 -0.0795
  258POPC   C3B 3588   5.104   6.500   6.395  0.2502  0.0363  0.1455
  258POPC   C4B 3589   5.291   6.771   6.754  0.1731 -0.4152 -0.1625
  259POPC   NC3 3590   1.078   1.662   3.756  0.1862  0.0627  0.1353
  259POPC   PO4 3591   1.366   1.564   4.091 -0.1616  0.3276 -0.3372
  259POPC   GL1 3592   1.627   1.613   4.401  0.1080  0.3882  0.4164
  259POPC   GL2 3593   1.564   1.962   4.522  0.2731  0.2648  0.0177
  259POPC   C1A 3594   1.728   1.381   4.794  0.0221 -0.0180  0.2572
  259POPC   D2A 3595   1.865   1.416   5.278  0.0190  0.2618 -0.0132
  259POPC   C3A 3596   2.233   1.551   5.559 -0.0375  0.0975 -0.0168
  259POPC   C4A 3597   2.408   1.867   5.812 -0.2123  0.0703 -0.0090
  259POPC   C1B 3598   1.490   1.822   5.019  0.0244  0.2718  0.0569
  259POPC   C2B 3599   1.490   1.736   5.508 -0.0368  0.1479 -0.3696
  259POPC   C3B 3600   1.374   2.032   5.848  0.0639  0.1157  0.1514
  259POPC   C4B 3601   1.354   2.304   6.219  0.0266  0.1347  0.0350
  260POPC   NC3 3602   0.232   8.006   4.976  0.1931  0.0833  0.0948
  260POPC   PO4 3603  -0.088   7.809   4.950 -0.1065  0.0833  0.1587
  260POPC   GL1 3604  -0.093   7.687   5.390  0.0886 -0.3005  0.2090
  260POPC   GL2 3605   0.082   7.674   5.636  0.1035  0.3196  0.0647
  260POPC   C1A 3606  -0.309   7.328   5.641 -0.3610  0.0327 -0.2142
  260POPC   D2A 3607  -0.724   7.203   5.844  0.0316 -0.1790 -0.0351
  260POPC   C3A 3608  -0.746   7.180   6.255  0.2871  0.2406 -0.1773
  260POPC   C4A 3609  -0.779   6.942   6.487  0.0546 -0.0682  0.0357
  260POPC   C1B 3610   0.069   7.557   5.973  0.2819  0.1201  0.2102
  260POPC   C2B 3611   0.124   7.825   6.307 -0.1328 -0.1568  0.0410
  260POPC   C3B 3612   0.113   7.980   6.730  0.1070  0.0718 -0.1064
  260POPC   C4B 3613   0.195   8.265   7.026  0.0810  0.0171  0.0149
  261POPC   NC3 3614   3.006   1.973   3.775  0.1527  0.0849  0.2064
  261POPC   PO4 3615   2.724   2.436   3.916  0.1761 -0.1442 -0.3318
  261POPC   GL1 3616   2.794   2.253   4.173 -0.1191 -0.1464 -0.1663
  261POPC   GL2 3617   3.050   2.130   4.399  0.0610 -0.0524 -0.3516
  261POPC   C1A 3618   2.639   1.838   4.376  0.2731 -0.2926  0.1284
  261POPC   D2A 3619   2.570   1.571   4.604  0.1248  0.1645  0.2504
  261POPC   C3A 3620   2.441   1.594   5.101 -0.1995  0.2473  0.1192
  261POPC   C4A 3621   2.356   2.004   5.284  0.0458 -0.0149 -0.0968
  261POPC   C1B 3622   3.094   1.711   4.485  0.1092 -0.1489  0.1099
  261POPC   C2B 3623   2.994   1.394   4.817  0.3130 -0.2032  0.1827
  261POPC   C3B 3624   2.927   1.306   5.231 -0.2413 -0.1369 -0.0290
  261POPC   C4B 3625   2.940   1.087   5.517  0.1236 -0.1669  0.0302
  262POPC   NC3 3626   9.794   1.890   4.628 -0.1426  0.2037 -0.1871
  262POPC   PO4 3627   9.392   2.086   4.742 -0.0644 -0.0311 -0.0801
  262POPC   GL1 3628   9.467   2.030   5.143 -0.2460  0.2570 -0.4891
  262POPC   GL2 3629   9.733   1.948   5.124 -0.0708  0.1599 -0.0185
  262POPC   C1A 3630   9.364   2.277   5.526  0.2782  0.0717  0.0229
  262POPC   D2A 3631   9.208   2.290   5.930 -0.1469 -0.1242  0.0004
  262POPC   C3A 3632   9.320   2.040   6.273  0.0721  0.0527 -0.2640
  262POPC   C4A 3633   9.492   2.284   6.659  0.0648 -0.2270  0.1622
  262POPC   C1B 3634   9.705   1.604   5.380 -0.1188  0.1163  0.0565
  262POPC   C2B 3635  10.008   1.316   5.422 -0.0534 -0.1069  0.2688
  262POPC   C3B 3636  10.195   1.285   5.850  0.0522 -0.1047  0.0817
  262POPC   C4B 3637  10.027   1.002   6.112  0.1164 -0.0302  0.3245
  263POPC   NC3 3638   5.810   4.685   5.145 -0.0421 -0.1318 -0.3268
  263POPC   PO4 3639   5.444   4.598   5.374 -0.2646  0.0778  0.0762
  263POPC   GL1 3640   4.991   4.385   5.418  0.1506  0.0505  0.0685
  263POPC   GL2 3641   5.091   4.395   5.706 -0.3062 -0.2839 -0.1758
  263POPC   C1A 3642   4.684   4.117   5.551 -0.1205  0.0624 -0.1872
  263POPC   D2A 3643   4.638   3.968   5.989  0.0753  0.2197 -0.0209
  263POPC   C3A 3644   4.933   3.546   6.044  0.0086  0.0331 -0.3047
  263POPC   C4A 3645   5.227   3.412   5.788  0.0195  0.2484  0.1498
  263POPC   C1B 3646   5.147   4.365   6.117  0.1245  0.1855 -0.1637
  263POPC   C2B 3647   5.178   4.112   6.476 -0.0205 -0.2231  0.0496
  263POPC   C3B 3648   5.223   4.151   6.936  0.0098  0.3121  0.1199
  263POPC   C4B 3649   5.223   4.380   7.337 -0.2145  0.0032 -0.1966
  264POPC   NC3 3650   9.511   6.406   5.035  0.0011  0.1223 -0.0326
  264POPC   PO4 3651   9.162   6.424   5.024  0.2690  0.0595  0.3876
  264POPC   GL1 3652   9.142   6.613   5.421  0.0805  0.1892 -0.0815
  264POPC   GL2 3653   8.987   6.879   5.420 -0.0639 -0.0288 -0.0370
  264POPC   C1A 3654   8.842   6.576   5.751  0.1113 -0.3441  0.0165
  264POPC   D2A 3655   8.855   6.813   6.214  0.0462 -0.0490 -0.0123
  264POPC   C3A 3656   8.821   6.989   6.581 -0.0218  0.0260  0.2747
  264POPC   C4A 3657   8.853   7.285   6.994 -0.0248 -0.2332 -0.1734
  264POPC   C1B 3658   9.323   7.054   5.585  0.1089 -0.0251 -0.2732
  264POPC   C2B 3659   9.253   7.221   5.942 -0.3003 -0.2276  0.4698
  264POPC   C3B 3660   9.209   7.224   6.438 -0.2679 -0.1228 -0.2055
  264POPC   C4B 3661   9.341   7.255   6.838  0.2349  0.0800 -0.1627
  265POPC   NC3 3662   3.519   5.029   4.326 -0.1750 -0.0079 -0.0576
  265POPC   PO4 3663   3.524   4.612   4.384 -0.0711 -0.1621 -0.2111
  265POPC   GL1 3664   3.508   4.670   4.809 -0.0813  0.1819 -0.3635
  265POPC   GL2 3665   3.286   4.812   4.753 -0.0373 -0.1544  0.2243
  265POPC   C1A 3666   3.731   4.762   5.204 -0.2417  0.0931  0.0634
  265POPC   D2A 3667   3.856   4.847   5.590 -0.0544 -0.1047  0.1562
  265POPC   C3A 3668   4.136   4.555   5.741  0.1118 -0.0526 -0.2254
  265POPC   C4A 3669   4.229   4.233   5.779  0.0484  0.1667 -0.0696
  265POPC   C1B 3670   3.051   4.846   5.107 -0.2279 -0.5572 -0.0204
  265POPC   C2B 3671   2.818   4.770   5.460  0.0361  0.1401  0.0614
  265POPC   C3B 3672   2.811   4.600   5.855 -0.2898  0.2785  0.4963
  265POPC   C4B 3673   2.650   4.290   6.205 -0.0656  0.0118 -0.3986
  266POPC   NC3 3674   8.833   2.350   4.760 -0.4336  0.0322  0.2431
  266POPC   PO4 3675   8.541   2.647   4.921 -0.3055  0.0798  0.2119
  266POPC   GL1 3676   8.428   2.505   5.254 -0.2522  0.1099  0.0988
  266POPC   GL2 3677   8.063   2.369   5.256  0.1037  0.1295  0.0257
  266POPC   C1A 3678   8.543   2.579   5.750 -0.0561 -0.1726 -0.2173
  266POPC   D2A 3679   8.273   2.596   6.151 -0.4376 -0.2474 -0.2221
  266POPC   C3A 3680   8.399   2.629   6.561 -0.0911 -0.4275  0.0608
  266POPC   C4A 3681   8.575   2.865   6.889 -0.1786  0.4254 -0.0216
  266POPC   C1B 3682   8.067   2.390   5.723  0.0494  0.0067  0.1471
  266POPC   C2B 3683   8.107   2.154   6.004 -0.0693  0.0100 -0.0902
  266POPC   C3B 3684   8.120   2.028   6.520  0.2024 -0.2867 -0.0770
  266POPC   C4B 3685   7.901   1.744   6.858  0.0662 -0.0527 -0.1884
  267POPC   NC3 3686   9.288   5.575   4.731  0.2843  0.0480  0.0921
  267POPC   PO4 3687   9.338   5.917   4.987  0.3684 -0.3765  0.2718
  267POPC   GL1 3688   9.341   6.007   5.319 -0.1898 -0.0292 -0.2338
  267POPC   GL2 3689   8.919   6.082   5.415 -0.0049  0.0457  0.3877
  267POPC   C1A 3690   9.357   6.168   5.718 -0.3993  0.1477  0.1432
  267POPC   D2A 3691   9.441   6.054   6.166 -0.0586  0.2181 -0.3398
  267POPC   C3A 3692   9.456   6.234   6.454 -0.0436 -0.4116 -0.0841
  267POPC   C4A 3693   9.755   6.381   6.834 -0.0761  0.0139 -0.0582
  267POPC   C1B 3694   9.000   5.747   5.622 -0.0801 -0.0863  0.0577
  267POPC   C2B 3695   9.166   5.381   5.873 -0.0121  0.1133 -0.0249
  267POPC   C3B 3696   9.677   5.294   5.819  0.1034  0.1354  0.0372
  267POPC   C4B 3697  10.122   5.244   5.945  0.0330 -0.3553  0.4193
  268POPC   NC3 3698   9.899   8.398   4.254 -0.1152 -0.1327 -0.0481
  268POPC   PO4 3699   9.510   8.158   4.430 -0.2799  0.1196 -0.3614
  268POPC   GL1 3700   9.447   8.204   4.936  0.0882  0.2330 -0.0781
  268POPC   GL2 3701   9.617   7.892   5.098  0.3506 -0.0689  0.0935
  268POPC   C1A 3702   9.515   8.250   5.468 -0.3393  0.1816 -0.1784
  268POPC   D2A 3703   9.387   8.124   5.856 -0.0256  0.0134 -0.0096
  268POPC   C3A 3704   9.358   8.305   6.196 -0.1742 -0.3241  0.1351
  268POPC   C4A 3705   9.413   8.087   6.561 -0.2443 -0.1369  0.2553
  268POPC   C1B 3706   9.941   7.947   5.457 -0.3034 -0.1833  0.0340
  268POPC   C2B 3707   9.916   7.668   5.791  0.1948 -0.1919 -0.0677
  268POPC   C3B 3708  10.096   7.490   6.099  0.2648 -0.2658  0.0766
  268POPC   C4B 3709  10.373   7.403   6.433  0.3943 -0.0759  0.1242
  269POPC   NC3 3710   6.910   8.652   4.332  0.0114 -0.3713 -0.2061
  269POPC   PO4 3711   6.753   8.680   4.753 -0.0877  0.0790  0.1928
  269POPC   GL1 3712   6.602   8.516   5.095  0.0085 -0.2477 -0.3184
  269POPC   GL2 3713   6.302   8.443   4.974 -0.2367 -0.0128  0.2199
  269POPC   C1A 3714   6.380   8.591   5.492  0.0137  0.4596  0.0090
  269POPC   D2A 3715   6.374   8.470   5.914 -0.2146 -0.0688  0.0248
  269POPC   C3A 3716   6.097   8.556   6.197  0.0543  0.0740  0.0666
  269POPC   C4A 3717   5.721   8.795   6.154 -0.1703  0.1121  0.0957
  269POPC   C1B 3718   5.928   8.664   5.285 -0.5563 -0.0294  0.1186
  269POPC   C2B 3719   5.971   8.851   5.759  0.1010 -0.1600 -0.2208
  269POPC   C3B 3720   6.334   8.968   6.015 -0.1567 -0.2337  0.4136
  269POPC   C4B 3721   6.727   8.903   6.253 -0.3517  0.1414  0.0161
  270POPC   NC3 3722   5.628   6.909   4.303 -0.3476  0.2038 -0.0378
  270POPC   PO4 3723   5.806   6.839   4.646 -0.1753  0.1332 -0.2496
  270POPC   GL1 3724   5.622   6.833   5.142 -0.0347  0.0239  0.0645
  270POPC   GL2 3725   5.305   6.804   5.146  0.2669  0.1255 -0.1009
  270POPC   C1A 3726   5.777   6.931   5.650  0.1303 -0.2864  0.1344
  270POPC   D2A 3727   5.883   6.868   6.090 -0.2105  0.1590 -0.1049
  270POPC   C3A 3728   5.961   6.504   6.149  0.1933 -0.3714  0.2777
  270POPC   C4A 3729   5.839   6.129   6.446 -0.1852 -0.0234 -0.0232
  270POPC   C1B 3730   5.225   7.067   5.501  0.1904 -0.0236  0.1137
  270POPC   C2B 3731   4.900   7.036   5.742  0.0430  0.2302  0.0317
  270POPC   C3B 3732   4.886   6.990   6.166 -0.0238  0.0074 -0.0155
  270POPC   C4B 3733   4.900   7.160   6.489  0.4528  0.0119 -0.1028
  271POPC   NC3 3734   8.086   2.649   4.841  0.1357 -0.1347  0.2116
  271POPC   PO4 3735   7.810   2.847   5.018 -0.0054 -0.1403  0.0876
  271POPC   GL1 3736   7.759   2.716   5.400 -0.1108  0.0378  0.0027
  271POPC   GL2 3737   7.887   2.845   5.718 -0.0215  0.1788  0.4397
  271POPC   C1A 3738   7.555   2.322   5.622 -0.1765  0.2819 -0.1151
  271POPC   D2A 3739   7.620   1.963   5.851 -0.2987 -0.0203  0.0117
  271POPC   C3A 3740   7.258   1.723   5.917 -0.2562 -0.1183  0.4054
  271POPC   C4A 3741   7.030   1.745   6.221  0.1590 -0.0090  0.0591
  271POPC   C1B 3742   7.785   2.891   6.036 -0.0727  0.0362 -0.2132
  271POPC   C2B 3743   7.877   2.657   6.543  0.3280 -0.1452 -0.0768
  271POPC   C3B 3744   7.741   2.251   6.809  0.0045  0.1043 -0.0870
  271POPC   C4B 3745   7.630   2.454   7.186 -0.3718  0.1672 -0.2344
  272POPC   NC3 3746   3.699   1.592   3.562 -0.2000  0.1020  0.0374
  272POPC   PO4 3747   3.618   1.434   3.919 -0.2142  0.0031 -0.0205
  272POPC   GL1 3748   3.722   1.348   4.258 -0.1221  0.1961  0.0694
  272POPC   GL2 3749   3.928   1.616   4.284 -0.2964  0.4594  0.3098
  272POPC   C1A 3750   3.814   1.047   4.509  0.2264  0.5991  0.0181
  272POPC   D2A 3751   3.858   0.569   4.532 -0.1108  0.0669  0.2250
  272POPC   C3A 3752   3.708   0.336   4.904 -0.1771 -0.0124  0.1200
  272POPC   C4A 3753   3.364   0.376   5.160 -0.3682  0.0337  0.0386
  272POPC   C1B 3754   3.569   1.599   4.613 -0.1881 -0.0360  0.0083
  272POPC   C2B 3755   3.403   1.564   4.975 -0.1562 -0.0864 -0.0929
  272POPC   C3B 3756   3.371   1.412   5.459 -0.1240 -0.2532 -0.0649
  272POPC   C4B 3757   3.498   1.077   5.456  0.6443 -0.0272 -0.2984
  273POPC   NC3 3758   2.487   0.834   3.547  0.0958  0.0685 -0.0614
  273POPC   PO4 3759   2.316   0.361   3.444 -0.2585  0.1757 -0.0158
  273POPC   GL1 3760   2.418   0.335   3.967  0.1565 -0.0052  0.0443
  273POPC   GL2 3761   2.270   0.652   4.048 -0.0786  0.3730  0.1916
  273POPC   C1A 3762   2.512   0.337   4.337 -0.2227 -0.1009  0.2078
  273POPC   D2A 3763   2.544   0.082   4.774  0.3726 -0.1788 -0.3054
  273POPC   C3A 3764   2.452   0.242   5.158 -0.4625  0.0867 -0.4105
  273POPC   C4A 3765   2.310   0.579   5.274  0.2881  0.1685 -0.1168
  273POPC   C1B 3766   2.277   0.747   4.477  0.2689  0.0662 -0.1667
  273POPC   C2B 3767   2.142   0.762   4.822  0.1758  0.3585 -0.0826
  273POPC   C3B 3768   2.206   1.012   5.149  0.0369 -0.1586 -0.2578
  273POPC   C4B 3769   2.446   1.052   5.413  0.0651 -0.1393  0.1540
  274POPC   NC3 3770   9.981   7.048   4.812 -0.2016  0.1021 -0.1123
  274POPC   PO4 3771   9.948   6.576   4.825  0.2434 -0.2487  0.0960
  274POPC   GL1 3772   9.937   6.471   5.278  0.3396 -0.0522  0.0806
  274POPC   GL2 3773   9.876   6.073   5.399  0.2844  0.1548  0.2109
  274POPC   C1A 3774   9.629   6.561   5.704 -0.0880 -0.0919 -0.2447
  274POPC   D2A 3775   9.525   6.760   6.073  0.3033  0.0829 -0.0335
  274POPC   C3A 3776   9.242   6.508   6.138  0.1314 -0.2979 -0.1425
  274POPC   C4A 3777   8.968   6.370   6.508 -0.2144 -0.0573  0.1398
  274POPC   C1B 3778  10.059   6.291   5.770 -0.2312  0.3384  0.0863
  274POPC   C2B 3779   9.934   6.389   6.179  0.2622  0.2807  0.1709
  274POPC   C3B 3780  10.081   6.653   6.507 -0.3725  0.1779  0.0729
  274POPC   C4B 3781  10.398   6.967   6.592 -0.1016 -0.1495  0.0812
  275POPC   NC3 3782   4.556   9.403   3.428 -0.1089 -0.2254  0.0661
  275POPC   PO4 3783   4.644   9.872   3.472  0.1492  0.1662  0.2254
  275POPC   GL1 3784   4.737  10.030   3.842  0.0802  0.0646  0.1298
  275POPC   GL2 3785   4.445  10.070   3.974 -0.2140 -0.4198  0.0911
  275POPC   C1A 3786   4.844  10.304   4.228  0.1880  0.0443 -0.0700
  275POPC   D2A 3787   4.757  10.284   4.671 -0.0404 -0.2052  0.2009
  275POPC   C3A 3788   4.835  10.132   5.038 -0.0063 -0.0427 -0.4314
  275POPC   C4A 3789   5.167   9.969   5.320 -0.4385 -0.1784 -0.1176
  275POPC   C1B 3790   4.360  10.434   4.239  0.3411  0.0755  0.0624
  275POPC   C2B 3791   4.284  10.940   4.307 -0.3892  0.1940  0.0666
  275POPC   C3B 3792   4.316  11.081   4.715  0.0561 -0.4895 -0.2808
  275POPC   C4B 3793   4.140  11.039   4.951 -0.1471  0.4561  0.2479
  276POPC   NC3 3794   9.508   2.497   4.898  0.0067 -0.3955 -0.0929
  276POPC   PO4 3795   9.083   2.697   5.005  0.0197 -0.0914  0.1496
  276POPC   GL1 3796   9.322   2.752   5.335 -0.1942 -0.2133 -0.2166
  276POPC   GL2 3797   9.231   2.983   5.464 -0.0664  0.1998  0.0059
  276POPC   C1A 3798   9.661   2.720   5.607 -0.1518 -0.1155 -0.0496
  276POPC   D2A 3799  10.074   2.760   5.678  0.1016  0.1444  0.1240
  276POPC   C3A 3800  10.310   2.502   6.076 -0.0931 -0.0422  0.0218
  276POPC   C4A 3801  10.112   2.324   6.346  0.0166  0.0190 -0.2188
  276POPC   C1B 3802   9.184   2.870   5.891 -0.1239  0.1019 -0.0653
  276POPC   C2B 3803   8.914   2.676   6.181 -0.0920 -0.1467 -0.0004
  276POPC   C3B 3804   8.797   2.904   6.494 -0.4194  0.0372 -0.1058
  276POPC   C4B 3805   8.549   3.255   6.610 -0.1967 -0.2068 -0.1042
  277POPC   NC3 3806   8.458   7.961   4.994 -0.1769 -0.4317  0.1467
  277POPC   PO4 3807   8.750   7.539   4.768 -0.0161  0.0621  0.0526
  277POPC   GL1 3808   8.543   7.494   5.299 -0.1296  0.2132 -0.0511
  277POPC   GL2 3809   8.610   7.240   5.407 -0.1280  0.0139  0.2038
  277POPC   C1A 3810   8.509   7.593   5.721  0.2913 -0.1547 -0.1088
  277POPC   D2A 3811   8.574   7.846   6.209 -0.0547 -0.3957  0.0393
  277POPC   C3A 3812   8.902   8.143   6.400 -0.3878  0.2400 -0.2719
  277POPC   C4A 3813   8.997   8.525   6.407  0.4067 -0.1535 -0.0919
  277POPC   C1B 3814   8.708   7.152   5.871 -0.0679 -0.1399  0.1070
  277POPC   C2B 3815   8.714   7.393   6.256  0.0027 -0.0541 -0.0880
  277POPC   C3B 3816   8.677   7.596   6.620 -0.1003 -0.1032 -0.1852
  277POPC   C4B 3817   8.467   7.732   7.072  0.3104 -0.1015 -0.2774
  278POPC   NC3 3818   6.925   8.217   4.747 -0.1344  0.1622  0.1346
  278POPC   PO4 3819   7.307   8.516   4.636  0.0311  0.1399  0.0428
  278POPC   GL1 3820   7.143   8.618   5.108  0.1439  0.5855  0.1567
  278POPC   GL2 3821   7.196   8.327   5.267  0.1889 -0.1263 -0.1114
  278POPC   C1A 3822   7.156   8.786   5.535  0.1749  0.4102 -0.1124
  278POPC   D2A 3823   7.150   8.918   5.934 -0.1478 -0.2147  0.2075
  278POPC   C3A 3824   7.261   8.714   6.273  0.0595 -0.0971 -0.2435
  278POPC   C4A 3825   7.511   8.833   6.603  0.0358  0.0709 -0.0398
  278POPC   C1B 3826   6.848   8.240   5.508 -0.1408 -0.1826 -0.2669
  278POPC   C2B 3827   6.705   8.143   6.040 -0.4221 -0.1060  0.2787
  278POPC   C3B 3828   6.591   8.384   6.423 -0.2026  0.0339 -0.1679
  278POPC   C4B 3829   6.510   8.648   6.784 -0.0461  0.0978 -0.2191
  279POPC   NC3 3830   9.870   0.538   4.554  0.0806  0.0574  0.1030
  279POPC   PO4 3831  10.378   0.552   4.736 -0.1629 -0.1197  0.1076
  279POPC   GL1 3832  10.351   0.431   5.133 -0.0157 -0.3375  0.2323
  279POPC   GL2 3833  10.005   0.476   5.350 -0.2052 -0.2103 -0.4106
  279POPC   C1A 3834  10.389   0.203   5.451 -0.1444  0.2401  0.1785
  279POPC   D2A 3835  10.490   0.055   5.831  0.0074 -0.0392  0.0331
  279POPC   C3A 3836  10.376   0.255   6.091 -0.1487 -0.0467 -0.0748
  279POPC   C4A 3837  10.112   0.469   6.354 -0.0896 -0.0367 -0.2672
  279POPC   C1B 3838  10.126   0.821   5.611  0.0781  0.2536 -0.2002
  279POPC   C2B 3839  10.426   0.778   5.894  0.1267 -0.1955  0.1299
  279POPC   C3B 3840  10.654   0.619   6.332 -0.0237  0.1942  0.2513
  279POPC   C4B 3841  10.938   0.677   6.609 -0.0558  0.2417 -0.1121
  280POPC   NC3 3842   6.723   1.147   4.031 -0.1185  0.2074  0.1005
  280POPC   PO4 3843   6.482   1.491   3.976  0.0290 -0.2255 -0.0694
  280POPC   GL1 3844   6.463   1.443   4.450 -0.0991 -0.2176 -0.0512
  280POPC   GL2 3845   6.388   1.735   4.594 -0.1114  0.0209  0.0754
  280POPC   C1A 3846   6.544   0.964   4.680 -0.0787 -0.0185  0.0374
  280POPC   D2A 3847   6.547   0.629   5.010 -0.0175 -0.1581 -0.1542
  280POPC   C3A 3848   6.500   0.963   5.443 -0.1814 -0.0282  0.2028
  280POPC   C4A 3849   6.197   1.303   5.272  0.0261 -0.4311 -0.1417
  280POPC   C1B 3850   6.167   1.921   4.792  0.0031 -0.0219  0.0732
  280POPC   C2B 3851   6.142   1.799   5.218 -0.3068 -0.0101 -0.1804
  280POPC   C3B 3852   6.457   1.705   5.509 -0.3425  0.1848  0.0343
  280POPC   C4B 3853   6.808   1.461   5.501  0.2666 -0.1116  0.1565
  281POPC   NC3 3854   2.263   2.521   3.669  0.0230 -0.0479 -0.1725
  281POPC   PO4 3855   2.315   2.588   4.176  0.2339  0.0874  0.1333
  281POPC   GL1 3856   2.359   2.296   4.541  0.2225 -0.0980 -0.1414
  281POPC   GL2 3857   2.138   2.045   4.514  0.1778 -0.0351 -0.0569
  281POPC   C1A 3858   2.557   2.110   4.863  0.2634  0.2001 -0.0420
  281POPC   D2A 3859   2.934   1.920   5.017  0.2001 -0.1036 -0.0457
  281POPC   C3A 3860   3.305   2.047   4.865  0.6011 -0.0161 -0.1278
  281POPC   C4A 3861   3.627   2.143   4.561 -0.1140  0.0254  0.1319
  281POPC   C1B 3862   2.032   1.818   4.900 -0.2627 -0.4380  0.0016
  281POPC   C2B 3863   1.890   1.955   5.304  0.2506  0.0429 -0.0278
  281POPC   C3B 3864   1.872   2.083   5.765 -0.1143 -0.1073 -0.1565
  281POPC   C4B 3865   1.950   2.011   6.164 -0.1227  0.0511  0.2154
  282POPC   NC3 3866   0.798   4.094   4.842 -0.2215 -0.1860  0.3743
  282POPC   PO4 3867   0.410   4.097   4.736 -0.3051  0.1400 -0.0592
  282POPC   GL1 3868   0.336   4.141   5.112  0.2923 -0.0868 -0.0526
  282POPC   GL2 3869   0.238   3.891   5.458  0.0024  0.0530  0.1252
  282POPC   C1A 3870   0.285   4.480   5.447 -0.1273  0.0223 -0.4468
  282POPC   D2A 3871   0.677   4.670   5.679 -0.1001 -0.0109 -0.3376
  282POPC   C3A 3872   0.800   4.727   6.114 -0.0428 -0.1439  0.1923
  282POPC   C4A 3873   0.748   4.413   6.479  0.4352  0.0247  0.3470
  282POPC   C1B 3874   0.022   4.127   5.696 -0.2195 -0.0282 -0.1753
  282POPC   C2B 3875  -0.217   4.447   6.060 -0.0375 -0.2399  0.0650
  282POPC   C3B 3876  -0.140   4.668   6.389  0.1419 -0.3275  0.1307
  282POPC   C4B 3877  -0.281   4.618   6.716  0.0549  0.0067  0.2107
  283POPC   NC3 3878   2.543   7.689   4.047  0.0063  0.2233  0.1639
  283POPC   PO4 3879   2.172   7.875   4.312  0.0318  0.1746  0.0141
  283POPC   GL1 3880   2.354   7.832   4.749 -0.1585  0.3673  0.1271
  283POPC   GL2 3881   2.044   7.837   4.987 -0.3094  0.0239  0.0807
  283POPC   C1A 3882   2.517   7.882   5.189  0.1368  0.1588  0.1172
  283POPC   D2A 3883   2.393   8.036   5.582 -0.2052  0.1548  0.0855
  283POPC   C3A 3884   2.624   8.116   5.972 -0.0762  0.3844 -0.2469
  283POPC   C4A 3885   2.943   8.191   6.328  0.1969  0.0434  0.0151
  283POPC   C1B 3886   2.105   7.535   5.322  0.1542  0.1027  0.2634
  283POPC   C2B 3887   2.262   7.587   5.771 -0.0586  0.0238 -0.0474
  283POPC   C3B 3888   2.625   7.630   6.044 -0.0711  0.0821 -0.1199
  283POPC   C4B 3889   2.827   7.699   6.418  0.1075 -0.0065  0.3483
  284POPC   NC3 3890   4.423   8.071   4.247  0.1982 -0.0676 -0.0396
  284POPC   PO4 3891   4.663   7.760   4.438 -0.1763  0.0437  0.3814
  284POPC   GL1 3892   4.771   7.874   4.873  0.0529  0.2998  0.1922
  284POPC   GL2 3893   4.994   7.756   5.111 -0.2164  0.3269 -0.0035
  284POPC   C1A 3894   4.492   7.943   5.196 -0.0105 -0.2459 -0.1932
  284POPC   D2A 3895   4.420   8.207   5.489  0.0210 -0.0505 -0.1776
  284POPC   C3A 3896   4.582   8.282   5.880  0.2344  0.2691 -0.1808
  284POPC   C4A 3897   4.922   8.196   6.323  0.1996 -0.0316 -0.3985
  284POPC   C1B 3898   4.937   8.058   5.428 -0.1660  0.0277 -0.2502
  284POPC   C2B 3899   5.044   8.203   5.740 -0.0962  0.1174  0.1620
  284POPC   C3B 3900   5.275   8.513   6.097  0.0773  0.1123 -0.4639
  284POPC   C4B 3901   5.208   8.912   6.123  0.0246  0.0227 -0.2386
  285POPC   NC3 3902   7.714   0.505   4.524 -0.1416 -0.0366 -0.0312
  285POPC   PO4 3903   8.122   0.525   4.591  0.0931  0.2698 -0.2792
  285POPC   GL1 3904   7.945   0.622   4.978  0.4895 -0.4035 -0.2245
  285POPC   GL2 3905   7.644   0.444   5.074  0.1206 -0.2707  0.3486
  285POPC   C1A 3906   8.019   0.448   5.424 -0.2134  0.0771 -0.0030
  285POPC   D2A 3907   8.264   0.345   5.582  0.3815  0.4021 -0.0318
  285POPC   C3A 3908   7.980   0.184   5.925 -0.0277  0.1198  0.3147
  285POPC   C4A 3909   8.036   0.185   6.409 -0.1784  0.1167 -0.1646
  285POPC   C1B 3910   7.438   0.549   5.442  0.1700 -0.1638 -0.0666
  285POPC   C2B 3911   7.204   0.695   5.872 -0.1519 -0.1142  0.3919
  285POPC   C3B 3912   7.045   0.743   6.282 -0.0906  0.0490 -0.1137
  285POPC   C4B 3913   7.378   0.740   6.635  0.0199 -0.1508  0.1118
  286POPC   NC3 3914   2.565   8.548   4.264 -0.2211  0.3271 -0.0134
  286POPC   PO4 3915   2.986   8.666   4.191  0.1735 -0.0041 -0.0643
  286POPC   GL1 3916   2.952   8.703   4.627 -0.0665  0.0108  0.0475
  286POPC   GL2 3917   3.204   8.488   4.743 -0.3166  0.0869  0.1890
  286POPC   C1A 3918   3.277   8.897   4.994  0.0588  0.1206  0.0664
  286POPC   D2A 3919   3.078   9.117   5.327 -0.1137  0.2430  0.0159
  286POPC   C3A 3920   3.086   8.923   5.742 -0.3689 -0.2513 -0.0536
  286POPC   C4A 3921   2.955   9.095   6.052  0.2959  0.2107  0.0990
  286POPC   C1B 3922   3.569   8.491   5.037  0.1189 -0.3141  0.0275
  286POPC   C2B 3923   3.806   8.423   5.309  0.0367 -0.0946  0.1606
  286POPC   C3B 3924   3.904   8.417   5.738  0.2967 -0.0811  0.0070
  286POPC   C4B 3925   4.130   8.348   6.080  0.3329 -0.3563 -0.2834
  287POPC   NC3 3926   9.595   1.087   4.970  0.1235  0.1652 -0.1029
  287POPC   PO4 3927   9.957   0.845   4.971  0.1272 -0.3168  0.2889
  287POPC   GL1 3928   9.621   0.786   5.358 -0.3358 -0.3215  0.4243
  287POPC   GL2 3929   9.475   0.614   5.391 -0.0331  0.3260 -0.0310
  287POPC   C1A 3930   9.719   0.575   5.864  0.1252  0.1940  0.2006
  287POPC   D2A 3931   9.982   0.234   5.832 -0.0435  0.0516 -0.0322
  287POPC   C3A 3932  10.063  -0.096   6.288  0.2492  0.1470 -0.0276
  287POPC   C4A 3933  10.175  -0.189   6.701  0.0732 -0.0540  0.1337
  287POPC   C1B 3934   9.229   0.497   5.905 -0.0261 -0.0183 -0.1189
  287POPC   C2B 3935   9.051   0.610   6.347  0.1574  0.0765 -0.0675
  287POPC   C3B 3936   8.713   0.818   6.373  0.0490 -0.0487 -0.3078
  287POPC   C4B 3937   8.379   1.086   6.573  0.0214 -0.0165 -0.1534
  288POPC   NC3 3938   6.705   6.418   4.629 -0.0122 -0.1587 -0.1972
  288POPC   PO4 3939   6.837   6.578   5.057  0.4049  0.2213  0.1747
  288POPC   GL1 3940   7.000   6.253   5.431  0.0842 -0.4246 -0.2294
  288POPC   GL2 3941   6.795   5.972   5.535  0.2606  0.0983  0.1994
  288POPC   C1A 3942   7.014   6.386   5.945  0.0730 -0.0928 -0.1038
  288POPC   D2A 3943   7.091   6.518   6.358 -0.1185 -0.1780  0.1217
  288POPC   C3A 3944   6.825   6.770   6.585 -0.3803  0.1480  0.0443
  288POPC   C4A 3945   6.442   6.858   6.863  0.1095 -0.3288  0.0352
  288POPC   C1B 3946   7.162   5.930   5.747 -0.0163  0.1855  0.0384
  288POPC   C2B 3947   7.249   5.694   6.095 -0.0796  0.0722  0.0439
  288POPC   C3B 3948   7.063   5.405   6.370  0.0314  0.1065  0.1582
  288POPC   C4B 3949   7.141   5.374   6.941  0.1713  0.1485 -0.0320
  289POPC   NC3 3950   0.227   6.020   4.832 -0.1322  0.0190 -0.1079
  289POPC   PO4 3951   0.318   6.466   4.915  0.1827  0.4261 -0.1701
  289POPC   GL1 3952   0.539   6.572   5.188  0.2636  0.1371 -0.0042
  289POPC   GL2 3953   0.451   6.790   5.281  0.0444  0.3335  0.0512
  289POPC   C1A 3954   0.681   6.353   5.506 -0.0517  0.2480  0.0116
  289POPC   D2A 3955   0.835   6.117   5.841  0.1163 -0.1973 -0.0562
  289POPC   C3A 3956   1.052   6.370   6.217  0.0402  0.1734 -0.4324
  289POPC   C4A 3957   0.841   6.489   6.572 -0.0905  0.0824 -0.0386
  289POPC   C1B 3958   0.606   6.886   5.772  0.1252 -0.0086 -0.0317
  289POPC   C2B 3959   0.645   6.752   6.199  0.1142 -0.3114 -0.2797
  289POPC   C3B 3960   0.371   6.734   6.591  0.2049  0.0242  0.3319
  289POPC   C4B 3961   0.544   6.768   6.938 -0.1053 -0.0502  0.0142
  290POPC   NC3 3962   0.836   6.437   4.805  0.0108  0.2870 -0.2400
  290POPC   PO4 3963   0.809   6.849   4.878 -0.0617 -0.0060 -0.1159
  290POPC   GL1 3964   0.963   6.773   5.288 -0.1192 -0.2280  0.2385
  290POPC   GL2 3965   1.289   6.993   5.278 -0.2054  0.0871 -0.0209
  290POPC   C1A 3966   1.070   6.555   5.717  0.0126  0.2357 -0.0428
  290POPC   D2A 3967   1.416   6.722   6.114  0.0190 -0.0493 -0.1078
  290POPC   C3A 3968   1.520   6.252   6.327 -0.1156  0.2391  0.0963
  290POPC   C4A 3969   1.609   5.894   6.530  0.0503  0.0314  0.1771
  290POPC   C1B 3970   1.244   7.038   5.660 -0.1436 -0.0017  0.1925
  290POPC   C2B 3971   1.378   7.234   6.099  0.0222  0.1434  0.0440
  290POPC   C3B 3972   1.599   7.523   6.414 -0.6606 -0.0984  0.1436
  290POPC   C4B 3973   1.678   7.962   6.394 -0.0205 -0.2412  0.0750
  291POPC   NC3 3974   8.678   0.835   4.649 -0.0684  0.0770  0.0781
  291POPC   PO4 3975   9.148   0.980   4.717 -0.1492  0.3164  0.0840
  291POPC   GL1 3976   9.117   0.837   5.123  0.0110 -0.2218  0.2108
  291POPC   GL2 3977   8.842   0.675   5.179  0.1293  0.2861 -0.0629
  291POPC   C1A 3978   9.197   0.879   5.585 -0.2025 -0.2178 -0.2970
  291POPC   D2A 3979   9.259   1.001   6.007 -0.1928  0.3020 -0.1153
  291POPC   C3A 3980   9.590   1.158   6.215 -0.0546 -0.1064 -0.1485
  291POPC   C4A 3981   9.754   1.387   6.667 -0.1251 -0.1290 -0.1600
  291POPC   C1B 3982   8.759   1.082   5.472  0.3728  0.5128  0.3265
  291POPC   C2B 3983   8.686   1.110   5.933  0.0766 -0.3569 -0.1332
  291POPC   C3B 3984   8.777   1.333   6.340  0.0412 -0.1430 -0.1144
  291POPC   C4B 3985   8.931   1.800   6.589  0.0883 -0.0154  0.1571
  292POPC   NC3 3986   1.449   4.602   4.168  0.2625 -0.1227 -0.0321
  292POPC   PO4 3987   1.569   4.691   4.627 -0.0302  0.0606 -0.3376
  292POPC   GL1 3988   1.783   4.610   5.008  0.0212  0.0105  0.0410
  292POPC   GL2 3989   1.878   4.291   4.887 -0.1039 -0.0490 -0.1177
  292POPC   C1A 3990   1.896   4.675   5.486  0.0952  0.0987  0.1055
  292POPC   D2A 3991   1.979   4.951   5.818  0.3545 -0.1514 -0.0133
  292POPC   C3A 3992   1.976   5.350   5.901 -0.0464  0.0146 -0.2227
  292POPC   C4A 3993   1.783   5.453   6.313  0.1630  0.1783  0.1983
  292POPC   C1B 3994   2.065   4.308   5.299  0.0095 -0.0918  0.1074
  292POPC   C2B 3995   2.383   4.292   5.482  0.1005  0.1763 -0.1952
  292POPC   C3B 3996   2.525   3.964   5.820 -0.1269 -0.1343  0.0911
  292POPC   C4B 3997   2.713   3.713   6.075 -0.1556  0.1511 -0.2816
  293POPC   NC3 3998   9.962   0.245   4.941 -0.1342  0.0945  0.0909
  293POPC   PO4 3999   9.618   0.142   4.714 -0.0124  0.0877 -0.1344
  293POPC   GL1 4000   9.270   0.197   5.084 -0.0670 -0.1172 -0.0168
  293POPC   GL2 4001   8.893   0.081   5.063 -0.1969  0.3038 -0.2567
  293POPC   C1A 4002   9.050   0.433   5.476  0.0702  0.3592 -0.1559
  293POPC   D2A 4003   8.761   0.584   5.779 -0.0396 -0.1376 -0.1141
  293POPC   C3A 4004   8.552   0.327   6.038  0.2295  0.0500 -0.1420
  293POPC   C4A 4005   8.449  -0.109   6.180  0.0310 -0.1999  0.2290
  293POPC   C1B 4006   8.741  -0.028   5.477  0.2419  0.0735 -0.0191
  293POPC   C2B 4007   8.958   0.066   5.889  0.0024 -0.0081 -0.0789
  293POPC   C3B 4008   9.181   0.097   6.300  0.2016 -0.2379  0.2670
  293POPC   C4B 4009   9.359  -0.118   6.546  0.0125  0.0565 -0.3921
  294POPC   NC3 4010   2.918   9.116   3.641 -0.1345 -0.0308 -0.0356
  294POPC   PO4 4011   2.787   9.122   3.999 -0.0211 -0.0356  0.0363
  294POPC   GL1 4012   3.010   9.224   4.358  0.1695 -0.0507 -0.1586
  294POPC   GL2 4013   3.197   9.612   4.408 -0.0479  0.2161  0.2343
  294POPC   C1A 4014   3.006   9.276   4.741 -0.0321 -0.1281 -0.0765
  294POPC   D2A 4015   2.935   9.498   5.049  0.3564 -0.1067  0.1079
  294POPC   C3A 4016   3.140   9.626   5.453  0.2132 -0.2300 -0.0525
  294POPC   C4A 4017   3.231   9.433   5.815  0.0963  0.0617  0.0084
  294POPC   C1B 4018   3.235   9.815   4.721 -0.1674  0.0650 -0.1204
  294POPC   C2B 4019   3.282  10.058   5.174 -0.3719  0.0839 -0.0557
  294POPC   C3B 4020   3.210  10.252   5.550  0.0847  0.3700 -0.0830
  294POPC   C4B 4021   3.233  10.632   5.614 -0.1805  0.0038 -0.0324
  295POPC   NC3 4022   0.919   1.429   4.286  0.0833 -0.2779 -0.1746
  295POPC   PO4 4023   1.073   1.873   4.416 -0.1827 -0.2051 -0.0123
  295POPC   GL1 4024   0.988   1.652   4.818  0.0313 -0.0978 -0.2012
  295POPC   GL2 4025   1.228   1.518   4.730  0.4363  0.0920  0.1953
  295POPC   C1A 4026   1.002   1.937   5.282 -0.0563 -0.0582  0.1423
  295POPC   D2A 4027   1.300   2.141   5.361  0.0038  0.4690 -0.0565
  295POPC   C3A 4028   1.554   2.324   5.130 -0.0384  0.0013 -0.0766
  295POPC   C4A 4029   2.065   2.319   4.991  0.2444  0.0701  0.1158
  295POPC   C1B 4030   1.325   1.312   5.139 -0.0555  0.0522  0.0439
  295POPC   C2B 4031   1.422   1.148   5.475 -0.0608  0.1874 -0.0237
  295POPC   C3B 4032   1.532   1.297   5.805  0.2440 -0.0705  0.2471
  295POPC   C4B 4033   1.835   1.632   5.830 -0.1412 -0.4833 -0.3268
  296POPC   NC3 4034   5.483   3.516   4.087 -0.1636 -0.0945  0.0311
  296POPC   PO4 4035   5.296   3.562   4.513  0.2279  0.1151 -0.1960
  296POPC   GL1 4036   5.141   3.529   4.980  0.1110 -0.0348  0.0552
  296POPC   GL2 4037   4.854   3.491   5.086 -0.0307 -0.0265  0.1880
  296POPC   C1A 4038   5.414   3.255   5.334 -0.0994  0.2297 -0.4026
  296POPC   D2A 4039   5.733   3.240   5.808 -0.0830  0.3107  0.0659
  296POPC   C3A 4040   5.447   3.340   6.222 -0.2441  0.2409  0.2241
  296POPC   C4A 4041   5.202   3.339   6.468  0.0555  0.0076 -0.0319
  296POPC   C1B 4042   4.945   3.164   5.420  0.0103 -0.0514 -0.1253
  296POPC   C2B 4043   5.091   2.845   5.566 -0.2028 -0.0478  0.1063
  296POPC   C3B 4044   5.241   2.379   5.497  0.0042 -0.0781 -0.1602
  296POPC   C4B 4045   5.241   1.997   5.283  0.3157 -0.0872 -0.1091
  297POPC   NC3 4046   7.758   8.751   4.739 -0.1337 -0.2351 -0.4210
  297POPC   PO4 4047   7.642   9.079   4.505  0.0617 -0.1844  0.1650
  297POPC   GL1 4048   7.633   9.248   4.975 -0.1555 -0.1331  0.1752
  297POPC   GL2 4049   7.749   9.312   5.182 -0.3355  0.1336 -0.0278
  297POPC   C1A 4050   7.201   9.224   5.184  0.1352  0.0301 -0.0431
  297POPC   D2A 4051   7.284   9.219   5.597  0.0372 -0.2763 -0.1235
  297POPC   C3A 4052   7.642   9.074   5.728 -0.0938 -0.1800  0.1859
  297POPC   C4A 4053   7.752   9.039   6.145 -0.1325 -0.1594  0.1822
  297POPC   C1B 4054   7.705   9.592   5.537  0.3112  0.4932  0.3393
  297POPC   C2B 4055   7.642   9.976   5.569 -0.1103 -0.2716  0.1540
  297POPC   C3B 4056   7.508  10.026   5.954  0.2983 -0.1790 -0.0890
  297POPC   C4B 4057   7.174   9.892   6.185  0.2258 -0.1309 -0.3223
  298POPC   NC3 4058   6.166   6.653   5.013 -0.1668 -0.3563  0.4268
  298POPC   PO4 4059   6.098   7.137   5.111  0.1267  0.3004 -0.2099
  298POPC   GL1 4060   6.261   7.017   5.550  0.3260 -0.1574  0.1192
  298POPC   GL2 4061   6.254   7.268   5.762  0.2374 -0.2969  0.3746
  298POPC   C1A 4062   6.376   6.840   5.839 -0.1136 -0.2509 -0.2478
  298POPC   D2A 4063   6.504   6.561   6.214  0.0575  0.3661  0.1327
  298POPC   C3A 4064   6.231   6.491   6.552 -0.1057  0.2062 -0.2148
  298POPC   C4A 4065   6.131   6.421   6.935 -0.2129  0.1215  0.2280
  298POPC   C1B 4066   6.117   7.408   6.210 -0.0337 -0.3723 -0.1027
  298POPC   C2B 4067   6.001   7.744   6.525  0.0040  0.2398  0.2455
  298POPC   C3B 4068   5.810   7.953   6.786  0.2013 -0.0460 -0.0320
  298POPC   C4B 4069   5.892   8.171   7.197  0.1952 -0.2204 -0.1274
  299POPC   NC3 4070   4.680   6.508   4.406  0.1046  0.0869 -0.0273
  299POPC   PO4 4071   4.199   6.319   4.389  0.0733  0.0949  0.0293
  299POPC   GL1 4072   4.008   6.265   4.929 -0.1494  0.1398  0.2645
  299POPC   GL2 4073   3.705   6.410   5.080  0.0159  0.2010  0.0140
  299POPC   C1A 4074   4.001   5.903   5.177  0.0817  0.1949  0.0965
  299POPC   D2A 4075   3.839   5.761   5.538  0.0443  0.0984 -0.1046
  299POPC   C3A 4076   4.127   5.834   5.792 -0.3595 -0.1099 -0.1777
  299POPC   C4A 4077   3.999   6.028   6.208 -0.1098  0.0230 -0.0968
  299POPC   C1B 4078   3.874   6.613   5.423  0.0110  0.1516 -0.0356
  299POPC   C2B 4079   4.211   6.513   5.820  0.2811  0.0526 -0.0930
  299POPC   C3B 4080   4.449   6.692   6.233  0.3619 -0.2312  0.5302
  299POPC   C4B 4081   4.447   6.891   6.500  0.0902  0.1328 -0.2351
  300POPC   NC3 4082   8.227   6.248   5.014 -0.1098 -0.2259  0.0577
  300POPC   PO4 4083   7.990   5.843   5.128 -0.0694  0.0326 -0.0372
  300POPC   GL1 4084   7.799   5.829   5.586 -0.2301  0.0267  0.1019
  300POPC   GL2 4085   7.897   6.058   5.645 -0.4466  0.2192  0.1450
  300POPC   C1A 4086   7.693   5.660   5.941  0.2240 -0.2331 -0.1003
  300POPC   D2A 4087   7.528   5.322   6.183 -0.0255 -0.0249 -0.0214
  300POPC   C3A 4088   7.714   5.148   6.558 -0.2083 -0.2279  0.0003
  300POPC   C4A 4089   7.971   4.755   6.469  0.0371 -0.0965 -0.0208
  300POPC   C1B 4090   7.984   6.040   6.111 -0.1847  0.0306  0.1275
  300POPC   C2B 4091   7.857   5.804   6.453  0.2589  0.2744  0.4024
  300POPC   C3B 4092   7.788   5.574   6.809 -0.2046 -0.1445  0.0328
  300POPC   C4B 4093   7.464   5.695   7.216  0.0911  0.3018 -0.1432
  301POPC   NC3 4094   6.598   5.145   5.019 -0.0424 -0.0257  0.1461
  301POPC   PO4 4095   6.310   4.932   5.081 -0.2646 -0.2072  0.1994
  301POPC   GL1 4096   6.228   4.813   5.502 -0.3520  0.1902  0.2207
  301POPC   GL2 4097   6.045   4.593   5.629 -0.2290 -0.0863  0.0068
  301POPC   C1A 4098   6.233   5.030   5.863 -0.0388  0.1824 -0.1228
  301POPC   D2A 4099   6.350   5.356   5.940 -0.1656 -0.4415  0.0823
  301POPC   C3A 4100   6.511   5.546   6.317 -0.0837 -0.1100 -0.2422
  301POPC   C4A 4101   6.737   5.713   6.719  0.0837 -0.0866 -0.1257
  301POPC   C1B 4102   5.910   4.560   5.970  0.0539  0.1557  0.1228
  301POPC   C2B 4103   5.627   4.438   6.196  0.0549 -0.1759 -0.3566
  301POPC   C3B 4104   5.249   4.608   6.517 -0.2457 -0.1118 -0.2293
  301POPC   C4B 4105   5.117   4.821   6.924 -0.0986 -0.2533 -0.0588
  302POPC   NC3 4106   7.210   3.196   4.808  0.0427 -0.1091  0.2186
  302POPC   PO4 4107   7.356   2.741   4.861  0.1520 -0.4468  0.2271
  302POPC   GL1 4108   7.222   2.861   5.285 -0.2656 -0.1009 -0.0086
  302POPC   GL2 4109   6.998   2.985   5.404 -0.2692 -0.0483  0.0965
  302POPC   C1A 4110   7.358   2.731   5.775  0.2929 -0.1340 -0.4381
  302POPC   D2A 4111   7.667   2.434   6.099 -0.2624 -0.0597 -0.0152
  302POPC   C3A 4112   7.460   2.202   6.264  0.3805 -0.0367  0.2624
  302POPC   C4A 4113   7.301   2.163   6.579  0.0539 -0.2476  0.4879
  302POPC   C1B 4114   6.887   2.820   5.844 -0.0580  0.0193  0.1003
  302POPC   C2B 4115   6.855   2.744   6.261 -0.4714 -0.1254 -0.0727
  302POPC   C3B 4116   6.806   2.651   6.649  0.0629  0.1221 -0.0736
  302POPC   C4B 4117   6.764   2.599   7.055  0.0842 -0.0593  0.1373
  303POPC   NC3 4118   0.030   3.803   4.975  0.0307 -0.1312 -0.0073
  303POPC   PO4 4119   0.089   3.333   5.042  0.4060  0.0857 -0.2580
  303POPC   GL1 4120   0.246   3.348   5.363 -0.0349  0.1430  0.0336
  303POPC   GL2 4121   0.550   3.288   5.508 -0.2150 -0.1191 -0.2014
  303POPC   C1A 4122   0.223   3.469   5.817  0.1622 -0.0545  0.0969
  303POPC   D2A 4123   0.524   3.618   6.171 -0.1067 -0.1898  0.1352
  303POPC   C3A 4124   0.411   3.990   6.426 -0.1575 -0.0606 -0.0051
  303POPC   C4A 4125   0.003   4.237   6.511  0.2114 -0.0858  0.0195
  303POPC   C1B 4126   0.601   3.204   5.950 -0.4264  0.0960  0.4485
  303POPC   C2B 4127   0.695   2.917   6.228 -0.0172  0.0402  0.2723
  303POPC   C3B 4128   0.547   2.682   6.576 -0.0125 -0.0331  0.1216
  303POPC   C4B 4129   0.367   2.474   6.935 -0.4001 -0.1421  0.0865
  304POPC   NC3 4130   1.223   8.007   4.444  0.1226 -0.2010 -0.2828
  304POPC   PO4 4131   1.285   7.660   4.625  0.0402  0.0729  0.1241
  304POPC   GL1 4132   1.157   7.851   5.002 -0.1227 -0.1797 -0.0324
  304POPC   GL2 4133   1.108   7.499   5.213  0.0625 -0.1479 -0.1233
  304POPC   C1A 4134   1.085   7.932   5.450  0.0895 -0.0101 -0.6003
  304POPC   D2A 4135   1.427   7.956   5.853 -0.4190 -0.1735 -0.0651
  304POPC   C3A 4136   1.529   8.336   6.018 -0.0889  0.0678  0.0291
  304POPC   C4A 4137   1.430   8.780   6.167 -0.0820  0.2423  0.0923
  304POPC   C1B 4138   1.073   7.505   5.752 -0.0872 -0.0414  0.0721
  304POPC   C2B 4139   1.125   7.617   6.177  0.2048 -0.0865 -0.1247
  304POPC   C3B 4140   1.135   7.462   6.598 -0.2685 -0.0294 -0.1736
  304POPC   C4B 4141   0.908   7.524   6.967 -0.0175 -0.0491 -0.0016
  305POPC   NC3 4142   5.403   3.937   4.849 -0.2433 -0.3049  0.1252
  305POPC   PO4 4143   5.678   4.261   4.858 -0.0511  0.2743  0.1902
  305POPC   GL1 4144   5.478   4.125   5.246 -0.2013  0.1476  0.0052
  305POPC   GL2 4145   5.531   3.888   5.361 -0.0290 -0.4322 -0.0267
  305POPC   C1A 4146   5.658   4.148   5.764 -0.1696  0.0774  0.1410
  305POPC   D2A 4147   5.378   3.899   6.093  0.1174  0.0753 -0.1363
  305POPC   C3A 4148   5.536   3.733   6.488  0.3825 -0.1755 -0.1197
  305POPC   C4A 4149   5.560   3.771   6.798  0.3002 -0.0519 -0.1177
  305POPC   C1B 4150   5.141   3.922   5.595  0.1519 -0.2020 -0.0318
  305POPC   C2B 4151   4.793   3.615   5.543 -0.1588 -0.1075 -0.0823
  305POPC   C3B 4152   4.577   3.192   5.710  0.0792 -0.3405  0.2508
  305POPC   C4B 4153   4.321   2.958   5.927 -0.0453 -0.2308 -0.0004
  306POPC   NC3 4154   1.498   3.581   4.834  0.1806 -0.0860  0.1508
  306POPC   PO4 4155   1.062   3.675   4.920  0.3065  0.1581  0.0252
  306POPC   GL1 4156   1.267   3.499   5.287  0.0611  0.3111  0.1387
  306POPC   GL2 4157   1.542   3.600   5.463  0.1072 -0.0496  0.0228
  306POPC   C1A 4158   1.112   3.320   5.681  0.1165  0.4761 -0.0821
  306POPC   D2A 4159   1.067   3.260   6.109 -0.1299 -0.0565  0.1612
  306POPC   C3A 4160   0.835   3.388   6.468  0.1431 -0.0417  0.0297
  306POPC   C4A 4161   0.626   3.656   6.756  0.0827  0.1110 -0.0816
  306POPC   C1B 4162   1.660   3.519   5.862 -0.0137  0.0366 -0.1518
  306POPC   C2B 4163   1.572   3.164   6.194  0.1245 -0.1395 -0.0853
  306POPC   C3B 4164   1.605   2.773   6.280 -0.0627  0.0993  0.2120
  306POPC   C4B 4165   1.889   2.489   6.092 -0.4575 -0.1171  0.2868
  307POPC   NC3 4166   9.446   3.031   4.873  0.5121  0.0325  0.3928
  307POPC   PO4 4167   9.093   3.272   5.069 -0.4462  0.0659  0.1707
  307POPC   GL1 4168   9.142   3.578   5.314 -0.1866  0.1772 -0.2016
  307POPC   GL2 4169   8.968   3.406   5.489  0.0066 -0.1355  0.0553
  307POPC   C1A 4170   9.258   3.932   5.493 -0.1036  0.1873  0.2073
  307POPC   D2A 4171   8.945   4.154   5.675  0.0314 -0.1530  0.2548
  307POPC   C3A 4172   9.176   4.427   5.976  0.0712  0.0611  0.1288
  307POPC   C4A 4173   9.071   4.646   6.359 -0.2872 -0.1856  0.0541
  307POPC   C1B 4174   8.843   3.203   5.927 -0.3339 -0.2215  0.0254
  307POPC   C2B 4175   8.526   3.035   6.160  0.0331 -0.0102  0.3576
  307POPC   C3B 4176   8.141   3.043   6.364 -0.0768 -0.0834  0.2770
  307POPC   C4B 4177   8.132   3.048   6.749  0.2675 -0.4039 -0.2839
  308POPC   NC3 4178   2.353   9.353   4.093  0.0308  0.2304  0.0547
  308POPC   PO4 4179   2.488   9.400   4.470 -0.1398  0.0329  0.1044
  308POPC   GL1 4180   2.487   8.940   4.668 -0.3309  0.0190 -0.0996
  308POPC   GL2 4181   2.239   8.759   4.756  0.2363 -0.2918 -0.0548
  308POPC   C1A 4182   2.611   8.996   5.032  0.0189 -0.0980  0.3555
  308POPC   D2A 4183   2.670   8.838   5.356 -0.2060 -0.0738 -0.0238
  308POPC   C3A 4184   2.380   8.897   5.650 -0.2095  0.1338  0.0591
  308POPC   C4A 4185   2.430   9.061   6.106  0.1568 -0.0369  0.0153
  308POPC   C1B 4186   2.148   8.898   5.180 -0.2047  0.3575  0.1158
  308POPC   C2B 4187   1.903   8.831   5.535 -0.1174 -0.1726  0.0183
  308POPC   C3B 4188   1.890   8.846   5.932 -0.1851  0.3037  0.2464
  308POPC   C4B 4189   1.829   9.040   6.282  0.0287  0.2597  0.1574
  309POPC   NC3 4190   5.209   8.362   4.214  0.0643 -0.0633 -0.2754
  309POPC   PO4 4191   5.533   8.751   4.197  0.0901 -0.0235  0.1381
  309POPC   GL1 4192   5.595   8.954   4.621 -0.2591  0.0892  0.0369
  309POPC   GL2 4193   5.790   8.909   4.871 -0.2191  0.0189  0.1738
  309POPC   C1A 4194   5.355   9.167   4.939  0.0444 -0.0993 -0.3528
  309POPC   D2A 4195   5.110   9.017   5.364  0.0079 -0.2461  0.1341
  309POPC   C3A 4196   4.744   9.037   5.411 -0.2674  0.4378  0.0637
  309POPC   C4A 4197   4.492   9.217   5.135 -0.1778  0.0350  0.0779
  309POPC   C1B 4198   5.717   9.083   5.349 -0.0647 -0.3590  0.2586
  309POPC   C2B 4199   5.515   9.091   5.764 -0.0212 -0.0102 -0.1765
  309POPC   C3B 4200   5.441   9.321   6.085  0.0029 -0.2670  0.0282
  309POPC   C4B 4201   5.714   9.214   6.382 -0.3142  0.0732  0.0115
  310POPC   NC3 4202   7.628   4.610   4.880  0.0702 -0.2529 -0.0179
  310POPC   PO4 4203   7.589   4.223   4.994 -0.1449  0.1350  0.3170
  310POPC   GL1 4204   7.712   4.205   5.347 -0.0772  0.1086  0.1273
  310POPC   GL2 4205   7.694   4.503   5.402  0.3985  0.1895  0.0895
  310POPC   C1A 4206   7.868   4.256   5.791  0.0190  0.0121 -0.1825
  310POPC   D2A 4207   7.899   4.016   6.229  0.2094 -0.1549  0.1287
  310POPC   C3A 4208   7.647   3.612   6.288  0.3526 -0.4850  0.0008
  310POPC   C4A 4209   7.683   3.172   6.456 -0.0954 -0.0253 -0.0191
  310POPC   C1B 4210   7.381   4.567   5.721 -0.5361 -0.1360 -0.2349
  310POPC   C2B 4211   7.078   4.631   6.074  0.1819  0.3461  0.0039
  310POPC   C3B 4212   6.898   4.720   6.484  0.1595  0.2476 -0.1534
  310POPC   C4B 4213   6.705   5.199   6.640  0.2235  0.0698 -0.0794
  311POPC   NC3 4214   0.313   7.066   4.822 -0.1132 -0.1046  0.0661
  311POPC   PO4 4215  -0.063   7.272   4.760 -0.0712 -0.2476  0.1838
  311POPC   GL1 4216  -0.130   7.121   5.195 -0.2119  0.0055 -0.2208
  311POPC   GL2 4217  -0.049   6.762   5.285  0.1439 -0.0779 -0.1249
  311POPC   C1A 4218   0.207   7.232   5.604 -0.0050  0.0546 -0.0934
  311POPC   D2A 4219   0.553   7.328   5.743  0.3100 -0.4090 -0.0912
  311POPC   C3A 4220   0.836   7.197   6.055  0.1144  0.2781  0.1719
  311POPC   C4A 4221   1.057   6.974   6.394  0.0342 -0.0648  0.1731
  311POPC   C1B 4222   0.078   6.736   5.660  0.1815  0.1787 -0.0589
  311POPC   C2B 4223  -0.073   6.484   6.039  0.0979  0.0268  0.1058
  311POPC   C3B 4224  -0.032   6.363   6.449 -0.1943 -0.2319 -0.0390
  311POPC   C4B 4225  -0.372   6.090   6.532 -0.0241 -0.2192 -0.3013
  312POPC   NC3 4226   5.515   0.733   3.355  0.1588 -0.1607  0.2251
  312POPC   PO4 4227   5.313   0.338   3.581  0.1016  0.2148 -0.0061
  312POPC   GL1 4228   5.353   0.688   3.844 -0.0569 -0.0490 -0.0126
  312POPC   GL2 4229   5.216   0.524   4.047  0.0497 -0.2551 -0.0518
  312POPC   C1A 4230   5.615   0.632   4.256 -0.1565  0.0591 -0.1236
  312POPC   D2A 4231   5.651   0.360   4.648 -0.3662  0.5240 -0.1663
  312POPC   C3A 4232   5.438   0.209   5.013 -0.1532 -0.0492 -0.2967
  312POPC   C4A 4233   5.288  -0.040   5.224 -0.0962  0.1517 -0.2370
  312POPC   C1B 4234   5.283   0.249   4.395 -0.0617 -0.0514  0.1957
  312POPC   C2B 4235   5.194  -0.048   4.604  0.1694  0.0971 -0.2426
  312POPC   C3B 4236   5.221  -0.451   4.507 -0.2377 -0.0443  0.1275
  312POPC   C4B 4237   5.042  -0.709   4.773  0.1653 -0.1494 -0.1244
  313POPC   NC3 4238   6.072   7.606   4.917 -0.0426 -0.0987 -0.1929
  313POPC   PO4 4239   6.434   7.957   4.762  0.2254  0.3417 -0.2078
  313POPC   GL1 4240   6.467   7.957   5.162  0.0445 -0.0486 -0.3501
  313POPC   GL2 4241   6.364   7.552   5.328 -0.1788 -0.0847 -0.2270
  313POPC   C1A 4242   6.470   7.935   5.655 -0.4230 -0.0394  0.0360
  313POPC   D2A 4243   6.553   7.656   6.022  0.0692 -0.0916 -0.3990
  313POPC   C3A 4244   6.593   7.743   6.495 -0.1341 -0.0175  0.1455
  313POPC   C4A 4245   6.716   8.083   6.821  0.1029 -0.0806 -0.1590
  313POPC   C1B 4246   6.014   7.632   5.587  0.2854  0.2061  0.0286
  313POPC   C2B 4247   5.989   7.933   5.980 -0.0896  0.0752 -0.0676
  313POPC   C3B 4248   6.242   8.076   6.294 -0.0235 -0.0099 -0.2209
  313POPC   C4B 4249   6.178   8.261   6.785 -0.1994 -0.0639  0.2451
  314POPC   NC3 4250   7.755   7.814   4.510  0.2161 -0.0394  0.0277
  314POPC   PO4 4251   7.723   8.268   4.734  0.0659 -0.0093  0.2611
  314POPC   GL1 4252   7.690   8.473   5.160 -0.1262 -0.0064 -0.0754
  314POPC   GL2 4253   7.774   8.796   5.260  0.0903 -0.1076 -0.0616
  314POPC   C1A 4254   7.577   8.469   5.637  0.2311  0.1728 -0.0060
  314POPC   D2A 4255   7.644   8.531   6.022  0.0691  0.0844  0.2683
  314POPC   C3A 4256   7.621   8.317   6.327 -0.3359 -0.4047 -0.2337
  314POPC   C4A 4257   7.508   7.909   6.497  0.1519  0.0763  0.2880
  314POPC   C1B 4258   8.037   8.702   5.657  0.0365  0.0031 -0.1747
  314POPC   C2B 4259   8.096   8.683   6.091  0.1377  0.2489  0.1586
  314POPC   C3B 4260   8.130   8.929   6.556 -0.0387 -0.2344 -0.0039
  314POPC   C4B 4261   7.925   9.353   6.708  0.0579  0.3420 -0.0793
  315POPC   NC3 4262  10.258   4.990   4.366  0.0771  0.0457 -0.2982
  315POPC   PO4 4263  10.643   5.010   4.757  0.1563  0.2874 -0.2224
  315POPC   GL1 4264  10.547   4.879   5.175 -0.2753  0.0843 -0.2570
  315POPC   GL2 4265  10.384   5.145   5.317 -0.3768  0.0036 -0.0966
  315POPC   C1A 4266  10.843   4.970   5.560  0.1103  0.0583 -0.0187
  315POPC   D2A 4267  10.963   5.112   5.956 -0.0356 -0.2029  0.0156
  315POPC   C3A 4268  11.417   5.115   5.785  0.1354  0.0524 -0.1038
  315POPC   C4A 4269  11.774   4.920   5.760  0.0455 -0.0587 -0.2113
  315POPC   C1B 4270  10.645   5.437   5.347  0.2863  0.0511 -0.1626
  315POPC   C2B 4271  11.037   5.415   5.469  0.1282  0.1518 -0.1836
  315POPC   C3B 4272  11.534   5.351   5.332  0.0193 -0.3326  0.2678
  315POPC   C4B 4273  11.803   5.275   5.063 -0.1003 -0.1591 -0.0166
  316POPC   NC3 4274   1.798   8.601   4.149  0.0526  0.2082 -0.0833
  316POPC   PO4 4275   2.144   8.919   4.281  0.1416  0.1843 -0.2226
  316POPC   GL1 4276   2.033   9.225   4.615 -0.0030  0.4312 -0.0255
  316POPC   GL2 4277   1.786   9.138   4.784 -0.2538  0.3534 -0.1700
  316POPC   C1A 4278   2.227   9.404   5.039 -0.0599 -0.0707 -0.0674
  316POPC   D2A 4279   2.323   9.341   5.456 -0.0393 -0.1593 -0.1350
  316POPC   C3A 4280   2.749   9.366   5.632  0.1188  0.2436  0.3457
  316POPC   C4A 4281   2.693   9.749   5.916 -0.4984 -0.0563  0.0381
  316POPC   C1B 4282   1.788   9.305   5.171 -0.0108 -0.0613 -0.3944
  316POPC   C2B 4283   1.813   9.306   5.537 -0.3245 -0.1707 -0.1813
  316POPC   C3B 4284   2.028   9.390   5.925 -0.1321  0.0554 -0.0686
  316POPC   C4B 4285   2.104   9.429   6.402 -0.1233  0.1326 -0.0020
  317POPC   NC3 4286   7.091   0.348   3.973 -0.0829 -0.0766  0.1187
  317POPC   PO4 4287   7.396   0.493   4.146  0.1421  0.0113 -0.1499
  317POPC   GL1 4288   7.236   0.429   4.651 -0.1709  0.0311  0.0017
  317POPC   GL2 4289   7.412   0.098   4.728 -0.0243  0.4055 -0.1295
  317POPC   C1A 4290   7.057   0.381   5.127 -0.0314  0.1134  0.0111
  317POPC   D2A 4291   7.021   0.219   5.563 -0.0979 -0.1479 -0.0893
  317POPC   C3A 4292   6.975   0.316   5.956  0.0278 -0.3365  0.1785
  317POPC   C4A 4293   7.095   0.317   6.419  0.1359  0.0412 -0.2951
  317POPC   C1B 4294   7.229  -0.107   5.138  0.0192 -0.0436  0.1464
  317POPC   C2B 4295   7.240  -0.245   5.494 -0.2194  0.2122 -0.1384
  317POPC   C3B 4296   7.034  -0.280   5.889  0.0910 -0.2214 -0.0198
  317POPC   C4B 4297   7.137  -0.156   6.293  0.0122  0.0676 -0.2905
  318POPC   NC3 4298   0.774   8.422   4.420 -0.2623 -0.1102 -0.1868
  318POPC   PO4 4299   0.689   8.362   4.824  0.2218  0.0223 -0.3580
  318POPC   GL1 4300   0.723   8.154   5.156  0.1116 -0.0390  0.0685
  318POPC   GL2 4301   0.681   7.853   5.131 -0.0963  0.0308 -0.1919
  318POPC   C1A 4302   0.710   8.232   5.592  0.1570 -0.0147  0.2471
  318POPC   D2A 4303   0.837   8.562   5.401 -0.1647 -0.3264 -0.0092
  318POPC   C3A 4304   0.934   8.902   5.150  0.0215  0.0892  0.1752
  318POPC   C4A 4305   0.864   9.287   5.124 -0.1554  0.0761 -0.0030
  318POPC   C1B 4306   0.598   7.709   5.451  0.0798  0.1335 -0.0512
  318POPC   C2B 4307   0.633   7.788   5.855  0.0346  0.0672  0.3901
  318POPC   C3B 4308   0.969   8.073   5.941 -0.2047  0.5645 -0.2629
  318POPC   C4B 4309   1.101   8.184   6.295  0.2008 -0.0924  0.0223
  319POPC   NC3 4310   9.498   8.632   4.384 -0.1452 -0.1222 -0.2190
  319POPC   PO4 4311   9.006   8.653   4.430  0.2078  0.0041 -0.3845
  319POPC   GL1 4312   9.107   8.616   4.836 -0.0589 -0.0085 -0.2090
  319POPC   GL2 4313   9.416   8.738   4.899  0.1625 -0.0821 -0.1053
  319POPC   C1A 4314   8.994   8.531   5.350 -0.0992 -0.1268  0.0555
  319POPC   D2A 4315   8.521   8.479   5.509 -0.1163  0.1147  0.1074
  319POPC   C3A 4316   8.463   8.366   5.982 -0.3542  0.0173 -0.2155
  319POPC   C4A 4317   8.504   8.396   6.455  0.3166  0.0115 -0.0930
  319POPC   C1B 4318   9.453   8.773   5.398 -0.0418 -0.2753  0.1619
  319POPC   C2B 4319   9.473   8.650   5.845  0.2408 -0.1339  0.1577
  319POPC   C3B 4320   9.463   8.853   6.226  0.0367  0.1153  0.1471
  319POPC   C4B 4321   9.510   9.276   6.457  0.0070 -0.3230 -0.1386
  320POPC   NC3 4322   6.904   7.746   4.667 -0.0279 -0.0817 -0.1233
  320POPC   PO4 4323   6.968   7.775   5.125  0.0039  0.0232 -0.1584
  320POPC   GL1 4324   6.962   7.621   5.450 -0.0769 -0.1633 -0.0824
  320POPC   GL2 4325   7.001   7.260   5.482 -0.1075  0.0482  0.1028
  320POPC   C1A 4326   7.019   7.870   5.785 -0.0035  0.2412  0.1385
  320POPC   D2A 4327   7.055   7.826   6.247 -0.1587 -0.1870  0.0502
  320POPC   C3A 4328   7.103   8.273   6.493  0.0502  0.0510 -0.0943
  320POPC   C4A 4329   7.008   8.524   6.824 -0.1930 -0.1193 -0.0926
  320POPC   C1B 4330   6.725   7.250   5.810 -0.2086  0.1171 -0.0331
  320POPC   C2B 4331   6.542   7.182   6.254  0.0854  0.0365 -0.0145
  320POPC   C3B 4332   6.177   6.997   6.490  0.2380 -0.1048 -0.1548
  320POPC   C4B 4333   5.846   7.236   6.628 -0.0678  0.1768  0.3101
  321POPC   NC3 4334   1.246   7.193   4.799 -0.0467 -0.0082 -0.0711
  321POPC   PO4 4335   1.625   7.151   4.616 -0.1726  0.0630  0.2849
  321POPC   GL1 4336   1.792   7.323   4.978 -0.0899  0.0231  0.1749
  321POPC   GL2 4337   1.587   7.569   5.000  0.0299 -0.1081  0.0974
  321POPC   C1A 4338   1.614   7.405   5.434  0.0835 -0.0547 -0.2566
  321POPC   D2A 4339   1.748   7.534   5.883 -0.0243 -0.1805 -0.1489
  321POPC   C3A 4340   1.942   7.178   6.117 -0.0109  0.0239 -0.0578
  321POPC   C4A 4341   2.222   6.887   5.935  0.3305  0.0205 -0.0904
  321POPC   C1B 4342   1.645   7.878   5.355  0.2032  0.4021  0.0003
  321POPC   C2B 4343   1.858   8.110   5.571 -0.2442  0.5779 -0.0778
  321POPC   C3B 4344   1.988   8.043   5.963  0.0746 -0.0215  0.2347
  321POPC   C4B 4345   2.179   8.115   6.367  0.2398  0.1764 -0.1869
  322POPC   NC3 4346   8.324   1.817   3.963  0.3494 -0.3545  0.1441
  322POPC   PO4 4347   8.411   1.734   4.359 -0.0029 -0.0001 -0.1451
  322POPC   GL1 4348   8.471   1.620   4.796  0.1369  0.3224  0.2081
  322POPC   GL2 4349   8.305   1.615   5.090  0.1551  0.2701 -0.2857
  322POPC   C1A 4350   8.727   1.742   5.284 -0.0953  0.4960  0.0659
  322POPC   D2A 4351   8.663   1.596   5.646 -0.0186 -0.1576 -0.0635
  322POPC   C3A 4352   8.448   1.577   5.994  0.0950  0.2540 -0.0150
  322POPC   C4A 4353   8.376   1.690   6.315  0.1300 -0.0850 -0.1081
  322POPC   C1B 4354   8.185   1.287   5.365 -0.1725 -0.0203 -0.1106
  322POPC   C2B 4355   8.084   1.242   5.797  0.0134 -0.0748  0.1282
  322POPC   C3B 4356   8.138   1.194   6.186 -0.0397  0.0341  0.0065
  322POPC   C4B 4357   7.749   1.213   6.563  0.0382  0.2801 -0.1583
  323POPC   NC3 4358   1.280   0.539   4.336  0.2225  0.2363 -0.1034
  323POPC   PO4 4359   1.034   0.650   4.669  0.1334 -0.0234 -0.0357
  323POPC   GL1 4360   0.848   0.496   5.035  0.1644  0.1000  0.0413
  323POPC   GL2 4361   0.739   0.702   5.259 -0.1085  0.0739  0.1019
  323POPC   C1A 4362   0.806   0.158   5.250 -0.2437  0.1579 -0.2072
  323POPC   D2A 4363   0.966  -0.230   5.384 -0.0619 -0.2198  0.0983
  323POPC   C3A 4364   1.299  -0.442   5.422 -0.4847 -0.2646 -0.0333
  323POPC   C4A 4365   1.651  -0.356   5.098  0.0207 -0.0508 -0.0177
  323POPC   C1B 4366   0.949   0.785   5.533 -0.0979 -0.3349  0.0300
  323POPC   C2B 4367   0.739   0.713   5.973  0.2267  0.0309  0.0993
  323POPC   C3B 4368   0.720   0.466   6.217  0.0064 -0.2109  0.1156
  323POPC   C4B 4369   0.398   0.204   6.270 -0.1205 -0.0317 -0.0845
  324POPC   NC3 4370   5.634   5.526   5.076  0.0203  0.0199  0.0294
  324POPC   PO4 4371   6.055   5.346   5.189 -0.1386  0.2907  0.2554
  324POPC   GL1 4372   5.832   5.309   5.519  0.1703  0.2087 -0.0483
  324POPC   GL2 4373   5.713   4.950   5.572  0.2881 -0.0518  0.1624
  324POPC   C1A 4374   5.868   5.387   5.912 -0.1600 -0.6288  0.2957
  324POPC   D2A 4375   5.770   5.644   6.151 -0.0463 -0.2276 -0.0858
  324POPC   C3A 4376   5.864   5.383   6.514 -0.0772  0.2535 -0.3630
  324POPC   C4A 4377   6.168   5.332   6.767  0.1210  0.2765 -0.2092
  324POPC   C1B 4378   5.488   4.916   5.964  0.2254  0.4957 -0.3553
  324POPC   C2B 4379   5.351   5.227   6.290 -0.0203 -0.1477  0.1597
  324POPC   C3B 4380   5.299   5.363   6.694  0.0989 -0.3627 -0.1059
  324POPC   C4B 4381   5.609   5.311   6.977 -0.0111  0.0430  0.1879
  325POPC   NC3 4382   4.900   7.295   4.578 -0.1141  0.3521  0.2193
  325POPC   PO4 4383   4.772   6.942   4.683  0.1341  0.0821  0.0205
  325POPC   GL1 4384   4.800   7.034   5.135 -0.0938 -0.1145  0.0501
  325POPC   GL2 4385   4.883   6.716   5.314  0.0513 -0.1393  0.3275
  325POPC   C1A 4386   4.709   7.407   5.424 -0.1645  0.1140  0.2000
  325POPC   D2A 4387   4.774   7.731   5.762  0.1613 -0.0408  0.1373
  325POPC   C3A 4388   4.615   7.557   6.134 -0.0474  0.1838 -0.2961
  325POPC   C4A 4389   4.492   7.427   6.567 -0.1219  0.0436  0.3043
  325POPC   C1B 4390   5.204   6.615   5.643  0.4365  0.1763 -0.1138
  325POPC   C2B 4391   5.610   6.471   5.607  0.0067 -0.2090 -0.2653
  325POPC   C3B 4392   6.104   6.479   5.617  0.0402 -0.0101 -0.3244
  325POPC   C4B 4393   6.508   6.322   5.805 -0.1497  0.2178  0.3308
  326POPC   NC3 4394   2.122   7.031   4.577 -0.6081  0.4078  0.1339
  326POPC   PO4 4395   2.448   6.926   4.685  0.1025 -0.0730 -0.0384
  326POPC   GL1 4396   2.809   7.230   4.906  0.0803  0.0599  0.0984
  326POPC   GL2 4397   3.131   7.156   4.854  0.1995 -0.1970  0.2866
  326POPC   C1A 4398   2.864   7.518   5.125 -0.0060 -0.2785  0.0978
  326POPC   D2A 4399   2.802   7.707   5.560  0.0184  0.0128 -0.0557
  326POPC   C3A 4400   3.122   7.843   5.858 -0.2681  0.0931 -0.1485
  326POPC   C4A 4401   3.306   7.880   6.277  0.1153  0.0269  0.0084
  326POPC   C1B 4402   3.167   7.217   5.356 -0.1298  0.3831 -0.1652
  326POPC   C2B 4403   2.993   6.897   5.620  0.4134 -0.0361  0.0241
  326POPC   C3B 4404   3.025   6.617   5.940 -0.0934  0.0182  0.0639
  326POPC   C4B 4405   3.358   6.613   6.260 -0.2128  0.1739 -0.1565
  327POPC   NC3 4406   0.168   1.671   4.667  0.2284  0.2901 -0.2134
  327POPC   PO4 4407   0.541   1.352   4.621 -0.2833 -0.1251 -0.0244
  327POPC   GL1 4408   0.590   1.368   5.077 -0.1680  0.0051 -0.2234
  327POPC   GL2 4409   0.400   1.183   5.123  0.0045  0.0429  0.0851
  327POPC   C1A 4410   0.894   1.306   5.326  0.3145 -0.3109 -0.1291
  327POPC   D2A 4411   1.085   1.530   5.621  0.1316  0.0935 -0.0164
  327POPC   C3A 4412   0.938   1.808   5.902  0.1159  0.0741  0.1900
  327POPC   C4A 4413   1.109   1.879   6.397  0.2124 -0.0500  0.1075
  327POPC   C1B 4414   0.522   1.038   5.568  0.0896  0.1908 -0.1276
  327POPC   C2B 4415   0.270   1.130   5.974  0.1530 -0.2294 -0.2463
  327POPC   C3B 4416   0.498   1.105   6.350  0.0934  0.0394 -0.0065
  327POPC   C4B 4417   0.952   0.881   6.458 -0.1386  0.1081 -0.0139
  328POPC   NC3 4418   8.746   8.206   4.316 -0.2763 -0.2884  0.1572
  328POPC   PO4 4419   8.908   8.125   4.761 -0.0968  0.5086  0.1818
  328POPC   GL1 4420   8.898   7.999   5.178 -0.1749 -0.0388 -0.3509
  328POPC   GL2 4421   9.149   7.807   5.283 -0.2494  0.2858 -0.1501
  328POPC   C1A 4422   8.830   8.073   5.619  0.0070  0.3110  0.2806
  328POPC   D2A 4423   8.926   8.264   5.949 -0.3387  0.2417 -0.1998
  328POPC   C3A 4424   8.919   8.714   5.977  0.0222  0.0719 -0.1277
  328POPC   C4A 4425   8.494   8.924   6.080 -0.1064 -0.2015 -0.2135
  328POPC   C1B 4426   8.991   7.519   5.641  0.0590 -0.2818 -0.0695
  328POPC   C2B 4427   8.988   7.780   6.041  0.0560  0.2568  0.0550
  328POPC   C3B 4428   9.146   7.708   6.486  0.0510  0.0748 -0.0520
  328POPC   C4B 4429   9.251   7.690   6.934 -0.1825  0.2860  0.0852
  329POPC   NC3 4430   7.180   5.558   4.545 -0.2024  0.0463 -0.2750
  329POPC   PO4 4431   7.019   5.410   4.981 -0.0404 -0.1249  0.0605
  329POPC   GL1 4432   7.008   5.580   5.350 -0.0783  0.0939  0.1796
  329POPC   GL2 4433   7.392   5.422   5.579  0.3323  0.1318 -0.2100
  329POPC   C1A 4434   6.881   5.458   5.760 -0.0061  0.0833 -0.0696
  329POPC   D2A 4435   6.761   5.097   6.047  0.0890  0.1078  0.1761
  329POPC   C3A 4436   6.288   5.043   6.388  0.1950 -0.0994 -0.1235
  329POPC   C4A 4437   5.864   5.003   6.207 -0.0415 -0.2596 -0.1280
  329POPC   C1B 4438   7.230   5.057   5.946 -0.0206 -0.1206  0.1267
  329POPC   C2B 4439   7.333   4.930   6.393 -0.0542 -0.1174 -0.0774
  329POPC   C3B 4440   7.280   4.799   6.813  0.0269  0.0684  0.3009
  329POPC   C4B 4441   6.995   4.578   7.082  0.1620 -0.0851  0.0965
  330POPC   NC3 4442   7.020   7.282   4.779 -0.0881 -0.1993 -0.1343
  330POPC   PO4 4443   7.413   7.506   4.899  0.2015 -0.0055 -0.0159
  330POPC   GL1 4444   7.463   7.720   5.272 -0.1382  0.1444  0.3319
  330POPC   GL2 4445   7.587   7.997   5.273  0.1703  0.1018  0.1252
  330POPC   C1A 4446   7.590   7.773   5.695 -0.1125  0.2075  0.1375
  330POPC   D2A 4447   7.477   7.964   5.985  0.0341 -0.3409 -0.3403
  330POPC   C3A 4448   7.203   8.285   5.975  0.0752 -0.0789  0.1558
  330POPC   C4A 4449   6.802   8.609   5.910 -0.1581 -0.0091 -0.2621
  330POPC   C1B 4450   7.969   8.095   5.483  0.1227  0.1146 -0.0997
  330POPC   C2B 4451   8.000   8.206   5.856 -0.1507 -0.0628 -0.3357
  330POPC   C3B 4452   8.025   7.949   6.231 -0.0726 -0.1634  0.0503
  330POPC   C4B 4453   8.218   7.629   6.512  0.2409  0.0824  0.1085
  331POPC   NC3 4454   4.470   4.884   4.255 -0.1162 -0.2414  0.1868
  331POPC   PO4 4455   4.803   5.074   4.579  0.1315 -0.0472 -0.1711
  331POPC   GL1 4456   4.825   5.272   4.986  0.3367 -0.0100 -0.0033
  331POPC   GL2 4457   4.661   5.592   4.863  0.2734  0.2540 -0.2028
  331POPC   C1A 4458   4.695   5.235   5.417  0.3407  0.2496  0.0622
  331POPC   D2A 4459   4.434   5.056   5.731 -0.0524 -0.1240 -0.2519
  331POPC   C3A 4460   4.477   4.942   6.100  0.2595  0.1135  0.1871
  331POPC   C4A 4461   4.339   5.096   6.430  0.0921 -0.0393 -0.1662
  331POPC   C1B 4462   4.420   5.613   5.222  0.3447 -0.1715 -0.0867
  331POPC   C2B 4463   4.534   5.637   5.622  0.2520  0.1664 -0.1211
  331POPC   C3B 4464   4.805   5.819   6.026  0.0453 -0.0219  0.0671
  331POPC   C4B 4465   4.944   6.028   6.388 -0.0326 -0.0212 -0.4845
  332POPC   NC3 4466   0.370   9.543   4.496  0.1471 -0.2092  0.1557
  332POPC   PO4 4467   0.245   9.989   4.655  0.3324 -0.0367  0.2344
  332POPC   GL1 4468   0.107   9.888   5.021  0.0702  0.1968 -0.1593
  332POPC   GL2 4469  -0.331   9.940   5.159  0.0061  0.1582  0.1843
  332POPC   C1A 4470  -0.045   9.674   5.428  0.0478 -0.4331 -0.2267
  332POPC   D2A 4471  -0.298   9.533   5.619  0.0538 -0.1713  0.0968
  332POPC   C3A 4472  -0.321   9.055   5.719 -0.0892 -0.1424 -0.1406
  332POPC   C4A 4473  -0.565   8.810   6.034 -0.1190 -0.2445 -0.2828
  332POPC   C1B 4474  -0.726   9.905   5.363  0.2206 -0.3252 -0.1950
  332POPC   C2B 4475  -0.919   9.906   5.762 -0.1188  0.2965  0.0847
  332POPC   C3B 4476  -0.811   9.992   6.227  0.2056  0.1188 -0.2216
  332POPC   C4B 4477  -0.744  10.043   6.569 -0.1227 -0.1390  0.2133
  333POPC   NC3 4478   2.437   4.890   4.294 -0.0258  0.0873  0.0669
  333POPC   PO4 4479   2.713   5.058   4.247 -0.2438  0.0959 -0.0614
  333POPC   GL1 4480   2.750   4.917   4.707  0.1495  0.0226  0.3244
  333POPC   GL2 4481   2.495   5.094   4.744 -0.0190  0.1194 -0.1294
  333POPC   C1A 4482   2.526   4.674   5.005  0.1128 -0.0112 -0.0216
  333POPC   D2A 4483   2.347   4.783   5.416  0.2450 -0.0410  0.1211
  333POPC   C3A 4484   2.455   4.939   5.815  0.0581  0.1300 -0.0351
  333POPC   C4A 4485   2.592   4.800   6.216 -0.1234 -0.0336 -0.4066
  333POPC   C1B 4486   2.655   5.190   5.161  0.1462 -0.1451 -0.0772
  333POPC   C2B 4487   2.890   5.220   5.572  0.0645 -0.0424 -0.0977
  333POPC   C3B 4488   2.919   5.142   5.921  0.2678  0.0913 -0.2108
  333POPC   C4B 4489   2.952   5.206   6.414  0.1971 -0.5709  0.3099
  334POPC   NC3 4490   3.697   2.367   3.917  0.1618  0.0630 -0.1465
  334POPC   PO4 4491   3.272   2.408   3.906  0.0386 -0.2223 -0.1476
  334POPC   GL1 4492   3.400   2.666   4.297  0.1544 -0.0429  0.0777
  334POPC   GL2 4493   3.066   2.652   4.398 -0.0578  0.1459  0.2578
  334POPC   C1A 4494   3.381   2.573   4.762 -0.1483  0.3287  0.0224
  334POPC   D2A 4495   3.741   2.358   5.007  0.1267  0.0886  0.1005
  334POPC   C3A 4496   4.061   2.496   5.312 -0.1819  0.1271 -0.0190
  334POPC   C4A 4497   3.975   2.606   5.751  0.2903 -0.2052  0.0084
  334POPC   C1B 4498   2.865   2.452   4.693  0.0717 -0.2485 -0.0070
  334POPC   C2B 4499   3.001   2.417   5.034  0.0967  0.0366  0.1775
  334POPC   C3B 4500   2.840   2.249   5.356 -0.1287 -0.0935  0.0225
  334POPC   C4B 4501   2.933   2.208   5.811 -0.0006 -0.3617  0.2068
  335POPC   NC3 4502   1.813   9.335   4.048 -0.1030  0.1103 -0.0663
  335POPC   PO4 4503   1.652   9.561   4.447 -0.2849  0.1899 -0.3535
  335POPC   GL1 4504   1.719   9.714   4.791  0.1079 -0.2896 -0.1627
  335POPC   GL2 4505   1.450   9.706   5.105 -0.3032  0.2295  0.0759
  335POPC   C1A 4506   1.996   9.817   5.284  0.1655 -0.0909  0.1892
  335POPC   D2A 4507   2.191   9.786   5.623  0.1950  0.1283  0.0621
  335POPC   C3A 4508   2.409  10.131   5.772 -0.0509 -0.0030 -0.1429
  335POPC   C4A 4509   2.856  10.175   6.015 -0.3337  0.2009 -0.1517
  335POPC   C1B 4510   1.343   9.419   5.436  0.0741 -0.0253 -0.1769
  335POPC   C2B 4511   0.938   9.169   5.609 -0.0699  0.0192 -0.1875
  335POPC   C3B 4512   0.704   8.895   5.793 -0.0569 -0.0555 -0.5069
  335POPC   C4B 4513   0.389   9.056   6.249  0.1712 -0.1399  0.0849
  336POPC   NC3 4514   1.503   2.587   4.480 -0.2390 -0.0616 -0.1125
  336POPC   PO4 4515   1.567   3.158   4.537 -0.1209 -0.2391  0.3767
  336POPC   GL1 4516   1.820   3.094   4.901 -0.1407 -0.0253  0.0565
  336POPC   GL2 4517   1.747   3.270   5.143  0.0265 -0.1313  0.1476
  336POPC   C1A 4518   2.150   3.018   5.080 -0.1378  0.1090  0.3327
  336POPC   D2A 4519   2.183   2.849   5.565 -0.2218 -0.1561 -0.0291
  336POPC   C3A 4520   1.922   2.578   5.473 -0.5644  0.1849  0.0019
  336POPC   C4A 4521   1.525   2.472   5.704 -0.1312 -0.2543  0.1841
  336POPC   C1B 4522   2.036   3.356   5.461 -0.2246 -0.2360 -0.4683
  336POPC   C2B 4523   2.139   3.595   5.867 -0.1523 -0.1341 -0.1310
  336POPC   C3B 4524   2.011   3.437   6.310 -0.2100  0.1393  0.1291
  336POPC   C4B 4525   2.136   3.530   6.769 -0.1256 -0.0590  0.1125
  337POPC   NC3 4526   0.029   2.962   4.751 -0.1031  0.3317  0.0887
  337POPC   PO4 4527  -0.241   2.772   4.935 -0.0232  0.1848 -0.4019
  337POPC   GL1 4528  -0.177   2.926   5.294 -0.0723 -0.0066 -0.1858
  337POPC   GL2 4529  -0.062   2.557   5.386 -0.0662  0.1410  0.0359
  337POPC   C1A 4530   0.168   2.889   5.582 -0.2346  0.1588 -0.0625
  337POPC   D2A 4531   0.143   2.972   6.023  0.1359 -0.0612 -0.1711
  337POPC   C3A 4532  -0.180   3.162   6.314  0.0665  0.2158 -0.0860
  337POPC   C4A 4533  -0.318   3.425   6.674  0.1923 -0.1146 -0.0510
  337POPC   C1B 4534   0.115   2.418   5.691  0.0463 -0.2532 -0.0065
  337POPC   C2B 4535   0.043   2.087   6.009 -0.5926  0.1503  0.1965
  337POPC   C3B 4536   0.091   2.132   6.499 -0.0727  0.3380  0.0884
  337POPC   C4B 4537  -0.119   2.157   6.852  0.0206 -0.1410  0.0308
  338W        W 4538   9.720   0.718  12.444 -0.2082  0.3145 -0.0386
  339W        W 4539   6.257   6.275  12.776  0.1609 -0.1774 -0.1639
  340W        W 4540   6.738   2.089   2.785 -0.0282  0.1422 -0.3800
  341W        W 4541   7.325   3.815   0.411 -0.0111  0.2452  0.0680
  342W        W 4542   0.925   1.366   9.826 -0.1844 -0.0625 -0.1440
  343W        W 4543   1.201   6.703   8.860 -0.0392  0.1253 -0.0035
  344W        W 4544   3.456   3.026   1.100  0.0144  0.0682  0.2349
  345W        W 4545   6.284   5.384  10.709  0.1195 -0.1755 -0.0735
  346W        W 4546   4.866   6.243   0.866  0.1319  0.3883 -0.1349
  347W        W 4547   3.504   1.133   1.314 -0.1538 -0.0813 -0.0740
  348W        W 4548   0.177  10.421   8.450  0.0730  0.1023 -0.1686
  349W        W 4549   6.803   9.888   2.744  0.0153 -0.2270 -0.0695
  350W        W 4550  10.459   7.909   8.421 -0.3015  0.4651  0.2545
  351W        W 4551   2.164   5.409   1.434  0.5274  0.1635  0.1256
  352W        W 4552  10.199   7.039  13.353  0.1527 -0.0424  0.0762
  353W        W 4553   4.974   5.622   0.270  0.0915 -0.2392 -0.4661
  354W        W 4554   5.620   3.554   2.418 -0.0247 -0.1928  0.4130
  355W        W 4555   3.539   2.056   3.596 -0.0782  0.3115 -0.1412
  356W        W 4556   1.180   7.910  10.233 -0.0684 -0.0674 -0.0662
  357W        W 4557   3.457  10.429   3.889  0.1159 -0.0299 -0.1733
  358W        W 4558   3.977   9.151   1.639 -0.2183  0.1381 -0.1228
  359W        W 4559   5.100   4.340   4.797  0.2451  0.2971 -0.0220
  360W        W 4560   8.752   3.350   0.073 -0.1337 -0.4817 -0.3463
  361W        W 4561   0.349   6.145   0.395 -0.1144  0.0848 -0.3074
  362W        W 4562   9.482   4.323  12.875  0.0118 -0.2493 -0.2400
  363W        W 4563   8.430   6.156   0.292  0.1371  0.2993  0.2698
  364W        W 4564   9.767   1.261   0.390 -0.3659  0.1566 -0.3160
  365W        W 4565   8.624   9.003   2.479  0.1128 -0.1054  0.1391
  366W        W 4566  10.259   4.836   0.144  0.0286  0.1098  0.0396
  367W        W 4567   2.618   2.997   2.862  0.0805  0.3212  0.1753
  368W        W 4568   0.370   7.716   0.212  0.0905 -0.2714  0.1757
  369W        W 4569   3.196   6.503   8.639 -0.2785 -0.0630 -0.2788
  370W        W 4570   9.836   1.834  13.077 -0.0577  0.2788  0.1121
  371W        W 4571   9.147   6.868  11.319  0.2104 -0.0510 -0.0945
  372W        W 4572   1.616   6.131  11.119 -0.0058 -0.0809 -0.2864
  373W        W 4573   3.160   4.663   9.483  0.3541  0.1561  0.1952
  374W        W 4574   9.504  10.262   3.250  0.3558  0.1202 -0.0911
  375W        W 4575   9.158   2.325   9.217 -0.1763 -0.1128  0.1176
  376W        W 4576   9.918   0.126   0.477 -0.0364 -0.0452  0.3051
  377W        W 4577   3.374   1.638   1.251  0.0313 -0.1400  0.0525
  378W        W 4578   8.197   7.267   3.208 -0.1140 -0.0093  0.1757
  379W        W 4579   1.281   5.158  11.690 -0.0385  0.1827 -0.0252
  380W        W 4580   3.605   5.397   3.099  0.0498  0.3182 -0.1183
  381W        W 4581   8.169   9.188   2.955 -0.2980  0.0219  0.0625
  382W        W 4582   9.636   1.301   3.885  0.3072 -0.0216 -0.1484
  383W        W 4583   3.562   7.704   3.829 -0.1282 -0.2135 -0.1736
  384W        W 4584   5.641   4.859   9.833 -0.0499 -0.0722 -0.1025
  385W        W 4585  10.045   6.320   9.858  0.0360 -0.1343 -0.0246
  386W        W 4586   5.382   1.768   3.153  0.0243  0.0993 -0.2806
  387W        W 4587   5.033   6.634   0.606 -0.2494 -0.0308 -0.2046
  388W        W 4588   1.135   5.792   9.004 -0.0560 -0.0569 -0.0586
  389W        W 4589   4.081   6.305   2.295 -0.1309  0.1096  0.0207
  390W        W 4590   6.774   7.948   8.621  0.2149  0.1716 -0.2614
  391W        W 4591   2.894   7.986   0.370 -0.1943 -0.1303 -0.0807
  392W        W 4592   4.946   4.609   4.420 -0.1381 -0.1139  0.1412
  393W        W 4593   3.555   1.610  11.626 -0.0291  0.3778 -0.0287
  394W        W 4594   0.520   4.641   1.758  0.2712  0.1372  0.1680
  395W        W 4595   0.580   7.322  11.411 -0.0081 -0.3747 -0.0626
  396W        W 4596   0.632   5.336   1.180  0.6522  0.0143 -0.0684
  397W        W 4597   6.640   3.720   0.988 -0.1767 -0.2053  0.1302
  398W        W 4598   7.424   5.971   5.301  0.0473 -0.2230  0.1038
  399W        W 4599   4.471   3.800   3.240  0.0737  0.3451 -0.3303
  400W        W 4600  10.142   3.301   0.721 -0.1304 -0.2832  0.1298
  401W        W 4601   5.078   9.737  12.972  0.1818 -0.0498 -0.1421
  402W        W 4602   3.568   1.773  12.367  0.0369 -0.0453  0.1745
  403W        W 4603   0.612   4.846   1.202 -0.3534  0.1162  0.0506
  404W        W 4604   6.408   6.877  12.730 -0.2761  0.2303 -0.0246
  405W        W 4605   9.439   5.188   1.757  0.2709 -0.1032  0.0327
  406W        W 4606   7.301   9.904   9.821 -0.0815  0.0660 -0.0217
  407W        W 4607   1.358   0.234   0.028 -0.1957  0.0873  0.1860
  408W        W 4608   1.390   9.424   1.447 -0.1882 -0.1802 -0.1972
  409W        W 4609   4.062   3.838  11.171  0.3079  0.0839  0.2371
  410W        W 4610   7.438   9.586  12.364  0.0775 -0.1394  0.2190
  411W        W 4611   1.118   0.159  10.189 -0.0791 -0.5062  0.0143
  412W        W 4612  10.278   7.666   0.545 -0.1165 -0.2924  0.1012
  413W        W 4613  10.330   4.185  11.147  0.2277  0.0627  0.2101
  414W        W 4614   4.449   7.630   0.055  0.2030  0.0831  0.2351
  415W        W 4615   1.091   4.247   8.132  0.3107  0.1545  0.0686
  416W        W 4616   1.910   1.303   0.220 -0.0143  0.1821 -0.0565
  417W        W 4617   9.387   7.201  12.214  0.1354 -0.1763 -0.1482
  418W        W 4618   5.626   6.174  12.669 -0.3248 -0.0958 -0.2657
  419W        W 4619   5.334   5.791   3.296  0.1180  0.1560  0.0411
  420W        W 4620   0.987  10.035   3.250  0.0839 -0.0280 -0.1996
  421W        W 4621   3.265   9.512   2.240 -0.0338 -0.0718  0.1898
  422W        W 4622   4.918   5.331   1.032 -0.1864 -0.2844 -0.3992
  423W        W 4623   0.225   0.599   3.923 -0.0959 -0.0702 -0.0018
  424W        W 4624   0.951   3.150  10.424  0.0161  0.0911  0.0519
  425W        W 4625   3.863   9.596  10.605 -0.3931 -0.1965  0.2802
  426W        W 4626   8.278   8.369   3.746 -0.0777  0.0971 -0.0339
  427W        W 4627   6.411   5.257   2.809 -0.0900 -0.0810 -0.2899
  428W        W 4628   3.493   4.979   3.554  0.3089 -0.2441  0.0688
  429W        W 4629   6.562   9.907  12.640 -0.3466 -0.0240 -0.1375
  430W        W 4630   2.254   9.552   1.773 -0.1148 -0.1209  0.0201
  431W        W 4631   3.084   3.372   2.960 -0.3689  0.2444 -0.1530
  432W        W 4632   7.536   7.843   9.315 -0.1185 -0.0715  0.1007
  433W        W 4633   5.602   7.274  11.430 -0.2130 -0.1636  0.1009
  434W        W 4634   5.342   3.132  11.340  0.0884 -0.0784 -0.1918
  435W        W 4635   5.678   8.492  11.990  0.0790  0.4637  0.0118
  436W        W 4636   2.903   6.720   9.638 -0.0475  0.2923 -0.2050
  437W        W 4637   2.624   2.164  11.394 -0.0782  0.1619  0.2388
  438W        W 4638   9.073   5.979   4.414 -0.1328  0.1714  0.2403
  439W        W 4639   0.011   6.949   8.846  0.3225 -0.0230  0.1485
  440W        W 4640   7.120   6.358  11.695  0.1924  0.0805  0.2972
  441W        W 4641   8.328   1.900  11.802 -0.3967 -0.1739 -0.1852
  442W        W 4642   4.137   1.347   3.396 -0.0107  0.1320 -0.1455
  443W        W 4643   5.628   5.867   1.985 -0.0137 -0.0242  0.2322
  444W        W 4644   5.792   1.313  12.995  0.4564  0.1066  0.1737
  445W        W 4645   4.353   7.278  12.379  0.2329 -0.1540  0.1855
  446W        W 4646   6.752   9.197   2.601 -0.1182 -0.1262  0.0311
  447W        W 4647   2.221   2.761   3.187 -0.1107 -0.1605  0.3741
  448W        W 4648   4.984   0.349  10.940  0.1906  0.0472  0.1448
  449W        W 4649   3.035   8.998   9.910 -0.1280  0.1487 -0.0915
  450W        W 4650   5.173   2.167   1.854 -0.1201 -0.2414  0.0789
  451W        W 4651   7.893   4.621   0.226  0.0533  0.1913 -0.3027
  452W        W 4652   4.667   7.276  12.899 -0.2009  0.0963  0.1104
  453W        W 4653   2.636   8.657   3.725 -0.4264 -0.0200  0.1636
  454W        W 4654   8.655   8.572  12.627 -0.1914 -0.0254 -0.0994
  455W        W 4655   4.871   6.273   0.225  0.0272 -0.2140  0.2954
  456W        W 4656   5.680   8.130   1.360 -0.0399 -0.3259  0.0953
  457W        W 4657   3.888   8.300   8.694  0.2681  0.1582 -0.1386
  458W        W 4658  10.422   0.866   1.914  0.0442 -0.3430 -0.2144
  459W        W 4659   1.052   0.085  12.530  0.2064  0.0089  0.2486
  460W        W 4660   3.018   5.282   3.071  0.2475 -0.2002 -0.0002
  461W        W 4661   1.097   4.890   4.844  0.0675 -0.1142  0.4213
  462W        W 4662   9.371   7.907   2.994 -0.2658  0.0988 -0.2948
  463W        W 4663   8.753   6.283  12.583 -0.1298 -0.1010  0.1001
  464W        W 4664  10.417   5.421   9.628 -0.3413  0.0271 -0.0170
  465W        W 4665   7.061   4.561   8.657  0.4246  0.0752 -0.0997
  466W        W 4666   9.008   0.526   0.680 -0.1817 -0.2121  0.2983
  467W        W 4667   5.113   4.485   3.540 -0.0074  0.0989 -0.4857
  468W        W 4668   4.709   2.309  12.283  0.1486  0.2316 -0.3104
  469W        W 4669   7.517   4.442   3.027  0.0538 -0.1558  0.0969
  470W        W 4670   5.284   8.204  12.262  0.1337  0.0457  0.0639
  471W        W 4671   4.594   0.922   1.994 -0.0727  0.2656 -0.0484
  472W        W 4672   9.530   4.800   8.014  0.0890  0.2136 -0.0076
  473W        W 4673   9.945   8.862   9.103 -0.0085 -0.0162  0.0423
  474W        W 4674   7.175   4.559  10.137  0.0405 -0.3124 -0.1835
  475W        W 4675   6.625   8.347   3.432  0.0180  0.0178 -0.1182
  476W        W 4676   9.104   9.665  13.262  0.0834 -0.1810  0.2320
  477W        W 4677   5.663   9.385   1.958  0.2694 -0.0637  0.3402
  478W        W 4678   3.326   5.012   0.143 -0.0126 -0.1243 -0.0510
  479W        W 4679   9.610   0.953   4.497 -0.1254  0.1591 -0.3491
  480W        W 4680   3.910   9.456   2.168 -0.2634 -0.2722 -0.0448
  481W        W 4681   1.083   9.662   3.674  0.1014  0.1846 -0.0505
  482W        W 4682   7.534   7.909   3.469  0.0701 -0.1543  0.1255
  483W        W 4683   4.926   5.093   4.072 -0.0693  0.0217  0.1726
  484W        W 4684   6.702   1.986   1.357 -0.0401  0.0104 -0.2368
  485W        W 4685   6.891   2.456   1.207  0.1130  0.2156  0.1226
  486W        W 4686   2.457   3.460   3.659 -0.0661  0.0350 -0.0149
  487W        W 4687   1.198   4.984   0.342 -0.1563  0.3091  0.4921
  488W        W 4688   9.527   6.788   2.320  0.0661 -0.0550  0.2911
  489W        W 4689   6.819   6.708   5.540  0.2304  0.1328  0.1429
  490W        W 4690  10.381   7.960  10.928 -0.1733  0.0999 -0.2171
  491W        W 4691   9.979   1.050  10.365  0.1461  0.3371 -0.0998
  492W        W 4692   9.356   0.795  12.895  0.2992  0.1596 -0.2256
  493W        W 4693   4.331   4.272   2.052  0.1986  0.2655  0.0548
  494W        W 4694   3.610   3.885   9.435 -0.2035 -0.0069  0.2495
  495W        W 4695   8.638  10.154   3.412 -0.1976  0.2000  0.1194
  496W        W 4696   1.736   8.578   0.907 -0.1192 -0.4391  0.0589
  497W        W 4697   1.134   9.849  10.078  0.1998  0.4016  0.0374
  498W        W 4698   2.178   0.849  11.850 -0.2746  0.0043  0.1716
  499W        W 4699  10.439   4.618   9.709 -0.0379  0.2313 -0.3253
  500W        W 4700   4.109   7.139   0.968 -0.1296  0.0273  0.1551
  501W        W 4701   9.408   0.397  12.157  0.0827 -0.2064 -0.0465
  502W        W 4702   0.315   5.995  13.269 -0.0360  0.0228 -0.1802
  503W        W 4703   4.635   5.912   8.143  0.6138  0.2802 -0.0974
  504W        W 4704   3.529   6.360  13.020 -0.1601 -0.0111  0.1428
  505W        W 4705   5.960   5.399   3.075 -0.1114  0.2270 -0.0418
  506W        W 4706  10.078   8.100   0.815  0.0458 -0.0182 -0.0430
  507W        W 4707   7.398   5.187   2.967  0.0797 -0.0707  0.1088
  508W        W 4708   8.957   7.878   3.282  0.2465 -0.2502  0.1569
  509W        W 4709   3.957   3.750   2.470 -0.1813 -0.1182  0.0719
  510W        W 4710   3.917   6.090   0.984 -0.1668  0.1573 -0.0783
  511W        W 4711   2.846   5.002   2.631  0.0170 -0.1223  0.0809
  512W        W 4712   0.891   5.076  12.027 -0.0916 -0.0316 -0.0072
  513W        W 4713   6.923   6.206  13.062 -0.2650 -0.1344  0.1270
  514W        W 4714   7.905   4.743  10.292  0.0572 -0.0485 -0.3359
  515W        W 4715  10.228   6.276   3.500 -0.0309 -0.0168  0.2172
  516W        W 4716   4.600   4.375   0.957  0.0983  0.1165 -0.1019
  517W        W 4717   3.511   1.060  12.432 -0.3707 -0.2017  0.1651
  518W        W 4718   6.734   8.767   0.900  0.1379 -0.0725 -0.0631
  519W        W 4719   2.008   7.742   1.220 -0.1377 -0.4816 -0.1500
  520W        W 4720   1.119   0.669   0.006  0.1661  0.2242 -0.1160
  521W        W 4721   5.083   4.209   8.894  0.1343  0.2100  0.1684
  522W        W 4722   3.301   3.186   3.400 -0.4342 -0.0162  0.0195
  523W        W 4723   7.767   8.345   3.740 -0.3104  0.0528 -0.5040
  524W        W 4724   8.681   6.281  11.388  0.0904  0.3364  0.0166
  525W        W 4725   4.179   5.033  12.182  0.0554  0.0038  0.0386
  526W        W 4726   2.721   3.213   9.271  0.1809  0.2449  0.3401
  527W        W 4727   8.687   8.361  11.601  0.0057  0.2338  0.1243
  528W        W 4728   8.903   8.270   9.133 -0.0867 -0.0817 -0.1068
  529W        W 4729   1.257   3.438   1.455  0.1009 -0.0775  0.2547
  530W        W 4730   6.016   3.581   4.203 -0.1988  0.2430  0.1493
  531W        W 4731  10.380  10.094   2.767 -0.0794 -0.2245 -0.0976
  532W        W 4732   7.495   9.291  11.945 -0.0350  0.2686  0.0663
  533W        W 4733   2.864   0.323   1.505 -0.1822  0.1151 -0.3330
  534W        W 4734   3.709   2.795  10.952  0.0696 -0.0873 -0.2485
  535W        W 4735   3.735   9.595   2.623 -0.0667  0.4308 -0.3215
  536W        W 4736   2.828   6.574  13.322 -0.0503  0.1074 -0.0166
  537W        W 4737   5.287   1.781  12.273 -0.1045  0.0860  0.1565
  538W        W 4738   1.608   8.857   1.359  0.4268  0.1110  0.2688
  539W        W 4739   1.879   4.870  11.821 -0.0376 -0.3775 -0.2421
  540W        W 4740   7.070   0.280  12.425  0.1207 -0.0104 -0.0843
  541W        W 4741   9.467   3.479  10.738  0.0666 -0.0208  0.2184
  542W        W 4742   7.818   4.381   3.435 -0.0728  0.0795  0.0853
  543W        W 4743   3.959   1.918   3.880  0.0236  0.0002  0.1641
  544W        W 4744   9.078   7.027   1.003 -0.0833 -0.0916 -0.1935
  545W        W 4745   8.549   7.879   0.662  0.0808  0.2713  0.1186
  546W        W 4746   0.026   3.461   3.551  0.0490  0.1448 -0.0040
  547W        W 4747   3.987   7.904  12.615 -0.1669 -0.1330  0.0874
  548W        W 4748   9.273   8.290  10.162  0.2125  0.0624 -0.0133
  549W        W 4749   0.432   0.981   4.215 -0.0498  0.0367  0.0870
  550W        W 4750   7.075   6.681   8.421 -0.0742 -0.1134  0.4288
  551W        W 4751   3.664   5.611  10.260 -0.2122 -0.0822 -0.2424
  552W        W 4752   4.490   3.652  11.882  0.1911  0.0666  0.1813
  553W        W 4753   7.316   4.391  12.909 -0.0275  0.2623  0.2332
  554W        W 4754   9.365   9.926   3.918 -0.0163 -0.2302 -0.1346
  555W        W 4755   9.856   1.729   1.600 -0.1136  0.1832  0.0641
  556W        W 4756   2.037   1.377   1.350 -0.0047 -0.0486  0.0907
  557W        W 4757   6.709   0.290  13.155 -0.2030  0.1427 -0.2366
  558W        W 4758   1.538   2.156  10.877  0.4051 -0.1644 -0.2694
  559W        W 4759   0.185   9.677  11.686 -0.1316 -0.2879 -0.1538
  560W        W 4760   0.106   9.716  11.096 -0.4342 -0.0278  0.0279
  561W        W 4761   1.211   4.974   4.333 -0.1550  0.0655  0.0602
  562W        W 4762   4.400   8.377   1.226  0.1554 -0.0957 -0.2027
  563W        W 4763   9.587   7.929   3.948 -0.0085 -0.0526 -0.3055
  564W        W 4764   0.935   7.007  12.061 -0.1859  0.3286 -0.0637
  565W        W 4765   4.653   3.345   0.434  0.2007 -0.2609 -0.0695
  566W        W 4766  10.280   7.482  12.073  0.4035  0.0023  0.0969
  567W        W 4767  10.009   2.628   4.094  0.0977 -0.1194 -0.2199
  568W        W 4768   5.135   4.723   2.672 -0.2888 -0.0392 -0.1930
  569W        W 4769   0.363   9.934   4.172  0.1088  0.1490 -0.1482
  570W        W 4770   4.997   4.211   2.703 -0.2831  0.0112 -0.2003
  571W        W 4771   6.261   7.750   2.846 -0.4280  0.1300 -0.0649
  572W        W 4772   8.489   7.096   4.929 -0.1749 -0.1131 -0.2435
  573W        W 4773   0.227   1.718   0.163 -0.3445  0.0466 -0.0071
  574W        W 4774   1.519  10.303   1.322 -0.0024 -0.1846 -0.0755
  575W        W 4775   9.888   4.038  12.725 -0.1103  0.1922 -0.2867
  576W        W 4776   8.592   2.207   4.099  0.5692  0.1200 -0.0720
  577W        W 4777   3.687   0.949  12.936 -0.0296 -0.0911  0.0784
  578W        W 4778  10.040   0.463   0.083 -0.1151 -0.1429  0.1373
  579W        W 4779   7.060   3.229  10.081  0.0963 -0.0385 -0.1818
  580W        W 4780   0.154   8.167   9.976 -0.1643  0.1274  0.0955
  581W        W 4781   1.113   8.139   3.484  0.0971  0.2228  0.0189
  582W        W 4782   1.075   4.838  10.992  0.1976 -0.2430  0.3193
  583W        W 4783   3.599   0.193   9.979  0.0089 -0.0379 -0.1232
  584W        W 4784   7.051   5.556  11.079 -0.1300  0.2265 -0.3343
  585W        W 4785   3.956  10.142   3.643  0.1815 -0.3860  0.0051
  586W        W 4786   8.422   4.662  10.280 -0.3981 -0.0764 -0.1078
  587W        W 4787   5.247   6.574   9.829 -0.1776  0.1994  0.0648
  588W        W 4788   6.286   7.752   9.298  0.1144  0.0827 -0.1002
  589W        W 4789   7.267   7.639   1.750  0.1148  0.1621 -0.0447
  590W        W 4790   9.481   4.501  11.531 -0.6015 -0.1201  0.0201
  591W        W 4791   3.844   9.472  11.458  0.1443 -0.0644  0.0210
  592W        W 4792   2.213   9.238   0.706 -0.4894 -0.3888 -0.3435
  593W        W 4793   0.791   1.548   1.072 -0.0115 -0.0319  0.1727
  594W        W 4794  10.062   2.045   2.461 -0.2079  0.0254  0.3347
  595W        W 4795  10.462   3.994  10.652  0.0504  0.1617  0.0475
  596W        W 4796   3.734   1.630   0.914 -0.1153 -0.2713 -0.1613
  597W        W 4797   0.406   2.890   9.805 -0.1179  0.1700 -0.0014
  598W        W 4798   1.472   1.978   1.552 -0.1223 -0.1993  0.4283
  599W        W 4799   0.160   0.312   3.535 -0.1297  0.1622 -0.1379
  600W        W 4800   8.543   3.071   0.769 -0.0205  0.0321  0.1061
  601W        W 4801   5.147   9.243  13.189  0.2163 -0.1638 -0.5599
  602W        W 4802   5.003   3.974   5.120  0.1793 -0.1894 -0.0495
  603W        W 4803   0.230   6.997  11.344  0.2043 -0.0774 -0.6644
  604W        W 4804   6.859   7.386   8.822  0.2211 -0.2306  0.2544
  605W        W 4805   5.060   7.080   2.829 -0.1382 -0.0548 -0.2162
  606W        W 4806   6.019   0.026   1.914 -0.0825  0.2834  0.2623
  607W        W 4807   8.215   8.516   3.061 -0.1348 -0.1958 -0.0101
  608W        W 4808   4.174   0.204   1.926  0.2282 -0.0647 -0.0253
  609W        W 4809   9.832   1.660  10.223  0.1086  0.0582  0.1669
  610W        W 4810   7.023   2.711  11.453 -0.1670  0.1719  0.2792
  611W        W 4811   9.014   1.863   0.363  0.0362  0.1933 -0.0772
  612W        W 4812  10.092   1.114   4.491 -0.1713  0.1585  0.0998
  613W        W 4813   9.644   6.684  11.466  0.0242  0.1867  0.2439
  614W        W 4814  10.456   3.049  11.079 -0.4542 -0.0494  0.2557
  615W        W 4815   0.761   7.456  11.969 -0.0820 -0.0365  0.0356
  616W        W 4816   7.627   2.030   3.372 -0.1083  0.1798 -0.0610
  617W        W 4817   4.352   6.708   2.609 -0.3804 -0.0729 -0.1677
  618W        W 4818   1.833   3.732   2.716 -0.1725 -0.2162 -0.0186
  619W        W 4819   6.695   3.115   9.281 -0.0280  0.0452  0.0585
  620W        W 4820   6.471   3.964  11.367 -0.1718 -0.0966 -0.0335
  621W        W 4821   1.949   5.254  13.199  0.0818  0.1913  0.0405
  622W        W 4822   9.031   8.118  12.721  0.0102  0.2206 -0.1090
  623W        W 4823   3.740   6.007  12.026  0.3256 -0.0396 -0.0088
  624W        W 4824   9.842   1.542   2.920  0.0162  0.0397 -0.2423
  625W        W 4825   2.343   7.787   1.671  0.0629  0.1857  0.1391
  626W        W 4826   6.060   2.668   3.952  0.1757  0.1147 -0.2621
  627W        W 4827   3.712   5.306  12.273 -0.1288  0.3343  0.2164
  628W        W 4828   9.453   1.725   0.763 -0.0465 -0.1628 -0.1484
  629W        W 4829   7.536   3.814   9.855  0.0821  0.3003  0.2903
  630W        W 4830   2.859   3.844   8.893  0.1184  0.1817  0.1808
  631W        W 4831   8.833   1.575  11.545 -0.1646  0.1546 -0.2049
  632W        W 4832   7.165   1.354   4.083 -0.0307 -0.1092  0.1107
  633W        W 4833   1.932   3.701   9.866  0.1384 -0.0500  0.1063
  634W        W 4834   3.724   1.076  10.248  0.4474  0.0364  0.2888
  635W        W 4835   8.796   0.948   1.504 -0.0014 -0.3128  0.0866
  636W        W 4836   7.018  10.087  10.823  0.2517  0.3210 -0.0352
  637W        W 4837   9.611   5.908   1.909 -0.2770 -0.4035  0.0797
  638W        W 4838   1.440  10.381   0.392  0.1319 -0.4135 -0.0543
  639W        W 4839   1.310   5.721   5.204 -0.1658 -0.4517 -0.0147
  640W        W 4840   5.802   6.288  13.142  0.2956  0.0385  0.0758
  641W        W 4841   2.505   0.333   0.678 -0.0451 -0.2129 -0.0025
  642W        W 4842   9.475   9.438  12.430  0.2201  0.2436 -0.0773
  643W        W 4843   7.797   1.502  11.545  0.2408 -0.0031  0.0812
  644W        W 4844  10.058   6.868   0.883  0.1408  0.0799 -0.0719
  645W        W 4845   8.411   8.145  10.002 -0.1585 -0.0193 -0.0898
  646W        W 4846   3.745   9.856  13.299 -0.0015 -0.1808 -0.2088
  647W        W 4847   6.193   9.568  12.918 -0.1888 -0.1079 -0.0839
  648W        W 4848   1.034   0.664  10.134  0.2588  0.2146  0.3439
  649W        W 4849   7.828   2.960   4.519  0.2362  0.1295 -0.1513
  650W        W 4850   9.892   9.847   1.344 -0.0022  0.0044 -0.0353
  651W        W 4851   8.568   0.090   8.898  0.2622 -0.1234  0.0558
  652W        W 4852   1.891   4.800  12.948  0.1857  0.2438 -0.2409
  653W        W 4853   8.450   5.548  10.277  0.0993  0.0670 -0.1369
  654W        W 4854   2.263   6.151   1.988  0.0697  0.3420  0.0263
  655W        W 4855   6.678   9.842  12.163 -0.1670  0.1104 -0.1488
  656W        W 4856   7.312   9.086  12.449  0.1600 -0.0663  0.2540
  657W        W 4857   7.947   9.635   8.157  0.0294  0.0547  0.2103
  658W        W 4858   0.661   3.976   0.724  0.0045 -0.2758  0.0465
  659W        W 4859   8.540   0.675   2.371  0.1203 -0.0031 -0.0576
  660W        W 4860   5.553   2.359   2.238  0.0007  0.0181  0.3623
  661W        W 4861   9.541   7.657   4.395 -0.0697 -0.1233  0.2334
  662W        W 4862   1.228   5.975   0.217  0.1475  0.1718  0.0933
  663W        W 4863   3.315   2.491  11.067 -0.0011 -0.2559 -0.3505
  664W        W 4864   8.281   9.495   9.474  0.1901  0.2358  0.2053
  665W        W 4865   2.968   5.583  11.955 -0.1631  0.0457 -0.3253
  666W        W 4866   0.142   1.221   1.267 -0.0261 -0.3608  0.1314
  667W        W 4867   9.213   9.236   9.089  0.0744  0.3426 -0.1476
  668W        W 4868   0.512   4.187   1.230 -0.0134 -0.0567 -0.1006
  669W        W 4869   8.239   5.760   9.188 -0.0690  0.1532  0.1786
  670W        W 4870   4.042   1.902   3.351  0.1252  0.0658 -0.2828
  671W        W 4871   1.129   8.529  12.663 -0.1395 -0.0096 -0.0309
  672W        W 4872   6.544   7.300   9.224 -0.0089 -0.2388  0.1328
  673W        W 4873   3.748   2.411  12.153  0.0041  0.2014 -0.1790
  674W        W 4874   3.393   7.037   1.865 -0.1622  0.2210 -0.2110
  675W        W 4875   2.801   4.191   3.703 -0.0561 -0.0319 -0.0772
  676W        W 4876   6.532   7.483  12.169  0.0130  0.0908  0.0514
  677W        W 4877   0.741   4.884  12.572 -0.1818 -0.0020  0.1685
  678W        W 4878   0.793   4.286   9.648 -0.2292 -0.0480 -0.4124
  679W        W 4879   3.421   2.960  10.453 -0.0256  0.2838  0.0708
  680W        W 4880   1.872   1.442  11.251  0.0037 -0.2622  0.1373
  681W        W 4881   3.588   3.614  12.314 -0.0071  0.0736  0.0544
  682W        W 4882   8.159   4.887   1.897 -0.1841 -0.4088 -0.0652
  683W        W 4883   3.428   7.141   0.172 -0.3060 -0.0068 -0.1364
  684W        W 4884   7.250   3.616   2.955 -0.0072 -0.0884 -0.1576
  685W        W 4885   4.316   8.272  10.222 -0.0530  0.0192  0.1200
  686W        W 4886   0.687   2.550  11.671 -0.2637  0.0271 -0.0636
  687W        W 4887   4.921   1.168  12.427 -0.0141 -0.2511  0.1570
  688W        W 4888   7.826   6.464   4.692 -0.3405 -0.2391  0.0981
  689W        W 4889   5.976   2.906   0.028 -0.0005  0.1760  0.1313
  690W        W 4890   3.707   3.523   0.335 -0.3077 -0.0244  0.1855
  691W        W 4891   5.358   1.246   3.119  0.2099 -0.4435 -0.0712
  692W        W 4892   8.564   7.494   2.394  0.3090 -0.2367 -0.4721
  693W        W 4893   2.013   5.274  12.650  0.2482 -0.0356 -0.3561
  694W        W 4894   5.674   7.431  12.434 -0.1647 -0.2666 -0.1641
  695W        W 4895   6.620   7.012  13.173  0.1470  0.2536  0.0299
  696W        W 4896   5.630   3.351   4.828 -0.3055 -0.0755 -0.5430
  697W        W 4897   3.740   1.927   2.034  0.0982 -0.4353 -0.1009
  698W        W 4898   4.455   1.977   9.176 -0.1030  0.0426 -0.0738
  699W        W 4899   0.371   4.548  12.524  0.0443  0.2912  0.0996
  700W        W 4900   9.909   9.563   3.843  0.0422  0.2410 -0.2616
  701W        W 4901   2.687   5.414  11.459 -0.0530 -0.2225  0.0953
  702W        W 4902   8.368   4.765   3.059  0.3653  0.1505 -0.0989
  703W        W 4903   8.303   5.629   0.735  0.1101 -0.4025  0.0205
  704W        W 4904   5.083   3.098  11.791 -0.1084 -0.0276 -0.1581
  705W        W 4905   4.439   3.911   2.445  0.1306  0.2477  0.0616
  706W        W 4906   3.664   0.360   2.782 -0.0065  0.2017 -0.3313
  707W        W 4907   8.542   3.529   0.931 -0.0520 -0.0957  0.0800
  708W        W 4908   8.455   9.647   3.528 -0.0928  0.0883  0.1798
  709W        W 4909   1.026   5.565   3.822 -0.0800  0.1348  0.5265
  710W        W 4910   9.221   5.408   3.262  0.1649 -0.1340  0.0856
  711W        W 4911   3.100  10.255   2.590 -0.0825  0.1738 -0.1559
  712W        W 4912   3.474   0.657   0.399 -0.4522  0.0315  0.2678
  713W        W 4913   5.280   5.030   0.865  0.2161  0.2878  0.0907
  714W        W 4914   8.207   8.295   2.609  0.1104  0.0413 -0.1866
  715W        W 4915   3.037   8.384  10.487 -0.2002 -0.2076  0.0444
  716W        W 4916   9.223   9.879  12.341  0.3467  0.0661  0.3836
  717W        W 4917   8.050   0.909  11.669  0.1443  0.0927 -0.1053
  718W        W 4918   2.447   4.608  10.384  0.2493 -0.1008 -0.2058
  719W        W 4919   7.159   0.526   3.421 -0.0230 -0.1841  0.3724
  720W        W 4920   0.203   9.331   8.585  0.0038 -0.1938  0.2182
  721W        W 4921   1.303   1.141   1.801 -0.0312  0.2001  0.2041
  722W        W 4922   8.724   6.149   2.097 -0.0536 -0.0008 -0.2497
  723W        W 4923   6.848   6.472   1.382 -0.2999  0.0593 -0.0008
  724W        W 4924   0.576   3.654   5.087  0.1338 -0.0472 -0.1424
  725W        W 4925   3.215   3.289   4.365  0.0040  0.2752 -0.1367
  726W        W 4926   9.766   5.163   2.189  0.1660  0.0107 -0.0605
  727W        W 4927   4.639   8.374  11.331  0.1556 -0.2247  0.1291
  728W        W 4928  10.490   4.996  13.131 -0.0726 -0.0948 -0.0930
  729W        W 4929   6.415   5.664   4.352 -0.3882  0.0103  0.0422
  730W        W 4930   1.200   7.137  13.222 -0.0054 -0.0626 -0.0558
  731W        W 4931   7.630   3.327   2.251  0.0809 -0.0212  0.2475
  732W        W 4932   9.678   3.074   2.748 -0.0829 -0.0780  0.0377
  733W        W 4933   6.523   2.006   2.324  0.2411  0.0529  0.3226
  734W        W 4934   0.232   1.136  10.973 -0.0099 -0.2585 -0.2781
  735W        W 4935   7.582   1.578   4.069  0.0165  0.1237 -0.0983
  736W        W 4936   1.704   1.909  11.308  0.1584 -0.1487 -0.3687
  737W        W 4937   0.840   7.329   0.614 -0.1306 -0.2271  0.0002
  738W        W 4938   1.957   7.374  11.385 -0.1169 -0.1541 -0.3734
  739W        W 4939   5.207   4.946   9.376  0.4204 -0.2185 -0.0738
  740W        W 4940   6.605   6.923   4.677 -0.1538  0.2508 -0.1145
  741W        W 4941   2.688   7.465   3.456  0.0680 -0.2203 -0.1410
  742W        W 4942   8.793   8.679   1.067  0.1183  0.0124  0.2167
  743W        W 4943   9.516   2.580   2.766 -0.0240  0.0294 -0.3043
  744W        W 4944   1.853   1.935   1.212 -0.0790  0.5275  0.2901
  745W        W 4945  10.320   5.678  12.061 -0.0938 -0.1510  0.2044
  746W        W 4946   3.073   0.308   0.388  0.0560 -0.2168 -0.0700
  747W        W 4947   7.079   1.080   8.894  0.1356  0.0260  0.0703
  748W        W 4948   1.786   7.262  12.604  0.0488  0.0261 -0.2306
  749W        W 4949   1.401   5.312   8.879  0.0095  0.0017  0.3761
  750W        W 4950   6.651   2.968  11.218 -0.0648  0.1057  0.0351
  751W        W 4951   5.748   7.978   2.798  0.0630 -0.2306 -0.3513
  752W        W 4952   8.492   0.628  10.324 -0.0394 -0.1959 -0.2873
  753W        W 4953   6.023   6.910   1.333 -0.1384  0.1357  0.0978
  754W        W 4954   9.605   6.162   4.005 -0.0595  0.1629  0.0141
  755W        W 4955   8.471   0.924  11.333  0.4829  0.1755 -0.4413
  756W        W 4956   9.936   9.598   3.296 -0.1892 -0.2243  0.2272
  757W        W 4957   1.031   7.654   3.471  0.1636 -0.0004  0.1244
  758W        W 4958   7.231   9.549  13.027  0.1561 -0.1184  0.0239
  759W        W 4959   4.770   6.823   0.199 -0.0494  0.2915 -0.0500
  760W        W 4960   0.397   6.961  10.106 -0.0501 -0.3588  0.1415
  761W        W 4961   9.670   4.071  11.728  0.1537 -0.3248 -0.0534
  762W        W 4962   2.367   3.515  11.684 -0.0622 -0.1548 -0.1688
  763W        W 4963   8.814   2.712  10.778 -0.2061 -0.1105 -0.1796
  764W        W 4964   7.208   4.161   2.730 -0.1346  0.2952 -0.1250
  765W        W 4965   6.300   3.801   3.442 -0.0258  0.1739  0.0129
  766W        W 4966  10.279   1.545   9.969  0.0260  0.3349 -0.3377
  767W        W 4967   1.480   9.387   3.665 -0.0007  0.1690  0.0637
  768W        W 4968   1.146   0.452   0.499 -0.1296 -0.1325  0.2820
  769W        W 4969   0.756   6.091   3.558  0.0851 -0.0794  0.0479
  770W        W 4970   0.780   3.043  12.763 -0.2080 -0.1083  0.0671
  771W        W 4971   7.302   8.512   0.689  0.1298 -0.0978  0.2586
  772W        W 4972   4.247   1.573   9.612  0.1332  0.3956 -0.0840
  773W        W 4973  10.189   6.330  10.413  0.1823 -0.0351 -0.1658
  774W        W 4974   7.941   0.839   0.331  0.1408  0.1669  0.0517
  775W        W 4975   2.790   4.029  13.006 -0.2087 -0.2291  0.1918
  776W        W 4976  10.280   8.752  10.092  0.1075  0.0610 -0.2160
  777W        W 4977   7.058   6.869  11.573  0.1252 -0.0025 -0.0030
  778W        W 4978   3.930   2.342   2.845 -0.1366  0.0865  0.3183
  779W        W 4979   6.977   1.356  13.153  0.0161  0.0401 -0.4604
  780W        W 4980   0.970   6.644  10.767  0.0127 -0.0461  0.4752
  781W        W 4981   5.482   9.174  12.365 -0.1136  0.0039 -0.0146
  782W        W 4982   1.730   1.327   2.041  0.1872 -0.0479  0.3560
  783W        W 4983   0.124   9.743  10.031  0.0281 -0.0709  0.2499
  784W        W 4984   6.330   5.652  13.274  0.0306 -0.1991 -0.0000
  785W        W 4985   6.456   3.900   4.359  0.1730 -0.0259  0.1082
  786W        W 4986   1.956   8.114   3.497 -0.2803 -0.1940  0.0890
  787W        W 4987   7.138   3.356   0.537  0.2109  0.0799  0.1155
  788W        W 4988   8.728   3.198   3.741 -0.0590  0.0426  0.1182
  789W        W 4989   1.698   2.103   0.760 -0.0085  0.2584  0.2641
  790W        W 4990   4.012   4.543   9.103 -0.2440  0.0969  0.4094
  791W        W 4991   1.302   8.482   4.368 -0.1862 -0.1960  0.0887
  792W        W 4992   1.584  10.217   1.872  0.0793 -0.2381 -0.3507
  793W        W 4993   0.456   7.773  10.275  0.0416 -0.1145  0.0173
  794W        W 4994   7.640   6.003  10.557 -0.0546  0.0212 -0.2501
  795W        W 4995   7.728   7.862  11.476 -0.2485 -0.0268  0.3220
  796W        W 4996   7.026  10.376   3.877 -0.1071 -0.0056  0.0291
  797W        W 4997   3.800   4.012  11.969 -0.0097 -0.1422 -0.0355
  798W        W 4998   6.525   3.266   0.583  0.0598 -0.0477  0.0141
  799W        W 4999   2.713   6.425  12.733  0.0488  0.2283  0.0068
  800W        W 5000   6.173   4.132   3.841  0.1553  0.1795  0.0892
  801W        W 5001   8.093   9.436   0.872 -0.1980  0.0858 -0.1167
  802W        W 5002   3.686   1.363   3.127 -0.2817  0.1518  0.1150
  803W        W 5003   5.404   7.909  12.719 -0.1682 -0.0863 -0.0191
  804W        W 5004   3.999   0.922   3.117  0.3617 -0.0564 -0.2509
  805W        W 5005   6.590   1.913   3.651  0.0331  0.0674 -0.3685
  806W        W 5006   4.087   1.377  11.399 -0.1850 -0.0356  0.2358
  807W        W 5007   3.456   7.559   3.152  0.1112 -0.0956  0.0253
  808W        W 5008   8.299   9.340  12.920 -0.0308  0.1576 -0.0503
  809W        W 5009   4.147   8.073   2.234  0.1973 -0.0862  0.0485
  810W        W 5010   0.149   7.650   3.505 -0.0714 -0.1284 -0.2098
  811W        W 5011  10.352   6.495  13.160 -0.2886 -0.0897 -0.0836
  812W        W 5012   2.485   4.465   9.400  0.0402 -0.2753 -0.0609
  813W        W 5013   0.267   5.871  11.931  0.0796  0.0380 -0.1520
  814W        W 5014   1.837   9.911   2.234  0.1208 -0.0622  0.1993
  815W        W 5015  10.241   1.992   1.381 -0.0112  0.0833 -0.2080
  816W        W 5016   7.996   0.631  11.144 -0.1478  0.1293 -0.1954
  817W        W 5017   4.803   8.216   9.827 -0.1249  0.0328 -0.1952
  818W        W 5018   1.099   7.393   1.639 -0.3165 -0.0345  0.0150
  819W        W 5019   4.524   7.730  12.251 -0.0643  0.2137 -0.2726
  820W        W 5020   2.575   8.608   8.935  0.1968 -0.1260 -0.0743
  821W        W 5021   6.263   3.987  10.818 -0.0968  0.0423 -0.0419
  822W        W 5022   5.389   1.061   2.501 -0.0341 -0.0440  0.0278
  823W        W 5023   7.076   6.497   2.735  0.1158 -0.2340  0.1503
  824W        W 5024   6.780   6.829   0.445 -0.2219 -0.1613  0.3436
  825W        W 5025   8.045   9.595   3.224  0.1663 -0.1789  0.1174
  826W        W 5026   1.286   9.306   9.023  0.0226 -0.0136 -0.2700
  827W        W 5027   6.018   4.234   4.367 -0.1597  0.0007  0.5127
  828W        W 5028   4.674   1.099   3.722 -0.1600  0.0477  0.1235
  829W        W 5029   6.461   8.436   4.392  0.2414 -0.1421  0.0188
  830W        W 5030  10.332   3.556  13.223  0.0215 -0.3485  0.1526
  831W        W 5031   1.740   0.884   1.700 -0.2462 -0.0681  0.0651
  832W        W 5032   7.167   6.930   5.119  0.0556  0.0105  0.0128
  833W        W 5033   0.311   3.724  10.298  0.3770  0.0757  0.0418
  834W        W 5034  10.432   2.861  12.866  0.1802 -0.0294  0.1926
  835W        W 5035   5.681   2.637   2.606  0.3083  0.2557  0.2455
  836W        W 5036   7.432   6.336   2.319 -0.2664 -0.1060  0.3203
  837W        W 5037   6.317   4.195   8.684 -0.0010  0.0232  0.3032
  838W        W 5038   3.494   6.437  11.960  0.3665  0.0161  0.3411
  839W        W 5039   7.555   4.925  11.812 -0.0195 -0.2045 -0.0113
  840W        W 5040   2.274   1.614  10.517 -0.3508  0.0713 -0.1325
  841W        W 5041   7.166   9.368   2.031 -0.0332  0.3230 -0.2204
  842W        W 5042   8.509   6.831  10.637 -0.2733 -0.3126 -0.0204
  843W        W 5043   9.718   1.470   2.008  0.0619  0.1264 -0.0368
  844W        W 5044   1.411   8.798   3.779  0.1485  0.0387  0.2280
  845W        W 5045   0.488   2.229   0.346  0.0231  0.2556 -0.0381
  846W        W 5046   7.757   4.429  11.071 -0.2893  0.1677  0.3538
  847W        W 5047   4.323   0.820   1.184 -0.1248  0.6835  0.2129
  848W        W 5048   5.767   3.577  13.229  0.3305  0.0245 -0.2274
  849W        W 5049   0.150   5.408   1.237 -0.1008 -0.1863 -0.1910
  850W        W 5050   7.217   9.445   1.122 -0.3078 -0.1758  0.2397
  851W        W 5051  10.479   9.256  11.453 -0.0995 -0.1108 -0.0872
  852W        W 5052   0.586   3.343   9.570 -0.1479 -0.0729  0.0701
  853W        W 5053   7.213   6.771  12.105  0.3380 -0.1978 -0.1363
  854W        W 5054   8.073   2.231   2.083 -0.0231 -0.0804 -0.0717
  855W        W 5055   2.402   9.491  12.093 -0.0643 -0.4127  0.0284
  856W        W 5056   0.101   7.081  12.373 -0.0792  0.3156 -0.3743
  857W        W 5057   4.951   2.407  10.455 -0.0363  0.1025  0.2343
  858W        W 5058   3.494   0.708   3.225  0.2218  0.1411 -0.1723
  859W        W 5059   8.210   8.864  10.825 -0.0414  0.2219 -0.1673
  860W        W 5060   4.466   5.176   0.764 -0.0971  0.0165  0.2857
  861W        W 5061  10.398   7.901   2.543 -0.2755 -0.2248 -0.0183
  862W        W 5062   0.080   9.573   9.528  0.0075 -0.1233 -0.2645
  863W        W 5063   4.049   0.794  10.531  0.0165  0.0019 -0.1554
  864W        W 5064   6.657  10.283  10.499  0.0079 -0.2994  0.0361
  865W        W 5065   8.070   3.356   0.772 -0.2133 -0.0076  0.1539
  866W        W 5066   3.215   1.087  13.156  0.2323  0.0886 -0.0178
  867W        W 5067   8.661   2.666   2.646 -0.1122  0.0319  0.2419
  868W        W 5068   5.283   3.902   0.558 -0.0010  0.2650 -0.1744
  869W        W 5069   5.180   5.803   2.169  0.1310  0.1019 -0.2520
  870W        W 5070   4.265   8.583   9.521  0.0594  0.1981 -0.1645
  871W        W 5071   1.844   5.147  11.429 -0.1375 -0.0691 -0.1022
  872W        W 5072   0.246   5.526  12.290 -0.2176 -0.1291  0.0178
  873W        W 5073   1.611   6.159   1.764 -0.0878 -0.1993 -0.0490
  874W        W 5074   7.234   1.837  12.277  0.1972 -0.0688  0.0584
  875W        W 5075   1.403  10.273  11.786  0.2553 -0.5053 -0.0715
  876W        W 5076   2.851   8.184   9.765 -0.0242  0.2380 -0.1239
  877W        W 5077   1.361   0.630   1.466  0.2610  0.0930 -0.3159
  878W        W 5078  10.211   1.108  11.543 -0.2842 -0.4133 -0.0771
  879W        W 5079   4.964   5.739  13.074  0.1918  0.1313 -0.0982
  880W        W 5080   1.407   2.143   9.299 -0.0878  0.1518 -0.0946
  881W        W 5081   5.119   9.096   1.207 -0.1491 -0.3870  0.0833
  882W        W 5082   1.194   6.026   9.946  0.2050 -0.2397 -0.0818
  883W        W 5083   8.966   3.001   4.176  0.0970  0.0078  0.0224
  884W        W 5084   6.155   9.156  11.701 -0.0590  0.2839 -0.1813
  885W        W 5085  10.269   2.100   0.918  0.0475  0.1015  0.1204
  886W        W 5086   6.853   3.821   2.716 -0.1745 -0.0387 -0.0534
  887W        W 5087   3.673   4.114   3.242  0.0976 -0.2096  0.3619
  888W        W 5088   9.875   6.645  12.893 -0.0368  0.0211 -0.1404
  889W        W 5089   1.473   5.415   0.554  0.0004  0.0198  0.1584
  890W        W 5090   6.609   2.909   2.795 -0.0030  0.0450 -0.1138
  891W        W 5091   7.448   7.672   0.142  0.0769  0.1154  0.3273
  892W        W 5092  10.334   2.346   8.762 -0.3250  0.0412  0.2894
  893W        W 5093  10.015   0.284   3.925 -0.1858  0.0037  0.0684
  894W        W 5094  10.492   3.578   4.075 -0.1120  0.1727  0.1933
  895W        W 5095   2.751   6.269   1.611 -0.2492  0.1016  0.0044
  896W        W 5096   0.141   9.242  10.339 -0.1870 -0.0485  0.0571
  897W        W 5097   4.872   0.562   0.708  0.0276 -0.2415 -0.0381
  898W        W 5098   3.209   3.074  11.084  0.0436  0.1452  0.1957
  899W        W 5099   5.306   9.802   0.080 -0.3500 -0.3817 -0.1608
  900W        W 5100   6.300   7.809   3.370  0.3134 -0.2650 -0.1051
  901W        W 5101   0.661   1.073   1.290 -0.0749  0.1613 -0.0559
  902W        W 5102   8.802   2.727  12.110 -0.1009 -0.2937  0.0647
  903W        W 5103   0.182   0.548  10.973 -0.3891 -0.2474  0.1130
  904W        W 5104   1.121   3.282  11.830  0.2427  0.3810 -0.2078
  905W        W 5105   8.704   6.356   3.073  0.0950 -0.0094 -0.0280
  906W        W 5106   3.525   6.117  11.505  0.3612 -0.3093 -0.0135
  907W        W 5107   5.402   5.899   3.808  0.1584  0.2012  0.0973
  908W        W 5108   1.379   7.874  10.695  0.0978 -0.0109 -0.2551
  909W        W 5109  10.198   0.953  12.359 -0.1571 -0.3453  0.0301
  910W        W 5110   7.802  10.056   9.135 -0.1517  0.1329  0.0440
  911W        W 5111   4.817   0.276  10.475 -0.1835 -0.1188 -0.1809
  912W        W 5112   1.985   0.565   0.740  0.1844  0.2125  0.0923
  913W        W 5113   7.474   0.665  11.285 -0.2165  0.0756 -0.2106
  914W        W 5114   6.980   3.027  12.491  0.0618 -0.0312 -0.0687
  915W        W 5115  10.381   6.947   1.254 -0.0691 -0.2250 -0.1964
  916W        W 5116   0.719   6.230   0.025 -0.1561 -0.1143  0.4264
  917W        W 5117   3.619   6.059   0.020 -0.0499  0.2336 -0.0758
  918W        W 5118   5.929   0.894   0.650  0.1679  0.4887  0.1165
  919W        W 5119   9.254   0.809   9.192  0.1884  0.1178 -0.2081
  920W        W 5120   9.356   7.305   1.771  0.0286  0.0681 -0.1133
  921W        W 5121   9.459   6.847  13.110  0.0211 -0.0741 -0.1027
  922W        W 5122   1.835   9.422  11.286  0.1390  0.0512  0.0305
  923W        W 5123   1.088   0.081   2.699 -0.1344  0.3481 -0.2350
  924W        W 5124   1.280   2.965   1.796  0.3037 -0.0268  0.1188
  925W        W 5125   0.315   5.031   9.507 -0.1816 -0.1417  0.3023
  926W        W 5126   5.014   3.013   0.651 -0.0098 -0.0620 -0.2191
  927W        W 5127   5.759   2.920   3.051 -0.1179 -0.2744  0.1465
  928W        W 5128   2.049   8.931   1.047  0.1954  0.0664 -0.0469
  929W        W 5129   3.434   4.762  10.369  0.0317 -0.0665 -0.1728
  930W        W 5130   1.369   1.391  11.236 -0.2023  0.0705 -0.2577
  931W        W 5131   9.193   7.288   4.500  0.4029  0.2677 -0.1720
  932W        W 5132   9.151   7.281   3.143 -0.0448 -0.3468  0.1223
  933W        W 5133   1.155   1.413   2.316 -0.0120 -0.1098 -0.1065
  934W        W 5134   8.054  10.139  10.410  0.3926 -0.1486 -0.1614
  935W        W 5135   9.681   4.939  11.509 -0.0513 -0.3472 -0.3844
  936W        W 5136   1.637   3.734   4.111  0.1735 -0.1164  0.1632
  937W        W 5137   4.520   6.545   1.064  0.1278 -0.4089  0.2380
  938W        W 5138   6.940   8.433   3.819  0.2119  0.0181  0.1857
  939W        W 5139   5.084  10.305   0.361  0.1741 -0.2707  0.1087
  940W        W 5140   3.779   4.262   2.702 -0.1868  0.1256  0.0615
  941W        W 5141   6.226   0.204   9.677 -0.0611  0.1113 -0.2187
  942W        W 5142   8.150  10.173  11.292 -0.2679  0.1420 -0.1183
  943W        W 5143   4.577   8.855   2.578 -0.0261 -0.1121  0.0439
  944W        W 5144   4.399   4.631   9.460  0.0171  0.0353 -0.1200
  945W        W 5145   0.586   1.949   3.685  0.0484  0.2166  0.0919
  946W        W 5146   9.395   8.118   3.540 -0.1828  0.1149  0.1744
  947W        W 5147   6.278   4.378  10.305 -0.0469 -0.1619  0.1215
  948W        W 5148   2.500   1.139  10.726 -0.1781 -0.1465 -0.2277
  949W        W 5149   0.057   1.625   1.583 -0.1322 -0.1584  0.4594
  950W        W 5150   6.649   5.152   3.582 -0.0346 -0.0338 -0.1198
  951W        W 5151   0.748   6.215   9.589  0.0161  0.3844 -0.2763
  952W        W 5152   8.865   4.574  12.289  0.1393 -0.3495  0.2072
  953W        W 5153   8.493   1.413   1.580 -0.2106  0.1285 -0.0555
  954W        W 5154   6.959   9.456   4.788  0.1458  0.0947 -0.2102
  955W        W 5155   8.154   1.453   9.912  0.1902  0.2465  0.0056
  956W        W 5156   4.970   7.012   9.804  0.0279 -0.3507 -0.3760
  957W        W 5157   1.622   7.536  11.790 -0.1907 -0.0669 -0.3959
  958W        W 5158   5.207   3.444   9.175 -0.4402  0.2195 -0.1679
  959W        W 5159   4.889   8.844   1.557 -0.2504  0.1117 -0.0790
  960W        W 5160   0.167   5.172  11.394  0.1805 -0.1838  0.0332
  961W        W 5161   7.024   4.042   2.271  0.3626 -0.2690  0.2216
  962W        W 5162   4.166   1.553  10.107  0.1346  0.0637  0.0616
  963W        W 5163   0.228   6.303  12.369  0.2125  0.3223  0.4463
  964W        W 5164   6.517   5.767   2.680  0.0343  0.0741  0.0810
  965W        W 5165   9.598   0.425  11.588 -0.1496  0.0257  0.3868
  966W        W 5166   5.598   3.422   3.002 -0.2461 -0.1103  0.0885
  967W        W 5167   5.397   2.783  12.263 -0.0706  0.1224  0.0137
  968W        W 5168   1.796   9.144   8.992 -0.0098 -0.1670 -0.1727
  969W        W 5169   8.894   8.934   1.639 -0.0191  0.0686  0.1330
  970W        W 5170   1.186   3.276   8.859  0.0237 -0.2743  0.0116
  971W        W 5171   5.814   1.557   1.701  0.2237  0.3419 -0.0712
  972W        W 5172   5.521   6.110   9.844  0.3290  0.2499  0.1297
  973W        W 5173   4.115  10.162  10.049  0.3330 -0.0321 -0.2641
  974W        W 5174   7.236   0.625  12.730 -0.3042  0.0942  0.1726
  975W        W 5175   5.976   7.803   3.962 -0.4461  0.2937 -0.2327
  976W        W 5176   5.139   0.843   1.123  0.1587 -0.4134  0.2676
  977W        W 5177   6.641   2.708  12.177  0.2849  0.1187 -0.1953
  978W        W 5178   1.850   8.001   1.799 -0.2152  0.0938  0.0425
  979W        W 5179   5.890   1.267  11.487 -0.1360  0.3041  0.2378
  980W        W 5180   4.240   2.877  10.089 -0.3440  0.1366 -0.2066
  981W        W 5181   8.165   4.147  11.109 -0.1229 -0.0352  0.0030
  982W        W 5182   2.805   7.638   0.894 -0.0811  0.2378  0.1330
  983W        W 5183   7.791   8.691   9.095  0.0062 -0.1463 -0.4230
  984W        W 5184   0.687   1.874   0.681 -0.3074 -0.3212 -0.2610
  985W        W 5185   7.511   0.629   2.716  0.1080  0.1370  0.3795
  986W        W 5186   0.880   3.212  10.997 -0.1668 -0.0500 -0.2838
  987W        W 5187   1.824   6.764   2.984  0.0585 -0.2062  0.1764
  988W        W 5188   8.885   5.928   3.291  0.2604  0.2195 -0.3435
  989W        W 5189   9.423   7.917   0.245  0.0504  0.1649 -0.1486
  990W        W 5190   1.172  10.166   4.905 -0.0738 -0.0279 -0.0223
  991W        W 5191   3.472   4.526   0.334  0.2878  0.3002  0.1621
  992W        W 5192   8.718   1.387   0.612 -0.1948 -0.1791  0.2188
  993W        W 5193   5.757   6.393  12.267 -0.2210  0.3972 -0.1678
  994W        W 5194   9.173   5.244   3.875  0.0609  0.3438 -0.3085
  995W        W 5195   6.770   3.912  13.045 -0.0999 -0.1753  0.0094
  996W        W 5196   5.832   5.248  11.476 -0.2339 -0.0855 -0.4345
  997W        W 5197   5.628   2.111  12.488 -0.1273 -0.0401  0.2472
  998W        W 5198   2.522   9.690  11.199  0.1512  0.2741 -0.0003
  999W        W 5199   4.552   6.198   4.042 -0.1040 -0.1970 -0.1770
 1000W        W 5200   0.684   2.148   1.676  0.1663  0.2339  0.0361
 1001W        W 5201   9.547   9.923  13.313  0.2083 -0.1542  0.0113
 1002W        W 5202   7.790   0.868   0.890 -0.1567 -0.2817  0.1861
 1003W        W 5203   8.106   0.103   1.129  0.4264 -0.1139  0.4242
 1004W        W 5204   7.856   3.068   2.721  0.0392  0.1427 -0.1064
 1005W        W 5205   0.580   1.324  10.646  0.1505  0.1721  0.0729
 1006W        W 5206  10.447   6.072   9.989  0.0334  0.0997 -0.0628
 1007W        W 5207   4.845   5.032   2.995 -0.0708  0.1623 -0.0916
 1008W        W 5208   7.863   5.133  11.457 -0.3552 -0.2804  0.1947
 1009W        W 5209   5.909   7.919   8.954  0.0685 -0.0403  0.0179
 1010W        W 5210   5.017   8.542  11.064  0.1139 -0.3277  0.3911
 1011W        W 5211   9.199   8.941  13.230  0.0693  0.0100 -0.1970
 1012W        W 5212   3.950   6.781  11.887 -0.0618 -0.2319 -0.1102
 1013W        W 5213   8.423   8.081   8.252  0.2077  0.1510 -0.3705
 1014W        W 5214   6.529   6.837   1.414  0.2169  0.1042 -0.0497
 1015W        W 5215  10.093   0.456  11.575  0.0230  0.1417  0.1596
 1016W        W 5216   7.673   9.941   3.196  0.3159 -0.1311  0.4196
 1017W        W 5217   5.307   6.863   2.354 -0.0461 -0.0500 -0.0412
 1018W        W 5218   9.640   5.420   0.093 -0.3382  0.3030  0.4096
 1019W        W 5219   3.084   7.801  12.072 -0.3314 -0.1922  0.5418
 1020W        W 5220   5.013   5.837   1.113  0.1817  0.5282  0.0781
 1021W        W 5221   7.432   2.663   9.273 -0.2149 -0.0959 -0.0469
 1022W        W 5222   8.560   2.789   1.524 -0.0424  0.0464  0.1607
 1023W        W 5223   0.205   8.496  10.338 -0.2100 -0.0010  0.0282
 1024W        W 5224   0.588   9.243  11.413 -0.0993  0.0999 -0.6380
 1025W        W 5225   4.070   6.169   0.489  0.2454  0.0101 -0.0345
 1026W        W 5226   2.993   6.908  10.455  0.0023  0.3642  0.0557
 1027W        W 5227   9.748   3.873   3.847  0.1423 -0.1751  0.2784
 1028W        W 5228   7.214   5.972  10.296  0.3382  0.0471  0.0209
 1029W        W 5229   0.330   2.674  13.137  0.3015  0.1596 -0.0612
 1030W        W 5230   1.255  10.250  13.306 -0.2787 -0.2870  0.1609
 1031W        W 5231   3.244   8.527   9.976 -0.1530  0.0491 -0.0476
 1032W        W 5232   3.967   0.250   2.390  0.2992  0.0130 -0.1992
 1033W        W 5233   9.893   6.566  10.990 -0.3729 -0.0154 -0.0492
 1034W        W 5234   8.938   9.474   3.391 -0.1821  0.4986  0.0770
 1035W        W 5235   0.064   8.572   9.705  0.2035 -0.1730  0.0630
 1036W        W 5236   2.994   9.496   9.804  0.1655  0.2391 -0.1574
 1037W        W 5237   8.101   5.468  11.762  0.1115 -0.2383  0.1200
 1038W        W 5238   8.297   6.766   3.781  0.2842 -0.0806 -0.0443
 1039W        W 5239   8.254   5.141  10.067  0.3570 -0.1795  0.2188
 1040W        W 5240   1.565   7.361  11.063 -0.0530  0.1204 -0.0406
 1041W        W 5241   2.466   2.486   1.778  0.1182 -0.0129  0.2180
 1042W        W 5242   9.011   6.599  13.005  0.1776 -0.0392 -0.1651
 1043W        W 5243   1.162   9.225  10.591 -0.3719  0.0062  0.1759
 1044W        W 5244   2.719   9.036   2.957  0.0340 -0.0596  0.1206
 1045W        W 5245   0.011   2.699   2.381  0.2538 -0.2868 -0.3630
 1046W        W 5246  10.221   4.194   1.264 -0.0147  0.0906 -0.3176
 1047W        W 5247   4.020   2.760   0.948  0.0029  0.1693 -0.0303
 1048W        W 5248   9.295   5.527  12.862 -0.0042  0.0578  0.2171
 1049W        W 5249   4.224   2.174  12.051  0.3152 -0.0516 -0.0081
 1050W        W 5250   2.839   6.774   2.406 -0.0253  0.0018 -0.1240
 1051W        W 5251   0.909   3.295   2.024 -0.1235  0.0057 -0.0201
 1052W        W 5252   9.747   6.482   1.903  0.0146 -0.2119  0.0706
 1053W        W 5253   5.735   7.229   0.666  0.1667  0.0482 -0.0694
 1054W        W 5254   9.342   1.635  11.495 -0.0731 -0.1973  0.0494
 1055W        W 5255   8.186  10.372   0.677 -0.2199  0.0826 -0.2025
 1056W        W 5256   6.769   8.490  11.505  0.3390  0.0663 -0.0990
 1057W        W 5257   9.143   9.118   1.235  0.2326  0.1396 -0.3250
 1058W        W 5258   5.260   5.204   9.914 -0.2210  0.1591 -0.2040
 1059W        W 5259   3.121   5.817   4.769  0.1937 -0.1815 -0.1769
 1060W        W 5260   0.566   3.429   4.084  0.1807 -0.2859 -0.2380
 1061W        W 5261   2.920   0.657   2.116  0.2462 -0.1675  0.1441
 1062W        W 5262   0.101   8.828   4.125  0.0060 -0.1073 -0.1621
 1063W        W 5263   2.919   3.940   2.640  0.3669 -0.0509 -0.2319
 1064W        W 5264   7.084   0.243  10.691 -0.2158 -0.1961  0.1852
 1065W        W 5265   0.383   7.965   1.863  0.2123 -0.0528 -0.0773
 1066W        W 5266   7.967   0.051  10.114  0.0559  0.1579  0.1039
 1067W        W 5267   6.956   6.839   1.787  0.1126 -0.1488 -0.2580
 1068W        W 5268   6.471   2.922  12.603 -0.1759  0.0539  0.0327
 1069W        W 5269   9.345   1.141   1.720 -0.1257  0.0956 -0.3542
 1070W        W 5270   9.581   9.365   1.340  0.0649 -0.1890 -0.2592
 1071W        W 5271   8.021   1.837   2.451 -0.0044 -0.1450  0.1089
 1072W        W 5272   0.381   8.604  13.226  0.0735 -0.1374 -0.0586
 1073W        W 5273   7.794   6.446   0.827  0.1724 -0.0887 -0.2965
 1074W        W 5274   8.436   2.163   9.071  0.1756 -0.2022  0.0829
 1075W        W 5275   6.709   2.729   4.096  0.2620  0.2264  0.3493
 1076W        W 5276  10.229   5.415  13.098  0.1194 -0.1883  0.1009
 1077W        W 5277   0.451   8.439   4.075 -0.0741  0.2654  0.1852
 1078W        W 5278   6.883   4.663  12.657 -0.0359 -0.1070  0.0930
 1079W        W 5279   2.879   8.620   9.641 -0.2097 -0.1562  0.1296
 1080W        W 5280   7.052  10.475  10.266 -0.0162 -0.0294 -0.1378
 1081W        W 5281   8.407   7.825  10.615 -0.1319 -0.0158  0.1880
 1082W        W 5282   4.302   0.202   2.849 -0.2192 -0.0648  0.1363
 1083W        W 5283   0.916  10.250   9.717  0.4377  0.1230  0.0172
 1084W        W 5284   1.232   9.858   1.091  0.1705  0.0390 -0.4338
 1085W        W 5285   0.994   0.445  11.634  0.1220 -0.4102  0.0707
 1086W        W 5286   5.699   7.841  11.361  0.0363 -0.0854 -0.1753
 1087W        W 5287   6.372   3.893  10.338 -0.1344 -0.0450  0.1292
 1088W        W 5288   4.958   9.861  10.694 -0.2424 -0.3227  0.0239
 1089W        W 5289   0.564   4.055  11.313 -0.0804 -0.2471 -0.0690
 1090W        W 5290   6.034   4.790   1.286  0.0384  0.0347 -0.1720
 1091W        W 5291   1.523   4.141  11.753 -0.2520  0.2574  0.3070
 1092W        W 5292   2.521   0.005  10.682  0.2913  0.0211  0.2135
 1093W        W 5293   6.176  10.065   9.661 -0.3292  0.0686  0.1860
 1094W        W 5294   8.567   4.247   0.675 -0.0587 -0.1604  0.0283
 1095W        W 5295   2.220   1.410  12.097 -0.1046 -0.2793  0.0596
 1096W        W 5296   9.705   8.356  10.498  0.1185  0.2622  0.3081
 1097W        W 5297   8.892   1.336  13.376  0.1430 -0.0953  0.0454
 1098W        W 5298   6.640   9.218   2.089  0.0235  0.0281 -0.1935
 1099W        W 5299   9.800   1.359   8.993  0.2892  0.2815  0.1417
 1100W        W 5300   7.485   7.235   5.346  0.2946  0.0597 -0.2174
 1101W        W 5301   2.494   0.554  12.099 -0.1921  0.1166  0.0614
 1102W        W 5302   6.396   3.871   5.237 -0.4852  0.2779 -0.1190
 1103W        W 5303   9.718   3.631   8.560  0.0049 -0.0303  0.1486
 1104W        W 5304   1.517   0.538  10.027  0.0412 -0.2071 -0.1112
 1105W        W 5305   0.981   0.356   9.707  0.0260 -0.0501  0.0914
 1106W        W 5306   3.544   8.115   9.048 -0.1464 -0.0469 -0.0394
 1107W        W 5307   2.134   7.600   3.541  0.1583 -0.1133  0.1209
 1108W        W 5308   6.072   4.492   2.962 -0.1959 -0.0244  0.2060
 1109W        W 5309   3.155   8.157   1.722  0.2685  0.0405 -0.1425
 1110W        W 5310   9.601   4.915   9.760  0.1643 -0.0401  0.2824
 1111W        W 5311   1.837   7.038   3.367 -0.3628 -0.0212 -0.1275
 1112W        W 5312   2.686   2.106   1.587  0.2625 -0.1655 -0.0134
 1113W        W 5313   1.916   8.496   0.343  0.1416  0.3557 -0.1244
 1114W        W 5314   8.414   3.515  12.376 -0.2360  0.1967  0.3649
 1115W        W 5315   3.198   5.023  11.210 -0.0504 -0.1901  0.1452
 1116W        W 5316   5.692   3.200  10.549 -0.0542 -0.1683 -0.0718
 1117W        W 5317   3.646   5.385   2.257  0.1147  0.3745 -0.0772
 1118W        W 5318   4.039   4.857   0.899  0.2020 -0.1244  0.2926
 1119W        W 5319   2.333   2.102   4.024  0.0788  0.1818 -0.0151
 1120W        W 5320   2.050   3.776   1.728 -0.0076 -0.1137  0.0032
 1121W        W 5321   2.384   5.276   0.053  0.1477  0.0382  0.1764
 1122W        W 5322   6.243   3.438   2.208 -0.2047  0.2317 -0.2535
 1123W        W 5323   6.522   3.322   1.257 -0.1126  0.3828 -0.0029
 1124W        W 5324   6.379   0.528   1.782  0.2084 -0.3520  0.1373
 1125W        W 5325   3.275   5.190  12.124  0.2870 -0.1886  0.3773
 1126W        W 5326   7.860   8.519   0.532  0.2879 -0.3195 -0.0893
 1127W        W 5327   6.229   4.248   2.476 -0.1641 -0.0504  0.0966
 1128W        W 5328   1.980   3.799   3.199  0.0565  0.0806  0.1961
 1129W        W 5329  10.155   8.262   0.032  0.1653 -0.1737  0.0511
 1130W        W 5330   5.468   5.865   9.351  0.0839  0.1978 -0.1747
 1131W        W 5331   0.693   0.836   3.038  0.3109  0.0735  0.0046
 1132W        W 5332   3.343   2.730  11.905 -0.0470 -0.0955  0.2761
 1133W        W 5333  10.000   7.697  10.263 -0.0605  0.0783  0.0878
 1134W        W 5334   8.831   8.949  11.672 -0.0782 -0.3328 -0.0270
 1135W        W 5335   8.474   0.569   1.518  0.0868 -0.1420 -0.0761
 1136W        W 5336   9.586   8.399  11.410  0.0811 -0.2131 -0.0825
 1137W        W 5337   2.120   4.291   3.426 -0.3200  0.1751 -0.4152
 1138W        W 5338   7.547   0.068   1.410  0.0181  0.2907 -0.2023
 1139W        W 5339   3.771   3.889   8.516  0.3691  0.0424 -0.1124
 1140W        W 5340   1.686   5.198  10.376  0.1585 -0.2971  0.0041
 1141W        W 5341   1.706   7.832  12.192  0.2260 -0.2151 -0.2580
 1142W        W 5342   1.468   1.390   0.417 -0.0587 -0.2401  0.1447
 1143W        W 5343   7.992   9.463  12.001  0.2866  0.0559 -0.2620
 1144W        W 5344   3.752   0.141  11.966  0.2510 -0.0625 -0.0362
 1145W        W 5345   0.486   1.426  12.124 -0.0896  0.2153 -0.0178
 1146W        W 5346   3.247   9.465   3.811  0.1130 -0.0472 -0.2777
 1147W        W 5347   7.089   7.427   9.294  0.2212  0.0731 -0.1074
 1148W        W 5348   7.727   5.166  10.008 -0.0491 -0.0179 -0.4767
 1149W        W 5349   6.111   4.352   1.822 -0.1951  0.1191  0.0148
 1150W        W 5350   9.827  10.208  12.887 -0.1214 -0.0423  0.1090
 1151W        W 5351  10.009   5.826   3.894  0.1501  0.0453  0.0487
 1152W        W 5352   5.777   2.017   2.517  0.0571 -0.0805 -0.1253
 1153W        W 5353   9.814   8.532  10.045  0.1093 -0.0278  0.0999
 1154W        W 5354   6.059  10.200   1.486 -0.0301 -0.1445 -0.2952
 1155W        W 5355   0.334  10.389   1.515 -0.1684  0.1725 -0.0051
 1156W        W 5356   8.884   9.826  10.746  0.1612  0.1101  0.0946
 1157W        W 5357   8.171   0.874   2.777  0.0726 -0.3115  0.0060
 1158W        W 5358   5.310   4.888   3.228  0.0937 -0.1414 -0.2752
 1159W        W 5359   1.928   8.956  10.662 -0.1521 -0.1726 -0.1568
 1160W        W 5360   6.453   3.269  10.643 -0.2923 -0.3703  0.2247
 1161W        W 5361   8.042   6.604   1.826  0.2599 -0.1278  0.1027
 1162W        W 5362   1.500   3.818   1.229  0.0858  0.1051 -0.0960
 1163W        W 5363   1.631   0.502   0.426  0.2771 -0.1602 -0.2125
 1164W        W 5364   3.554   2.772   3.591 -0.0184  0.0448 -0.1274
 1165W        W 5365   3.784   8.673  12.746  0.2979 -0.0783  0.1461
 1166W        W 5366   9.568   9.721   9.245 -0.1458 -0.2772  0.0978
 1167W        W 5367   4.763   6.023   9.958  0.0866 -0.0267  0.0792
 1168W        W 5368   7.098   9.003  10.714 -0.0935  0.4706  0.1810
 1169W        W 5369  10.382   7.444   9.635  0.1545  0.1371 -0.0069
 1170W        W 5370   0.288   7.526  12.215  0.0966 -0.1771  0.0055
 1171W        W 5371   1.285   3.656  13.069 -0.0545 -0.1557 -0.0033
 1172W        W 5372   8.341   8.165  12.577  0.0161  0.0144  0.1441
 1173W        W 5373   6.420   5.646   9.780 -0.1668 -0.1418  0.1340
 1174W        W 5374   9.451   0.131   0.743  0.0356  0.3232 -0.0909
 1175W        W 5375   0.917   5.789  10.663  0.1482  0.2415  0.1595
 1176W        W 5376   9.424   7.927   1.241  0.0433 -0.3000 -0.2471
 1177W        W 5377   1.024   7.579  12.951 -0.2483  0.1149  0.1578
 1178W        W 5378   0.463   5.722   1.549 -0.0613  0.0465  0.2700
 1179W        W 5379   9.793   1.421  11.470  0.0112  0.1435  0.3130
 1180W        W 5380   7.976   0.406   3.655  0.2630 -0.1217  0.1283
 1181W        W 5381   8.218   2.590   9.791 -0.0359  0.0745  0.4236
 1182W        W 5382   6.785   6.636  12.902 -0.0713 -0.0316 -0.1973
 1183W        W 5383   7.492   1.152   2.723  0.0626  0.0137 -0.1467
 1184W        W 5384   2.227   8.343   1.647  0.0404  0.0276  0.1611
 1185W        W 5385   2.729   0.490   2.595 -0.1378  0.2510 -0.3325
 1186W        W 5386   6.562   5.289   0.673 -0.0235  0.0613  0.3360
 1187W        W 5387   7.851   9.793   0.479 -0.3093  0.3163 -0.2212
 1188W        W 5388   9.254   0.873  12.389  0.1510 -0.2765  0.0198
 1189W        W 5389   0.782   5.384  12.387  0.0978 -0.0357 -0.2451
 1190W        W 5390   8.752   8.958   4.739 -0.1233 -0.0941 -0.0183
 1191W        W 5391   8.910   3.425   3.320  0.0611  0.2427 -0.1508
 1192W        W 5392   3.360   9.031   3.383 -0.0206  0.0570  0.0134
 1193W        W 5393   9.879   4.956   3.091  0.2151 -0.1000 -0.0981
 1194W        W 5394   6.855   2.793   1.879  0.1169  0.0765 -0.0381
 1195W        W 5395   5.783   4.443  10.088 -0.1373 -0.1661  0.2358
 1196W        W 5396   4.666   7.627  11.173  0.1145 -0.0812  0.1838
 1197W        W 5397   5.068   9.618   9.113  0.0622 -0.0641 -0.3778
 1198W        W 5398   2.222   6.091   2.500  0.0445 -0.0153  0.1029
 1199W        W 5399  10.063   6.742   4.375 -0.3238 -0.0766 -0.1152
 1200W        W 5400   7.039   4.307   3.936 -0.1019 -0.1339 -0.1010
 1201W        W 5401   0.474   1.515  11.607  0.2228 -0.2185 -0.2300
 1202W        W 5402   7.948   1.475  12.534 -0.0645 -0.0271  0.0916
 1203W        W 5403   5.695   3.701   0.314  0.2790 -0.1218 -0.1557
 1204W        W 5404   2.857   8.729  12.125 -0.0279  0.1860  0.1301
 1205W        W 5405   5.778   3.293  11.518 -0.1380  0.0989  0.1120
 1206W        W 5406   2.658   6.446   2.068  0.2890 -0.0739 -0.0005
 1207W        W 5407   5.245   3.751   1.034  0.0037  0.1992 -0.2648
 1208W        W 5408   8.742   0.799   9.374 -0.0487  0.1210  0.2336
 1209W        W 5409   2.223   4.370  13.120 -0.2383  0.3656 -0.1286
 1210W        W 5410   9.897   2.776  12.037  0.4507  0.0326 -0.0838
 1211W        W 5411   5.107   8.255  11.461  0.1560  0.2291 -0.0672
 1212W        W 5412   7.022   8.050   2.163  0.0121  0.1739  0.1648
 1213W        W 5413   0.421   0.359   4.865  0.1271 -0.0140  0.3497
 1214W        W 5414   1.471   4.324   3.322  0.0347  0.1814  0.2039
 1215W        W 5415   0.782   8.988   9.860  0.0251 -0.0937 -0.1488
 1216W        W 5416   9.418   6.541  11.067 -0.0746  0.0398 -0.0609
 1217W        W 5417   5.206   0.251  11.368 -0.3948 -0.1269  0.3437
 1218W        W 5418   7.459   4.359   0.907  0.2454  0.2065  0.0329
 1219W        W 5419   0.003   4.941   3.863  0.3526 -0.0467 -0.2294
 1220W        W 5420   4.756   4.728   0.108 -0.1590 -0.0685  0.1763
 1221W        W 5421   1.817   9.629   0.634 -0.0909  0.0228  0.2857
 1222W        W 5422   6.094   3.493  10.325 -0.1685  0.2267 -0.0401
 1223W        W 5423   0.557   2.385  10.991  0.0415  0.3841  0.0712
 1224W        W 5424   4.474   0.815  12.456  0.3061  0.2525 -0.0154
 1225W        W 5425   9.057   0.300  13.124 -0.2902  0.0429  0.1406
 1226W        W 5426   0.045   6.760   4.137 -0.1357 -0.0604 -0.1413
 1227W        W 5427   0.591   1.547   9.331 -0.1710  0.0995  0.2516
 1228W        W 5428   5.662   0.442   0.566 -0.2142  0.0624  0.1429
 1229W        W 5429   4.814   2.516   2.703 -0.0210  0.1821 -0.1273
 1230W        W 5430   5.176   3.814   1.796  0.0594  0.0724  0.3555
 1231W        W 5431   5.033   6.219   2.394 -0.0193  0.0359  0.0583
 1232W        W 5432   4.748   8.293   0.161 -0.2094 -0.1652 -0.0447
 1233W        W 5433   0.943   9.733   0.281  0.2233  0.0784 -0.0642
 1234W        W 5434   3.195   0.356   2.949 -0.0170  0.2880 -0.3380
 1235W        W 5435   6.391   7.317   2.546 -0.0621  0.0137 -0.0870
 1236W        W 5436   0.465   7.061   3.390  0.0842  0.3141  0.6358
 1237W        W 5437   9.873  10.065  10.547  0.2628 -0.5282 -0.2603
 1238W        W 5438   7.245   5.823  12.996 -0.0784 -0.0199  0.1762
 1239W        W 5439   6.394   6.227   9.713  0.3021 -0.1546  0.3465
 1240W        W 5440   0.392   9.667  12.866 -0.0382 -0.0216 -0.1188
 1241W        W 5441   1.452  10.065  12.399 -0.0550 -0.0189  0.0779
 1242W        W 5442   2.759   9.957   9.967  0.1234 -0.0728 -0.1284
 1243W        W 5443   1.813   5.675  10.232  0.1687  0.0240 -0.0180
 1244W        W 5444   6.005   1.074   9.899  0.1609 -0.1217  0.1396
 1245W        W 5445   2.737   5.184  10.998 -0.1562  0.1601  0.0638
 1246W        W 5446   1.391   1.560   3.271  0.1419  0.0445  0.2342
 1247W        W 5447   6.883   9.394   3.504  0.0590  0.1978 -0.0961
 1248W        W 5448   8.863   9.637   0.479  0.2940 -0.0079 -0.0157
 1249W        W 5449   1.838  10.042  13.076  0.0058 -0.1471 -0.2971
 1250W        W 5450   9.826   2.815   2.086 -0.1691  0.1030  0.0767
 1251W        W 5451   7.013   7.307  11.255  0.0418  0.0618  0.0982
 1252W        W 5452   4.065   4.829  11.338  0.2084 -0.2313  0.1927
 1253W        W 5453   2.151   4.042   9.434  0.5019  0.0867 -0.0124
 1254W        W 5454   5.594   8.789  11.141  0.3010  0.0231  0.2219
 1255W        W 5455   5.322   3.826   2.829  0.1169 -0.0362 -0.0365
 1256W        W 5456   3.824   4.905   3.881 -0.4127 -0.2085 -0.1205
 1257W        W 5457   0.258   8.329   2.803 -0.0934 -0.1089 -0.1997
 1258W        W 5458   2.216   0.862   1.506  0.2102 -0.0048 -0.0320
 1259W        W 5459   6.733   0.623  12.181 -0.3413  0.0771 -0.0460
 1260W        W 5460   2.917   1.863   2.461 -0.0832 -0.0126 -0.1359
 1261W        W 5461  10.053   2.790  10.202 -0.3614 -0.2468  0.2546
 1262W        W 5462   3.630   9.307  10.990 -0.3072 -0.2991 -0.3656
 1263W        W 5463   6.046   4.100  12.401  0.0994  0.5512  0.0399
 1264W        W 5464   7.704   7.265   3.061  0.0014 -0.0690 -0.1247
 1265W        W 5465   1.151   8.294   8.079  0.1547 -0.0606  0.2195
 1266W        W 5466   2.458   2.014   2.786 -0.1406 -0.0929 -0.1874
 1267W        W 5467   7.348   1.223   3.554 -0.1167  0.2285  0.1811
 1268W        W 5468   2.887   8.817  10.673 -0.0586 -0.0809  0.1937
 1269W        W 5469   4.426   6.600   9.201 -0.1884 -0.1405 -0.1201
 1270W        W 5470   0.836   7.989   0.147 -0.1099 -0.0530  0.0747
 1271W        W 5471   1.185   9.032  12.017 -0.0300 -0.1130 -0.3263
 1272W        W 5472   8.435   0.062  10.509 -0.3641 -0.1538  0.0743
 1273W        W 5473   4.787   9.765  11.576 -0.3363 -0.3433  0.1707
 1274W        W 5474   4.426   7.351  10.411 -0.0927 -0.1057 -0.1271
 1275W        W 5475   3.820   5.837   3.576 -0.0787  0.2419  0.1803
 1276W        W 5476   6.380   0.256  10.595 -0.1008  0.1538  0.2035
 1277W        W 5477   6.193   5.375   3.521  0.0987 -0.3812  0.2953
 1278W        W 5478   9.230   8.353   4.018 -0.1843 -0.0274 -0.4684
 1279W        W 5479   3.678   5.050  11.873 -0.2697  0.0179 -0.3061
 1280W        W 5480   2.634   6.646   0.660  0.0930  0.0996 -0.3365
 1281W        W 5481  10.008   9.712   9.382  0.0925 -0.1130 -0.0652
 1282W        W 5482   7.621   8.517   9.579 -0.0809 -0.3539  0.2496
 1283W        W 5483   6.764   2.525  13.368 -0.2464  0.1422  0.2338
 1284W        W 5484   9.497   5.614  10.837 -0.1780  0.1210 -0.0379
 1285W        W 5485   7.178  10.345   2.057 -0.2526  0.0169 -0.0877
 1286W        W 5486  10.023   9.319   4.471  0.0147  0.1209 -0.0987
 1287W        W 5487   4.966   4.362  12.271 -0.2731  0.1032 -0.0294
 1288W        W 5488   5.854   0.720  10.268 -0.0201 -0.0026  0.1966
 1289W        W 5489   4.995   5.539   3.021  0.0641 -0.0477  0.2776
 1290W        W 5490   1.941   4.584   4.282  0.0459 -0.0461  0.2634
 1291W        W 5491   9.778   5.328   4.078  0.0826 -0.0332 -0.1158
 1292W        W 5492   0.712   8.476  11.385  0.1908  0.0708 -0.0473
 1293W        W 5493   0.335   3.839   3.662 -0.2750 -0.0231 -0.0918
 1294W        W 5494   5.135   3.195   9.906 -0.4816  0.0284 -0.5453
 1295W        W 5495   2.473   3.622   9.676  0.0607 -0.0425  0.0068
 1296W        W 5496   0.756   4.253   2.054  0.1322 -0.2411 -0.4275
 1297W        W 5497   9.526   2.549  11.413 -0.3200  0.0698 -0.3681
 1298W        W 5498   4.634   5.195  10.585 -0.1185 -0.1691  0.0601
 1299W        W 5499   2.640   9.165  10.259  0.0450 -0.0651 -0.2802
 1300W        W 5500   1.043   2.330  10.828  0.0811 -0.0488 -0.0651
 1301W        W 5501   1.386   6.175   2.978 -0.1810 -0.0543 -0.1592
 1302W        W 5502   9.746   5.459   9.774 -0.1033  0.1193  0.2270
 1303W        W 5503   5.808   6.800  13.281 -0.0520 -0.0231  0.2161
 1304W        W 5504   5.076   3.264  10.830  0.0531 -0.3473 -0.0087
 1305W        W 5505   7.827   7.132   1.754 -0.2462  0.1269 -0.0850
 1306W        W 5506   1.492   3.011  11.936 -0.1420  0.3059  0.1410
 1307W        W 5507   0.419   8.852   2.859  0.1103  0.0841 -0.0705
 1308W        W 5508   5.691   6.169  10.367  0.1727 -0.1275  0.2244
 1309W        W 5509   6.257   9.052   9.029 -0.0938  0.1812 -0.2313
 1310W        W 5510   1.809   0.159  13.177 -0.0336  0.1627  0.0717
 1311W        W 5511   4.848   4.766   9.713 -0.1846  0.3554 -0.3890
 1312W        W 5512   6.819   1.007   3.474  0.1463 -0.1184  0.1224
 1313W        W 5513   6.864   8.470   2.325  0.0396 -0.0846 -0.3693
 1314W        W 5514   8.986   7.718   9.649  0.0617 -0.0868 -0.1447
 1315W        W 5515   0.615   6.209  11.896 -0.1118  0.0469 -0.0126
 1316W        W 5516   0.776   8.077  12.619  0.0191  0.2312 -0.1197
 1317W        W 5517   3.592   7.867  12.167 -0.1659 -0.2478 -0.0792
 1318W        W 5518  10.366   2.530   4.466  0.0773 -0.1913  0.0657
 1319W        W 5519   3.027   1.412   0.505  0.1064 -0.2007  0.1748
 1320W        W 5520   2.857   9.669   0.318  0.0667 -0.0633 -0.1961
 1321W        W 5521   8.882   4.690   0.567 -0.2418 -0.0984  0.0717
 1322W        W 5522   3.124   3.586  10.875 -0.1030  0.0591 -0.0374
 1323W        W 5523   6.794   7.807   0.180  0.0457  0.0892 -0.0594
 1324W        W 5524   1.209   1.436  13.056 -0.5495  0.0745  0.2653
 1325W        W 5525   1.807   0.771   9.001  0.0625  0.2225  0.1629
 1326W        W 5526   4.146  10.023  10.561 -0.1039 -0.1301 -0.0497
 1327W        W 5527   8.683   4.803   1.817 -0.1118 -0.0895  0.2121
 1328W        W 5528   7.012   5.125  11.312  0.0715  0.1086 -0.2298
 1329W        W 5529   8.558   7.187  12.864  0.0206  0.1368  0.1456
 1330W        W 5530   8.830   1.904  10.511 -0.0080 -0.1446  0.1077
 1331W        W 5531   5.343   9.669   2.347  0.1938 -0.1098 -0.2673
 1332W        W 5532   7.520   7.299  11.531 -0.0379  0.0313 -0.2550
 1333W        W 5533   0.469   2.663   0.730  0.0438 -0.0591 -0.1766
 1334W        W 5534   9.338  10.195   9.047 -0.2294  0.0367 -0.2714
 1335W        W 5535   7.485   1.167   9.978  0.0295 -0.2923  0.1961
 1336W        W 5536   2.217   8.838  10.292 -0.2074  0.2951 -0.0657
 1337W        W 5537   0.249   6.650   1.641 -0.0453 -0.3065 -0.0771
 1338W        W 5538   2.250   8.796   2.910 -0.0656  0.1665 -0.2403
 1339W        W 5539   1.768   2.619  11.010  0.3498  0.0526  0.0025
 1340W        W 5540   3.412   4.601   1.983 -0.1120  0.0007  0.1512
 1341W        W 5541  10.230  10.430  11.570  0.0402  0.1190  0.0741
 1342W        W 5542   4.822   1.147  12.926 -0.0093  0.1162 -0.2841
 1343W        W 5543   5.523   4.850  10.310 -0.1056 -0.1429  0.0923
 1344W        W 5544   0.321   6.500  11.029  0.2010  0.0710 -0.0028
 1345W        W 5545   0.221  10.091   9.609 -0.0419 -0.3253  0.1866
 1346W        W 5546  10.164   7.355   2.096  0.3680  0.0151  0.3034
 1347W        W 5547   4.919   8.675   9.689  0.0709 -0.1308  0.1745
 1348W        W 5548   6.698   8.745  10.582  0.3780  0.0622 -0.2232
 1349W        W 5549   7.929   2.084   3.764 -0.1331 -0.0782  0.1455
 1350W        W 5550   8.286   9.889  12.947 -0.2155 -0.3081  0.0017
 1351W        W 5551   9.400   9.605   2.591 -0.1689 -0.0722 -0.1784
 1352W        W 5552   3.466  10.366   2.967 -0.3137  0.0164  0.2416
 1353W        W 5553   4.170   1.948   2.614 -0.1073  0.4411  0.1177
 1354W        W 5554   0.951   3.582  10.655  0.1388 -0.0235 -0.0909
 1355W        W 5555   1.073   4.128   0.464  0.0673 -0.0203  0.0298
 1356W        W 5556   3.021  10.365   1.202  0.0454 -0.0334 -0.2774
 1357W        W 5557   9.801   3.067   3.955 -0.2605 -0.0665 -0.4471
 1358W        W 5558   6.586   6.549   1.839  0.1132  0.0920  0.0385
 1359W        W 5559   0.951   8.201   9.484 -0.0369  0.0832  0.2870
 1360W        W 5560   8.277   9.066  11.956 -0.0652 -0.2666  0.0437
 1361W        W 5561   3.789   2.382   3.281 -0.1241 -0.0817 -0.1321
 1362W        W 5562   5.930   8.959  12.119  0.0286 -0.0880 -0.3125
 1363W        W 5563   1.735   7.186   0.566 -0.2668  0.2482  0.3445
 1364W        W 5564   9.143   4.444   0.927  0.0660 -0.0041 -0.0449
 1365W        W 5565   4.857   6.065   1.923  0.0466 -0.2935  0.0926
 1366W        W 5566   7.426   9.779  11.839  0.1081  0.0170  0.2197
 1367W        W 5567   0.048   7.336   2.719 -0.1486 -0.3385  0.0166
 1368W        W 5568   2.670   7.323  10.459 -0.0141 -0.1602 -0.0028
 1369W        W 5569   1.320   9.757  13.321  0.1363 -0.0181  0.0649
 1370W        W 5570   4.444   6.009   1.034 -0.0382  0.2073 -0.0230
 1371W        W 5571   0.306   3.744  13.162  0.0594 -0.0930  0.0439
 1372W        W 5572   7.246   7.917   4.353  0.3778  0.2061  0.0527
 1373W        W 5573   9.203   8.053   8.775  0.0666  0.0722  0.0204
 1374W        W 5574   7.752   8.925   9.993  0.0706  0.3145  0.0612
 1375W        W 5575   7.530   5.275  12.218  0.3165  0.1726 -0.2583
 1376W        W 5576   5.657   9.446   0.006 -0.0198  0.7399  0.0508
 1377W        W 5577   7.265   9.115   3.691 -0.0820 -0.1074 -0.0207
 1378W        W 5578   6.745   0.033  10.962  0.1832 -0.0816  0.3852
 1379W        W 5579   9.578   5.752   1.404  0.0919 -0.1526  0.3338
 1380W        W 5580   0.613   3.154   9.128 -0.1480  0.3002  0.0103
 1381W        W 5581   3.312   5.808   2.970 -0.2416  0.2432 -0.1523
 1382W        W 5582   4.550   4.634  10.743 -0.0465  0.1888 -0.3297
 1383W        W 5583   8.853   7.467   3.798 -0.1181  0.2540 -0.0783
 1384W        W 5584   4.570   4.187  13.097  0.0818 -0.1903  0.1532
 1385W        W 5585  10.141   5.117  11.404  0.1438 -0.0639 -0.0697
 1386W        W 5586   0.589   0.213   2.906  0.0447 -0.2417  0.1270
 1387W        W 5587   9.647   7.042   1.450 -0.0222  0.0654 -0.1062
 1388W        W 5588   0.586   7.929   1.349 -0.0401  0.1931 -0.1209
 1389W        W 5589   8.278   3.034   1.160  0.5507  0.3565 -0.0423
 1390W        W 5590   8.524   8.779   2.035  0.0511  0.3164 -0.0182
 1391W        W 5591   8.614   6.915  12.448 -0.0813 -0.1368  0.0417
 1392W        W 5592   9.394   4.215   3.616 -0.1697  0.2663  0.2591
 1393W        W 5593   3.125   6.540   9.133  0.0038 -0.1086  0.1690
 1394W        W 5594   8.085   5.191   0.459  0.0462  0.1920  0.0765
 1395W        W 5595   8.334   3.347   0.326 -0.0471  0.3459  0.0174
 1396W        W 5596   1.068   8.629   3.473  0.0195 -0.0517 -0.0471
 1397W        W 5597   0.837   2.443  12.604  0.2891  0.1140 -0.0097
 1398W        W 5598   4.654   0.410   1.849  0.0682  0.1531  0.0436
 1399W        W 5599   7.500   1.508   3.174 -0.0806  0.1664  0.0891
 1400W        W 5600   3.618   8.092   0.481  0.1615 -0.3360 -0.0822
 1401W        W 5601   5.434   5.476   1.815  0.5910  0.1014  0.1376
 1402W        W 5602   4.054   5.851   0.104 -0.2932  0.2082 -0.1053
 1403W        W 5603   0.020   9.245   8.091  0.1703 -0.2953 -0.1983
 1404W        W 5604   2.615   8.216  12.419 -0.2586  0.1497  0.1822
 1405W        W 5605   7.535   4.421   1.490  0.1221 -0.0484 -0.1586
 1406W        W 5606   4.204   8.442   3.424  0.0004 -0.2184 -0.3720
 1407W        W 5607   9.449   9.501   3.527 -0.1065 -0.4936 -0.0688
 1408W        W 5608   7.256   9.872   1.824 -0.3125  0.0103 -0.2622
 1409W        W 5609   2.402   5.679  10.708  0.0317 -0.0786  0.1671
 1410W        W 5610  10.431   6.403   9.543 -0.2006  0.0174 -0.2347
 1411W        W 5611   4.329   3.730   9.888 -0.4585 -0.2909 -0.2142
 1412W        W 5612   2.617   7.318   9.028 -0.3599 -0.0817 -0.1102
 1413W        W 5613   8.790   6.670  11.686  0.1824  0.2070 -0.2027
 1414W        W 5614  10.343   7.903  12.864  0.0320 -0.0988 -0.4185
 1415W        W 5615   7.703   9.754  12.963 -0.0718 -0.2577 -0.3119
 1416W        W 5616   5.156   9.145   0.693  0.1734  0.0015 -0.3482
 1417W        W 5617  10.410   6.165  11.691  0.0364 -0.0259  0.0436
 1418W        W 5618   8.144   2.911  11.510 -0.0522  0.0570  0.0826
 1419W        W 5619   4.456   8.077   9.235 -0.1340 -0.0564 -0.2062
 1420W        W 5620   7.456   7.707   2.265  0.1668 -0.1773  0.0168
 1421W        W 5621   8.194   8.667   0.985  0.1332  0.0381  0.0140
 1422W        W 5622   9.035   4.049   2.637 -0.2954  0.1523  0.0477
 1423W        W 5623   0.596   8.662   2.295  0.4402  0.1537 -0.0489
 1424W        W 5624   6.090   9.492   9.296 -0.1702 -0.0708 -0.0201
 1425W        W 5625   8.460   0.563   8.788 -0.2419  0.1940 -0.5084
 1426W        W 5626   2.932  10.369  11.006 -0.0253 -0.0430  0.0645
 1427W        W 5627   1.657   3.704   9.392  0.0180 -0.1103 -0.0897
 1428W        W 5628   2.247   3.301   2.088  0.0883  0.1423  0.0514
 1429W        W 5629   9.600   1.811   9.156 -0.0312  0.0164 -0.1567
 1430W        W 5630   3.417   6.041  10.091 -0.0151  0.1951  0.0602
 1431W        W 5631   2.467   5.014   1.651  0.1340  0.1101  0.0376
 1432W        W 5632  10.210   4.938   0.620 -0.1486  0.0503 -0.4218
 1433W        W 5633   2.208   8.960   8.830  0.1034 -0.0400  0.1020
 1434W        W 5634   9.860   1.780  12.562  0.4072  0.0064 -0.0095
 1435W        W 5635   0.454   2.716   4.489  0.1815 -0.0850 -0.2025
 1436W        W 5636   8.999   2.932  13.359 -0.0609  0.0366 -0.1495
 1437W        W 5637   9.434   2.951  10.826 -0.2503 -0.1493  0.0900
 1438W        W 5638   3.699   4.913  10.985 -0.0946 -0.1489  0.0196
 1439W        W 5639   5.764   0.778  11.218 -0.0906 -0.2047  0.1186
 1440W        W 5640   3.511   3.269   1.589  0.1316  0.3066  0.1152
 1441W        W 5641   4.526   3.423  12.377  0.0666 -0.3141 -0.1217
 1442W        W 5642   2.048   5.754  13.376  0.3475  0.1880 -0.1405
 1443W        W 5643   9.610   2.371   2.298 -0.0381  0.1636 -0.0737
 1444W        W 5644   3.333   0.585   3.728 -0.2813  0.0560  0.0933
 1445W        W 5645   0.605   5.270   4.598 -0.0733  0.0904 -0.0506
 1446W        W 5646   5.959   1.359   4.036  0.0255 -0.0868 -0.1048
 1447W        W 5647   0.842   5.705  11.859  0.3581  0.1639 -0.1626
 1448W        W 5648   5.679   7.838   0.654  0.0146 -0.0224 -0.0667
 1449W        W 5649   5.682   5.467   2.388 -0.1701  0.3440 -0.1806
 1450W        W 5650   2.363   5.199   9.725  0.1285 -0.1830  0.1152
 1451W        W 5651   3.916  10.222   0.177 -0.0571 -0.0531 -0.1036
 1452W        W 5652   4.638   7.198   4.168  0.1322  0.1718 -0.1821
 1453W        W 5653   1.015   4.827  13.221 -0.0952 -0.3013  0.2688
 1454W        W 5654   1.420   5.494   1.049 -0.0951 -0.1952  0.1004
 1455W        W 5655   7.752   4.804   0.720 -0.0185  0.2921 -0.0891
 1456W        W 5656   2.876   6.710   4.179  0.0819 -0.2003  0.1127
 1457W        W 5657   5.122   1.061   3.516  0.0092 -0.0402 -0.4187
 1458W        W 5658   3.059   4.275   9.114 -0.2381  0.0714 -0.2724
 1459W        W 5659   9.451   8.652   3.236  0.1999  0.0880  0.4069
 1460W        W 5660   3.975   9.120   2.731  0.0656  0.0275  0.0078
 1461W        W 5661   1.278   6.687   4.781  0.3504  0.0093  0.0075
 1462W        W 5662   1.448   5.733   1.995  0.2251 -0.1527  0.3626
 1463W        W 5663   1.535   0.751   3.310  0.0843 -0.0713 -0.1685
 1464W        W 5664   6.983   9.569   0.634  0.1791 -0.2160 -0.0093
 1465W        W 5665   9.696   7.146   4.377  0.1023 -0.0549 -0.1429
 1466W        W 5666   9.029   6.643   2.232  0.1384 -0.1633  0.0776
 1467W        W 5667   5.224   7.686  11.312 -0.2311  0.0477 -0.4895
 1468W        W 5668   3.010   2.935   0.945  0.1649 -0.0492 -0.0948
 1469W        W 5669   6.912   8.236  10.976  0.2404  0.1327 -0.0164
 1470W        W 5670   1.751   9.501   3.186 -0.0734  0.0748 -0.3031
 1471W        W 5671   7.417   2.383  11.516 -0.0797  0.1597  0.0837
 1472W        W 5672   9.973   4.625   7.995  0.1037 -0.3786 -0.0002
 1473W        W 5673   7.588   2.369   5.073  0.1368  0.3880 -0.0284
 1474W        W 5674   7.154   0.838   3.895 -0.0259  0.1226  0.2262
 1475W        W 5675   8.402   1.840   1.838  0.0198 -0.1645  0.1117
 1476W        W 5676   8.936   5.647  10.132 -0.0604  0.0058  0.3340
 1477W        W 5677   5.271   7.350   2.412 -0.0023  0.3229 -0.0334
 1478W        W 5678   6.869   7.099   3.756  0.0658 -0.4132 -0.3006
 1479W        W 5679   9.768  10.002  11.045 -0.1941  0.2408  0.0136
 1480W        W 5680   1.583   3.158   9.287  0.4417 -0.2218  0.0148
 1481W        W 5681   7.877   1.867  10.051 -0.1444  0.0275 -0.3046
 1482W        W 5682   5.573   8.549   0.467 -0.2461 -0.3451 -0.0773
 1483W        W 5683   9.311   8.481  12.080  0.1695 -0.3716 -0.1006
 1484W        W 5684   2.730   3.774  12.542 -0.2951  0.0222 -0.2995
 1485W        W 5685   4.927   8.705   0.458  0.3284  0.0652  0.0913
 1486W        W 5686   9.093   7.895   3.916 -0.1060  0.3210  0.0699
 1487W        W 5687   0.973   8.509   0.113  0.1221 -0.1013 -0.2733
 1488W        W 5688   9.646   1.736   3.594 -0.2499  0.2240  0.4906
 1489W        W 5689   7.954   7.113   8.280  0.3249  0.0247 -0.0643
 1490W        W 5690   5.119   0.821  10.787  0.0410  0.0403 -0.1544
 1491W        W 5691   0.975   1.188   3.536  0.0310  0.0449  0.1395
 1492W        W 5692   0.495   0.694  10.591  0.1430 -0.0590  0.2095
 1493W        W 5693   6.467   6.594   3.268 -0.2387 -0.3767 -0.0565
 1494W        W 5694   4.076   4.300   1.016 -0.2995  0.2252 -0.0167
 1495W        W 5695   7.168   8.214   9.506 -0.0955 -0.1022  0.0256
 1496W        W 5696   4.234   7.552   1.994 -0.1528 -0.1657  0.1280
 1497W        W 5697   8.496   4.572  12.821 -0.1380 -0.0210 -0.1143
 1498W        W 5698   1.500   6.067   9.243 -0.0451  0.1127 -0.1184
 1499W        W 5699  10.025   3.792   1.580  0.1044  0.0352 -0.4761
 1500W        W 5700   1.802   7.572   3.200 -0.1469 -0.0971  0.1634
 1501W        W 5701   2.781   6.907  11.845  0.0010 -0.0954  0.2662
 1502W        W 5702   1.963   6.244   0.137  0.1209 -0.5371 -0.2470
 1503W        W 5703   3.185   1.766   0.810 -0.3031  0.0937  0.2277
 1504W        W 5704   7.795  10.049  12.574  0.0042  0.1475 -0.1685
 1505W        W 5705   8.116   6.821   1.237 -0.3955 -0.1813 -0.1153
 1506W        W 5706  10.144   2.408   2.124  0.3052  0.0967 -0.0625
 1507W        W 5707   9.734   0.437   9.885 -0.2126 -0.2295 -0.0180
 1508W        W 5708   3.889   4.572   3.489 -0.0683 -0.1721 -0.2094
 1509W        W 5709   0.618   9.424   9.481 -0.1651  0.0997 -0.0566
 1510W        W 5710   6.312   6.001   0.313  0.6083 -0.0723  0.0246
 1511W        W 5711   4.695   5.709   0.730 -0.2007 -0.0157  0.2558
 1512W        W 5712   8.964   8.438  13.189 -0.0846 -0.2429  0.1930
 1513W        W 5713   8.660   9.300   1.994 -0.1436  0.2243 -0.1814
 1514W        W 5714   2.722   6.772   1.477  0.2780  0.2556  0.0200
 1515W        W 5715   4.434   5.678   9.834 -0.2725  0.0094  0.0355
 1516W        W 5716   7.765   4.103   2.675  0.2788  0.0243 -0.3257
 1517W        W 5717  10.062   6.355   0.907 -0.2118  0.2496  0.1253
 1518W        W 5718   2.241   9.162   2.563 -0.4221 -0.1593 -0.1113
 1519W        W 5719   2.236   8.120  10.997  0.0310  0.2157  0.1720
 1520W        W 5720   9.155  10.399  12.127  0.1092  0.2656  0.2450
 1521W        W 5721   8.664  10.191   0.897  0.0092 -0.0416 -0.0450
 1522W        W 5722   8.544   0.277   0.840 -0.2162  0.0700  0.3522
 1523W        W 5723   1.939   6.652   3.648 -0.1139  0.2553  0.1670
 1524W        W 5724   0.446   9.822   9.200  0.0679 -0.0518 -0.1900
 1525W        W 5725   7.352   3.248   0.085 -0.0751 -0.1606 -0.2940
 1526W        W 5726   8.774   6.390   2.554  0.2150  0.1092 -0.0404
 1527W        W 5727   2.526   3.948   4.088 -0.1145  0.0228 -0.0749
 1528W        W 5728   9.195   3.842  10.413 -0.1307  0.1461 -0.0820
 1529W        W 5729   1.042   2.088  10.086 -0.2125  0.4582  0.0055
 1530W        W 5730   7.093   3.192   3.389 -0.0524 -0.0632 -0.2205
 1531W        W 5731   4.984   4.872  10.347 -0.2702  0.0068  0.3157
 1532W        W 5732   1.006   4.215   3.546  0.0732  0.0684  0.1682
 1533W        W 5733   3.656   5.399   4.046 -0.1017 -0.1726 -0.0174
 1534W        W 5734   0.455   1.258   9.737  0.0247 -0.0729  0.1381
 1535W        W 5735   9.847   0.604   2.276  0.2602 -0.0072  0.0492
 1536W        W 5736   0.178   2.327  10.663 -0.1456 -0.1666 -0.0308
 1537W        W 5737   3.297   8.009  13.387 -0.1652 -0.0415  0.0668
 1538W        W 5738   9.781   9.415   2.812  0.2062  0.1189 -0.0029
 1539W        W 5739   7.209   8.999   4.722  0.1843 -0.0143 -0.1355
 1540W        W 5740  10.036   4.937  11.886  0.0558 -0.3458 -0.0537
 1541W        W 5741   2.091   2.236  10.129  0.0647 -0.0583  0.0878
 1542W        W 5742   9.445   4.408  10.418 -0.0964 -0.2476  0.1761
 1543W        W 5743   6.451   9.335   9.986 -0.1287  0.0544  0.2289
 1544W        W 5744   2.158   5.568  11.590 -0.0977  0.2009  0.0109
 1545W        W 5745   8.689   2.274   1.946 -0.1465  0.0176  0.1588
 1546W        W 5746   4.727   8.830   0.961 -0.2111 -0.2982  0.0713
 1547W        W 5747   4.357   4.881   3.736  0.3920  0.2744 -0.2769
 1548W        W 5748   5.871   7.613  10.607 -0.0931  0.2094  0.0942
 1549W        W 5749   8.952   6.450   4.558  0.3131 -0.1031 -0.0876
 1550W        W 5750  10.482   2.696   2.934  0.0935  0.0347  0.1660
 1551W        W 5751   9.278   0.683   1.681  0.0006  0.2665 -0.3398
 1552W        W 5752   2.243   2.290   3.189  0.1704  0.2696  0.0551
 1553W        W 5753   7.787   0.479   1.338 -0.1253  0.3351 -0.1971
 1554W        W 5754   2.825   1.447   2.235  0.1654  0.0175  0.3467
 1555W        W 5755  10.077  10.076   3.154  0.0250  0.1315  0.3624
 1556W        W 5756   2.073   9.721  10.983  0.1130  0.1271  0.1492
 1557W        W 5757   8.213   7.764   2.182  0.1765 -0.0279  0.1771
 1558W        W 5758   0.402   5.377   3.849  0.2674 -0.0201 -0.0764
 1559W        W 5759   4.105   6.455   1.834 -0.0174 -0.0617  0.2214
 1560W        W 5760   3.839   3.190   1.997 -0.0609  0.3655 -0.0684
 1561W        W 5761   9.735   8.509  12.580 -0.3407  0.2249  0.1071
 1562W        W 5762   0.931   6.662   4.357  0.0244 -0.3513 -0.0968
 1563W        W 5763   2.253   0.046  12.068  0.0855 -0.1667  0.0504
 1564W        W 5764   7.422   4.748  13.271  0.0492  0.1433  0.2083
 1565W        W 5765  10.277   0.485  12.025 -0.1516 -0.1096 -0.2255
 1566W        W 5766   8.448   8.276   1.174 -0.0482 -0.0382  0.1122
 1567W        W 5767   0.076   2.419  12.730 -0.3014  0.0399  0.0806
 1568W        W 5768   8.099   0.892   3.722 -0.0600 -0.2128  0.2935
 1569W        W 5769   5.718   9.819   3.944  0.2231  0.1741  0.1806
 1570W        W 5770   5.081   3.501   2.596  0.3546 -0.1540 -0.1281
 1571W        W 5771   9.874   6.664   0.028 -0.1267  0.2346 -0.1804
 1572W        W 5772   7.992   2.415  10.645  0.3036  0.4494  0.0010
 1573W        W 5773  10.449   2.015  11.828 -0.1184  0.1283  0.2863
 1574W        W 5774   7.157   5.163   2.103 -0.0813 -0.0540 -0.3166
 1575W        W 5775   0.652   2.821   2.816 -0.1514 -0.1596  0.0885
 1576W        W 5776   5.002   6.734   1.147 -0.2027 -0.0795 -0.0035
 1577W        W 5777  10.071   9.336  12.936  0.1034  0.3733 -0.0694
 1578W        W 5778   6.187   4.856  11.363 -0.0397  0.1585  0.1653
 1579W        W 5779   0.917   8.514   0.615 -0.1295 -0.0995  0.0107
 1580W        W 5780   7.740   3.759   1.749  0.0958  0.1511  0.0299
 1581W        W 5781   3.102   5.345   4.532  0.2605  0.1211  0.3009
 1582W        W 5782   4.142   7.242   7.968  0.3775  0.1910  0.1190
 1583W        W 5783   6.026   9.525   0.945  0.1225  0.0940  0.1714
 1584W        W 5784   6.659   8.126   0.621  0.1702  0.2209  0.1741
 1585W        W 5785   0.375   7.212   9.665  0.0691  0.0243  0.0477
 1586W        W 5786   7.144   1.184   1.885  0.2232  0.1313  0.3438
 1587W        W 5787   8.148   8.127   0.777  0.1163  0.2402 -0.2442
 1588W        W 5788   5.074   1.843   0.739 -0.0514  0.1093  0.0806
 1589W        W 5789   7.687   2.252  11.073  0.2502  0.1347 -0.0957
 1590W        W 5790   7.131   2.299  11.102 -0.0481 -0.2650  0.0036
 1591W        W 5791   6.096   5.839  10.518 -0.0686 -0.0331 -0.0340
 1592W        W 5792   6.026   9.595   9.767  0.1699 -0.2070  0.0765
 1593W        W 5793   2.301   5.099  11.663  0.0909  0.0231  0.1381
 1594W        W 5794   0.763   7.321   4.729 -0.3690  0.0952 -0.2016
 1595W        W 5795   1.293   5.708  11.573  0.1745 -0.3655 -0.0422
 1596W        W 5796   0.770   5.358  11.440 -0.3787 -0.0215 -0.1072
 1597W        W 5797   5.859   8.357   0.078  0.1053 -0.3284  0.2114
 1598W        W 5798   4.538   3.035  13.357  0.2371  0.0620  0.0423
 1599W        W 5799   8.824   0.900   8.694  0.1103 -0.0484  0.1423
 1600W        W 5800   5.100   5.254   8.854 -0.0070  0.1683 -0.2227
 1601W        W 5801   2.681   5.614  13.313  0.0277 -0.0532  0.2191
 1602W        W 5802   8.958   0.603  12.005  0.1003 -0.3278  0.2249
 1603W        W 5803   7.942   2.351   2.601  0.1436 -0.1383 -0.2749
 1604W        W 5804   6.796  10.364  12.050  0.1112  0.0573 -0.0626
 1605W        W 5805   2.274   6.975  12.546 -0.2275 -0.2564  0.1092
 1606W        W 5806   1.209   0.947  13.020  0.0208  0.2776 -0.0733
 1607W        W 5807   8.823   5.226  12.939  0.0257 -0.1274  0.0033
 1608W        W 5808   3.500   9.087  11.444 -0.0847  0.1010  0.2607
 1609W        W 5809   9.313   5.266   9.446 -0.1353 -0.0782  0.0033
 1610W        W 5810  10.480   0.842  10.568  0.2950 -0.2009  0.0509
 1611W        W 5811   0.518   3.903   9.359  0.0038  0.2737 -0.0868
 1612W        W 5812   6.898   9.085   0.514 -0.0634 -0.1059 -0.0977
 1613W        W 5813   8.698   4.107   2.301  0.0055  0.0579 -0.0833
 1614W        W 5814   8.424   7.620  10.097  0.0366  0.0856 -0.0977
 1615W        W 5815   6.340   8.879  12.355 -0.1161 -0.1166  0.0187
 1616W        W 5816   1.191   6.670  11.267  0.1415 -0.0685  0.0238
 1617W        W 5817   3.407   5.341  12.662  0.0962  0.0255  0.0023
 1618W        W 5818   9.268   3.994  11.185 -0.4827  0.2808 -0.1065
 1619W        W 5819   0.933   2.735   0.633  0.2929 -0.1238 -0.0381
 1620W        W 5820   4.945   1.790   3.329 -0.1504 -0.0682 -0.0830
 1621W        W 5821   5.647   4.934  12.258  0.0432  0.4107  0.0892
 1622W        W 5822   2.621   7.481   9.974 -0.0389  0.0368 -0.1987
 1623W        W 5823   2.199   2.013   0.781  0.0789 -0.2312 -0.2958
 1624W        W 5824  10.151   7.032   3.917  0.3493  0.0182 -0.3485
 1625W        W 5825   0.555   2.262   4.082  0.0633 -0.0246 -0.0102
 1626W        W 5826  10.227   3.077   3.346  0.0562 -0.0191  0.0139
 1627W        W 5827   0.202   8.828   1.130 -0.1010 -0.1003  0.1177
 1628W        W 5828   1.799  10.236  12.073  0.0166  0.3339  0.0638
 1629W        W 5829   7.741  10.388   3.353 -0.1846 -0.0062 -0.1541
 1630W        W 5830   3.511   0.074   1.490  0.1791 -0.1730  0.1582
 1631W        W 5831   2.315   3.998   2.856 -0.1831  0.0738  0.0475
 1632W        W 5832   8.973   0.319   2.249  0.1844  0.1261  0.0236
 1633W        W 5833   5.651   4.930  13.187 -0.1901 -0.0708 -0.3350
 1634W        W 5834   7.217   4.385  11.310 -0.2437 -0.0485 -0.0940
 1635W        W 5835   0.854   0.287   8.796 -0.0641  0.0159  0.1229
 1636W        W 5836   2.279   8.570   0.688 -0.0737 -0.0271 -0.1132
 1637W        W 5837   1.781   5.665  12.911  0.3534 -0.0856 -0.2537
 1638W        W 5838   5.851   6.018  11.803 -0.1900  0.3248 -0.4416
 1639W        W 5839   1.461   0.062  12.229 -0.3208 -0.0466 -0.2973
 1640W        W 5840   4.244   3.267  12.012  0.1986 -0.0510  0.0400
 1641W        W 5841   9.455   7.465   9.925  0.1913  0.3234 -0.1185
 1642W        W 5842   8.503   0.825  11.831 -0.1465 -0.1062 -0.0762
 1643W        W 5843   9.643   4.837  12.809  0.1836  0.0441  0.2210
 1644W        W 5844   3.241   7.697  10.994  0.0602 -0.1689 -0.1010
 1645W        W 5845   8.402   6.751   3.029 -0.2272  0.2415 -0.2871
 1646W        W 5846   1.825   3.339   1.804  0.0833  0.1417 -0.3144
 1647W        W 5847   3.906  10.245  10.914 -0.0436 -0.0721 -0.2786
 1648W        W 5848   9.291   6.234   0.583  0.0218 -0.0235 -0.0421
 1649W        W 5849   7.622   5.217   2.515  0.0031  0.2460 -0.1339
 1650W        W 5850   6.374   1.982  12.769  0.1209 -0.1541 -0.1976
 1651W        W 5851   1.507   5.494  12.518 -0.1807  0.0997  0.2573
 1652W        W 5852   9.670   7.613   2.069  0.1311  0.1240 -0.1076
 1653W        W 5853   0.361   0.522   0.746 -0.0562  0.2764 -0.1041
 1654W        W 5854   7.845   5.742   4.035  0.0334 -0.1421  0.0549
 1655W        W 5855   0.272   6.414   2.149 -0.0941 -0.1152  0.0709
 1656W        W 5856   6.422   0.255  11.984  0.1212 -0.1054  0.0477
 1657W        W 5857   4.254   8.154  11.641 -0.2953  0.1083 -0.0188
 1658W        W 5858   0.807   8.269   1.121 -0.0503 -0.1526  0.2272
 1659W        W 5859   8.437   4.800  12.080  0.1363 -0.1906 -0.1496
 1660W        W 5860   7.651   7.299  10.618 -0.2010 -0.1307 -0.2114
 1661W        W 5861   8.800   5.823  12.819 -0.0114  0.2738 -0.1577
 1662W        W 5862   6.961   4.987  13.051  0.0472  0.1374 -0.0592
 1663W        W 5863   6.787   5.834   9.503 -0.1869  0.0081  0.3553
 1664W        W 5864   4.130   4.372  10.976 -0.1019  0.0773 -0.3490
 1665W        W 5865   6.185   4.437   0.357 -0.0031  0.1191 -0.1255
 1666W        W 5866   9.229   2.681   3.835 -0.0555  0.1588  0.0735
 1667W        W 5867   9.248   4.662   3.645 -0.0807 -0.0271  0.1459
 1668W        W 5868   4.586   6.546  11.111  0.2401  0.0719 -0.1659
 1669W        W 5869   9.002   0.997  10.295  0.2834  0.3092  0.2273
 1670W        W 5870   1.317   6.274  11.471  0.0370  0.1802 -0.1874
 1671W        W 5871   7.654   0.587  12.431  0.2119 -0.1088 -0.0793
 1672W        W 5872   8.878   3.628  12.601  0.1776  0.0430  0.2570
 1673W        W 5873   6.040   9.513  12.019  0.1543  0.3726  0.0220
 1674W        W 5874  10.235   0.453  12.636  0.0281  0.2503 -0.1250
 1675W        W 5875   4.536   5.119   1.927 -0.2426 -0.0496  0.0891
 1676W        W 5876   6.269   1.993   3.252  0.2057 -0.2025 -0.4237
 1677W        W 5877   9.954   5.440   8.225  0.0153 -0.1878  0.0892
 1678W        W 5878   9.855   4.447  10.658 -0.1730  0.1294 -0.0999
 1679W        W 5879   0.669   3.551  11.349 -0.0744  0.0863  0.0044
 1680W        W 5880   9.428   4.689   0.620  0.2571 -0.0763 -0.2104
 1681W        W 5881   8.948   6.078  11.864 -0.0018 -0.3553  0.0237
 1682W        W 5882   6.447   0.519  11.136 -0.2534 -0.3546 -0.4227
 1683W        W 5883   0.672   0.429   3.384 -0.1438  0.1968 -0.0199
 1684W        W 5884   3.627  10.060   2.340 -0.1778  0.0105 -0.2851
 1685W        W 5885   0.987   9.008   0.548 -0.3048  0.4555  0.3465
 1686W        W 5886   1.785   7.886   3.931  0.1030  0.1395  0.0558
 1687W        W 5887   5.032   6.963  13.122  0.0700  0.2057 -0.0832
 1688W        W 5888   0.066   5.009   3.028  0.1370  0.2336  0.3715
 1689W        W 5889   2.922   2.755  11.363 -0.0280 -0.0704 -0.0692
 1690W        W 5890   2.022   6.223   1.509 -0.0566  0.0126  0.1342
 1691W        W 5891   7.173   6.238  12.211 -0.1866 -0.2597  0.0805
 1692W        W 5892   2.886   4.753  13.203 -0.1570 -0.0867  0.3677
 1693W        W 5893   8.160   9.970   9.458 -0.2560  0.1129  0.0375
 1694W        W 5894   3.546  10.452  12.597  0.0358 -0.2234  0.2591
 1695W        W 5895   0.842   9.549   2.443  0.0552 -0.3643  0.0177
 1696W        W 5896   7.616   0.333   3.253  0.2546 -0.3297 -0.4295
 1697W        W 5897   6.997   4.929  10.484  0.2278 -0.2431  0.1750
 1698W        W 5898   6.783  10.386   1.108  0.0407  0.2028  0.3197
 1699W        W 5899   9.128   1.855   9.458  0.1410  0.1356  0.0938
 1700W        W 5900   6.487   1.526  10.276  0.1136 -0.1667 -0.3311
 1701W        W 5901   9.029   3.141  11.524 -0.2484 -0.1081  0.1054
 1702W        W 5902   2.491  10.075   1.919  0.1184 -0.1388  0.3257
 1703W        W 5903   9.909   3.707  11.913  0.0880  0.5516  0.1566
 1704W        W 5904   7.541   6.174  11.893 -0.0343  0.2059 -0.1953
 1705W        W 5905   4.852   4.553  11.706  0.1239  0.0647  0.2397
 1706W        W 5906   3.877   2.418   1.758 -0.0064  0.3537 -0.1994
 1707W        W 5907   8.910   7.643   0.313  0.1451 -0.1782 -0.1769
 1708W        W 5908   6.873   1.833   4.049  0.2450  0.1256 -0.0285
 1709W        W 5909   6.262   7.188   0.511 -0.2423 -0.1761 -0.0988
 1710W        W 5910   1.930   2.404   1.556 -0.0585 -0.1299 -0.0048
 1711W        W 5911   9.988   6.765   9.556 -0.1412  0.2786 -0.0714
 1712W        W 5912   8.446   9.072   0.884  0.4267 -0.0898 -0.2011
 1713W        W 5913   5.626   5.754  10.748 -0.0445 -0.4269 -0.1667
 1714W        W 5914   6.420   9.933   9.183 -0.1696 -0.0882  0.1082
 1715W        W 5915   6.996   7.544   2.432  0.0074 -0.2069 -0.0966
 1716W        W 5916   8.042   8.034  10.255  0.3313 -0.2856  0.0505
 1717W        W 5917   1.200  10.278   0.841  0.0018  0.4517  0.0894
 1718W        W 5918   6.567   5.870  12.847  0.3406  0.1627 -0.0070
 1719W        W 5919   6.980   7.340  13.342  0.0071  0.2653 -0.0533
 1720W        W 5920   8.146   2.841  10.271  0.4010  0.1005  0.0528
 1721W        W 5921   9.489   2.978   4.322 -0.0415 -0.2626  0.1106
 1722W        W 5922   4.318  10.073  13.101 -0.0678 -0.3037 -0.0802
 1723W        W 5923   8.933   2.087   9.990 -0.0135  0.0709 -0.0104
 1724W        W 5924  10.415   0.066   1.734 -0.0573 -0.0712 -0.1591
 1725W        W 5925   2.377   7.818   0.855 -0.0643  0.0805  0.0393
 1726W        W 5926   0.050   4.164  10.084  0.0546  0.0471  0.0642
 1727W        W 5927   5.965   7.874  12.637  0.2255  0.0229 -0.1659
 1728W        W 5928   3.675   4.685   2.940 -0.1418 -0.1426  0.0372
 1729W        W 5929   5.006  10.336   0.901  0.3121 -0.1858 -0.4016
 1730W        W 5930   7.295   5.644   9.309 -0.2101  0.0625  0.2249
 1731W        W 5931   8.507   9.527  12.497  0.0717 -0.1223  0.0112
 1732W        W 5932   3.810   6.522   0.202 -0.0963  0.1514 -0.1146
 1733W        W 5933   4.565   3.921  11.379 -0.3829 -0.0363 -0.2213
 1734W        W 5934   0.973   4.214   2.507 -0.5245  0.0204 -0.2366
 1735W        W 5935   8.876   1.841   4.165 -0.0237 -0.1900 -0.1170
 1736W        W 5936   6.579   4.585  10.664  0.0063 -0.0573 -0.1015
 1737W        W 5937   3.135   8.370   2.548  0.0541  0.2052 -0.0949
 1738W        W 5938   8.542   9.587   2.536  0.0015  0.1733  0.3745
 1739W        W 5939   7.954   0.427   2.818 -0.1985 -0.1788  0.4266
 1740W        W 5940   5.677   4.232   0.395  0.1030  0.2100  0.1101
 1741W        W 5941   1.624   3.096   8.552 -0.0404  0.2221 -0.2619
 1742W        W 5942   7.307  10.456  11.963  0.0569  0.2370 -0.0022
 1743W        W 5943   5.744   0.858  13.055 -0.2016  0.0219  0.0772
 1744W        W 5944  10.131   9.443   0.116 -0.1728 -0.1532  0.0868
 1745W        W 5945   9.365   1.422  12.371 -0.1528 -0.0310  0.0232
 1746W        W 5946   3.602   5.985   9.475 -0.1361 -0.1253 -0.0936
 1747W        W 5947   4.092   1.719  12.303 -0.1803 -0.0352  0.0522
 1748W        W 5948   4.831   8.735  12.825  0.1376  0.1131  0.1128
 1749W        W 5949   2.954   8.520   2.048  0.1169 -0.0574 -0.0895
 1750W        W 5950   8.153   2.327  10.182  0.3104  0.0973 -0.1526
 1751W        W 5951   7.388  10.367  12.468  0.3838 -0.0180  0.0101
 1752W        W 5952   9.401   7.482   1.097  0.0580 -0.3184  0.1120
 1753W        W 5953   3.444   8.850  12.420 -0.2855 -0.0649 -0.2519
 1754W        W 5954   5.951   8.541   1.236  0.0826  0.1361  0.3881
 1755W        W 5955   2.098   0.093   1.053  0.3324 -0.1596  0.1323
 1756W        W 5956   7.354   1.318  11.998  0.0991 -0.6082  0.3180
 1757W        W 5957   0.687   5.076   9.829  0.0332  0.0234 -0.2934
 1758W        W 5958   0.334   5.788   3.443 -0.0997 -0.1390  0.1023
 1759W        W 5959   5.262   2.065   3.586 -0.0090  0.1015  0.0398
 1760W        W 5960   4.470   9.074  10.372 -0.3907 -0.0606 -0.0439
 1761W        W 5961   4.344   0.051  10.455  0.0100  0.1607 -0.1125
 1762W        W 5962   1.269   1.334   0.898 -0.0991 -0.0248  0.1084
 1763W        W 5963   6.637   6.333   9.246 -0.2325 -0.0254 -0.2244
 1764W        W 5964   5.603   0.814  12.139  0.3233 -0.1601  0.0718
 1765W        W 5965   0.523   2.361  12.116 -0.3185  0.2650 -0.1673
 1766W        W 5966   7.512   3.985  11.168  0.2938 -0.1499 -0.1961
 1767W        W 5967   7.800   3.560   9.151 -0.0961  0.2815  0.1003
 1768W        W 5968   4.199   2.545   0.423  0.1418 -0.1901  0.3391
 1769W        W 5969   9.290   3.480  12.875  0.1917 -0.0550 -0.3428
 1770W        W 5970   1.897   5.382   2.736 -0.3022 -0.2156  0.0067
 1771W        W 5971   0.846   3.066   1.004 -0.1641 -0.0515  0.2463
 1772W        W 5972   2.563   8.830  11.482  0.0729  0.1392  0.0580
 1773W        W 5973   3.031   5.805   3.677  0.1898 -0.2770  0.1820
 1774W        W 5974   7.454   8.061   1.902  0.1807  0.4261 -0.0590
 1775W        W 5975   5.981   0.587   3.121  0.0404  0.2131  0.2946
 1776W        W 5976   0.443   5.340  10.965  0.2396  0.0633  0.4618
 1777W        W 5977   9.079   0.558   1.260  0.0451  0.3532 -0.3564
 1778W        W 5978   7.786   6.585  12.649 -0.0770  0.1126 -0.1459
 1779W        W 5979   0.390   6.265   9.247  0.1258 -0.0760 -0.1574
 1780W        W 5980   7.493   9.003   1.372  0.0560  0.3866 -0.1386
 1781W        W 5981   3.484   1.217  11.244  0.2863  0.2838 -0.1181
 1782W        W 5982   0.988   0.101   9.265  0.0135 -0.0486 -0.1660
 1783W        W 5983  10.092   4.364   2.185 -0.0985  0.1837 -0.1889
 1784W        W 5984   8.600   6.868   9.532 -0.0126 -0.0595  0.1043
 1785W        W 5985   7.609  10.469   8.881  0.2787  0.2140 -0.0990
 1786W        W 5986   4.503   0.278   3.894  0.0068 -0.0868  0.0537
 1787W        W 5987   4.513   1.341  12.525  0.3328  0.0004 -0.1332
 1788W        W 5988   2.007   3.353  12.163  0.0639  0.1602  0.1738
 1789W        W 5989   6.275   8.972   2.806  0.2778  0.3641  0.0265
 1790W        W 5990   1.043   5.453   4.730 -0.0522  0.1458 -0.0284
 1791W        W 5991  10.017   3.985   9.367 -0.0117 -0.0424 -0.2227
 1792W        W 5992   5.456   3.488   1.408 -0.1097  0.3698 -0.3566
 1793W        W 5993   5.783   8.102  10.437 -0.0990 -0.1142 -0.1640
 1794W        W 5994   2.289   3.885  13.137  0.1043  0.0894  0.1481
 1795W        W 5995   7.214   9.022   2.821  0.2647 -0.0353 -0.0752
 1796W        W 5996   5.626   9.789  13.109 -0.2639 -0.2724 -0.0731
 1797W        W 5997   3.291   5.688  10.524 -0.0678  0.1155 -0.1317
 1798W        W 5998   2.730   3.069   0.237  0.0152  0.1836 -0.1175
 1799W        W 5999   9.788   0.218  12.872  0.0053 -0.1217 -0.2008
 1800W        W 6000   0.694   7.344  10.031 -0.2784 -0.2241  0.2696
 1801W        W 6001   1.981   7.040   1.441 -0.2963  0.0310  0.0229
 1802W        W 6002   1.883   8.466  13.240 -0.0414  0.0854  0.1690
 1803W        W 6003   1.421   1.855  13.060 -0.2614  0.3201 -0.0217
 1804W        W 6004   4.463   2.532  10.385  0.1220 -0.0460 -0.0557
 1805W        W 6005   6.496   5.058   8.911  0.1811 -0.0016 -0.2952
 1806W        W 6006   8.325   2.978  12.753  0.0185 -0.0249 -0.0210
 1807W        W 6007   2.925   9.922   1.706 -0.0594 -0.2997  0.0720
 1808W        W 6008   0.951   0.311  10.647  0.1609 -0.0787 -0.1581
 1809W        W 6009   4.246   0.132  11.369  0.0061  0.0394 -0.3608
 1810W        W 6010   6.385   7.677  10.749  0.1012 -0.0801  0.0989
 1811W        W 6011   9.890   3.268   1.154 -0.2335  0.4401 -0.1627
 1812W        W 6012   6.711   7.518  11.584 -0.1409  0.0501 -0.3384
 1813W        W 6013   2.089  10.241  11.645 -0.2396  0.0325  0.5053
 1814W        W 6014   2.359   6.721  11.032 -0.1500  0.0522  0.2837
 1815W        W 6015   1.487   5.589   8.038 -0.3442 -0.0910  0.0663
 1816W        W 6016   8.352   6.107   2.414  0.2352  0.0018  0.2527
 1817W        W 6017   3.271   8.145  11.676 -0.3417  0.0103  0.2142
 1818W        W 6018   0.647   6.406   0.745  0.1488  0.0187  0.0297
 1819W        W 6019   0.721   1.834   0.177 -0.1596  0.0588 -0.0169
 1820W        W 6020   7.531   8.154  12.659  0.0402 -0.0431 -0.0609
 1821W        W 6021   8.937   3.859   0.710 -0.0345 -0.1257  0.0891
 1822W        W 6022   5.878   6.887   9.200  0.1070 -0.3472  0.1303
 1823W        W 6023   9.857   7.347  11.730 -0.0536  0.0364  0.1782
 1824W        W 6024   0.254   2.325  11.541 -0.0558  0.0393  0.1496
 1825W        W 6025   4.007   8.445  11.318  0.4236 -0.1334  0.2571
 1826W        W 6026   0.756   0.822   9.614 -0.3220  0.0598  0.1812
 1827W        W 6027   3.321   9.630   3.257  0.1971  0.0515 -0.0406
 1828W        W 6028   4.334   9.660   0.861  0.0627  0.0432 -0.2148
 1829W        W 6029   2.267   9.330   3.081  0.2360 -0.5414 -0.2343
 1830W        W 6030   2.045   6.005   9.449  0.1130  0.0318  0.0854
 1831W        W 6031   7.355  10.466   4.241  0.0452 -0.0988  0.0266
 1832W        W 6032   2.937   5.794   2.642  0.0768  0.1706 -0.0878
 1833W        W 6033   1.687   1.536  12.200 -0.1103  0.0219 -0.2303
 1834W        W 6034   3.975   7.626   1.513 -0.0255 -0.0550 -0.1010
 1835W        W 6035   2.420   9.664  10.125  0.1200 -0.0393  0.1005
 1836W        W 6036   9.397   4.899   1.320 -0.0495  0.0493  0.3576
 1837W        W 6037   8.548   8.112   3.106 -0.1167 -0.0384  0.1019
 1838W        W 6038   0.102   1.014  12.016 -0.0422 -0.1745  0.0486
 1839W        W 6039   4.862   5.358  11.186 -0.0252  0.1235 -0.1367
 1840W        W 6040   8.225   2.128  11.088 -0.0936 -0.0580 -0.1960
 1841W        W 6041   8.623   6.858   0.738  0.1315  0.0936 -0.2090
 1842W        W 6042   0.874   8.995   9.144 -0.2597  0.0362  0.2879
 1843W        W 6043   2.821   2.509   0.032 -0.0655 -0.2560 -0.0677
 1844W        W 6044   2.648   6.495   3.242  0.1459 -0.0390  0.1215
 1845W        W 6045   1.166   4.057  13.332  0.3455  0.0973 -0.0419
 1846W        W 6046   7.770   4.791   3.737  0.1843  0.0125  0.0467
 1847W        W 6047   2.531  10.367   0.976 -0.1355  0.0524  0.2664
 1848W        W 6048   9.705   4.070  12.276 -0.1495  0.1902  0.0812
 1849W        W 6049   8.588   8.505   4.912  0.0515  0.0036  0.2190
 1850W        W 6050   6.318   8.762  13.332 -0.1347 -0.2261  0.2201
 1851W        W 6051   7.716   0.980  12.094 -0.0373  0.0859 -0.0038
 1852W        W 6052   0.798   1.958  12.278  0.3471 -0.0422  0.0558
 1853W        W 6053   6.051   1.504   0.199 -0.3452 -0.0793 -0.0450
 1854W        W 6054   3.518   4.641   2.481  0.0888  0.1488  0.3775
 1855W        W 6055  10.089   4.582  13.068 -0.1726  0.1946  0.0695
 1856W        W 6056   4.859   6.776   3.252 -0.1596  0.1735  0.3016
 1857W        W 6057   1.128   1.986   2.399 -0.0716 -0.1992  0.0280
 1858W        W 6058   7.593   0.184   9.765 -0.1948 -0.1825  0.3059
 1859W        W 6059   1.836   4.686   3.260  0.0975  0.0405 -0.3731
 1860W        W 6060   9.059   7.640   2.307 -0.0472 -0.1457 -0.0283
 1861W        W 6061   5.927   4.557  12.501 -0.0055 -0.3898 -0.0116
 1862W        W 6062   5.078   5.216   1.997 -0.1437 -0.0826  0.0785
 1863W        W 6063   1.149   6.178  13.174  0.1500 -0.1262 -0.3049
 1864W        W 6064   6.583   7.141   9.729  0.0501 -0.2014  0.1406
 1865W        W 6065  10.213   4.668   8.823  0.0186 -0.0076 -0.3538
 1866W        W 6066   6.792   4.221  10.362  0.1614 -0.3343 -0.2361
 1867W        W 6067   2.505   4.248   2.465  0.1518 -0.1302  0.4971
 1868W        W 6068   0.297  10.106   8.820 -0.1607  0.0598  0.0192
 1869W        W 6069   9.856   0.025  13.381  0.0849 -0.0088  0.1902
 1870W        W 6070   9.695   7.540   3.031 -0.2161 -0.4334  0.0610
 1871W        W 6071   5.989   8.635  10.872 -0.2815  0.0001 -0.3212
 1872W        W 6072   3.758   3.852   0.746  0.0124 -0.3130 -0.0316
 1873W        W 6073   2.834   6.098   0.195 -0.0708 -0.1411 -0.0057
 1874W        W 6074   2.712   1.169  11.257  0.3304 -0.0071  0.1681
 1875W        W 6075   3.562   9.649   1.854  0.0426  0.1828  0.0445
 1876W        W 6076   5.531  10.368   0.628  0.0671 -0.0628  0.0904
 1877W        W 6077   3.889   7.110   9.739  0.1255 -0.0462 -0.1281
 1878W        W 6078  10.248   8.648   4.459  0.4244  0.0525  0.1851
 1879W        W 6079  10.472   9.120   4.547  0.0110  0.0715  0.1198
 1880W        W 6080   4.370   5.820  12.771 -0.4301 -0.0743  0.0004
 1881W        W 6081   0.681   2.899   3.338 -0.3103 -0.1032 -0.2753
 1882W        W 6082   0.238   0.981   2.792  0.1664 -0.0890 -0.1520
 1883W        W 6083   0.315   7.689   4.128 -0.0485 -0.1115  0.1549
 1884W        W 6084   0.428   5.698  11.492 -0.0029 -0.1938 -0.2790
 1885W        W 6085   2.127   1.194   9.910  0.3543 -0.0494  0.1509
 1886W        W 6086  10.498   4.600  12.812 -0.1576 -0.1483  0.1700
 1887W        W 6087   8.052   3.673  13.363 -0.0304 -0.0829 -0.1167
 1888W        W 6088   0.673   5.144   8.481 -0.0377  0.1771 -0.1220
 1889W        W 6089   1.748   6.906   9.531 -0.4248  0.0261 -0.3073
 1890W        W 6090   7.662   8.180   0.188  0.3023 -0.1197 -0.0079
 1891W        W 6091   9.615   5.586   3.657  0.1294 -0.0295  0.1221
 1892W        W 6092   2.447   8.151  11.530 -0.2567  0.0019 -0.0028
 1893W        W 6093   7.983   2.707  11.036  0.0418 -0.1581 -0.0582
 1894W        W 6094   1.485   6.891  12.911  0.0069  0.1722 -0.0271
 1895W        W 6095   9.980   2.070   0.467 -0.0191 -0.1614  0.1725
 1896W        W 6096   6.407   1.103  10.843 -0.3015 -0.1153 -0.1638
 1897W        W 6097   6.407   6.184   5.183  0.3254  0.0479  0.0848
 1898W        W 6098   9.622   6.604   4.151  0.1336 -0.0906 -0.3933
 1899W        W 6099   3.753   6.423  10.213 -0.4556  0.0421  0.2606
 1900W        W 6100   5.691   8.892   1.946 -0.4372  0.0523  0.3359
 1901W        W 6101   1.684   5.459  11.752 -0.1322 -0.1680  0.0636
 1902W        W 6102   8.786   6.441   0.971  0.0446  0.1936 -0.2360
 1903W        W 6103   8.371   9.052   9.987 -0.1881 -0.1521 -0.2382
 1904W        W 6104   3.025   5.035   0.655  0.0189 -0.2158 -0.2234
 1905W        W 6105   1.065   6.486   0.333 -0.2339 -0.2559  0.2339
 1906W        W 6106   2.588   6.943   2.007  0.1034 -0.1510  0.0376
 1907W        W 6107   3.284   5.391   2.634 -0.0076 -0.3698  0.2538
 1908W        W 6108   6.819   1.136  10.550  0.0953 -0.2299 -0.1623
 1909W        W 6109   3.979   8.251   2.650 -0.2226 -0.1942 -0.1556
 1910W        W 6110   5.450   0.376   2.878 -0.1018 -0.0339  0.2078
 1911W        W 6111   0.182   5.486   2.941  0.0094 -0.0193  0.0449
 1912W        W 6112   5.812   4.356  12.021 -0.1560  0.0326  0.0196
 1913W        W 6113   8.103   7.228   9.867 -0.1327  0.1778 -0.2247
 1914W        W 6114   6.201   8.513  12.667 -0.2461 -0.1483  0.0194
 1915W        W 6115   0.063   7.337   0.259  0.3062  0.0123 -0.0019
 1916W        W 6116   8.604   3.683   1.996  0.1289 -0.1247 -0.3230
 1917W        W 6117   2.760   4.423   2.854  0.1964 -0.2386 -0.1169
 1918W        W 6118   7.657   0.226  13.255  0.3139  0.1439  0.1978
 1919W        W 6119   6.949   3.734   1.372  0.0720 -0.1867 -0.0012
 1920W        W 6120   8.729   1.424   2.047 -0.0269  0.0836  0.5021
 1921W        W 6121   1.749   3.989  10.191  0.1412  0.0025  0.1175
 1922W        W 6122   2.302   8.927   0.234 -0.1380  0.2358  0.2303
 1923W        W 6123   8.604   0.253  12.774  0.1000  0.1128 -0.2198
 1924W        W 6124   8.132   2.591   1.727  0.0579  0.1743  0.2955
 1925W        W 6125   7.893   9.253  13.254  0.1661  0.2733  0.2120
 1926W        W 6126   1.052   2.251  11.879 -0.2122  0.5005 -0.0112
 1927W        W 6127   0.889   5.694   4.313  0.1598  0.4104  0.0641
 1928W        W 6128   2.600   2.556   9.433  0.0560 -0.3008  0.0482
 1929W        W 6129   4.567   2.115   2.913  0.1961 -0.2867 -0.0454
 1930W        W 6130   6.364   6.233   4.256 -0.2176  0.1006 -0.1276
 1931W        W 6131   5.245   2.955  12.829  0.0042 -0.1330  0.3171
 1932W        W 6132   2.232   1.503   0.838 -0.0800 -0.1582  0.0111
 1933W        W 6133   1.407   4.147  12.338 -0.2146  0.0591  0.2824
 1934W        W 6134   8.496   8.572  13.103 -0.0480  0.0685 -0.1353
 1935W        W 6135   7.625   4.284  10.157  0.0020  0.1859  0.0458
 1936W        W 6136   8.661   1.809   9.305 -0.3664 -0.2169  0.1081
 1937W        W 6137   1.113   1.725   9.320 -0.0833  0.2279 -0.0286
 1938W        W 6138   0.026   3.980  11.999  0.1136  0.2784 -0.1240
 1939W        W 6139   8.598   3.806   0.216 -0.0286 -0.0740  0.2408
 1940W        W 6140   6.339   2.181  10.850  0.1197  0.1020  0.2018
 1941W        W 6141   2.348   0.096   2.501  0.0995  0.2002 -0.0126
 1942W        W 6142   6.937   1.186   2.651 -0.0498 -0.1679  0.0716
 1943W        W 6143   5.535   2.273  10.226 -0.0530 -0.2798 -0.0588
 1944W        W 6144   0.214   7.932   0.946  0.2873 -0.1334 -0.3589
 1945W        W 6145   6.647   4.584   9.054  0.0479  0.0008  0.2584
 1946W        W 6146   5.938   1.200  10.993 -0.0075 -0.1844 -0.0502
 1947W        W 6147   5.918   0.997   2.416  0.1525 -0.2611 -0.1007
 1948W        W 6148   4.436   5.594   1.660  0.1232 -0.1180  0.0133
 1949W        W 6149   8.026   0.450  10.546 -0.1705 -0.0811  0.2521
 1950W        W 6150  10.413   3.397  11.461  0.1677  0.1113 -0.0198
 1951W        W 6151  10.424  10.210   4.178  0.4022  0.1742  0.0435
 1952W        W 6152   4.909   2.294   9.899 -0.0317  0.4415 -0.2698
 1953W        W 6153   3.509   6.490  11.095  0.1015 -0.2429  0.1305
 1954W        W 6154   2.883   1.141   0.102  0.0021  0.1776 -0.0194
 1955W        W 6155   9.767   3.394   4.574  0.0498 -0.3275 -0.1448
 1956W        W 6156   3.538   8.950  10.006  0.0614 -0.1531 -0.1282
 1957W        W 6157   6.971   5.105   0.424 -0.0809  0.1350 -0.0539
 1958W        W 6158   6.126  10.132  11.368  0.1707  0.0092  0.1750
 1959W        W 6159   3.788   6.857   1.593  0.4136  0.0859 -0.2220
 1960W        W 6160   5.402   5.161   2.843 -0.2077 -0.2352  0.1822
 1961W        W 6161   9.278   5.190  10.937 -0.2223  0.1791 -0.1112
 1962W        W 6162   5.790   0.310  10.581  0.1917 -0.1434 -0.1761
 1963W        W 6163  10.199   9.197   3.978 -0.1382  0.1768 -0.0761
 1964W        W 6164   1.719  10.146   9.644 -0.2069  0.1350 -0.0736
 1965W        W 6165  10.076   3.286   1.796 -0.0142 -0.0202 -0.1704
 1966W        W 6166   0.514   7.663  12.630 -0.1993 -0.0069  0.3716
 1967W        W 6167   8.209   6.717   2.592 -0.0329  0.0246 -0.0882
 1968W        W 6168   7.320   6.624   1.039 -0.1103 -0.0609  0.0020
 1969W        W 6169   7.884   9.118  11.655 -0.0599 -0.2503  0.0535
 1970W        W 6170   7.295   2.726   3.361 -0.0963  0.1805  0.3154
 1971W        W 6171   4.128   8.544  11.972  0.1064  0.0223  0.1739
 1972W        W 6172   4.905   1.694   2.166 -0.1727  0.5272 -0.1773
 1973W        W 6173   1.134   2.157   1.858 -0.1806  0.1963  0.1335
 1974W        W 6174   1.565   4.720  10.828  0.0379 -0.1608  0.1551
 1975W        W 6175   5.680   7.106   8.646 -0.1010 -0.1544 -0.1582
 1976W        W 6176  10.491   0.032   9.547  0.1517  0.2538  0.0198
 1977W        W 6177   6.257   4.763   4.290 -0.0044 -0.2734 -0.1516
 1978W        W 6178   1.544   1.439   1.519  0.1005 -0.0454  0.1881
 1979W        W 6179   5.977   9.337  10.205 -0.0921 -0.1993 -0.0098
 1980W        W 6180   5.428   6.794   0.930 -0.0431  0.3455 -0.3166
 1981W        W 6181   8.108   1.399  10.784 -0.1746  0.0832 -0.0388
 1982W        W 6182   9.144   9.992   0.739 -0.0291  0.1095 -0.2134
 1983W        W 6183   6.040   2.794  12.909 -0.2396  0.1215 -0.0324
 1984W        W 6184   8.703   4.619   1.087 -0.1289  0.2178 -0.1170
 1985W        W 6185  10.314   7.696   3.020  0.0915 -0.0551 -0.0418
 1986W        W 6186   9.320   1.358   3.397  0.0058  0.1095 -0.0070
 1987W        W 6187   3.214   2.970  12.850 -0.2112 -0.4106 -0.2633
 1988W        W 6188   4.298   5.950  11.270 -0.1757 -0.0674 -0.1450
 1989W        W 6189   7.663   9.487   2.950  0.1072 -0.0839  0.0682
 1990W        W 6190   4.763   2.508   2.200 -0.2909 -0.1111  0.3087
 1991W        W 6191  10.148   9.031   2.990  0.1381 -0.0619  0.3019
 1992W        W 6192   9.317   4.870   3.148  0.0191 -0.2516 -0.1621
 1993W        W 6193   9.884   5.386   2.650  0.1819  0.0237  0.2297
 1994W        W 6194   0.344   4.630  10.001 -0.1273 -0.2245  0.2250
 1995W        W 6195   3.557   1.540   1.707 -0.3819 -0.1504  0.1261
 1996W        W 6196   6.100   6.349  10.159  0.2409 -0.2470  0.1540
 1997W        W 6197   5.703   8.263   8.595 -0.0315  0.1037  0.0594
 1998W        W 6198   7.876   9.253   2.541 -0.0316 -0.1850  0.0952
 1999W        W 6199   7.191   6.597  12.590 -0.0269  0.2319  0.3567
 2000W        W 6200   1.590   3.547  12.396  0.1895 -0.1856  0.1452
 2001W        W 6201   0.406   8.383  11.823  0.2811 -0.0988  0.1424
 2002W        W 6202   7.503   7.337   9.558 -0.1385  0.2025  0.2148
 2003W        W 6203   4.364   2.461   2.553 -0.1550  0.0439  0.2104
 2004W        W 6204   9.953   5.833   0.988 -0.2445  0.4229  0.0468
 2005W        W 6205   5.810   5.337  10.112 -0.2231 -0.3257 -0.3534
 2006W        W 6206   3.043  10.395   3.522  0.1187  0.1573 -0.0327
 2007W        W 6207   3.543   9.185   0.379  0.3662 -0.1426 -0.1585
 2008W        W 6208   4.651   3.545   3.795  0.1183 -0.0382  0.0568
 2009W        W 6209   1.738   3.829  13.196  0.0958 -0.2332 -0.2658
 2010W        W 6210   6.562   8.653   1.817  0.0018  0.1664 -0.2308
 2011W        W 6211   5.322   1.035  13.162  0.1587 -0.3080  0.1042
 2012W        W 6212   0.689  10.345   4.081 -0.3241  0.3906 -0.1998
 2013W        W 6213   7.436   8.165   2.501  0.2594  0.0833  0.0689
 2014W        W 6214   5.636   4.022   4.095  0.1368 -0.1252  0.1604
 2015W        W 6215   7.505   3.906  11.688 -0.3184 -0.0074  0.2590
 2016W        W 6216   8.104   4.713   9.824 -0.0716  0.1961 -0.1873
 2017W        W 6217   6.690   4.941   4.059 -0.1656  0.1373  0.1781
 2018W        W 6218   3.337   8.200   3.851  0.0461  0.2072 -0.0346
 2019W        W 6219   0.904   8.791  13.062 -0.0768  0.3754 -0.1177
 2020W        W 6220   4.305   6.770  12.364  0.0235 -0.1350  0.1482
 2021W        W 6221   0.795   2.458   9.915  0.2291 -0.3931 -0.2305
 2022W        W 6222   5.172   6.259  12.325 -0.0244  0.2468 -0.1785
 2023W        W 6223   4.304   0.379  10.842  0.1456  0.2352  0.1719
 2024W        W 6224   0.146   5.131  10.057  0.2323  0.1843 -0.0483
 2025W        W 6225   5.469   9.409   9.648  0.1143 -0.0987 -0.0897
 2026W        W 6226   7.969   7.690   9.888  0.0276 -0.2591 -0.1771
 2027W        W 6227   4.343   3.310   3.319 -0.1222  0.2031  0.2309
 2028W        W 6228   1.596  10.411   3.474  0.0746  0.3789 -0.1929
 2029W        W 6229   3.674   9.821  11.071 -0.2894 -0.0245  0.0649
 2030W        W 6230   7.762   8.895   3.816  0.1754  0.0554  0.1617
 2031W        W 6231   0.489   1.760   4.272 -0.3142  0.1287 -0.0643
 2032W        W 6232   5.561   1.134   1.517  0.1150  0.1959  0.0317
 2033W        W 6233   1.808   3.459   8.933 -0.1862  0.0062 -0.2422
 2034W        W 6234   8.841   4.304   4.426  0.0220 -0.0171 -0.0589
 2035W        W 6235   0.336   4.196  12.969  0.0606  0.0121 -0.0891
 2036W        W 6236   9.416   6.653   3.624 -0.2811 -0.1695 -0.0553
 2037W        W 6237   9.339   0.171   2.932  0.1902 -0.3371 -0.1687
 2038W        W 6238   3.220   0.262  12.097 -0.0106 -0.1683 -0.0008
 2039W        W 6239   8.890   0.513   3.248 -0.0269 -0.3250  0.2340
 2040W        W 6240   6.539   5.130   1.205 -0.0306 -0.0952  0.2079
 2041W        W 6241   8.467   3.582  10.936 -0.0459  0.1488  0.0003
 2042W        W 6242   9.961   7.950  10.708  0.2221 -0.0674  0.0562
 2043W        W 6243   0.544   4.925   2.164  0.1727 -0.0699  0.0967
 2044W        W 6244   4.879   6.264   9.166  0.1569 -0.0043 -0.3193
 2045W        W 6245   3.193   6.050   1.740 -0.0843 -0.2153 -0.0722
 2046W        W 6246   8.083   6.268  11.358  0.3288  0.0336 -0.1024
 2047W        W 6247   8.883   5.283  11.507  0.3646  0.2556 -0.1158
 2048W        W 6248   4.015   7.809   0.407 -0.0894  0.0058  0.2386
 2049W        W 6249   9.870   8.905   4.213  0.2141 -0.3550  0.0209
 2050W        W 6250   8.536   6.498   9.216  0.0826  0.0551 -0.4085
 2051W        W 6251   4.390   1.469   2.572 -0.0567 -0.0788  0.1112
 2052W        W 6252   0.982   5.742   1.313 -0.2316 -0.0339 -0.2709
 2053W        W 6253   4.104   0.391  12.234  0.1337 -0.1252 -0.0682
 2054W        W 6254   9.578   6.811   9.236 -0.0706  0.2675 -0.1160
 2055W        W 6255   9.028  10.241   3.045 -0.0228 -0.2817 -0.5323
 2056W        W 6256   2.629   4.158   3.248  0.2107  0.0907  0.2970
 2057W        W 6257  10.411  10.030   9.218  0.0711 -0.1657  0.1810
 2058W        W 6258   1.886   4.647   9.603 -0.0312 -0.1431  0.1234
 2059W        W 6259   9.321   3.946  12.584 -0.3204  0.3612 -0.3532
 2060W        W 6260   7.983   0.729   3.254 -0.0769  0.3499 -0.1182
 2061W        W 6261   4.204   5.820   2.700  0.1940  0.3054  0.1080
 2062W        W 6262   4.199   9.511   1.361 -0.0203 -0.2866 -0.2384
 2063W        W 6263   2.517   7.768   9.584 -0.0855 -0.0312 -0.2540
 2064W        W 6264   7.112   0.345   2.938 -0.2016  0.0444  0.0356
 2065W        W 6265   9.734   5.364  12.608 -0.0315 -0.1870  0.1595
 2066W        W 6266   6.894   5.957   9.023  0.2469 -0.0431 -0.1422
 2067W        W 6267   9.353   5.726  12.355 -0.2345 -0.0574 -0.3021
 2068W        W 6268   6.476  10.035   3.797 -0.1073  0.4228 -0.0386
 2069W        W 6269   4.012   3.427   2.827  0.1564 -0.0110 -0.2584
 2070W        W 6270   7.020   5.414   9.682 -0.0983  0.0057  0.3665
 2071W        W 6271   6.562   4.492  11.521  0.0737 -0.0763 -0.0174
 2072W        W 6272   4.214   2.585  12.381 -0.0292  0.1410  0.0318
 2073W        W 6273   8.602   8.648   2.854 -0.4797 -0.2645 -0.0703
 2074W        W 6274   4.496   6.312  11.542 -0.0474  0.0855  0.0169
 2075W        W 6275   8.594   2.708  11.648  0.4292  0.0876 -0.3878
 2076W        W 6276   8.050   1.937  13.003  0.0025 -0.0516  0.1362
 2077W        W 6277   2.322   4.500   2.997  0.0821 -0.4114 -0.1519
 2078W        W 6278   7.277   2.780   1.066 -0.3308 -0.1921  0.1441
 2079W        W 6279   2.387   5.667   0.989 -0.1294  0.0250  0.1392
 2080W        W 6280   6.124   3.404   0.157  0.0843  0.2032  0.1532
 2081W        W 6281   2.402   8.357  13.300  0.2315 -0.2462  0.2571
 2082W        W 6282   5.298   0.491  13.092 -0.0725 -0.3438  0.2690
 2083W        W 6283   5.350   3.428   0.579  0.2776 -0.1402  0.0771
 2084W        W 6284   8.499   0.424  10.794 -0.0510 -0.1000 -0.2572
 2085W        W 6285   2.221   1.132   3.911 -0.1730  0.2405  0.0269
 2086W        W 6286   5.728   1.721  13.285 -0.2154 -0.3071  0.2441
 2087W        W 6287   3.663   7.663   1.021  0.0011  0.2994 -0.1641
 2088W        W 6288   8.737   6.643   0.011  0.0252 -0.0994  0.1683
 2089W        W 6289   1.930   4.028  12.309  0.1342 -0.1475 -0.2415
 2090W        W 6290   5.709   4.534  11.206  0.0426  0.1847 -0.0055
 2091W        W 6291   1.618   2.072  10.144 -0.0502  0.2089  0.1332
 2092W        W 6292   8.329   6.075   1.025  0.0538 -0.0806 -0.2536
 2093W        W 6293   9.816   0.075   3.357  0.0332  0.0496  0.3375
 2094W        W 6294   0.483   3.774   8.107 -0.2323  0.1382 -0.2682
 2095W        W 6295   2.117   4.267   0.987 -0.0211 -0.0513  0.1396
 2096W        W 6296   6.140   3.778   0.483  0.0387  0.0457 -0.1505
 2097W        W 6297   7.847   1.800   1.917 -0.0206 -0.0544 -0.1047
 2098W        W 6298   8.246   7.440   4.703 -0.1413  0.3225 -0.1400
 2099W        W 6299   1.401   8.866   2.751  0.0761  0.1355  0.1706
 2100W        W 6300   4.340   8.482   1.747 -0.2717  0.0418 -0.2026
 2101W        W 6301   6.035   6.672   3.976 -0.0732 -0.2224  0.1734
 2102W        W 6302   8.962   8.856  12.266 -0.0094 -0.3084 -0.3111
 2103W        W 6303   5.460   5.714  10.209  0.2007  0.1426  0.0919
 2104W        W 6304   4.682   4.018   1.796  0.1346  0.3996  0.0050
 2105W        W 6305   8.439   0.107   0.337  0.0231 -0.0434 -0.1549
 2106W        W 6306   2.317   5.810   0.447 -0.1163 -0.2810  0.1934
 2107W        W 6307   7.317   9.827   0.370  0.2147 -0.2029  0.3012
 2108W        W 6308   0.115   8.491   3.697 -0.0445 -0.2143  0.0985
 2109W        W 6309   5.246   9.925   4.026  0.6402 -0.4923  0.0919
 2110W        W 6310   2.925   2.759   3.630  0.0261 -0.0205 -0.1749
 2111W        W 6311   2.981   5.695  12.843 -0.0977 -0.2488  0.0417
 2112W        W 6312   3.934   7.099   2.873 -0.1686 -0.1460  0.0880
 2113W        W 6313   5.950   9.230   1.611  0.3010  0.0915 -0.2606
 2114W        W 6314   9.714   7.144   2.657  0.0009  0.2951 -0.2260
 2115W        W 6315   2.185   3.245   3.175  0.1996 -0.1614 -0.1154
 2116W        W 6316   2.928   7.826  11.449  0.1587 -0.0538 -0.1867
 2117W        W 6317   8.751   0.856   0.951 -0.2690  0.0395 -0.2478
 2118W        W 6318   1.721   0.184  10.401  0.1386  0.4256  0.0300
 2119W        W 6319   1.924   0.199  12.406 -0.1109 -0.2747  0.1283
 2120W        W 6320   6.255   1.096   0.347 -0.1428  0.0749 -0.1531
 2121W        W 6321   9.614   9.426   0.129 -0.1423 -0.0984 -0.0987
 2122W        W 6322  10.133   1.730   3.881  0.0188  0.3128  0.2675
 2123W        W 6323   8.288   4.722   3.680  0.0401  0.0263 -0.3043
 2124W        W 6324   7.563   2.150   2.328 -0.2288  0.1246 -0.3410
 2125W        W 6325   2.831   2.631  11.855 -0.0686 -0.0851  0.1609
 2126W        W 6326   6.958   6.763  10.057 -0.0644  0.2387  0.0096
 2127W        W 6327   8.858   1.361   4.559  0.0516 -0.0735 -0.1964
 2128W        W 6328   0.055   1.351  13.267  0.0586  0.0970  0.1817
 2129W        W 6329   6.866   7.171  11.933  0.0138  0.0163 -0.2291
 2130W        W 6330   6.492   6.540  11.578 -0.0171  0.0099 -0.1354
 2131W        W 6331   3.679   3.048   0.195  0.0589 -0.0348  0.3151
 2132W        W 6332   2.094   5.011   2.993  0.1142  0.0705  0.2862
 2133W        W 6333   5.756   4.563   3.406 -0.0316 -0.0958  0.0154
 2134W        W 6334  10.415   3.544   2.092 -0.0254 -0.0425  0.2909
 2135W        W 6335   9.478   9.733   5.050 -0.0335 -0.0396  0.0460
 2136W        W 6336   7.912   1.159  11.183 -0.1017  0.0986 -0.4798
 2137W        W 6337   9.453   5.184   2.793 -0.2040  0.0025 -0.2003
 2138W        W 6338   4.044   5.170   0.442 -0.3171  0.0706  0.0471
 2139W        W 6339   4.241   4.351   2.605 -0.1526 -0.0618 -0.1850
 2140W        W 6340   3.878   4.835   0.128  0.0635  0.0575 -0.3501
 2141W        W 6341   4.432   2.870   4.331 -0.1833 -0.0080 -0.2350
 2142W        W 6342   3.779   8.247  11.729  0.2433 -0.2145  0.0839
 2143W        W 6343   3.378   5.493   3.628 -0.2076  0.1485  0.2444
 2144W        W 6344   2.823   5.596   0.464 -0.2146 -0.2929  0.0537
 2145W        W 6345   9.487   0.217   1.312 -0.2188 -0.0481  0.0746
 2146W        W 6346   9.860   0.429   1.847  0.1902 -0.2916  0.1573
 2147W        W 6347   2.463   7.410   1.940  0.0094 -0.0349 -0.0795
 2148W        W 6348   4.164   7.169   1.514  0.0940  0.1001  0.0591
 2149W        W 6349   3.145   6.101  11.105  0.2247  0.1407 -0.2919
 2150W        W 6350   7.057   2.536  11.969  0.2538 -0.2287  0.3651
 2151W        W 6351   7.067   2.352  12.483 -0.2450 -0.0840 -0.1354
 2152W        W 6352   5.132   5.558   5.249 -0.1446  0.3815  0.1478
 2153W        W 6353   4.534   6.632  11.967  0.1815 -0.0686  0.1539
 2154W        W 6354  10.293  10.266  13.132 -0.2290  0.3434  0.1187
 2155W        W 6355   2.141   3.642   4.104 -0.2169  0.2813  0.3867
 2156W        W 6356   0.105   7.071  10.605  0.0637  0.1835  0.3443
 2157W        W 6357   9.990   0.104   2.229 -0.2025  0.2427  0.0608
 2158W        W 6358   4.701   7.457   0.944 -0.0727 -0.0109  0.4147
 2159W        W 6359   0.763   5.300  12.858 -0.0254  0.5102 -0.1435
 2160W        W 6360   2.779   3.706   0.007 -0.1065 -0.1925 -0.2228
 2161W        W 6361   0.796   6.649   9.264 -0.0902  0.1368 -0.0742
 2162W        W 6362  10.268   5.096   9.339 -0.0257  0.0723 -0.2540
 2163W        W 6363   6.243   2.346  12.088 -0.0285 -0.2734 -0.1585
 2164W        W 6364   4.989   6.572  12.747  0.1505 -0.1768 -0.1439
 2165W        W 6365   0.355   8.414   0.807  0.0627 -0.0376 -0.1078
 2166W        W 6366   3.759   3.239   8.685  0.3470  0.0405  0.1327
 2167W        W 6367   0.902   0.785   1.654  0.0423 -0.0470  0.0514
 2168W        W 6368   8.450   6.148   4.573 -0.0150 -0.0558 -0.1743
 2169W        W 6369   4.116   9.883   2.491 -0.3931  0.1615  0.3168
 2170W        W 6370   6.476   6.252   2.319  0.0885 -0.3516 -0.0363
 2171W        W 6371   9.095   1.926  11.943 -0.3896 -0.0813 -0.1020
 2172W        W 6372   3.223   9.277  10.274 -0.1632  0.1647  0.4409
 2173W        W 6373   8.314   6.688  11.561 -0.3347  0.0293  0.3066
 2174W        W 6374   6.000   5.810  10.046  0.0295 -0.0022 -0.1585
 2175W        W 6375   1.224   6.941   9.425  0.1157 -0.2205  0.1345
 2176W        W 6376   2.460   4.261   0.579 -0.4918 -0.1181  0.1165
 2177W        W 6377   5.079   6.334  11.331  0.2452 -0.1222  0.0371
 2178W        W 6378   8.109   2.436  12.848  0.2547 -0.0894 -0.0698
 2179W        W 6379   0.000   8.691   2.131 -0.3513  0.0266 -0.3921
 2180W        W 6380   9.463   0.583  10.452 -0.0831 -0.1058  0.1903
 2181W        W 6381   7.501   2.765  13.299  0.1357 -0.1673 -0.0648
 2182W        W 6382  10.241   5.116   1.196  0.2486  0.1893  0.3112
 2183W        W 6383   6.137   4.384   9.114 -0.2441  0.0196 -0.0627
 2184W        W 6384   6.247   4.665   9.923  0.3958  0.0222  0.1385
 2185W        W 6385   6.634   0.319   0.906 -0.0997 -0.0603 -0.1504
 2186W        W 6386   1.593   1.636  10.812  0.1756  0.2970  0.4231
 2187W        W 6387   3.223   6.576  10.084 -0.0890 -0.2719 -0.0214
 2188W        W 6388   0.824   5.228   4.073  0.0749 -0.0464  0.0374
 2189W        W 6389   0.749   6.186  12.379  0.1846  0.1747 -0.0330
 2190W        W 6390   4.658   7.218  11.460 -0.0116 -0.2788 -0.0258
 2191W        W 6391   7.585   5.142   4.699  0.0367 -0.0105 -0.0511
 2192W        W 6392   7.276   9.593   3.347  0.3633 -0.0642  0.0385
 2193W        W 6393   3.008   9.964  11.906  0.2239 -0.3525  0.1681
 2194W        W 6394   4.543   1.981   9.697  0.3663 -0.0629  0.3333
 2195W        W 6395   7.684   5.964  10.043 -0.0396 -0.1887 -0.1648
 2196W        W 6396   3.080   6.733  12.914  0.0496 -0.3964 -0.0124
 2197W        W 6397   9.093  10.402   2.079 -0.2272 -0.2583 -0.0840
 2198W        W 6398   0.055   3.961   2.781  0.0568  0.1230 -0.1380
 2199W        W 6399   1.546   0.555  12.167 -0.1055  0.1562 -0.2416
 2200W        W 6400   0.269   5.677  10.126 -0.0916  0.3240  0.2132
 2201W        W 6401   3.025   8.947  12.640 -0.2687  0.2566 -0.0345
 2202W        W 6402   9.718   1.422   4.353 -0.0188 -0.1813  0.1012
 2203W        W 6403   1.411   7.592  12.592  0.0103 -0.1298  0.0785
 2204W        W 6404   2.920   7.756  10.481  0.2603  0.3544 -0.0704
 2205W        W 6405   0.859   1.193   2.734 -0.1869  0.2518  0.2394
 2206W        W 6406   8.766   4.260   0.212  0.0148 -0.3328  0.0446
 2207W        W 6407   7.198   7.060   0.788 -0.5007  0.1577 -0.1863
 2208W        W 6408   3.025   6.828   0.852 -0.1188 -0.3066 -0.1947
 2209W        W 6409   9.330   6.137   3.598 -0.1393  0.0586  0.1106
 2210W        W 6410   0.030   7.094   0.787 -0.0389 -0.1091 -0.0664
 2211W        W 6411   1.093   4.230   8.624  0.0715  0.2002 -0.0353
 2212W        W 6412   5.263  10.462   1.283  0.1435  0.0646  0.0948
 2213W        W 6413   8.286   3.150   1.656 -0.2758 -0.2895  0.0359
 2214W        W 6414   1.490   5.811   1.445  0.3078 -0.1437 -0.0084
 2215W        W 6415   0.164   7.562  10.699  0.1823  0.2358 -0.0790
 2216W        W 6416   0.090   5.994   3.800 -0.2160 -0.1723 -0.5010
 2217W        W 6417   5.386   4.523   9.479  0.0122  0.3910  0.0048
 2218W        W 6418   5.896   8.427   9.116 -0.0983  0.0987  0.1926
 2219W        W 6419   9.069   4.518   2.367  0.1643  0.0237 -0.2632
 2220W        W 6420   7.965   0.677   9.510 -0.1810 -0.2134 -0.0785
 2221W        W 6421   4.171   4.286   8.691 -0.2344 -0.1565 -0.0280
 2222W        W 6422   2.965  10.246  12.431  0.1245  0.0923 -0.1294
 2223W        W 6423   2.075   9.470   3.544 -0.1270  0.1323 -0.1608
 2224W        W 6424   1.797   8.428  10.762 -0.4371 -0.1420  0.2280
 2225W        W 6425   3.493   6.403   4.627 -0.3008 -0.2324 -0.2802
 2226W        W 6426  10.111   1.775   9.161 -0.0631  0.0705 -0.0296
 2227W        W 6427   0.952   0.031   3.556 -0.4451 -0.0835 -0.0397
 2228W        W 6428   9.029   9.851   2.381  0.1433 -0.0885 -0.0245
 2229W        W 6429   5.533   6.514   0.498  0.0809  0.2545  0.1633
 2230W        W 6430   7.184   7.634  12.969  0.1368  0.1031 -0.1123
 2231W        W 6431   8.687   0.965   2.798 -0.0498  0.0981 -0.2031
 2232W        W 6432   5.657  10.012  12.651 -0.1033 -0.0604  0.0117
 2233W        W 6433   6.670   6.159   3.456  0.1154 -0.1372  0.1810
 2234W        W 6434   8.267  10.471   3.656  0.1748 -0.2075  0.1277
 2235W        W 6435   8.557   9.926   4.342  0.2292 -0.1573  0.0536
 2236W        W 6436   5.897   1.852   2.940  0.5014 -0.0942 -0.0093
 2237W        W 6437   8.305   3.030   5.142 -0.0711 -0.2375  0.1005
 2238W        W 6438   6.558   4.809   2.711 -0.2341  0.1629  0.1247
 2239W        W 6439   3.046   2.694   2.108  0.0869 -0.1945 -0.0804
 2240W        W 6440   1.863   1.242  11.685 -0.2861 -0.0660  0.2626
 2241W        W 6441   8.079   7.880  11.126 -0.1088 -0.0798 -0.1524
 2242W        W 6442   2.637   6.219   4.088  0.0155 -0.3011 -0.1348
 2243W        W 6443   5.196   8.157   4.915  0.0694  0.4683  0.0787
 2244W        W 6444   2.437   8.984   3.396  0.3682  0.1307  0.3948
 2245W        W 6445  10.057   9.644   1.756 -0.0676 -0.1273  0.0967
 2246W        W 6446   3.420   5.887   3.986  0.0228  0.2901 -0.1860
 2247W        W 6447   0.703   9.640  11.777 -0.3212  0.0072  0.1088
 2248W        W 6448   5.131   3.563   0.165 -0.1956  0.0547  0.3945
 2249W        W 6449   9.752   5.264   1.293 -0.0476  0.0756 -0.2172
 2250W        W 6450   9.624   4.297   1.215  0.1836 -0.0180  0.3730
 2251W        W 6451   9.903  10.029   0.206 -0.0270 -0.0115  0.0465
 2252W        W 6452   8.508   9.424   4.544  0.1195 -0.0218  0.1728
 2253W        W 6453   8.973   1.526  10.206 -0.0687  0.2725 -0.0027
 2254W        W 6454   8.586   7.677  11.054 -0.0833  0.2583  0.0978
 2255W        W 6455   2.935   7.196   1.692  0.1971  0.2884 -0.0928
 2256W        W 6456   5.731   7.103  10.435 -0.0665 -0.0980  0.0093
 2257W        W 6457   6.156   6.342   3.522  0.0408  0.2803  0.0088
 2258W        W 6458   4.938   6.760  10.285  0.0491 -0.2365 -0.1998
 2259W        W 6459   2.356   4.548   1.670 -0.0269  0.0596  0.1925
 2260W        W 6460   8.688   7.362   4.293  0.0561 -0.0619 -0.1967
 2261W        W 6461   3.516   9.895  11.560  0.0342 -0.1457 -0.2908
 2262W        W 6462   6.932   8.290   1.006  0.0282  0.0877 -0.1316
 2263W        W 6463   1.175   7.315   3.884  0.1272  0.0256  0.0540
 2264W        W 6464   5.818   5.491   3.831 -0.3600  0.2533 -0.1175
 2265W        W 6465   2.131   6.272  11.366  0.0375  0.1265  0.0494
 2266W        W 6466   7.826   9.040  12.349 -0.2302  0.0236  0.0850
 2267W        W 6467   3.026   5.506   2.200 -0.0383 -0.2719 -0.0561
 2268W        W 6468   8.163   8.030   8.664 -0.2087 -0.1346  0.0128
 2269W        W 6469   9.280   3.154   3.706  0.0420 -0.2206 -0.3061
 2270W        W 6470   3.973   4.426   4.738 -0.6898 -0.0172  0.2806
 2271W        W 6471  10.156   0.504   9.034 -0.0990 -0.3578  0.0025
 2272W        W 6472  10.449   0.255   4.118 -0.0168  0.1700  0.0006
 2273W        W 6473   0.550   1.545   1.570  0.1699 -0.0373 -0.2834
 2274W        W 6474   3.278   3.578   2.490  0.2178  0.0534 -0.1433
 2275W        W 6475   6.897   6.494   2.242 -0.2622  0.0554 -0.0354
 2276W        W 6476   3.826   3.118   0.676  0.1110  0.0688 -0.0224
 2277W        W 6477   0.098   3.161   0.001 -0.0461  0.3216 -0.1081
 2278W        W 6478   8.007   2.870   2.241  0.2335 -0.0626 -0.0415
 2279W        W 6479   0.194   9.956  13.282  0.0595 -0.0738  0.5858
 2280W        W 6480   6.701   1.536  12.786 -0.4640  0.0565  0.1690
 2281W        W 6481   7.779   2.413   4.556 -0.0592  0.4322  0.1102
 2282W        W 6482   7.887   3.360   3.927 -0.0347  0.2653 -0.2792
 2283W        W 6483   4.477   5.072  11.070  0.2052 -0.3128  0.3441
 2284W        W 6484   4.160   1.587  13.072  0.0229  0.0351 -0.0591
 2285W        W 6485   2.768   1.664  10.736  0.2294  0.2277  0.0934
 2286W        W 6486   7.586   6.866   9.380  0.2307  0.3398 -0.0895
 2287W        W 6487   4.376   8.043   3.730  0.0166  0.0882 -0.1374
 2288W        W 6488   9.703   2.593  10.493  0.2105  0.2048  0.0369
 2289W        W 6489   4.169   9.666  10.191 -0.0127 -0.1984 -0.2007
 2290W        W 6490   4.084   8.052  12.112  0.0958 -0.1741  0.1449
 2291W        W 6491   4.049   8.710   3.867 -0.0662 -0.1235  0.0647
 2292W        W 6492   8.938   3.950   1.701 -0.1713  0.1740 -0.3457
 2293W        W 6493   0.255   2.071   8.443 -0.0339 -0.1274  0.0740
 2294W        W 6494   2.597   1.867  12.315  0.2478  0.0598 -0.0846
 2295W        W 6495   3.200   5.145   8.985 -0.1632 -0.3851  0.1445
 2296W        W 6496   2.777   6.862  12.389 -0.0961 -0.0089  0.0095
 2297W        W 6497   6.119   5.663  11.521 -0.1140  0.4148  0.1097
 2298W        W 6498   9.404   0.468   2.447 -0.1723  0.0594  0.0902
 2299W        W 6499   4.926   7.338   1.375  0.0685 -0.1994  0.1914
 2300W        W 6500   1.212   3.475   9.464  0.2605  0.0538 -0.4331
 2301W        W 6501   7.465   2.940   0.461  0.0085 -0.0963  0.1492
 2302W        W 6502   2.867   0.455   9.579 -0.0905 -0.2079 -0.1613
 2303W        W 6503   0.531   5.630   0.208 -0.1999 -0.2168 -0.2595
 2304W        W 6504   7.243   0.452   9.407 -0.1515 -0.2388 -0.0538
 2305W        W 6505   8.798   2.063   2.705 -0.1310  0.0723 -0.1753
 2306W        W 6506   8.507   1.794   2.365  0.0243  0.1970  0.2949
 2307W        W 6507  10.012   2.054  12.193  0.0378  0.1422  0.0810
 2308W        W 6508   0.920   4.384  11.449 -0.2964  0.0018 -0.0881
 2309W        W 6509   9.615   6.195   0.999  0.0161 -0.2093  0.2937
 2310W        W 6510   9.617   3.237   2.200  0.1827  0.0534  0.0868
 2311W        W 6511   0.886   0.772   9.117 -0.1244 -0.2896 -0.1190
 2312W        W 6512   2.413   5.127   1.056 -0.0004 -0.0840  0.0850
 2313W        W 6513   9.978   6.105   1.441  0.3607 -0.2477 -0.3139
 2314W        W 6514   4.454   4.689   4.852  0.0946  0.2124 -0.3290
 2315W        W 6515   9.768   6.145   0.481 -0.0253  0.2353 -0.0791
 2316W        W 6516   3.454   3.246  11.954  0.2423  0.2796 -0.0379
 2317W        W 6517   6.715   6.405   8.642 -0.2443 -0.0936  0.3491
 2318W        W 6518   4.411  10.224   1.795  0.0655 -0.3208  0.2830
 2319W        W 6519   4.796   5.239   9.511 -0.1694 -0.1498 -0.1657
 2320W        W 6520   0.896  10.251   0.404 -0.2300  0.2204  0.1525
 2321W        W 6521   5.560   3.234   3.550 -0.0654  0.2596 -0.1406
 2322W        W 6522   7.603   3.070   3.617  0.0802  0.1485 -0.4505
 2323W        W 6523   8.573   5.489   3.132  0.0956 -0.0406 -0.0686
 2324W        W 6524   6.797   7.316   1.721  0.0244  0.1431  0.0287
 2325W        W 6525   3.048   6.309   3.787 -0.0191 -0.2177 -0.0769
 2326W        W 6526   3.646   7.911   4.721 -0.1645  0.0910  0.1608
 2327W        W 6527   0.541   5.721  12.715 -0.1020  0.2794 -0.1507
 2328W        W 6528   0.665   9.175  10.414  0.1395  0.3898  0.2993
 2329W        W 6529   7.042   9.940  12.794 -0.0660  0.0149 -0.0039
 2330W        W 6530   9.406   9.595   0.549  0.1907 -0.2873  0.0002
 2331W        W 6531   0.622   6.194  10.775  0.2084  0.2360  0.0851
 2332W        W 6532   7.650   7.004   1.134 -0.0118 -0.4399  0.3798
 2333W        W 6533   1.153   8.095   2.521  0.1314  0.0668 -0.0839
 2334W        W 6534   0.706  10.422   1.194 -0.2130 -0.0854 -0.0971
 2335W        W 6535   8.347   7.755   1.148 -0.0130  0.1184  0.2615
 2336W        W 6536   8.404   8.547   4.262  0.0605  0.0377 -0.2257
 2337W        W 6537   7.048   9.392   0.103  0.1759  0.0284  0.0204
 2338W        W 6538   3.176   4.779   2.974 -0.1689 -0.0342  0.0634
 2339W        W 6539   9.326   6.714   1.794  0.1618  0.1080 -0.0117
 2340W        W 6540   2.432   6.951   4.149  0.1089 -0.2238 -0.3175
 2341W        W 6541   4.293   4.557  11.714 -0.0230  0.1053 -0.1888
 2342W        W 6542   2.631   8.791  13.260 -0.2138  0.1264  0.1473
 2343W        W 6543   9.079   4.195  10.787 -0.3456 -0.0495 -0.2335
 2344W        W 6544   5.863   5.830   0.025 -0.0062  0.1998  0.4356
 2345W        W 6545   5.813   7.359   9.104  0.2557  0.0000 -0.1772
 2346W        W 6546  10.451   4.707  11.759 -0.0444  0.3878  0.2149
 2347W        W 6547   2.782   7.146   1.100 -0.0682  0.3150  0.0398
 2348W        W 6548   2.972  10.399   0.074 -0.2844 -0.5011 -0.0574
 2349W        W 6549   1.679   6.469  12.746 -0.1166  0.0276  0.0747
 2350W        W 6550   8.545   2.341   0.329  0.1729 -0.2314 -0.1026
 2351W        W 6551   3.380   6.010   3.440 -0.1047 -0.0212 -0.0019
 2352W        W 6552   0.331   6.408   3.011 -0.1006  0.0263 -0.2791
 2353W        W 6553   9.722   7.047   2.000  0.0385 -0.0748  0.0498
 2354W        W 6554   5.661   3.210  12.465  0.2331 -0.2633 -0.0584
 2355W        W 6555   9.096   6.629   9.615  0.1793 -0.0022 -0.0197
 2356W        W 6556   7.910   6.994   3.475 -0.1292  0.1688  0.0362
 2357W        W 6557  10.434   8.453  11.386 -0.1406  0.2672 -0.0928
 2358W        W 6558   6.512   4.071   1.561 -0.0035 -0.0391 -0.0322
 2359W        W 6559   3.112   1.094  12.646 -0.0376 -0.1754  0.1181
 2360W        W 6560   8.802   1.988  12.355 -0.0757 -0.1116  0.0160
 2361W        W 6561   2.716   3.278   0.731  0.1521 -0.0591  0.1117
 2362W        W 6562   6.733   4.283   2.609 -0.3140  0.2167  0.3401
 2363W        W 6563   8.386  10.067   3.905  0.0170 -0.6916  0.1028
 2364W        W 6564   7.328   8.846   3.269 -0.1744  0.2712  0.2037
 2365W        W 6565   1.494   6.389  12.262  0.1305 -0.0155 -0.0327
 2366W        W 6566   5.833   7.702   3.232  0.2054 -0.0281  0.1666
 2367W        W 6567   1.703   6.604   1.453  0.0576  0.2002 -0.0462
 2368W        W 6568   5.058   7.387   9.442  0.3659 -0.0788  0.1902
 2369W        W 6569   9.068   9.728   9.104 -0.1952  0.3383 -0.1009
 2370W        W 6570   2.088   5.026  10.073  0.3554 -0.1935 -0.1567
 2371W        W 6571   7.716   9.607   3.606  0.2908 -0.2124  0.0361
 2372W        W 6572   1.611   0.848  12.555  0.0438  0.2479 -0.0373
 2373W        W 6573   3.943   6.373   9.259 -0.1283  0.2533  0.1717
 2374W        W 6574   1.271   6.284   1.393  0.1296  0.5601  0.0876
 2375W        W 6575   5.323   4.991   4.435  0.2844  0.1623 -0.2572
 2376W        W 6576   6.986   1.434  12.417 -0.1757  0.0624  0.2616
 2377W        W 6577   2.568   7.100   8.493 -0.2495 -0.1179 -0.2286
 2378W        W 6578   3.732   4.027   1.327 -0.0705 -0.2006 -0.1088
 2379W        W 6579   1.281   9.363   4.091  0.2636  0.0710 -0.2871
 2380W        W 6580   2.949  10.423   1.815  0.2451  0.0228 -0.1821
 2381W        W 6581   7.939   1.716   0.091 -0.2196  0.1553  0.4108
 2382W        W 6582   9.017   8.856   2.725 -0.1980 -0.1964  0.0126
 2383W        W 6583   1.590   0.151   2.680 -0.0295  0.2169  0.0270
 2384W        W 6584   0.977  10.286   1.561 -0.1461  0.0587 -0.2385
 2385W        W 6585   8.335   5.096   3.398 -0.7274  0.2061  0.0766
 2386W        W 6586   4.528   7.839  10.092  0.0334 -0.4612 -0.0226
 2387W        W 6587   7.622   1.495  12.955 -0.0145  0.1847 -0.2409
 2388W        W 6588   7.853   2.578   0.359  0.3270 -0.1492 -0.5310
 2389W        W 6589   0.034   1.554  11.349  0.1452  0.1622  0.0676
 2390W        W 6590   3.400   3.556   9.812  0.2346 -0.1648  0.2475
 2391W        W 6591   7.169   2.407   0.202 -0.1172 -0.1685 -0.1595
 2392W        W 6592   8.958   1.645   3.088  0.0887  0.2411 -0.1677
 2393W        W 6593   8.140   8.465   5.143 -0.2614  0.1110 -0.1319
 2394W        W 6594   3.983   8.623  13.208  0.4637 -0.2744  0.1017
 2395W        W 6595   3.163   8.621   3.704 -0.0530 -0.0621 -0.0239
 2396W        W 6596   5.761   9.209  12.932  0.1557  0.0374 -0.0935
 2397W        W 6597   9.346   7.435   4.038  0.1497  0.0715  0.2611
 2398W        W 6598   3.234   1.246  10.073  0.1976 -0.0960  0.0785
 2399W        W 6599   0.687   0.982  11.809  0.0192  0.1257  0.2745
 2400W        W 6600   9.628   2.366   4.403 -0.4566  0.0197 -0.3560
 2401W        W 6601   2.564   5.425   8.456  0.1569 -0.1937  0.1454
 2402W        W 6602   2.921   4.544   3.321 -0.0559 -0.2676  0.0500
 2403W        W 6603   5.600   4.504   1.567 -0.0476 -0.1000  0.1417
 2404W        W 6604   9.138   3.890   3.284  0.1697 -0.0292 -0.0539
 2405W        W 6605  10.471   1.874   0.519  0.0297 -0.2578  0.1152
 2406W        W 6606   1.896   9.733  12.222  0.2835  0.0466 -0.3678
 2407W        W 6607   1.783   0.525   9.427 -0.0534  0.0022 -0.0180
 2408W        W 6608   2.207   9.522   1.185 -0.1180  0.0371 -0.2016
 2409W        W 6609   8.173   3.302   8.874 -0.0803  0.0957 -0.3303
 2410W        W 6610   4.049   6.515   0.819  0.0097 -0.1073 -0.2623
 2411W        W 6611   2.177   7.307   0.213  0.0412  0.1700 -0.0175
 2412W        W 6612   2.748   7.288  12.791  0.3453  0.3519 -0.2001
 2413W        W 6613   5.073   8.638   3.329 -0.0680  0.1527 -0.0098
 2414W        W 6614   9.513   8.896  11.332 -0.0924 -0.1473  0.1303
 2415W        W 6615   6.539   4.500   3.100 -0.1355 -0.1801  0.1467
 2416W        W 6616   6.024   3.382   3.299 -0.3946 -0.2786  0.2206
 2417W        W 6617  10.278  10.369  12.600 -0.0192  0.0647  0.0475
 2418W        W 6618   7.939   7.840  12.763 -0.1850  0.0700  0.0935
 2419W        W 6619   3.847   1.121   0.957  0.0373 -0.3903  0.0683
 2420W        W 6620   1.307   0.765   9.591 -0.1004 -0.3174  0.1931
 2421W        W 6621   5.103   1.152   9.749  0.2307  0.1987 -0.2032
 2422W        W 6622   3.034   3.008  12.182 -0.1554 -0.0338 -0.3940
 2423W        W 6623  10.259   9.927  10.822 -0.0857  0.2926  0.4604
 2424W        W 6624   1.960  10.112  12.594  0.0549  0.1585 -0.3232
 2425W        W 6625   3.994   5.599   1.317 -0.1149 -0.2670  0.0977
 2426W        W 6626   6.151   8.237   9.514  0.1245 -0.2546 -0.1149
 2427W        W 6627   5.758  10.236  12.196 -0.0085  0.4287 -0.2068
 2428W        W 6628   2.255   0.868  10.427  0.0179  0.1116 -0.0775
 2429W        W 6629   0.831   6.853   2.960 -0.0736 -0.2187  0.0238
 2430W        W 6630   6.459   6.720  10.652  0.2628  0.0450  0.0693
 2431W        W 6631   3.669   3.274   2.456 -0.2111 -0.3176  0.2443
 2432W        W 6632   1.570   5.857  12.128 -0.0156  0.1149 -0.5089
 2433W        W 6633   3.940   2.973   3.100 -0.1031 -0.0953  0.1083
 2434W        W 6634   4.593   2.825   9.723 -0.2533 -0.0839  0.0736
 2435W        W 6635   6.326   0.674   9.824  0.2599  0.0578  0.3928
 2436W        W 6636   5.111   2.139  12.548 -0.0858  0.0497 -0.2112
 2437W        W 6637   3.720   7.263   1.335  0.1232  0.0635  0.2947
 2438W        W 6638   6.530   7.358  11.117  0.1474 -0.1180 -0.0252
 2439W        W 6639   4.495   4.551   8.952 -0.1597  0.2069  0.0366
 2440W        W 6640   1.221   1.098   3.102 -0.0424  0.1805  0.1006
 2441W        W 6641   7.541   3.338   0.944  0.0170 -0.0976 -0.1908
 2442W        W 6642  10.376   6.448   1.322  0.2769  0.0441 -0.0862
 2443W        W 6643   0.120   2.800   3.981 -0.1235  0.0749  0.1209
 2444W        W 6644   5.680   8.019   9.485  0.3670 -0.0838  0.3936
 2445W        W 6645   2.486   3.068  12.056  0.0064 -0.2523 -0.0632
 2446W        W 6646   8.660   7.927   2.049  0.1006  0.2228 -0.1111
 2447W        W 6647   4.155   4.859   2.754  0.0696 -0.1947  0.4768
 2448W        W 6648   6.158   9.050   2.062  0.2196 -0.0669 -0.1143
 2449W        W 6649   1.027   7.358   3.042 -0.2746 -0.0438 -0.0299
 2450W        W 6650   0.196   4.453   4.264 -0.4832 -0.1818 -0.0752
 2451W        W 6651   6.373   1.964  11.362  0.0251 -0.2227  0.1151
 2452W        W 6652   3.004   2.520   1.636  0.0413 -0.1117 -0.0566
 2453W        W 6653   1.218   4.606  11.785 -0.2405  0.1192 -0.3129
 2454W        W 6654  10.008   9.009  10.907 -0.0322 -0.0337  0.3331
 2455W        W 6655   1.426   1.697   1.966  0.2170  0.1091  0.1069
 2456W        W 6656   4.586   2.365  10.872  0.3253 -0.0054  0.1174
 2457W        W 6657   1.164   3.201  12.333  0.0284 -0.1790 -0.0889
 2458W        W 6658  10.105   7.810   1.778  0.2179  0.0755 -0.1463
 2459W        W 6659   2.779   7.699  12.434 -0.0072  0.2152  0.0053
 2460W        W 6660   1.523   4.402   8.317 -0.1144  0.0358 -0.1875
 2461W        W 6661   6.377   9.978   1.139  0.0496  0.1414 -0.4438
 2462W        W 6662   8.068   2.733  13.310 -0.4390  0.0427 -0.2932
 2463W        W 6663   5.288   8.506   1.426  0.2414 -0.0396  0.3378
 2464W        W 6664   5.886   5.908   4.355  0.2377  0.0754  0.0873
 2465W        W 6665   0.514   6.799  12.112 -0.2687  0.2636  0.2057
 2466W        W 6666   0.378   0.366   1.756  0.0122 -0.1305  0.1860
 2467W        W 6667   5.362   0.427   8.770 -0.0242  0.1259  0.0090
 2468W        W 6668   7.490   4.641   4.368 -0.2325 -0.1708  0.1413
 2469W        W 6669   6.024   5.846  12.897 -0.1100 -0.1075  0.3455
 2470W        W 6670   1.423   4.946   0.885 -0.1790  0.0621  0.1182
 2471W        W 6671   6.488   4.115   0.588  0.2163 -0.1853  0.1385
 2472W        W 6672   4.362   6.576   4.830 -0.1073  0.2055  0.0345
 2473W        W 6673   4.181   8.997   0.018  0.1257 -0.0446  0.2294
 2474W        W 6674   2.801   3.921  11.117 -0.0523  0.2399  0.1476
 2475W        W 6675   6.417   2.786   4.453  0.1951 -0.0513 -0.2878
 2476W        W 6676   1.047   7.855   0.581 -0.1743  0.0475 -0.0572
 2477W        W 6677   6.029   2.432   3.201 -0.0272 -0.0285 -0.0571
 2478W        W 6678   1.912   7.473   1.642  0.5579 -0.0584  0.1209
 2479W        W 6679   1.147   2.517  10.345  0.2118  0.3304  0.0873
 2480W        W 6680   8.934   1.079   2.424 -0.0805 -0.2068 -0.2563
 2481W        W 6681   9.513   3.622   3.405  0.1462  0.5129 -0.1723
 2482W        W 6682   8.730   1.275   9.354 -0.1868 -0.0430  0.0449
 2483W        W 6683   0.251   7.471   9.242 -0.2072  0.0156 -0.0391
 2484W        W 6684   7.621   1.457  10.760  0.2488  0.2394 -0.0118
 2485W        W 6685  10.198   6.198  12.695  0.0556  0.1127  0.1383
 2486W        W 6686   8.741   3.345  10.056 -0.0478  0.0855 -0.0166
 2487W        W 6687   2.676   1.631  11.870 -0.1420  0.1468 -0.0667
 2488W        W 6688   3.958   9.963   1.922 -0.1221 -0.1205 -0.2067
 2489W        W 6689   2.285   7.898   2.607  0.1259 -0.2110  0.2865
 2490W        W 6690   4.481   0.482  11.632  0.2116  0.4855 -0.2303
 2491W        W 6691   1.380   3.547   2.154 -0.1606 -0.0732  0.0751
 2492W        W 6692  10.181   5.360   3.087 -0.1834 -0.2300 -0.1651
 2493W        W 6693   9.144   7.507  11.079 -0.0111 -0.0634  0.0326
 2494W        W 6694   3.289   6.973   1.385  0.0137  0.0614  0.3676
 2495W        W 6695   8.135   0.346  12.444 -0.0437 -0.2558  0.1885
 2496W        W 6696   5.301  10.164  13.067 -0.2386 -0.2280 -0.0715
 2497W        W 6697   0.667   4.481  13.337 -0.0609  0.2436  0.1228
 2498W        W 6698   6.255   5.244   4.065  0.0386 -0.0170  0.0836
 2499W        W 6699   4.113   2.401   4.661  0.2000 -0.2151 -0.2030
 2500W        W 6700   1.692   6.401  11.810 -0.0513 -0.0080 -0.0099
 2501W        W 6701   2.687   7.025  10.878  0.0318 -0.0989  0.0833
 2502W        W 6702   9.154   4.322  11.902  0.1072 -0.1250 -0.1567
 2503W        W 6703   3.497   7.078   0.852  0.1546  0.4420  0.1864
 2504W        W 6704   9.252   5.203   0.356  0.2122  0.1206 -0.4994
 2505W        W 6705   3.545   8.573  11.396  0.0906  0.1393  0.0758
 2506W        W 6706   6.073   0.026   3.590  0.1375 -0.1404  0.0224
 2507W        W 6707   6.922   4.718   9.670  0.0207  0.0745 -0.1785
 2508W        W 6708   0.605   9.835   9.729 -0.0126 -0.1745 -0.2277
 2509W        W 6709   8.145   6.989   2.126 -0.0008  0.2200 -0.2859
 2510W        W 6710   8.284   5.748   3.672  0.0537  0.0640 -0.0157
 2511W        W 6711   0.677   9.716  10.259  0.2118  0.0635  0.0238
 2512W        W 6712   1.867   5.849   2.827  0.1372 -0.1008  0.3161
 2513W        W 6713  10.436   7.789   4.429  0.1573 -0.2243 -0.0347
 2514W        W 6714   5.362   2.582  10.684 -0.2043  0.0557 -0.2213
 2515W        W 6715   5.701   7.764   0.012  0.2242 -0.3647 -0.0692
 2516W        W 6716   3.148   0.583   9.131 -0.0971  0.1778  0.2374
 2517W        W 6717   4.459   4.764   2.334  0.1419  0.2650  0.2981
 2518W        W 6718  10.320   5.377  10.948  0.1166 -0.1353 -0.0307
 2519W        W 6719   2.633   5.842  11.125  0.0555 -0.0004 -0.3281
 2520W        W 6720   1.731   3.408  12.962 -0.1311 -0.0195  0.2265
 2521W        W 6721   1.628   7.709  10.105 -0.0283  0.0653 -0.1362
 2522W        W 6722   8.149   8.795   2.527  0.1374  0.1713  0.1509
 2523W        W 6723   1.320   7.291   0.307 -0.2188 -0.3431 -0.1208
 2524W        W 6724   9.336   0.259  11.057  0.0725  0.2907 -0.1263
 2525W        W 6725   3.991   8.879   3.357  0.3278  0.0855  0.2654
 2526W        W 6726   7.326   7.148   0.306  0.0491 -0.0423  0.1026
 2527W        W 6727   0.412   1.839   1.944 -0.1493 -0.2612 -0.0228
 2528W        W 6728   6.028   4.248  12.897 -0.1713  0.0378 -0.3583
 2529W        W 6729   0.402   2.052  12.669 -0.0258 -0.1648 -0.5589
 2530W        W 6730   7.913   2.628   9.393 -0.0676 -0.2928 -0.0152
 2531W        W 6731  10.117   6.892   1.729 -0.2462 -0.2413  0.1392
 2532W        W 6732   1.296   1.986   2.880 -0.0769  0.0922  0.1990
 2533W        W 6733   1.016   3.852   1.711  0.1145  0.1147 -0.0418
 2534W        W 6734   3.844   8.764   9.653 -0.1756 -0.1968 -0.1610
 2535W        W 6735   8.512   0.201   2.409  0.3057 -0.3973 -0.1504
 2536W        W 6736   9.297   9.042   3.525 -0.0598  0.3309  0.1353
 2537W        W 6737   9.423   2.796  12.111  0.0135  0.1608  0.0622
 2538W        W 6738  10.437   7.519   1.092 -0.0374 -0.1362 -0.0719
 2539W        W 6739   2.692   7.424   2.829  0.2429 -0.3531 -0.1732
 2540W        W 6740   4.354   5.904   2.047  0.0890  0.2815  0.1110
 2541W        W 6741   0.638   9.678  11.163 -0.1037 -0.1262  0.1748
 2542W        W 6742   9.662   2.486   8.449  0.0811  0.0459  0.0537
 2543W        W 6743   7.133   2.687  10.288 -0.1007 -0.1002 -0.3408
 2544W        W 6744   5.086   3.814  13.108  0.0301  0.1269  0.2457
 2545W        W 6745   6.928   6.995   3.299  0.0693 -0.1058  0.2320
 2546W        W 6746   6.202   1.006   3.711 -0.2310  0.2019  0.1385
 2547W        W 6747   1.251   6.455   9.535 -0.0495 -0.0645 -0.1402
 2548W        W 6748   6.825   8.577   0.407 -0.0511  0.2442  0.0224
 2549W        W 6749   3.415   0.955   4.091 -0.0253 -0.1610  0.3300
 2550W        W 6750   6.755   6.574   0.000  0.0631 -0.1774 -0.1437
 2551W        W 6751   5.697   5.037   9.302 -0.0008 -0.3933  0.3469
 2552W        W 6752   1.616   7.998   1.109  0.3800  0.2207  0.0935
 2553W        W 6753   9.462   1.043  11.431  0.2223 -0.3912 -0.2529
 2554W        W 6754   1.852  10.282  10.152 -0.2031  0.1539 -0.1226
 2555W        W 6755   7.255   3.698  10.766  0.0927 -0.0708 -0.1410
 2556W        W 6756   9.277   0.593   4.334 -0.2030 -0.0291 -0.0210
 2557W        W 6757   6.164   9.979  11.966 -0.1783  0.0847  0.3829
 2558W        W 6758   3.202   5.759  13.337  0.1024  0.0615 -0.1692
 2559W        W 6759   5.029   4.471  11.047  0.0268 -0.3271 -0.2299
 2560W        W 6760   8.727   7.015   3.900  0.3909 -0.4235  0.1375
 2561W        W 6761   7.532   6.821   1.967  0.3041  0.2064 -0.1896
 2562W        W 6762   6.396   8.208   9.946  0.0985  0.0584 -0.0981
 2563W        W 6763   8.373   1.165  12.605 -0.0477 -0.3853  0.1401
 2564W        W 6764   3.148   7.049   9.262 -0.3827 -0.0306  0.0358
 2565W        W 6765   5.424   3.149   1.769 -0.1379 -0.0777 -0.2017
 2566W        W 6766   8.383   8.035   9.079  0.1259  0.0830  0.2910
 2567W        W 6767   5.824   2.099   1.284 -0.0523  0.0982 -0.1270
 2568W        W 6768   2.645   3.759  10.656  0.0642 -0.1380  0.0283
 2569W        W 6769   7.031   7.064   4.242 -0.0076  0.7278 -0.1658
 2570W        W 6770   6.136   0.374   0.743  0.0462  0.3953  0.4394
 2571W        W 6771   9.871   0.395   2.701 -0.0189 -0.1880 -0.1347
 2572W        W 6772   1.847   8.897   2.402 -0.0310 -0.2566 -0.0333
 2573W        W 6773   4.868   8.060  12.042 -0.1664 -0.0305 -0.1974
 2574W        W 6774   6.472   4.097  12.000  0.0959 -0.3804  0.0566
 2575W        W 6775   7.498   6.824  10.419  0.1105  0.1564 -0.0294
 2576W        W 6776   7.439   5.833   1.648 -0.1474  0.1264  0.1415
 2577W        W 6777   2.235   7.660   9.211 -0.0539 -0.0893 -0.1645
 2578W        W 6778   4.623   2.027   2.432 -0.3771  0.2638 -0.2549
 2579W        W 6779   7.879   8.794  11.177 -0.0238 -0.4147  0.1025
 2580W        W 6780   6.481   3.235  12.199  0.0111 -0.1820 -0.1000
 2581W        W 6781  10.412   9.823   0.322  0.0319 -0.0738 -0.1993
 2582W        W 6782   5.498   7.651  10.916  0.2477  0.0812  0.0735
 2583W        W 6783   9.971   5.498  10.572  0.1398  0.1133 -0.1265
 2584W        W 6784   3.994   3.106  13.026 -0.3085 -0.1531 -0.1758
 2585W        W 6785   3.650   5.234  11.447 -0.2610  0.0593 -0.1546
 2586W        W 6786   5.475   5.536   1.291  0.1481 -0.1310  0.1986
 2587W        W 6787   4.888   3.334  10.353  0.2584  0.1771 -0.1962
 2588W        W 6788   5.369   7.870   3.173 -0.1862 -0.6502 -0.0665
 2589W        W 6789   0.466   9.361   9.953 -0.2913 -0.2113 -0.2969
 2590W        W 6790   4.324   9.742   9.690 -0.1796 -0.2850 -0.1769
 2591W        W 6791   4.242  10.054  12.603  0.0785  0.1497 -0.1159
 2592W        W 6792   6.516   7.159   2.988  0.1939  0.2569 -0.1411
 2593W        W 6793   6.056  10.331   4.030  0.0832  0.1930 -0.0008
 2594W        W 6794   8.330   8.805  11.519  0.3820 -0.0308 -0.2756
 2595W        W 6795   9.106  10.429   1.477 -0.1345 -0.0167  0.1532
 2596W        W 6796   5.879   5.534   0.947 -0.0541 -0.2752  0.0814
 2597W        W 6797   5.621   0.857   2.864 -0.0383  0.0167 -0.2748
 2598W        W 6798   3.770   3.346   9.516 -0.1039  0.1726  0.0021
 2599W        W 6799   7.825   2.899   1.424 -0.3260  0.2774 -0.2988
 2600W        W 6800   7.994   2.875   3.258 -0.2059  0.1726 -0.2524
 2601W        W 6801   9.041   9.289  10.611  0.2704 -0.2111 -0.2348
 2602W        W 6802   7.551   2.221  10.378 -0.0254 -0.1688  0.1299
 2603W        W 6803   2.303   6.562  10.000 -0.1036  0.1981 -0.0846
 2604W        W 6804   8.605   8.255   0.157 -0.1190  0.1507  0.0411
 2605W        W 6805   1.208   7.295  11.634  0.3809 -0.0955  0.0484
 2606W        W 6806   5.182   5.347  10.461 -0.1869  0.2136  0.2342
 2607W        W 6807   2.538   8.907  12.798 -0.1374 -0.2064 -0.1505
 2608W        W 6808   7.564   0.909   4.897  0.2770 -0.2991  0.2003
 2609W        W 6809   4.954  10.138   2.945 -0.0169 -0.2068 -0.0270
 2610W        W 6810   7.411   8.230   3.024 -0.0094  0.0833 -0.0756
 2611W        W 6811   2.319  10.031   4.611  0.0427  0.3665 -0.3053
 2612W        W 6812   6.285   5.007   1.801  0.1125  0.0252 -0.0677
 2613W        W 6813   4.854   5.854   3.442  0.1546  0.1270 -0.0892
 2614W        W 6814   6.625   7.330   4.407  0.0425 -0.0340  0.2599
 2615W        W 6815   6.813   9.028   3.965 -0.0671 -0.2768 -0.0352
 2616W        W 6816   1.885   2.994   0.935  0.3876 -0.1914 -0.1564
 2617W        W 6817   5.395   6.591  10.487 -0.1679 -0.0126 -0.1568
 2618W        W 6818   8.348   9.461  10.730  0.0654  0.0868 -0.0583
 2619W        W 6819   1.978   3.959   8.936 -0.0847 -0.0948  0.1467
 2620W        W 6820   7.749   8.467  12.341  0.1975 -0.1391 -0.1057
 2621W        W 6821   0.079   6.608   2.597 -0.0865  0.0162  0.0681
 2622W        W 6822   3.672   2.525   0.342 -0.1422  0.0496  0.0387
 2623W        W 6823   7.016  10.046   4.302 -0.0522  0.0274  0.1357
 2624W        W 6824   6.098   7.454   2.099 -0.1653  0.0487  0.1453
 2625W        W 6825   8.049   4.372   8.958  0.0795 -0.1910  0.2017
 2626W        W 6826   0.906   1.074   4.916  0.1134  0.0191  0.1217
 2627W        W 6827   8.482   5.434   2.662  0.1325 -0.1278  0.2599
 2628W        W 6828   1.016   6.551  11.748 -0.1347  0.0262 -0.0518
 2629W        W 6829   6.471   2.401   3.528 -0.0357 -0.3681  0.2029
 2630W        W 6830   5.044   3.589  11.948  0.1351  0.0976 -0.0414
 2631W        W 6831   2.378   0.397  13.101 -0.0458 -0.2420  0.2957
 2632W        W 6832   8.156   0.987  10.020  0.0020  0.2055 -0.0484
 2633W        W 6833   9.600   8.840   1.224 -0.1727 -0.4600 -0.0393
 2634W        W 6834   1.757   3.483  10.315  0.0257 -0.2192  0.2058
 2635W        W 6835   3.274   5.218   1.061  0.0739  0.2878 -0.2332
 2636W        W 6836   2.429   8.583   2.026 -0.1313 -0.1689  0.1545
 2637W        W 6837   9.907   9.939   8.311  0.0745 -0.0231 -0.4518
 2638W        W 6838   4.694   2.709   0.313 -0.0303 -0.2149  0.2207
 2639W        W 6839   2.136   7.349   8.831 -0.2278 -0.0220 -0.1690
 2640W        W 6840   7.225   2.442  12.999 -0.0650  0.1916 -0.4308
 2641W        W 6841   7.392   4.835   3.373 -0.0139 -0.0139  0.1925
 2642W        W 6842   6.834   0.719   1.221 -0.1034 -0.0586  0.0038
 2643W        W 6843   8.661   3.542   4.994  0.1685 -0.1070 -0.0733
 2644W        W 6844   8.703   2.551   1.036  0.2727  0.0106  0.3165
 2645W        W 6845   5.148   6.984   4.212  0.0775 -0.1072  0.0718
 2646W        W 6846   7.575   5.902   4.804 -0.1173 -0.0218  0.0556
 2647W        W 6847   4.733   0.685   1.461 -0.2713  0.0513  0.0519
 2648W        W 6848   4.170   4.937  10.735  0.3071 -0.1288 -0.1863
 2649W        W 6849   4.776   7.803   8.591  0.0076 -0.2692 -0.0184
 2650W        W 6850   7.633   9.118   8.944  0.0888 -0.2872 -0.1226
 2651W        W 6851   9.857   6.515   3.753 -0.0982  0.1020  0.0805
 2652W        W 6852   7.507   5.096  10.444 -0.1285 -0.0484  0.0016
 2653W        W 6853   8.960   6.173  10.959  0.1750  0.2603 -0.2750
 2654W        W 6854   3.556   0.112   0.358  0.0448  0.1447  0.0904
 2655W        W 6855   9.837   3.082  11.120 -0.0795  0.0420 -0.1463
 2656W        W 6856   4.126   3.620  10.414  0.1926  0.0245 -0.1184
 2657W        W 6857   1.175   4.280  10.119 -0.1050  0.0725  0.2831
 2658W        W 6858   3.265   0.889  10.429 -0.1593  0.1645 -0.1634
 2659W        W 6859   3.341   4.750   3.961 -0.0216 -0.2261  0.2637
 2660W        W 6860   8.299   0.644   1.051 -0.3155 -0.1171  0.0631
 2661W        W 6861   6.117   3.089   4.770 -0.1235  0.3116 -0.2619
 2662W        W 6862   0.390   2.174   0.892 -0.0665 -0.0723 -0.2139
 2663W        W 6863   5.368   4.465   2.316  0.0436  0.2444 -0.0848
 2664W        W 6864   9.794   5.262  11.127  0.1543  0.0591 -0.4167
 2665W        W 6865   6.380   6.244  10.555  0.1498  0.0838 -0.2068
 2666W        W 6866   1.761   7.942   2.356 -0.0588  0.2207 -0.0119
 2667W        W 6867   4.105   2.755   2.119  0.1560  0.0556 -0.0373
 2668W        W 6868   2.475   0.634  11.404  0.0276 -0.4442  0.2121
 2669W        W 6869   7.684   1.214   0.017  0.3270  0.0210 -0.2983
 2670W        W 6870   7.000   1.668  10.596  0.1093 -0.0236  0.0459
 2671W        W 6871   9.537  10.123  12.010 -0.4086  0.0475 -0.2477
 2672W        W 6872   2.821   0.851   1.355 -0.0996 -0.1753 -0.1081
 2673W        W 6873   8.360   7.527  11.822 -0.2046  0.1376 -0.1157
 2674W        W 6874   8.007   1.643   3.320  0.1693 -0.1705  0.1908
 2675W        W 6875   8.219   6.145   1.927 -0.4364 -0.4875  0.0776
 2676W        W 6876   1.797  10.111   4.457  0.1293 -0.3885 -0.1743
 2677W        W 6877   4.551   3.058  11.645  0.2845  0.2414 -0.1293
 2678W        W 6878   1.291   4.191  12.820  0.1404  0.1251  0.1737
 2679W        W 6879   7.835   4.183  13.246 -0.0049 -0.3158  0.0631
 2680W        W 6880  10.192   9.770   9.818  0.0347  0.0066  0.0399
 2681W        W 6881   1.339   1.778   1.079  0.0349  0.0350 -0.0673
 2682W        W 6882   2.437   3.697   0.361 -0.1052 -0.1104  0.0037
 2683W        W 6883   9.558   0.616   0.993  0.0128  0.0199 -0.0935
 2684W        W 6884   9.847   0.993   1.901  0.1021  0.0841 -0.0920
 2685W        W 6885   5.469   7.451  11.909 -0.0728  0.1405 -0.3939
 2686W        W 6886   7.345   9.422  10.872 -0.0324 -0.2130  0.1442
 2687W        W 6887   2.043   7.069   1.946 -0.1364 -0.1326  0.0259
 2688W        W 6888   0.983   6.833   3.879  0.2727 -0.3401  0.0201
 2689W        W 6889   7.205   3.999  10.224 -0.1531  0.2089  0.0368
 2690W        W 6890   1.387   3.190   0.996 -0.0633  0.0160  0.0158
 2691W        W 6891   8.042   1.452   4.185  0.0716 -0.0492  0.2642
 2692W        W 6892   5.379   8.159  11.082 -0.0338 -0.0150  0.0956
 2693W        W 6893   4.400   3.448   4.222  0.1148 -0.0768 -0.6348
 2694W        W 6894   7.753   3.853   3.716 -0.2050  0.1670 -0.2982
 2695W        W 6895   1.219   8.377   9.901 -0.2656  0.1476 -0.1491
 2696W        W 6896   7.741   9.485   2.064 -0.0500  0.2118  0.0892
 2697W        W 6897   4.659   9.397   1.143  0.1967 -0.0406 -0.0432
 2698W        W 6898   9.802   2.731   1.141 -0.2459 -0.0759 -0.1777
 2699W        W 6899   9.014   2.364   0.194 -0.1454  0.0152 -0.1165
 2700W        W 6900   9.127   2.145  12.693 -0.0328  0.0614  0.1298
 2701W        W 6901   0.727   7.116  12.952 -0.4704 -0.1879 -0.0213
 2702W        W 6902   9.068   4.496   4.998 -0.1363 -0.1418 -0.1566
 2703W        W 6903   1.713   9.314   9.615  0.1038  0.0543 -0.1277
 2704W        W 6904   0.271   7.461   5.094 -0.0828  0.1414 -0.0046
 2705W        W 6905   7.500   2.624  10.765  0.0663 -0.0945  0.1164
 2706W        W 6906   4.283   8.912   9.146  0.0605  0.1406  0.1592
 2707W        W 6907   5.023   4.949  11.393 -0.0973 -0.0642  0.2111
 2708W        W 6908   8.876   8.965  10.033  0.0031  0.0417  0.2847
 2709W        W 6909   7.460   8.994  11.073 -0.2929 -0.1637 -0.1204
 2710W        W 6910   6.525   1.360   0.013  0.0379 -0.1058 -0.0163
 2711W        W 6911   2.431   3.554  11.112  0.0697  0.2345  0.2754
 2712W        W 6912   9.475   9.964   2.211  0.0041 -0.1281 -0.0060
 2713W        W 6913   2.527  10.150   2.871  0.1134 -0.1295 -0.0873
 2714W        W 6914   4.293   2.651  11.854  0.0920  0.1319  0.3378
 2715W        W 6915   4.797   6.745   3.925 -0.1458  0.0580  0.0681
 2716W        W 6916   5.325  10.325  12.529  0.1015 -0.3676 -0.0952
 2717W        W 6917   4.385   0.225   1.454  0.0516 -0.0393  0.2076
 2718W        W 6918   2.070   7.658  13.167  0.0869 -0.0479  0.2140
 2719W        W 6919   7.905   3.491   3.284 -0.1605  0.1792 -0.1648
 2720W        W 6920   5.855   4.706   2.029  0.3540  0.2136 -0.1095
 2721W        W 6921   6.017   6.415   0.175 -0.2766 -0.2951 -0.2309
 2722W        W 6922   4.027   2.674  13.323  0.2342  0.0289  0.3649
 2723W        W 6923   4.484   7.590   1.401 -0.2323  0.0215 -0.0963
 2724W        W 6924   1.839   9.032   0.521  0.2654  0.2528  0.2877
 2725W        W 6925   6.365   8.201  10.821 -0.1984  0.3138 -0.1914
 2726W        W 6926   3.762   1.367  12.112  0.2935 -0.1312 -0.1516
 2727W        W 6927   2.621   0.287   0.133 -0.2967  0.2160  0.0161
 2728W        W 6928   4.013   7.860   9.030 -0.1543 -0.1975 -0.1504
 2729W        W 6929   8.864   5.477   4.253  0.0894  0.0390 -0.2527
 2730W        W 6930   6.958   0.854  13.205  0.0589  0.1663 -0.2375
 2731W        W 6931   0.834   1.577  10.260  0.0782  0.0587 -0.0274
 2732W        W 6932   3.337   4.035  10.045  0.2167 -0.0686 -0.1795
 2733W        W 6933   4.764   1.361   1.871  0.1307  0.0968 -0.2028
 2734W        W 6934   2.934   4.635   0.323  0.1762  0.0789  0.0229
 2735W        W 6935   3.392   2.808  12.426  0.0934 -0.0270 -0.1377
 2736W        W 6936   6.528   5.541   5.322  0.0144  0.1339  0.3586
 2737W        W 6937   4.037   7.563  12.193 -0.0583 -0.4163  0.1244
 2738W        W 6938  10.183   0.297   3.082 -0.1089 -0.1118 -0.1497
 2739W        W 6939   1.509   5.208  12.937  0.0433 -0.0013  0.1403
 2740W        W 6940   0.996   6.725  12.763  0.0841  0.2150  0.0591
 2741W        W 6941   8.890   7.961  10.631 -0.1482  0.0886 -0.0604
 2742W        W 6942   1.428   9.816   3.350  0.0140  0.1629 -0.0232
 2743W        W 6943   4.259   9.571  12.240  0.0754 -0.1273  0.0901
 2744W        W 6944   0.551   0.579  10.033  0.3730 -0.0907  0.1382
 2745W        W 6945   1.732   8.130   4.344  0.1341  0.3999 -0.0597
 2746W        W 6946   4.066  10.385  12.240 -0.2016 -0.0055  0.0206
 2747W        W 6947   4.954   9.176   2.580 -0.0391  0.1989 -0.0387
 2748W        W 6948   6.630   9.259  13.036  0.0163 -0.1116  0.1206
 2749W        W 6949   4.741   7.191   8.586  0.2534 -0.0937  0.2159
 2750W        W 6950   8.314   9.789   4.724  0.1883 -0.4508 -0.2869
 2751W        W 6951   8.955   1.231  12.129  0.4281 -0.0217 -0.1151
 2752W        W 6952  10.266   2.131  13.033  0.0609 -0.1843 -0.3967
 2753W        W 6953   6.885   3.412   2.394  0.2616  0.1015 -0.2163
 2754W        W 6954   6.570   9.522   3.952  0.0694  0.0120 -0.1510
 2755W        W 6955   6.894   3.489  10.442  0.1730 -0.2578  0.0677
 2756W        W 6956   4.040   7.192   3.461 -0.1203  0.2093 -0.1294
 2757W        W 6957   8.161   6.985  12.677  0.0249  0.1671 -0.0437
 2758W        W 6958   0.506   3.264  10.514 -0.0446 -0.0515  0.0632
 2759W        W 6959   4.756   7.607   1.801  0.0011 -0.0631  0.0859
 2760W        W 6960   5.667   4.459  13.285  0.0809  0.1317  0.0356
 2761W        W 6961   7.269   2.730   9.748 -0.0738  0.4081  0.1468
 2762W        W 6962   8.017   4.320   4.567  0.0234  0.3482  0.0519
 2763W        W 6963   5.242   8.823   2.900  0.1783 -0.2287 -0.0279
 2764W        W 6964   6.701   7.779  13.063 -0.1562  0.2720  0.0731
 2765W        W 6965   2.999   8.521  11.540  0.1370  0.1284 -0.1839
 2766W        W 6966   1.722   7.601   0.151  0.0956 -0.1157 -0.1239
 2767W        W 6967   8.265   2.352  11.507 -0.0805  0.2709 -0.0424
 2768W        W 6968   9.560   8.732  10.805  0.0745  0.3676  0.4335
 2769W        W 6969   9.615   2.251   0.826  0.1200 -0.2222 -0.2047
 2770W        W 6970   8.898   1.125  12.613 -0.0157 -0.1286  0.0349
 2771W        W 6971   2.452   9.689   0.685 -0.1811 -0.2786 -0.2599
 2772W        W 6972   3.741   5.903   8.966 -0.1521 -0.1115 -0.1423
 2773W        W 6973   8.783   1.585   9.756 -0.0295 -0.0085 -0.1074
 2774W        W 6974   0.470   1.657   8.416 -0.4581 -0.0182  0.3266
 2775W        W 6975   6.306  10.380  12.290  0.0974  0.0485  0.1423
 2776W        W 6976   4.003   7.537   9.520  0.2232  0.1028  0.4212
 2777W        W 6977   8.935  10.139  11.761 -0.0710  0.0113 -0.0329
 2778W        W 6978   8.780   3.148   9.623 -0.1898  0.1758 -0.0484
 2779W        W 6979   2.387   8.170   0.426 -0.1333  0.2087 -0.2962
 2780W        W 6980   8.268   6.736   0.402  0.1747  0.2303 -0.1667
 2781W        W 6981   2.586   9.150   9.172  0.1156 -0.1510  0.0683
 2782W        W 6982   7.154   6.810  13.339  0.0673  0.1803  0.1513
 2783W        W 6983   8.905   6.623   3.531  0.0344 -0.3428  0.0136
 2784W        W 6984   2.489   1.249  10.227  0.0416  0.4155  0.0508
 2785W        W 6985   3.207   6.016  11.923  0.0222  0.0485  0.0678
 2786W        W 6986   9.611   3.615  10.225 -0.1515 -0.2687 -0.1513
 2787W        W 6987   7.820  10.322   3.894  0.1082  0.0505  0.1609
 2788W        W 6988   7.031   3.521   4.362  0.0658 -0.1470 -0.1020
 2789W        W 6989   0.907   2.702  12.128 -0.0952 -0.2857 -0.0953
 2790W        W 6990   9.396   2.630  13.325  0.0985 -0.0949 -0.1601
 2791W        W 6991   3.594   0.632  11.250  0.1387 -0.0676 -0.6032
 2792W        W 6992   7.158  10.015  12.195  0.0546 -0.0026 -0.1474
 2793W        W 6993   0.462   1.479   3.417 -0.1851 -0.0969 -0.2336
 2794W        W 6994   2.341   9.017   8.320 -0.0144 -0.1804 -0.3801
 2795W        W 6995   8.928   3.380   0.549  0.2354  0.2196  0.3607
 2796W        W 6996  10.271   4.566   1.767  0.1278 -0.0355  0.1052
 2797W        W 6997   8.679   9.810   9.412 -0.1094  0.2069  0.0496
 2798W        W 6998   7.244   7.733  11.386  0.1448 -0.1867 -0.3842
 2799W        W 6999   5.156   4.296  13.147  0.0020 -0.1467 -0.2773
 2800W        W 7000   1.882   4.258   1.560 -0.0436 -0.0553 -0.0370
 2801W        W 7001   9.229   0.994  10.727 -0.0617  0.0206  0.0004
 2802W        W 7002   5.036   9.634   3.099 -0.2347  0.0710 -0.2828
 2803W        W 7003   0.313   0.020   0.431 -0.0486  0.3334  0.0138
 2804W        W 7004   5.919   8.038  10.937  0.6719 -0.1000 -0.0110
 2805W        W 7005   4.553   9.669   2.966 -0.0103 -0.1955  0.2406
 2806W        W 7006   3.771   1.800  12.841  0.0162  0.0862  0.2431
 2807W        W 7007   8.466   7.352  12.273  0.0147 -0.2178  0.0595
 2808W        W 7008   9.342  10.335  13.090 -0.1663  0.1247  0.4643
 2809W        W 7009   8.470   7.826   9.577  0.0422 -0.2144  0.0469
 2810W        W 7010   5.414   6.948   1.857  0.2482  0.4167 -0.1264
 2811W        W 7011   7.265   4.767   3.876 -0.2275  0.0090  0.0230
 2812W        W 7012   5.829   8.092  13.040  0.1211  0.0989 -0.3380
 2813W        W 7013   0.242  10.403   2.633 -0.0075 -0.1999  0.0149
 2814W        W 7014   5.047   9.791  10.077 -0.4886  0.2444 -0.0480
 2815W        W 7015   0.370   0.124   8.913  0.0338  0.1807  0.4222
 2816W        W 7016   9.254   1.312   2.881 -0.2633 -0.0514 -0.0040
 2817W        W 7017   8.701   0.321   9.554  0.0747  0.0597  0.0367
 2818W        W 7018   5.352   4.858   3.759 -0.1201  0.1278  0.1220
 2819W        W 7019   6.306   3.479   9.380  0.4493  0.3004  0.2785
 2820W        W 7020   0.600  10.132  11.901  0.0362  0.2712 -0.3271
 2821W        W 7021   6.024  10.412  10.467  0.1969 -0.3669 -0.0481
 2822W        W 7022   7.809   8.899   0.193  0.2051  0.0632 -0.1317
 2823W        W 7023   7.464   4.945   0.322  0.0873  0.2359  0.1909
 2824W        W 7024  10.016   1.101   2.318 -0.0318 -0.2132 -0.2582
 2825W        W 7025   7.737   0.514  11.714  0.3214  0.4107  0.0352
 2826W        W 7026   7.348  10.342   3.095  0.0738  0.1053  0.2362
 2827W        W 7027   4.700   8.574   2.128  0.0646  0.1145 -0.0494
 2828W        W 7028   5.327   0.978  12.595  0.0749 -0.1267 -0.3071
 2829W        W 7029   3.045   7.611   2.568 -0.0163 -0.1607  0.0723
 2830W        W 7030   2.872   8.715   3.311 -0.3482 -0.0297  0.0494
 2831W        W 7031   4.454   7.549   8.859  0.1967  0.1651 -0.0511
 2832W        W 7032   0.227   1.048  11.465 -0.3600  0.1547 -0.2643
 2833W        W 7033   9.401   2.592   1.625 -0.1224  0.0687  0.3013
 2834W        W 7034   1.882   9.037   3.332  0.2062  0.3124 -0.3129
 2835W        W 7035   3.370   1.484  12.735  0.1640  0.1591 -0.0320
 2836W        W 7036   1.545   5.640   3.728 -0.1546 -0.2718 -0.1225
 2837W        W 7037   5.288   7.331  12.758  0.1040 -0.0428 -0.3337
 2838W        W 7038   2.078  10.238  11.073 -0.2139  0.1203  0.0519
 2839W        W 7039   4.774   5.787   9.369  0.1773 -0.0479  0.0993
 2840W        W 7040  10.049   2.456   1.539  0.3405  0.2874 -0.0518
 2841W        W 7041   4.664   1.684  13.150 -0.0639  0.0022  0.0753
 2842W        W 7042   1.316   3.718  12.005 -0.0685  0.0978 -0.1013
 2843W        W 7043   9.696   2.623   3.552  0.3377 -0.0585  0.1583
 2844W        W 7044   6.793   6.072   1.884  0.0042 -0.0749 -0.1343
 2845W        W 7045   5.562   5.376   3.404  0.2172  0.2805 -0.2630
 2846W        W 7046   8.651   4.743  13.278  0.0617 -0.1693 -0.1298
 2847W        W 7047   8.530   6.674  12.900 -0.0370 -0.3531 -0.1253
 2848W        W 7048   0.072   0.417   0.159 -0.0132  0.1142 -0.0763
 2849W        W 7049   9.796   9.237  12.061 -0.0122  0.2612  0.2133
 2850W        W 7050   1.039   5.588   2.286  0.1321 -0.2199 -0.0730
 2851W        W 7051   3.904   5.000   3.254  0.2223  0.2801 -0.0376
 2852W        W 7052   8.131   9.598   1.870 -0.4467  0.2116 -0.1123
 2853W        W 7053   0.123   7.135   1.788 -0.1332  0.2188  0.0518
 2854W        W 7054   2.611  10.308   4.330 -0.2029 -0.0606 -0.0526
 2855W        W 7055   6.853   7.705  11.034  0.0530 -0.4313 -0.0038
 2856W        W 7056   5.256   8.004  13.266 -0.3358 -0.2302  0.3730
 2857W        W 7057   3.530   4.824  12.355 -0.1207 -0.0120  0.0038
 2858W        W 7058   6.472   0.677   2.477 -0.1985  0.0745  0.0326
 2859W        W 7059   2.580   4.671  12.254  0.1730  0.1471  0.0168
 2860W        W 7060  10.322   4.120   8.810 -0.0133  0.0780 -0.0022
 2861W        W 7061   1.555   8.953   4.402 -0.1708 -0.0271 -0.1983
 2862W        W 7062   8.676   5.888   2.708  0.0263  0.1844 -0.1382
 2863W        W 7063   8.613   4.118   9.417  0.0790  0.3782 -0.0627
 2864W        W 7064   4.229   3.537   0.581  0.1592  0.1574 -0.1618
 2865W        W 7065  10.057   4.297   9.869 -0.1324 -0.0301  0.1261
 2866W        W 7066   0.116   6.942  12.985 -0.3629  0.1236  0.1280
 2867W        W 7067   8.167  10.085   1.703  0.2082 -0.2212  0.2135
 2868W        W 7068   3.070   5.582  10.998  0.1688  0.2476  0.0553
 2869W        W 7069  10.479   3.385  10.690 -0.4916 -0.1155 -0.0044
 2870W        W 7070   8.853   5.107   3.437 -0.1439  0.3137  0.1001
 2871W        W 7071   3.689   9.176  10.479  0.1389  0.0010 -0.4714
 2872W        W 7072   9.960   4.151   2.785  0.0568  0.1216 -0.2598
 2873W        W 7073   1.680   5.060   4.272  0.1829  0.2650  0.2447
 2874W        W 7074   4.636   1.061  11.999 -0.0271 -0.2226  0.1568
 2875W        W 7075   9.828  10.133   9.973  0.1816 -0.1437  0.1870
 2876W        W 7076   6.433   9.529   2.968 -0.1825  0.0701  0.2562
 2877W        W 7077   9.981   9.786  13.136 -0.2158  0.0234 -0.1787
 2878W        W 7078   1.146   5.002   9.596  0.3072 -0.2525  0.1915
 2879W        W 7079   4.387   3.428   4.766  0.1881  0.1997  0.0751
 2880W        W 7080   1.837   5.109   1.136 -0.2471 -0.2336  0.0612
 2881W        W 7081   9.593   9.609  11.408  0.1433  0.2616 -0.0404
 2882W        W 7082   4.956   6.267   1.409 -0.1962 -0.1530  0.0708
 2883W        W 7083   1.675   4.973  12.528 -0.1399 -0.1385 -0.2895
 2884W        W 7084   2.959   3.146  10.633  0.0987  0.2574  0.1511
 2885W        W 7085  10.027   6.591   2.284  0.0004 -0.2949 -0.1064
 2886W        W 7086  10.340   7.215  11.021  0.0004 -0.2224  0.0674
 2887W        W 7087   3.213   3.098   2.548  0.0539 -0.2745 -0.1107
 2888W        W 7088   1.248   6.869   3.217 -0.2071  0.2918 -0.2669
 2889W        W 7089   1.846   3.678   2.159  0.2859 -0.2857 -0.1110
 2890W        W 7090   0.674   7.215   5.203  0.0013 -0.0015  0.1786
 2891W        W 7091  10.035   6.202  11.336  0.1133 -0.1859  0.2842
 2892W        W 7092   5.021   9.291  11.561  0.0636 -0.0939  0.2516
 2893W        W 7093   6.029   6.045   0.963 -0.2973 -0.0265  0.1535
 2894W        W 7094   8.630   3.044  11.210  0.1169 -0.2347  0.1034
 2895W        W 7095   1.553   3.805   1.754  0.0448  0.0419 -0.0486
 2896W        W 7096   1.267   3.005   4.164 -0.0400  0.0992  0.2906
 2897W        W 7097   2.638  10.109  13.374  0.0173 -0.0512  0.1719
 2898W        W 7098   6.369  10.374   0.752  0.0412  0.0111 -0.0495
 2899W        W 7099   6.102   7.232   9.513  0.0083  0.1486 -0.3464
 2900W        W 7100   3.553   2.810   2.777  0.0164  0.3154  0.3540
 2901W        W 7101   7.872   1.176   3.027  0.1485  0.0296  0.0724
 2902W        W 7102   8.538   4.794   8.394  0.0926 -0.0102  0.2605
 2903W        W 7103   6.430   0.060  11.361  0.2310 -0.3247  0.0183
 2904W        W 7104   1.607   7.084   1.782 -0.0089 -0.0725 -0.1542
 2905W        W 7105   9.818   2.194  10.124 -0.1683 -0.0434 -0.2381
 2906W        W 7106   9.222   5.324  10.431  0.2286  0.1828 -0.1380
 2907W        W 7107   8.040   7.391   1.365 -0.0203 -0.0107 -0.0480
 2908W        W 7108   8.243   3.783   0.564  0.2611  0.0984  0.3737
 2909W        W 7109   9.526  10.205   0.531  0.2807  0.3787 -0.1136
 2910W        W 7110  10.243   9.348   2.602  0.2290  0.1085  0.1812
 2911W        W 7111   6.214   7.707  13.114 -0.0275 -0.0574 -0.2319
 2912W        W 7112   4.549   5.779  12.307  0.0768 -0.0081  0.0993
 2913W        W 7113   2.024   6.110  12.924  0.0693  0.1645 -0.0319
 2914W        W 7114   6.196   7.013  11.166 -0.0029 -0.0804  0.1864
 2915W        W 7115   3.099   5.286  13.165 -0.0919 -0.0230  0.2672
 2916W        W 7116   4.458   5.520   1.147  0.0785  0.0763  0.1432
 2917W        W 7117   5.430   1.616   1.429  0.2074 -0.3956 -0.1876
 2918W        W 7118   1.345   1.376  11.763  0.0976  0.1001 -0.0901
 2919W        W 7119   5.120   7.124  11.678  0.0382  0.1244  0.1264
 2920W        W 7120   8.878   0.324   1.771  0.1924 -0.3385 -0.1671
 2921W        W 7121   9.649   8.913   0.120  0.0656  0.2981 -0.1555
 2922W        W 7122   6.115   8.768   1.621 -0.1253 -0.0978  0.1427
 2923W        W 7123   1.786   8.461   2.048  0.0691 -0.0361  0.0963
 2924W        W 7124   6.875   0.131   9.141  0.2055  0.0547 -0.1477
 2925W        W 7125   8.725   4.051   3.988 -0.1407  0.2255 -0.0887
 2926W        W 7126   1.605   8.082   4.852  0.0084  0.0176  0.0290
 2927W        W 7127   0.382   6.193   1.717  0.2345  0.2790  0.1393
 2928W        W 7128   8.259   3.057   3.692 -0.1753  0.3728  0.0093
 2929W        W 7129   4.232   0.746  11.926  0.1547 -0.1250  0.2474
 2930W        W 7130   6.719   0.662  12.838 -0.2776 -0.2259  0.1625
 2931W        W 7131   6.771   5.246   4.517  0.1636 -0.0729  0.2855
 2932W        W 7132   2.608   2.079   0.281  0.3255 -0.1064  0.2503
 2933W        W 7133   6.433  10.048   3.124 -0.0202 -0.0789  0.1082
 2934W        W 7134   9.834   0.779   4.079  0.0032 -0.1111  0.2608
 2935W        W 7135   6.127  10.245   2.320  0.3876 -0.0967 -0.3209
 2936W        W 7136   4.486   0.414  12.770 -0.2120 -0.2990 -0.2355
 2937W        W 7137   5.008   7.690  12.979  0.1734 -0.0254 -0.2960
 2938W        W 7138   0.309   9.507   0.103  0.1297 -0.3239  0.0354
 2939W        W 7139   0.633   8.133   2.563 -0.2728  0.0923  0.2412
 2940W        W 7140   1.225   7.901   3.938  0.0255  0.1173  0.2573
 2941W        W 7141   2.105   1.722  12.491  0.1280 -0.2311  0.4791
 2942W        W 7142   3.703   5.005   1.821 -0.0379  0.3370 -0.0812
 2943W        W 7143   2.261   1.953  11.936  0.0776  0.2971  0.1102
 2944W        W 7144   8.768   5.611   3.666  0.0446  0.0344 -0.0341
 2945W        W 7145   2.493   2.094   9.729  0.1337 -0.0149 -0.1075
 2946W        W 7146   7.681   9.638   9.533 -0.0292  0.2322 -0.1739
 2947W        W 7147   1.381   2.090   4.058 -0.0762  0.1014  0.2532
 2948W        W 7148   7.052   5.552   1.848 -0.1969  0.1787  0.3716
 2949W        W 7149   1.390   2.805   8.978 -0.4416  0.0856  0.2008
 2950W        W 7150   5.694   2.135   1.805 -0.1291 -0.0472 -0.2390
 2951W        W 7151   4.672   5.179   1.448 -0.1764  0.1592  0.3491
 2952W        W 7152   3.155   4.303   4.062  0.1257  0.1121 -0.1194
 2953W        W 7153   2.651   1.746   0.734  0.0943 -0.0554 -0.3554
 2954W        W 7154   9.481   6.709  12.259 -0.2418  0.0869 -0.0306
 2955W        W 7155   1.289   1.225  12.623 -0.2116 -0.2055  0.5230
 2956W        W 7156   9.211   2.010   1.175 -0.0537 -0.1042 -0.0313
 2957W        W 7157   7.331   1.785   3.717  0.2618 -0.1542 -0.3672
 2958W        W 7158   4.759   3.088  12.884 -0.1113  0.4006  0.1554
 2959W        W 7159   9.784   8.193   3.211 -0.2459 -0.1410  0.0663
 2960W        W 7160   4.211   3.118   9.609 -0.3022 -0.1147 -0.1045
 2961W        W 7161   9.811   4.522   0.262 -0.0527  0.2987 -0.1720
 2962W        W 7162   8.194   4.575  13.214  0.3204 -0.0920  0.1522
 2963W        W 7163   8.350   4.071  13.173 -0.2205  0.0103 -0.1224
 2964W        W 7164   7.962   2.126   1.510 -0.1960  0.0102 -0.0568
 2965W        W 7165   1.383   8.628   1.730 -0.2123 -0.0928  0.2992
 2966W        W 7166   5.593   4.077  11.470 -0.2844  0.1267  0.0676
 2967W        W 7167   4.544   3.406   0.974  0.2450 -0.3334  0.2255
 2968W        W 7168   8.994   9.358   2.498  0.1756 -0.2298  0.2396
 2969W        W 7169   0.323   8.543   5.111 -0.1788 -0.0961 -0.1097
 2970W        W 7170   0.130   2.807  11.489  0.1872  0.0412  0.1064
 2971W        W 7171   2.439   5.988   3.391 -0.2166  0.0165  0.1377
 2972W        W 7172   5.103   0.579   2.007  0.0735 -0.3880 -0.0978
 2973W        W 7173   9.427   8.253  12.989 -0.1455  0.0078  0.1501
 2974W        W 7174   1.924   1.946  10.613 -0.0102  0.3433 -0.1387
 2975W        W 7175   2.945   2.686  10.809  0.1602 -0.1343  0.1522
 2976W        W 7176   8.498   0.587   0.490  0.2101 -0.0835 -0.0419
 2977W        W 7177   9.529   7.963   8.425  0.0831 -0.0094 -0.0058
 2978W        W 7178   3.269   3.943  11.346  0.0375  0.0164 -0.3722
 2979W        W 7179   2.885   1.655  12.753 -0.1936  0.2732 -0.1012
 2980W        W 7180   7.793   3.262  11.535 -0.1296 -0.4359 -0.1789
 2981W        W 7181  10.397   2.204   0.123  0.0842  0.0592 -0.0358
 2982W        W 7182   1.295   4.056   3.940 -0.0307 -0.2806 -0.0049
 2983W        W 7183   3.185   4.798  11.826  0.0939  0.1317 -0.2194
 2984W        W 7184   7.176   6.542   0.526 -0.0323 -0.2587  0.0065
 2985W        W 7185   6.783   4.261   8.323  0.1810 -0.0903 -0.0049
 2986W        W 7186   9.221   6.668   2.725 -0.0152 -0.1040  0.0882
 2987W        W 7187   4.866  10.116  12.746  0.2294 -0.0438  0.0333
 2988W        W 7188   6.029   5.271   1.347  0.1527 -0.1932  0.0524
 2989W        W 7189   4.991   7.773   0.224  0.3797 -0.3177  0.1221
 2990W        W 7190   8.488   9.729   3.027  0.0618  0.0001  0.1710
 2991W        W 7191   3.709   2.067   1.439 -0.0329  0.2558  0.0598
 2992W        W 7192   0.195   5.699   0.594 -0.1159 -0.0729 -0.2332
 2993W        W 7193   8.676   6.820   1.286  0.2871 -0.1171  0.2345
 2994W        W 7194   2.517   7.366  13.244  0.0817 -0.1470 -0.1373
 2995W        W 7195  10.135   3.463  11.075  0.1668 -0.4214 -0.1658
 2996W        W 7196   0.849   4.885  11.528 -0.2000  0.0619  0.0795
 2997W        W 7197   3.614   1.449   2.638  0.1470 -0.1517 -0.0779
 2998W        W 7198   7.024   7.809   0.931  0.2177 -0.1831  0.1664
 2999W        W 7199  10.494   2.292   3.927 -0.2735  0.2150 -0.2732
 3000W        W 7200   5.906   4.981   3.742 -0.2216 -0.1405  0.1555
 3001W        W 7201   9.992   7.552   2.506 -0.0522 -0.2921  0.1309
 3002W        W 7202   5.065   3.305   1.059 -0.2580 -0.3504  0.1711
 3003W        W 7203   3.532   5.672   1.861  0.2825  0.1237 -0.0654
 3004W        W 7204   0.145   4.454   1.400  0.0532  0.2681  0.0530
 3005W        W 7205   9.329   5.101   4.841 -0.2276 -0.1642 -0.0706
 3006W        W 7206   7.353   3.288  12.738  0.1927  0.4314 -0.1181
 3007W        W 7207   9.262   2.493   3.384 -0.1655  0.1825  0.3292
 3008W        W 7208   7.412   9.533   4.565 -0.0054 -0.0606 -0.2430
 3009W        W 7209   3.475   9.055  12.934 -0.1284  0.1093  0.0906
 3010W        W 7210   4.807   1.270   0.050  0.3471 -0.0028 -0.0204
 3011W        W 7211   9.367   6.446   3.151  0.2068 -0.1049 -0.3606
 3012W        W 7212   7.877   6.429  10.472  0.0227  0.0800  0.1538
 3013W        W 7213   9.421   1.829  10.012  0.0965 -0.1614 -0.1663
 3014W        W 7214   8.547   2.736  13.144 -0.1219  0.1945 -0.1128
 3015W        W 7215   9.626   9.332   4.217  0.2145  0.1742 -0.1082
 3016W        W 7216   4.805   1.910  10.670  0.2885  0.0218 -0.1158
 3017W        W 7217   1.592   6.462   3.321 -0.1306  0.0124 -0.1154
 3018W        W 7218   7.440   8.103   1.002  0.4270 -0.0522  0.0355
 3019W        W 7219   1.819   3.110  12.589 -0.1849  0.1041  0.2429
 3020W        W 7220   5.993   9.996   0.733  0.1846 -0.3066 -0.1426
 3021W        W 7221   0.938  10.258  10.449  0.1677  0.0242  0.1072
 3022W        W 7222   8.871   4.029  10.048 -0.1999  0.1598  0.1846
 3023W        W 7223   1.188   7.751  11.903  0.1953 -0.1439  0.3041
 3024W        W 7224   6.170   0.655  12.799 -0.0690  0.3595 -0.3765
 3025W        W 7225   0.275   1.511   8.865 -0.3443 -0.1219  0.0486
 3026W        W 7226   1.584   7.182   2.840  0.0874  0.1460  0.1284
 3027W        W 7227   4.793   5.014  12.531  0.2860  0.0435 -0.3013
 3028W        W 7228  10.064   8.755   1.375 -0.3570 -0.1259  0.1992
 3029W        W 7229   5.861   5.380  13.028 -0.2170  0.0710 -0.0121
 3030W        W 7230   3.353   5.359   0.534  0.0573  0.1769  0.2155
 3031W        W 7231   5.806   5.863   3.453 -0.2342  0.1673  0.0088
 3032W        W 7232   3.065   9.730   1.318 -0.0982 -0.0325  0.3398
 3033W        W 7233   2.181   0.026  12.829  0.0086  0.2139  0.3274
 3034W        W 7234   9.030   8.979   2.185  0.0474 -0.0140  0.3381
 3035W        W 7235   1.290   1.657  10.166  0.1136 -0.0625 -0.1475
 3036W        W 7236   3.591   5.611  10.924 -0.1889  0.1827  0.0682
 3037W        W 7237   5.471   2.439   1.418 -0.1646 -0.2889  0.2554
 3038W        W 7238   3.798   4.526  11.914  0.1710  0.1521 -0.4096
 3039W        W 7239   1.794   1.182   4.102  0.0431  0.2107  0.0216
 3040W        W 7240   6.898   2.359  10.634  0.0226 -0.1408  0.0634
 3041W        W 7241   2.859   3.486  11.463  0.2465  0.1796  0.0231
 3042W        W 7242   9.167   3.779   0.264 -0.1879  0.0925 -0.0652
 3043W        W 7243   1.680   0.298   2.194 -0.0311 -0.1561 -0.1318
 3044W        W 7244   0.667   3.134  12.121  0.0994  0.0307  0.0416
 3045W        W 7245   5.806   8.946   9.246 -0.0046 -0.2080 -0.3606
 3046W        W 7246   2.798   0.353  11.038  0.2900 -0.2898 -0.1119
 3047W        W 7247   4.193   8.080   3.061 -0.0812 -0.3448  0.1013
 3048W        W 7248   4.970   6.561  10.760  0.3082 -0.2830 -0.0107
 3049W        W 7249   5.337   0.063  10.626  0.1848 -0.0954  0.4253
 3050W        W 7250   1.937   3.669   0.234 -0.2334  0.1038 -0.0225
 3051W        W 7251   5.986   1.768  10.402  0.1031 -0.0963  0.1839
 3052W        W 7252   7.070   9.059  12.902 -0.0087 -0.0526 -0.0314
 3053W        W 7253   9.698   1.125  10.994  0.0184 -0.2769 -0.0046
 3054W        W 7254   9.575   5.654   9.339 -0.2525 -0.2520 -0.0297
 3055W        W 7255   7.518   4.393   2.373  0.2807 -0.2213 -0.1426
 3056W        W 7256   7.255   5.299  11.768  0.3675  0.2880 -0.1784
 3057W        W 7257   5.283   4.601  11.968 -0.1799  0.0344  0.1620
 3058W        W 7258   2.589   3.538  12.981  0.1571 -0.1507 -0.4236
 3059W        W 7259   1.198   9.836   2.741  0.1753 -0.2453 -0.2193
 3060W        W 7260   7.795   5.685  10.990  0.2919 -0.2676 -0.0591
 3061W        W 7261   8.733  10.007  12.547 -0.0156 -0.1345  0.3243
 3062W        W 7262   4.893   2.284   0.051 -0.0013 -0.0193  0.0995
 3063W        W 7263   7.694   4.920   1.648 -0.2975 -0.0753  0.1243
 3064W        W 7264   5.160   4.441  10.429  0.0415 -0.1719  0.0308
 3065W        W 7265   9.460   9.780   8.717  0.0161  0.1127  0.2295
 3066W        W 7266  10.172   4.487   4.308 -0.2750  0.1880  0.3257
 3067W        W 7267   2.112   1.753   0.041  0.3719 -0.0971  0.3553
 3068W        W 7268   3.025   6.216   3.059 -0.1446 -0.2248 -0.0891
 3069W        W 7269   4.861   7.451  12.499 -0.0147  0.1100  0.0962
 3070W        W 7270   7.582   6.522  12.212  0.2158 -0.1647  0.2160
 3071W        W 7271   2.775   4.486   8.746 -0.0355 -0.1057  0.2157
 3072W        W 7272   4.915   3.058   2.757  0.0960 -0.5916 -0.2839
 3073W        W 7273   3.439   4.467   3.423  0.1745 -0.0171 -0.2809
 3074W        W 7274   5.743   8.441   1.722 -0.0562 -0.0855 -0.3540
 3075W        W 7275   3.519   9.024   1.406  0.1174  0.2568  0.1597
 3076W        W 7276   0.925   5.064   3.605  0.3732 -0.1444 -0.0150
 3077W        W 7277   5.475   6.190   3.009 -0.0309 -0.5033 -0.2258
 3078W        W 7278   2.102   2.418   9.188 -0.1112 -0.4393  0.2147
 3079W        W 7279   9.202   6.050  13.013  0.3051  0.0297  0.1960
 3080W        W 7280   5.301   5.395   9.341  0.1274 -0.0510 -0.0456
 3081W        W 7281   5.595   2.393  11.150 -0.0485  0.1504  0.1442
 3082W        W 7282   4.529   1.657   1.542 -0.0391  0.2618 -0.3280
 3083W        W 7283   8.737   9.993   9.905  0.0775 -0.0306  0.0950
 3084W        W 7284   9.721   1.749  11.876  0.1225 -0.0391  0.1571
 3085W        W 7285   9.313   7.588   3.516 -0.0939  0.0116 -0.2878
 3086W        W 7286   0.982   7.241   1.179 -0.0345  0.1628 -0.2059
 3087W        W 7287   3.093   9.695   9.355  0.3809 -0.1006  0.1222
 3088W        W 7288   5.297   0.858   0.549 -0.1547 -0.0840 -0.0410
 3089W        W 7289   3.646   1.426  13.137 -0.5691 -0.0114  0.0887
 3090W        W 7290   6.310   9.318   2.469  0.3130 -0.0154 -0.0123
 3091W        W 7291   3.737   2.317  13.016 -0.1367  0.2697  0.0168
 3092W        W 7292   3.586   4.289   0.878  0.2052 -0.1684 -0.2918
 3093W        W 7293   1.568   4.638  11.444 -0.0832  0.0894 -0.1261
 3094W        W 7294   6.911   6.971   9.386  0.0660  0.0786 -0.4158
 3095W        W 7295   7.955   6.390   2.297 -0.1509  0.1520  0.0293
 3096W        W 7296   3.422  10.237  11.138 -0.2482 -0.1674  0.0344
 3097W        W 7297   8.197   9.173   2.192 -0.0585 -0.1809  0.1181
 3098W        W 7298   4.767   1.578  12.160 -0.1755  0.0340  0.0939
 3099W        W 7299   2.685   1.015   2.580 -0.0257  0.2663  0.1904
 3100W        W 7300   2.872   6.772  11.271 -0.3326  0.0953  0.1360
 3101W        W 7301   7.586   9.313  10.315 -0.3426  0.1477  0.1214
 3102W        W 7302   1.948   7.018  11.035 -0.0730  0.3841 -0.2447
 3103W        W 7303   4.041   9.383   3.206  0.0399  0.1470  0.1523
 3104W        W 7304   6.855   8.164   4.236 -0.0116  0.3957 -0.0423
 3105W        W 7305   7.713   4.074  10.653  0.1119  0.2215 -0.2415
 3106W        W 7306   3.304   2.991   3.967  0.1392  0.1260 -0.0051
 3107W        W 7307   4.792   2.651  11.887  0.2267 -0.1197  0.0521
 3108W        W 7308   0.334   5.099   8.113  0.2598 -0.3896  0.2758
 3109W        W 7309   8.830   6.631   1.770 -0.1064 -0.2730 -0.0281
 3110W        W 7310   9.245   4.028   2.161 -0.1744 -0.0232  0.3008
 3111W        W 7311   6.380   3.924  12.752  0.1811  0.0846 -0.0727
 3112W        W 7312   3.627   1.128   2.225 -0.2530 -0.2358 -0.1037
 3113W        W 7313   9.437   1.925  12.313 -0.0189 -0.0828 -0.0068
 3114W        W 7314   0.490   6.887   3.876 -0.0020 -0.3287  0.0845
 3115W        W 7315   6.073   9.134  10.902  0.0401 -0.0046 -0.1817
 3116W        W 7316   3.758   1.072   3.553 -0.0098 -0.0508 -0.0104
 3117W        W 7317   5.867   5.524   9.311 -0.0681 -0.0139 -0.0069
 3118W        W 7318   6.436   4.630   1.486  0.1576  0.3360  0.1985
 3119W        W 7319   2.763   3.169   2.123  0.1268  0.0230 -0.0430
 3120W        W 7320   5.678   4.108   2.610 -0.4008 -0.0720 -0.1247
 3121W        W 7321   2.211   5.265   4.094  0.0834 -0.0292  0.1151
 3122W        W 7322   8.779   3.106  12.470  0.3039  0.2289  0.0214
 3123W        W 7323   8.146   0.296  12.950  0.1733  0.1669 -0.1734
 3124W        W 7324   8.660   9.266   2.904 -0.0689 -0.0001  0.0277
 3125W        W 7325   3.399   9.595  10.672  0.0686 -0.2401 -0.3356
 3126W        W 7326   0.568   5.932   2.927 -0.0092  0.0120  0.1450
 3127W        W 7327   6.607   4.800   4.669  0.1118  0.0169 -0.2425
 3128W        W 7328   8.153   8.273  12.019 -0.3206  0.1685 -0.2581
 3129W        W 7329   9.845   5.440  11.630  0.0725  0.1207 -0.0103
 3130W        W 7330   4.016   0.413   3.226 -0.0844 -0.2884  0.1444
 3131W        W 7331   7.556   1.448   1.619  0.3241 -0.0217  0.2883
 3132W        W 7332   8.175   6.306   9.967 -0.0439 -0.2853 -0.3907
 3133W        W 7333   0.773   2.054   9.110 -0.1042 -0.0144 -0.1376
 3134W        W 7334   3.597   9.279   3.022 -0.1580  0.4897 -0.3839
 3135W        W 7335   7.535   1.729   0.774 -0.0137  0.3654  0.0871
 3136W        W 7336   8.646   2.963  10.370 -0.2086  0.3278  0.0332
 3137W        W 7337   5.321   9.632  11.035  0.0292 -0.1180 -0.1584
 3138W        W 7338   2.610   5.662  12.465 -0.1777  0.0775  0.1483
 3139W        W 7339  10.032   8.295   1.502  0.0068 -0.1269 -0.2754
 3140W        W 7340   0.188   2.798   0.315  0.2205  0.1574  0.1598
 3141W        W 7341   2.962   9.442   8.897  0.1152  0.1765  0.0836
 3142W        W 7342   9.176   5.780   3.911  0.2108 -0.1054 -0.2270
 3143W        W 7343   5.513   1.548  11.740 -0.0575  0.2422  0.0072
 3144W        W 7344   6.291   2.582   4.949 -0.1662  0.3175  0.3322
 3145W        W 7345  10.075   4.147   0.066  0.2283  0.4784  0.1594
 3146W        W 7346   2.448   5.991  11.632  0.1156  0.0943  0.4056
 3147W        W 7347   9.647   2.218  12.800  0.0341 -0.1803  0.1944
 3148W        W 7348   7.323   0.959   2.320  0.0126  0.0754  0.0926
 3149W        W 7349   8.776   2.984   5.309 -0.0065  0.2107 -0.0952
 3150W        W 7350   1.680   8.629  10.280  0.2712 -0.2388  0.1472
 3151W        W 7351   5.157   7.714   2.116 -0.2213  0.1277  0.1084
 3152W        W 7352   5.413  10.249   2.029  0.5361  0.0438  0.2304
 3153W        W 7353   6.858   1.174  11.984  0.1225  0.1936 -0.0046
 3154W        W 7354   2.633   7.942  13.371  0.0010 -0.0539 -0.2218
 3155W        W 7355   8.508   9.036  12.448  0.1516  0.2812 -0.1514
 3156W        W 7356   9.890   2.400  11.119 -0.2029 -0.1567  0.0409
 3157W        W 7357   7.837   5.406   0.879  0.0236 -0.2445 -0.1256
 3158W        W 7358   1.532   5.401   9.940  0.0680 -0.0685  0.0684
 3159W        W 7359   8.967   6.223   9.365  0.4947  0.1010  0.0414
 3160W        W 7360   6.643   8.305  10.373  0.0401  0.1383 -0.2418
 3161W        W 7361   4.053   2.319   1.229  0.0636 -0.2766  0.2214
 3162W        W 7362   9.216   4.232  13.338 -0.1192 -0.0545  0.0589
 3163W        W 7363   3.249   6.371   0.129 -0.1971  0.0133 -0.0498
 3164W        W 7364   5.817   6.055   0.482  0.2644 -0.0558  0.0991
 3165W        W 7365   9.820   8.423  12.126  0.0030  0.0574 -0.0448
 3166W        W 7366   9.272   0.393  10.066 -0.1939  0.1973  0.0744
 3167W        W 7367   0.977   9.322   1.039 -0.1082  0.1470 -0.0068
 3168W        W 7368   2.012   1.112  12.478  0.3689 -0.3141 -0.1880
 3169W        W 7369   4.094   4.269  12.937  0.1511  0.0886  0.0342
 3170W        W 7370   3.370   7.967   3.426 -0.0255  0.1611 -0.2433
 3171W        W 7371   9.356   5.097  13.176 -0.1746 -0.2238 -0.1072
 3172W        W 7372   2.787   1.306   9.863 -0.0848 -0.2276  0.1727
 3173W        W 7373   4.700   8.005   2.213  0.2063 -0.2934 -0.2154
 3174W        W 7374   6.773   8.734   2.765 -0.3767  0.1349 -0.2181
 3175W        W 7375   2.025  10.397   2.961 -0.3905 -0.4142 -0.3990
 3176W        W 7376  10.459   9.308   1.015 -0.3088 -0.0355 -0.0010
 3177W        W 7377   7.723   9.561   1.133  0.0850  0.0071  0.0109
 3178W        W 7378  10.191   4.439   3.815 -0.1182  0.1235 -0.1603
 3179W        W 7379   0.983   7.193   4.347 -0.0157  0.1520  0.1295
 3180W        W 7380   8.450   4.629   4.267  0.2527  0.1305 -0.2047
 3181W        W 7381   6.659   0.619   3.902  0.0211  0.1705 -0.0558
 3182W        W 7382   9.606   1.158   9.402  0.1102  0.1118  0.2453
 3183W        W 7383   8.272   1.093   0.726 -0.1002 -0.1744  0.0304
 3184W        W 7384   9.174   7.643  12.071  0.1451  0.0827  0.1192
 3185W        W 7385   0.946  10.147   2.074  0.1156  0.0690 -0.0122
 3186W        W 7386   5.557   5.925  12.243  0.0400 -0.0800  0.1197
 3187W        W 7387   8.577   5.935  10.597  0.0279 -0.1771 -0.2118
 3188W        W 7388   3.677   8.771   3.023  0.0343 -0.0665 -0.0896
 3189W        W 7389   0.504   3.673   2.614 -0.3720 -0.0582  0.1775
 3190W        W 7390   5.728   5.650  12.604  0.3618  0.2276  0.1874
 3191W        W 7391   5.176   9.056  11.064  0.2117  0.2532  0.2792
 3192W        W 7392   2.393   2.028  10.867  0.2065 -0.1938 -0.0706
 3193W        W 7393   0.025  10.067   3.410 -0.0253  0.1177 -0.0690
 3194W        W 7394   8.409   4.330   3.410 -0.0773  0.2953 -0.1261
 3195W        W 7395   2.371   4.663   9.876  0.1707 -0.1591 -0.1671
 3196W        W 7396   8.459   6.362  10.878  0.0178 -0.2198 -0.0340
 3197W        W 7397   3.291   0.535  10.820 -0.2090 -0.3642  0.3324
 3198W        W 7398   7.549   5.355  13.043  0.0322 -0.1112 -0.2311
 3199W        W 7399   2.165  10.013   0.973  0.3299  0.1450  0.2263
 3200W        W 7400   1.144   4.636  12.449  0.3762  0.0712 -0.0083
 3201W        W 7401  10.137   8.005  12.202  0.0931 -0.3041  0.0215
 3202W        W 7402   1.092   9.322   3.283  0.1013 -0.1945  0.1091
 3203W        W 7403   3.534   9.491   1.244 -0.2989 -0.1770  0.4730
 3204W        W 7404   4.493   0.925   2.453  0.3234 -0.0516  0.1553
 3205W        W 7405   7.391   0.923   4.360  0.2508 -0.0772 -0.1302
 3206W        W 7406   3.908   3.537   1.668  0.3096  0.0752  0.2522
 3207W        W 7407   0.207   6.479   3.696 -0.0610 -0.0396 -0.1556
 3208W        W 7408   6.224   7.832  12.135  0.2436  0.3848 -0.1208
 3209W        W 7409   0.552   0.642  11.426  0.1461 -0.0128 -0.0253
 3210W        W 7410   8.944   5.204   1.911  0.0504 -0.4165  0.0840
 3211W        W 7411   5.684   7.267   4.836  0.1364 -0.2693  0.1763
 3212W        W 7412   8.608   6.366   9.683  0.1166  0.2792 -0.0637
 3213W        W 7413   7.164   7.987   3.847 -0.0300 -0.0819  0.0499
 3214W        W 7414   4.589   3.637   9.028  0.0347 -0.0162 -0.0570
 3215W        W 7415   7.396   5.653   1.087  0.2677  0.0203  0.1396
 3216W        W 7416   7.562  10.246  10.119 -0.1348 -0.0006  0.1330
 3217W        W 7417   8.357   6.877   1.650 -0.2305  0.0233 -0.5291
 3218W        W 7418   6.018   2.302  12.728  0.0339 -0.1507  0.0490
 3219W        W 7419   1.432   0.191   3.781 -0.2609 -0.2787 -0.1157
 3220W        W 7420   8.588   9.638   1.045 -0.2396  0.1267 -0.2107
 3221W        W 7421   4.583   9.282   0.218  0.0896  0.0272  0.5889
 3222W        W 7422   6.126   7.196  13.097 -0.4142 -0.0015 -0.1732
 3223W        W 7423   2.402   6.411  13.139  0.1971 -0.1479 -0.0804
 3224W        W 7424   9.900   8.937   8.620  0.1193  0.1882  0.1859
 3225W        W 7425   2.754   5.780   1.783 -0.0861  0.1005  0.0379
 3226W        W 7426   3.713   9.283  13.311 -0.0232  0.1579 -0.1680
 3227W        W 7427   0.931   0.516  12.948  0.0623  0.0081  0.1309
 3228W        W 7428  10.305   7.769   0.097 -0.1759  0.1683  0.1207
 3229W        W 7429   3.502   0.055   2.443 -0.1644  0.0219 -0.0845
 3230W        W 7430   3.354   9.946  12.662  0.1207 -0.1573 -0.5184
 3231W        W 7431   1.988   4.708   0.065  0.1242  0.2509 -0.1283
 3232W        W 7432  10.155   8.825  12.774  0.2561  0.2271 -0.1445
 3233W        W 7433   9.021   2.652   2.967 -0.0125  0.0518 -0.2051
 3234W        W 7434   9.234   8.511  12.618 -0.0227 -0.5362 -0.0102
 3235W        W 7435   2.445   9.343  11.544  0.0994  0.0803 -0.1160
 3236W        W 7436   9.033   0.549  10.786  0.1612  0.1802  0.0425
 3237W        W 7437   3.921   1.625   1.386 -0.1143 -0.2143  0.1107
 3238W        W 7438   9.595   9.202  10.435 -0.2187 -0.0015 -0.1534
 3239W        W 7439   7.371   5.329   0.644 -0.2579  0.5036  0.1332
 3240W        W 7440   4.464   3.978  10.887  0.0696  0.0874 -0.0884
 3241W        W 7441   7.624   4.724  10.708 -0.1481 -0.3318  0.0291
 3242W        W 7442   1.585   2.012  12.581  0.2112  0.1143 -0.2396
 3243W        W 7443   9.235   8.863  10.366  0.2455 -0.0884 -0.0039
 3244W        W 7444   6.768   5.249  12.069 -0.0153 -0.1480 -0.0928
 3245W        W 7445   1.687   2.524   9.369  0.1604 -0.1550 -0.1084
 3246W        W 7446   2.222   0.147  10.195 -0.0862 -0.0615 -0.1843
 3247W        W 7447   1.113   3.711  12.597 -0.2368 -0.0926  0.4207
 3248W        W 7448  10.373   1.895  12.548  0.2313 -0.2782 -0.1254
 3249W        W 7449   2.312   5.552   9.305 -0.2718  0.4723  0.1851
 3250W        W 7450   3.883   4.012  12.480 -0.2749  0.1724  0.0945
 3251W        W 7451   1.089   1.142   8.699 -0.1100 -0.1378 -0.0079
 3252W        W 7452   7.955   8.613   2.115 -0.1240 -0.1937 -0.0122
 3253W        W 7453   8.366   9.697   0.479  0.2502  0.1859  0.3605
 3254W        W 7454   7.930   8.260   1.234 -0.1953  0.1819  0.2168
 3255W        W 7455   9.809   6.235  13.248  0.3619  0.1742 -0.2234
 3256W        W 7456   5.508   7.231   3.242 -0.1887 -0.0808 -0.0165
 3257W        W 7457   1.605   6.542   9.165  0.0974  0.2284 -0.2426
 3258W        W 7458   8.152   6.531   4.236 -0.0460 -0.0541  0.1051
 3259W        W 7459   9.963   4.668   1.368  0.0777 -0.0278  0.1480
 3260W        W 7460   0.027   5.514   1.740  0.1017 -0.2404  0.1928
 3261W        W 7461   2.431   8.645   9.432  0.2053  0.0885  0.0388
 3262W        W 7462   2.184   5.944   3.997 -0.1213  0.0078 -0.0590
 3263W        W 7463   7.767   5.955   1.094 -0.1239  0.0202  0.0759
 3264W        W 7464   9.136   5.078  11.875  0.1825  0.2199 -0.1883
 3265W        W 7465   1.206   8.877  10.239 -0.1994  0.2021 -0.1261
 3266W        W 7466  10.264   4.844   3.436  0.2995 -0.0218 -0.3654
 3267W        W 7467   0.071   0.016   3.107 -0.0738 -0.1494  0.1442
 3268W        W 7468   7.121  10.017  10.320 -0.1917  0.3293 -0.2216
 3269W        W 7469   0.776   4.227   9.130 -0.0596  0.3762 -0.0147
 3270W        W 7470   9.283   2.225  10.306  0.0132 -0.3676  0.1812
 3271W        W 7471   4.926   1.645  12.669  0.0422 -0.2241 -0.4434
 3272W        W 7472   9.827   6.438   3.253 -0.3200  0.0264 -0.1558
 3273W        W 7473   1.236   8.003  12.838 -0.0170 -0.0089 -0.2368
 3274W        W 7474   7.872   3.490   9.646 -0.2147  0.0786  0.1216
 3275W        W 7475  10.206   9.283   9.284  0.1764 -0.1053  0.3846
 3276W        W 7476   3.210   5.024   2.235  0.0822 -0.0813 -0.3001
 3277W        W 7477   0.107   5.936   8.487 -0.2899 -0.1405  0.1332
 3278W        W 7478   8.617   5.752  11.671  0.0055  0.0658 -0.0567
 3279W        W 7479   4.780  10.289   1.380  0.1760 -0.0821 -0.1205
 3280W        W 7480   9.238   2.277   2.007 -0.1137 -0.1655 -0.0925
 3281W        W 7481   8.342   7.000  13.382  0.2930  0.2684 -0.1713
 3282W        W 7482   3.481   8.161   0.937 -0.0614 -0.2115  0.0811
 3283W        W 7483   0.538   5.877   1.007  0.1198  0.0325  0.2097
 3284W        W 7484   7.564   0.426   0.446  0.2967 -0.3797  0.3109
 3285W        W 7485   0.450   8.930   9.494  0.1517  0.2050 -0.0229
 3286W        W 7486   3.211   9.163  12.100  0.2726  0.0651 -0.1306
 3287W        W 7487  10.099   5.309   0.228 -0.0156  0.2611  0.0602
 3288W        W 7488   1.004   5.451   0.329 -0.0155 -0.0936  0.1345
 3289W        W 7489   1.469   5.842  10.718  0.0578  0.3526 -0.0818
 3290W        W 7490   3.330   8.844  10.454 -0.0567  0.0516  0.0418
 3291W        W 7491   5.640   2.963   2.219  0.0543 -0.2552  0.0155
 3292W        W 7492   6.761   6.083   4.006 -0.1330 -0.2092 -0.0450
 3293W        W 7493   5.823   2.613   1.018  0.1771  0.2342  0.1848
 3294W        W 7494   3.194   1.197   2.499  0.2351 -0.0965 -0.2775
 3295W        W 7495   8.034   9.315   0.366  0.2906  0.0158  0.2005
 3296W        W 7496   0.763   2.675   0.067 -0.3418  0.2929  0.0100
 3297W        W 7497   4.418   3.163  10.489  0.0334  0.0365 -0.1867
 3298W        W 7498   3.710  10.228  12.979  0.1633  0.0498 -0.2592
 3299W        W 7499   7.992   4.605   4.121  0.1712 -0.1781  0.1944
 3300W        W 7500   2.848   7.407  11.712  0.1219 -0.0873  0.0253
 3301W        W 7501   9.823  10.415   2.816  0.1354  0.2263 -0.2739
 3302W        W 7502   2.672   8.568   0.317  0.0461 -0.2736  0.1677
 3303W        W 7503   2.727   4.858   9.620  0.0753  0.3969  0.1358
 3304W        W 7504   1.493   7.106   1.275 -0.1614 -0.0980 -0.0107
 3305W        W 7505   1.593   6.025  13.209  0.0618 -0.0862 -0.0215
 3306W        W 7506   9.210   7.659  12.569 -0.3703  0.2183  0.2830
 3307W        W 7507   3.003   7.336  11.243 -0.2156  0.0652  0.1470
 3308W        W 7508   7.606   5.257   3.464 -0.1319 -0.0620  0.2718
 3309W        W 7509   1.113   6.420   3.549  0.0209  0.0810  0.0033
 3310W        W 7510   6.263   0.120  12.974 -0.1502  0.1583 -0.0758
 3311W        W 7511   4.256   1.897   1.055 -0.1730  0.3344 -0.0563
 3312W        W 7512   5.842   0.047   2.790  0.2149  0.0867  0.1212
 3313W        W 7513  10.482   1.155   9.667 -0.0520 -0.1425 -0.1405
 3314W        W 7514   8.046   7.462  10.346  0.3382 -0.0525  0.0202
 3315W        W 7515   2.498   5.522  11.998 -0.1525  0.0462  0.0285
 3316W        W 7516   7.431   9.001  13.224 -0.1712  0.3466 -0.2682
 3317W        W 7517   5.598   6.416   4.128  0.0594  0.0525 -0.1345
 3318W        W 7518   5.729   7.724   9.969 -0.1560 -0.0878 -0.0012
 3319W        W 7519   1.503   8.408   3.363 -0.0461 -0.0482 -0.1238
 3320W        W 7520   0.596   1.693  13.104  0.2449 -0.3148  0.1435
 3321W        W 7521   3.163   5.296  11.608 -0.1568 -0.0730 -0.1657
 3322W        W 7522   2.055   7.588   2.130 -0.1078  0.2571 -0.0718
 3323W        W 7523  10.250   0.536   1.599 -0.0329  0.0768 -0.1055
 3324W        W 7524   5.761   1.496   3.351 -0.2076 -0.0834  0.0135
 3325W        W 7525   8.482   9.172   3.394 -0.0371  0.0916 -0.0766
 3326W        W 7526   3.273   1.957  12.898 -0.0529  0.1234 -0.1626
 3327W        W 7527   3.996   7.334   8.954  0.0067 -0.2592  0.0552
 3328W        W 7528   3.454   8.055   9.891  0.2209 -0.0418  0.3132
 3329W        W 7529   6.582   4.306   4.594  0.0098 -0.3065  0.0568
 3330W        W 7530   6.033   2.112   9.087  0.0869 -0.0300 -0.3362
 3331W        W 7531   4.895   5.015   0.532 -0.0722  0.3876 -0.1687
 3332W        W 7532   4.870   0.108   2.687  0.3367  0.0191 -0.1063
 3333W        W 7533   7.788   7.495   3.656 -0.2977 -0.1065 -0.1371
 3334W        W 7534   0.270   0.517   2.327  0.1735 -0.1624 -0.3154
 3335W        W 7535   3.642   0.358  12.891 -0.1827  0.0402 -0.3299
 3336W        W 7536  10.363   4.136   4.608  0.1253 -0.3008 -0.3613
 3337W        W 7537   3.522   6.807  10.591 -0.2288 -0.2962  0.0553
 3338W        W 7538  10.408   1.359   0.842 -0.1018  0.2589  0.0201
 3339W        W 7539   2.303   5.390  11.122 -0.2212  0.0397  0.1232
 3340W        W 7540   9.693   8.028   1.767  0.2846  0.1385 -0.1852
 3341W        W 7541   7.493   5.477  11.357  0.2380  0.0975  0.2494
 3342W        W 7542   2.323   6.753  10.483  0.1830  0.2960  0.0070
 3343W        W 7543  10.464   5.741   0.143 -0.0565 -0.3286 -0.0645
 3344W        W 7544   6.663   0.388  10.236  0.1326  0.0607  0.1522
 3345W        W 7545   3.317   4.074  12.550 -0.0250 -0.1861 -0.3195
 3346W        W 7546   5.241   4.010  10.207  0.1055  0.2489  0.0173
 3347W        W 7547   8.966   8.923   8.467 -0.0385  0.0173  0.1438
 3348W        W 7548  10.122   5.531   4.399  0.0574  0.1911  0.2890
 3349W        W 7549   2.354   4.046  11.671 -0.2069 -0.0562 -0.2119
 3350W        W 7550   0.056   9.099   0.377  0.2614 -0.0793 -0.0293
 3351W        W 7551   4.138   7.533   3.072 -0.1421 -0.1178  0.2027
 3352W        W 7552   6.275   1.878  11.842  0.1698  0.3675  0.1531
 3353W        W 7553   5.261   7.564   1.660  0.1448 -0.0203 -0.2756
 3354W        W 7554   2.714   6.933   3.561  0.0436  0.3158 -0.2142
 3355W        W 7555   8.257   9.019   1.675 -0.2019 -0.1831  0.2310
 3356W        W 7556   2.784   8.017  10.889 -0.2813  0.1098 -0.2220
 3357W        W 7557   8.044   5.546   3.279 -0.0315  0.0207 -0.0042
 3358W        W 7558   1.698   8.001  11.062  0.0626  0.1166 -0.4665
 3359W        W 7559   8.341   2.918  10.756 -0.0522  0.0740  0.0419
 3360W        W 7560   4.521   6.425   0.550  0.0848  0.1418 -0.0830
 3361W        W 7561   0.091   4.251  11.592 -0.0532  0.6053  0.1002
 3362W        W 7562   4.092   5.203  11.681 -0.1187  0.1052 -0.0782
 3363W        W 7563   3.746   0.574  13.371  0.1650 -0.0339  0.3866
 3364W        W 7564   7.208   5.938   2.120 -0.0785 -0.1124  0.5043
 3365W        W 7565   1.861   2.809   4.111  0.0051 -0.0374  0.0270
 3366W        W 7566   0.115   0.611  11.688  0.1462  0.0344  0.0118
 3367W        W 7567   9.642   1.912   4.076  0.2796 -0.0148  0.0746
 3368W        W 7568   5.273   2.163   4.086  0.0713  0.4933  0.0908
 3369W        W 7569  10.319   5.763   3.424  0.0369 -0.1440 -0.3354
 3370W        W 7570   6.182   0.744  12.265 -0.2459 -0.1688  0.2991
 3371W        W 7571   7.097   8.597  12.456 -0.0081  0.4370 -0.0515
 3372W        W 7572   7.655   6.634   3.758 -0.2372  0.1981 -0.2592
 3373W        W 7573   2.325   9.114   2.079  0.0661 -0.2164 -0.1106
 3374W        W 7574   1.728   0.388   8.593 -0.1016 -0.1372  0.0576
 3375W        W 7575   4.640   9.550   3.949  0.3453  0.1259 -0.0043
 3376W        W 7576   6.154   4.258   3.348 -0.1938  0.0313 -0.3651
 3377W        W 7577   9.200   2.162  11.448  0.0993 -0.0918 -0.0074
 3378W        W 7578   3.765   8.311   3.102  0.1452 -0.0239  0.2520
 3379W        W 7579   2.231   1.909   9.246  0.1619 -0.3369 -0.0060
 3380W        W 7580   0.828   9.630   2.955 -0.3705  0.1099  0.1337
 3381W        W 7581   3.770   7.771  10.816 -0.2834 -0.1174  0.0545
 3382W        W 7582   0.381   8.122   4.531  0.2129  0.1084  0.0281
 3383W        W 7583   4.206   5.275  10.308  0.1459 -0.2786  0.4461
 3384W        W 7584   2.892   0.561  11.797  0.0125  0.0736 -0.3169
 3385W        W 7585  10.368   6.210   2.276  0.1324 -0.0848  0.2101
 3386W        W 7586   4.658   2.316  12.841 -0.2433 -0.1835 -0.0092
 3387W        W 7587   2.837   2.114  11.952 -0.0533 -0.0285  0.2223
 3388W        W 7588   1.717   8.720  12.588  0.2603 -0.1566 -0.0115
 3389W        W 7589   1.060   1.959   3.403  0.0413 -0.0658 -0.1353
 3390W        W 7590   6.820   4.163   8.840  0.1776  0.0210  0.2607
 3391W        W 7591   6.779   3.447  11.640  0.1110 -0.1383  0.0109
 3392W        W 7592   7.097   0.260   1.129  0.2138 -0.0330 -0.2087
 3393W        W 7593   5.644   5.585   9.732  0.2546  0.0880  0.2026
 3394W        W 7594   9.461   8.368   2.831  0.1748  0.2186 -0.2192
 3395W        W 7595   8.412   5.190   4.417 -0.1648  0.0559  0.0332
 3396W        W 7596   7.622   5.377   0.213 -0.1166 -0.4076  0.2284
 3397W        W 7597   9.580   7.250   9.052  0.2077 -0.1724  0.2285
 3398W        W 7598   4.390  10.059  12.137  0.0470 -0.0065 -0.0748
 3399W        W 7599   1.101  10.244   4.384 -0.0342  0.0298 -0.2270
 3400W        W 7600   8.778   8.014   1.530 -0.0000 -0.0596  0.0760
 3401W        W 7601   3.888   5.339   3.646  0.1112 -0.1970  0.1457
 3402W        W 7602   9.496   3.983   2.909  0.3724 -0.2277  0.0661
 3403W        W 7603   2.869   0.864  10.879  0.0660 -0.2316 -0.3473
 3404W        W 7604   5.526   9.885   0.986 -0.1693 -0.1617 -0.0754
 3405W        W 7605   4.611   0.673  11.136  0.0943 -0.1309 -0.2095
 3406W        W 7606   9.447   4.017   9.991  0.0916 -0.2396  0.0278
 3407W        W 7607   9.859   2.549   8.875 -0.0851 -0.1726 -0.1375
 3408W        W 7608   9.823   4.796   0.894 -0.1524  0.1752 -0.0012
 3409W        W 7609   1.978   6.838  11.674  0.1773 -0.3822  0.1229
 3410W        W 7610   1.468   1.403   9.797  0.2158 -0.0585 -0.2125
 3411W        W 7611   9.470   7.570   9.421  0.1578 -0.0899  0.3222
 3412W        W 7612  10.286   9.841  12.742  0.2381 -0.1090  0.0572
 3413W        W 7613   6.564   0.361   2.878 -0.0022 -0.2201 -0.0912
 3414W        W 7614   6.431   4.293  13.276  0.4418 -0.2241 -0.3085
 3415W        W 7615   9.011   2.462  13.088 -0.2506 -0.0995 -0.0514
 3416W        W 7616   6.305   5.325   9.304  0.3346  0.0357 -0.1413
 3417W        W 7617   2.727   7.572   1.386 -0.1551  0.0030  0.3337
 3418W        W 7618   8.887   0.157  11.795 -0.0237 -0.3496 -0.1978
 3419W        W 7619   1.363   6.788  10.419  0.0129  0.0513  0.2482
 3420W        W 7620   3.780   0.916   1.806  0.0353  0.1788 -0.2667
 3421W        W 7621   9.830   3.678   0.503  0.1785  0.1952 -0.0850
 3422W        W 7622   4.699   8.992  11.262  0.0299  0.0202  0.0339
 3423W        W 7623   5.249   6.700   3.671 -0.1522  0.0578 -0.2062
 3424W        W 7624   9.075   8.146   2.638  0.1715  0.1105 -0.4014
 3425W        W 7625   5.912   6.601  12.691 -0.1576  0.0085  0.0074
 3426W        W 7626   8.387   2.602   9.249  0.1077  0.1280 -0.0007
 3427W        W 7627   8.184   0.211   9.646  0.3485 -0.0514  0.0518
 3428W        W 7628   6.858   4.176   0.198 -0.0381 -0.2167 -0.0356
 3429W        W 7629   6.123   0.297  10.194  0.1037  0.0242  0.0476
 3430W        W 7630   2.963   8.221   3.504  0.1436  0.2756  0.2544
 3431W        W 7631   5.268   2.714   2.839  0.2104  0.2143  0.2928
 3432W        W 7632   5.653   4.145   1.909  0.3175  0.3365 -0.3500
 3433W        W 7633   5.343   5.337   4.013  0.4088  0.0775 -0.3598
 3434W        W 7634   5.090   2.146   2.479 -0.0086  0.2972  0.1048
 3435W        W 7635   3.452   0.189   3.412  0.3204  0.3352 -0.0954
 3436W        W 7636   9.517   5.267   0.833  0.0881 -0.0355  0.2673
 3437W        W 7637   9.174   3.065   0.902 -0.0295 -0.1577  0.0680
 3438W        W 7638   3.664   6.652   1.096 -0.2364 -0.0911 -0.3638
 3439W        W 7639   2.981   6.924   0.290  0.0562  0.1337 -0.0562
 3440W        W 7640   9.564   9.800   3.073 -0.1638  0.2282  0.1238
 3441W        W 7641   0.778   4.399  11.001  0.0435 -0.2282  0.0259
 3442W        W 7642   8.663   1.129   9.908 -0.1338 -0.2072  0.0297
 3443W        W 7643   6.247   3.138  11.474  0.1269  0.1281 -0.0593
 3444W        W 7644   9.207   4.651   4.519 -0.0530 -0.0478  0.0493
 3445W        W 7645   7.090   1.645   9.654  0.1180  0.1626 -0.0744
 3446W        W 7646   3.853   8.313  10.819 -0.1374 -0.1380 -0.1763
 3447W        W 7647   1.410   5.122   3.768 -0.0021  0.0273  0.0621
 3448W        W 7648   2.244   6.515  12.688  0.2488  0.3450  0.2735
 3449W        W 7649   8.641   1.398   4.048 -0.1753  0.2237  0.1044
 3450W        W 7650   9.781   6.798  10.054  0.0704  0.0279  0.0222
 3451W        W 7651   3.227   8.931   2.222  0.1328  0.4233  0.0258
 3452W        W 7652   6.021  10.019   3.612 -0.1021  0.1730  0.3163
 3453W        W 7653   7.747   1.055   4.029  0.2120 -0.2829  0.0654
 3454W        W 7654   2.999   9.021  11.621 -0.3021 -0.4699 -0.0316
 3455W        W 7655   3.110   1.598  13.204  0.3041  0.0159  0.0960
 3456W        W 7656   9.378   4.667   2.733  0.0424 -0.0102  0.0787
 3457W        W 7657   8.411   5.781  12.185  0.1108 -0.0138  0.2684
 3458W        W 7658   2.060   3.327   4.581 -0.1967 -0.0329 -0.1173
 3459W        W 7659   4.284   7.260   2.512  0.0608  0.1554 -0.1028
 3460W        W 7660   5.928   8.672  13.077  0.2636  0.0430  0.2266
 3461W        W 7661   2.796   4.704  10.999 -0.3001  0.0873 -0.0255
 3462W        W 7662   6.740   1.465  11.008  0.1178  0.3254  0.0941
 3463W        W 7663   1.103   9.753  12.438  0.3270  0.1838 -0.1767
 3464W        W 7664   0.344   0.724  12.809 -0.0544  0.2470  0.2094
 3465W        W 7665   3.138   7.321  10.723 -0.0184  0.3490  0.0097
 3466W        W 7666   0.172   4.280   0.934  0.1243  0.0799  0.2367
 3467W        W 7667   0.830   9.545   9.025 -0.1637 -0.0812  0.0157
 3468W        W 7668   3.949   4.022  10.708 -0.1344 -0.2818 -0.0087
 3469W        W 7669   4.809   6.851  12.390 -0.1766  0.1027 -0.0151
 3470W        W 7670   0.992   3.932  11.069 -0.1027 -0.1287  0.1258
 3471W        W 7671   9.158   3.387   4.552  0.0499 -0.1089 -0.2363
 3472W        W 7672   4.985   6.606   2.074  0.4294 -0.0579  0.0397
 3473W        W 7673   1.972   4.756  10.520  0.0963 -0.3466 -0.0007
 3474W        W 7674   5.525   2.115  11.632 -0.1609 -0.2584  0.3057
 3475W        W 7675   4.017   4.558  12.410 -0.0531 -0.1537 -0.1862
 3476W        W 7676   5.637   3.646   1.836  0.1915  0.1437 -0.0494
 3477W        W 7677   0.579   0.530  11.942  0.1330 -0.0019 -0.1068
 3478W        W 7678   9.172   5.613   1.725  0.2793  0.0292  0.0185
 3479W        W 7679   4.775   3.761   0.637 -0.0101 -0.1704 -0.1111
 3480W        W 7680   2.368   4.816  13.227  0.1458  0.1574 -0.0494
 3481W        W 7681   8.812   0.086  10.849 -0.3703  0.0480 -0.1030
 3482W        W 7682   8.659   7.341   9.773 -0.1426 -0.2719  0.3265
 3483W        W 7683   6.808   8.985  12.380 -0.1902  0.0845 -0.0197
 3484W        W 7684   8.388   2.204   4.553  0.0588 -0.1718 -0.1549
 3485W        W 7685   6.667   2.483  11.110  0.0477 -0.1398  0.0868
 3486W        W 7686   0.299   7.535   1.485 -0.1821 -0.2310 -0.2448
 3487W        W 7687   1.028   4.158  11.936 -0.0436  0.3738  0.0279
 3488W        W 7688   3.915   8.300   1.239  0.1334 -0.0394 -0.2793
 3489W        W 7689   0.185   5.827   2.124  0.3064  0.1220  0.1965
 3490W        W 7690   8.312   5.038  12.942  0.0823  0.0714  0.1302
 3491W        W 7691   4.971   5.738  10.299 -0.0230 -0.0981  0.2868
 3492W        W 7692   5.986   6.185   3.101 -0.2273  0.2881 -0.3653
 3493W        W 7693   7.079   3.934   9.627 -0.1240  0.1031 -0.0755
 3494W        W 7694   6.907   3.304  10.923  0.1801 -0.0866 -0.0332
 3495W        W 7695   3.012   1.305   1.523 -0.2355  0.3382 -0.0059
 3496W        W 7696   8.296  10.260   9.846 -0.2149  0.1280 -0.4840
 3497W        W 7697   6.550   5.682   1.737 -0.1536  0.4076  0.0170
 3498W        W 7698   6.012   2.030   0.219 -0.0321 -0.0350 -0.2866
 3499W        W 7699   5.738   1.929  12.036  0.2704  0.1749 -0.0709
 3500W        W 7700   5.019   4.040   3.247 -0.3512 -0.1976  0.2187
 3501W        W 7701   6.525   1.114   9.735 -0.1902 -0.1498 -0.0239
 3502W        W 7702   4.100   2.058  10.162  0.0305 -0.2428  0.0312
 3503W        W 7703   8.678   7.182   3.360  0.0240 -0.0408  0.1544
 3504W        W 7704   9.151   4.755   1.809 -0.1086  0.1288 -0.0154
 3505W        W 7705   0.656   2.271  13.205 -0.2146  0.1352 -0.1473
 3506W        W 7706   2.695   3.098  10.176 -0.3269 -0.1857  0.0743
 3507W        W 7707   0.338   3.937   4.256 -0.0275  0.3636 -0.1373
 3508W        W 7708   5.335   7.703   9.079  0.2213  0.4360 -0.1608
 3509W        W 7709   3.916   7.855   3.413 -0.1840  0.0658  0.2187
 3510W        W 7710   9.222   0.460   9.540  0.1378 -0.0947  0.0632
 3511W        W 7711   9.402   5.489  11.450 -0.3198 -0.0018 -0.1572
 3512W        W 7712   1.357   6.668   0.983 -0.0066 -0.0061  0.3527
 3513W        W 7713   8.355   9.764   9.048  0.2811 -0.2163 -0.0274
 3514W        W 7714   6.199   2.635  11.254 -0.1669 -0.2800  0.0753
 3515W        W 7715   4.298   8.738  12.771  0.0093 -0.0464  0.1718
 3516W        W 7716   5.938   8.041   1.938  0.0494  0.2287  0.0054
 3517W        W 7717   8.567   7.859   3.972  0.2255 -0.1074 -0.0803
 3518W        W 7718   5.965   3.229   2.650 -0.0127  0.1292  0.1190
 3519W        W 7719   9.437   3.877   1.742 -0.0494 -0.2084 -0.0467
 3520W        W 7720   0.564   5.451   2.056 -0.0309 -0.1192  0.2665
 3521W        W 7721   8.434   0.662   9.771 -0.1684 -0.0742 -0.1098
 3522W        W 7722   9.462   5.713  10.244 -0.0967  0.1546 -0.3668
 3523W        W 7723   5.736   8.342   2.342 -0.2164  0.1639 -0.0745
 3524W        W 7724   7.084   0.773  11.642 -0.0490 -0.1071 -0.1460
 3525W        W 7725   6.965   1.535   4.481  0.0728  0.1066 -0.0716
 3526W        W 7726   7.667   9.184   3.373  0.2829  0.1899  0.0947
 3527W        W 7727   5.759   4.840  11.685  0.2093  0.2201 -0.0791
 3528W        W 7728   0.804   3.044  11.491 -0.0298 -0.1156 -0.4940
 3529W        W 7729  10.203   2.663   9.279 -0.0101 -0.1227 -0.0087
 3530W        W 7730   1.791   7.381   1.017 -0.0986 -0.1579 -0.2094
 3531W        W 7731   0.235   3.047   2.596  0.1156 -0.2413  0.0302
 3532W        W 7732   0.255   8.244   2.269  0.0738  0.1772 -0.1406
 3533W        W 7733   1.412   3.564   0.190 -0.1582  0.0555 -0.3391
 3534W        W 7734   0.641   5.799  11.100 -0.0267  0.1010  0.1837
 3535W        W 7735   2.930   1.261   1.028  0.0264  0.1271  0.0455
 3536W        W 7736   2.467   2.338  12.232  0.0543 -0.1206 -0.1150
 3537W        W 7737   2.004   4.798   1.458 -0.0442 -0.0777  0.0546
 3538W        W 7738   6.360   8.369   2.608 -0.0707 -0.0303  0.1903
 3539W        W 7739   5.695   2.419  12.018 -0.3179 -0.2060  0.3528
 3540W        W 7740   9.370   1.287  10.040  0.1791  0.2740 -0.1023
 3541W        W 7741   2.024   8.044   0.110 -0.2813  0.2368 -0.2084
 3542W        W 7742   6.814   7.698   8.128  0.1207 -0.1209  0.0311
 3543W        W 7743   9.210   9.402   9.549  0.0107  0.1267  0.0174
 3544W        W 7744   9.265   3.123   3.102  0.2871  0.1246  0.0675
 3545W        W 7745   4.654   9.514  10.151  0.3348 -0.1161  0.0853
 3546W        W 7746   8.781   9.281  13.347  0.1776  0.1497 -0.1303
 3547W        W 7747   8.161   2.492   1.231  0.0965 -0.1975  0.2999
 3548W        W 7748   0.169   9.317   4.079  0.1823  0.2130 -0.2438
 3549W        W 7749   9.581   1.414   2.495  0.0221  0.0422 -0.2811
 3550W        W 7750   5.413   3.567  12.740  0.4408  0.1915 -0.2489
 3551W        W 7751   1.204   8.083  12.286  0.0082 -0.1369 -0.0428
 3552W        W 7752   4.944   0.782  11.632  0.1177  0.0506 -0.0256
 3553W        W 7753   3.214   8.170  11.190 -0.1070  0.0124 -0.1489
 3554W        W 7754   6.879   4.445   1.574 -0.1991  0.1163  0.2387
 3555W        W 7755   7.422   0.382   2.304  0.2691 -0.3004  0.1700
 3556W        W 7756   7.278   8.081  12.125 -0.3824 -0.1138  0.0091
 3557W        W 7757   8.312   1.362   3.613 -0.2190 -0.0989  0.2506
 3558W        W 7758   2.661   6.300  11.265  0.2899  0.0096  0.1893
 3559W        W 7759   9.820   9.797   4.308  0.1520 -0.1069 -0.0619
 3560W        W 7760  10.262   2.098  10.862  0.1699  0.3716  0.1153
 3561W        W 7761   8.915   6.873   4.946  0.0300  0.3455  0.5603
 3562W        W 7762   6.122   1.809   4.160  0.0481  0.0562 -0.0883
 3563W        W 7763   1.357  10.245   9.288 -0.1823  0.0342 -0.1187
 3564W        W 7764   0.864   7.714   9.439  0.1928  0.0929 -0.2557
 3565W        W 7765   5.255   5.398  10.949  0.0330 -0.0642 -0.1772
 3566W        W 7766   2.853   2.057  13.231 -0.0923  0.0245 -0.2059
 3567W        W 7767   6.838   9.105   9.676 -0.2538  0.1961 -0.0524
 3568W        W 7768   0.360   6.809   1.066 -0.3547 -0.3193 -0.0496
 3569W        W 7769   1.458   5.048  11.206  0.0967 -0.1244  0.0339
 3570W        W 7770   8.983   1.092  11.637 -0.1444  0.4771  0.2243
 3571W        W 7771   3.269   5.724   0.931 -0.1601 -0.0761 -0.1542
 3572W        W 7772   9.875  10.169   9.077  0.0124  0.0241 -0.1937
 3573W        W 7773   6.369   2.283   4.541  0.0491 -0.0412 -0.2139
 3574W        W 7774   1.006   2.295  11.345  0.1487 -0.3250  0.1832
 3575W        W 7775   2.636   9.596  13.249  0.1485 -0.1409  0.0845
 3576W        W 7776   5.630   2.591  12.674  0.0634  0.0854  0.0902
 3577W        W 7777   4.306   4.371   9.958 -0.0235  0.1183  0.1902
 3578W        W 7778   6.170  10.200  12.766  0.0760  0.0666  0.0671
 3579W        W 7779   6.989   9.114  10.160 -0.2874 -0.1561  0.2856
 3580W        W 7780   5.080   0.107   3.177 -0.1234  0.0818 -0.2981
 3581W        W 7781   2.622   1.096   3.100 -0.1686 -0.0499  0.1910
 3582W        W 7782   7.439   3.183   1.370 -0.1707  0.1377  0.1691
 3583W        W 7783   6.361   7.005  12.086 -0.0654  0.1945  0.2093
 3584W        W 7784   9.010   0.860  11.157 -0.1905 -0.1112 -0.0328
 3585W        W 7785   7.205   0.781   8.493 -0.0807 -0.2281 -0.0593
 3586W        W 7786   9.868   7.737   9.668  0.0750  0.0050 -0.1478
 3587W        W 7787   1.489   4.671   2.891 -0.2529 -0.1893 -0.1149
 3588W        W 7788   9.515   6.274   1.538  0.2842 -0.0700  0.2648
 3589W        W 7789   5.770   3.806   4.540 -0.1156  0.1348 -0.2188
 3590W        W 7790   5.873   6.754   3.177  0.0029  0.0837  0.0987
 3591W        W 7791   1.176   7.706   1.057  0.1811  0.1482 -0.1351
 3592W        W 7792   7.166   7.613  10.175 -0.4107  0.2803  0.0702
 3593W        W 7793   0.861   6.902  10.282 -0.0467  0.0419  0.1329
 3594W        W 7794   7.829   1.253   3.537 -0.2000  0.1252  0.1522
 3595W        W 7795   5.456   8.466  13.109  0.0095 -0.2027 -0.0434
 3596W        W 7796   2.449   5.286   2.840  0.1382 -0.1018  0.1659
 3597W        W 7797   8.956   0.868  13.277  0.2305  0.0138 -0.1844
 3598W        W 7798   3.837   6.581  12.386  0.0237  0.0462  0.0007
 3599W        W 7799   1.409   8.126   2.037  0.1829  0.1081 -0.0413
 3600W        W 7800   1.156   1.433  10.593  0.0982  0.0353 -0.0482
 3601W        W 7801   7.045   2.816  10.968 -0.0235  0.0057  0.2364
 3602W        W 7802   8.784   8.516   2.392 -0.0116  0.2424  0.1759
 3603W        W 7803   0.289   9.742   3.716 -0.3153  0.0699 -0.1010
 3604W        W 7804   8.989  10.436  12.655  0.1157  0.0677 -0.0655
 3605W        W 7805   9.704   5.454   3.136 -0.1239  0.2303  0.1913
 3606W        W 7806   4.488   8.875   3.451  0.0289 -0.0751  0.0460
 3607W        W 7807   5.523   1.999   0.430  0.1714 -0.2365 -0.3494
 3608W        W 7808   8.186   2.511   3.700 -0.0532  0.1876 -0.2124
 3609W        W 7809   6.022   8.153   3.220 -0.0461 -0.0381 -0.2127
 3610W        W 7810   2.650  10.329  11.854 -0.2350  0.1538  0.3053
 3611W        W 7811   9.827   4.655  10.216  0.1394  0.1875 -0.0203
 3612W        W 7812   2.500   2.114  10.406  0.2895  0.2863  0.1283
 3613W        W 7813   7.335   9.285   9.837  0.2698  0.1020 -0.2439
 3614W        W 7814   7.057   3.363   1.056 -0.0149 -0.5085  0.0127
 3615W        W 7815   0.338   4.035  12.453 -0.2031 -0.3809 -0.0250
 3616W        W 7816   5.584   4.184   1.026  0.4544  0.3122  0.3153
 3617W        W 7817   3.893   5.121  12.717 -0.1166  0.0047  0.1627
 3618W        W 7818   2.510   1.240   1.412 -0.1199 -0.0405 -0.0557
 3619W        W 7819   5.348   7.388   4.490 -0.1578 -0.0428  0.0088
 3620W        W 7820   5.008   4.948  10.844  0.0743  0.1046  0.1887
 3621W        W 7821   6.122   0.976   2.853 -0.2832 -0.0636  0.2653
 3622W        W 7822   1.015   8.991  11.469  0.1552  0.1869 -0.0260
 3623W        W 7823   4.510   8.793  12.234  0.0119  0.1285  0.2135
 3624W        W 7824   4.106   5.596  12.044 -0.0171 -0.0708  0.1020
 3625W        W 7825   1.059   9.951  11.440  0.4264  0.0387 -0.0507
 3626W        W 7826   4.832   1.742   2.863 -0.4573  0.1151 -0.1779
 3627W        W 7827   3.243   7.455   1.133  0.1848  0.2617  0.2878
 3628W        W 7828   0.189   5.340   2.368  0.2014  0.0272 -0.2810
 3629W        W 7829   8.837   7.162  10.935 -0.3078  0.0447  0.3195
 3630W        W 7830   7.068   4.568   2.977  0.0422 -0.0099 -0.3248
 3631W        W 7831  10.232   3.126   2.300  0.1065  0.0159  0.2137
 3632W        W 7832   7.000   6.953   1.271 -0.0912  0.1638 -0.0364
 3633W        W 7833  10.138   2.138   4.292 -0.1463  0.1259  0.5264
 3634W        W 7834   2.984   5.823  11.490 -0.0481 -0.2605 -0.2454
 3635W        W 7835   9.997   8.522   0.526 -0.4955 -0.1389  0.1903
 3636W        W 7836   8.739   6.016   3.986  0.1019 -0.0932  0.3067
 3637W        W 7837   7.839   1.744  11.067 -0.1168 -0.3451  0.1122
 3638W        W 7838   2.769   6.396  10.280  0.0032 -0.1978  0.0464
 3639W        W 7839   6.117   4.929  10.331  0.1499  0.0027 -0.5135
 3640W        W 7840   1.716   4.187   9.651 -0.3315  0.2302  0.2759
 3641W        W 7841   7.789   0.602  12.950 -0.1525  0.2421  0.6185
 3642W        W 7842   4.296   5.111  13.379  0.3473 -0.0019 -0.1548
 3643W        W 7843   2.868   2.877   9.653  0.0861  0.0062 -0.2428
 3644W        W 7844   6.333   5.792   3.132  0.0665  0.3455 -0.0243
 3645W        W 7845  10.290  10.083   1.749  0.0424 -0.0772 -0.0690
 3646W        W 7846  10.231   7.016  11.893  0.1999  0.1839 -0.1214
 3647W        W 7847   9.855   9.550  10.695 -0.1696  0.1531  0.1849
 3648W        W 7848   6.233   8.148   3.729 -0.1587 -0.1881 -0.1943
 3649W        W 7849   4.321   2.695  12.891 -0.0715 -0.0091 -0.1069
 3650W        W 7850   1.085   0.687   3.538  0.0820 -0.0758 -0.1875
 3651W        W 7851   7.221   8.966   0.916  0.0099 -0.1645 -0.0208
 3652W        W 7852  10.029   6.991  11.319 -0.0710 -0.0076 -0.0823
 3653W        W 7853   0.851   8.073   9.006  0.2842  0.2639  0.1380
 3654W        W 7854   9.975   5.902  11.722 -0.0414  0.0233 -0.1243
 3655W        W 7855   5.322   4.537  11.434  0.3564 -0.0787  0.2350
 3656W        W 7856   1.807   2.480   3.346  0.4381  0.0815 -0.1441
 3657W        W 7857   7.822   0.896   2.428  0.1229  0.2071  0.0236
 3658W        W 7858   9.093   1.268   0.926  0.2688 -0.5063 -0.0859
 3659W        W 7859   0.529   2.880  11.162  0.0702  0.0055 -0.0957
 3660W        W 7860   1.676   8.682   8.918 -0.2119  0.1790 -0.1303
 3661W        W 7861   0.377   6.153   9.856 -0.1534 -0.3804 -0.1116
 3662W        W 7862   5.904   1.164   1.939  0.0585 -0.3262 -0.0180
 3663W        W 7863   3.963  10.284  11.735 -0.4008  0.1469  0.3713
 3664W        W 7864   0.228   2.134   4.527  0.0689 -0.1689  0.0609
 3665W        W 7865   4.310   1.901  10.558  0.1386  0.1052 -0.2501
 3666W        W 7866   1.581   8.063  11.706 -0.5485  0.0033 -0.3396
 3667W        W 7867   4.568   1.250   9.860 -0.1046 -0.1053 -0.1794
 3668W        W 7868   7.046   2.004   2.363 -0.1552  0.0530 -0.1149
 3669W        W 7869   5.626   7.070   2.683  0.2366 -0.1507  0.0989
 3670W        W 7870   1.776   4.471  12.580 -0.0610  0.1990  0.0429
 3671W        W 7871   4.003   2.187   0.712 -0.1759 -0.1637 -0.2528
 3672W        W 7872   5.694   8.924  10.094  0.2640  0.2696 -0.0713
 3673W        W 7873   1.218   3.442  10.059  0.3580  0.0648  0.3008
 3674W        W 7874   8.753   1.731   1.052 -0.0432 -0.0963 -0.5082
 3675W        W 7875   3.488   8.480  13.095 -0.0551  0.0527  0.2425
 3676W        W 7876   3.656   6.573   3.547 -0.3553 -0.3441 -0.1840
 3677W        W 7877   3.353   1.655   2.242  0.1732  0.1503 -0.0246
 3678W        W 7878   8.567   9.812  13.344  0.0363 -0.2781 -0.3445
 3679W        W 7879   7.425   1.991   9.915  0.1927  0.0135 -0.1264
 3680W        W 7880   6.154   5.936  11.037  0.3721 -0.2518  0.1704
 3681W        W 7881   4.397   2.438   0.892  0.0908 -0.0270  0.0196
 3682W        W 7882   0.545   3.595  12.634 -0.4876 -0.0316  0.1241
 3683W        W 7883   0.056   1.304   3.697  0.0626  0.0901 -0.1696
 3684W        W 7884   8.714   4.569   3.813 -0.3713  0.0798 -0.2480
 3685W        W 7885   6.133   8.492   2.054 -0.0886 -0.0109 -0.1503
 3686W        W 7886   3.834   2.612  10.359 -0.1980  0.2025 -0.1101
 3687W        W 7887   1.805   6.839   4.960  0.1118  0.1228  0.0694
 3688W        W 7888  10.146   0.882   3.205 -0.0101  0.1565  0.1425
 3689W        W 7889   1.657   1.025  11.209  0.1735  0.2993  0.3952
 3690W        W 7890   0.864   8.416   1.590 -0.2599  0.2341 -0.0541
 3691W        W 7891   1.768   9.862   0.202  0.0909 -0.2039  0.1748
 3692W        W 7892   1.761   2.190   2.005 -0.0251 -0.2382  0.0500
 3693W        W 7893   7.698   8.902   2.943  0.1263  0.4346 -0.1586
 3694W        W 7894   9.711   2.153   3.186  0.1595  0.2000 -0.1493
 3695W        W 7895   4.734   8.577  10.609  0.2160  0.1714  0.4509
 3696W        W 7896   2.857   5.946  10.613 -0.3108  0.1826 -0.0265
 3697W        W 7897   5.393   3.753   3.336 -0.0128  0.2544  0.2358
 3698W        W 7898   4.288   3.939   4.035 -0.0666 -0.3155  0.0406
 3699W        W 7899   1.054   6.285  10.348 -0.1206 -0.1454 -0.2382
 3700W        W 7900   8.905   5.526  10.897  0.0722 -0.0687  0.1194
 3701W        W 7901   9.747   0.129  10.315 -0.1731 -0.0206 -0.2209
 3702W        W 7902   9.772   2.899  12.573  0.3521  0.0550 -0.0976
 3703W        W 7903   0.127   5.288   4.319  0.0455  0.0050  0.0120
 3704W        W 7904   8.445   6.897  11.971 -0.1822 -0.1559 -0.1122
 3705W        W 7905   8.479   0.996   8.964  0.0748  0.0254 -0.2191
 3706W        W 7906   9.607   0.498  13.272 -0.0213  0.0138  0.0663
 3707W        W 7907   3.234   1.251   3.591 -0.0838 -0.0886 -0.0560
 3708W        W 7908   6.779   5.026   9.293 -0.0380 -0.1343 -0.2305
 3709W        W 7909   8.366   7.689   2.932  0.0760 -0.3162  0.1840
 3710W        W 7910   6.255   4.984   0.337 -0.0309  0.0775 -0.4768
 3711W        W 7911   2.689   7.541  10.907  0.2462 -0.0370 -0.0871
 3712W        W 7912   1.129   3.197   0.570 -0.2111 -0.1077  0.1475
 3713W        W 7913   2.351   8.390   9.871 -0.0383 -0.1960  0.0396
 3714W        W 7914   1.596   1.070  12.098  0.1797  0.0801  0.1631
 3715W        W 7915   4.900   2.683  12.586  0.1453  0.3028  0.0684
 3716W        W 7916   0.479   2.782  12.464  0.2518  0.4693 -0.1181
 3717W        W 7917   1.484   1.866   3.612  0.0328 -0.2552 -0.2264
 3718W        W 7918   2.203   4.616   4.658 -0.2338  0.5472 -0.1431
 3719W        W 7919   1.596   1.742   2.466  0.0816 -0.1568  0.2927
 3720W        W 7920   4.728   5.799   8.655 -0.2573 -0.2108  0.0697
 3721W        W 7921   6.028   5.738   1.365 -0.1555  0.2005 -0.0109
 3722W        W 7922   6.219   7.606  11.661  0.1721  0.0939  0.1135
 3723W        W 7923   1.338   5.425   4.159 -0.0262 -0.1173  0.1502
 3724W        W 7924   6.778   0.616   9.554  0.0972 -0.0752  0.0328
 3725W        W 7925   1.025   2.737   3.738 -0.2980 -0.0926  0.1049
 3726W        W 7926   5.058   6.277   3.924  0.0276  0.0353  0.0604
 3727W        W 7927   3.047   4.316   0.702  0.1358  0.2332  0.2883
 3728W        W 7928   8.913   2.701   1.869 -0.1889  0.0324 -0.1408
 3729W        W 7929   7.332   9.029   0.387  0.0833 -0.0969  0.2629
 3730W        W 7930   7.286   0.302  11.567 -0.2915 -0.0478 -0.1108
 3731W        W 7931   0.594  10.127  10.784  0.2580 -0.5463  0.1393
 3732W        W 7932   5.691   3.742  12.282 -0.0311  0.3263 -0.1449
 3733W        W 7933   5.750   2.473   0.364 -0.1467 -0.2283  0.1833
 3734W        W 7934   3.746   8.671   2.501 -0.1152 -0.1917  0.0835
 3735W        W 7935   5.639   5.488   4.575 -0.2589  0.1069  0.1950
 3736W        W 7936   2.535   1.022  12.297  0.2452  0.0112  0.2992
 3737W        W 7937   2.753   9.308   2.517  0.0028 -0.0197 -0.0479
 3738W        W 7938   1.821   4.406   0.490  0.2096  0.0775  0.0583
 3739W        W 7939   5.656   9.949  11.245  0.1980  0.2559 -0.1893
 3740W        W 7940   9.941  10.060   2.087 -0.0588 -0.0445  0.0345
 3741W        W 7941  10.042   1.351   3.488  0.2710 -0.2145  0.1713
 3742W        W 7942   2.806   1.433   3.445 -0.0688  0.4067 -0.0840
 3743W        W 7943   4.099   7.428  10.838 -0.1442 -0.0228 -0.2383
 3744W        W 7944   6.780   9.241   1.241  0.3434  0.3359  0.1123
 3745W        W 7945   4.998   1.779   1.666  0.1490  0.0027 -0.0172
 3746W        W 7946   5.326   4.013  11.886  0.0499 -0.0704  0.3744
 3747W        W 7947   9.019   1.771  11.029 -0.0417 -0.4577 -0.0721
 3748W        W 7948   1.134  10.154  12.836 -0.0409  0.1530  0.0595
 3749W        W 7949   6.626   2.626  10.198  0.1727  0.1288  0.0761
 3750W        W 7950   5.367   8.914   9.690 -0.0366  0.1327 -0.2114
 3751W        W 7951   5.023   7.488  10.836 -0.2931  0.1732  0.0430
 3752W        W 7952   1.557   2.379   1.234 -0.0515 -0.2637 -0.0554
 3753W        W 7953  10.415   0.755   0.507 -0.2693 -0.1198 -0.2723
 3754W        W 7954   8.378   2.288  12.492 -0.0023  0.3810  0.1153
 3755W        W 7955   5.141   7.746   0.740 -0.0641  0.1334  0.0012
 3756W        W 7956   8.160   5.624   5.807  0.2157 -0.0383 -0.1492
 3757W        W 7957   3.256   0.649  12.964  0.0662 -0.0346 -0.0559
 3758W        W 7958   5.616   6.691   1.457 -0.2178  0.0269 -0.0324
 3759W        W 7959   4.164   3.554   3.747 -0.2677  0.0924 -0.1434
 3760W        W 7960   9.436   1.774  12.792  0.0518  0.0415 -0.2170
 3761W        W 7961   2.637   8.419  12.876  0.0352 -0.0429 -0.1301
 3762W        W 7962   4.883   9.691   2.549 -0.1929  0.1930 -0.4143
 3763W        W 7963   1.031   7.699   2.210 -0.0545 -0.1598  0.0993
 3764W        W 7964   0.889   3.744   2.297  0.0104  0.0611  0.3125
 3765W        W 7965   0.437   4.219   3.312 -0.0775  0.0970  0.0158
 3766W        W 7966   5.222   8.644   4.698  0.2254  0.0845  0.2039
 3767W        W 7967   1.582   0.602  13.197 -0.1698  0.2992  0.4892
 3768W        W 7968   5.778   0.671   1.608  0.3202 -0.1802 -0.2286
 3769W        W 7969   8.455   7.036  10.194  0.0537  0.0230  0.1329
 3770W        W 7970   2.994   9.179   9.431  0.1218 -0.1310 -0.2181
 3771W        W 7971   1.868   1.720  11.728 -0.2994 -0.2661  0.0138
 3772W        W 7972   1.653   5.437   4.690  0.1312  0.3032  0.3656
 3773W        W 7973   6.719   0.416  11.648 -0.2229 -0.2297 -0.3348
 3774W        W 7974   7.419   8.413   9.110  0.1136  0.3399  0.0041
 3775W        W 7975   7.236   6.020   0.597  0.2668  0.2453 -0.0169
 3776W        W 7976   0.962   8.808  10.712  0.2794  0.2349  0.1983
 3777W        W 7977   3.244   6.881   3.797 -0.1607 -0.2861 -0.1837
 3778W        W 7978   5.532   2.318   3.009  0.0922  0.0723 -0.4162
 3779W        W 7979   7.389   7.057  11.063 -0.3177 -0.1485  0.0235
 3780W        W 7980   5.279   6.632   0.046  0.1050  0.0144  0.2819
 3781W        W 7981   0.714   1.894  10.822 -0.2266 -0.2748 -0.0150
 3782W        W 7982   9.514   6.926   3.139  0.0375 -0.1348  0.2163
 3783W        W 7983  10.270   3.085   3.805 -0.1219 -0.1768 -0.0156
 3784W        W 7984   7.229   4.783   0.764  0.0362  0.0632 -0.2136
 3785W        W 7985   4.006   6.166   9.722  0.0398  0.1744 -0.0886
 3786W        W 7986   2.055   0.096   4.369 -0.0132  0.1468  0.0756
 3787W        W 7987   2.833   4.993   1.249  0.2808 -0.1348 -0.3281
 3788W        W 7988   6.096   3.281  12.719  0.1645 -0.1004 -0.0252
 3789W        W 7989  10.158   4.375  12.067 -0.1135 -0.0755  0.1230
 3790W        W 7990   5.801   0.004  11.401 -0.0033 -0.1840  0.0653
 3791W        W 7991   7.635   7.377   0.671  0.2372 -0.0286 -0.0630
 3792W        W 7992   3.346   4.686   8.989  0.1395 -0.5062 -0.2175
 3793W        W 7993   5.352  10.289  11.462 -0.2013  0.0667 -0.1217
 3794W        W 7994   8.807   7.895  11.439  0.2960  0.0053  0.2025
 3795W        W 7995   2.096   2.480  10.631 -0.1402  0.0821  0.1741
 3796W        W 7996   4.139   1.893  11.510 -0.1298 -0.0545  0.0304
 3797W        W 7997   8.080   4.434   1.671 -0.2638  0.1304 -0.0830
 3798W        W 7998   4.866   4.077  10.646  0.2391  0.0967  0.0791
 3799W        W 7999   1.524   2.649   0.830  0.0781 -0.4360  0.1251
 3800W        W 8000   5.403   1.878   2.156  0.1829 -0.1391  0.2769
 3801W        W 8001   2.639   5.434   1.461  0.0750 -0.0654 -0.2143
 3802W        W 8002   6.392   5.553   1.063  0.3207 -0.0943 -0.0665
 3803W        W 8003   1.647   3.485  11.656 -0.0579 -0.0091  0.0380
 3804W        W 8004   8.667   0.785  12.352  0.0212  0.0120 -0.4671
 3805W        W 8005   9.591   8.817   0.601  0.1304  0.0394  0.2931
 3806W        W 8006   9.282   8.983  11.821  0.1101  0.3327  0.0585
 3807W        W 8007   4.404   9.072   0.709 -0.0139 -0.0693 -0.0317
 3808W        W 8008   6.812   5.961  11.944  0.1870  0.0541 -0.0128
 3809W        W 8009   8.570   5.269   1.086 -0.0019  0.0506 -0.0395
 3810W        W 8010   7.806   0.205  11.237 -0.0557 -0.0562 -0.2728
 3811W        W 8011   9.613   6.028  12.742  0.2331  0.0575 -0.1353
 3812W        W 8012   1.805   5.977  11.610 -0.3195  0.0091  0.1543
 3813W        W 8013   0.090   2.036   3.233 -0.2220  0.0292  0.3161
 3814W        W 8014   7.216   9.101   4.221  0.3963 -0.1963 -0.0800
 3815W        W 8015   3.794   6.646   9.772 -0.2482 -0.1391 -0.2198
 3816W        W 8016   1.507   7.546   8.803 -0.0618  0.2002 -0.2650
 3817W        W 8017   5.027   7.848   9.572 -0.0172  0.1989 -0.1220
 3818W        W 8018   8.047   6.053  10.878 -0.0731 -0.0492 -0.0386
 3819W        W 8019   4.579   3.845  10.363  0.2533  0.0326  0.2875
 3820W        W 8020   8.887   1.368  10.691 -0.0225 -0.0901 -0.0614
 3821W        W 8021  10.309   9.961  12.004  0.1304 -0.3123  0.0341
 3822W        W 8022   6.372   6.853   0.952  0.1664  0.0969  0.1317
 3823W        W 8023   4.469   0.370   9.561 -0.0201 -0.3982  0.0851
 3824W        W 8024   7.635   7.804   4.019 -0.0164 -0.0488 -0.3572
 3825W        W 8025   6.499   8.658   3.820  0.0578  0.0961  0.1410
 3826W        W 8026   6.429   5.318  11.199  0.2369  0.0002 -0.1478
 3827W        W 8027   4.420   4.334   4.331  0.0505 -0.0563 -0.0686
 3828W        W 8028   7.793   1.591  12.077 -0.0795  0.2570 -0.0627
 3829W        W 8029   7.715  10.252   1.791 -0.1780  0.0749 -0.1787
 3830W        W 8030   4.785   8.259   1.763 -0.3445 -0.1081 -0.1804
 3831W        W 8031   2.577   3.554  10.147 -0.0125  0.0480  0.2214
 3832W        W 8032   8.279   1.562  11.262 -0.0701 -0.2407  0.1041
 3833W        W 8033   9.751   3.260  12.093  0.0458  0.3103 -0.0145
 3834W        W 8034   0.077   4.928  10.897  0.0456 -0.1196 -0.0849
 3835W        W 8035   1.240   0.114   1.935  0.1498 -0.1636 -0.1537
 3836W        W 8036   8.613  10.321   9.465  0.1902  0.0918 -0.0384
 3837W        W 8037  10.010   1.587   2.358  0.1226  0.0271 -0.0024
 3838W        W 8038   7.972   3.329  12.429  0.2581  0.0537 -0.2449
 3839W        W 8039   5.806   9.312   4.240  0.0633  0.2597  0.2795
 3840W        W 8040   1.807   5.634   4.185 -0.0558 -0.4078 -0.1884
 3841W        W 8041  10.211   1.507   1.272  0.3485  0.0049 -0.4038
 3842W        W 8042   3.018   5.369   4.016 -0.1593 -0.0079  0.0036
 3843W        W 8043   9.913   8.328  13.025  0.2107  0.1459 -0.0220
 3844W        W 8044   2.670   5.087  10.069 -0.0315 -0.0529  0.2459
 3845W        W 8045   6.073   5.986  12.397  0.0437 -0.1364  0.0500
 3846W        W 8046  10.019   3.730   0.970  0.1365 -0.0226  0.0930
 3847W        W 8047   0.957   6.514   9.924 -0.0456  0.1844  0.2200
 3848W        W 8048   9.904   2.587   0.375  0.0471  0.2302 -0.2763
 3849W        W 8049   3.749   1.280   9.716 -0.0436 -0.1160  0.0569
 3850W        W 8050   3.906   6.940  11.238 -0.3179  0.2130  0.3795
 3851W        W 8051   7.618   9.987   2.194  0.1136 -0.0261  0.1903
 3852W        W 8052   1.762   3.206   2.269  0.3203  0.0074  0.3166
 3853W        W 8053   4.313   6.581  13.359 -0.4180 -0.2243  0.0273
 3854W        W 8054   3.182   8.859  11.188  0.1198  0.2105 -0.0276
 3855W        W 8055   4.153   4.085   3.423 -0.2022 -0.3280 -0.0556
 3856W        W 8056   6.178   9.122   1.219 -0.0202 -0.1355  0.0427
 3857W        W 8057   4.974   6.863   1.602 -0.2772 -0.1449 -0.3683
 3858W        W 8058   4.782  10.346  10.699 -0.2280  0.1769  0.0018
 3859W        W 8059   1.675   4.912   2.473 -0.0179 -0.1608  0.2136
 3860W        W 8060   5.566   0.328  10.061  0.2553  0.0379 -0.0391
 3861W        W 8061   6.602   2.964  11.747 -0.1435  0.0954  0.2452
 3862W        W 8062   0.564   8.484   8.320  0.1028 -0.3136  0.2896
 3863W        W 8063   6.701   1.605   2.644  0.3352  0.0437 -0.2096
 3864W        W 8064   1.879   2.360   2.840 -0.0144 -0.2599 -0.1751
 3865W        W 8065   5.153   3.860  12.343  0.0299 -0.0513 -0.1571
 3866W        W 8066   6.597   3.461  12.646 -0.0461 -0.0415  0.0633
 3867W        W 8067   4.874   8.822  13.376  0.2020  0.1418 -0.0363
 3868W        W 8068   6.526   2.716   8.989 -0.0780 -0.1264 -0.0892
 3869W        W 8069   9.994   7.314   1.073 -0.3651 -0.1362 -0.3209
 3870W        W 8070   6.614   7.098  10.298 -0.0518 -0.0392 -0.0770
 3871W        W 8071   2.687   6.308   9.248  0.2344 -0.0959  0.1034
 3872W        W 8072   6.609  10.091  11.234  0.0654 -0.3050 -0.3451
 3873W        W 8073   7.617   4.288   3.962  0.0078  0.1711  0.1419
 3874W        W 8074   0.947   9.858   9.391  0.0933 -0.0069  0.1221
 3875W        W 8075   5.404   1.514  12.658 -0.2172  0.1012 -0.3153
 3876W        W 8076   5.173   8.777  11.495  0.0478 -0.3840  0.2004
 3877W        W 8077   4.920   5.194  13.390  0.0384  0.0518 -0.0029
 3878W        W 8078   5.474   4.267   3.031  0.0252  0.1210 -0.0278
 3879W        W 8079   9.397   5.716   0.880  0.2816 -0.1844 -0.1119
 3880W        W 8080   4.769   2.876  10.177  0.1159  0.2146 -0.1076
 3881W        W 8081   3.610   6.748   9.322 -0.1473  0.0049  0.2973
 3882W        W 8082   1.609   8.158  10.370  0.2260 -0.1743  0.1433
 3883W        W 8083   1.061   0.150   4.677 -0.0934  0.1282  0.0705
 3884W        W 8084   2.714   0.367  10.042  0.3704 -0.0061  0.0086
 3885W        W 8085   5.414   9.802  10.432  0.1691 -0.2033 -0.4585
 3886W        W 8086   9.644   8.534   1.646  0.3228 -0.0670 -0.4463
 3887W        W 8087   9.895   8.895   4.738  0.2070 -0.0508  0.0565
 3888W        W 8088   0.297   8.862  12.251 -0.0644 -0.0181  0.0585
 3889W        W 8089   4.994   7.877   1.399  0.1562 -0.2176 -0.0199
 3890W        W 8090   1.408   8.905   0.090 -0.1855  0.2433  0.1327
 3891W        W 8091  10.360   7.792   9.973 -0.0706 -0.2006  0.2953
 3892W        W 8092   7.879   7.696   8.950 -0.0400 -0.2098  0.2711
 3893W        W 8093  10.346  10.421   3.709  0.1904 -0.1343 -0.2066
 3894W        W 8094   2.933   0.357   3.352 -0.0373  0.0568  0.0508
 3895W        W 8095   1.784   1.339   2.610 -0.2692  0.0791 -0.4241
 3896W        W 8096   1.622   4.283   8.849  0.0704  0.1227  0.0514
 3897W        W 8097   6.564   7.434   4.928  0.0875  0.0726  0.2116
 3898W        W 8098   5.535   7.478   4.014 -0.1489 -0.0729  0.3326
 3899W        W 8099  10.269   8.811  11.710  0.2495 -0.3560 -0.2785
 3900W        W 8100   4.054   9.453   0.520 -0.1397 -0.2467  0.1879
 3901W        W 8101   4.794   4.357   2.286 -0.1424 -0.2656 -0.1636
 3902W        W 8102   9.169   1.973   3.420  0.0971 -0.0521 -0.1884
 3903W        W 8103   5.521   5.470   8.915 -0.0322 -0.1354  0.0439
 3904W        W 8104   7.000   3.340   1.627 -0.1271 -0.1839  0.1226
 3905W        W 8105  10.058   8.951   9.589  0.3287 -0.0833  0.2532
 3906W        W 8106   8.895   9.542   4.295  0.1411 -0.0511  0.0875
 3907W        W 8107   9.962   1.603   0.676  0.0683  0.1337  0.1002
 3908W        W 8108   2.029   1.662   2.231 -0.0469 -0.1302 -0.2442
 3909W        W 8109   9.685   1.278   0.925 -0.2374 -0.3464 -0.3004
 3910W        W 8110   3.144   4.106   3.168  0.0146 -0.0380  0.0290
 3911W        W 8111   1.699   2.816  11.452  0.0970  0.3178 -0.0740
 3912W        W 8112   2.591   7.719   2.293 -0.3657 -0.1538 -0.1238
 3913W        W 8113   8.565   2.864   0.248  0.0369 -0.1179 -0.3917
 3914W        W 8114   3.912   4.170   4.319 -0.0511 -0.0998  0.0201
 3915W        W 8115   7.791   6.148   3.660 -0.2988  0.0541  0.3168
 3916W        W 8116   9.833   7.467   3.976 -0.1568 -0.0147  0.4323
 3917W        W 8117   8.952   0.940   0.388  0.1482 -0.0956 -0.2997
 3918W        W 8118   1.962   5.529   0.769  0.0410 -0.1124  0.0640
 3919W        W 8119   0.102   0.330   1.331  0.2354  0.1506 -0.0652
 3920W        W 8120   6.258   4.951  12.343  0.3509 -0.0282 -0.3698
 3921W        W 8121   2.349   5.521  10.204  0.3479  0.1433 -0.0445
 3922W        W 8122   3.662   7.467  11.231 -0.0696 -0.1173  0.1349
 3923W        W 8123   4.073   0.624   2.764 -0.1561  0.0103  0.0099
 3924W        W 8124   0.888   9.663  10.755  0.1505  0.1879 -0.0312
 3925W        W 8125   8.062   5.408   1.788 -0.2422 -0.0054  0.1031
 3926W        W 8126   4.359   3.915  12.714  0.0359  0.1230  0.2074
 3927W        W 8127   7.980   2.120  12.076  0.2449  0.1262 -0.5809
 3928W        W 8128   1.710   5.946   3.275 -0.0672 -0.1666  0.1755
 3929W        W 8129   9.087   5.577  13.342  0.0684 -0.0520 -0.1221
 3930W        W 8130   0.451   8.105   9.373  0.3589  0.2278 -0.2403
 3931W        W 8131   1.487   2.483   1.720  0.0150  0.2235 -0.0795
 3932W        W 8132   9.943   5.935  10.786  0.0862 -0.0257 -0.0062
 3933W        W 8133   0.712   4.723   9.378 -0.1698 -0.1254  0.0489
 3934W        W 8134   7.171   4.881  12.282  0.1799 -0.3058 -0.1331
 3935W        W 8135   2.317   3.947   3.637 -0.1083  0.1870  0.1223
 3936W        W 8136   6.014   9.970   2.753  0.2035 -0.3640  0.0347
 3937W        W 8137   0.163   6.236  12.845 -0.1125  0.0012 -0.0496
 3938W        W 8138   0.514   1.951  11.849 -0.3212 -0.0198  0.1500
 3939W        W 8139   1.776   6.536   8.616  0.0185  0.0111  0.0431
 3940W        W 8140   3.866   5.895   3.075 -0.0586  0.0338 -0.3804
 3941W        W 8141   7.018   5.967   1.459 -0.2016  0.1422 -0.2273
 3942W        W 8142   2.318   9.793  12.470  0.1732  0.2073  0.1761
 3943W        W 8143   9.254   9.266  10.058 -0.1460  0.0623  0.0164
 3944W        W 8144   5.620   8.874  11.660 -0.0035  0.3074 -0.0657
 3945W        W 8145   9.347  10.071   2.714  0.0633  0.0982  0.1364
 3946W        W 8146   4.643   0.615   2.827  0.3239  0.1230 -0.0210
 3947W        W 8147   6.854   2.027   9.487  0.3074 -0.0731 -0.1400
 3948W        W 8148   5.687   5.543  11.889 -0.0275 -0.0469 -0.0737
 3949W        W 8149   2.166   9.161  12.466  0.0089 -0.2331  0.1050
 3950W        W 8150   9.333   0.990   1.270  0.0319 -0.1444  0.2146
 3951W        W 8151   5.163   5.884   2.750  0.0344  0.0353  0.0692
 3952W        W 8152   3.598   6.339   3.129  0.3957 -0.0724 -0.2408
 3953W        W 8153   0.615   7.522  10.931  0.0079 -0.1401 -0.1198
 3954W        W 8154  10.175   5.007   8.394  0.0550  0.3056 -0.1674
 3955W        W 8155   3.476   8.405   2.074  0.1785 -0.4104 -0.0701
 3956W        W 8156   4.084   5.452   3.214  0.0289  0.2104  0.0676
 3957W        W 8157   9.718   9.322   8.997  0.1106  0.1376 -0.3496
 3958W        W 8158   5.599   9.701  12.174 -0.3394  0.2625 -0.0406
 3959W        W 8159   7.596   7.817  10.219  0.1213 -0.0270 -0.1508
 3960W        W 8160   3.894   4.697  13.036  0.0034 -0.1777 -0.0431
 3961W        W 8161  10.314   1.381   0.332 -0.1636  0.2975  0.0288
 3962W        W 8162   8.935   6.605   8.737  0.1600  0.0717 -0.1036
 3963W        W 8163   7.321   8.363  10.031  0.1595 -0.1331  0.1095
 3964W        W 8164   8.581   9.391  10.307  0.4123  0.1363 -0.0153
 3965W        W 8165   8.634   5.198  10.596 -0.1354  0.0728 -0.0520
 3966W        W 8166   3.583   6.406   8.911 -0.0099 -0.0213  0.0221
 3967W        W 8167   1.194   9.825  11.918 -0.0761  0.5757  0.0290
 3968W        W 8168   6.456   7.773   4.205  0.2364 -0.1341 -0.1269
 3969W        W 8169   0.565   5.828   3.950 -0.1331  0.0216  0.1383
 3970W        W 8170   2.737   2.116  12.718  0.0628 -0.2931 -0.1735
 3971W        W 8171   6.412   2.013  10.388  0.0373  0.0633  0.0567
 3972W        W 8172   2.171   4.199   9.936 -0.1420 -0.1396 -0.2082
 3973W        W 8173  10.137   8.246   9.844 -0.1037  0.0350  0.5136
 3974W        W 8174   3.540   5.564  11.807  0.0742  0.0140 -0.1735
 3975W        W 8175   6.076   7.653   0.326 -0.1974 -0.2869 -0.2522
 3976W        W 8176   4.588   0.076  10.004  0.1268  0.1907  0.3050
 3977W        W 8177   3.378   4.395   1.436 -0.3824  0.1170  0.0064
 3978W        W 8178   1.913   9.301   1.577 -0.0603  0.0450  0.0403
 3979W        W 8179   2.840   1.408  12.359  0.0045  0.1803  0.1326
 3980W        W 8180   9.392   8.117  12.392 -0.1001 -0.1332  0.2184
 3981W        W 8181   8.019   5.284   3.788  0.0493 -0.1389  0.2466
 3982W        W 8182   0.956   1.242   9.340  0.0087 -0.2312 -0.1714
 3983W        W 8183   6.624   3.200   1.990 -0.1067  0.1887  0.2631
 3984W        W 8184   8.384   6.417  10.392 -0.0824 -0.2711 -0.0053
 3985W        W 8185   5.350   5.503   0.792 -0.1600  0.0770 -0.0236
 3986W        W 8186   8.561   9.771   1.599 -0.3952 -0.2079 -0.0678
 3987W        W 8187   1.312   8.313  10.899  0.1574 -0.1556  0.2983
 3988W        W 8188   7.267   3.080   1.994  0.0859 -0.2184  0.0471
 3989W        W 8189   5.433   8.192   9.072  0.2409  0.2582 -0.3441
 3990W        W 8190   0.652   6.630   3.398  0.2683  0.0449 -0.1594
 3991W        W 8191   5.062  10.105   2.395 -0.2774  0.1352 -0.0274
 3992W        W 8192   2.214   2.854   1.337 -0.1464 -0.0923 -0.1832
 3993W        W 8193   8.438   7.854   4.518  0.0933  0.2405  0.1325
 3994W        W 8194   4.944   0.648  12.697 -0.1440 -0.0329 -0.0296
 3995W        W 8195   7.171   0.910  12.270 -0.0394  0.2314  0.1490
 3996W        W 8196   8.262   7.898   1.647  0.2109 -0.1486  0.0981
 3997W        W 8197   9.179   3.999   1.190 -0.1388  0.2321  0.1434
 3998W        W 8198   0.583   8.026   0.568  0.0570 -0.0600 -0.0684
 3999W        W 8199   5.251   8.172   3.599 -0.2337 -0.0903 -0.0176
 4000W        W 8200  10.253   4.237   3.214 -0.0892 -0.0756 -0.2116
 4001W        W 8201   1.551   4.810   9.249 -0.0084 -0.1074  0.1458
 4002W        W 8202   8.411   3.865  11.511 -0.1617 -0.0265  0.0081
 4003W        W 8203  10.081   3.153   9.051 -0.0117 -0.4864  0.2065
 4004W        W 8204   7.017   9.594  11.526 -0.0480 -0.1334 -0.1766
 4005W        W 8205   8.015   9.909  10.857  0.1282 -0.2102  0.0874
 4006W        W 8206   1.875   1.579   3.530 -0.2555  0.4000  0.2450
 4007W        W 8207   5.676   0.854   9.365 -0.0096  0.3939 -0.2819
 4008W        W 8208   6.177   9.845  13.307  0.0653  0.3359  0.0417
 4009W        W 8209   3.118   0.735  11.332 -0.0838  0.0251  0.1249
 4010W        W 8210   4.840   2.648   3.197 -0.3358 -0.2225  0.0339
 4011W        W 8211   9.860  10.095  11.586 -0.2225 -0.1595 -0.0393
 4012W        W 8212   7.846   5.987   3.208  0.1129 -0.0919  0.1094
 4013W        W 8213   0.157   9.119   2.377  0.0458 -0.2332 -0.4808
 4014W        W 8214   2.701   4.038   9.505 -0.0437 -0.0680 -0.2613
 4015W        W 8215   7.447  10.249  12.968  0.1019 -0.2748  0.1691
 4016W        W 8216   7.135   6.685   3.688 -0.0038 -0.0030  0.2394
 4017W        W 8217   7.000   3.023   4.305 -0.0647 -0.2678  0.0047
 4018W        W 8218   5.194   6.203  13.048  0.0600  0.1296  0.3046
 4019W        W 8219   6.923   6.279  11.210 -0.1234 -0.2975  0.1524
 4020W        W 8220   5.963   4.243   5.311 -0.1305  0.0524 -0.0727
 4021W        W 8221   4.112   5.234   4.090  0.0433  0.0942 -0.0498
 4022W        W 8222   7.182   1.449  11.533 -0.2042  0.1936  0.0964
 4023W        W 8223   7.056   1.647   1.504 -0.2441  0.4080 -0.1683
 4024W        W 8224   1.141   9.804   1.681 -0.2336  0.0055  0.1998
 4025W        W 8225   5.957   0.517   2.626  0.0610 -0.0803 -0.0815
 4026W        W 8226   8.079   9.060   9.264  0.1571 -0.1505 -0.1943
 4027W        W 8227   8.265   6.554   0.867 -0.0033 -0.0281 -0.1366
 4028W        W 8228   1.767   4.992   8.298 -0.1218 -0.2621  0.0981
 4029W        W 8229   8.196   0.973   1.424 -0.1588 -0.1091 -0.0523
 4030W        W 8230   1.087   0.332  12.091  0.1533  0.1475  0.2802
 4031W        W 8231   4.035   5.530  13.063 -0.1106 -0.0271 -0.0190
 4032W        W 8232   0.106   4.450   8.597  0.0198  0.1021  0.1352
 4033W        W 8233   1.218   2.484   2.209  0.0146  0.1168 -0.2350
 4034W        W 8234   1.855   7.835  12.693 -0.2011  0.0380 -0.0457
 4035W        W 8235   5.764   8.974   2.884 -0.1017 -0.2655 -0.0973
 4036W        W 8236   5.933   8.842   0.225 -0.0927  0.3728  0.1912
 4037W        W 8237   2.562   0.736   0.292  0.0214 -0.2576 -0.3572
 4038W        W 8238   1.875   5.537   9.128 -0.2025  0.0529  0.3237
 4039W        W 8239   8.857   1.281   5.064 -0.1658 -0.0314 -0.3204
 4040W        W 8240   6.201   7.916   0.767 -0.0741 -0.0970 -0.2254
 4041W        W 8241   1.575   5.846   9.674 -0.0853  0.0737 -0.1143
 4042W        W 8242   6.834  10.391   3.003  0.1225 -0.2184 -0.0429
 4043W        W 8243   2.256   6.784   3.252 -0.1603 -0.1113 -0.0737
 4044W        W 8244   9.616   4.886  10.628  0.1227  0.2318  0.3400
 4045W        W 8245   1.380   6.123   8.201 -0.1710 -0.1818 -0.3483
 4046W        W 8246   5.953   7.587   8.572 -0.0220  0.0890 -0.2544
 4047W        W 8247   8.474  10.113  10.883 -0.0793  0.2484  0.3894
 4048W        W 8248   8.086   9.666  13.346 -0.1158 -0.0105 -0.1270
 4049W        W 8249   2.197   7.019   0.658 -0.1349  0.1401 -0.0543
 4050W        W 8250   4.608   2.059  10.209 -0.3359 -0.2106  0.0461
 4051W        W 8251   8.325   8.693   9.006 -0.0188 -0.3448 -0.2009
 4052W        W 8252   1.012   9.076   3.713  0.0340  0.3844  0.2522
 4053W        W 8253   7.744   3.524  10.695 -0.2264 -0.0386  0.0345
 4054W        W 8254   0.026   8.850  11.093 -0.5219 -0.1826  0.0712
 4055W        W 8255   2.753   5.974   0.713 -0.1459 -0.0571 -0.1735
 4056W        W 8256   6.360   7.503   3.808 -0.0247  0.2421  0.3379
 4057W        W 8257   7.333   8.781  10.283  0.4675  0.1098  0.2464
 4058W        W 8258  10.295   3.919   0.596  0.1684  0.1370  0.0051
 4059W        W 8259   2.220   7.857  12.330  0.2299  0.0674 -0.3021
 4060W        W 8260   8.506   5.202   3.882 -0.0355  0.0395 -0.1546
 4061W        W 8261   6.596   5.632  12.332 -0.2197  0.3696  0.2271
 4062W        W 8262   1.659   0.753  11.690 -0.1271 -0.1591  0.1296
 4063W        W 8263   8.983   6.108   0.142  0.0308  0.0401  0.1104
 4064W        W 8264   1.348   5.186   2.033 -0.1571 -0.0131  0.2338
 4065W        W 8265   9.831   2.861   4.654  0.2407  0.1475 -0.1676
 4066W        W 8266   6.032   2.073  13.133 -0.0325 -0.1062  0.0478
 4067W        W 8267   6.724   3.759   1.923 -0.1462  0.0105  0.0682
 4068W        W 8268   4.542   1.579  11.589  0.0881  0.1748 -0.2083
 4069W        W 8269   5.560   4.515   9.024 -0.0066  0.3635 -0.1685
 4070W        W 8270   0.282  10.339   3.868 -0.0681 -0.2664 -0.0391
 4071W        W 8271   8.948   0.463   0.199 -0.2573 -0.0424 -0.1352
 4072W        W 8272   6.798   4.242  11.107  0.0718 -0.2165 -0.1998
 4073W        W 8273   2.028   6.356   3.129 -0.0290 -0.1758 -0.1043
 4074W        W 8274   7.827   7.323   4.502 -0.0589 -0.1785  0.2066
 4075W        W 8275   4.481   6.496   3.086 -0.1251 -0.0283  0.0066
 4076W        W 8276   1.955   8.827   1.729 -0.1619  0.1328  0.2682
 4077W        W 8277  10.095   5.689  11.297 -0.0033 -0.0609  0.0920
 4078W        W 8278   3.873   0.931  11.576  0.3234  0.0635 -0.3075
 4079W        W 8279   4.852   0.552   3.668  0.0148  0.1956  0.1383
 4080W        W 8280   5.021   8.678   3.900  0.2788 -0.1860  0.0674
 4081W        W 8281   2.368   0.687  10.954  0.0786 -0.1957  0.2623
 4082W        W 8282   6.845   5.913   4.503  0.0160 -0.2682  0.5708
 4083W        W 8283   4.923   4.156  12.760 -0.3211  0.1455 -0.0926
 4084W        W 8284   0.544   7.275  10.505  0.1769  0.4586  0.0989
 4085W        W 8285  10.383   9.640   3.043  0.0023  0.0392 -0.0796
 4086W        W 8286   0.124   3.989   8.401 -0.1202  0.1200  0.0964
 4087W        W 8287   1.170   6.151  11.969  0.1353 -0.1561 -0.0711
 4088W        W 8288  10.357   6.231   0.186 -0.0519 -0.2482  0.0115
 4089W        W 8289   7.985   4.983   8.572 -0.0923  0.0970  0.1284
 4090W        W 8290   7.674   5.555   4.447  0.0871  0.1522 -0.1539
 4091W        W 8291   8.223   3.065   9.329  0.0096  0.1002  0.0347
 4092W        W 8292   0.398  10.077   2.146  0.0988 -0.0329  0.2121
 4093W        W 8293   5.143   4.767   8.916  0.3112 -0.0942  0.0612
 4094W        W 8294  10.174   1.750   0.046  0.0545 -0.0166  0.1059
 4095W        W 8295   3.510   2.669   0.763 -0.1763  0.0807 -0.3173
 4096W        W 8296   4.551   6.132   2.567 -0.1730 -0.0350  0.1729
 4097W        W 8297   3.509   0.081  10.722 -0.1336  0.1128 -0.0792
 4098W        W 8298   2.252   3.072   4.004  0.0339 -0.1340  0.0888
 4099W        W 8299   6.115   5.145   9.794 -0.1332  0.0000  0.5122
 4100W        W 8300   6.915   0.009  11.431  0.0382 -0.0070 -0.2903
 4101W        W 8301   5.773   7.205   1.659 -0.1816  0.1485  0.0340
 4102W        W 8302   3.638   2.003   2.556  0.2463  0.1384 -0.0553
 4103W        W 8303   9.915   5.330   8.853  0.0380 -0.1079  0.1992
 4104W        W 8304   7.276   8.583   0.192 -0.0085  0.0303  0.1795
 4105W        W 8305   0.619   3.344  10.060  0.0356  0.3924 -0.5023
 4106W        W 8306   9.742   8.046  10.058  0.2061 -0.0202  0.0172
 4107W        W 8307   3.948   9.317   9.580 -0.2302  0.4087  0.0474
 4108W        W 8308   4.869   3.623  12.704 -0.0574 -0.4023  0.3928
 4109W        W 8309   9.082   1.081   9.643  0.3479 -0.1464  0.0243
 4110W        W 8310   3.388   6.896  12.142 -0.3040 -0.2032  0.0615
 4111W        W 8311   2.867   9.095   1.896  0.0561 -0.0295  0.2072
 4112W        W 8312   7.159   0.758  10.767 -0.1907  0.2105 -0.0336
 4113W        W 8313   1.880   1.722   0.440 -0.2621 -0.2771  0.1569
 4114W        W 8314   8.598   8.608   9.862  0.1313  0.1680 -0.1760
 4115W        W 8315   8.677   2.255   9.533 -0.4908 -0.0960  0.2005
 4116W        W 8316  10.343   2.116   9.467 -0.3881  0.1631 -0.1078
 4117W        W 8317   1.298   7.862   9.759 -0.0575 -0.1327 -0.2156
 4118W        W 8318   4.320   7.139  11.859 -0.1951 -0.3205 -0.2195
 4119W        W 8319   3.597   7.784   9.436  0.0725 -0.0338  0.2155
 4120W        W 8320   9.612   1.540   9.653 -0.3316  0.2422  0.0338
 4121W        W 8321   2.609   7.253   9.518  0.3355 -0.0077 -0.1408
 4122W        W 8322   7.641   8.839   2.444 -0.0211  0.1134  0.1249
 4123W        W 8323   1.821   2.023  12.157  0.1328 -0.1612  0.1787
 4124W        W 8324   2.097   9.791   2.930 -0.4608 -0.0921  0.0822
 4125W        W 8325   0.758   3.194   1.496  0.1349 -0.0597  0.0255
 4126W        W 8326   9.095   3.516   1.119  0.2164  0.1107 -0.1052
 4127W        W 8327   1.296   9.020  12.651  0.2079  0.1100 -0.1339
 4128W        W 8328   6.532  10.152  11.688  0.2021  0.0164 -0.1752
 4129W        W 8329   9.834   0.220  12.332 -0.0915 -0.0294  0.1718
 4130W        W 8330   9.412   1.517   1.251  0.2012 -0.0302  0.0270
 4131W        W 8331   2.594   5.964  12.970  0.0022  0.2345 -0.0944
 4132W        W 8332   7.749   8.544   3.312  0.3783 -0.1728  0.1646
 4133W        W 8333  10.393   7.367  11.532 -0.1886 -0.0059  0.0663
 4134W        W 8334   5.266   6.182  10.754 -0.3140  0.3276  0.0341
 4135W        W 8335   8.223   6.321  12.833 -0.0106  0.0847 -0.1498
 4136W        W 8336   6.848   2.937   0.856  0.2081 -0.1097 -0.1595
 4137W        W 8337   2.353   4.859  12.690  0.2534  0.0074 -0.1875
 4138W        W 8338   4.564   8.383   0.698  0.2393 -0.0834 -0.1287
 4139W        W 8339   3.819   7.526   8.196 -0.0554  0.0123 -0.0997
 4140W        W 8340   4.413   5.862   3.687 -0.1338  0.0983 -0.1261
 4141W        W 8341   0.543   3.638   1.757 -0.0512 -0.0397  0.4027
 4142W        W 8342   3.145   6.510   1.564 -0.2568  0.1441 -0.1139
 4143W        W 8343   5.504   0.388  11.006 -0.1805  0.2410  0.2739
 4144W        W 8344   6.102   2.728  11.821 -0.0985 -0.2454 -0.0991
 4145W        W 8345   1.337   5.947   0.732 -0.2531 -0.0630 -0.0038
 4146W        W 8346   0.978   6.698   1.447  0.0345  0.0516 -0.0320
 4147W        W 8347   0.253   8.141   3.284  0.2843  0.1692  0.2884
 4148W        W 8348   6.420   8.105   1.941 -0.0485  0.2708  0.1462
 4149W        W 8349   6.717   9.074   3.112  0.0278 -0.0277 -0.1745
 4150W        W 8350   7.290   8.540  10.719 -0.0862  0.2911  0.3317
 4151W        W 8351   1.030   8.834   4.150 -0.0031 -0.1728 -0.1855
 4152W        W 8352   4.423   2.463  13.363  0.1090  0.0421  0.2487
 4153W        W 8353   2.622   4.924   3.121 -0.0532  0.0721  0.1429
 4154W        W 8354   1.236   1.137  10.188 -0.1202  0.0695 -0.2468
 4155W        W 8355   5.145   6.270   3.398 -0.2984 -0.1976  0.1660
 4156W        W 8356   8.057   6.977  10.554  0.1945  0.1078 -0.0502
 4157W        W 8357   5.105   9.932   1.393  0.0628  0.1249 -0.1232
 4158W        W 8358   6.943   5.908  12.530  0.0034  0.1618 -0.2147
 4159W        W 8359   3.366   4.883  12.825  0.1750  0.2422  0.1881
 4160W        W 8360   5.786   1.057   0.177 -0.0908 -0.0525 -0.0630
 4161W        W 8361   6.485   7.816  12.542  0.0670  0.0230 -0.1562
 4162W        W 8362   0.283   4.850   0.112  0.0616  0.2190  0.0249
 4163W        W 8363   2.672   6.858   9.201  0.2049 -0.0233 -0.2163
 4164W        W 8364   3.624   7.304  10.606 -0.0305  0.2118 -0.3097
 4165W        W 8365   2.367   2.420  11.745  0.1186  0.0218  0.2345
 4166W        W 8366   3.981  10.406   1.553 -0.0456 -0.0474  0.2739
 4167W        W 8367   8.909   1.630  12.907  0.1802  0.0517  0.0262
 4168W        W 8368   5.870   7.127   9.912 -0.0561  0.0457 -0.2959
 4169W        W 8369   7.446   3.739   4.280  0.0180 -0.2349  0.0255
 4170W        W 8370   0.639   3.324   3.004  0.2446  0.1803  0.0820
 4171W        W 8371   2.263   3.348   8.827  0.2418 -0.4056 -0.2207
 4172W        W 8372   9.767   1.229   1.424  0.2406 -0.0243  0.1092
 4173W        W 8373   0.275   9.378   1.441 -0.0190 -0.3520 -0.0558
 4174W        W 8374   0.503   9.297   2.726  0.2558  0.1490 -0.0034
 4175W        W 8375   2.767   3.429   1.656 -0.1102 -0.0896  0.0720
 4176W        W 8376   6.629   4.764  13.392 -0.1934  0.1037  0.1735
 4177W        W 8377   0.474  10.168  10.103  0.1800  0.0641  0.0427
 4178W        W 8378   7.967   1.971   4.327  0.0993  0.2854  0.3741
 4179W        W 8379   7.469   6.188  12.698 -0.0903 -0.1916 -0.1077
 4180W        W 8380   8.672   6.756  11.215 -0.0287 -0.0169  0.4081
 4181W        W 8381   4.163   1.054  10.033  0.0491 -0.0389  0.1211
 4182W        W 8382   9.242   8.624   0.308 -0.1391 -0.4152  0.0395
 4183W        W 8383   1.374   0.591  10.575 -0.2230  0.1592  0.0355
 4184W        W 8384   0.195   3.530   9.335  0.1206 -0.3006  0.0125
 4185W        W 8385   1.968   1.757   2.845 -0.3042  0.0680  0.1830
 4186W        W 8386  10.326  10.181  10.119 -0.0371  0.0761  0.0587
 4187W        W 8387   9.103   6.195   9.898  0.0989 -0.0932 -0.1881
 4188W        W 8388   7.556   5.717   3.658 -0.2712 -0.1682  0.2138
 4189W        W 8389   1.337   0.059  11.333  0.0682  0.0149 -0.1293
 4190W        W 8390   2.378   2.734   0.091  0.0070 -0.0091  0.1100
 4191W        W 8391   9.302   4.865  10.225  0.3408  0.1515  0.0914
 4192W        W 8392   6.089   1.301  10.481  0.0297 -0.1242 -0.0058
 4193W        W 8393   6.073   9.086   3.272  0.1898 -0.0560  0.2469
 4194W        W 8394   8.270   5.637  10.786 -0.1040 -0.1357 -0.1260
 4195W        W 8395   6.772   1.837   1.908 -0.0744 -0.2228 -0.0725
 4196W        W 8396   6.689   0.933   9.154  0.3964 -0.0109 -0.1227
 4197W        W 8397   0.375   9.795   3.037  0.0325 -0.3033  0.0717
 4198W        W 8398   1.419   0.665   0.954  0.2527  0.1683 -0.2477
 4199W        W 8399   4.280   6.059  10.683 -0.1202 -0.1340 -0.1798
 4200W        W 8400   0.690   7.534   1.886  0.0531  0.2354 -0.0407
 4201W        W 8401   4.745   5.549   2.144 -0.1083  0.1058 -0.0982
 4202W        W 8402   9.078   7.596   8.391  0.0365 -0.1288 -0.1177
 4203W        W 8403   1.689  10.035  10.839  0.1995  0.2124 -0.1271
 4204W        W 8404   4.526   7.371   4.849  0.0650 -0.3740  0.0834
 4205W        W 8405   7.361   9.825  11.216 -0.3493 -0.0171  0.1042
 4206W        W 8406   6.465   9.125   1.659 -0.0787 -0.1693  0.1880
 4207W        W 8407   1.861   6.896  10.554 -0.3097 -0.0829  0.2618
 4208W        W 8408   8.179   5.808   2.818 -0.2317  0.2309  0.1495
 4209W        W 8409   2.740   0.730  12.697  0.0235 -0.2557  0.1908
 4210W        W 8410   9.293   2.614   1.061  0.1700  0.3179  0.1996
 4211W        W 8411   6.272   7.735   1.641  0.0381  0.2472 -0.1863
 4212W        W 8412   9.615   0.459   3.723  0.2375  0.1107  0.2373
 4213W        W 8413   6.155   3.008  10.353  0.2309 -0.2152  0.0038
 4214W        W 8414   6.410   9.839  10.114 -0.0238 -0.0145 -0.0700
 4215W        W 8415   0.323   3.621  12.195 -0.1122 -0.1414 -0.2048
 4216W        W 8416   3.258   9.580  11.208  0.1970 -0.2887  0.1269
 4217W        W 8417  10.010   1.022  13.066  0.1784  0.0305 -0.0866
 4218W        W 8418   0.661   6.055   2.151 -0.0961  0.1287 -0.1301
 4219W        W 8419   6.764   9.787   2.003  0.2463  0.1645 -0.0123
 4220W        W 8420   3.616   9.688   0.366 -0.0087  0.0430  0.2150
 4221W        W 8421   2.052   2.647   0.469  0.1429 -0.0977 -0.2071
 4222W        W 8422   4.113   5.546   8.952 -0.3418  0.1812  0.0082
 4223W        W 8423   9.127   8.596  11.461 -0.0356  0.0143 -0.3157
 4224W        W 8424   6.784   1.030   2.187  0.0386 -0.1406 -0.0117
 4225W        W 8425   5.210   8.940  10.480  0.0502 -0.3690  0.1810
 4226W        W 8426   8.032   4.002   9.287  0.1552 -0.2297 -0.0119
 4227W        W 8427   6.837   7.974   9.959  0.2616 -0.1371 -0.0812
 4228W        W 8428   6.364   8.585   3.087  0.3950  0.0222 -0.1186
 4229W        W 8429   1.968   5.180   1.849  0.0343 -0.0603  0.2049
 4230W        W 8430   0.179   3.157  12.481  0.0095 -0.3477  0.2121
 4231W        W 8431   6.165   6.872  10.211  0.0054 -0.3711  0.0381
 4232W        W 8432   4.460   5.702  10.364  0.0831 -0.1945 -0.1965
 4233W        W 8433   4.550   3.146  11.126  0.4243 -0.0668  0.1867
 4234W        W 8434   2.223  10.445   0.542 -0.3353 -0.0879  0.1783
 4235W        W 8435   3.547   5.834   1.364 -0.2580 -0.0869 -0.1028
 4236W        W 8436   1.961   5.520   9.842 -0.2464  0.1481  0.2779
 4237W        W 8437   8.084   3.457   2.507  0.1018  0.1508  0.2983
 4238W        W 8438   0.427   2.411   8.790  0.1190 -0.2247  0.0949
 4239W        W 8439   0.117   7.402  10.187  0.1844  0.0642 -0.0176
 4240W        W 8440   6.009   7.242   3.143 -0.1021  0.1060 -0.4762
 4241W        W 8441   8.654   7.955  11.968 -0.1922 -0.0936 -0.1329
 4242W        W 8442   7.038   5.196   0.992  0.0818  0.1960  0.2379
 4243W        W 8443  10.311   1.817   8.733 -0.1943  0.4553  0.1657
 4244W        W 8444   8.039   0.506  10.010 -0.0365 -0.1358 -0.2275
 4245W        W 8445   9.635   2.239   1.409  0.1697  0.0761  0.0862
 4246W        W 8446   3.815   2.449  11.673 -0.1396 -0.2166 -0.2491
 4247W        W 8447   7.203   5.805  11.664 -0.0071  0.0959  0.0359
 4248W        W 8448   0.394   2.193  10.110 -0.1747 -0.1315 -0.3231
 4249W        W 8449   1.265   4.055   2.133 -0.1547  0.1032 -0.0574
 4250W        W 8450   3.806   2.691  12.709 -0.1217  0.0283  0.0599
 4251W        W 8451   7.354   0.058  11.142  0.1193 -0.0147  0.1297
 4252W        W 8452   9.175   3.397   2.107 -0.0400 -0.1449 -0.0145
 4253W        W 8453   2.130   9.718  11.506 -0.1269 -0.2793 -0.1894
 4254W        W 8454   6.716   3.786  10.762 -0.0957  0.0943 -0.2149
 4255W        W 8455   5.097   0.798  12.098 -0.4149  0.1521  0.2432
 4256W        W 8456  10.458   6.855   2.157 -0.0845 -0.0909 -0.1936
 4257W        W 8457   3.693   1.935   3.028  0.0796  0.0401  0.0132
 4258W        W 8458   7.381   2.748  12.352 -0.1749  0.3441  0.1417
 4259W        W 8459   0.056   7.383  12.774 -0.0108  0.1289  0.3364
 4260W        W 8460   9.125   8.886  10.947 -0.2456 -0.1472 -0.3716
 4261W        W 8461  10.130   4.792   4.811 -0.1701 -0.0986  0.0141
 4262W        W 8462   8.490   5.478   5.368  0.3037  0.1351  0.3187
 4263W        W 8463   6.051   6.545   2.371 -0.0544 -0.0805  0.2291
 4264W        W 8464   7.408   5.503  10.188  0.0952 -0.0282 -0.0502
 4265W        W 8465   7.951   0.023  11.684  0.3128  0.3080  0.3103
 4266W        W 8466   9.633   0.628   8.426  0.2491  0.0174  0.1258
 4267W        W 8467   2.174   8.415   3.930 -0.1518 -0.1708 -0.4567
 4268W        W 8468   2.975   3.533   0.411 -0.2288  0.3510 -0.2267
 4269W        W 8469   8.597   3.142  11.851 -0.0813  0.2460 -0.2330
 4270W        W 8470   9.005   2.309   1.527  0.1813 -0.3436  0.0129
 4271W        W 8471   1.682   2.897   1.404  0.0351 -0.1678 -0.0920
 4272W        W 8472   9.233   2.233   2.937 -0.1664  0.0233 -0.4101
 4273W        W 8473   0.150   0.157  12.013 -0.3880 -0.1299 -0.2770
 4274W        W 8474   5.577   5.928   0.893 -0.0072 -0.2292  0.0816
 4275W        W 8475   4.037   0.683   0.503 -0.0833 -0.0429 -0.3922
 4276W        W 8476   3.208   6.626   3.337 -0.1095  0.2283 -0.3920
 4277W        W 8477   0.207   6.091   2.600 -0.6209  0.0159 -0.0087
 4278W        W 8478   9.593   1.868   2.220  0.2464  0.2210  0.1295
 4279W        W 8479   8.443   3.546  12.863  0.2074 -0.2919 -0.1098
 4280W        W 8480   0.569   6.975   1.983 -0.0242  0.0903 -0.2410
 4281W        W 8481   4.502   8.259  12.236  0.0876  0.0557 -0.0953
 4282W        W 8482   1.251   9.290   4.769 -0.2455  0.0459  0.2772
 4283W        W 8483   9.053   5.500   2.745 -0.1715 -0.3824  0.1770
 4284W        W 8484   2.292  10.417  13.293 -0.4693 -0.2325  0.1184
 4285W        W 8485   6.119  10.445  11.769  0.1775 -0.0968  0.2659
 4286W        W 8486   7.372   1.901  11.311  0.2071 -0.1170  0.4148
 4287W        W 8487   5.422   2.253   0.922 -0.0462  0.0990 -0.0558
 4288W        W 8488   5.348  10.125  12.022  0.1128  0.0870 -0.2993
 4289W        W 8489   6.829   4.695   3.529  0.1573  0.0198  0.0504
 4290W        W 8490   1.729   4.947   0.466 -0.1050 -0.4320 -0.1140
 4291W        W 8491   8.375   1.922   9.845  0.1083 -0.0133 -0.1425
 4292W        W 8492   2.004   4.366  11.894  0.1160 -0.1784 -0.1693
 4293W        W 8493   7.006   1.097   9.655  0.1031 -0.2491  0.0461
 4294W        W 8494   7.697   5.895   9.120  0.1333 -0.0619  0.2929
 4295W        W 8495   2.187   0.386   9.123 -0.0255  0.1545  0.2502
 4296W        W 8496   1.507   2.337  11.380  0.1210 -0.0581  0.1223
 4297W        W 8497   4.071   4.228   9.491 -0.1954 -0.0535  0.1268
 4298W        W 8498   3.287   5.832   0.387 -0.5968 -0.0126  0.0994
 4299W        W 8499   8.441   8.424   9.416 -0.2247 -0.1168  0.0430
 4300W        W 8500   5.935   5.130   2.624  0.2418 -0.0109 -0.3516
 4301W        W 8501   5.356   6.726   3.145 -0.4233 -0.0146  0.1435
 4302W        W 8502   7.646   8.221  11.854 -0.1303  0.4170  0.1948
 4303W        W 8503   2.530   0.594   1.747 -0.2112  0.0709  0.1320
 4304W        W 8504   3.297   7.523   9.095 -0.0754  0.1805  0.0097
 4305W        W 8505   4.072   1.562   2.938  0.0735  0.0337 -0.0189
 4306W        W 8506   6.741   2.202  12.037  0.0317  0.1511  0.0915
 4307W        W 8507   3.626   2.193  10.925  0.0568  0.0591  0.3359
 4308W        W 8508   2.367   6.028  10.367 -0.0955  0.2988 -0.2126
 4309W        W 8509   7.353   0.689   1.000 -0.2662 -0.1662 -0.1183
 4310W        W 8510   2.236   7.471  12.735  0.1288  0.0229  0.3962
 4311W        W 8511   1.630   4.059   0.226  0.3455  0.1228  0.0796
 4312W        W 8512   5.353   8.851   2.363  0.0442 -0.0280  0.1052
 4313W        W 8513   6.077   5.889   2.218 -0.2411 -0.0153  0.0273
 4314W        W 8514   9.732   7.360  10.446  0.1114 -0.0599  0.0721
 4315W        W 8515   9.147   5.890   2.347 -0.1712  0.6109  0.1195
 4316W        W 8516   2.544   5.665   3.837 -0.0130 -0.1380  0.0869
 4317W        W 8517   7.069   4.670  10.865  0.1538  0.1304 -0.1128
 4318W        W 8518   6.986   4.863  11.765 -0.0517 -0.1340 -0.1318
 4319W        W 8519   2.013   3.806   1.182  0.1045  0.0835  0.1432
 4320W        W 8520   7.270   5.096  10.904 -0.3113  0.1551  0.0480
 4321W        W 8521   7.933   2.647  12.347 -0.2492 -0.1650 -0.1277
 4322W        W 8522   3.590   1.890  13.296 -0.0001  0.0504 -0.1215
 4323W        W 8523   1.338   3.744   2.577 -0.3402 -0.1231  0.0503
 4324W        W 8524   6.938   1.561   0.236  0.0007 -0.0195  0.1246
 4325W        W 8525   4.043   8.103   0.793  0.1515 -0.5754 -0.0584
 4326W        W 8526   2.745   3.798   0.767 -0.3584 -0.0563 -0.1359
 4327W        W 8527   6.539   1.354  11.649 -0.1987 -0.0376  0.1094
 4328W        W 8528  10.151   7.045  12.679 -0.1314  0.0063 -0.2047
 4329W        W 8529  10.136   6.151   9.210  0.1395  0.1230 -0.0178
 4330W        W 8530   9.843   7.029  10.816  0.1287  0.0008  0.1664
 4331W        W 8531   8.056   4.290  12.794 -0.0734  0.1208 -0.0483
 4332W        W 8532  10.392   8.819  10.609  0.0413 -0.0032  0.0863
 4333W        W 8533   9.776   3.747  11.306  0.3067 -0.0186 -0.1405
 4334W        W 8534   3.552   3.371  10.744  0.1774  0.0495 -0.0945
 4335W        W 8535   4.244   5.410  12.514 -0.1007 -0.1219 -0.0311
 4336W        W 8536   5.168   6.264  10.204 -0.1150  0.1945  0.0551
 4337W        W 8537   4.747   4.585   3.958  0.0769  0.1558  0.0102
 4338W        W 8538   7.641   7.325  10.060 -0.0242  0.1481  0.0122
 4339W        W 8539  10.481   0.204  11.283 -0.3285 -0.4960  0.0199
 4340W        W 8540   9.160   3.556   9.914 -0.3823 -0.1405  0.0886
 4341W        W 8541   3.054   1.970  12.380 -0.0309 -0.3061 -0.1900
 4342W        W 8542   5.537   0.077  13.348  0.0359 -0.0517 -0.0042
 4343W        W 8543   6.496   3.845   0.140  0.2271  0.0717 -0.1086
 4344W        W 8544   9.901   9.197  11.478  0.1999 -0.1321 -0.4326
 4345W        W 8545   0.351   6.358   1.220 -0.1511  0.4981  0.0556
 4346W        W 8546   6.052   2.406  10.385  0.0016 -0.0255  0.1099
 4347W        W 8547   9.445   0.829  11.932 -0.2761 -0.2261 -0.0156
 4348W        W 8548   3.592   8.659   1.073  0.1532 -0.0119 -0.0159
 4349W        W 8549   2.004   3.258  11.350 -0.1499 -0.0188 -0.3219
 4350W        W 8550   9.550  10.477   2.357  0.0699  0.0790  0.0304
 4351W        W 8551   1.382   4.138   2.848 -0.0029  0.0381  0.1471
 4352W        W 8552   0.371   8.527   1.889 -0.3256 -0.0607  0.0572
 4353W        W 8553   7.949  10.267  13.070 -0.2891  0.1219  0.0116
 4354W        W 8554   4.403   0.901   0.159 -0.0331  0.1354  0.1587
 4355W        W 8555   7.770  10.278   9.583  0.0842 -0.3199  0.2113
 4356W        W 8556   2.266   5.542  12.987 -0.0182 -0.0735  0.0966
 4357W        W 8557   9.151   9.999   0.251  0.2286 -0.1477 -0.1768
 4358W        W 8558   9.390   9.650  10.482 -0.1531 -0.1624 -0.0680
 4359W        W 8559   5.866   9.525   2.816  0.0932  0.2806  0.0442
 4360W        W 8560   4.557  10.155   2.623  0.4379 -0.0824  0.2649
 4361W        W 8561   3.153   9.355   2.798 -0.0568 -0.1680 -0.2084
 4362W        W 8562   4.961   4.708   1.498  0.0561 -0.0775 -0.1049
 4363W        W 8563   0.380   3.332  11.029 -0.1331  0.0203  0.1134
 4364W        W 8564  10.333   4.494  10.736 -0.2096 -0.2639  0.0454
 4365W        W 8565   1.851   9.014   8.501  0.2519  0.0373  0.3126
 4366W        W 8566   3.450  10.114   3.409 -0.3193  0.0450 -0.1186
 4367W        W 8567   6.724   6.786  11.151  0.3949  0.0802  0.1230
 4368W        W 8568   7.418   7.247   1.559  0.4932  0.1833  0.0387
 4369W        W 8569   3.083   2.928   1.442  0.1560 -0.2382 -0.3187
 4370W        W 8570   2.656   4.314  13.337 -0.3485 -0.0068 -0.2577
 4371W        W 8571   6.856   5.772  13.358 -0.0651  0.0066  0.2537
 4372W        W 8572   7.797   5.130  10.943  0.0001 -0.1082  0.0613
 4373W        W 8573   4.828   4.837   1.013 -0.1460 -0.2145  0.1862
 4374W        W 8574  10.495   1.852   4.165  0.0813  0.0873  0.4133
 4375W        W 8575   8.679  10.264   2.266 -0.1435  0.1585  0.1079
 4376W        W 8576   1.061   0.937   2.215  0.1122  0.2042 -0.1544
 4377W        W 8577   6.784   4.266   9.886 -0.0723  0.0704 -0.0025
 4378W        W 8578   7.634   4.812  12.346  0.0468 -0.1584 -0.1811
 4379W        W 8579   5.825   4.671   0.862 -0.2515  0.3911  0.0764
 4380W        W 8580   2.945   4.406  10.413  0.0777 -0.0513 -0.2117
 4381W        W 8581   9.284   1.334  12.996 -0.2376 -0.2067 -0.0363
 4382W        W 8582   5.581  10.280  10.313  0.1434  0.2234 -0.1624
 4383W        W 8583   1.619   7.421  13.046 -0.0967 -0.1017  0.3121
 4384W        W 8584   2.029   2.921  11.810 -0.2191 -0.1184  0.0145
 4385W        W 8585   1.366   8.320  13.271 -0.3127 -0.2518 -0.1919
 4386W        W 8586   8.895   1.108   3.232  0.2106 -0.0253  0.1056
 4387W        W 8587   4.809   1.321   3.212  0.0925 -0.1294  0.2012
 4388W        W 8588   6.851   2.875   4.892  0.2051  0.0938 -0.3465
 4389W        W 8589   1.024   5.459   1.741  0.2109 -0.0968 -0.1249
 4390W        W 8590   5.630   0.865  10.708 -0.2030  0.0335  0.2174
 4391W        W 8591   5.063   4.186   8.368 -0.1982 -0.0406 -0.0652
 4392W        W 8592   4.734   0.083  11.357 -0.0420  0.3777 -0.0817
 4393W        W 8593   4.417   8.720   0.351  0.2018  0.4464  0.1309
 4394W        W 8594   6.284   9.852  10.959  0.0584 -0.0992  0.0858
 4395W        W 8595   1.841   6.732   0.948 -0.0854 -0.0315 -0.3079
 4396W        W 8596   9.447   5.965   0.030 -0.1697  0.4595  0.4352
 4397W        W 8597   1.538   8.918  11.636  0.0510  0.1233  0.1379
 4398W        W 8598   8.199   1.498   2.078 -0.2388 -0.0851  0.0375
 4399W        W 8599   3.559   9.157   1.938 -0.1352 -0.1599 -0.1226
 4400W        W 8600   6.809  10.106   9.908 -0.0399  0.1984 -0.0004
 4401W        W 8601   6.436   1.357   3.463 -0.1666 -0.2186 -0.2107
 4402W        W 8602   6.029   3.910   2.112 -0.1248 -0.0540 -0.2336
 4403W        W 8603  10.376   3.437   0.321 -0.1875  0.1635  0.2225
 4404W        W 8604   6.719   6.689   4.206  0.2193  0.0609 -0.0611
 4405W        W 8605   4.462   9.563  10.635 -0.0733 -0.2517  0.1438
 4406W        W 8606   8.127   0.118   3.192 -0.2417  0.1370 -0.1008
 4407W        W 8607   0.982   6.672   2.394 -0.1138  0.0115 -0.4518
 4408W        W 8608   1.085   7.074   1.983  0.1487  0.2247  0.2457
 4409W        W 8609   9.647   6.648  10.518 -0.0195  0.2322 -0.2159
 4410W        W 8610   3.741   0.720   1.243 -0.1006  0.0494  0.0436
 4411W        W 8611   0.041  10.247   0.700 -0.0514  0.1991 -0.0019
 4412W        W 8612   9.840   4.031   3.390 -0.0347 -0.0104  0.0084
 4413W        W 8613   2.957   9.800  10.936 -0.0273 -0.3415  0.1452
 4414W        W 8614   7.462   1.633   2.466 -0.1738 -0.2132  0.0816
 4415W        W 8615   4.906   8.002  12.591 -0.1101 -0.0841  0.4706
 4416W        W 8616   9.414   5.828   3.190  0.3302 -0.0552 -0.3421
 4417W        W 8617   8.662   6.530   4.080  0.1421  0.3047  0.0803
 4418W        W 8618   0.530   5.604   8.277 -0.1593  0.1799  0.1182
 4419W        W 8619   7.142   8.915   2.291  0.2602  0.2471 -0.1344
 4420W        W 8620   1.391   8.643  12.202  0.1340 -0.1419 -0.2658
 4421W        W 8621   2.698   9.177  12.353  0.2301  0.0321  0.3774
 4422W        W 8622   2.242   8.001   8.324 -0.1260  0.0260  0.0442
 4423W        W 8623   1.181   2.807   2.738 -0.0942  0.1248 -0.0917
 4424W        W 8624   0.923   0.656   0.956  0.1381  0.2357 -0.1217
 4425W        W 8625   5.581   5.149  12.692  0.0148  0.1022  0.0938
 4426W        W 8626   7.858   7.160   0.252  0.0981  0.2903  0.3720
 4427W        W 8627   1.434   5.149   2.889  0.1218 -0.2075  0.2259
 4428W        W 8628   2.424   4.672   1.227  0.0263  0.0405 -0.1730
 4429W        W 8629   1.767   0.892   2.333 -0.1457 -0.0391 -0.3558
 4430W        W 8630   3.622   3.173  12.628 -0.2649 -0.1897 -0.1000
 4431W        W 8631   5.313   9.087   1.743 -0.3419  0.0617  0.0999
 4432W        W 8632   1.033   4.162   0.970  0.0943 -0.1279  0.1749
 4433W        W 8633   4.603   7.922   1.087 -0.0844  0.1246 -0.0316
 4434W        W 8634   4.779   4.044   4.204 -0.0672  0.2328 -0.1256
 4435W        W 8635   1.102   3.153   0.023  0.0181 -0.1628  0.0753
 4436W        W 8636   9.708   3.597   9.235  0.3067  0.0892  0.0219
 4437W        W 8637   4.414   2.505   1.820  0.1066 -0.1839  0.0390
 4438W        W 8638   0.297   7.798   2.903 -0.0774 -0.0393  0.1631
 4439W        W 8639   4.412   6.643  10.603  0.0757 -0.1898 -0.2858
 4440W        W 8640   1.020   5.942   1.799  0.0625  0.2777  0.3339
 4441W        W 8641   3.373   4.380  12.141 -0.0192 -0.0468  0.2257
 4442W        W 8642   1.469   7.647   1.936  0.1220 -0.3261 -0.0049
 4443W        W 8643   5.608   3.189   0.178  0.2783  0.1379  0.1653
 4444W        W 8644   5.911   6.033   9.564  0.0265  0.2448 -0.0359
 4445W        W 8645   0.333   7.515   0.658 -0.1940  0.2859  0.2596
 4446W        W 8646   9.394   7.930   9.780  0.2534  0.1721 -0.0975
 4447W        W 8647   8.630   6.187  13.136  0.2063 -0.0015  0.0974
 4448W        W 8648   4.060   6.959   9.305  0.0783  0.1881  0.1613
 4449W        W 8649   0.628   8.583  12.744 -0.2701 -0.3064  0.1011
 4450W        W 8650   2.231   3.181  12.873 -0.0358  0.0880  0.0608
 4451W        W 8651   6.260   6.595  13.135 -0.1650 -0.1150 -0.0629
 4452W        W 8652   4.273   6.153  12.017  0.1679 -0.0872 -0.0590
 4453W        W 8653   7.605   7.883  13.138 -0.0304 -0.1222 -0.1537
 4454W        W 8654   7.309   6.163   9.321 -0.0633 -0.1062 -0.2670
 4455W        W 8655   8.383   4.800   1.429 -0.1266  0.0439  0.4009
 4456W        W 8656   7.940   3.892   4.189  0.1516  0.4304 -0.1373
 4457W        W 8657   2.419   0.450   1.233 -0.2650 -0.1736 -0.0174
 4458W        W 8658   1.654   7.923  13.127 -0.1040 -0.1709 -0.1187
 4459W        W 8659   5.996   3.876   9.465  0.0037 -0.4213 -0.1180
 4460W        W 8660   3.287   2.490  10.592 -0.0664  0.3215  0.1770
 4461W        W 8661   2.471   7.668   0.390  0.1030 -0.2293  0.0628
 4462W        W 8662   3.401   2.025   9.805  0.0165 -0.0320 -0.2981
 4463W        W 8663   2.421   6.693  11.517  0.1100  0.0983 -0.1424
 4464W        W 8664   9.001   8.402   3.080  0.0728 -0.1215 -0.2429
 4465W        W 8665   0.356   1.870  10.468  0.1591 -0.1523 -0.1834
 4466W        W 8666   9.760   6.906  11.904 -0.0483 -0.0885  0.0395
 4467W        W 8667   7.153   1.920   3.287  0.1016 -0.1320 -0.0271
 4468W        W 8668   2.380   0.221  11.630  0.1003  0.1842  0.1758
 4469W        W 8669   2.660   6.924  10.088  0.0493  0.0726 -0.0875
 4470W        W 8670   0.928   1.202  12.281  0.2612  0.2565  0.1119
 4471W        W 8671   8.176  10.438   2.722  0.0522  0.2574 -0.1007
 4472W        W 8672   8.543   5.575   4.699 -0.0586 -0.2868  0.3501
 4473W        W 8673   9.107   8.528   3.558  0.5836  0.0612  0.1543
 4474W        W 8674   6.234   4.474  11.089 -0.0314  0.0522 -0.0122
 4475W        W 8675   2.011   4.588   2.645  0.1518 -0.0426  0.1899
 4476W        W 8676   6.241   5.199   4.550 -0.0853  0.1419 -0.1719
 4477W        W 8677   3.366   3.705   1.617 -0.3113 -0.0523  0.0287
 4478W        W 8678   3.302   8.445   3.152 -0.0183  0.0771  0.1187
 4479W        W 8679   5.795   3.070   4.114  0.0158 -0.1424 -0.0306
 4480W        W 8680   2.529   0.115   2.028  0.1067  0.0213  0.3680
 4481W        W 8681   9.066   9.521   1.538  0.1166 -0.0798  0.0549
 4482W        W 8682   8.494   2.577  11.147 -0.0148  0.0183 -0.1439
 4483W        W 8683   9.862   6.599   1.325  0.0168  0.1127  0.1260
 4484W        W 8684   3.467   7.430   4.593  0.1896  0.0607  0.0294
 4485W        W 8685   4.879   8.193  10.311 -0.1650 -0.2425  0.1216
 4486W        W 8686   6.987   3.812   3.902  0.2331 -0.0058 -0.1625
 4487W        W 8687   7.308   4.313   3.467  0.0345 -0.0965 -0.3245
 4488W        W 8688   8.080   4.435  10.626  0.2662  0.1715 -0.2239
 4489W        W 8689   2.836   4.707   3.859 -0.1214  0.1161 -0.0671
 4490W        W 8690   3.078   4.502  11.341  0.0906  0.1427  0.0467
 4491W        W 8691   5.903   6.964  12.296  0.2234 -0.0485  0.1224
 4492W        W 8692   7.790   1.135   9.590 -0.1290 -0.0656  0.1788
 4493W        W 8693   4.868   6.629   8.907  0.0583 -0.4734  0.0159
 4494W        W 8694   7.564   8.720  11.516  0.3290  0.0223  0.0999
 4495W        W 8695   5.512   4.136   3.624 -0.0958 -0.1866 -0.3258
 4496W        W 8696   7.903   8.448  10.017 -0.4923 -0.2035  0.2435
 4497W        W 8697   9.555   3.298   9.865  0.3977  0.0162 -0.0682
 4498W        W 8698   0.140   3.735   8.838 -0.2986 -0.0654 -0.1478
 4499W        W 8699  10.106   0.119   9.937  0.1359  0.1432  0.0553
 4500W        W 8700   7.912   7.818   2.705  0.2098  0.0552 -0.1817
 4501W        W 8701   3.909   4.501   1.485  0.1536  0.2751 -0.0176
 4502W        W 8702   8.929   5.446  12.434  0.2393  0.0484  0.0880
 4503W        W 8703   3.713   9.259  11.900  0.4942  0.0706 -0.2041
 4504W        W 8704   9.325  10.026  11.463 -0.1858 -0.0303 -0.2271
 4505W        W 8705   7.204   4.528   5.212  0.0509  0.0389  0.1523
 4506W        W 8706   7.814   5.431   9.242 -0.0604 -0.1078 -0.3785
 4507W        W 8707   8.872   3.035   2.265  0.1226 -0.1090  0.3093
 4508W        W 8708   0.556   4.843  11.025 -0.0757  0.0315  0.1985
 4509W        W 8709   0.196   9.067   1.871  0.2137 -0.3927 -0.2421
 4510W        W 8710   3.642   9.374  12.493 -0.1637  0.0436  0.0126
 4511W        W 8711   5.469   3.465  10.198 -0.0454  0.1208  0.1436
 4512W        W 8712   2.349   6.573   9.513 -0.2072  0.0467  0.0326
 4513W        W 8713   6.914   2.218  11.585  0.3878 -0.3640 -0.0521
 4514W        W 8714  10.368   4.377   9.257  0.1896  0.1226 -0.0808
 4515W        W 8715   7.250   7.535   3.641  0.2989  0.2320  0.0352
 4516W        W 8716   0.793   0.997  12.755  0.1972  0.1998 -0.1167
 4517W        W 8717   9.321   6.775   4.546  0.0285 -0.1861 -0.0286
 4518W        W 8718   4.669   3.547   9.526  0.0393  0.0384  0.2274
 4519W        W 8719   7.925   6.968  13.091  0.0141 -0.1264 -0.3167
 4520W        W 8720   8.306   0.731  12.840  0.0299  0.0273 -0.4616
 4521W        W 8721   2.024   8.879  11.666 -0.4712  0.0193 -0.1625
 4522W        W 8722   9.253   5.715   0.429  0.1160  0.0206  0.0382
 4523W        W 8723   8.381   1.092   3.198 -0.1011  0.2482  0.0450
 4524W        W 8724   5.730   8.001   3.603 -0.2602 -0.1530  0.2667
 4525W        W 8725   9.767   4.571   3.525 -0.2140  0.0224 -0.2797
 4526W        W 8726   3.128   2.455   1.035  0.1979 -0.3750  0.1762
 4527W        W 8727   7.440   0.130   3.714  0.3383 -0.0903 -0.1979
 4528W        W 8728   5.739   1.395   2.784  0.1326  0.1929 -0.1134
 4529W        W 8729   0.800   1.079   0.785  0.3296 -0.0669 -0.2731
 4530W        W 8730   0.245   0.770   1.503  0.4554  0.2235  0.0705
 4531W        W 8731   0.399   2.408   3.006 -0.1623  0.0229  0.2522
 4532W        W 8732   6.892   5.756  10.034  0.0478 -0.0283 -0.1531
 4533W        W 8733   7.560   0.120   2.741  0.3396  0.1651 -0.0800
 4534W        W 8734   5.701   6.695  10.092  0.1500 -0.1561 -0.0715
 4535W        W 8735   4.850   4.661  12.908  0.0355  0.1256  0.3620
 4536W        W 8736   4.510   1.928  12.514 -0.0036  0.0872 -0.1374
 4537W        W 8737   5.097   2.194  10.914 -0.4002 -0.4282 -0.1106
 4538W        W 8738   7.070   6.766   4.644  0.3147  0.4006  0.1993
 4539W        W 8739   4.635   5.461   8.955 -0.1106 -0.1934 -0.0238
 4540W        W 8740   8.124  10.389  12.159 -0.1350 -0.3182 -0.0647
 4541W        W 8741   5.149   5.690   9.750 -0.0285  0.0563 -0.2750
 4542W        W 8742   5.176   5.598   8.512  0.0563 -0.0955 -0.3319
 4543W        W 8743   1.382   2.339   3.523  0.2377 -0.4654  0.2315
 4544W        W 8744   5.493   1.715   0.969 -0.0459 -0.0734 -0.0892
 4545W        W 8745   4.959   5.571   1.566 -0.1550  0.0248 -0.0866
 4546W        W 8746   5.680   0.261   3.929 -0.1387 -0.0050 -0.2088
 4547W        W 8747   8.674   2.683   9.884  0.1000 -0.1338  0.2553
 4548W        W 8748   2.478   5.316   3.355 -0.0433  0.2039  0.1357
 4549W        W 8749   7.790   6.878  11.321 -0.2896 -0.0340 -0.2026
 4550W        W 8750   6.409   8.368   1.021 -0.2788 -0.0800  0.0539
 4551W        W 8751   9.938   2.377  11.765  0.1176  0.0126  0.0643
 4552W        W 8752   2.192   7.202   3.011 -0.2404 -0.3811 -0.0572
 4553W        W 8753   0.050   9.641   8.920  0.1493 -0.1495  0.3128
 4554W        W 8754   0.835   0.472   2.087  0.0716  0.1289 -0.0358
 4555W        W 8755   1.012  10.193  12.209 -0.0889  0.2158  0.0551
 4556W        W 8756   0.854   6.281   4.045  0.1621  0.1404  0.1507
 4557W        W 8757   7.290   4.187  13.346 -0.1113 -0.0578 -0.1800
 4558W        W 8758   4.246   4.985   8.773 -0.0618 -0.0141 -0.2758
 4559W        W 8759   4.193   7.157   3.979  0.1141  0.1631 -0.0046
 4560W        W 8760   7.933   0.620   4.130  0.2021  0.0249  0.0144
 4561W        W 8761   6.440   7.488   8.395 -0.0788 -0.1082 -0.1114
 4562W        W 8762   0.701   0.519  11.001  0.2398 -0.1873 -0.1094
 4563W        W 8763   1.636   2.470  10.496  0.3077  0.0645  0.0337
 4564W        W 8764   8.103   9.327   3.688  0.0143  0.4335  0.1797
 4565W        W 8765   8.785  10.385  11.260 -0.0380  0.1863  0.0904
 4566W        W 8766   0.149   0.473  10.324 -0.0654  0.0470 -0.2404
 4567W        W 8767   5.264   1.514  13.139 -0.0843 -0.1976  0.1486
 4568W        W 8768   3.925   5.795   2.234 -0.1446 -0.4293 -0.1159
 4569W        W 8769   1.199   1.683   0.081 -0.0291  0.2767 -0.0238
 4570W        W 8770   9.409   6.535   8.532 -0.1465 -0.2454  0.1955
 4571W        W 8771   7.853   7.819   0.995  0.0305  0.1140  0.0802
 4572W        W 8772   6.498   0.480   4.528  0.5003  0.1688 -0.1492
 4573W        W 8773   8.379   4.987   9.260  0.0216 -0.0764  0.1524
 4574W        W 8774   7.843   4.047  12.092  0.0694 -0.0840  0.0650
 4575W        W 8775   5.746   6.197  10.881  0.0317 -0.3108 -0.1555
 4576W        W 8776   4.042   9.975  11.330 -0.0918 -0.2008 -0.1629
 4577W        W 8777   0.645   9.248   2.086  0.0213  0.2386  0.3047
 4578W        W 8778   0.907  10.489  11.066 -0.0992  0.1474 -0.3650
 4579W        W 8779   4.531   6.455   2.120  0.1113  0.0544 -0.1534
 4580W        W 8780   1.363   3.882   9.824 -0.0673 -0.1350  0.0878
 4581W        W 8781   4.079   6.489  11.094 -0.0621 -0.2023  0.2350
 4582W        W 8782   9.546   3.083  13.013 -0.1877 -0.0805 -0.1608
 4583W        W 8783   5.243   1.590   2.526  0.0161  0.0821  0.0896
 4584W        W 8784   6.659   8.771  11.954 -0.2251 -0.0241 -0.0489
 4585W        W 8785   0.909   5.058   0.775 -0.1320  0.0955 -0.0831
 4586W        W 8786   0.202   3.425   8.275 -0.0114 -0.1127 -0.1103
 4587W        W 8787   5.894  10.394   9.912  0.1955  0.0925 -0.4918
 4588W        W 8788   4.753   7.206  12.078 -0.1954 -0.0089  0.1168
 4589W        W 8789   7.678  10.190  11.066 -0.0449 -0.2818 -0.2219
 4590W        W 8790   3.234  10.008   0.409 -0.0837 -0.2049 -0.1677
 4591W        W 8791   0.939   6.354   3.095  0.3128 -0.1163  0.0269
 4592W        W 8792   6.114   6.894   2.756 -0.1342  0.2831 -0.0186
 4593W        W 8793   8.145   3.809   2.929 -0.2269 -0.1128 -0.0010
 4594W        W 8794   8.929   0.052   9.899 -0.0821 -0.1386  0.0057
 4595W        W 8795   0.452   1.240  12.977 -0.0786  0.2503  0.0313
 4596W        W 8796   5.431   5.035   2.334 -0.1892  0.0665 -0.0295
 4597W        W 8797   9.851   5.037  13.213  0.1119  0.0841 -0.4401
 4598W        W 8798   2.414   1.584   9.574 -0.0176  0.2767 -0.1471
 4599W        W 8799   2.592   4.360  11.312 -0.3400 -0.2526  0.1815
 4600W        W 8800   3.633   3.392  13.190 -0.1379  0.0993 -0.2019
 4601W        W 8801   2.873   7.780   3.178  0.4001  0.0306  0.1308
 4602W        W 8802   6.612   9.001  11.507  0.3417  0.0285  0.1282
 4603W        W 8803   1.378   0.611   1.962  0.1621  0.0793 -0.1710
 4604W        W 8804  10.376   4.653   0.992  0.2388 -0.0410 -0.0695
 4605W        W 8805   7.363   3.116  10.738 -0.1877  0.1148 -0.0715
 4606W        W 8806   6.700   8.577   9.475  0.2016 -0.1364 -0.0878
 4607W        W 8807   1.275   8.538   1.231  0.1058 -0.3038  0.1094
 4608W        W 8808   6.509   1.079  12.897 -0.0598  0.1095  0.1392
 4609W        W 8809   2.141   4.732  11.381 -0.3200  0.0379 -0.1969
 4610W        W 8810   0.255   8.053   3.831  0.4443 -0.0840  0.0445
 4611W        W 8811   1.794   5.483   8.496 -0.2912 -0.2043 -0.1648
 4612W        W 8812   5.252   1.304   0.292 -0.3206 -0.1273  0.2039
 4613W        W 8813   6.820   3.438   9.606  0.1706  0.1033 -0.0223
 4614W        W 8814   6.844   3.651  12.121  0.1090  0.2278 -0.0022
 4615W        W 8815   6.604   5.301   0.097 -0.0302  0.0390 -0.0782
 4616W        W 8816   9.671   4.098   2.388 -0.1499 -0.1334 -0.1083
 4617W        W 8817   1.094   2.297   1.372 -0.3056 -0.4514 -0.0062
 4618W        W 8818   8.102   6.747   9.568  0.0280  0.0338 -0.2378
 4619W        W 8819   0.791   5.739  13.219  0.0364 -0.0926  0.1711
 4620W        W 8820   5.844   7.586   4.399 -0.0481  0.0322 -0.1407
 4621W        W 8821   5.023   1.326  11.633 -0.1726  0.0812 -0.2725
 4622W        W 8822   1.761   8.361   1.438 -0.1977  0.0702 -0.2144
 4623W        W 8823  10.022   5.844   9.625 -0.0041 -0.0710  0.0698
 4624W        W 8824   9.014   7.058   1.561 -0.2322 -0.0019 -0.0045
 4625W        W 8825   1.787   9.004  12.181  0.0240  0.2800  0.3234
 4626W        W 8826   3.886   7.394  10.179 -0.1954  0.3683  0.0184
 4627W        W 8827   5.987   0.337  11.091  0.2744  0.1448 -0.3707
 4628W        W 8828   7.864   1.401  10.312  0.1812 -0.0864 -0.0223
 4629W        W 8829   8.889   0.645   9.901 -0.2977 -0.1200 -0.3759
 4630W        W 8830   1.395   9.203  11.184  0.4964 -0.0488  0.0413
 4631W        W 8831   9.523   8.920   2.768  0.0994  0.1769  0.0581
 4632W        W 8832   5.422   5.427  13.310  0.1291  0.0963  0.1444
 4633W        W 8833  10.081   1.723  11.140  0.1219  0.0817  0.1102
 4634W        W 8834   7.878   5.804   2.018 -0.0566  0.1821  0.1752
 4635W        W 8835   7.850   3.805  12.917 -0.1692 -0.0004 -0.1043
 4636W        W 8836   1.258   1.522   2.783 -0.2691  0.2133  0.0670
 4637W        W 8837   0.271   0.977   0.874  0.0314  0.1671 -0.0475
 4638W        W 8838   1.013   3.288   3.856 -0.1587 -0.0626  0.0493
 4639W        W 8839   5.962   6.703   1.877  0.0506 -0.1624  0.1628
 4640W        W 8840   8.252   3.855   8.844 -0.1762  0.1146 -0.2802
 4641W        W 8841   4.120   6.302   2.817 -0.0163 -0.0971  0.3623
 4642W        W 8842   1.795   0.366   3.333  0.3668 -0.1317  0.1300
 4643W        W 8843   5.515   4.030   1.450  0.1779 -0.1699  0.0515
 4644W        W 8844   0.546   0.175  12.855 -0.2771  0.0744 -0.0903
 4645W        W 8845   9.051   4.823   8.939  0.3561 -0.2546  0.0008
 4646W        W 8846   1.033   3.030   9.330  0.4152  0.1344  0.1532
 4647W        W 8847   5.900   6.385   4.498 -0.0491  0.1932  0.2867
 4648W        W 8848   7.428   7.530   1.038 -0.0387  0.1766 -0.0997
 4649W        W 8849  10.279   5.956  13.155  0.1758  0.1446  0.0145
 4650W        W 8850   2.792   6.376   1.138  0.0618 -0.1446 -0.0992
 4651W        W 8851   5.773   9.210   2.423  0.1238 -0.0857  0.0401
 4652W        W 8852   7.410   7.298   2.629  0.4351  0.0100 -0.0297
 4653W        W 8853   5.725   8.339  12.669 -0.0238 -0.0804  0.0742
 4654W        W 8854   3.223   9.413   0.080  0.0020 -0.3135 -0.0564
 4655W        W 8855   7.826   7.364   2.289 -0.0960  0.0551  0.2476
 4656W        W 8856   6.837   6.982  12.431  0.1512 -0.0251 -0.0678
 4657W        W 8857   6.354   2.667   1.978  0.0445 -0.0764 -0.0129
 4658W        W 8858   6.882   3.291   3.921 -0.0777 -0.2413 -0.1449
 4659W        W 8859   8.644   3.870   3.458  0.2421 -0.0535  0.3988
 4660W        W 8860   2.591   0.615   3.081  0.4722  0.4162  0.0786
 4661W        W 8861   9.824   4.237   1.662 -0.2078  0.0470 -0.2568
 4662W        W 8862  10.205   1.631   4.450 -0.4204 -0.1529  0.0574
 4663W        W 8863   8.832   7.042   0.296  0.1502 -0.0927 -0.0524
 4664W        W 8864   6.845   2.929   1.381  0.1697 -0.4385  0.3024
 4665W        W 8865   8.989   9.463  12.492 -0.1869  0.1134 -0.0740
 4666W        W 8866   9.859   4.778   2.512  0.0649  0.4861  0.3035
 4667W        W 8867   5.011   1.394   1.304  0.2595 -0.0971  0.2061
 4668W        W 8868  10.129   0.463   9.561  0.3685 -0.2013  0.0913
 4669W        W 8869   8.963   9.692  10.221 -0.0875 -0.0158  0.1949
 4670W        W 8870   0.842   4.480  12.875  0.1352 -0.1190  0.1314
 4671W        W 8871   8.700   5.201   8.873 -0.2047  0.4137  0.0740
 4672W        W 8872  10.466   1.988   9.979  0.0939  0.0076  0.0680
 4673W        W 8873   2.836   0.887  10.184 -0.2728  0.1689  0.1185
 4674W        W 8874   3.226   0.664   2.524 -0.3775  0.3623 -0.0070
 4675W        W 8875   9.951   0.879  11.934 -0.2022  0.1394 -0.2712
 4676W        W 8876   3.290   4.010   3.657 -0.2602 -0.3096  0.1386
 4677W        W 8877  10.145   1.728  11.592  0.0481 -0.0838 -0.0855
 4678W        W 8878   7.918   6.111  12.323  0.1653 -0.1451  0.1055
 4679W        W 8879   5.039   7.251   1.971  0.1382  0.1966 -0.0561
 4680W        W 8880  10.266   1.282  11.067 -0.0505  0.0056  0.3023
 4681W        W 8881   1.439   3.552   3.722  0.0882 -0.1531 -0.0033
 4682W        W 8882   0.961   1.487   0.504 -0.1213 -0.0648 -0.3934
 4683W        W 8883   9.468   7.581   2.589 -0.1893  0.0857  0.1324
 4684W        W 8884   3.970   6.354  11.588 -0.0931  0.2518 -0.1465
 4685W        W 8885   0.557   5.142   3.241  0.0402 -0.1753  0.0199
 4686W        W 8886   0.294   3.196  11.719 -0.2317 -0.0449  0.0454
 4687W        W 8887   2.056  10.216   1.536  0.0885 -0.0576  0.2379
 4688W        W 8888   4.059   9.141  10.077  0.2057  0.1436 -0.0714
 4689W        W 8889   3.719   3.843  11.482 -0.0496 -0.0385  0.1465
 4690W        W 8890   9.201   2.399  10.722  0.1417 -0.5455 -0.2170
 4691W        W 8891   7.423   9.314  11.483 -0.1926 -0.2477 -0.0547
 4692W        W 8892   1.738   7.435   9.236 -0.1817  0.1511 -0.0144
 4693W        W 8893   1.507   5.348   1.594  0.2616 -0.4842  0.2760
 4694W        W 8894   0.369   1.085  12.463 -0.0025  0.0276 -0.0331
 4695W        W 8895  10.429   8.025   9.491  0.2504 -0.1528  0.0908
 4696W        W 8896   1.507   5.025  13.366 -0.0806 -0.5016  0.0814
 4697W        W 8897   7.390   6.886   2.958 -0.0330 -0.0330  0.0426
 4698W        W 8898  10.174   7.638   9.194 -0.2773  0.1975  0.0679
 4699W        W 8899   0.596   8.441   9.823 -0.0411 -0.3406 -0.2375
 4700W        W 8900   4.457   8.304   2.598 -0.1489 -0.3962  0.0402
 4701W        W 8901   7.663   4.482  11.575  0.0302  0.2371 -0.0619
 4702W        W 8902   2.531   9.017   9.743  0.1838  0.0841  0.0282
 4703W        W 8903   1.539   7.003  11.395  0.1411  0.0606 -0.3079
 4704W        W 8904   5.433   6.611  11.012  0.0242 -0.4295  0.2018
 4705W        W 8905  10.325   4.589  10.221  0.1670 -0.3106  0.0134
 4706W        W 8906   9.466   8.851   8.895  0.0867  0.0040 -0.1988
 4707W        W 8907   1.340   6.609   2.766  0.0409 -0.1447  0.0262
 4708W        W 8908   4.977   6.302   2.942  0.1138  0.0244  0.3327
 4709W        W 8909   1.253   3.865   3.256 -0.1751 -0.0127 -0.0652
 4710W        W 8910  10.099   5.114   1.699 -0.0955 -0.1995 -0.1164
 4711W        W 8911   5.194   0.768   9.180  0.0132  0.1956 -0.1237
 4712W        W 8912   7.352   9.828   2.802  0.1890 -0.3842 -0.1356
 4713W        W 8913   0.773  10.147  13.333  0.0829 -0.0462  0.1301
 4714W        W 8914   8.732   9.399   9.814 -0.2669  0.1396 -0.0947
 4715W        W 8915   1.251   3.117   2.321  0.2500  0.3305 -0.0540
 4716W        W 8916   6.735   9.899   0.178 -0.1126  0.0974  0.0028
 4717W        W 8917   9.989   7.223   9.393  0.1522 -0.1656 -0.2229
 4718W        W 8918   4.385   3.093   3.851 -0.0039  0.1869  0.1421
 4719W        W 8919   9.418   8.069   2.292  0.1162  0.2723 -0.1459
 4720W        W 8920   5.585   9.304   0.974 -0.4262  0.1569 -0.1482
 4721W        W 8921   7.959   7.421  12.417  0.0425 -0.1496 -0.1770
 4722W        W 8922   7.142   5.200   3.662 -0.2860 -0.1445 -0.1457
 4723W        W 8923   1.680   9.852  11.715  0.0492 -0.2273  0.2093
 4724W        W 8924   0.758   1.269   1.936 -0.1280  0.1058  0.1162
 4725W        W 8925   7.502   3.185   8.908 -0.1464 -0.1710  0.1042
 4726W        W 8926   0.705   0.862  13.220 -0.1689 -0.1134 -0.1570
 4727W        W 8927   8.655  10.081   2.715  0.0367  0.2306  0.0666
 4728W        W 8928   4.379   5.075   9.732  0.1066 -0.3525  0.0402
 4729W        W 8929   5.418   7.548  10.342 -0.1145  0.0188  0.0289
 4730W        W 8930   5.852   7.403   1.185 -0.1543 -0.1692 -0.0004
 4731W        W 8931   1.811   9.554  13.245  0.1180 -0.3773  0.2067
 4732W        W 8932   8.263   1.356   0.253 -0.2497  0.0235  0.0115
 4733W        W 8933   1.576   6.104  10.288 -0.0108  0.1710 -0.0270
 4734W        W 8934   7.292   5.888   9.763  0.2433  0.3059 -0.2268
 4735W        W 8935  10.134   7.000  10.418  0.2441  0.0772  0.1437
 4736W        W 8936   3.105   8.476  12.564  0.1288  0.1060 -0.0414
 4737W        W 8937   2.423   1.636   2.482  0.1274  0.3107 -0.2171
 4738W        W 8938   3.444   1.083   0.227  0.1664  0.0628 -0.1769
 4739W        W 8939   4.534   9.093  13.100  0.3757 -0.1706 -0.3324
 4740W        W 8940   9.108   2.362  12.189 -0.0857  0.1220 -0.0165
 4741W        W 8941   3.560   4.760  11.449 -0.0658  0.3089 -0.2479
 4742W        W 8942   0.707  10.222  12.591 -0.2530 -0.1120  0.1594
 4743W        W 8943   5.853   8.842  12.596 -0.2633 -0.2455 -0.2169
 4744W        W 8944   5.045   9.435  10.458 -0.2242  0.0878 -0.0597
 4745W        W 8945   9.603   8.098  11.841  0.5003 -0.2285 -0.1325
 4746W        W 8946   9.499   2.154  10.975 -0.1172  0.3213 -0.1271
 4747W        W 8947  10.450   4.120   1.865  0.2122 -0.3903  0.0154
 4748W        W 8948   0.061   5.297   3.461  0.1888 -0.0510 -0.1797
 4749W        W 8949   7.154   4.801   1.306  0.1462 -0.0055  0.1394
 4750W        W 8950   9.922   3.424  10.567 -0.3397 -0.1478  0.0641
 4751W        W 8951   0.092   3.815   1.045  0.0936  0.1109  0.1510
 4752W        W 8952   6.985   4.065   4.341 -0.2347 -0.0309  0.0560
 4753W        W 8953   1.380   4.713  12.860 -0.1420 -0.0300 -0.2322
 4754W        W 8954   9.598   8.345   0.053  0.2300 -0.1765 -0.0902
 4755W        W 8955   8.916   7.041  12.096  0.3943 -0.0183  0.0205
 4756W        W 8956   7.626   0.964   1.355 -0.1555 -0.0152  0.0056
 4757W        W 8957   8.368   4.702   0.433 -0.2267  0.1523  0.0434
 4758W        W 8958   6.729   1.393   1.720  0.0056 -0.1168  0.0024
 4759W        W 8959   3.720   5.151  10.555  0.0672  0.1792  0.0515
 4760W        W 8960   8.673   9.060  12.922 -0.2283 -0.0519 -0.0720
 4761W        W 8961   1.268   0.526   2.491 -0.2159  0.0895  0.0914
 4762W        W 8962   0.461   7.319   1.095  0.3405  0.0165 -0.1336
 4763W        W 8963   4.524   7.032   2.977  0.0226 -0.0069 -0.3666
 4764W        W 8964   3.353   9.017   3.954 -0.1539 -0.0035  0.1813
 4765W        W 8965   3.934   1.534   2.321 -0.2539 -0.1291 -0.0024
 4766W        W 8966   1.358   2.958  10.166 -0.1247  0.1106  0.0811
 4767W        W 8967   2.348   4.450   3.943  0.2747 -0.0453  0.2403
 4768W        W 8968   1.911   6.475  10.875  0.0545  0.1706  0.1259
 4769W        W 8969   1.150   8.559  11.744 -0.0345 -0.0003 -0.0106
 4770W        W 8970  10.311   9.721   2.199 -0.1233  0.0111  0.3593
 4771W        W 8971   6.932   9.485  12.551 -0.1497  0.0505  0.1453
 4772W        W 8972   0.294   7.447  13.198 -0.1304  0.4055 -0.1559
 4773W        W 8973  10.257   3.553   3.094 -0.2612  0.0081  0.1481
 4774W        W 8974   9.972   6.090   4.357  0.0674  0.1001 -0.0554
 4775W        W 8975   0.214  10.160  12.225  0.2328 -0.1727 -0.2189
 4776W        W 8976  10.092   9.552  11.162 -0.2155 -0.1763 -0.2914
 4777W        W 8977   9.807   9.533   2.246  0.1434 -0.0933  0.0228
 4778W        W 8978   1.259   8.955   8.664 -0.0672 -0.3828  0.0086
 4779W        W 8979   7.809   9.360  10.830 -0.1598 -0.3280 -0.0776
 4780W        W 8980   1.976  10.022   3.342 -0.0783 -0.2920 -0.3508
 4781W        W 8981   1.035   1.168   0.094  0.0650  0.0569  0.2287
 4782W        W 8982   9.677   1.476   8.180 -0.1622  0.2085  0.1422
 4783W        W 8983   6.153   2.705   9.956 -0.1437 -0.1972 -0.0101
 4784W        W 8984   2.987   8.445  13.251 -0.1621 -0.2218  0.2333
 4785W        W 8985   5.315   3.622  11.490 -0.0301  0.4052  0.3807
 4786W        W 8986   4.276   1.364   1.072  0.2524  0.1105 -0.3614
 4787W        W 8987   4.499   9.819  11.106  0.0392  0.0369  0.3406
 4788W        W 8988   7.917  10.474  10.769 -0.3636  0.1716 -0.2170
 4789W        W 8989  10.115  10.183   9.578  0.1002 -0.2220  0.0510
 4790W        W 8990   0.666   7.425   8.476 -0.1241 -0.2081  0.2724
 4791W        W 8991   7.747   0.124  12.663  0.1681 -0.1475 -0.2213
 4792W        W 8992   0.847   3.066   4.348 -0.1881  0.1038  0.1093
 4793W        W 8993  10.282   1.951   1.905 -0.1654 -0.0672  0.1515
 4794W        W 8994   5.679   1.477  12.259  0.3832 -0.1413 -0.3648
 4795W        W 8995   9.516   4.026  10.729 -0.2022  0.0203  0.3475
 4796W        W 8996   2.573  10.381  11.305 -0.0700  0.2878 -0.0716
 4797W        W 8997   2.832   9.412  11.903  0.1721 -0.0356 -0.1945
 4798W        W 8998   5.782  10.402  10.929 -0.0743 -0.0035 -0.2414
 4799W        W 8999   6.409   4.429   5.074  0.0821  0.0689 -0.0225
 4800W        W 9000   9.734   7.546   0.393  0.2211 -0.0828 -0.0960
 4801W        W 9001   3.199   1.645  12.061  0.1489  0.0521  0.3560
 4802W        W 9002   6.982   6.158   0.989 -0.1560  0.1026 -0.3317
 4803W        W 9003   6.358   7.318   1.214  0.0206 -0.0958 -0.1686
 4804W        W 9004   4.576   7.851   0.547 -0.0247 -0.1078  0.1216
 4805W        W 9005   2.194   1.229   1.847  0.1214  0.1608  0.4546
 4806W        W 9006   7.619   8.257   4.247  0.0314 -0.0097 -0.2411
 4807W        W 9007   4.405   7.043  11.025 -0.1974 -0.1266 -0.3758
 4808W        W 9008   6.915   0.678   4.328  0.0759 -0.3959 -0.0007
 4809W        W 9009   6.782   7.818   1.721  0.0939  0.0562 -0.0587
 4810W        W 9010   1.917   7.817  10.537  0.0574  0.3151 -0.2053
 4811W        W 9011   5.965   0.901  11.787 -0.1228 -0.0529 -0.1609
 4812W        W 9012   9.651   1.188  12.723 -0.0678 -0.2746  0.0786
 4813W        W 9013   0.150  10.234  11.655 -0.0423 -0.1933  0.2245
 4814W        W 9014   3.925   7.492   4.803 -0.0493 -0.1738  0.0370
 4815W        W 9015   1.720   1.495   0.916  0.0202  0.1953  0.2220
 4816W        W 9016  10.302   9.232  12.003  0.0233  0.1944  0.0246
 4817W        W 9017   5.056   7.386   3.206  0.2443 -0.1447 -0.1603
 4818W        W 9018   1.476   4.818   1.444  0.0195 -0.2529  0.4040
 4819W        W 9019   5.006   7.224   3.731  0.1566 -0.0416  0.0386
 4820W        W 9020   8.834   2.468  10.310  0.0446 -0.3995 -0.2839
 4821W        W 9021   6.422   8.893   8.545  0.0417 -0.2964 -0.0183
 4822W        W 9022   7.695   6.365   9.705  0.2495  0.1429  0.0103
 4823W        W 9023   4.209   7.439  11.330 -0.2007 -0.2270 -0.1414
 4824W        W 9024   2.049   0.634   9.993  0.0022  0.0185 -0.0031
 4825W        W 9025   6.783   2.595  12.854 -0.0198  0.1968  0.0624
 4826W        W 9026   2.673   6.210   9.757  0.1022  0.0662 -0.0366
 4827W        W 9027   2.585   2.551  12.905 -0.1047 -0.1700 -0.0043
 4828W        W 9028   0.425   3.448   0.186 -0.1998 -0.2081  0.0737
 4829W        W 9029   0.210   0.080   2.132 -0.2077  0.1603 -0.0697
 4830W        W 9030  10.177  10.348  11.090  0.4296  0.2152 -0.1199
 4831W        W 9031   8.151   4.219   3.852 -0.1431 -0.2683  0.0024
 4832W        W 9032   4.935   3.884   9.248  0.0198 -0.0851 -0.0009
 4833W        W 9033   7.287   4.359   9.708  0.0352 -0.1394 -0.0994
 4834W        W 9034   9.552   6.763   1.031 -0.1353 -0.2442  0.1509
 4835W        W 9035   9.075   4.859   9.764  0.1013 -0.2575 -0.2770
 4836W        W 9036   6.477   9.833   0.684 -0.0954 -0.3349  0.1034
 4837W        W 9037   8.861   2.723   9.406  0.2239  0.1829 -0.1622
 4838W        W 9038   5.891   0.397  12.019 -0.0420  0.1522  0.0192
 4839W        W 9039   1.972   1.267  10.756  0.4369  0.0201  0.0882
 4840W        W 9040   5.253   8.390  10.605  0.0719  0.1456  0.1295
 4841W        W 9041   8.737   0.928  10.715 -0.0340  0.0155 -0.0955
 4842W        W 9042   9.338   0.829   3.416 -0.0710  0.0717 -0.0117
 4843W        W 9043   3.944   6.061  12.977  0.1532  0.1033  0.1490
 4844W        W 9044   1.709   2.009   3.160  0.1382 -0.0313 -0.1214
 4845W        W 9045  10.022   4.399  11.535 -0.2873 -0.2225  0.1776
 4846W        W 9046   3.243   9.824  10.222  0.3579  0.0329  0.1228
 4847W        W 9047   8.846  10.435  13.383 -0.1848  0.1089  0.2995
 4848W        W 9048   4.600   3.449   2.371 -0.3288  0.0608 -0.0500
 4849W        W 9049   3.736   0.420   1.811 -0.2547 -0.1446  0.0725
 4850W        W 9050   7.630   6.267  13.125 -0.4080  0.2115 -0.2765
 4851W        W 9051   9.977   3.835  10.821 -0.1496 -0.3002  0.1614
 4852W        W 9052   0.426   5.721  10.669  0.2298  0.1066  0.0481
 4853W        W 9053   9.300   3.123  12.503 -0.0050  0.1049  0.0854
 4854W        W 9054   0.561   6.431  10.202 -0.0470  0.0990 -0.1141
 4855W        W 9055   8.047   6.052   0.635  0.0075  0.1210 -0.0331
 4856W        W 9056   2.296   4.773  10.927 -0.2458  0.4429  0.1941
 4857W        W 9057   8.066   0.069   4.882 -0.0597  0.0415 -0.0972
 4858W        W 9058   2.253   7.183  10.698 -0.0148  0.2011 -0.3464
 4859W        W 9059   0.674   0.374   4.378  0.3257 -0.0358  0.1067
 4860W        W 9060   7.384   7.062   3.450 -0.0116 -0.2002  0.0465
 4861W        W 9061   9.673   4.546  12.010 -0.1792 -0.1002  0.0672
 4862W        W 9062   8.365   9.679   9.918 -0.1128 -0.0436 -0.1906
 4863W        W 9063   1.728   7.913   9.556 -0.1091 -0.2129  0.0545
 4864W        W 9064   1.318   2.760  10.774 -0.0085  0.1867  0.3444
 4865W        W 9065   6.816   7.089   2.234  0.1164  0.2515 -0.0946
 4866W        W 9066   6.563   2.651   0.558 -0.1610 -0.1840  0.0267
 4867W        W 9067   3.439   5.697  11.352  0.4010 -0.2654 -0.1666
 4868W        W 9068   7.049   8.455   1.808 -0.1337 -0.3095 -0.0144
 4869W        W 9069   8.429   5.901   9.615 -0.2143  0.2112 -0.0446
 4870W        W 9070   6.388   2.308   4.058 -0.0893 -0.0477 -0.0900
 4871W        W 9071  10.193   7.402   3.535  0.0613 -0.0856  0.3048
 4872W        W 9072   6.312   0.100   0.082  0.0703 -0.3691  0.0802
 4873W        W 9073   8.875   9.245   0.822 -0.0920 -0.0272 -0.0685
 4874W        W 9074   2.702   2.576   3.239  0.5200 -0.0478 -0.2569
 4875W        W 9075   9.550   7.440   8.595  0.1311  0.1982 -0.0484
 4876W        W 9076   8.721   8.751   0.149 -0.1467 -0.1189  0.0611
 4877W        W 9077   2.779   5.423  10.444 -0.2383  0.0174 -0.1840
 4878W        W 9078   3.897   7.074  12.288  0.1605 -0.1024 -0.2307
 4879W        W 9079   6.285   6.086   4.699 -0.2549  0.2488 -0.0843
 4880W        W 9080   8.676  10.111   0.356 -0.3438 -0.2379  0.2089
 4881W        W 9081   3.430   0.373  11.640  0.0427 -0.1257  0.3018
 4882W        W 9082   3.981   5.415   1.887  0.0665 -0.1500  0.0979
 4883W        W 9083   0.458   0.452  13.242  0.0315  0.0673 -0.3451
 4884W        W 9084   6.452   2.409  11.625 -0.4718  0.2164  0.1642
 4885W        W 9085   7.885   1.891  10.570  0.1886 -0.2151  0.0475
 4886W        W 9086   0.302   9.709  10.601  0.0514 -0.0160  0.1759
 4887W        W 9087  10.155  10.455  10.443  0.1805  0.0538  0.3697
 4888W        W 9088   2.509   5.586   2.387 -0.5814 -0.0366 -0.3700
 4889W        W 9089   2.654   1.713  10.120 -0.2699 -0.1270 -0.3848
 4890W        W 9090   6.613   0.076   3.677  0.0247  0.0656 -0.0926
 4891W        W 9091   4.579   5.370   3.314 -0.0042  0.0572  0.1952
 4892W        W 9092   1.162   2.252  13.367  0.0652 -0.0187  0.2761
 4893W        W 9093   3.097   5.146   9.741 -0.1646  0.1696 -0.1375
 4894W        W 9094   0.462   2.489   1.988  0.3916  0.0086  0.1930
 4895W        W 9095   0.767   0.604   2.568  0.0990 -0.0351 -0.0447
 4896W        W 9096   8.754   6.668  10.093  0.2522  0.0293 -0.0798
 4897W        W 9097   9.669   6.987   3.877 -0.2992  0.3376 -0.4983
 4898W        W 9098   5.336   4.808   1.856 -0.0407 -0.1271  0.1682
 4899W        W 9099   7.129   5.594  12.166 -0.0513  0.1508  0.3486
 4900W        W 9100   3.339   1.957  10.575  0.0591 -0.0960  0.1778
 4901W        W 9101   2.892   0.381   0.999  0.0178  0.3644 -0.0602
 4902W        W 9102   0.807   2.757   2.293  0.2574 -0.0264 -0.0024
 4903W        W 9103   6.801   3.771  10.025 -0.0836  0.4120 -0.0564
 4904W        W 9104   3.418   6.704   0.472  0.2216 -0.2032  0.3094
 4905W        W 9105   0.192   4.463  12.080  0.0881 -0.0110 -0.1901
 4906W        W 9106   5.623   2.111  10.723  0.1453 -0.3199  0.1834
 4907W        W 9107   7.723   2.491   9.886 -0.1900  0.1485  0.0950
 4908W        W 9108   5.156   6.516   4.383  0.1786 -0.0467 -0.1058
 4909W        W 9109   6.722   0.902   1.723 -0.0796 -0.2036 -0.0799
 4910W        W 9110   4.671   1.611   1.020  0.1377 -0.4672 -0.0656
 4911W        W 9111   0.287   1.541  10.163  0.0041 -0.0442 -0.0671
 4912W        W 9112   6.581   1.204   2.962  0.0499  0.0877 -0.2060
 4913W        W 9113   4.542   8.325  12.772 -0.1481 -0.0012  0.0727
 4914W        W 9114   7.462   3.204   4.344 -0.3593  0.1736 -0.1833
 4915W        W 9115   5.712   5.153   0.637 -0.2604  0.1978  0.1763
 4916W        W 9116   2.960   3.619   9.400  0.0740  0.1166  0.1442
 4917W        W 9117   3.013   4.420   4.766 -0.2338 -0.1494  0.2858
 4918W        W 9118   8.769   8.872   9.010 -0.2882 -0.1896 -0.2219
 4919W        W 9119  10.124   5.023   9.866 -0.3205  0.0257 -0.2349
 4920W        W 9120   9.099   6.539   1.370  0.0244 -0.2128 -0.1831
 4921W        W 9121   8.857   9.799   3.903  0.2228 -0.0027  0.0929
 4922W        W 9122   5.204   6.026   0.564 -0.1829 -0.2788 -0.1296
 4923W        W 9123   7.111   1.158   1.384 -0.1843 -0.0493  0.1564
 4924W        W 9124   9.501   7.798  10.397 -0.0667 -0.2937  0.3220
 4925W        W 9125   2.614   0.258  12.666 -0.2362  0.0723 -0.1301
 4926W        W 9126   0.923  10.490  11.604 -0.2016  0.3442  0.2094
 4927W        W 9127   7.450   2.873  11.783 -0.0069 -0.3388  0.2555
 4928W        W 9128   7.975   5.545  12.358 -0.0598  0.2138 -0.2055
 4929W        W 9129   9.503   8.940   9.386  0.0975  0.1423 -0.0319
 4930W        W 9130   7.853   5.183  12.723  0.0827 -0.1577  0.2162
 4931W        W 9131   0.306   8.201  12.846 -0.1358 -0.4596  0.1653
 4932W        W 9132  10.031   8.138   3.777  0.2073 -0.1674 -0.3866
 4933W        W 9133   8.553   3.078   3.309 -0.1016 -0.0089  0.1395
 4934W        W 9134   5.756   2.794  11.407  0.0208  0.0787  0.1861
 4935W        W 9135   9.565   7.098   9.630 -0.0601  0.3747  0.0099
 4936W        W 9136   3.516   9.129   0.871 -0.3577  0.0734  0.1849
 4937W        W 9137   0.994   4.706   2.657 -0.0465  0.2108  0.4155
 4938W        W 9138  10.384   5.225   8.882 -0.0261 -0.3404 -0.2349
 4939W        W 9139   4.532   5.714  11.832  0.3004 -0.2485 -0.0593
 4940W        W 9140   5.761   6.182   1.369  0.0624  0.2168 -0.1171
 4941W        W 9141   0.594   0.852   3.619  0.1193 -0.1053 -0.3022
 4942W        W 9142   9.132   2.631  11.734  0.1859  0.3796 -0.3928
 4943W        W 9143   2.586   9.792  11.688 -0.2156 -0.3768 -0.0988
 4944W        W 9144   9.400   0.287   1.949  0.2099  0.2162  0.1355
 4945W        W 9145   2.558   9.428  12.775 -0.0750  0.1421 -0.0518
 4946W        W 9146   3.642   3.659   2.121 -0.0055  0.0543  0.3088
 4947W        W 9147   7.821   9.666  11.359  0.0841 -0.3249 -0.0535
 4948W        W 9148   0.601   4.250   3.873  0.0271 -0.4091  0.2195
 4949W        W 9149   7.290  10.016   4.792  0.2972  0.2888  0.0498
 4950W        W 9150   8.697   3.553  10.479 -0.1675 -0.1117  0.0481
 4951W        W 9151   1.159   0.895  11.910 -0.2468 -0.0318 -0.2427
 4952W        W 9152   0.783   7.849   9.911  0.0377 -0.1185 -0.0826
 4953W        W 9153   5.173   9.909   0.627 -0.1298  0.0219  0.3483
 4954W        W 9154   6.154   0.522  11.564  0.0710  0.2459  0.1032
 4955W        W 9155   5.689   8.625  10.541 -0.0250 -0.2551  0.0771
 4956W        W 9156   7.875   5.542  10.467 -0.1583 -0.1170 -0.2409
 4957W        W 9157   4.090   8.428  12.486  0.3624 -0.0187  0.1306
 4958W        W 9158   1.699   8.048   3.051  0.0546  0.0038 -0.0106
 4959W        W 9159   6.945  10.027   3.240 -0.0315  0.3307  0.1564
 4960W        W 9160   4.092   3.731   9.393 -0.0213  0.0100 -0.2398
 4961W        W 9161  10.203   6.949   2.660  0.0197  0.0066 -0.0038
 4962W        W 9162   4.363  10.288   9.591  0.1275  0.0442  0.0925
 4963W        W 9163   6.933   3.433  12.994  0.1165 -0.0401  0.1275
 4964W        W 9164   8.174   7.579   4.191 -0.0025 -0.1256 -0.0967
 4965W        W 9165   4.057   0.146  12.721 -0.0828  0.0053  0.0939
 4966W        W 9166   6.081   1.624   9.926 -0.2181 -0.0644  0.0567
 4967W        W 9167   5.356   7.576   3.585  0.0954 -0.1393  0.1888
 4968W        W 9168   4.507   3.927   1.136 -0.0537 -0.2698 -0.3435
 4969W        W 9169   0.432   4.311   0.419  0.0573 -0.0497 -0.1845
 4970W        W 9170   7.111   3.187  11.359 -0.1098 -0.3662 -0.2310
 4971W        W 9171   8.995   7.784   4.363 -0.1992 -0.1471 -0.3028
 4972W        W 9172   7.667   2.728   1.874  0.3741 -0.0940  0.3578
 4973W        W 9173   5.204   3.437   2.105  0.0827  0.0499  0.2238
 4974W        W 9174  10.064   1.432   9.470  0.0830  0.0111 -0.4018
 4975W        W 9175   1.968   8.750   9.758  0.1186 -0.0505  0.4361
 4976W        W 9176   6.389   6.799   9.320  0.0484 -0.2879  0.0428
 4977W        W 9177   2.009   2.869   1.793  0.1599  0.0125 -0.2239
 4978W        W 9178   9.724   4.351   4.014  0.1574 -0.2429  0.0076
 4979W        W 9179   5.728   7.079  10.978 -0.0350  0.0189  0.3510
 4980W        W 9180   8.399   9.166   8.898  0.3326 -0.1491  0.0767
 4981W        W 9181   1.123   7.555  10.960  0.1131 -0.3910 -0.0928
 4982W        W 9182   3.447   6.756  13.287 -0.4584  0.0144 -0.1262
 4983W        W 9183   7.402   7.239  12.141 -0.3456  0.1159  0.1277
 4984W        W 9184   9.951   3.475   2.511 -0.1439 -0.0810 -0.3346
 4985W        W 9185   9.080  10.490   0.979 -0.2206 -0.1606 -0.0417
 4986W        W 9186   0.373   7.628   4.617  0.0889  0.0842  0.2675
 4987W        W 9187   7.297   6.198   4.409  0.1598 -0.0771 -0.0108
 4988W        W 9188   3.144   9.232  10.858 -0.2768 -0.0999  0.4357
 4989W        W 9189   0.002   0.208  12.981  0.4074 -0.1021  0.2623
 4990W        W 9190   4.887   5.390  11.735 -0.5298  0.1408 -0.0380
 4991W        W 9191   9.132   2.996   9.956 -0.0768  0.0007 -0.3771
 4992W        W 9192   4.664   2.064   1.906 -0.0309 -0.0731  0.2596
 4993W        W 9193   2.629   9.435  10.779  0.2977 -0.0405 -0.2341
 4994W        W 9194  10.002   4.494  12.530  0.1092  0.3752  0.1639
 4995W        W 9195   0.407   6.676   9.631 -0.0186 -0.1608  0.3455
 4996W        W 9196   5.776   7.689   1.581 -0.0662  0.1046 -0.0687
 4997W        W 9197   4.563   4.993  11.722  0.1781 -0.0409 -0.0760
 4998W        W 9198   4.463   1.021  11.554  0.0460 -0.0118  0.0286
 4999W        W 9199   2.046   7.606  10.950  0.0227  0.2279 -0.1376
 5000W        W 9200   9.876   9.142   1.742  0.1360  0.0609  0.2214
 5001W        W 9201   5.073   3.731  11.036  0.0941  0.1643 -0.2615
 5002W        W 9202   5.110   2.758  11.127  0.2994 -0.0825  0.0652
 5003W        W 9203   9.025   9.726   2.958  0.0952 -0.3070  0.0235
 5004W        W 9204   7.911   5.105   4.311 -0.2064  0.2067 -0.2282
 5005W        W 9205   4.941   1.146   2.726 -0.0365  0.3189  0.1495
 5006W        W 9206   7.012   8.504   3.138  0.1770  0.1801  0.1919
 5007W        W 9207   8.400   0.347   1.963  0.2078 -0.1530 -0.0088
 5008W        W 9208   2.796   9.645   4.074  0.0957  0.0548  0.2560
 5009W        W 9209   8.155   3.828   1.086 -0.0895  0.0115  0.0006
 5010W        W 9210   7.494   3.426  11.155 -0.1545 -0.1358 -0.0834
 5011W        W 9211   8.905   4.221   3.532 -0.2162 -0.1823 -0.1201
 5012W        W 9212   5.195   5.454   2.474  0.0642 -0.0277  0.0614
 5013W        W 9213   3.325   7.956   2.874 -0.2114  0.1589  0.0412
 5014W        W 9214   9.354   3.422  13.390 -0.0398  0.0934 -0.0098
 5015W        W 9215   2.976   2.691  10.262  0.0145  0.2551 -0.1099
 5016W        W 9216   1.202   4.468   9.081 -0.1256 -0.0314 -0.0547
 5017W        W 9217   9.708   1.067   3.130  0.3715 -0.1498 -0.4498
 5018W        W 9218   3.939  10.358   2.752  0.2663  0.2787 -0.2177
 5019W        W 9219   9.471   0.588   4.850  0.1312 -0.1839  0.0698
 5020W        W 9220   5.231   1.455  10.184 -0.2048  0.1288 -0.0631
 5021W        W 9221   2.812   0.061   2.835  0.3663  0.1319 -0.1578
 5022W        W 9222   7.155   4.188  10.739 -0.0088 -0.2164  0.1304
 5023W        W 9223   8.293   3.565   9.316 -0.4247 -0.0424 -0.2582
 5024W        W 9224   7.831   0.005   0.270 -0.3040  0.0297 -0.3117
 5025W        W 9225   4.107   6.274   3.838  0.0493 -0.1042 -0.1147
 5026W        W 9226   6.265   3.627  13.117 -0.1635 -0.1207  0.0360
 5027W        W 9227   3.247   0.736   1.617 -0.1108 -0.2283  0.0842
 5028W        W 9228   9.562   9.683   1.760  0.1100  0.2487  0.1989
 5029W        W 9229   6.962   3.153  12.015  0.1569  0.3309  0.0890
 5030W        W 9230   0.374   6.582  11.552  0.1406 -0.1214  0.0501
 5031W        W 9231   1.865   0.138  11.444 -0.0690 -0.1919 -0.0385
 5032W        W 9232   9.508   6.316   4.553 -0.0530 -0.0611  0.1879
 5033W        W 9233   2.187   5.250   8.634  0.0033  0.2449 -0.4092
 5034W        W 9234   5.214   4.796  13.240  0.0864  0.2539 -0.2279
 5035W        W 9235   6.279   0.954  11.369 -0.2172  0.1993  0.1277
 5036W        W 9236   6.350   1.680   1.573 -0.0157  0.2573  0.1299
 5037W        W 9237   0.544   8.907   0.722  0.1129  0.0998  0.1067
 5038W        W 9238   7.331   8.009   4.840  0.2197  0.1010 -0.1458
 5039W        W 9239   4.613   1.153   1.451  0.0210 -0.0386  0.0225
 5040W        W 9240   3.466   2.811  11.381  0.4419  0.1568 -0.0506
 5041W        W 9241   8.924   7.461  10.187  0.1390  0.3553 -0.0768
 5042W        W 9242   6.705   1.685   3.157 -0.1102  0.0387 -0.1756
 5043W        W 9243   9.165   2.515   9.755 -0.1022  0.1246 -0.1690
 5044W        W 9244   1.558   8.414   9.462  0.1470  0.0713  0.1159
 5045W        W 9245   0.721   3.198   2.487 -0.2388  0.0123  0.2414
 5046W        W 9246   8.682   1.527  12.443  0.0350  0.3965 -0.1136
 5047W        W 9247   6.243   9.529   1.951 -0.1269  0.0080  0.2751
 5048W        W 9248  10.203   0.698   3.666 -0.0529 -0.1618  0.0968
 5049W        W 9249   3.500   7.379  12.100 -0.0704 -0.1767  0.1590
 5050W        W 9250   8.471   4.311   9.828 -0.0180  0.1638  0.0105
 5051W        W 9251   2.688   9.421   1.074  0.1290 -0.2664 -0.0553
 5052W        W 9252   7.030   0.054   3.435  0.1539 -0.0159 -0.1124
 5053W        W 9253   8.149   4.662  11.689  0.0304 -0.2561 -0.0122
 5054W        W 9254   1.249   5.426  12.108  0.0659 -0.4253  0.0980
 5055W        W 9255  10.357   0.750  11.225  0.2056 -0.1161  0.0027
 5056W        W 9256   2.245   8.637  12.495  0.0891 -0.0215 -0.0871
 5057W        W 9257   4.256   3.065  12.535  0.4189 -0.1590 -0.1447
 5058W        W 9258   6.812   2.922   9.792  0.2692 -0.0950 -0.0232
 5059W        W 9259   6.645   4.817  11.137 -0.0843 -0.1629  0.0205
 5060W        W 9260   6.083   4.695  13.229 -0.1016  0.1188  0.0358
 5061W        W 9261   6.516   7.059  11.586  0.1896  0.0686 -0.1031
 5062W        W 9262   2.738   8.859   2.420  0.0169  0.1840  0.2219
 5063W        W 9263   4.995   0.337  11.823 -0.3208  0.0450 -0.1940
 5064W        W 9264   2.769   2.930  12.632  0.1020  0.0839 -0.2534
 5065W        W 9265   5.338   8.216   0.975  0.1257 -0.0130 -0.1059
 5066W        W 9266  10.187   6.645   0.442 -0.0792 -0.3237 -0.0834
 5067W        W 9267   3.195  10.295  12.973  0.1267  0.2113  0.0028
 5068W        W 9268   8.066   2.974   0.464 -0.0299 -0.0590  0.0969
 5069W        W 9269   6.964   7.476  12.396 -0.2175  0.2406  0.2643
 5070W        W 9270   9.746   8.306   1.110  0.2224 -0.0923 -0.0493
 5071W        W 9271   8.369   8.882   3.847 -0.0907  0.0747  0.3305
 5072W        W 9272   7.388   3.318  12.233 -0.0832  0.0887 -0.2151
 5073W        W 9273   9.239   1.458   2.123  0.1962 -0.2199  0.0970
 5074W        W 9274   2.402   1.794   1.179  0.1959  0.1989  0.0283
 5075W        W 9275   8.038   0.656   1.740 -0.0039  0.2611 -0.1433
 5076W        W 9276   4.662   3.536  10.823 -0.1708  0.1995 -0.3480
 5077W        W 9277   2.351   6.854  12.067 -0.2574  0.0751 -0.1107
 5078W        W 9278   6.869   0.127   2.521 -0.2923  0.1935 -0.1008
 5079W        W 9279   4.294   8.036   9.720  0.0722 -0.4348  0.2126
 5080W        W 9280   8.551   4.666   2.310  0.2420 -0.2122  0.1394
 5081W        W 9281   3.057   9.190   0.706  0.1767  0.1985  0.1305
 5082W        W 9282   3.490   1.518   0.401 -0.2069  0.2283 -0.2432
 5083W        W 9283   3.580   2.122  10.215  0.1136 -0.2301 -0.0397
 5084W        W 9284   3.752   9.922   3.052  0.0095  0.0240  0.2351
 5085W        W 9285   8.685   8.800  11.171  0.2737 -0.1430 -0.3098
 5086W        W 9286   1.432   9.832   4.145  0.1362  0.1157 -0.2681
 5087W        W 9287   6.871   0.769   3.006  0.1642 -0.1130 -0.1078
 5088W        W 9288   5.271  10.258   9.885 -0.3544  0.0415 -0.0621
 5089W        W 9289   9.623  10.161   9.501  0.3054  0.2125  0.0697
 5090W        W 9290   0.385   7.994  10.770 -0.3162 -0.0016  0.3718
 5091W        W 9291   1.142   7.135   2.589 -0.1184 -0.1488 -0.2567
 5092W        W 9292   2.976   0.718  12.286  0.1316 -0.0082  0.3461
 5093W        W 9293   4.894   3.842   2.208  0.1518 -0.0047 -0.3192
 5094W        W 9294   0.040   7.309   3.202 -0.1720  0.3392  0.1646
 5095W        W 9295   7.062   2.497   2.580 -0.3334 -0.0399 -0.1347
 5096W        W 9296  10.146   4.022   4.160  0.2919  0.1602  0.0540
 5097W        W 9297   9.785   8.481   2.495 -0.1093  0.1976  0.1792
 5098W        W 9298   0.310  10.451  13.346  0.2418  0.1038  0.0386
 5099W        W 9299   1.905   6.657  12.178 -0.0654  0.0362 -0.1392
 5100W        W 9300   3.570   1.629  11.004 -0.1402 -0.1455 -0.2432
 5101W        W 9301   3.312   9.465  11.659  0.0518  0.1165 -0.3274
 5102W        W 9302   3.578   2.244   9.420 -0.0298  0.0230  0.1066
 5103W        W 9303   8.055   4.369   3.002 -0.0217  0.1423 -0.0158
 5104W        W 9304   9.179   7.105   3.621 -0.3223  0.3908  0.2601
 5105W        W 9305   5.628   6.007   2.540  0.1207 -0.1327  0.2529
 5106W        W 9306   2.220   1.331   2.841  0.0058 -0.0056  0.3737
 5107W        W 9307   8.344   1.072   9.504  0.3391 -0.1782  0.0770
 5108W        W 9308   7.588   4.735   9.882 -0.1230 -0.0175 -0.0815
 5109W        W 9309   3.428   4.060   4.592  0.0800 -0.3252  0.2211
 5110W        W 9310   0.078   2.538   9.670  0.2378  0.0615  0.1030
 5111W        W 9311   1.989   2.516  12.084 -0.3104 -0.0163  0.0699
 5112W        W 9312   4.062   0.653  12.644 -0.1866  0.1339  0.0063
 5113W        W 9313   0.773   9.870   1.332 -0.1839  0.0133  0.1044
 5114W        W 9314  10.316  10.480   0.221  0.0490 -0.0573 -0.1049
 5115W        W 9315   7.532   9.405   0.660  0.2064  0.1571 -0.0806
 5116W        W 9316   4.453   0.435   0.291  0.2135 -0.2115  0.2634
 5117W        W 9317   6.227   6.462   1.206 -0.1219  0.0793 -0.2181
 5118W        W 9318   7.427   1.637  10.302  0.0089  0.0380 -0.1750
 5119W        W 9319   8.780   3.172   1.817 -0.2013 -0.2282  0.1850
 5120W        W 9320  10.173   5.040  10.362 -0.0879 -0.2105  0.1401
 5121W        W 9321   1.898   9.063  13.391  0.2412 -0.0976  0.0210
 5122W        W 9322   9.319  10.132  10.122  0.1213 -0.3007 -0.0549
 5123W        W 9323   1.624   1.946   0.100 -0.2365 -0.0106 -0.0217
 5124W        W 9324   3.947   6.696   3.151 -0.0033 -0.0874  0.1261
 5125W        W 9325   8.799   3.474   4.225 -0.0743  0.2541 -0.1028
 5126W        W 9326   0.603   3.102  13.259 -0.0532 -0.1188 -0.0401
 5127W        W 9327   0.761   1.864  11.384 -0.1593  0.1057  0.2675
 5128W        W 9328   5.450   4.024   9.251  0.1012 -0.0449  0.2310
 5129W        W 9329   4.297   8.696  10.019 -0.0362 -0.0535  0.2111
 5130W        W 9330   3.835   4.560  10.592 -0.1629 -0.0301 -0.0539
 5131W        W 9331  10.411   5.807  10.554 -0.2114 -0.0150  0.2588
 5132W        W 9332   9.608   2.963  11.647 -0.0421  0.4088  0.1031
 5133W        W 9333   6.564   7.549   2.126  0.1241 -0.0020  0.0545
 5134W        W 9334   6.382   0.831   3.245 -0.0566 -0.2132  0.0583
 5135W        W 9335   6.585   0.207   8.706 -0.0222  0.2235  0.2142
 5136W        W 9336   0.285   9.732   0.710  0.4850 -0.0862  0.2072
 5137W        W 9337   3.037   3.733   2.077 -0.1573 -0.1470  0.0360
 5138W        W 9338   6.550   8.855  11.046  0.1660  0.0165 -0.1206
 5139W        W 9339   1.390   8.696   2.240  0.0609 -0.2628  0.0713
 5140W        W 9340   8.359   7.325   3.776 -0.0933 -0.1208 -0.0307
 5141W        W 9341   7.592   2.219   4.129 -0.1168 -0.1344  0.2117
 5142W        W 9342   0.818   5.306   9.417 -0.2899 -0.0439  0.1317
 5143W        W 9343   1.180   1.980  10.550 -0.1224 -0.1427 -0.1609
 5144W        W 9344   0.249   2.030   1.408  0.0358 -0.0896  0.1896
 5145W        W 9345   6.186   4.695  11.934  0.0038  0.1553 -0.1960
 5146W        W 9346   1.154   5.626  11.075 -0.0400  0.3389 -0.1459
 5147W        W 9347   6.145   1.070  13.229 -0.0615 -0.0145 -0.0597
 5148W        W 9348   2.357   7.268   2.385 -0.1520  0.2453  0.1940
 5149W        W 9349   0.290   9.562   2.106  0.1692 -0.4017 -0.4178
 5150W        W 9350  10.044   5.278   3.575  0.0668 -0.0804  0.2047
 5151W        W 9351   8.303   4.355  12.316 -0.2036  0.0384  0.3959
 5152W        W 9352   6.890   5.219   2.731  0.1637 -0.2564 -0.0907
 5153W        W 9353   1.213   8.388   4.876  0.0750  0.0578 -0.1926
 5154W        W 9354   0.350   1.560   2.772 -0.2974 -0.0685  0.2050
 5155W        W 9355   8.911   0.382   2.769 -0.0883 -0.0653 -0.3432
 5156W        W 9356   5.131   9.477  12.151  0.1506  0.2788  0.0671
 5157W        W 9357  10.009   4.303   0.769 -0.0897  0.1675 -0.3225
 5158W        W 9358   1.475   2.565   3.980 -0.1083 -0.1506 -0.0744
 5159W        W 9359   2.989   8.432   9.134 -0.4179 -0.0614 -0.2926
 5160W        W 9360   1.295   7.211   0.824  0.0686 -0.0926  0.0787
 5161W        W 9361   3.748  10.312   1.107 -0.0199  0.0808  0.1870
 5162W        W 9362   1.235   1.913   0.524 -0.1374  0.1414 -0.0654
 5163W        W 9363   0.325   5.485   7.780 -0.0588  0.1693  0.0470
 5164W        W 9364   9.011   1.849   8.959  0.0887  0.2048  0.0551
 5165W        W 9365   5.484   7.202  13.314 -0.2559  0.1248 -0.0013
 5166W        W 9366   0.375   4.915  12.185  0.0550 -0.2553 -0.1024
 5167W        W 9367   9.558   6.024  11.204 -0.2710 -0.1416  0.2023
 5168W        W 9368   9.910   2.211   9.214  0.3102  0.2327 -0.2193
 5169W        W 9369   1.963   5.728   2.214  0.1438 -0.0930 -0.2453
 5170W        W 9370   6.027   8.754   2.468 -0.0261 -0.1782 -0.2444
 5171W        W 9371   5.212   7.262   0.825 -0.0561  0.2448  0.0225
 5172W        W 9372  10.476   7.970   1.433 -0.0835  0.1512 -0.2761
 5173W        W 9373   9.488   0.027   9.802  0.1716 -0.1481  0.0497
 5174W        W 9374   1.516   0.998   0.096  0.1880  0.0912 -0.3940
 5175W        W 9375   0.104   3.754  11.178 -0.0443  0.0647  0.1520
 5176W        W 9376   2.235   8.637  11.009  0.0718  0.0839 -0.1371
 5177W        W 9377   5.115   2.711   9.602 -0.1264 -0.1128 -0.2375
 5178W        W 9378   9.280   0.070  10.507  0.0611 -0.0276  0.2068
 5179W        W 9379   1.718   4.557   1.022 -0.0333 -0.1738 -0.0073
 5180W        W 9380   7.192   7.755   9.668 -0.0915  0.1947 -0.1541
 5181W        W 9381   3.333   5.586   9.912 -0.0293  0.1162 -0.1066
 5182W        W 9382  10.385   9.784   1.329 -0.0040 -0.1396  0.1396
 5183W        W 9383   2.425   3.328  13.387 -0.0541  0.4731 -0.0159
 5184W        W 9384   6.675   9.271  10.722 -0.0820  0.1462 -0.0309
 5185W        W 9385   8.973   9.972   1.309 -0.2027  0.3810  0.0574
 5186W        W 9386   0.634   4.678   2.995 -0.0232  0.2433 -0.0702
 5187W        W 9387   8.501   7.700   3.469  0.0022 -0.1308 -0.1092
 5188W        W 9388   3.956   0.916   4.106  0.3939  0.1941  0.2903
 5189W        W 9389   2.905   0.171  11.509  0.1481  0.0833 -0.0736
 5190W        W 9390   9.965   3.468   3.572  0.0140 -0.2492  0.0500
 5191W        W 9391   5.923   1.518   1.099  0.0016 -0.0419 -0.2189
 5192W        W 9392   8.229   8.616  12.389  0.0348  0.3197  0.5596
 5193W        W 9393   5.900   7.507   2.574 -0.2105 -0.1546  0.0928
 5194W        W 9394   2.657  10.253   2.347 -0.1426 -0.1009  0.1711
 5195W        W 9395   1.186   6.273  12.649  0.3145 -0.0756 -0.0872
 5196W        W 9396   1.290   3.212  12.844 -0.1734 -0.2912  0.0073
 5197W        W 9397   2.412   4.234  12.140 -0.1967  0.0684 -0.3923
 5198W        W 9398   7.269  10.275   2.583 -0.1901  0.1857 -0.1686
 5199W        W 9399   7.582   6.422  11.421 -0.0572  0.0669  0.1875
 5200W        W 9400   2.609   4.316  10.782  0.1096 -0.2044 -0.1310
 5201W        W 9401   4.334   8.004   1.668  0.1670  0.1554 -0.0315
 5202W        W 9402   0.781   3.809   3.370  0.0089 -0.3295 -0.0250
 5203W        W 9403   3.355   7.300   4.118  0.1349  0.2554 -0.0264
 5204W        W 9404   4.036   7.526  13.131  0.0074  0.2916 -0.2976
 5205W        W 9405   3.871   7.619   2.371 -0.0111 -0.0126  0.1506
 5206W        W 9406   8.250  10.045   2.438 -0.0990  0.1709 -0.0111
 5207W        W 9407   5.984   3.165   1.882  0.1233  0.0319  0.4165
 5208W        W 9408   8.542   8.397   0.627 -0.2146 -0.0752  0.1687
 5209W        W 9409   4.475  10.496  12.515  0.1319  0.1247  0.1805
 5210W        W 9410   7.336   6.359  10.585 -0.1164 -0.1171 -0.0778
 5211W        W 9411   5.531   2.031  12.960  0.0850 -0.4844 -0.0849
 5212W        W 9412   9.579   1.629  10.998  0.3144  0.0289  0.0077
 5213W        W 9413   6.144   4.114   4.808  0.0464  0.1891 -0.4181
 5214W        W 9414   6.631   2.527   1.567  0.0476  0.0466 -0.0953
 5215W        W 9415   0.541   4.111  11.847  0.1893  0.3046  0.0476
 5216W        W 9416   3.617   4.402   9.411  0.1485  0.0692 -0.0206
 5217W        W 9417   3.017  10.086   3.118 -0.2099  0.0220 -0.0394
 5218W        W 9418   0.062   3.730   1.594  0.2664  0.1967  0.0218
 5219W        W 9419   3.865   2.954  12.191 -0.2812 -0.1560  0.0953
 5220W        W 9420   2.109   8.258  10.314 -0.0052 -0.0492 -0.4044
 5221W        W 9421   6.407  10.329   2.702  0.0519 -0.0567  0.1892
 5222W        W 9422  10.164   3.092   2.792 -0.2855  0.2255 -0.0750
 5223W        W 9423   1.990   0.887  13.251  0.0569  0.2941  0.1516
 5224W        W 9424   0.881   6.946   0.279 -0.0461  0.2705  0.1640
 5225W        W 9425   6.496   3.819   2.416  0.0128 -0.0540  0.0367
 5226W        W 9426   9.516   5.940   9.745  0.0616 -0.0223 -0.0811
 5227W        W 9427   4.705   8.330   3.447 -0.1257 -0.2179  0.3731
 5228W        W 9428   4.126   8.627   0.777  0.0192 -0.2219  0.0191
 5229W        W 9429   5.909   9.599  11.529  0.2868  0.1084 -0.1441
 5230W        W 9430   5.505   4.247  12.401  0.0253 -0.2460 -0.3665
 5231W        W 9431   1.960   6.395  10.335  0.0844 -0.3184 -0.1360
 5232W        W 9432   7.642  10.257   0.648  0.0791 -0.1862 -0.0217
 5233W        W 9433   4.852   1.100  11.252 -0.4572  0.1469 -0.2685
 5234W        W 9434   6.113   3.215   9.856  0.2608 -0.0975  0.1095
 5235W        W 9435   8.612   5.574  13.209  0.1093 -0.1832  0.0884
 5236W        W 9436  10.221   3.890   2.420  0.4279 -0.1615  0.2229
 5237W        W 9437   4.461   4.692   1.350 -0.0269  0.1289 -0.0103
 5238W        W 9438   8.077   3.209  11.043  0.2072 -0.1416 -0.0496
 5239W        W 9439   9.361   8.681   9.837 -0.1541 -0.4720 -0.3513
 5240W        W 9440   5.186   3.919   3.915  0.2240  0.1188  0.3966
 5241W        W 9441   8.628   8.050  12.981 -0.0750 -0.2053 -0.0691
 5242W        W 9442   1.639   9.821  10.135 -0.3622  0.0469 -0.1788
 5243W        W 9443   7.249   5.571   2.700 -0.1934  0.0556  0.0588
 5244W        W 9444   0.896   1.650  11.856 -0.0543 -0.0090  0.1032
 5245W        W 9445   6.893   5.573   2.371 -0.1908 -0.1887 -0.0671
 5246W        W 9446   0.649   4.484   0.852 -0.0880  0.2660 -0.1389
 5247W        W 9447   9.248   3.071   0.356 -0.0744 -0.2012 -0.1781
 5248W        W 9448   6.625   1.364   0.615  0.3254 -0.1340 -0.2328
 5249W        W 9449   9.632   6.206   9.355  0.1085 -0.1057 -0.0510
 5250W        W 9450   1.952   6.009  10.622 -0.2120 -0.1019  0.0465
 5251W        W 9451   7.769   0.240   9.283 -0.2048  0.1379 -0.2455
 5252W        W 9452   7.007   5.428  10.429 -0.3285 -0.0568  0.2376
 5253W        W 9453   8.684   7.051   2.114  0.0221 -0.1808 -0.0469
 5254W        W 9454   3.724   8.822  10.894 -0.0466  0.1041 -0.3351
 5255W        W 9455   6.944   6.030   2.544  0.0274 -0.3556  0.2368
 5256W        W 9456   4.481   8.533  13.202 -0.1519 -0.0371  0.0075
 5257W        W 9457   4.608   3.272   9.973 -0.1985 -0.2544  0.0283
 5258W        W 9458   1.032   6.521  12.243  0.2060 -0.3529 -0.0932
 5259W        W 9459   3.706   5.098   2.659 -0.0799  0.0309  0.0256
 5260W        W 9460   7.596   0.979   8.786  0.1053 -0.1280  0.0706
 5261W        W 9461   3.293   9.599   0.809  0.1415  0.0803 -0.0780
 5262W        W 9462   9.160   7.422  10.590  0.0248  0.2611  0.0747
 5263W        W 9463   5.877   3.957   8.997 -0.1837  0.0698 -0.0422
 5264W        W 9464   8.206   5.315   8.893 -0.2222 -0.2191  0.0665
 5265W        W 9465   4.615   4.629   1.785  0.1168  0.0642 -0.2087
 5266W        W 9466   6.869   7.835  11.958 -0.1484  0.1794  0.2743
 5267W        W 9467   4.070   0.110   9.865  0.1438 -0.1030 -0.3267
 5268W        W 9468   4.820   4.056  11.842  0.1309 -0.1782 -0.0041
 5269W        W 9469   3.298   2.291   0.047  0.1713  0.1007 -0.4027
 5270W        W 9470   3.069   0.677   0.077 -0.0992 -0.3112  0.2269
 5271W        W 9471  10.484   4.343   2.477 -0.0326 -0.0443 -0.0770
 5272W        W 9472   0.881   1.551   8.875 -0.1803 -0.3018  0.3121
 5273W        W 9473   1.079   7.160  10.698 -0.1943 -0.0356  0.0831
 5274W        W 9474   6.876   5.481   1.375  0.1696 -0.0547 -0.0338
 5275W        W 9475   6.421   7.865  11.214 -0.1015  0.3609  0.1066
 5276W        W 9476   4.207   6.853   2.159  0.0509  0.0765  0.0895
 5277W        W 9477   8.886   8.349  11.133 -0.0546  0.0815  0.0137
 5278W        W 9478   3.466   4.262  11.678  0.0268 -0.0022  0.1213
 5279W        W 9479   4.385   1.106  10.998 -0.0867  0.0422  0.0323
 5280W        W 9480   0.265   9.283   9.133 -0.3631 -0.1115  0.1413
 5281W        W 9481   5.975   9.210   0.601  0.0998 -0.0656 -0.1869
 5282W        W 9482   3.638   0.450  10.431  0.2025  0.0995 -0.0250
 5283W        W 9483   6.057   2.228   3.717 -0.1930 -0.3604  0.0370
 5284W        W 9484   2.847   9.661  10.400 -0.4789 -0.1843 -0.1176
 5285W        W 9485   8.091   9.146   4.193 -0.0628  0.2258  0.1405
 5286W        W 9486   0.934   5.594   0.841  0.1065  0.0957 -0.0423
 5287W        W 9487   8.073   9.782   5.274  0.1242 -0.1471  0.5198
 5288W        W 9488   9.494   5.738   2.649  0.2038  0.0860  0.2482
 5289W        W 9489   6.778   5.232  10.825  0.0863  0.0868  0.0610
 5290W        W 9490   4.605   3.471   2.862 -0.2602 -0.2258 -0.3552
 5291W        W 9491  10.445   8.874   9.125  0.0619 -0.4314  0.2045
 5292W        W 9492   8.370   1.759  10.365 -0.1773  0.2396 -0.0120
 5293W        W 9493   4.940   8.372  13.128  0.3912  0.0877  0.2419
 5294W        W 9494   1.566   4.889   9.938  0.1052 -0.1475  0.1330
 5295W        W 9495   4.794   2.819  10.747 -0.0377  0.1730  0.4140
 5296W        W 9496   2.056   0.842   0.381  0.1694  0.0020  0.1453
 5297W        W 9497   9.635   0.626  10.937  0.1137  0.1130  0.0949
 5298W        W 9498   5.322  10.389   2.709 -0.0099 -0.0657  0.1902
 5299W        W 9499   5.580   9.552   0.552 -0.2573 -0.0468  0.0566
 5300W        W 9500   0.289   0.084   0.961 -0.0347 -0.1115 -0.1695
 5301W        W 9501   1.227   3.677   0.708 -0.1113  0.0083 -0.1955
 5302W        W 9502   2.518   7.159  11.327  0.3360  0.2748  0.0440
 5303W        W 9503   5.731   2.745  10.349 -0.1780  0.2318  0.0728
 5304W        W 9504   8.921   0.003   0.518 -0.0749 -0.3264  0.1815
 5305W        W 9505   8.101   7.101  11.678 -0.0624 -0.3141 -0.1346
 5306W        W 9506   1.597   4.057   0.776 -0.2219  0.0085 -0.1154
 5307W        W 9507   1.554   1.202   3.646 -0.2263 -0.1260 -0.0516
 5308W        W 9508   2.888   9.914  12.808  0.2386  0.0334  0.3211
 5309W        W 9509   9.934   7.268   9.952  0.2899 -0.3111 -0.1202
 5310W        W 9510  10.056   5.727  12.703 -0.1464 -0.0370 -0.1833
 5311W        W 9511   2.632   3.663   3.003  0.0386  0.0520  0.1973
 5312W        W 9512   2.394   5.784   9.755  0.0061 -0.1096  0.1003
 5313W        W 9513   7.628   0.210   0.939 -0.0451  0.0865 -0.0762
 5314W        W 9514   6.500   3.454  11.224 -0.1882 -0.2207  0.2165
 5315W        W 9515   5.318   2.076   9.736 -0.2111 -0.3049 -0.0885
 5316W        W 9516   0.164   9.239   3.079  0.2028  0.1721  0.2895
 5317W        W 9517   4.230   1.329  11.927  0.1027 -0.1133 -0.0355
 5318W        W 9518  10.147   3.663   8.915  0.1417 -0.0284 -0.1330
 5319W        W 9519   9.708   3.549  12.522  0.2531  0.1784 -0.1350
 5320W        W 9520   6.211   7.767   9.788 -0.1127 -0.0144 -0.0914
 5321W        W 9521   5.417  10.213   3.175  0.1813 -0.1678  0.2935
 5322W        W 9522   4.363  10.327  10.984  0.1058 -0.1436  0.1866
 5323W        W 9523   5.421   9.366   3.892 -0.0654  0.0938  0.2473
 5324W        W 9524   5.401   9.724  11.645 -0.0781 -0.0520 -0.0464
 5325W        W 9525   0.057   0.726   9.186  0.1495 -0.0808  0.0459
 5326W        W 9526   6.042   4.308   1.305 -0.2453 -0.0188  0.0897
 5327W        W 9527   2.961   5.454   8.207 -0.0990 -0.2085 -0.0050
 5328W        W 9528   8.389   2.419  12.033  0.2305 -0.0850 -0.0766
 5329W        W 9529   4.357   6.701   4.095  0.1535  0.2069  0.1702
 5330W        W 9530   3.219   8.258  12.154 -0.1876  0.1902 -0.4152
 5331W        W 9531   0.923   2.428   3.202 -0.0459 -0.3396 -0.2125
 5332W        W 9532   9.233   3.169   2.524  0.2219 -0.3303  0.1624
 5333W        W 9533   8.796   9.816  12.097  0.0597 -0.0423  0.0140
 5334W        W 9534   5.891   7.257   0.168 -0.0826  0.0485 -0.3244
 5335W        W 9535   4.392   9.334   9.313 -0.3641  0.1844 -0.2143
 5336W        W 9536   0.567   1.503  11.112  0.1750  0.1629 -0.0382
 5337W        W 9537   5.169   3.333  12.398 -0.1941  0.0132 -0.1554
 5338W        W 9538   6.008   6.547  11.860 -0.1791  0.0725  0.1084
 5339W        W 9539   6.589   6.726   2.544  0.0113 -0.2092  0.2351
 5340W        W 9540   9.041   4.746  12.791 -0.0724  0.1498 -0.4352
 5341W        W 9541   7.322   5.243   1.542 -0.2171  0.1485 -0.4659
 5342W        W 9542   9.781   0.936   3.597 -0.0092  0.2295  0.1657
 5343W        W 9543   8.183   3.385  11.950  0.3607 -0.1813  0.0499
 5344W        W 9544   7.846   3.009  10.624  0.0388 -0.4440  0.1106
 5345W        W 9545   2.322   6.662   1.756 -0.0061  0.0680  0.5610
 5346W        W 9546   2.936   6.664   2.868 -0.1957 -0.1919  0.1339
 5347W        W 9547   2.320   5.176  10.633 -0.3072  0.0141  0.0908
 5348W        W 9548   3.974   6.544  13.004  0.0898 -0.2267 -0.1153
 5349W        W 9549   1.302   6.951   9.955  0.1035  0.0475 -0.1614
 5350W        W 9550   1.065   1.493   1.495 -0.0014  0.0941  0.0313
 5351W        W 9551   5.033   2.356  11.427  0.1126 -0.0059 -0.3914
 5352W        W 9552   5.235   8.716   0.947  0.2383  0.5374 -0.1521
 5353W        W 9553   1.473   4.570   0.147 -0.1388  0.1311 -0.1745
 5354W        W 9554   5.297   0.285   0.889  0.2695  0.0193  0.2661
 5355W        W 9555   1.056   8.696   9.547 -0.5167  0.1122 -0.1849
 5356W        W 9556   2.979   5.208   1.752 -0.0302  0.1338  0.3058
 5357W        W 9557   1.412   7.318   3.382  0.1395  0.2860 -0.0003
 5358W        W 9558   3.136   2.347  11.540 -0.0888  0.1466 -0.1117
 5359W        W 9559   9.294   8.867   3.998  0.0240  0.0326 -0.3733
 5360W        W 9560   1.337  10.300   9.935 -0.0929  0.0651 -0.0296
 5361W        W 9561   4.866   0.237   1.210 -0.0749  0.0591  0.0514
 5362W        W 9562   3.102   1.318  10.908  0.4139 -0.0941 -0.2498
 5363W        W 9563   8.171   5.706  11.326 -0.2230 -0.4135 -0.0475
 5364W        W 9564   1.678   7.409   3.754 -0.0329  0.2769 -0.0757
 5365W        W 9565   5.993   9.698   3.237  0.0309 -0.4794 -0.2276
 5366W        W 9566  10.164   3.149  12.321 -0.6136 -0.0115  0.0262
 5367W        W 9567   8.246   8.317   4.667  0.2136  0.1653  0.1670
 5368W        W 9568   7.942   3.372   1.280 -0.0713 -0.0344  0.2239
 5369W        W 9569   7.774   1.381   0.482  0.0836  0.2946 -0.1905
 5370W        W 9570   7.281   3.625   1.950 -0.0984 -0.2867 -0.1809
 5371W        W 9571   1.956  10.302   2.492 -0.0192  0.0954 -0.1937
 5372W        W 9572   2.223   4.162   4.402  0.0482  0.1314 -0.0171
 5373W        W 9573   6.566   7.846   1.137 -0.0911  0.3460 -0.1472
 5374W        W 9574   3.443   9.552  12.949 -0.1243  0.0084 -0.5745
 5375W        W 9575   2.350   2.287   1.212 -0.0203  0.0495 -0.1761
 5376W        W 9576   0.058   4.008   0.133 -0.1309  0.1172 -0.0877
 5377W        W 9577   4.191   9.143  11.822  0.0036 -0.3016 -0.0708
 5378W        W 9578   3.950   1.065   0.021 -0.1343 -0.0817  0.0725
 5379W        W 9579   1.645   1.095  12.959 -0.0039  0.1119 -0.1911
 5380W        W 9580   8.561   7.261  11.394 -0.1829 -0.2028 -0.1067
 5381W        W 9581   1.705   3.883  12.739  0.2663 -0.0115 -0.0925
 5382W        W 9582   3.998   3.922   0.333 -0.0741  0.0908  0.0413
 5383W        W 9583   6.023   4.971  12.798 -0.3160  0.4481  0.2701
 5384W        W 9584   5.040   9.591   3.596  0.1392  0.1941  0.0173
 5385W        W 9585   7.821   3.849   4.709 -0.1189 -0.0151 -0.1201
 5386W        W 9586   7.325   1.179  10.486 -0.2488  0.3399 -0.1527
 5387W        W 9587   4.768   5.143   2.505  0.1652 -0.1941  0.0868
 5388W        W 9588   6.260   8.291  13.102 -0.1817  0.0559  0.1828
 5389W        W 9589   9.792   9.745  12.678 -0.0198 -0.1020  0.0690
 5390W        W 9590   8.339   3.215  13.238 -0.3942 -0.0091  0.3972
 5391W        W 9591   2.406   7.865  10.590  0.5468 -0.1827 -0.5954
 5392W        W 9592   5.199   2.290  12.040  0.2979  0.3483  0.2427
 5393W        W 9593   2.163   2.483   9.692  0.2573  0.3972  0.0608
 5394W        W 9594   3.352   9.652  12.154 -0.1426 -0.0896 -0.3244
 5395W        W 9595   7.766   8.438   2.705 -0.0396  0.0079  0.0135
 5396W        W 9596   5.912   2.594  10.842 -0.0309  0.0703  0.1499
 5397W        W 9597   3.340   6.868   2.363 -0.0053 -0.2191 -0.1578
 5398W        W 9598   5.798   3.410   9.388 -0.0207 -0.0349 -0.1512
 5399W        W 9599   7.617   2.861  12.829 -0.0756 -0.0780  0.0784
 5400W        W 9600   6.625   5.840  11.080  0.1164 -0.0909 -0.2162
 5401W        W 9601   5.513   1.117   0.986  0.1933 -0.0836 -0.2318
 5402W        W 9602   6.506   1.925  13.365  0.1492 -0.1602  0.2730
 5403W        W 9603   6.100   8.664   3.508  0.0241  0.4320  0.1627
 5404W        W 9604   8.011   1.383   1.681 -0.2263 -0.1089  0.1087
 5405W        W 9605   6.421   4.033   2.894  0.0113  0.1439  0.1072
 5406W        W 9606   5.906   3.945  10.174 -0.1166  0.0542 -0.3098
 5407W        W 9607   0.315   3.698  11.687 -0.1031 -0.0500  0.6556
 5408W        W 9608   8.124  10.149   4.407  0.0204  0.1937 -0.1398
 5409W        W 9609   4.835   9.905  12.078 -0.1125  0.0383 -0.1989
 5410W        W 9610   9.935   4.070  10.290 -0.2247  0.2160  0.0028
 5411W        W 9611   0.630   9.398   0.475  0.1364  0.1383  0.0491
 5412W        W 9612   9.199   4.354   4.046 -0.0958 -0.0541  0.1538
 5413W        W 9613   6.978   9.235  11.133  0.0069  0.1716 -0.0365
 5414W        W 9614   8.200   8.616  10.372  0.2595  0.1818 -0.1498
 5415W        W 9615   2.667   4.213   1.045 -0.0432  0.0321  0.3286
 5416W        W 9616   7.188   2.869   3.842  0.2252 -0.0430  0.0377
 5417W        W 9617   5.032   5.403   3.598  0.2697 -0.1457 -0.3972
 5418W        W 9618   8.834   0.915   4.112  0.1848 -0.1982  0.0195
 5419W        W 9619   9.162   8.454  10.703 -0.0497 -0.1709  0.4429
 5420W        W 9620   8.042   5.644   9.945 -0.0548  0.0785 -0.1956
 5421W        W 9621   1.787   6.165   4.309 -0.3322 -0.0183  0.0868
 5422W        W 9622   5.933   5.208   2.093 -0.0320  0.1825 -0.0785
 5423W        W 9623   5.203   4.759  12.468 -0.2689 -0.5823  0.1949
 5424W        W 9624   7.504   2.874  11.214  0.2929  0.0131 -0.0839
 5425W        W 9625   5.549   0.576   2.354  0.0295  0.2006 -0.0188
 5426W        W 9626   6.039   1.824   2.061  0.1894 -0.1709 -0.1840
 5427W        W 9627   0.582   4.160   2.823 -0.0758 -0.2698 -0.0292
 5428W        W 9628   0.885   9.241  11.027  0.1557  0.2238 -0.0241
 5429W        W 9629   3.766  10.025  12.425 -0.0444 -0.1228 -0.0025
 5430W        W 9630   1.505   9.085   1.858  0.3387 -0.1383 -0.1908
 5431W        W 9631   1.353   3.751  10.443  0.0697  0.0418 -0.0593
 5432W        W 9632  10.042   8.893   2.394 -0.0195  0.2138  0.2314
 5433W        W 9633   8.257   1.755  12.293 -0.1143 -0.1361  0.0896
 5434W        W 9634   4.192   6.239  12.589 -0.0653 -0.1738  0.0519
 5435W        W 9635   4.003   1.145  12.433  0.2146 -0.1081  0.2772
 5436W        W 9636   3.094   3.499   1.215  0.1229  0.2083 -0.0111
 5437W        W 9637   9.346   3.869   9.469 -0.2131 -0.1278  0.0070
 5438W        W 9638   0.730  10.031   3.694  0.1562 -0.0431 -0.2453
 5439W        W 9639   5.364   6.331   1.122  0.3813 -0.2309 -0.2993
 5440W        W 9640   3.237   2.243   2.428 -0.1319 -0.1243 -0.1273
 5441W        W 9641  10.087   2.440  12.573 -0.1555  0.2524 -0.3691
 5442W        W 9642   4.672   5.147  12.977 -0.0707 -0.2166  0.1805
 5443W        W 9643   6.117   9.307  13.318 -0.3418  0.1303  0.4110
 5444W        W 9644   7.792   3.768   0.792  0.1787  0.2704 -0.5055
 5445W        W 9645   4.260   8.150   0.098 -0.3624 -0.0555 -0.3197
 5446W        W 9646   0.321   8.897  10.035  0.0555  0.1446  0.1065
 5447W        W 9647   1.822   6.786  10.049  0.1596  0.0878  0.0672
 5448W        W 9648   2.642   8.955   0.659 -0.2386 -0.1682  0.2944
 5449W        W 9649   5.760   4.638   2.591  0.1654 -0.1346 -0.0502
 5450W        W 9650   0.820   3.561  13.118 -0.0362  0.5475  0.1193
 5451W        W 9651   1.752   2.331  13.011 -0.1362 -0.2391 -0.2149
 5452W        W 9652   3.098   2.792   3.027 -0.0649  0.4088 -0.1339
 5453W        W 9653   2.047  10.372  10.626 -0.0579  0.0731 -0.1907
 5454W        W 9654   0.877   8.794   1.102  0.1304  0.0850  0.1052
 5455W        W 9655   3.397   4.942   8.540 -0.1402  0.2041  0.1480
 5456W        W 9656   4.214   0.585  13.180 -0.1138  0.0092 -0.1689
 5457W        W 9657   7.734  10.129   2.708 -0.1356  0.2582 -0.2694
 5458W        W 9658   6.588   1.196   1.204 -0.0209  0.1666  0.2494
 5459W        W 9659   1.050   4.648   2.182 -0.1587 -0.4314 -0.0823
 5460W        W 9660   3.001   5.061   3.567 -0.0224 -0.1514 -0.0118
 5461W        W 9661   1.724   0.631   2.819  0.3081  0.0969 -0.3248
 5462W        W 9662   3.868   8.172   1.732  0.2020  0.1638 -0.0387
 5463W        W 9663   5.667   1.462   0.573 -0.1782 -0.0347 -0.0138
 5464W        W 9664   7.951   9.782   4.007 -0.1326 -0.1612 -0.1114
 5465W        W 9665   9.341   3.680  11.687  0.1136 -0.0506 -0.0119
 5466W        W 9666   0.230   7.276   2.262  0.0576  0.0748  0.0074
 5467W        W 9667   9.210   1.780   2.589  0.0213  0.0796 -0.0138
 5468W        W 9668   1.837   0.513   1.253  0.0705 -0.0146 -0.1682
 5469W        W 9669   8.907   4.362   1.933  0.3694 -0.0228 -0.2223
 5470W        W 9670   4.875   0.139   0.057  0.0253  0.1147 -0.1670
 5471W        W 9671   2.018   5.549   3.692 -0.1896  0.1528 -0.1017
 5472W        W 9672   8.456   0.214  10.033  0.0528  0.0793 -0.2750
 5473W        W 9673   6.693   8.323  13.367  0.1610  0.3566 -0.2923
 5474W        W 9674   3.043   6.729   4.646 -0.2750 -0.1941  0.0307
 5475W        W 9675   2.120   8.990   3.801 -0.3082 -0.1492  0.2092
 5476W        W 9676   2.662   7.032   3.086 -0.1142  0.2540 -0.3363
 5477W        W 9677   6.736   2.051   0.793  0.2880  0.1358  0.2571
 5478W        W 9678   1.746   6.322   2.662 -0.0872 -0.1825  0.0385
 5479W        W 9679   0.594   7.863  13.108  0.1190 -0.1463 -0.1018
 5480W        W 9680   0.978   0.891  10.559  0.0960 -0.0757 -0.0725
 5481W        W 9681   0.081   9.576  12.306 -0.3516 -0.2679  0.0282
 5482W        W 9682   6.689   4.205   1.091 -0.0555 -0.1679 -0.1761
 5483W        W 9683   4.033   7.641   3.788 -0.3280  0.1379  0.1185
 5484W        W 9684   3.225   6.342   2.533  0.3829 -0.1835 -0.2177
 5485W        W 9685   7.363  10.386   0.267  0.2765 -0.0934  0.2489
 5486W        W 9686   1.876   2.284   4.201  0.1576 -0.0542 -0.2040
 5487W        W 9687   3.616   0.943  10.799 -0.2189  0.1254 -0.0121
 5488W        W 9688   5.954   1.011   1.167 -0.2098 -0.0662  0.1019
 5489W        W 9689   4.345   3.141   1.872 -0.3941 -0.1243 -0.4389
 5490W        W 9690   6.284   5.116  13.177  0.4759  0.2314 -0.2246
 5491W        W 9691   9.998   1.928   9.744  0.0538  0.1398  0.2275
 5492W        W 9692   7.398   6.019  11.018  0.1540 -0.0360  0.0908
 5493W        W 9693   2.183   8.195   2.993 -0.3172  0.2852  0.0115
 5494W        W 9694   7.969   3.728  11.631  0.1052 -0.1235 -0.0613
 5495W        W 9695   3.315   3.688   0.038  0.0913  0.0211  0.0972
 5496W        W 9696  10.070   8.825  13.308  0.2743  0.1533 -0.2295
 5497W        W 9697   7.139   1.785   4.954  0.2279 -0.2499  0.2414
 5498W        W 9698   5.355   5.358  12.309 -0.0149 -0.0021  0.0629
 5499W        W 9699   3.109   1.278  11.642  0.0175  0.2896  0.0699
 5500W        W 9700   6.754   8.996   9.210  0.0943  0.1006 -0.0232
 5501W        W 9701   3.927   8.475   0.303  0.2960 -0.0701  0.1268
 5502W        W 9702   0.636   5.302  10.406  0.2214 -0.2799  0.0689
 5503W        W 9703   3.932   3.019   9.169 -0.1357 -0.2800  0.0064
 5504W        W 9704   0.080   0.561   9.679 -0.2596 -0.0661 -0.1871
 5505W        W 9705   3.550   8.035   2.455  0.0393 -0.0409  0.1098
 5506W        W 9706   3.609   5.518   0.076 -0.0410  0.1057 -0.0986
 5507W        W 9707   4.098   3.672   1.105 -0.2184 -0.2665  0.0915
 5508W        W 9708   3.418   6.753   2.860 -0.1363 -0.0820  0.2020
 5509W        W 9709   1.894   5.073  10.904 -0.1008  0.1665  0.0789
 5510W        W 9710   1.919   5.708   1.713  0.0132 -0.0643 -0.3042
 5511W        W 9711   5.963   8.110  11.753  0.0600  0.1369  0.1861
 5512W        W 9712   7.726  10.107   1.199  0.0265 -0.1978 -0.2175
 5513W        W 9713   5.013   8.246   0.628  0.0455 -0.0850  0.3073
 5514W        W 9714   2.147   1.791   9.954  0.1089  0.2396 -0.0741
 5515W        W 9715   9.008   5.813   9.610  0.4164 -0.1263  0.1550
 5516W        W 9716   2.125   1.562   4.387 -0.0846  0.3711  0.4024
 5517W        W 9717   8.459   5.353   8.405  0.1091 -0.2232  0.2283
 5518W        W 9718   9.157   9.093   0.344  0.4353 -0.0882  0.2907
 5519W        W 9719   8.680   8.958  10.620 -0.0367 -0.1653  0.0424
 5520W        W 9720   9.268   1.409   0.429 -0.3084  0.1795 -0.3348
 5521W        W 9721   6.069   2.826   0.569 -0.0195  0.3109  0.1744
 5522W        W 9722   7.292   3.945  12.154 -0.1546 -0.0399 -0.0109
 5523W        W 9723   1.810   3.899  10.845 -0.2120 -0.0249  0.2224
 5524W        W 9724   2.130   7.532   9.688 -0.0083 -0.0571  0.1316
 5525W        W 9725   5.150   4.342   1.906  0.0478  0.0740  0.1035
 5526W        W 9726   1.880   1.789   4.013 -0.2609  0.4573 -0.0693
 5527W        W 9727   0.736   4.585   3.472  0.1161 -0.1641  0.0324
 5528W        W 9728   7.451   2.126   2.828  0.0058 -0.2279  0.0138
 5529W        W 9729   9.602   4.057   5.122  0.0560 -0.1091  0.1699
 5530W        W 9730   6.773   6.557   0.871  0.0182  0.0567  0.1910
 5531W        W 9731   1.245   9.799   8.947  0.3583 -0.1540  0.1752
 5532W        W 9732   6.060   3.742   2.584  0.3114 -0.0591  0.0382
 5533W        W 9733   7.666   8.660   1.054  0.0179  0.1991  0.1940
 5534W        W 9734   8.910   7.292  12.510 -0.2705  0.0828 -0.2333
 5535W        W 9735   5.017   9.199   9.988 -0.0531  0.0666 -0.2228
 5536W        W 9736   2.813   9.904   0.917  0.1925 -0.0871  0.1786
 5537W        W 9737   1.018   0.184   4.061  0.2437  0.0899  0.2057
 5538W        W 9738   9.632   2.582   9.385  0.0870  0.0836  0.0799
 5539W        W 9739   7.171   1.239  11.027 -0.3230  0.2478  0.1469
 5540W        W 9740  10.305   2.207  11.360 -0.0190  0.0289 -0.2453
 5541W        W 9741   9.373   0.912   3.916 -0.0599  0.3230 -0.2185
 5542W        W 9742   4.334   1.367   0.183  0.0761 -0.0124 -0.0723
 5543W        W 9743   1.657   6.552   4.014 -0.0596  0.0951 -0.2073
 5544W        W 9744   1.840   6.623   1.914  0.1228 -0.0095  0.3046
 5545W        W 9745   7.225   2.147   1.533 -0.1822 -0.2065  0.0730
 5546W        W 9746   7.550   9.852  10.738 -0.2876 -0.3772  0.1831
 5547W        W 9747   2.880   6.464  10.862  0.0710  0.3203  0.1039
 5548W        W 9748   4.296   5.468   2.308  0.1831  0.2764 -0.2596
 5549W        W 9749   2.291   0.203  11.103  0.2450  0.0797 -0.1808
 5550W        W 9750   4.179   9.682   3.755  0.2264  0.0136  0.0442
 5551W        W 9751   0.015   2.451   1.243 -0.3001  0.1213  0.2677
 5552W        W 9752   8.621   4.657   4.742 -0.2856  0.0398 -0.1323
 5553W        W 9753   8.246   4.485   9.413 -0.0280  0.1563  0.1393
 5554W        W 9754   1.684   9.697   9.199 -0.2001  0.2855 -0.0579
 5555W        W 9755   6.239   6.586  12.319 -0.1338  0.1195  0.0800
 5556W        W 9756   3.543   6.973   3.263  0.0840 -0.2223  0.1162
 5557W        W 9757   0.935   7.682  11.443 -0.0196 -0.0774  0.1785
 5558W        W 9758   0.387   8.816   8.902 -0.3389 -0.0746  0.1219
 5559W        W 9759   5.947   3.866  11.884 -0.0663 -0.3082  0.0334
 5560W        W 9760   3.444   4.615  13.263 -0.1998 -0.0935  0.0778
 5561W        W 9761  10.370   7.761   3.924  0.0560 -0.0913  0.0922
 5562W        W 9762   4.615   5.337  12.177 -0.1107  0.1966  0.0938
 5563W        W 9763   3.104   3.436  10.241 -0.1439  0.1275 -0.0321
 5564W        W 9764   1.174   2.870   3.242  0.0021 -0.1512  0.0677
 5565W        W 9765   2.656   6.413  11.783 -0.1921 -0.0256 -0.1226
 5566W        W 9766   1.916   8.338  12.321  0.1155 -0.1745  0.0313
 5567W        W 9767   2.239   4.233  12.660 -0.1413 -0.0059  0.1430
 5568W        W 9768   9.469   0.317   9.061 -0.3416 -0.0723  0.0916
 5569W        W 9769   7.151   7.140  10.288  0.1667 -0.0925  0.0767
 5570W        W 9770   8.354   3.492   3.409 -0.0887 -0.1487 -0.2792
 5571W        W 9771   2.439   5.303   0.573 -0.3798  0.1007 -0.3355
 5572W        W 9772   6.257   4.814   2.285  0.2491  0.0127 -0.0288
 5573W        W 9773   7.980   4.308   0.875  0.1125 -0.1085 -0.0617
 5574W        W 9774   7.863   8.111   2.277 -0.0064 -0.0036  0.5217
 5575W        W 9775   6.601   5.132   9.791  0.0818 -0.0796 -0.0427
 5576W        W 9776   2.088   9.210   9.940 -0.2185  0.0384 -0.2850
 5577W        W 9777   6.549   6.022   1.272  0.0190 -0.0063  0.0204
 5578W        W 9778   0.411   7.212   4.330  0.0853  0.0720 -0.0925
 5579W        W 9779   7.765   6.256   4.130  0.1074 -0.0390  0.2556
 5580W        W 9780   5.249   0.765  11.259  0.0009 -0.2947  0.0727
 5581W        W 9781   5.742   7.493  12.981 -0.4206  0.0917 -0.0916
 5582W        W 9782   7.594   9.260  12.786 -0.1437 -0.0703 -0.2144
 5583W        W 9783   6.652   2.205   0.323 -0.1538 -0.3534  0.2128
 5584W        W 9784   5.777   4.715   0.302 -0.0318 -0.0282 -0.1802
 5585W        W 9785  10.067   8.951   0.904  0.0030  0.0569 -0.2034
 5586W        W 9786   4.829   9.259  12.796 -0.0903 -0.0355  0.0944
 5587W        W 9787   8.029   1.068   9.137  0.0796  0.0363  0.0505
 5588W        W 9788   3.832   2.429   9.869 -0.2773  0.1449 -0.0023
 5589W        W 9789   4.730   5.642   2.628 -0.2397  0.0162 -0.0269
 5590W        W 9790   0.915   2.018  12.851 -0.0649 -0.0444 -0.3416
 5591W        W 9791   9.814   5.475   1.826 -0.1429  0.1706 -0.0900
 5592W        W 9792   4.210   2.173   2.169 -0.1449  0.2141  0.3864
 5593W        W 9793   6.454   5.264   8.440 -0.1976  0.0752 -0.1872
 5594W        W 9794   8.591  10.300  12.149 -0.1021  0.0381 -0.0742
 5595W        W 9795   7.726   5.590   2.848 -0.0608 -0.0579 -0.0202
 5596W        W 9796   2.118   9.616  12.860  0.1623 -0.1220  0.3161
 5597W        W 9797   2.031   9.840  10.488  0.1769  0.2221  0.2839
 5598W        W 9798   1.714   0.317   1.717  0.1348 -0.2330 -0.1427
 5599W        W 9799   3.449   2.260  12.525  0.0773  0.0019  0.4282
 5600W        W 9800   0.408   4.156   1.703 -0.2686 -0.3464 -0.1486
 5601W        W 9801   4.590   4.082   9.627 -0.0738  0.1635 -0.0837
 5602W        W 9802   3.650   6.108  12.530 -0.0103  0.1761 -0.1155
 5603W        W 9803   0.136   5.708  11.080 -0.0095 -0.0209  0.0146
 5604W        W 9804   8.844   7.626  12.889  0.2291  0.1995 -0.0671
 5605W        W 9805  10.421   4.489   0.515  0.2119  0.3089  0.1724
 5606W        W 9806   3.522   9.132   2.575  0.1638 -0.0180  0.0522
 5607W        W 9807   3.308   6.469  12.485  0.5675 -0.1019  0.0422
 5608W        W 9808   0.483   0.297   8.363 -0.0517 -0.2596  0.0381
 5609W        W 9809   5.878   2.926   9.565  0.0956  0.0591  0.0756
 5610W        W 9810   1.374   7.621   2.543  0.2564 -0.0919 -0.3171
 5611W        W 9811   2.283   9.884   3.795  0.0555  0.0088 -0.3243
 5612W        W 9812   8.169   8.120  13.108  0.0231  0.0072 -0.4437
 5613W        W 9813   4.554   6.564   1.571 -0.0383  0.3060  0.0062
 5614W        W 9814   6.580   6.349   2.829  0.0482 -0.3556 -0.4204
 5615W        W 9815   4.773   3.108   3.492 -0.0985  0.1234  0.0726
 5616W        W 9816   5.652   9.182  10.633  0.0318  0.2800  0.1419
 5617W        W 9817   6.720   3.350   0.142  0.0073  0.3197  0.0396
 5618W        W 9818   5.858   6.324   5.116 -0.1299  0.1981  0.1719
 5619W        W 9819   7.877   8.238   1.725  0.0408  0.2508 -0.0396
 5620W        W 9820  10.416   6.555  11.369  0.0870  0.3278  0.2313
 5621W        W 9821   9.550   2.150   9.636 -0.1710 -0.0723 -0.0355
 5622W        W 9822   7.458   0.879   3.149 -0.1451 -0.3129 -0.0028
 5623W        W 9823   2.465   7.978   3.542  0.0570 -0.1223  0.4335
 5624W        W 9824   5.888   3.796   5.035  0.4594 -0.1529  0.1189
 5625W        W 9825  10.282   5.083   2.620  0.0259  0.1234  0.1595
 5626W        W 9826   3.228   4.135   1.810 -0.5141  0.0147 -0.0323
 5627W        W 9827  10.011   7.803  11.754  0.0806 -0.2168  0.0751
 5628W        W 9828   2.927   2.482  12.441  0.0953 -0.2711  0.0323
 5629W        W 9829   9.724   5.688  13.083  0.1966  0.1391  0.1045
 5630W        W 9830   9.143   7.105   9.345 -0.0466 -0.1966  0.0263
 5631W        W 9831   9.487  10.222   1.263 -0.0765  0.1171  0.0368
 5632W        W 9832   4.990   3.540   3.172 -0.0454 -0.3551  0.3974
 5633W        W 9833   8.398   4.003   4.310  0.1495 -0.1930  0.0628
 5634W        W 9834   7.103   8.958  11.629  0.1353 -0.0362  0.1689
 5635W        W 9835   0.370   3.893   2.174  0.0622  0.3611  0.4666
 5636W        W 9836   1.389   1.008  10.825  0.2885 -0.1660 -0.1804
 5637W        W 9837   8.904   5.057   2.457 -0.2667  0.0281 -0.0358
 5638W        W 9838   5.499   3.411  11.926 -0.3294  0.0610  0.2104
 5639W        W 9839   6.504   0.347  12.552 -0.1169  0.3015  0.3753
 5640W        W 9840   1.186   8.616   8.991 -0.3443  0.1694  0.0708
 5641W        W 9841   7.646   2.259   1.837  0.2424  0.0180  0.2459
 5642W        W 9842   8.169   3.965   1.555 -0.2010 -0.1650  0.0762
 5643W        W 9843   7.238   5.538   3.261  0.1416 -0.0378  0.0230
 5644W        W 9844   0.557   8.409   3.517 -0.3040  0.0941 -0.1456
 5645W        W 9845   4.538   0.312   3.251 -0.2532 -0.0398  0.2029
 5646W        W 9846   6.474   2.238   9.202  0.0095  0.1059  0.0603
 5647W        W 9847   1.288   2.409   9.742  0.2746  0.2723 -0.0070
 5648W        W 9848   1.220   7.387  10.191 -0.2707  0.2514  0.0114
 5649W        W 9849   2.902   9.825   2.540  0.0935 -0.2858 -0.3531
 5650W        W 9850   8.333   2.162   2.873 -0.1362 -0.2433 -0.1631
 5651W        W 9851   4.617   4.959   9.135 -0.4733 -0.1427 -0.2082
 5652W        W 9852   1.706   6.564  11.312 -0.0365  0.0668 -0.0976
 5653W        W 9853   2.167   0.746   2.655 -0.3040  0.1397  0.1322
 5654W        W 9854   0.636   5.153   2.631 -0.1837 -0.2204 -0.1035
 5655W        W 9855   9.430   6.479   0.118  0.2358 -0.1453  0.1304
 5656W        W 9856   8.030   9.711   2.696 -0.1150  0.0231  0.1988
 5657W        W 9857   0.575   0.266   3.892  0.0618  0.3994 -0.2214
 5658W        W 9858   3.414   2.358   2.929 -0.5024  0.0692  0.0225
 5659W        W 9859   6.782   2.326   2.048 -0.0945  0.0677 -0.0904
 5660W        W 9860   7.035   9.533  10.454 -0.3601  0.1434 -0.1121
 5661W        W 9861   0.572   2.621   9.389  0.1580 -0.0255  0.0198
 5662W        W 9862  10.242   9.258   2.079  0.0524 -0.0447 -0.3187
 5663W        W 9863   6.283   7.233   1.685  0.3319  0.3992 -0.2517
 5664W        W 9864   6.934   5.988   8.482  0.1077  0.0910  0.0359
 5665W        W 9865   3.951   9.150   4.145  0.0382  0.1917  0.1112
 5666W        W 9866   1.459   5.404   2.471 -0.0418  0.1814 -0.1963
 5667W        W 9867   1.037   2.746  11.190 -0.0200  0.0131  0.3265
 5668W        W 9868  10.263   8.353  12.545  0.1316 -0.0542 -0.0330
 5669W        W 9869   8.124   4.190  10.162  0.2346  0.0504  0.2015
 5670W        W 9870   3.628   6.347   1.534 -0.0676 -0.1530 -0.0503
 5671W        W 9871   7.227   5.112   4.283 -0.0525  0.2462 -0.1760
 5672W        W 9872   9.285   6.429   9.037 -0.3051 -0.1060  0.4518
 5673W        W 9873   3.304   6.249   1.072  0.2244  0.0771 -0.1244
 5674W        W 9874   7.419   1.349   1.076 -0.1212 -0.1815 -0.0516
 5675W        W 9875  10.492   5.293  12.594  0.1118  0.1026 -0.1074
 5676W        W 9876  10.256   8.375   2.433  0.0966 -0.2982 -0.2473
 5677W        W 9877   1.592   2.800  12.962  0.2050  0.0778 -0.1848
 5678W        W 9878   2.418   3.699   9.181 -0.0192 -0.0305 -0.2781
 5679W        W 9879   9.845   3.723   9.783 -0.1662 -0.0418  0.0559
 5680W        W 9880   5.923   0.579   2.043  0.3249 -0.1496  0.1427
 5681W        W 9881   4.847   6.696  11.584 -0.1246  0.0156 -0.3515
 5682W        W 9882   9.009   9.603  11.693  0.0044  0.0623  0.0379
 5683W        W 9883   8.894   2.674   0.589 -0.2594  0.0782 -0.0816
 5684W        W 9884   3.936   3.093  10.491 -0.1781  0.2391  0.0491
 5685W        W 9885   4.003   5.946  10.185 -0.3085 -0.1265  0.0945
 5686W        W 9886   9.683   7.706  12.184  0.0660  0.2106  0.5664
 5687W        W 9887   6.043   5.349   8.864 -0.3429 -0.2614 -0.1894
 5688W        W 9888   0.240   1.294   1.893  0.0568  0.3927 -0.1650
 5689W        W 9889   9.980  10.208   0.939 -0.0088  0.0406 -0.2879
 5690W        W 9890   7.097   7.099  12.883 -0.1547 -0.2434 -0.0082
 5691W        W 9891   2.993   4.489   2.326  0.0696 -0.0540 -0.0455
 5692W        W 9892   5.971   4.455  10.647  0.1265 -0.1729  0.0159
 5693W        W 9893   2.050   9.660   9.701  0.0392  0.2020 -0.2141
 5694W        W 9894  10.436   9.232  12.662 -0.1223 -0.2563 -0.0608
 5695W        W 9895   1.322   3.554  10.981 -0.1848 -0.1552 -0.1103
 5696W        W 9896   7.261   5.679   0.254 -0.2188 -0.0386  0.3638
 5697W        W 9897   0.059   3.681  12.732 -0.4178  0.0187  0.1189
 5698W        W 9898   7.090   2.366   4.036  0.1016 -0.0448 -0.5444
 5699W        W 9899  10.057   5.000  10.812  0.0199  0.0906  0.2171
 5700W        W 9900   9.379   9.014   1.688 -0.0937 -0.1156 -0.1454
 5701W        W 9901   9.140   0.047   4.427 -0.1291  0.1288 -0.2423
 5702W        W 9902   1.436   6.383  10.694 -0.0747  0.3019  0.3896
 5703W        W 9903   8.252   5.632   2.253 -0.0217  0.2185 -0.4011
 5704W        W 9904   9.001   3.217  10.902  0.1898  0.2047 -0.0019
 5705W        W 9905   5.362   5.748   4.331  0.2554  0.0716 -0.0238
 5706W        W 9906   6.440   8.083  11.709  0.1617  0.0198 -0.2350
 5707W        W 9907   2.771   9.800   4.586 -0.0874 -0.1063  0.1388
 5708W        W 9908   1.148   0.124  13.008 -0.1953 -0.1283 -0.0468
 5709W        W 9909   3.668   8.463  12.166  0.2393  0.1012 -0.1356
 5710W        W 9910   1.634   3.080  11.031  0.0886  0.0356 -0.3030
 5711W        W 9911   1.746   9.807   3.738 -0.1052 -0.1219 -0.3128
 5712W        W 9912   9.743   9.108   3.204  0.2522 -0.2965 -0.2273
 5713W        W 9913   3.622   7.236   9.336 -0.1963  0.2350 -0.0630
 5714W        W 9914   0.139   4.934   1.427  0.0741 -0.0307  0.1958
 5715W        W 9915   3.340  10.128   1.643  0.2479 -0.1237  0.0433
 5716W        W 9916   3.193   9.348   1.619 -0.3068  0.3334  0.1723
 5717W        W 9917   2.171   1.057  11.245 -0.0305  0.0069 -0.1037
 5718W        W 9918   4.341   4.772   0.383  0.0228  0.0605 -0.0611
 5719W        W 9919   4.698   3.170   1.409 -0.2059  0.1092  0.0300
 5720W        W 9920   9.684   5.838   8.418  0.0754 -0.2132  0.4127
 5721W        W 9921   0.253   3.770   0.568 -0.0434  0.1474 -0.2016
 5722W        W 9922   0.769   6.486   1.895 -0.0029  0.0749 -0.1210
 5723W        W 9923   8.920   4.084  12.256 -0.1311 -0.2881  0.1221
 5724W        W 9924   0.745   7.902   3.791  0.2567  0.0614  0.2145
 5725W        W 9925   8.928   4.466  10.219 -0.0008 -0.1777  0.0234
 5726W        W 9926   7.464  10.330  10.610 -0.2314 -0.3216 -0.1485
 5727W        W 9927   5.276   5.419  11.470 -0.3112  0.0115  0.1371
 5728W        W 9928   4.860   5.429   8.166  0.0652 -0.0495  0.3152
 5729W        W 9929   8.244   8.814   0.510 -0.1928 -0.0660  0.0716
 5730W        W 9930   1.989   2.652   4.630  0.3502 -0.0441 -0.0092
 5731W        W 9931   7.858   0.986  12.623 -0.4576  0.1858  0.0158
 5732W        W 9932   0.710   3.085   0.346 -0.3038  0.0329 -0.1676
 5733W        W 9933   4.420   2.934   0.757 -0.0786  0.2023 -0.1825
 5734W        W 9934   8.173   0.763  12.197 -0.0970 -0.0826 -0.2212
 5735W        W 9935   7.048   0.648   1.989 -0.0674 -0.2596 -0.1573
 5736W        W 9936   7.269   4.744   1.778 -0.1935  0.0162  0.2892
 5737W        W 9937   4.132   3.222   1.277  0.1567 -0.2917 -0.0180
 5738W        W 9938   2.199   6.343  11.886  0.0496  0.1300 -0.0429
 5739W        W 9939   0.722   4.559  11.968 -0.1566 -0.4211 -0.3954
 5740W        W 9940   0.279   3.719   3.168 -0.1999  0.2045  0.4467
 5741W        W 9941   2.400   6.544   3.739  0.2201 -0.0992 -0.3105
 5742W        W 9942   5.944   7.258   4.084 -0.1507  0.2862 -0.0975
 5743W        W 9943   0.565   0.176  10.333  0.1186  0.0663  0.4236
 5744W        W 9944   1.337   8.137   1.516  0.4236  0.3801  0.1733
 5745W        W 9945   9.259   6.256   2.017  0.0681  0.0436  0.2855
 5746W        W 9946   8.256   1.744   1.261 -0.3880 -0.3068 -0.1721
 5747W        W 9947   2.124   7.087   9.245 -0.0376 -0.1158  0.2555
 5748W        W 9948   2.979   7.090  13.202  0.1646  0.1591 -0.0826
 5749W        W 9949   5.649   8.934   1.392  0.1554  0.0434 -0.2086
 5750W        W 9950   9.590   3.035   9.060 -0.1752 -0.1140 -0.2583
 5751W        W 9951   8.986   7.049   9.911 -0.1445  0.2936  0.0833
 5752W        W 9952   2.300   4.941   9.278  0.2187  0.2534  0.0712
 5753W        W 9953   1.508   6.924   3.704 -0.3409 -0.2331  0.0360
 5754W        W 9954   6.230   7.220  10.640  0.0357  0.1682  0.0975
 5755W        W 9955   4.143   2.633   9.449  0.1266 -0.1503  0.0099
 5756W        W 9956  10.060   7.148   0.475 -0.1432  0.0624  0.0692
 5757W        W 9957   7.202   4.673   9.221 -0.1047 -0.1592 -0.0569
 5758W        W 9958   3.747   2.379   2.278  0.3426 -0.0334  0.0755
 5759W        W 9959   3.064   7.273   3.175  0.2297  0.1563 -0.0139
 5760W        W 9960   4.743   7.923  11.558  0.0321 -0.0386  0.2059
 5761W        W 9961   7.915   9.489   9.087  0.2309 -0.0854  0.1162
 5762W        W 9962   6.463   2.913   3.733  0.1225 -0.1531  0.0925
 5763W        W 9963   5.606   4.549   4.441  0.2520 -0.0451 -0.1517
 5764W        W 9964   4.652   2.661  11.311  0.0051  0.3622 -0.1114
 5765W        W 9965   5.605   9.386   3.271  0.0860  0.0815  0.0915
 5766W        W 9966   5.307  10.219  11.004 -0.0750  0.2742  0.1662
 5767W        W 9967   7.378   2.692   4.331  0.0101 -0.1232 -0.0450
 5768W        W 9968   6.453   4.689  12.889  0.0984 -0.0151 -0.0016
 5769W        W 9969   7.962   7.667   0.208  0.0117 -0.2858 -0.3008
 5770W        W 9970   5.559   0.615   0.101 -0.1354 -0.3095  0.3169
 5771W        W 9971   4.510   5.594  13.244 -0.3411  0.2596 -0.1419
 5772W        W 9972  10.487   6.503   9.029  0.1667 -0.0587 -0.1038
 5773W        W 9973   3.684   9.482  10.127 -0.4173 -0.0039  0.0692
 5774W        W 9974   8.595   0.934   3.612 -0.1610 -0.0872  0.0154
 5775W        W 9975  10.413   5.519   3.863 -0.0478 -0.3010  0.0072
 5776W        W 9976   0.854   9.656  13.108  0.0625  0.0133 -0.1391
 5777W        W 9977   9.798   4.923  12.330 -0.0767 -0.0216  0.0717
 5778W        W 9978   5.577   2.990   9.958  0.1201 -0.1080 -0.1661
 5779W        W 9979   3.002   7.001   8.795 -0.2614 -0.2670 -0.0908
 5780W        W 9980   6.533   9.431   0.240  0.1936 -0.0475  0.0662
 5781W        W 9981   0.208   6.164  10.393 -0.3131  0.1852 -0.0378
 5782W        W 9982   8.683   1.332  11.130 -0.0847  0.1841 -0.0659
 5783W        W 9983   4.836  10.210  13.274 -0.0745  0.1041 -0.1158
 5784W        W 9984   3.137   7.551  13.100  0.0375 -0.1171  0.0955
 5785W        W 9985   6.893   8.903   0.011 -0.3845 -0.2041  0.4425
 5786W        W 9986   0.425   1.086   9.230  0.3444 -0.0314  0.2023
 5787W        W 9987   5.476   1.038  11.644  0.0621 -0.0914 -0.0624
 5788W        W 9988   8.667   9.225   1.302 -0.0648 -0.3456  0.6594
 5789W        W 9989   9.629   1.749   0.279 -0.1298 -0.0585 -0.0593
 5790W        W 9990   7.832   2.052  11.534  0.1467  0.2970  0.2507
 5791W        W 9991   9.782   0.038  11.330 -0.3470 -0.0208 -0.2361
 5792W        W 9992   5.050   2.223   3.056  0.1806 -0.2312 -0.1012
 5793W        W 9993   6.488   6.010  11.523 -0.4043  0.0110  0.1734
 5794W        W 9994   7.735   5.481   1.374  0.1629  0.0049  0.2419
 5795W        W 9995   8.853   9.037   3.725  0.1926 -0.1190 -0.0632
 5796W        W 9996   3.234   8.420   0.274 -0.0472  0.2415 -0.3375
 5797W        W 9997   2.093   0.390   0.238 -0.4928  0.0982  0.0660
 5798W        W 9998   1.380   0.006  10.798  0.1335  0.0143 -0.1063
 5799W        W 9999   0.416  10.053   0.304  0.2295  0.2110 -0.1075
 5800W        W10000   8.736   9.631  12.934  0.3249  0.2312 -0.2835
 5801W        W10001   6.990   8.958   1.798 -0.0606  0.0197 -0.2071
 5802W        W10002   0.237   1.011  10.137  0.2120  0.0793  0.0774
 5803W        W10003   3.583   6.266   0.595  0.2053  0.0852 -0.0746
 5804W        W10004   9.465   5.862  11.843  0.4061  0.0351  0.2979
 5805W        W10005   8.941   4.283  12.805 -0.1896 -0.0015  0.1348
 5806W        W10006   7.677   7.480  11.085  0.1919  0.0831  0.0922
 5807W        W10007   6.972   4.083  11.683  0.2187 -0.0971  0.2277
 5808W        W10008   8.727   3.146  12.942 -0.2546 -0.3687  0.0744
 5809W        W10009   0.584   7.906  12.176 -0.0889  0.2327 -0.1702
 5810W        W10010   6.469   9.667  11.608 -0.0670  0.3157  0.3076
 5811W        W10011   7.619   6.820   0.539  0.0172  0.3557  0.1876
 5812W        W10012   4.025   4.833  10.196  0.1983 -0.2331 -0.1602
 5813W        W10013   0.121   0.046  10.112  0.0607 -0.2006  0.1595
 5814W        W10014   9.005  10.065   4.298 -0.2379  0.1754  0.0353
 5815W        W10015   6.754   9.951   1.553  0.1294 -0.2415  0.0480
 5816W        W10016   1.288   6.637   1.890  0.3505 -0.0507  0.4130
 5817W        W10017   6.843   6.314  10.409 -0.2645 -0.1478 -0.2386
 5818W        W10018   8.032   7.039   0.720 -0.4757  0.1414  0.0673
 5819W        W10019   3.432   3.675   3.305  0.2906 -0.1878  0.0973
 5820W        W10020   3.980   9.213   0.941  0.0058  0.0998  0.0782
 5821W        W10021   1.140   8.694  11.133  0.4395 -0.2206  0.3187
 5822W        W10022   4.308   3.864   4.543 -0.1758  0.0331  0.0035
 5823W        W10023   8.117   5.387   4.785 -0.1691  0.1778  0.4134
 5824W        W10024   2.190   6.588   2.253 -0.0214 -0.0324  0.2028
 5825W        W10025   0.170   3.284   0.702  0.3469 -0.0948  0.1459
 5826W        W10026   1.119   2.355   0.833 -0.0673 -0.0353  0.2585
 5827W        W10027   1.584   8.406   2.563 -0.1027  0.2172  0.1959
 5828W        W10028   1.402   3.238  10.585 -0.0338 -0.2108  0.1975
 5829W        W10029   9.591   2.043   2.704  0.2023  0.2275  0.2692
 5830W        W10030   4.118   3.987   2.934  0.1067 -0.2453  0.3047
 5831W        W10031   2.236   7.036   9.800  0.1413  0.3219  0.1890
 5832W        W10032   7.285   1.857   4.374  0.1998  0.1116  0.0574
 5833W        W10033   6.949   2.911   2.414  0.1027 -0.0639 -0.2652
 5834W        W10034   6.051   2.917  12.319  0.0383  0.1092 -0.1654
 5835W        W10035   7.567   5.280   3.955 -0.2157 -0.1186 -0.3548
 5836W        W10036   3.737   9.867   1.440  0.1512  0.1718 -0.0216
 5837W        W10037   4.121   6.612   1.333  0.1711  0.0922 -0.0320
 5838W        W10038   6.544   5.051  11.624 -0.2722 -0.0959 -0.1219
 5839W        W10039   8.761   9.299   9.292 -0.1243 -0.2722  0.1762
 5840W        W10040   8.852   5.919  12.314  0.1674  0.1238 -0.1196
 5841W        W10041   3.921   1.320  10.845  0.0868 -0.1233 -0.0291
 5842W        W10042   2.223  10.134   9.795 -0.0172 -0.1531  0.0282
 5843W        W10043   0.091   5.699  12.897 -0.1962  0.2938 -0.0067
 5844W        W10044   1.535  10.408  12.772 -0.0505 -0.2830  0.1444
 5845W        W10045   0.540   9.208  13.085  0.1837 -0.1574  0.0164
 5846W        W10046   8.802   2.283  11.764  0.1508  0.0887 -0.2214
 5847W        W10047  10.000   5.805   2.936 -0.1992 -0.0178 -0.0397
 5848W        W10048   1.366   6.799   0.495 -0.0228  0.2433 -0.0755
 5849W        W10049   8.284   8.030  11.560  0.0861 -0.3657  0.2075
 5850W        W10050   3.953   6.770   8.859  0.0153 -0.0512 -0.3493
 5851W        W10051   7.990   9.357   9.920 -0.1088  0.1197 -0.0103
 5852W        W10052   4.039   6.267   3.363  0.2019  0.2689  0.1608
 5853W        W10053   0.749   7.316   2.341  0.1714 -0.2434 -0.0027
 5854W        W10054   1.539   7.432   4.195  0.2390 -0.2680 -0.3838
 5855W        W10055   0.810   7.919   4.653  0.1015  0.0941  0.2039
 5856W        W10056   9.310   1.777  10.494  0.1903  0.2103 -0.0719
 5857W        W10057   8.586   9.185   0.395  0.3164 -0.2066 -0.0176
 5858W        W10058   6.089   7.465  10.203 -0.0014 -0.2647  0.0241
 5859W        W10059   2.485  10.039  10.814  0.0422 -0.2472 -0.2409
 5860W        W10060   4.810   8.662   9.108 -0.0243  0.0751 -0.3166
 5861W        W10061   5.102   8.269   3.046  0.0083  0.2516  0.1184
 5862W        W10062  10.024   8.140  11.201 -0.1761  0.1141  0.2111
 5863W        W10063   6.273  10.138   0.317  0.1599  0.1134  0.1093
 5864W        W10064   7.414   5.552  10.721  0.1608  0.0076  0.1167
 5865W        W10065   2.106   3.096   8.446 -0.0258 -0.0878 -0.0151
 5866W        W10066   0.609   7.122   1.522 -0.2548 -0.1602  0.0005
 5867W        W10067   5.132   1.866  11.517 -0.0324  0.2244 -0.3633
 5868W        W10068   8.145   1.247  12.100 -0.1599  0.2568 -0.0396
 5869W        W10069   6.400   4.983   3.236 -0.3279  0.2682 -0.1078
 5870W        W10070   0.922   4.683   9.976  0.1932  0.2093 -0.3303
 5871W        W10071   4.850   9.329   1.636  0.0615 -0.0988  0.0508
 5872W        W10072   2.945   7.522   8.718 -0.1081 -0.2100 -0.0960
 5873W        W10073   8.081   1.598   9.433 -0.1286  0.1116 -0.0590
 5874W        W10074   7.601   9.366   4.048  0.0346  0.2511 -0.1004
 5875W        W10075   8.652   2.659   4.426  0.0658 -0.2067  0.2161
 5876W        W10076   0.283   1.996  11.101 -0.0459 -0.1133  0.4581
 5877W        W10077   4.211   1.170   2.158  0.2075 -0.0764  0.1962
 5878W        W10078   8.138   7.453  13.234 -0.1237 -0.0019  0.1276
 5879W        W10079   3.077   6.329   0.626 -0.0062 -0.2501  0.0061
 5880W        W10080   2.762   7.964   2.727 -0.1364 -0.1529  0.1576
 5881W        W10081   6.532   8.085   3.026  0.1163  0.3210  0.1961
 5882W        W10082   7.939   6.822   3.007 -0.1495  0.3571  0.1263
 5883W        W10083   9.294   0.342  12.612  0.2543  0.2382 -0.0300
 5884W        W10084   9.479   8.875  12.308 -0.1455  0.2242 -0.1867
 5885W        W10085   8.636   5.506   9.215  0.0628 -0.3502  0.1320
 5886W        W10086   8.487   5.252   1.645 -0.1108  0.1976 -0.0405
 5887W        W10087   7.836   7.617   1.902  0.1820 -0.0767  0.0603
 5888W        W10088   2.726   5.854   9.336 -0.0292  0.3702 -0.3946
 5889W        W10089   0.712   8.693  10.278 -0.0445 -0.0332 -0.1229
 5890W        W10090   1.351   4.488   0.614  0.0949 -0.0815 -0.2316
 5891W        W10091   7.386   7.746   2.883  0.0647 -0.0445 -0.0945
 5892W        W10092   5.100   6.700  12.016  0.0822  0.2301 -0.2017
 5893W        W10093   7.888   4.518  12.043  0.1026 -0.0977  0.0078
 5894W        W10094   8.451   7.817  13.390  0.0157  0.0197 -0.0265
 5895W        W10095   0.451   6.687   4.456 -0.0436  0.2474 -0.0936
 5896W        W10096   2.106   6.417   0.691  0.0239 -0.0773  0.2030
 5897W        W10097   6.086   3.087   1.071  0.3638  0.2848 -0.0621
 5898W        W10098   1.416   8.905   3.235 -0.4861  0.1830 -0.3031
 5899W        W10099   9.353  10.460   0.164 -0.0979 -0.0547 -0.2383
 5900W        W10100   3.992  10.417   3.258 -0.1019 -0.1377  0.0522
 5901W        W10101   4.198   1.068  12.912  0.3151 -0.2124 -0.5198
 5902W        W10102   0.372   5.764   4.390 -0.0509 -0.0316  0.2504
 5903W        W10103   9.195   7.273   0.579  0.1842 -0.3180 -0.2132
 5904W        W10104   7.422   6.225   1.285  0.0096 -0.1737 -0.2563
 5905W        W10105   8.336   6.627   4.713  0.0042 -0.0479  0.1286
 5906W        W10106   9.598   0.212   4.193 -0.1731 -0.0237  0.2197
 5907W        W10107   1.461   6.473  10.012  0.3018 -0.1529 -0.0435
 5908W        W10108   5.586   9.332  11.856  0.1508  0.3158  0.0988
 5909W        W10109   6.974   7.992   3.296  0.0036 -0.2966 -0.0378
 5910W        W10110   1.184   5.887   3.460  0.1383 -0.1000 -0.1176
 5911W        W10111   0.917   3.800   3.860  0.1703  0.1934  0.2451
 5912W        W10112   1.328   0.516  11.057  0.0062  0.4303  0.0325
 5913W        W10113   3.334   6.929   9.685  0.2232  0.3666 -0.1281
 5914W        W10114   9.499   0.517   0.439 -0.0527 -0.5054  0.3845
 5915W        W10115   2.915   6.144   8.876 -0.0745  0.2093  0.0349
 5916W        W10116   6.064   6.253  11.439 -0.0248 -0.1910 -0.3920
 5917W        W10117   6.196   6.010   1.733  0.3543 -0.2016  0.3973
 5918W        W10118   2.474   1.572   3.915 -0.4078 -0.0654  0.0422
 5919W        W10119  10.443   1.088  12.761  0.0199 -0.0208  0.2430
 5920W        W10120   5.526   6.434   2.318  0.0809  0.0192 -0.1775
 5921W        W10121   8.611   8.445  10.732  0.0393 -0.0253 -0.0215
 5922W        W10122   6.482   3.688   3.894 -0.2004 -0.2090  0.1717
 5923W        W10123   9.896   3.536   0.037 -0.2101 -0.1679 -0.3439
 5924W        W10124   7.547   7.317  13.243 -0.4476 -0.0174 -0.1915
 5925W        W10125   1.451   9.265   2.334  0.1891  0.0162 -0.0311
 5926W        W10126  10.258   0.764  10.081 -0.0310 -0.0374 -0.0561
 5927W        W10127   0.809   8.903  12.434 -0.0332  0.1536  0.2120
 5928W        W10128   2.499   9.943   1.380 -0.1936 -0.0309 -0.2959
 5929W        W10129   2.938   9.842   3.547 -0.0971  0.2079  0.1350
 5930W        W10130   3.153   3.185   0.068 -0.0501  0.0362  0.1810
 5931W        W10131   6.836   3.348   2.934 -0.1205 -0.0510  0.1345
 5932W        W10132   9.479   9.437  12.962  0.1043  0.1587  0.3915
 5933W        W10133   7.652   7.875   0.575 -0.1750 -0.1456 -0.1302
 5934W        W10134   7.601   1.311   2.109 -0.0136 -0.1855 -0.0397
 5935W        W10135   8.189   2.724   2.794  0.0886 -0.0090 -0.0625
 5936W        W10136   7.869   3.813  10.229  0.0632 -0.1142 -0.1204
 5937W        W10137   7.653   6.753   0.040  0.1267 -0.1379 -0.3093
 5938W        W10138   4.588   3.442   8.545  0.0807  0.2344  0.0546
 5939W        W10139   9.570  10.230   1.765 -0.0131 -0.1043  0.2471
 5940W        W10140   7.027   1.881  13.304 -0.0224  0.0405 -0.0518
 5941W        W10141   6.496   9.706   3.464 -0.2740 -0.1340 -0.3617
 5942W        W10142   5.245   6.946   4.668 -0.1130  0.1123 -0.1692
 5943W        W10143   4.659   6.925   0.729  0.0634  0.0281 -0.1444
 5944W        W10144   3.987   6.953  10.734 -0.1383  0.1197  0.1376
 5945W        W10145   7.903   5.010  13.265 -0.0478  0.2940  0.0736
 5946W        W10146   0.658   5.795   9.254 -0.0838  0.0555 -0.1534
 5947W        W10147   0.545  10.344   9.337 -0.1643  0.0605 -0.0221
 5948W        W10148   9.246   0.027  11.475 -0.1169 -0.4165  0.0588
 5949W        W10149   4.025   3.480  12.644 -0.1135  0.2570 -0.0680
 5950W        W10150   0.057   9.018  13.252  0.2074 -0.1118  0.1681
 5951W        W10151   0.947   9.842   4.099 -0.0251 -0.2486 -0.2192
 5952W        W10152   0.824   8.060  11.728  0.0115 -0.1846  0.2307
 5953W        W10153   8.284   4.883   0.882  0.2709 -0.0282 -0.0856
 5954W        W10154   6.482   0.931   0.757 -0.0798  0.3286 -0.2002
 5955W        W10155   6.807   4.726   0.957  0.0760 -0.0019 -0.1434
 5956W        W10156   4.966   2.488   3.836 -0.0481  0.0770  0.2800
 5957W        W10157   9.670   3.137   3.345  0.2188  0.0060  0.0816
 5958W        W10158  10.183   8.304  10.367 -0.1141  0.0925  0.2205
 5959W        W10159   0.848   4.581   0.365 -0.5598 -0.1227  0.0681
 5960W        W10160   6.147   5.049   0.842  0.2219 -0.1684 -0.0943
 5961W        W10161   1.117   0.777  12.415 -0.0166 -0.0798  0.0787
 5962W        W10162   6.258   8.987  10.447  0.1000  0.2940 -0.0379
 5963W        W10163   5.878   9.552  10.982  0.0629 -0.2059  0.0913
 5964W        W10164   5.624   4.192  10.487  0.0550  0.3688  0.0615
 5965W        W10165   5.550   7.028   3.786 -0.3486  0.3336 -0.3482
 5966W        W10166   3.550   2.136   0.954 -0.0983  0.0632  0.2517
 5967W        W10167   8.173   0.148   4.063 -0.2141 -0.2783  0.0679
 5968W        W10168   8.415   0.424   2.817 -0.0190  0.2372  0.0999
 5969W        W10169   7.102   0.426   9.915 -0.0667  0.1260 -0.0694
 5970W        W10170   2.339   4.086   1.457  0.1326  0.2113  0.1930
 5971W        W10171  10.236   1.519  12.894 -0.0090  0.0051 -0.2047
 5972W        W10172  10.351   9.354  10.742  0.2875 -0.3331  0.1484
 5973W        W10173   7.124   7.556   0.511 -0.0841 -0.3114  0.1798
 5974W        W10174   2.128   7.418  10.268 -0.1078  0.0356  0.1296
 5975W        W10175   1.349   8.155   8.867 -0.4426 -0.2359  0.3866
 5976W        W10176   9.676   0.668   9.440 -0.0208  0.1092  0.0068
 5977W        W10177   1.518   3.884  11.329 -0.1978 -0.0024 -0.1607
 5978W        W10178   1.715   4.320  13.151 -0.1128  0.3733  0.1227
 5979W        W10179   8.136   6.267   9.446  0.1138  0.0040  0.0630
 5980W        W10180   8.218   8.851  12.805 -0.1519  0.2407  0.2891
 5981W        W10181   1.928   0.398  11.870  0.0772  0.2148 -0.0669
 5982W        W10182   2.594   2.121   3.548  0.0303 -0.0541  0.3008
 5983W        W10183   7.307   6.847   2.455 -0.0344 -0.0461  0.0354
 5984W        W10184   6.594   4.371   2.013  0.0923  0.1378  0.0961
 5985W        W10185   2.370  10.028  12.934  0.0680 -0.0448 -0.0422
 5986W        W10186   0.298   9.934   1.675 -0.0993  0.2692  0.0892
 5987W        W10187   2.299   9.258  13.167 -0.0618 -0.3342 -0.0240
 5988W        W10188   5.404   2.770  13.347 -0.0078 -0.0950  0.1395
 5989W        W10189   8.783   4.595   9.370 -0.1765 -0.1619 -0.0284
 5990W        W10190  10.016   2.495   9.765  0.0875 -0.3065  0.1384
 5991W        W10191   4.924   8.417   2.568 -0.1491  0.3755 -0.0784
 5992W        W10192   8.380   7.632  12.719  0.3007  0.2624  0.1409
 5993W        W10193   8.377   5.929   3.230 -0.2750 -0.1772  0.0818
 5994W        W10194   7.150   0.686  10.298 -0.0174  0.1352  0.2372
 5995W        W10195   1.333   1.001   9.114 -0.0168 -0.3368 -0.0228
 5996W        W10196   4.096   1.211   1.623  0.2775 -0.0393 -0.1423
 5997W        W10197   0.440   0.483   9.322  0.0663 -0.2669 -0.0879
 5998W        W10198   0.596   1.304   3.902 -0.1508  0.0010 -0.2464
 5999W        W10199   3.851   6.654   2.564 -0.0707 -0.3451 -0.1179
 6000W        W10200   8.449   6.327   8.310 -0.1984  0.1545  0.0224
 6001W        W10201   4.979   4.790   2.222 -0.2208 -0.2020 -0.1600
 6002W        W10202   2.747   3.227   8.782 -0.0152  0.0168 -0.0233
 6003W        W10203   2.006   7.667   0.559  0.0660  0.0811  0.1279
 6004W        W10204   0.622   6.569   8.796  0.2833  0.2160 -0.2518
 6005W        W10205   4.181   1.656   0.576  0.4109 -0.0102  0.2710
 6006W        W10206   9.164   6.074   1.191 -0.0233 -0.1176  0.2999
 6007W        W10207   1.566   6.791   2.306 -0.1085  0.0738  0.4190
 6008W        W10208   8.867   0.655  12.813 -0.1238  0.1278  0.0601
 6009W        W10209   2.369   9.135   1.496  0.3967 -0.2023 -0.0801
 6010W        W10210   6.172   2.299   0.652  0.3136 -0.3517  0.3141
 6011W        W10211   9.076   7.230  11.652  0.0766 -0.0371 -0.0624
 6012W        W10212   5.581   7.856   2.280  0.0698 -0.3401 -0.2844
 6013W        W10213   7.328   7.942  10.942 -0.2280 -0.1341 -0.1450
 6014W        W10214   0.526   0.170   9.729  0.1507  0.4208 -0.3495
 6015W        W10215   4.707   0.519   2.291  0.1910 -0.0662  0.3026
 6016W        W10216   9.193   4.705   0.135 -0.2130 -0.0375  0.2771
 6017W        W10217   7.087   2.912  13.064  0.1399  0.0526 -0.1121
 6018W        W10218   5.361   6.370   1.774  0.1356 -0.3711 -0.2119
 6019W        W10219   7.706   4.550   9.367 -0.2844  0.2541 -0.0366
 6020W        W10220   6.589   7.023   5.200  0.0031  0.4280 -0.3533
 6021W        W10221   9.814   5.750  12.208  0.2384 -0.3986  0.0362
 6022W        W10222   6.256   8.482   0.477  0.1015 -0.2293 -0.0650
 6023W        W10223   0.864   8.276  13.042  0.0132  0.1922  0.0196
 6024W        W10224   9.769   6.293  12.338  0.0751 -0.1102 -0.1438
 6025W        W10225   9.598   4.884   8.915  0.0828  0.1759 -0.1552
 6026W        W10226   9.211   2.180   4.080  0.2356 -0.2507 -0.1976
 6027W        W10227   6.613  10.319   9.452  0.2250 -0.2594  0.1052
 6028W        W10228   9.324   5.412   2.237  0.0407 -0.4204  0.2353
 6029W        W10229   9.306   7.757  13.058  0.1981  0.1290  0.0276
 6030W        W10230   8.270   3.182   9.869  0.3206 -0.3917  0.0715
 6031W        W10231   7.485   6.688   1.499  0.1675  0.0671 -0.0445
 6032W        W10232   8.307   5.716   4.259 -0.3499  0.0587 -0.1470
 6033W        W10233   1.675   4.494   3.732  0.2771  0.2831  0.0565
 6034W        W10234   6.912   8.299   9.071  0.4103 -0.0466 -0.0049
 6035W        W10235   4.166   4.771   1.853 -0.0524  0.2053  0.0636
 6036W        W10236   3.687   2.073  11.419  0.1113  0.0819 -0.1181
 6037W        W10237   3.624   3.523   1.211  0.0199 -0.0308 -0.1911
 6038W        W10238   5.415   6.662  12.931  0.1452  0.0995  0.0969
 6039W        W10239  10.099   6.200   2.657  0.0807 -0.1097  0.0615
 6040W        W10240   7.369   9.430   1.604  0.0996  0.1064  0.0703
 6041W        W10241   2.702  10.169   0.469 -0.1421 -0.0116  0.0322
 6042W        W10242   7.056   4.651   0.198  0.0201 -0.1191  0.2249
 6043W        W10243   9.798   5.558   0.555 -0.1414 -0.1107 -0.0824
 6044W        W10244   3.553   0.985   2.833 -0.0690  0.2046  0.0403
 6045W        W10245  10.160   7.446  13.064 -0.2815 -0.0737 -0.0759
 6046W        W10246   6.538   6.519   3.806  0.1970 -0.1245  0.0247
 6047W        W10247   2.077   5.718  12.529  0.1406 -0.1607  0.3178
 6048W        W10248   3.536   8.214  12.586 -0.1218 -0.0135  0.1234
 6049W        W10249   2.260   3.484   2.720 -0.1335 -0.0424 -0.0467
 6050W        W10250   0.042   3.294   8.920 -0.0691  0.1123 -0.2798
 6051W        W10251   5.077   1.155   2.177  0.1057  0.0106  0.0181
 6052W        W10252   7.597   6.861  11.761  0.2695  0.1094  0.0058
 6053W        W10253   1.084   5.813  12.367 -0.4104  0.0376  0.1501
 6054W        W10254   1.330   9.360   2.843 -0.0579 -0.2516  0.1065
 6055W        W10255   3.834   1.783  10.557  0.0329 -0.0824  0.5039
 6056W        W10256   5.391   2.203   0.040 -0.1251 -0.1209  0.1923
 6057W        W10257   6.208   1.562  13.088 -0.1253 -0.0803  0.1890
 6058W        W10258   0.007   8.682   1.604  0.0857  0.0015  0.0493
 6059W        W10259   4.808   6.144  10.972  0.2334  0.0546 -0.0208
 6060W        W10260   7.475   2.250  12.082 -0.1547 -0.0337 -0.1091
 6061W        W10261   9.676   6.231   2.375  0.0384  0.1944  0.1202
 6062W        W10262   2.149   5.117   2.326 -0.1915 -0.3087  0.0949
 6063W        W10263   8.769   8.158   3.646  0.1122  0.0554  0.1925
 6064W        W10264   3.267   3.027   9.922 -0.1054 -0.2201 -0.0656
 6065W        W10265   8.212   3.867  10.665 -0.1777 -0.1800  0.1363
 6066W        W10266  10.290   2.670  13.314 -0.4086  0.0707  0.0229
 6067W        W10267   3.722   5.229   9.978  0.3974  0.2778 -0.2061
 6068W        W10268   8.412  10.433  11.679  0.1406 -0.2709  0.0692
 6069W        W10269   2.676   2.581   0.486  0.2797  0.1758  0.2829
 6070W        W10270   8.422  10.167   1.325  0.0204 -0.2162 -0.0427
 6071W        W10271   9.471   2.689   0.585 -0.1240 -0.0787  0.0449
 6072W        W10272   4.696   0.081   0.567 -0.0715  0.1766  0.0171
 6073W        W10273   7.659  10.469   2.280 -0.0895  0.0005  0.0931
 6074W        W10274   2.963   1.796   9.734 -0.4055  0.0185 -0.1308
 6075W        W10275   6.346   4.586   0.939 -0.0138 -0.1521  0.0587
 6076W        W10276   3.720   5.006   8.878  0.0954 -0.0616  0.2339
 6077W        W10277   7.114  10.343   1.504 -0.0613 -0.0194  0.2275
 6078W        W10278   8.344   7.373   1.863  0.1439 -0.0051  0.1200
 6079W        W10279  10.326   6.981   9.871  0.0408 -0.0075  0.0519
 6080W        W10280   9.047   5.780  11.393  0.0348  0.1787  0.3015
 6081W        W10281   1.363   6.627  13.379 -0.1398  0.1418  0.0307
 6082W        W10282   8.926   8.111   1.006 -0.1408  0.2880 -0.0541
 6083W        W10283   1.121   5.321  13.235  0.5096 -0.1356  0.1408
 6084W        W10284   0.148   8.768  12.720  0.0851  0.1854  0.0462
 6085W        W10285   0.969   5.537   2.842  0.1057  0.3163 -0.2582
 6086W        W10286   9.406  10.092  10.628  0.2448  0.3113 -0.0742
 6087W        W10287   5.109   1.292   0.756 -0.1668  0.0062 -0.0262
 6088W        W10288   5.080   0.740   0.169 -0.0134  0.2403  0.0826
 6089W        W10289   5.195   2.997  10.426 -0.1095 -0.1209  0.0024
 6090W        W10290  10.420   6.764   4.739 -0.3052 -0.1697  0.0231
 6091W        W10291   8.777   3.523   2.434  0.2035 -0.0997  0.0128
 6092W        W10292   5.954   3.461   1.320 -0.1432 -0.0498  0.0429
 6093W        W10293   0.000   6.337   4.486  0.3228 -0.2157  0.0773
 6094W        W10294   3.895   2.842   1.461 -0.0084  0.0871 -0.0005
 6095W        W10295  10.375   3.017   9.856 -0.2670  0.1218  0.1141
 6096W        W10296   9.940   1.482   4.847 -0.1028 -0.2810 -0.0183
 6097W        W10297   6.770   6.430  12.420  0.1860  0.0278  0.2181
 6098W        W10298   4.108   8.584   2.174  0.1629 -0.1614  0.1464
 6099W        W10299   4.315   1.106   0.645  0.0995 -0.1960  0.1561
 6100W        W10300   5.537   9.433   9.143 -0.0233  0.0348 -0.2884
 6101W        W10301   0.106   8.434   9.156 -0.0933  0.3685 -0.2261
 6102W        W10302   0.397   3.765   9.825 -0.0590 -0.2227 -0.0035
 6103W        W10303   8.639   8.596   3.399  0.1439 -0.0344 -0.0357
 6104W        W10304   3.583   6.139   2.024 -0.1009  0.4240 -0.3465
 6105W        W10305   6.849   8.025  11.430  0.2970 -0.1121  0.2308
 6106W        W10306   0.187   4.555   2.061  0.1150  0.0793  0.1490
 6107W        W10307   4.512   5.471   4.329  0.0958  0.1929 -0.3840
 6108W        W10308   1.059   9.480  11.439  0.1264  0.0440 -0.1134
 6109W        W10309   5.077   6.221   8.633  0.2029 -0.3832 -0.1113
 6110W        W10310   3.873   4.755   8.436 -0.1033 -0.1104 -0.0793
 6111W        W10311  10.482   8.724   0.687 -0.1265  0.0287  0.1891
 6112W        W10312   6.155   3.285   3.799  0.0031  0.0298 -0.1961
 6113W        W10313   9.704   0.534   3.171 -0.3389  0.0050 -0.1586
 6114W        W10314   4.685   9.596  13.239 -0.0080  0.1891  0.1605
 6115W        W10315   0.824   2.814  10.762  0.3985  0.2457 -0.1110
 6116W        W10316   6.348   0.885   4.183  0.1285  0.3508 -0.2198
 6117W        W10317   0.210   5.496   9.166 -0.0467 -0.0441 -0.0875
 6118W        W10318  10.008   3.320  10.088 -0.0591  0.0968  0.2052
 6119W        W10319   0.662  10.494   1.937  0.3532  0.0049  0.3367
 6120W        W10320   4.099   4.462   3.066 -0.0756  0.0680 -0.0044
 6121W        W10321  10.020   8.189   8.477  0.1037  0.0336  0.4284
 6122W        W10322   6.659   0.617  10.703 -0.1511 -0.1963  0.1597
 6123W        W10323   6.838   7.301  10.738  0.0721  0.0937 -0.0412
 6124W        W10324  10.407   8.423  13.052  0.0469  0.0101  0.2396
 6125W        W10325   4.150   8.161  13.014  0.0686  0.0595  0.1850
 6126W        W10326   0.577   1.933   3.185 -0.2064 -0.1818 -0.0383
 6127W        W10327   6.458   4.666   8.577  0.2611 -0.3424 -0.1997
 6128W        W10328   1.644   6.198   1.032  0.2089 -0.1457 -0.1286
 6129W        W10329   1.298   9.435   0.697 -0.0665 -0.4531  0.1634
 6130W        W10330   8.230   3.864   9.700 -0.3498  0.0189 -0.0295
 6131W        W10331   1.934   5.418   0.318 -0.0750 -0.1152 -0.0804
 6132W        W10332   2.477   2.938   3.581 -0.2684 -0.0402  0.0715
 6133W        W10333   8.165   8.122   0.279 -0.2539 -0.0280 -0.0220
 6134W        W10334  10.072   3.323   4.945 -0.3209  0.1569 -0.0335
 6135W        W10335   2.059   8.047  11.930  0.1711  0.4072 -0.3164
 6136W        W10336   9.151   6.332  11.494  0.0026 -0.3233  0.1019
 6137W        W10337   3.426  10.241  12.148  0.2419  0.1415  0.2909
 6138W        W10338   7.777   5.810  12.778 -0.1571  0.2879 -0.0693
 6139W        W10339   8.809   5.094   2.942 -0.1402  0.0548  0.2548
 6140W        W10340   1.565   5.506   0.051  0.2860 -0.0839 -0.1686
 6141W        W10341   1.628   3.362   3.292 -0.0517  0.0401 -0.1267
 6142W        W10342   6.373   9.137   9.546  0.0045  0.0257 -0.1066
 6143W        W10343   8.134   5.997  10.379  0.0533 -0.0746  0.0933
 6144W        W10344   2.671   9.230   0.252 -0.3187 -0.0215 -0.1711
 6145W        W10345   9.361   3.674  12.174 -0.5961 -0.1355 -0.1955
 6146W        W10346   5.377   8.071   0.355  0.0250 -0.0197 -0.1498
 6147W        W10347   1.433   4.330   1.365  0.2747  0.0216  0.3797
 6148W        W10348   5.767   8.310   4.050 -0.2537  0.0222 -0.0032
 6149W        W10349   5.283   0.695   9.652  0.4506  0.1633 -0.0639
 6150W        W10350   4.756   5.280  10.125  0.0569 -0.0295  0.3011
 6151W        W10351   5.717   6.574   2.741  0.0763  0.0589 -0.1739
 6152W        W10352   4.147   3.426  13.384 -0.1971 -0.0274 -0.0084
 6153W        W10353   4.367   2.418   9.878 -0.0304  0.2590 -0.0618
 6154W        W10354   2.829   4.487   1.407 -0.5468 -0.3220  0.3114
 6155W        W10355   9.292   9.320   3.022 -0.2609  0.3488 -0.1460
 6156W        W10356   5.131   2.290   9.297  0.0509  0.1914  0.1000
 6157W        W10357  10.255   9.930   3.835 -0.0017 -0.2249 -0.0696
 6158W        W10358   0.399   1.988   2.567 -0.0460  0.1850 -0.3417
 6159W        W10359   4.253   6.657   9.702 -0.3325 -0.1947 -0.2023
 6160W        W10360   9.669   3.839   4.363 -0.0836 -0.0166 -0.3282
 6161W        W10361   1.953   7.022   2.566  0.0330  0.3804  0.0065
 6162W        W10362   8.561   4.570  10.813 -0.4099  0.0488  0.0659
 6163W        W10363   4.184   7.621   0.970 -0.2064 -0.1317  0.0483
 6164W        W10364  10.216   4.923   2.179 -0.2380  0.0056  0.1461
 6165W        W10365   8.042   9.634  10.330  0.2330  0.1852  0.0801
 6166W        W10366   6.392   0.884  10.365 -0.0164  0.2067 -0.1063
 6167W        W10367   5.727   2.432  13.162 -0.0761 -0.0330 -0.0217
 6168W        W10368   7.474   5.502   5.094  0.1684 -0.1188  0.2857
 6169W        W10369   5.809   5.087   4.849  0.1179 -0.1931 -0.0085
 6170W        W10370   5.357   0.528  10.484  0.2511 -0.0949  0.1889
 6171W        W10371   7.374   4.432  12.055 -0.1865  0.1267 -0.1610
 6172W        W10372   5.170   1.958  10.225  0.2154  0.2284  0.0493
 6173W        W10373   7.192   4.160   1.289  0.0404 -0.0449  0.1056
 6174W        W10374   5.848  10.206  13.254  0.1563  0.2886  0.1700
 6175W        W10375   3.200   6.467   2.050  0.1331 -0.1786 -0.0025
 6176W        W10376   1.436   0.147   9.608 -0.3242 -0.1817 -0.1152
 6177W        W10377   9.256   9.430   2.060 -0.1181  0.3855 -0.2973
 6178W        W10378   7.963   8.680   1.530 -0.2953  0.0926  0.1146
 6179W        W10379  10.298   3.707  10.274 -0.2274 -0.2993 -0.1145
 6180W        W10380  10.443   8.727   2.674 -0.0108  0.3600  0.0502
 6181W        W10381   0.566   8.840  11.132 -0.1533 -0.0539 -0.2780
 6182W        W10382   4.444   0.061  13.101 -0.0158 -0.0524  0.0188
 6183W        W10383   0.927   7.138   3.474 -0.1862  0.0082 -0.2330
 6184W        W10384   6.983   5.804   3.631  0.1585 -0.1116 -0.3829
 6185W        W10385   4.459   7.112   9.026 -0.0830 -0.2907  0.4232
 6186W        W10386   6.162   8.843   9.979  0.1517 -0.0603  0.1321
 6187W        W10387   8.497   0.328   4.978 -0.2613 -0.2068  0.3665
 6188W        W10388   3.676  10.443   1.973 -0.1705 -0.0704  0.2287
 6189W        W10389   1.992   3.414  10.880  0.1629  0.2089  0.3202
 6190W        W10390   6.753   5.429  12.965  0.0373  0.0382  0.1560
 6191W        W10391   3.666   8.029  11.298  0.1476  0.1845  0.0723
 6192W        W10392   5.522   4.641  12.813  0.0927 -0.0341 -0.2669
 6193W        W10393   2.811   9.709  12.281  0.0196 -0.1054  0.1556
 6194W        W10394   2.486   8.376  10.633 -0.2961 -0.0187 -0.1520
 6195W        W10395   7.366   3.385   3.905  0.0965 -0.1910  0.0051
 6196W        W10396   0.891   4.119  12.389  0.1734 -0.1050  0.1001
 6197W        W10397   7.524   8.910   1.856 -0.1957 -0.1898 -0.3302
 6198W        W10398   2.383   3.011   9.723 -0.0137  0.2248 -0.0926
 6199W        W10399   2.771   5.058  11.998 -0.0730  0.2849  0.7429
 6200W        W10400  10.386  10.478   8.924 -0.0490 -0.0718 -0.1440
 6201W        W10401   4.875   5.796  11.421  0.5009 -0.1202  0.0485
 6202W        W10402   1.971   8.402  11.468  0.1487  0.0882 -0.1267
 6203W        W10403   8.930   4.449  11.178 -0.2167 -0.0149 -0.0373
 6204W        W10404   4.874   8.503  12.364  0.2534 -0.1127  0.1682
 6205W        W10405   5.066   0.138   1.783 -0.0571  0.2309  0.3381
 6206W        W10406   6.828   7.703   2.879  0.0381  0.1316  0.0991
 6207W        W10407   0.174   0.516   2.977 -0.0550 -0.1590 -0.0865
 6208W        W10408   1.858   0.484  12.786  0.0422  0.4739 -0.0721
 6209W        W10409   0.085   5.924   8.993 -0.0318 -0.3009  0.1775
 6210W        W10410   4.832   9.870   0.265  0.2574 -0.2243  0.3044
 6211W        W10411  10.176   5.581   9.209  0.1645 -0.2644  0.1995
 6212W        W10412   4.983  10.263  11.748  0.0959 -0.1775  0.0545
 6213W        W10413   9.727   1.153   8.547  0.0930 -0.1903 -0.0184
 6214W        W10414   7.890   4.037   0.343  0.0644 -0.1846  0.0382
 6215W        W10415   7.899   2.854   0.939  0.0927  0.0881  0.2573
 6216W        W10416   6.791   6.115   0.316 -0.0047 -0.1308  0.1226
 6217W        W10417   4.313   2.479   3.107 -0.1203  0.2520  0.0631
 6218W        W10418   8.806   5.682   1.402  0.3795 -0.0228 -0.1858
 6219W        W10419   1.819   2.570   0.046  0.0204  0.4599  0.2364
 6220W        W10420  10.324   4.827  12.334 -0.1171  0.1460  0.3065
 6221W        W10421   7.235   0.230   1.755 -0.0010  0.0707  0.0457
 6222W        W10422   6.910   1.675  11.906 -0.1681  0.0763  0.0428
 6223W        W10423   1.883   2.203  11.668  0.0097 -0.0654  0.1052
 6224W        W10424   3.277   0.350   1.938  0.0646  0.2801 -0.1848
 6225W        W10425   9.089   9.962   1.833 -0.2211  0.1535 -0.0420
 6226W        W10426   1.874   2.092   9.537  0.1108 -0.0971 -0.0229
 6227W        W10427   3.771   9.728   0.832 -0.0208 -0.0607 -0.3368
 6228W        W10428   3.811   7.827   2.850  0.0907 -0.0771 -0.1432
 6229W        W10429   3.606   3.842  10.975  0.0917 -0.0384  0.5154
 6230W        W10430   6.648   7.368  12.773  0.0370  0.0830  0.0497
 6231W        W10431   1.173   4.414   4.522 -0.3146 -0.3315 -0.3339
 6232W        W10432   2.892   2.661   2.568 -0.0494  0.0825  0.2261
 6233W        W10433   9.168   6.459   4.076 -0.1768  0.0862  0.1871
 6234W        W10434   9.163   9.977   9.509  0.0952 -0.3332 -0.1061
 6235W        W10435  10.244   6.222  12.157  0.2270  0.3446  0.0741
 6236W        W10436   3.526   7.001  10.126 -0.2792  0.1484  0.1576
 6237W        W10437   5.579   0.543  12.628  0.3504  0.0181 -0.2670
 6238W        W10438   3.088   8.454   1.170  0.2688 -0.0160  0.2148
 6239W        W10439   3.191   2.479  12.886  0.0791  0.0356  0.1658
 6240W        W10440   0.837   7.366   0.079  0.3188 -0.0243  0.1314
 6241W        W10441   8.276   3.281   2.918  0.2686 -0.1495  0.0775
 6242W        W10442   0.758   8.006   3.126 -0.0022  0.1004  0.0318
 6243W        W10443   4.923   9.025  12.382 -0.1276 -0.1891 -0.0413
 6244W        W10444   2.041  10.431   2.037  0.0256 -0.0303 -0.0223
 6245W        W10445   1.802   0.295  10.981  0.0351 -0.1427 -0.0538
 6246W        W10446   1.177   1.063   1.326 -0.1557  0.0375  0.1372
 6247W        W10447   1.358   6.653   8.362  0.3114 -0.1249  0.0316
 6248W        W10448   4.500  10.187  11.556 -0.0884  0.1012  0.2420
 6249W        W10449   4.666  10.104   0.666  0.1997  0.2072 -0.2452
 6250W        W10450   4.035   2.826   2.627 -0.0127 -0.2889  0.0020
 6251W        W10451   5.594   1.785  10.011 -0.2376  0.2970  0.1964
 6252W        W10452   3.555   5.314   1.468  0.0519 -0.0603 -0.3093
 6253W        W10453   8.507   1.758   3.147  0.2986  0.0619  0.0659
 6254W        W10454   3.754   0.062  11.319 -0.2618 -0.0310  0.2085
 6255W        W10455   7.590   0.742   1.927 -0.2399 -0.2647  0.1313
 6256W        W10456   7.053   1.319   3.162  0.2102  0.1461  0.2672
 6257W        W10457   1.636   3.124   0.540  0.0943 -0.4443  0.0032
 6258W        W10458   9.281   5.316   9.926 -0.1714  0.1355 -0.2040
 6259W        W10459   2.129   3.273  10.060  0.0590  0.0633 -0.1616
 6260W        W10460   8.926   0.407   9.099 -0.1146  0.1177  0.0254
 6261W        W10461   5.683   1.253  10.206  0.1532  0.1009 -0.0935
 6262W        W10462   1.704   9.712   1.787 -0.1793  0.3476 -0.1316
 6263W        W10463   5.484   0.910   1.970  0.0773  0.2337 -0.0070
 6264W        W10464   6.860   9.428   1.668  0.2206 -0.0582  0.0470
 6265W        W10465   0.764   0.205   0.798 -0.0575  0.0907  0.0686
 6266W        W10466   9.068   5.563  11.951 -0.1947 -0.0838 -0.0305
 6267W        W10467   8.942   1.948   2.179 -0.0248  0.0014 -0.1726
 6268W        W10468   7.499   6.987   4.776  0.3215 -0.2033 -0.2086
 6269W        W10469   8.170   9.919   0.977 -0.0350 -0.1445  0.2184
 6270W        W10470   8.470   1.700  13.305  0.1461  0.0035  0.0203
 6271W        W10471   3.942   3.636   3.262 -0.1363  0.0674 -0.1310
 6272W        W10472   3.771   7.229  11.671 -0.2052  0.1498 -0.3193
 6273W        W10473   4.158   6.721   3.618 -0.1651 -0.1572 -0.0726
 6274W        W10474   1.677   6.997   0.018 -0.1961 -0.2018 -0.1571
 6275W        W10475   3.545   4.966   9.428  0.0000  0.1380 -0.0131
 6276W        W10476   0.628   1.779   9.856  0.3358  0.1089 -0.1903
 6277W        W10477   3.489   4.080  13.042 -0.0653 -0.2800  0.1840
 6278W        W10478   0.464   6.984   0.515  0.2296 -0.0282 -0.1542
 6279W        W10479   9.267   8.574   2.376  0.3250  0.0145  0.1853
 6280W        W10480   9.468   7.672  11.668 -0.0857 -0.1414  0.0614
 6281W        W10481   3.428   4.261  10.511 -0.0657  0.0639 -0.0514
 6282W        W10482   8.598   5.275  12.048  0.0824  0.2544  0.1051
 6283W        W10483   2.848   4.695   1.890  0.1762  0.1742  0.4209
 6284W        W10484   7.915   4.877   3.264 -0.3649  0.0032 -0.0370
 6285W        W10485   5.968   2.274  11.589 -0.2550 -0.0483 -0.1951
 6286W        W10486   4.093   5.070   1.466  0.3591  0.0859 -0.0792
 6287W        W10487   4.823   4.915   3.536  0.1389  0.0027  0.1245
 6288W        W10488   7.039   4.270   0.672  0.2835 -0.0577  0.1637
 6289W        W10489   6.805   5.032   1.735 -0.1667  0.0960 -0.1546
 6290W        W10490   3.746   8.074  10.340 -0.0121 -0.0432  0.2100
 6291W        W10491   4.728  10.451   2.213  0.1662  0.1404  0.6101
 6292W        W10492   7.189   1.378   0.608  0.0627  0.0079 -0.1394
 6293W        W10493   3.355   6.995  11.086 -0.3868 -0.0924  0.0856
 6294W        W10494   4.995   8.638   8.608 -0.1616 -0.0390 -0.1830
 6295W        W10495   4.384   1.699   2.098 -0.2220  0.0011 -0.2702
 6296W        W10496   1.165   1.107   3.976 -0.2367  0.1418 -0.1299
 6297W        W10497   4.609   7.002   1.261  0.1947  0.3635  0.2312
 6298W        W10498   4.770   2.766   1.068 -0.1514 -0.0986 -0.0130
 6299W        W10499   8.733   0.198   3.632  0.2275 -0.1138 -0.2834
 6300W        W10500   8.035   9.052   1.230  0.0567 -0.1070  0.2877
 6301W        W10501   5.862   8.287   0.789 -0.0810 -0.0348  0.0014
 6302W        W10502   3.297   0.224  13.254  0.3047  0.1318 -0.3933
 6303W        W10503   3.356   8.723  11.880  0.1158 -0.0231  0.1392
 6304W        W10504   4.228   2.056  13.015  0.1303  0.0803  0.0962
 6305W        W10505   6.086   8.804  11.344  0.2623  0.0606 -0.0989
 6306W        W10506  10.047   0.047   4.472  0.0375  0.2984 -0.0782
 6307W        W10507   7.359   3.440  11.731  0.1059  0.2053  0.0294
 6308W        W10508   5.889  10.233   3.205  0.0440  0.1330 -0.0294
 6309W        W10509   2.948   7.660   1.835 -0.1039 -0.1276  0.3924
 6310W        W10510   1.010   6.258   9.118 -0.2672  0.2175  0.0869
 6311W        W10511   7.711   3.961   3.143  0.0668  0.0404 -0.0756
 6312W        W10512   8.854   1.861   1.683  0.0841  0.1969 -0.2252
 6313W        W10513   6.067   2.351   2.297 -0.6390 -0.1458 -0.0877
 6314W        W10514   0.043   2.243  12.274 -0.2566  0.0378  0.0177
 6315W        W10515   0.034   6.550  10.064 -0.0965 -0.4086 -0.1541
 6316W        W10516   4.503   4.416  12.631  0.1112 -0.1648  0.2796
 6317W        W10517   7.187   1.718  12.789 -0.1122  0.1905  0.0450
 6318W        W10518   0.424   9.325  12.004 -0.1868 -0.0866  0.1510
 6319W        W10519   8.413   0.498   3.367 -0.0447 -0.1100  0.0162
 6320W        W10520   6.849   3.764   0.513  0.1328 -0.0861  0.0470
 6321W        W10521   2.427   7.619  11.376 -0.1869  0.5075  0.3019
 6322W        W10522   6.295   1.883   9.517  0.0799 -0.3763 -0.1244
 6323W        W10523   5.473   1.881  11.156 -0.0510 -0.1803 -0.1854
 6324W        W10524   5.739   2.919   1.430 -0.0652 -0.1786  0.1245
 6325W        W10525   9.703   9.030  10.009  0.3847 -0.1148  0.2862
 6326W        W10526   7.442   2.001  13.143  0.1496  0.1679  0.4072
 6327W        W10527   8.138   9.231  11.202  0.0332  0.1574 -0.2453
 6328W        W10528   3.981   2.190  12.570 -0.2551 -0.0043 -0.3620
 6329W        W10529   4.186   9.917   3.270  0.1188  0.1734 -0.1454
 6330W        W10530   3.849   3.767   9.881 -0.0354 -0.0159  0.2289
 6331W        W10531   2.871   7.281   3.897  0.0093  0.0794  0.1400
 6332W        W10532   2.058   8.838  12.968 -0.2333  0.1710  0.0161
 6333W        W10533   2.228   2.777  12.524 -0.3262 -0.2535 -0.1487
 6334W        W10534   7.448   0.644   0.027  0.3488 -0.1829  0.1455
 6335W        W10535   3.258   0.213  11.190 -0.2085 -0.0782  0.1159
 6336W        W10536   5.314   4.636   0.607 -0.0646 -0.0163  0.1149
 6337W        W10537   2.312   2.222  13.220  0.1376  0.1103  0.1992
 6338W        W10538   1.954   4.577   8.475  0.1455  0.0389 -0.4350
 6339W        W10539   3.741   5.622   2.666 -0.2387  0.1589 -0.4116
 6340W        W10540   8.092   4.196  11.646 -0.1139 -0.1548 -0.1472
 6341W        W10541   9.478   6.871   5.050  0.1169  0.2837 -0.0038
 6342W        W10542   7.819   7.199   8.794 -0.0053  0.3516  0.0719
 6343W        W10543   7.539   2.545   0.705  0.0137  0.3688 -0.2831
 6344W        W10544   9.040   3.693  10.874  0.0527  0.1981 -0.1316
 6345W        W10545   3.252   7.743   8.362  0.1231 -0.2565  0.1300
 6346W        W10546  10.303   6.416   1.846  0.1925 -0.4520  0.1217
 6347W        W10547   5.982   5.334  12.319  0.1357 -0.2196  0.1692
 6348W        W10548   4.798   8.099   3.959  0.1645  0.0809 -0.1302
 6349W        W10549   7.652   4.253  12.487 -0.0717 -0.3416 -0.2166
 6350W        W10550   8.579   2.759   3.899 -0.2354 -0.1868 -0.2018
 6351W        W10551   0.844   6.679  13.206  0.0337 -0.2286  0.1868
 6352W        W10552   7.974   9.949  11.783  0.2599  0.1307  0.0928
 6353W        W10553   3.143   2.084   1.416  0.1818 -0.0765  0.1139
 6354W        W10554   2.631   8.113  10.212 -0.1211 -0.0274  0.1163
 6355W        W10555   9.082   6.809  12.511 -0.1551  0.0651  0.3865
 6356W        W10556  10.022   2.726   3.132 -0.3025  0.0005 -0.0618
 6357W        W10557   5.320   2.649   1.851  0.0700 -0.1130  0.1091
 6358W        W10558   1.071   5.136   1.321  0.4525  0.2352  0.0473
 6359W        W10559   7.532   5.035   1.095 -0.2951 -0.0485 -0.1538
 6360W        W10560   6.484   8.771   2.348 -0.1935  0.3147  0.1665
 6361W        W10561   7.976   3.412   4.439 -0.1849  0.0528  0.1227
 6362W        W10562   6.335   3.535  11.785 -0.0558  0.0711  0.3484
 6363W        W10563   0.666   7.411   3.783  0.0362 -0.3297 -0.1580
 6364W        W10564   0.477   0.143  11.557  0.0432  0.1922  0.3139
 6365W        W10565   2.449   5.906   2.851  0.2397  0.0458 -0.0243
 6366W        W10566  10.357   3.904   3.683 -0.1412 -0.4528 -0.0346
 6367W        W10567   2.100  10.448   3.561  0.1703 -0.1489  0.0040
 6368W        W10568   1.453  10.192   2.494 -0.0670 -0.1049 -0.0754
 6369W        W10569   1.720   1.681   8.555 -0.1691 -0.0944  0.3983
 6370W        W10570   3.710   9.954  10.194 -0.0521 -0.0598 -0.0143
 6371W        W10571   4.205   8.634   2.917  0.0993 -0.0755 -0.3114
 6372W        W10572   7.902   4.707   1.199  0.3245 -0.3167 -0.0142
 6373W        W10573   7.247   8.799   9.795  0.3136 -0.2544  0.1376
 6374W        W10574   0.301   5.469   8.702  0.2143 -0.1278  0.2150
 6375W        W10575  10.185   5.890   1.920  0.2376 -0.3086 -0.1899
 6376W        W10576   0.452   6.923   2.561 -0.3203 -0.0317 -0.0958
 6377W        W10577   3.329   5.702  12.281 -0.0852  0.0622 -0.0280
 6378W        W10578   0.493   0.984   2.385 -0.2862 -0.3930  0.1042
 6379W        W10579   7.227   8.818   9.224  0.2810  0.1911  0.0103
 6380W        W10580   1.903   4.418  10.971  0.0338 -0.2532 -0.1575
 6381W        W10581  10.366   3.401   1.208 -0.0032  0.0532  0.1478
 6382W        W10582   9.442   6.495  12.704 -0.0756 -0.1077  0.1182
 6383W        W10583   7.675   3.106   9.305 -0.1753 -0.0764 -0.1870
 6384W        W10584   9.140   8.522   8.720 -0.3184  0.3080  0.1754
 6385W        W10585   4.565   4.430  11.313 -0.2298 -0.0416  0.1811
 6386W        W10586   6.799   2.036   4.514 -0.1701 -0.2441  0.1737
 6387W        W10587   2.853   3.981  11.638 -0.1464 -0.2276  0.4260
 6388W        W10588   6.454   2.675   1.078  0.0497  0.0904 -0.0017
 6389W        W10589   8.831   9.133   5.273  0.0288 -0.1601  0.0308
 6390W        W10590   8.989   0.775   2.062 -0.0584  0.3616 -0.0733
 6391W        W10591   4.636   9.403  11.983  0.1487 -0.2771  0.0901
 6392W        W10592   5.173   3.726  10.566  0.0347  0.1559 -0.0463
 6393W        W10593   1.444   4.446   2.419  0.1487 -0.0282  0.2574
 6394W        W10594   4.404  10.425   0.977 -0.2858 -0.0998 -0.2182
 6395W        W10595  10.445   0.152  10.783  0.3577  0.0551  0.1189
 6396W        W10596   8.141   6.440   3.379 -0.0097 -0.3325  0.1108
 6397W        W10597   1.454  10.210  10.437 -0.2639  0.1670 -0.1410
 6398W        W10598   0.017   4.459  13.299 -0.5472  0.3494  0.3011
 6399W        W10599   9.985   2.312   4.791  0.2589 -0.2628  0.1641
 6400W        W10600   1.154   4.653   1.079 -0.1921  0.2637 -0.2242
 6401W        W10601   5.875   1.785  11.535 -0.0927 -0.0209  0.0514
 6402W        W10602   7.126   5.267  13.383 -0.0301 -0.2286  0.0242
 6403W        W10603   7.866   3.333  10.152  0.1607 -0.2118  0.0282
 6404W        W10604   1.106   3.776  11.563 -0.1525 -0.0921  0.0447
 6405W        W10605   4.860  10.142  11.132  0.2637 -0.1097  0.0381
 6406W        W10606   8.036   1.047   2.062 -0.2904  0.0333  0.2339
 6407W        W10607   5.423   3.158   2.649  0.0891  0.1814  0.1349
 6408W        W10608  10.210   0.985   1.340 -0.0707  0.0958 -0.1667
 6409W        W10609   2.401   1.402  11.571  0.0544 -0.2254 -0.1578
 6410W        W10610   0.759   5.035   0.167  0.2539 -0.0009 -0.2675
 6411W        W10611   6.982   6.006  10.751 -0.0312  0.2138 -0.1206
 6412W        W10612   0.364   7.243   8.827  0.1043 -0.1114 -0.1600
 6413W        W10613   3.606   3.729  10.351 -0.0998  0.2203  0.0660
 6414W        W10614   8.983   8.852   9.483  0.2702  0.1695 -0.2352
 6415W        W10615   2.119   4.861   0.720 -0.0241 -0.0121 -0.2603
 6416W        W10616   3.421   7.830   4.299  0.2473 -0.3342  0.0707
 6417W        W10617   0.848   4.141  10.595 -0.0311  0.2888  0.0931
 6418W        W10618   0.101   1.813   3.666 -0.1266  0.1995  0.0370
 6419W        W10619   4.203   9.523  13.324 -0.4210 -0.0194  0.1351
 6420W        W10620   2.910   7.462   0.151  0.2500  0.0166 -0.0067
 6421W        W10621   4.783   1.006   0.488  0.1662 -0.2427 -0.1070
 6422W        W10622   0.231   2.939   1.101  0.0871  0.0278  0.1213
 6423W        W10623   0.644   3.985   0.149 -0.3239 -0.1047 -0.3636
 6424W        W10624   6.571   7.595   0.661 -0.0914  0.0913  0.0811
 6425W        W10625   3.392   1.210   0.798 -0.1692 -0.0724 -0.3612
 6426W        W10626   8.776   6.912   4.441  0.0904  0.1062 -0.0141
 6427W        W10627   3.352  10.023   0.990 -0.1437 -0.1390 -0.1120
 6428W        W10628   9.246   1.195   4.291 -0.1008 -0.1255 -0.2013
 6429W        W10629   4.526   5.865   3.066 -0.0016  0.1109  0.0702
 6430W        W10630   2.872   9.438   3.263  0.3664 -0.3847  0.0792
 6431W        W10631   6.937   5.874   3.031  0.1621 -0.3505  0.3836
 6432W        W10632   0.226   1.826  12.240  0.0342  0.2800  0.1963
 6433W        W10633   4.515   0.035  11.944 -0.0685 -0.1595  0.0902
 6434W        W10634   2.081   2.101   2.479  0.2263  0.2025  0.1937
 6435W        W10635   9.156   3.916   4.247  0.1150 -0.0614 -0.0666
 6436W        W10636   1.921   4.237  11.444 -0.1377  0.0217 -0.0071
 6437W        W10637   0.761   2.566   1.106 -0.2229  0.0705  0.4805
 6438W        W10638   1.521   5.879   2.464  0.0544 -0.2655 -0.0536
 6439W        W10639  10.500   3.988   9.557  0.1925 -0.0774 -0.1144
 6440W        W10640   0.259   6.108  11.345 -0.1916  0.1383  0.1107
 6441W        W10641   3.087   3.406  12.501 -0.1291  0.3639  0.2022
 6442W        W10642   7.249   3.883  12.956  0.0120 -0.1346  0.1751
 6443W        W10643   5.933   1.264   8.900  0.2801  0.2632  0.0067
 6444W        W10644   3.450   1.900   4.128  0.1474  0.0941 -0.0785
 6445W        W10645   9.465   9.253  10.952 -0.3491  0.2171  0.0898
 6446W        W10646   7.111   4.085   1.808 -0.3748 -0.0072 -0.0260
 6447W        W10647   3.047   7.743   9.977  0.0194  0.1164  0.0359
 6448W        W10648   8.541   4.309  11.847 -0.0268  0.2046 -0.3519
 6449W        W10649   9.816   9.622  10.130  0.2688  0.1547 -0.0926
 6450W        W10650   9.794   0.678   1.449 -0.1985  0.1085 -0.4282
 6451W        W10651   6.146   2.712   2.755 -0.1345 -0.1057 -0.2236
 6452W        W10652   5.676   3.113  12.956 -0.1095 -0.2083 -0.2411
 6453W        W10653   1.855   7.571   2.675 -0.2533  0.2103  0.1862
 6454W        W10654   3.808   8.835  11.700  0.1677 -0.0135 -0.1862
 6455W        W10655   2.211   6.462   4.192 -0.1420 -0.1096  0.0327
 6456W        W10656   6.486   0.912  11.834  0.0125  0.1333 -0.1314
 6457W        W10657   8.877   2.778   3.501 -0.0570 -0.2447  0.4489
 6458W        W10658   8.748   4.935  11.166  0.0686  0.2977 -0.0433
 6459W        W10659   5.394   6.149   0.119 -0.2035  0.2325  0.0194
 6460W        W10660   0.688   8.390  10.772  0.1935 -0.0781  0.0244
 6461W        W10661   4.249   2.213   4.195  0.0057 -0.2799  0.0179
 6462W        W10662   0.489   4.713   3.914  0.0489 -0.0781 -0.2659
 6463W        W10663   2.718   1.014  11.794  0.1359  0.0399 -0.2159
 6464W        W10664   2.837   5.110   0.154 -0.2146 -0.3622  0.0878
 6465W        W10665   0.527   5.682   2.491 -0.1112 -0.1808 -0.1130
 6466W        W10666   6.655   4.715  10.163 -0.0061  0.1068 -0.0380
 6467W        W10667   7.807   8.982   0.687  0.3669 -0.4352 -0.0432
 6468W        W10668  10.212   3.020   4.342  0.2223 -0.0850  0.1018
 6469W        W10669   6.218   6.483   0.625 -0.0276  0.0334  0.0980
 6470W        W10670   2.151   6.235   9.002  0.1902  0.1660  0.2286
 6471W        W10671   8.582   7.976   2.604  0.0512  0.0119  0.1471
 6472W        W10672   2.676   5.134   2.165  0.0681 -0.0752 -0.3194
 6473W        W10673   5.786   9.926   1.920 -0.1704  0.3161  0.2974
 6474W        W10674   4.446   6.205   9.545 -0.3319 -0.1590  0.0825
 6475W        W10675   8.120   4.766  12.517 -0.2655 -0.0552  0.0908
 6476W        W10676   2.401   1.142   0.063  0.1474  0.0836  0.0467
 6477W        W10677  10.453   1.461   3.207  0.2952 -0.1743 -0.0777
 6478W        W10678   4.496   5.894   0.318 -0.1330 -0.0182  0.1085
 6479W        W10679   3.550   4.392  11.112  0.0663 -0.0958 -0.1163
 6480W        W10680   8.247   7.829  12.238 -0.1585  0.1174  0.2037
 6481W        W10681   4.804   9.050  10.743  0.0098 -0.3098  0.0301
 6482W        W10682   3.177   5.198  10.234  0.0473 -0.1012  0.2944
 6483W        W10683   4.433   7.621  11.790 -0.0401  0.1741 -0.2623
 6484W        W10684   7.497   6.755  12.979 -0.1710  0.0213  0.0274
 6485W        W10685   8.474   0.938   1.896  0.1588 -0.5174 -0.0658
 6486W        W10686   9.214   4.354   1.548 -0.2859  0.0702 -0.0150
 6487W        W10687   3.863   5.666  12.614  0.1973  0.1121 -0.0403
 6488W        W10688   0.148   0.965   3.349 -0.0570  0.0071  0.2802
 6489W        W10689   4.486   9.352  11.498 -0.2487  0.1187  0.2489
 6490W        W10690   5.434   7.688   1.200 -0.2864  0.0070  0.4206
 6491W        W10691   6.508  10.368   1.631 -0.0035 -0.3618  0.1161
 6492W        W10692  10.226   1.849  10.428 -0.0695 -0.1449 -0.0735
 6493W        W10693   6.614   5.739  10.553 -0.0636 -0.1843  0.2888
 6494W        W10694   1.874   0.135   9.782  0.0170 -0.0224 -0.0137
 6495W        W10695   6.159   7.343  12.571 -0.1091  0.3935 -0.2201
 6496W        W10696   0.948   8.804   4.665  0.0186  0.1541 -0.1048
 6497W        W10697   3.328   8.859   9.518  0.2350  0.0836  0.1103
 6498W        W10698  10.402   1.824   2.814  0.3698  0.0922 -0.1515
 6499W        W10699   7.788   2.851   4.007 -0.2305 -0.0946 -0.0199
 6500W        W10700   3.867   4.152  10.123 -0.2307 -0.0420  0.0790
 6501W        W10701   1.034   3.346   3.334  0.0413 -0.2541  0.1973
 6502W        W10702   8.419   1.734  12.782  0.0709 -0.0190 -0.3581
 6503W        W10703   8.818   7.466   0.877  0.0237  0.0267 -0.2174
 6504W        W10704  10.408   3.514  11.960  0.0994  0.0014  0.1535
 6505W        W10705   3.881   4.332  11.484 -0.2772 -0.3726  0.2318
 6506W        W10706   4.353   2.817   3.440  0.0678 -0.3085 -0.3184
 6507W        W10707   5.541   4.066  12.856 -0.2843  0.1673 -0.4660
 6508W        W10708   4.007   4.631   4.201  0.0029  0.1255 -0.0441
 6509W        W10709   5.910   3.740  12.742 -0.0559 -0.1432  0.1587
 6510W        W10710   8.929   6.109   1.675 -0.0778  0.2737  0.0625
 6511W        W10711   7.750   3.460   0.411  0.4598  0.1544  0.0796
 6512W        W10712   3.892   8.335   9.911  0.1968  0.3121 -0.2178
 6513W        W10713   5.665   5.764  11.390  0.0990 -0.4356  0.0093
 6514W        W10714   7.867   6.756  10.041 -0.1433 -0.1776 -0.1156
 6515W        W10715   4.297   6.895   0.363  0.0461  0.0188 -0.0466
 6516W        W10716   9.780   6.606   2.690  0.1837 -0.1134  0.0659
 6517W        W10717   4.916   7.524   2.748  0.0663  0.0377  0.0914
 6518W        W10718   6.704   8.268  12.730 -0.2101 -0.1958  0.0635
 6519W        W10719   6.154   4.417   8.216 -0.0371  0.0341  0.0835
 6520W        W10720   5.466   0.071  11.856  0.0643  0.3219  0.1475
 6521W        W10721   5.720   5.037   1.652  0.1449  0.4737  0.0703
 6522W        W10722   3.117   8.807   2.836  0.1182  0.1892  0.1682
 6523W        W10723   1.328   8.902   0.904 -0.0546 -0.1061 -0.0982
 6524W        W10724   8.669  10.454   4.211  0.1923 -0.0087 -0.1852
 6525W        W10725   2.328   6.755   2.770 -0.0790  0.0264  0.0831
 6526W        W10726   8.477   0.959   0.053  0.0189 -0.1016 -0.1757
 6527W        W10727   8.584  10.481   3.026  0.0015 -0.3429  0.0016
 6528W        W10728   3.530   2.836   2.279 -0.0260 -0.1091  0.0022
 6529W        W10729   6.189   1.491   3.052  0.1971  0.2036  0.2439
 6530W        W10730   2.068   4.798  12.265  0.0200  0.0299  0.0078
 6531W        W10731   6.535   2.501   3.047  0.0020  0.2623  0.0584
 6532W        W10732   1.578   4.568  12.145  0.0555 -0.0548 -0.1578
 6533W        W10733  10.285   1.163   2.822 -0.0199 -0.2044  0.1814
 6534W        W10734   4.487   7.667   9.504  0.0946  0.1652 -0.0065
 6535W        W10735   5.701   7.904  12.144  0.1710 -0.1083 -0.1878
 6536W        W10736   4.927  10.145   1.834  0.0754  0.0420  0.1204
 6537W        W10737   7.384   6.084   3.274 -0.2038 -0.4191 -0.1371
 6538W        W10738   1.248   4.048   9.296  0.0407 -0.1804 -0.0785
 6539W        W10739   9.436   3.503   0.731 -0.0331 -0.1731  0.1695
 6540W        W10740   2.427   6.417   0.261 -0.0800  0.3235  0.1217
 6541W        W10741   0.711   2.298  10.484 -0.0615 -0.3203  0.1448
 6542W        W10742   6.256   6.694   4.421  0.2565 -0.1205  0.2383
 6543W        W10743   5.266   8.978  11.987 -0.0442 -0.0420 -0.0119
 6544W        W10744   8.562   3.705   1.416  0.0842 -0.0246 -0.3017
 6545W        W10745   9.221   6.658  10.150 -0.4241  0.0151 -0.1160
 6546W        W10746   0.461   2.614   1.481 -0.3367  0.1016  0.0202
 6547W        W10747   9.088   0.056   8.830  0.2433  0.1123  0.2953
 6548W        W10748   7.003   1.084  12.730 -0.0030 -0.0891  0.3296
 6549W        W10749  10.360   8.247   4.141 -0.2164  0.0924 -0.1012
 6550W        W10750   6.759   7.767   9.123 -0.1722 -0.1168  0.2492
 6551W        W10751   3.252   4.879   1.539  0.1237 -0.1506 -0.2338
 6552W        W10752   7.339   6.221   3.820  0.4956 -0.1653  0.1727
 6553W        W10753   6.522   6.593  10.166 -0.1316 -0.3560  0.1063
 6554W        W10754   4.435   5.452  11.460  0.2573  0.3006  0.1729
 6555W        W10755   2.257   1.178   2.332  0.2030 -0.2316  0.0102
 6556W        W10756   2.783   5.286   9.351  0.1689 -0.2424 -0.3034
 6557W        W10757   1.344   4.987  12.146 -0.2712  0.2240 -0.1618
 6558W        W10758   8.464   4.528  11.367  0.2120  0.2212 -0.1730
 6559W        W10759   5.449   9.496   1.408  0.1562  0.0700  0.1258
 6560W        W10760   7.970   5.172   2.871 -0.2518 -0.0142  0.2142
 6561W        W10761   1.512   8.463  11.343 -0.0841  0.3491 -0.0063
 6562W        W10762  10.255   3.904  11.586  0.0785  0.0031 -0.0516
 6563W        W10763   8.474   4.371   2.691 -0.2499  0.0344  0.1273
 6564W        W10764   7.034   4.632   4.336  0.0584 -0.0988 -0.0564
 6565W        W10765   5.344   8.299   9.665  0.1830  0.2273 -0.1699
 6566W        W10766   2.985   5.601   9.002 -0.1583  0.1031 -0.0159
 6567W        W10767   4.469   5.391   3.770  0.2029  0.0552 -0.0992
 6568W        W10768   4.020   9.031  11.254  0.2425 -0.3307  0.0173
 6569W        W10769   8.321   2.571   0.721 -0.1499  0.2051 -0.0759
 6570W        W10770  10.260   9.692  10.397 -0.0969 -0.0939 -0.0079
 6571W        W10771   1.787   2.931  10.503  0.1390 -0.0764  0.0793
 6572W        W10772   5.509   6.977   9.585  0.0265  0.2051  0.0028
 6573W        W10773   6.469   6.138  13.278  0.1813  0.2757 -0.0727
 6574W        W10774   3.910   7.982   4.293 -0.2039  0.0197 -0.0263
 6575W        W10775   0.931   2.309   0.407 -0.0238  0.0528  0.0495
 6576W        W10776   0.001   7.705   2.059 -0.0678 -0.1942  0.3202
 6577W        W10777   6.252   2.898   3.228  0.2250 -0.6309 -0.0718
 6578W        W10778   0.767   9.298   4.650 -0.0421  0.0683 -0.4118
 6579W        W10779   7.674   5.789  13.328  0.2567 -0.3396  0.2349
 6580W        W10780  10.189   2.589   3.542 -0.1996  0.0999 -0.0917
 6581W        W10781  10.240   2.931   1.318 -0.0621  0.3517  0.3610
 6582W        W10782   2.677   6.256   2.605  0.0784  0.1541 -0.2793
 6583W        W10783   6.202   8.848   0.837 -0.0817  0.4454 -0.1606
 6584W        W10784   0.995   6.174   0.987 -0.2208 -0.2038  0.1179
 6585W        W10785   3.958   3.812  13.122 -0.0234 -0.3515  0.1724
 6586W        W10786   0.907   2.097   9.576 -0.2743 -0.2607 -0.0465
 6587W        W10787   1.089   2.777  13.037  0.2508  0.3304 -0.0108
 6588W        W10788   3.250   7.115  12.625  0.0062 -0.0363  0.1145
 6589W        W10789   8.856  10.278  10.423  0.2399  0.0760 -0.2320
 6590W        W10790   2.351   6.685   1.180  0.3575  0.2216 -0.0756
 6591W        W10791  10.408   0.683   1.004  0.0421  0.0308  0.0551
 6592W        W10792   5.233   7.699  12.306 -0.1824 -0.0584 -0.2261
 6593W        W10793   3.248   1.820   2.905 -0.0989  0.1585  0.2960
 6594W        W10794   3.752   7.354   1.827  0.0322  0.4157 -0.0234
 6595W        W10795   6.832   2.061  12.904  0.2157 -0.0824 -0.0175
 6596W        W10796   3.665   8.566   3.561 -0.1385  0.0967  0.1426
 6597W        W10797   8.076   7.568   0.678 -0.3971  0.1815 -0.0166
 6598W        W10798   2.022   6.719   0.281 -0.0092  0.1087 -0.0536
 6599W        W10799   4.408   3.498  12.942  0.0200  0.0633  0.2482
 6600W        W10800   1.413   2.431   3.005  0.0352  0.1543  0.1367
 6601W        W10801   7.777   6.308   5.235 -0.0237  0.0888 -0.0717
 6602W        W10802   5.702   7.023  12.784  0.0669 -0.3409  0.0937
 6603W        W10803   9.646   3.442   1.625 -0.1862 -0.0473  0.1206
 6604W        W10804   8.749   3.255   1.309 -0.2881  0.0989 -0.1523
 6605W        W10805   0.883   9.817   0.761  0.2326  0.2673 -0.0747
 6606W        W10806   7.185   8.048   0.459  0.1134 -0.1021  0.2130
 6607W        W10807   1.121   5.103  10.106 -0.1587 -0.0596 -0.0157
 6608W        W10808   8.300   9.881  12.213 -0.0452 -0.2653  0.2232
 6609W        W10809   7.122   9.863   2.301  0.0588 -0.2114  0.1292
 6610W        W10810   0.904   0.293   1.578 -0.2636  0.0954 -0.0505
 6611W        W10811   8.899   4.996   1.386  0.0190 -0.0082  0.0296
 6612W        W10812   2.232   8.084   2.091 -0.2590 -0.1499  0.0447
 6613W        W10813   2.672   8.636  10.166  0.0313  0.4317  0.1093
 6614W        W10814   3.469   4.169   2.232 -0.0594 -0.0462 -0.0468
 6615W        W10815   1.447   7.275  12.154  0.1000  0.0175 -0.0262
 6616W        W10816   9.444   2.198   0.356  0.0832  0.0327 -0.1261
 6617W        W10817   2.712   8.150   3.928 -0.0703  0.2434  0.0886
 6618W        W10818   3.113   4.230  10.925  0.2383  0.0592  0.0626
 6619W        W10819   8.879   7.448   1.876  0.1197 -0.2293  0.2256
 6620W        W10820   7.168   3.111   9.320 -0.0585  0.1918 -0.0528
 6621W        W10821   2.148   0.899   3.158  0.2431  0.1257 -0.0006
 6622W        W10822   8.394   7.277   0.961 -0.0772  0.0844  0.2364
 6623W        W10823   7.576   2.158   0.367  0.0231 -0.1102  0.2509
 6624W        W10824   0.622   2.803   3.946  0.1784 -0.1432  0.1040
 6625W        W10825   5.745   1.465   2.298 -0.2443 -0.1436 -0.0195
 6626W        W10826   7.731   3.987   8.876  0.1520  0.0159  0.3502
 6627W        W10827   7.948   8.387  12.800  0.3296  0.1212 -0.0757
 6628W        W10828   9.965   9.453   1.006  0.0042 -0.1960 -0.3374
 6629W        W10829   8.482   6.562   2.210 -0.2881 -0.1123  0.0300
 6630W        W10830   2.547   2.965  11.585 -0.4098 -0.1693 -0.1283
 6631W        W10831   4.113   7.756  10.416  0.0460 -0.2721 -0.0032
 6632W        W10832   2.592   1.595   0.128 -0.0355 -0.2765  0.2614
 6633W        W10833   9.880   0.823  11.324 -0.2590  0.0597  0.0190
 6634W        W10834   6.130   2.428   9.574  0.0122  0.0059  0.1731
 6635W        W10835   0.713   0.707   0.354 -0.0347  0.1252  0.1217
 6636W        W10836   0.296   1.731   0.975 -0.3115  0.2991 -0.1612
 6637W        W10837  10.394   8.264   4.679 -0.0405 -0.2919 -0.0534
 6638W        W10838   1.687   2.722   2.562 -0.3165  0.1098  0.0203
 6639W        W10839   9.435   9.503  11.901 -0.1164  0.0533  0.0343
 6640W        W10840   7.933   3.277  12.909 -0.2163  0.0086 -0.0423
 6641W        W10841  10.453   3.456   2.597 -0.4004 -0.3707  0.0570
 6642W        W10842   2.641   3.153   1.228 -0.0114  0.0350 -0.0055
 6643W        W10843   8.813   2.243  10.985 -0.1877 -0.2657  0.1866
 6644W        W10844   8.310   3.908  12.014 -0.2715 -0.0034  0.3546
 6645W        W10845   3.125  10.403   0.754 -0.1601 -0.1414  0.3462
 6646W        W10846  10.303   3.075  11.820 -0.1329 -0.1460 -0.0969
 6647W        W10847  10.082   6.725  12.341  0.2429 -0.1165  0.1146
 6648W        W10848   5.545  10.360   3.589 -0.0507 -0.0216 -0.1488
 6649W        W10849   4.687   8.615   2.987 -0.2626  0.0559 -0.2434
 6650W        W10850  10.376   0.773   4.204  0.3140 -0.0217  0.3856
 6651W        W10851   0.039   1.620  10.830 -0.0316 -0.0025 -0.3379
 6652W        W10852   7.563   1.053  11.553 -0.0943 -0.3043 -0.0269
 6653W        W10853   6.039   0.582   0.246  0.1714  0.0194 -0.0462
 6654W        W10854   6.315   4.647   3.637  0.0295  0.0627 -0.1195
 6655W        W10855   7.154   8.000   1.416 -0.2447 -0.2873 -0.3886
 6656W        W10856   2.022   4.509   9.067 -0.1510  0.2818  0.0226
 6657W        W10857   2.775   1.679  11.253  0.2734  0.2928  0.1948
 6658W        W10858   8.771   8.411  10.261  0.1168  0.4453 -0.6015
 6659W        W10859   4.546   2.080   0.610  0.1286  0.0553 -0.1774
 6660W        W10860   5.254   4.513   9.941 -0.1165  0.0534  0.2389
 6661W        W10861   8.987  10.304   3.842 -0.0467 -0.2740 -0.4999
 6662W        W10862   8.016   5.462  13.160 -0.1339 -0.2699  0.2252
 6663W        W10863   7.947   5.887   1.555  0.2991  0.0795  0.0456
 6664W        W10864   1.984   7.405  12.146 -0.0063  0.0403 -0.0548
 6665W        W10865   8.758   1.501   2.668  0.1488 -0.1353  0.0394
 6666W        W10866   7.828   1.813   2.853 -0.0251  0.1857  0.2023
 6667W        W10867   8.377  10.445  13.257 -0.1383 -0.0806 -0.1230
 6668W        W10868   0.677   0.987  11.077  0.0805  0.1413  0.1955
 6669W        W10869   5.283   9.728   1.837 -0.1883 -0.0499 -0.0388
 6670W        W10870   6.326   1.677  10.726  0.0069 -0.2153  0.1393
 6671W        W10871  10.367   2.573  11.805  0.0363 -0.0197  0.0340
 6672W        W10872   0.425   2.965   2.094 -0.1898 -0.0470  0.2447
 6673W        W10873   2.723   5.114  12.879  0.0397 -0.1999 -0.0812
 6674W        W10874   6.908   9.876   3.738 -0.2389  0.0270  0.1335
 6675W        W10875   0.816   0.211   0.179 -0.0061  0.0988 -0.1120
 6676W        W10876   2.929  10.117  10.553  0.0070 -0.0619 -0.0651
 6677W        W10877   9.582   5.720   4.335  0.2214  0.0026 -0.0088
 6678W        W10878   3.543   4.914   0.721 -0.1828 -0.2108 -0.0052
 6679W        W10879   8.431   9.459  11.731  0.1972  0.0798 -0.2189
 6680W        W10880   7.931   6.333   1.362 -0.0563 -0.0445  0.0232
 6681W        W10881  10.040   5.319  12.244 -0.0829  0.2188  0.0827
 6682W        W10882   0.234   7.154  11.859 -0.0802  0.3916  0.0765
 6683W        W10883   3.355   9.919   9.764  0.0605  0.1363 -0.1536
 6684W        W10884   3.146   9.501  12.563  0.1536 -0.0642  0.0564
 6685W        W10885   4.369   0.429   0.850 -0.3139  0.0268 -0.0322
 6686W        W10886   3.285   7.774   0.689  0.0274  0.0379  0.2065
 6687W        W10887  10.310   2.792   1.886 -0.2231 -0.0083  0.1660
 6688W        W10888   2.118   3.910   0.660  0.2462 -0.0637 -0.2247
 6689W        W10889   9.583   3.985   0.163 -0.2324 -0.0317  0.3388
 6690W        W10890   5.005   7.581  11.874 -0.2439  0.0758 -0.1195
 6691W        W10891   0.536   9.489   1.028  0.0402 -0.2060  0.2347
 6692W        W10892   6.491   2.238   9.868 -0.2581 -0.3226  0.2124
 6693W        W10893   9.441   0.941   0.673  0.1452  0.1322 -0.3902
 6694W        W10894   1.343   4.701  10.383  0.2136 -0.0462 -0.2215
 6695W        W10895   1.321   3.210  11.394 -0.1379 -0.0069 -0.0341
 6696W        W10896   5.273   2.597   3.425 -0.1961 -0.2107  0.2839
 6697W        W10897   7.118   0.142   0.661 -0.0551 -0.4059  0.2062
 6698W        W10898   3.493   7.267  13.076  0.0429  0.1014  0.0784
 6699W        W10899   7.512   8.776  12.003 -0.0489  0.3489 -0.2045
 6700W        W10900   0.131   5.556   4.818 -0.0145 -0.0432  0.0631
 6701W        W10901   0.835   3.811  10.229  0.0356  0.1320  0.1361
 6702W        W10902   1.498   9.403  12.251  0.2182 -0.1179 -0.2964
 6703W        W10903   7.079  10.150   0.630 -0.0664  0.1136 -0.0406
 6704W        W10904   2.673   2.680   1.265  0.0691 -0.0647  0.0340
 6705W        W10905  10.482   8.112   0.462 -0.4759 -0.0989 -0.0383
 6706W        W10906   9.326   1.607   8.644 -0.0278  0.1843 -0.0660
 6707W        W10907   0.498   5.105   8.960  0.2647  0.1296  0.0946
 6708W        W10908   2.223   4.179   1.996 -0.4225 -0.0351  0.0153
 6709W        W10909   0.921   4.371   1.480 -0.1265 -0.1653 -0.0113
 6710W        W10910   1.006   4.364   3.077 -0.0069 -0.1607 -0.0555
 6711W        W10911   1.902  10.357   0.196 -0.2737  0.1640 -0.0752
 6712W        W10912   2.722   5.996  12.107 -0.3436 -0.0498 -0.1447
 6713W        W10913   0.775   9.359   1.484 -0.0595 -0.1217  0.1288
 6714W        W10914   3.461   7.429   9.827  0.0551 -0.4246  0.0117
 6715W        W10915   6.232   2.227   1.828  0.1131  0.2810  0.0167
 6716W        W10916  10.011   7.871   1.248  0.3436 -0.1694  0.2356
 6717W        W10917   5.098   5.784   8.997 -0.0827 -0.0515 -0.0555
 6718W        W10918   5.758   2.011   3.387 -0.2219 -0.1189 -0.0393
 6719W        W10919   2.581   1.570   1.777 -0.0086 -0.0414  0.1867
 6720W        W10920   6.192   8.707   9.371 -0.3133 -0.0836 -0.0533
 6721W        W10921   5.829   7.004   2.242  0.3053  0.0040 -0.2630
 6722W        W10922   5.917   9.702   1.427 -0.0813  0.1448 -0.2205
 6723W        W10923   6.575   3.066  13.113  0.0511 -0.3097  0.1811
 6724W        W10924   8.551   4.884   9.697 -0.2946  0.0890 -0.2526
 6725W        W10925   0.405   9.249  12.549 -0.3443 -0.2298 -0.0486
 6726W        W10926   3.595   7.788  12.951 -0.2358  0.0428 -0.0921
 6727W        W10927   7.645   6.458   2.755  0.1668 -0.0999 -0.0021
 6728W        W10928   0.130  10.223  11.056  0.0029 -0.0799 -0.0140
 6729W        W10929   3.499   8.407   1.471 -0.1709  0.4492 -0.4177
 6730W        W10930   0.141   4.295   3.742 -0.1419  0.1969 -0.0383
 6731W        W10931   6.798   5.516  11.545 -0.0885 -0.1088 -0.2332
 6732W        W10932   4.000   1.068   2.576  0.1043 -0.0399  0.0106
 6733W        W10933   2.363   1.509  11.026 -0.1869 -0.0116 -0.2686
 6734W        W10934  10.433   4.265  12.467  0.0944  0.3090  0.0565
 6735W        W10935   2.331   7.260  11.746  0.1114 -0.2201  0.1941
 6736W        W10936   8.458   2.274   2.392  0.2716 -0.0088  0.0229
 6737W        W10937   7.480   0.280  10.261 -0.1287 -0.3754  0.0468
 6738W        W10938   0.230   2.034  13.142 -0.0314  0.2089 -0.1815
 6739W        W10939   5.091   0.605   2.632 -0.0943 -0.3168  0.2732
 6740W        W10940   2.120   5.634   3.182  0.1661 -0.0755 -0.0488
 6741W        W10941   8.472   2.359  10.627 -0.1764  0.3131  0.0089
 6742W        W10942   3.483  10.077  10.638  0.1051  0.0187  0.0361
 6743W        W10943   0.939   9.113   0.049  0.0454 -0.1171 -0.0088
 6744W        W10944   8.883   9.835  11.294 -0.2051 -0.3692  0.3550
 6745W        W10945   4.994   2.725   4.300  0.1597  0.1389 -0.0378
 6746W        W10946   6.856   5.460   4.031  0.2267  0.1866  0.2046
 6747W        W10947   9.341   4.537  12.381  0.0065  0.2653 -0.5825
 6748W        W10948   1.566   6.387   0.542 -0.2135  0.5759  0.1097
 6749W        W10949   4.711   6.518   9.912 -0.0124  0.0851  0.1329
 6750W        W10950   4.265   4.208  12.129  0.4585  0.0594  0.4616
 6751W        W10951   9.201   6.952   4.092  0.1940  0.2868 -0.1933
 6752W        W10952   1.927   2.901   9.609 -0.0003 -0.0021  0.0557
 6753W        W10953   8.515   1.767  10.856 -0.1372  0.0193 -0.1012
 6754W        W10954   0.503   6.114   8.263 -0.1179 -0.0240  0.0096
 6755W        W10955   0.639   8.223  10.341 -0.1673 -0.2123  0.1234
 6756W        W10956   3.115   7.300   0.603 -0.0881  0.2581  0.0631
 6757W        W10957   9.599   9.889   0.905 -0.0099  0.0060  0.0353
 6758W        W10958   3.827   3.198   3.487  0.1579  0.1659 -0.2529
 6759W        W10959   1.943   1.872  12.944  0.2253  0.1532  0.0552
 6760W        W10960   7.878   4.230   9.699  0.0017  0.1842  0.1678
 6761W        W10961   7.590   1.820   1.228 -0.0858  0.0555 -0.2902
 6762W        W10962   0.026   5.950   9.493 -0.0352  0.1539  0.2619
 6763W        W10963   7.332   8.224  11.441  0.1108 -0.1737  0.2127
 6764W        W10964   8.513   7.359  10.573  0.0278  0.3524  0.1785
 6765W        W10965   8.049   2.148   9.536  0.2376  0.1735 -0.1534
 6766W        W10966   2.431   8.967  10.736  0.2803 -0.0353 -0.0258
 6767W        W10967   5.634   0.067  12.834 -0.1809 -0.1424  0.5415
 6768W        W10968   0.860   0.768   4.157 -0.0533 -0.0687 -0.1259
 6769W        W10969   2.176   3.684  12.663 -0.2589  0.0077 -0.0131
 6770W        W10970   0.738   8.466   2.995  0.1481  0.1237  0.1720
 6771W        W10971   6.506   4.355   4.110 -0.0612  0.1311  0.1524
 6772W        W10972   2.324   7.366   4.944 -0.1723  0.2523 -0.1267
 6773W        W10973   8.101   1.657   0.744  0.1035  0.1021  0.0510
 6774W        W10974   9.580   3.848  13.077  0.1350  0.1089 -0.1629
 6775W        W10975   7.797   3.043  12.062  0.3159  0.3140  0.0207
 6776W        W10976   9.473   1.296  11.858 -0.0094 -0.2853  0.1238
 6777W        W10977   4.223   3.085   0.354  0.0163 -0.2684 -0.1655
 6778W        W10978   2.218   9.854  13.380 -0.0387 -0.0141  0.0971
 6779W        W10979   6.691   4.179   3.637 -0.2531  0.1607  0.5071
 6780W        W10980   9.113   9.918   3.477 -0.1479  0.0475  0.0234
 6781W        W10981   1.682   8.479  11.898 -0.3591 -0.0862  0.2934
 6782W        W10982   4.813   0.578  13.200  0.1119 -0.0800  0.2250
 6783W        W10983   5.643   6.436   3.539 -0.0627 -0.0618 -0.3687
 6784W        W10984   6.524  10.175  13.144  0.1005  0.1846 -0.3029
 6785W        W10985   4.858   7.330   0.507  0.2283 -0.0235  0.1166
 6786W        W10986   1.605   3.292   9.832 -0.1199  0.2967 -0.0457
 6787W        W10987   2.619   8.479   2.795 -0.1533  0.2517 -0.3545
 6788W        W10988   1.173   0.966   0.529  0.5175  0.3791  0.0369
 6789W        W10989  10.422   5.523  11.637 -0.1746  0.1420 -0.0496
 6790W        W10990   4.422   5.267   2.833 -0.0397 -0.0655 -0.0215
 6791W        W10991   8.971   6.312  10.439 -0.0555 -0.2512  0.0380
 6792W        W10992   3.286   4.229   2.714 -0.1634 -0.2754 -0.0795
 6793W        W10993   7.861   5.877   9.548  0.3100 -0.0096  0.2024
 6794W        W10994   7.286   4.833   2.616  0.0060  0.2659 -0.2247
 6795W        W10995   8.101   3.946   3.410 -0.4583  0.1024  0.1302
 6796W        W10996   5.228   0.314   0.415  0.3566  0.3097 -0.0680
 6797W        W10997   4.777   3.209   4.495  0.4865  0.2153  0.1372
 6798W        W10998   1.356   5.416   9.366 -0.0032 -0.3308  0.1207
 6799W        W10999   0.152   5.029   0.863 -0.1594  0.1516 -0.3074
 6800W        W11000   9.741   4.786   1.817  0.2261 -0.0073  0.0530
 6801W        W11001   3.721   0.784  12.082  0.0656 -0.0168  0.2667
 6802W        W11002   5.009   4.522   3.095 -0.1106 -0.1445  0.0091
 6803W        W11003   3.681   4.334   3.862 -0.0197 -0.1877 -0.1650
 6804W        W11004   6.864   3.663   3.442 -0.0174 -0.2120 -0.1062
 6805W        W11005   4.025   7.102  12.780 -0.0910 -0.0634 -0.1171
 6806W        W11006   7.484   1.042  12.990  0.2608  0.0177 -0.0054
 6807W        W11007   2.978   7.293  12.182 -0.0752 -0.1082  0.0982
 6808W        W11008   8.346   0.079  11.092 -0.1589 -0.1386 -0.3974
 6809W        W11009   5.266   2.717   1.011 -0.1873  0.1475  0.1871
 6810W        W11010   4.321   9.580   1.851  0.5142 -0.1447 -0.0322
 6811W        W11011  10.053   0.453  10.578  0.1209 -0.2623  0.2028
 6812W        W11012   9.153   3.612   2.868 -0.0356  0.3086  0.0038
 6813W        W11013   0.301   0.880   0.099 -0.0645 -0.3974  0.0099
 6814W        W11014   2.012   7.878  11.417 -0.2915  0.0091 -0.0571
 6815W        W11015   5.761  10.310   1.089  0.1869  0.0042  0.3517
 6816W        W11016   6.436   8.954   0.408  0.0321  0.0403 -0.2631
 6817W        W11017   9.037   2.991   9.043 -0.2651  0.1743  0.2353
 6818W        W11018   5.813   8.238   9.976 -0.0133 -0.2849 -0.2253
 6819W        W11019   8.299   3.888   2.470  0.1151  0.1359  0.0153
 6820W        W11020   8.094   7.499  11.416 -0.1344 -0.0944  0.1554
 6821W        W11021   8.545   4.280   1.590 -0.1110  0.0083 -0.0995
 6822W        W11022   9.501  10.389   3.771  0.2376 -0.0112 -0.0630
 6823W        W11023   7.249   9.882   1.350 -0.3636  0.4398 -0.2504
 6824W        W11024   9.269   1.642  13.373  0.1611 -0.1801 -0.1843
 6825W        W11025   4.863   0.038   3.630  0.0988 -0.2655 -0.0282
 6826W        W11026   9.987   7.540  11.249 -0.0349  0.1212  0.1861
 6827W        W11027   9.621   7.562  10.868 -0.0133  0.0346 -0.1712
 6828W        W11028   2.054   0.662  12.337  0.0414 -0.0640  0.1950
 6829W        W11029   5.558   4.968   8.789 -0.0618  0.1942 -0.0580
 6830W        W11030   1.167   2.408   8.761  0.1908 -0.1954 -0.1408
 6831W        W11031   0.146  10.237  10.579 -0.0441 -0.1507 -0.0138
 6832W        W11032   8.785   5.618   2.190 -0.0396 -0.5559 -0.0381
 6833W        W11033   3.660   5.811   4.908 -0.2107 -0.1039  0.2243
 6834W        W11034   2.194   3.181   0.415 -0.4344  0.3119  0.1146
 6835W        W11035   1.633   0.138   0.799 -0.2390  0.1078  0.3336
 6836W        W11036   6.061   2.513   1.434  0.0744  0.3788  0.2000
 6837W        W11037   9.211   4.262   0.450  0.2472 -0.0346  0.2584
 6838W        W11038   5.213   8.208   2.223 -0.1239  0.1727  0.1427
 6839W        W11039   4.486   1.924   0.153 -0.1818  0.1317  0.2560
 6840W        W11040   2.348   5.470   1.931 -0.1159 -0.2968 -0.0128
 6841W        W11041   0.910   1.356  11.430  0.0897 -0.0316  0.0726
 6842W        W11042   9.175   2.645  12.627 -0.2773  0.2837  0.2762
 6843W        W11043   3.662  10.206   0.635  0.0343 -0.1449 -0.0657
 6844W        W11044   7.246   7.974   8.917  0.0444 -0.0999 -0.2209
 6845W        W11045   5.305   4.577   1.151  0.3404 -0.1022  0.2127
 6846W        W11046   0.092   6.432   0.687  0.2282 -0.0234  0.0021
 6847W        W11047   0.527   4.818  12.979  0.0803 -0.1112 -0.2439
 6848W        W11048   2.294   0.900  12.831  0.1915  0.4037 -0.2208
 6849W        W11049   6.390   1.813   0.479 -0.1102 -0.1961 -0.0191
 6850W        W11050   1.387   9.300  13.172  0.6315  0.2227  0.2800
 6851W        W11051   8.677   0.118   1.323  0.2056 -0.0638  0.1320
 6852W        W11052   2.401   3.696  12.161 -0.1449  0.0216  0.3524
 6853W        W11053  10.460   8.877   4.967 -0.1010  0.0399  0.2493
 6854W        W11054   0.528   3.438   8.737  0.0725  0.0687  0.0291
 6855W        W11055   7.024   0.655   2.552  0.0447 -0.2063  0.2062
 6856W        W11056   4.460   7.672   3.389  0.1817  0.0569 -0.1073
 6857W        W11057   1.647  10.188  11.340  0.0977 -0.0024  0.0336
 6858W        W11058   3.452   3.421   3.860  0.0114 -0.1356 -0.2116
 6859W        W11059  10.382   7.921  11.428 -0.0564 -0.1137 -0.1311
 6860W        W11060   9.859   1.407  12.228  0.0837 -0.1076  0.3977
 6861W        W11061   1.071   4.990   9.125  0.1643  0.0247  0.1486
 6862W        W11062   2.448   0.712   2.245 -0.1618  0.0401 -0.1520
 6863W        W11063   5.891   9.140   9.656 -0.0586 -0.1011 -0.1726
 6864W        W11064   4.145   5.602   0.711 -0.1453 -0.0151 -0.1922
 6865W        W11065   9.698   7.293   3.439  0.0986 -0.0164 -0.0888
 6866W        W11066   0.851   4.712  10.502 -0.0549  0.0526  0.4450
 6867W        W11067  10.240  10.438  12.120  0.0830  0.0104 -0.1659
 6868W        W11068   1.970   7.492   4.504 -0.2039  0.3326 -0.1399
 6869W        W11069   2.490   9.870   3.304 -0.2573 -0.0981 -0.3132
 6870W        W11070   6.899   5.486   9.051  0.5211  0.1312  0.1763
 6871W        W11071   2.533   2.485  10.996 -0.1552 -0.0844 -0.2504
 6872W        W11072   3.646   6.808  12.839  0.3064 -0.1194  0.0877
 6873W        W11073   4.518   5.390   0.305 -0.1352  0.0514 -0.0122
 6874W        W11074   8.088   8.853   3.417 -0.2700 -0.0471 -0.0676
 6875W        W11075   7.090   8.477  11.900 -0.1329 -0.1286  0.2149
 6876W        W11076   7.758   3.569  12.067 -0.2283  0.0128  0.1792
 6877W        W11077   2.610   8.640   1.035 -0.0949  0.3058  0.1590
 6878W        W11078   9.781   7.736   0.837 -0.0443 -0.2581 -0.1077
 6879W        W11079   9.260   8.503   1.331 -0.2000 -0.0477  0.0649
 6880W        W11080   2.653   0.576  10.560 -0.0290  0.2178  0.0971
 6881W        W11081   1.404   6.828  11.840 -0.1854  0.0509 -0.0848
 6882W        W11082   9.814   4.658   8.517 -0.1548 -0.0517 -0.1123
 6883W        W11083   3.239   7.005  11.597 -0.3831  0.1561 -0.1850
 6884W        W11084   3.779   2.889   9.875 -0.1203  0.0491 -0.3140
 6885W        W11085   9.785   3.706   2.074 -0.0675 -0.1792 -0.1723
 6886W        W11086   7.121   6.449   8.926  0.1962 -0.2670 -0.0987
 6887W        W11087   4.183   3.221   2.380  0.1409 -0.1152 -0.3841
 6888W        W11088   3.827   5.644   9.771  0.1812  0.1919 -0.1998
 6889W        W11089   3.503   3.654  12.796  0.0897  0.1382  0.1107
 6890W        W11090   4.934   9.091   2.108  0.2621 -0.0242 -0.2101
 6891W        W11091   8.284   5.221  11.164  0.1221  0.1789 -0.0331
 6892W        W11092   6.110   8.467  10.312 -0.0049 -0.2010 -0.0703
 6893W        W11093   0.856   3.758   9.728  0.1058  0.0559 -0.0541
 6894W        W11094   1.506   4.222  10.609  0.1952 -0.1035  0.1534
 6895W        W11095   6.494   9.290   0.795  0.0057  0.0007  0.0864
 6896W        W11096   4.600   0.458  12.131 -0.2058 -0.2392 -0.3724
 6897W        W11097   2.856   3.357   9.799  0.0857  0.0122 -0.0865
 6898W        W11098   5.512   5.646   0.366 -0.2040  0.0006  0.3074
 6899W        W11099   5.242   4.414   0.192 -0.1835 -0.2079  0.1225
 6900W        W11100   4.072   9.161  12.920  0.0059 -0.0348 -0.0732
 6901W        W11101   3.775   9.033   9.115 -0.1995  0.0924 -0.1534
 6902W        W11102   3.004   7.308   8.294  0.2769 -0.0142  0.0749
 6903W        W11103   3.802   6.045  11.126 -0.2243 -0.0562  0.3038
 6904W        W11104   1.440   8.771  13.037  0.4166 -0.0125  0.0309
 6905W        W11105   1.712   3.250   4.013  0.3559  0.0938  0.0444
 6906W        W11106   8.653   5.134   0.518  0.4369  0.2102  0.2652
 6907W        W11107   9.063   4.014   5.027 -0.0519  0.1326  0.1499
 6908W        W11108   4.531   2.878   2.382 -0.2050 -0.1526 -0.2199
 6909W        W11109   8.146  10.093   3.106  0.1814  0.0808 -0.1006
 6910W        W11110   3.890   7.748  11.676  0.1344  0.2457  0.0005
 6911W        W11111   2.866   2.180  10.744 -0.1947 -0.2222 -0.1856
 6912W        W11112   6.728   8.259   1.459  0.0375 -0.0475  0.0512
 6913W        W11113  10.153   8.980   3.507 -0.1526 -0.1267  0.0759
 6914W        W11114   0.404   8.441   1.374 -0.0894  0.4174 -0.0267
 6915W        W11115   3.365   3.968   8.855 -0.0367 -0.1673 -0.0224
 6916W        W11116   7.688   0.937  10.806 -0.0289 -0.0447 -0.2371
 6917W        W11117  10.048   0.370  11.059 -0.0342  0.2509 -0.1936
 6918W        W11118   5.432   8.393   2.724  0.0075  0.2073  0.2580
 6919W        W11119   4.930   5.694  10.789 -0.1363  0.0227 -0.0862
 6920W        W11120   2.891   3.907   1.511 -0.0120  0.1911 -0.0992
 6921W        W11121   9.861   7.256  12.242 -0.3513 -0.1472 -0.2820
 6922W        W11122  10.025   7.507   4.552 -0.2274  0.2037  0.4085
 6923W        W11123   7.317   5.736   4.116  0.2502  0.2952  0.1609
 6924W        W11124   8.562   8.617  12.068  0.1578 -0.4628 -0.1091
 6925W        W11125   6.382  10.409  10.070 -0.0125  0.1472 -0.1083
 6926W        W11126   6.696   7.147   0.826 -0.1135 -0.2119  0.1690
 6927W        W11127   7.898   1.371   2.529  0.1159 -0.1733 -0.0369
 6928W        W11128  10.409  10.180   2.252  0.1330  0.4156 -0.1428
 6929W        W11129   5.860   9.937  10.652  0.0960 -0.0076  0.0264
 6930W        W11130   8.151   2.483   4.217 -0.2652 -0.0443  0.2548
 6931W        W11131   2.327  10.156  10.286  0.2080  0.1009 -0.0454
 6932W        W11132   7.566   2.455   3.649 -0.0112 -0.4154 -0.1353
 6933W        W11133   5.610   0.657   1.106 -0.1235 -0.0932  0.0520
 6934W        W11134   7.623  10.024   4.400 -0.2071 -0.0752  0.0952
 6935W        W11135  10.289   7.990   3.435  0.3770  0.2845 -0.0274
 6936W        W11136   7.035   2.567   0.617 -0.1212 -0.1100  0.0066
 6937W        W11137   2.103   8.469   9.023  0.0343  0.2428  0.2538
 6938W        W11138   3.205   4.203   0.017  0.0847  0.2639 -0.2487
 6939W        W11139   5.295   7.048  10.710 -0.2652  0.0267 -0.3956
 6940W        W11140   5.068   4.083  11.393 -0.1404 -0.0647 -0.1173
 6941W        W11141   1.569   2.227   2.524 -0.1903 -0.1207  0.1873
 6942W        W11142   3.322   5.937   8.728 -0.1694  0.1590 -0.2331
 6943W        W11143   8.940   6.656  10.810 -0.0905  0.0475 -0.0942
 6944W        W11144   0.569   8.956   3.337  0.3345 -0.0592  0.1301
 6945W        W11145   8.843   3.872  13.071 -0.1930 -0.0828  0.2093
 6946W        W11146   7.395   3.575   3.434  0.1043 -0.0334 -0.0863
 6947W        W11147   8.926   8.379   1.913  0.0264  0.0225  0.0737
 6948W        W11148   6.324   2.949   1.566 -0.0538 -0.0719 -0.1855
 6949W        W11149   5.705  10.031   0.292  0.1176  0.0952  0.2120
 6950W        W11150   4.043   2.101   9.458  0.0047 -0.3176 -0.0314
 6951W        W11151   5.704   3.716  10.578 -0.4901  0.0051 -0.0324
 6952W        W11152   3.270   3.633   0.804 -0.0339 -0.3556 -0.1510
 6953W        W11153   9.787   7.864  13.271 -0.0527  0.1012 -0.0298
 6954W        W11154  10.043   0.849  10.808  0.0969  0.2406 -0.2114
 6955W        W11155   7.553   3.737  13.319 -0.0129  0.0111 -0.1111
 6956W        W11156   6.831   9.686  11.041 -0.2797  0.0269 -0.0343
 6957W        W11157   1.478   8.838   9.812  0.0917  0.2997  0.0311
 6958W        W11158   5.244   3.304  13.186  0.2021 -0.0367 -0.2904
 6959W        W11159   0.403   4.601  11.427 -0.0643  0.0268  0.2346
 6960W        W11160   3.151   8.053  12.869 -0.1599  0.0989  0.2722
 6961W        W11161   6.925   6.222   9.840  0.4534  0.0632  0.1248
 6962W        W11162   8.263  10.337  12.614 -0.1735 -0.1124  0.0326
 6963W        W11163   8.491   2.582   3.213  0.0544  0.3822 -0.1722
 6964W        W11164   2.160   0.841   9.430  0.1131 -0.1556  0.1832
 6965W        W11165   7.932   1.367   1.106 -0.2596 -0.1225  0.2719
 6966W        W11166   9.488   3.632   2.484  0.0426  0.2220 -0.5302
 6967W        W11167   0.300  10.004   1.137 -0.2412 -0.0607 -0.2230
 6968W        W11168   5.823   3.738   3.653  0.1035  0.0868 -0.2265
 6969W        W11169   8.535   1.803   0.422  0.0740  0.0466  0.2089
 6970W        W11170  10.112   9.192  10.272 -0.0287  0.1213 -0.1461
 6971W        W11171   9.854   8.015  12.666 -0.0612 -0.0031 -0.1029
 6972W        W11172   9.938  10.126  12.346 -0.2638  0.1086 -0.0182
 6973W        W11173   5.432   9.317   2.767 -0.0111 -0.0487 -0.0525
 6974W        W11174   7.673   6.233   1.884  0.1260  0.3287  0.1370
 6975W        W11175   3.101   3.888  10.445 -0.3083 -0.0996 -0.1124
 6976W        W11176   8.519   5.163   2.170  0.0282 -0.2290  0.0019
 6977W        W11177   0.242   6.914   2.987 -0.3001  0.3628  0.0338
 6978W        W11178   6.962   9.485   2.966 -0.4207 -0.2280  0.0166
 6979W        W11179   6.773   0.934  11.102  0.0825  0.1455 -0.1014
 6980W        W11180   3.438   1.398  10.564  0.1387  0.3983 -0.0946
 6981W        W11181   4.708   1.061   0.963  0.0301  0.4408 -0.1205
 6982W        W11182   6.089   9.807  12.448 -0.2897 -0.0365 -0.2040
 6983W        W11183   3.119   1.731   1.780 -0.0262  0.0728 -0.2306
 6984W        W11184   1.108   8.980   1.526  0.0697 -0.1072 -0.2153
 6985W        W11185   6.726   0.149   9.793  0.1543 -0.1870  0.0163
 6986W        W11186   3.776   5.741   0.498  0.2505  0.2592 -0.4990
 6987W        W11187   9.706   1.422  13.286 -0.2750 -0.2493 -0.4892
 6988W        W11188   8.792   9.399  11.041  0.0742  0.1338 -0.4037
 6989W        W11189  10.168   3.512   9.408  0.1317  0.3185 -0.3590
 6990W        W11190   5.370   2.635  11.667  0.0063  0.3974  0.1951
 6991W        W11191   8.333   9.703  11.186 -0.1020  0.2215  0.1999
 6992W        W11192   5.179   2.740   2.334 -0.2165  0.0769  0.0562
 6993W        W11193   2.972   8.972   1.279 -0.1068  0.0721  0.1378
 6994W        W11194   0.349   3.407   2.211 -0.2203  0.2243  0.1656
 6995W        W11195   1.706   6.160   3.740  0.0639 -0.0970 -0.0740
 6996W        W11196   7.206   0.209  12.980  0.0840  0.1464 -0.0505
 6997W        W11197   9.434   0.830   9.911 -0.1671 -0.0300  0.2848
 6998W        W11198   4.871   3.120   9.387 -0.0637 -0.2796 -0.2220
 6999W        W11199   1.450   0.301  11.751 -0.3434  0.2263  0.1787
 7000W        W11200   8.310   7.369   9.062 -0.1831 -0.2687 -0.0868
 7001W        W11201   5.987   5.541   1.792  0.2757  0.1092  0.2288
 7002W        W11202   7.126   4.873   4.760 -0.1151 -0.3834 -0.2267
 7003W        W11203   6.034   0.206  12.511  0.2619  0.2038 -0.4044
 7004W        W11204   7.426   3.497  10.334  0.0070  0.0598 -0.0055
 7005W        W11205   8.890   2.312   3.716 -0.0798  0.3702 -0.2210
 7006W        W11206  10.095   4.983  12.770 -0.3208 -0.0636 -0.1984
 7007W        W11207   9.356   2.926   9.575  0.0134  0.0002  0.1927
 7008W        W11208   8.365   3.643  10.095 -0.0364 -0.0221 -0.3731
 7009W        W11209   3.958   0.107  13.242  0.3155 -0.2610 -0.3641
 7010W        W11210   3.366   7.440   2.197  0.1268  0.2492  0.2016
 7011W        W11211   6.219   4.193   9.862 -0.0872  0.3851 -0.1446
 7012W        W11212   9.808   0.049  11.911  0.3282  0.0160  0.0250
 7013W        W11213   1.262   4.745   3.464  0.0116  0.1637 -0.0583
 7014W        W11214   4.483  10.323   0.193  0.2525  0.3921 -0.3707
 7015W        W11215   6.692   5.454   3.199 -0.0645 -0.1439 -0.2898
 7016W        W11216   6.904   9.560   9.953  0.4019 -0.1277  0.1625
 7017W        W11217   5.959   3.377  12.074 -0.0110  0.0224  0.0929
 7018W        W11218   6.625   4.717  12.123  0.0423 -0.0675  0.6372
 7019W        W11219   8.101   6.781   9.064  0.4880  0.0922  0.0167
 7020W        W11220   3.629   2.021   0.394 -0.2501 -0.0628  0.0001
 7021W        W11221   2.088   4.275  10.503 -0.0435 -0.0838  0.0506
 7022W        W11222   3.073   0.089   9.821 -0.1898 -0.0779 -0.1987
 7023W        W11223   6.260   0.571   1.212 -0.2418  0.0800  0.1102
 7024W        W11224   7.757   3.220   1.787 -0.1085  0.0830 -0.0193
 7025W        W11225   0.427   2.483   2.496 -0.2850 -0.1869  0.0797
 7026W        W11226   9.642   7.781   8.928  0.0156 -0.2205 -0.0856
 7027W        W11227   0.963   7.613  12.392 -0.0002  0.3074  0.2329
 7028W        W11228   5.609   2.448   3.744 -0.2549  0.1851  0.3321
 7029W        W11229   5.189   0.160   2.296  0.0491  0.0177 -0.3095
 7030W        W11230   2.873   4.317  12.443 -0.0781  0.0605 -0.0337
 7031W        W11231   2.137   2.259  12.653 -0.1654  0.2590  0.2604
 7032W        W11232   6.692   7.578   9.613 -0.3072 -0.1214  0.1736
 7033W        W11233   9.603   9.054   2.208  0.1951 -0.0394  0.2212
 7034W        W11234   0.410   8.080  11.405 -0.0744  0.0685 -0.1931
 7035W        W11235   0.715   3.732   4.504 -0.2860 -0.2323  0.1478
 7036W        W11236   6.008   4.946  10.879  0.0623 -0.0821  0.1163
 7037W        W11237   7.927   0.998   4.526 -0.0647 -0.1921 -0.3148
 7038W        W11238   9.745  10.468  10.852 -0.1065 -0.1371  0.0154
 7039W        W11239   2.137   9.072   9.424 -0.2196 -0.3255 -0.0030
 7040W        W11240   7.557   9.788  10.248  0.1912 -0.3144 -0.1072
 7041W        W11241   5.959   4.032  13.348  0.0369  0.1306 -0.3653
 7042W        W11242   7.644   5.592  11.882  0.2290 -0.0634 -0.1607
 7043W        W11243   0.874   8.199   2.085  0.1284 -0.1228 -0.1610
 7044W        W11244   3.033   6.180  13.033  0.1036 -0.1238  0.0270
 7045W        W11245   9.141   7.149   2.185 -0.0899  0.0125  0.3653
 7046W        W11246   0.332   7.884   8.927 -0.1786  0.1695  0.0459
 7047W        W11247   7.464   8.474   1.447  0.0815  0.0706  0.2654
 7048W        W11248   8.054   3.882  12.462 -0.0653  0.1808  0.0732
 7049W        W11249   2.142   8.399   2.489  0.1336  0.2363 -0.0721
 7050W        W11250   3.029   4.765  12.469  0.1287  0.2840 -0.0200
 7051W        W11251   3.371   3.757  11.820  0.2688 -0.2841 -0.0489
 7052W        W11252   3.931   4.517   0.499 -0.0851  0.2132 -0.0580
 7053W        W11253   6.590   1.034  12.429  0.3875 -0.2842  0.0215
 7054W        W11254   0.014   5.967   1.010 -0.1358  0.0811 -0.0589
 7055W        W11255   1.714   9.313   0.961  0.1780  0.0270 -0.2254
 7056W        W11256   3.998   3.332   9.989 -0.0390 -0.1088 -0.1486
 7057W        W11257   7.954   6.921  12.161 -0.4414  0.1593  0.0676
 7058W        W11258   3.796   7.131   2.318  0.0639  0.1126  0.3216
 7059W        W11259   0.697   6.307  12.904  0.0848 -0.3352  0.0344
 7060W        W11260   3.015   6.476  12.110  0.1246 -0.0467  0.2618
 7061W        W11261  10.089   6.569  11.736 -0.0930 -0.0201 -0.2270
 7062W        W11262   6.441   6.389  11.088  0.1706  0.3892 -0.1556
 7063W        W11263  10.379   8.227   1.885  0.1166  0.2621  0.0530
 7064W        W11264   6.792   7.794  10.480  0.2592 -0.0912 -0.1326
 7065W        W11265   7.568   2.145   8.956 -0.0911 -0.1099 -0.0943
 7066W        W11266   5.033   3.078   0.171 -0.1327  0.1464  0.0309
 7067W        W11267   2.053   7.122  13.043  0.0836  0.0775  0.0512
 7068W        W11268   4.703   3.025  12.191  0.1371  0.2242  0.1962
 7069W        W11269   5.521   8.479   3.266 -0.0581  0.0454  0.0879
 7070W        W11270  10.480   2.740  12.303  0.2977 -0.1111  0.1500
 7071W        W11271   5.365   5.921   1.525 -0.0900 -0.1352 -0.0277
 7072W        W11272   4.015   8.789   1.271 -0.0620 -0.2334 -0.2822
 7073W        W11273   0.195   4.952   8.582 -0.0333 -0.0237  0.0999
 7074W        W11274   9.330   9.724  10.992 -0.0711 -0.0378  0.0547
 7075W        W11275   9.175   9.577   1.060 -0.0254  0.1742 -0.1571
 7076W        W11276   6.988   2.926   0.178  0.1082  0.1148  0.2751
 7077W        W11277   3.683   8.567  10.329 -0.1498  0.1474  0.3970
 7078W        W11278   5.861   3.895   3.075 -0.1554  0.0690  0.0150
 7079W        W11279   6.034   3.699  11.342 -0.1947  0.0682 -0.0878
 7080W        W11280   9.397   0.999   2.223  0.0946 -0.0316  0.0641
 7081W        W11281   1.969   2.508   0.967  0.0999  0.0758 -0.2026
 7082W        W11282   8.410   1.306  11.680 -0.2345  0.1825  0.1275
 7083W        W11283   3.972   2.193   0.067  0.2039 -0.0342  0.1328
 7084W        W11284   5.120   6.186   9.601  0.1921  0.0849 -0.1443
 7085W        W11285   9.209   0.796   2.902  0.0684  0.0646  0.0090
 7086W        W11286   1.501  10.202   2.988 -0.0263 -0.1002  0.0017
 7087W        W11287   3.023   0.109  10.554  0.0343 -0.0210 -0.0674
 7088W        W11288   7.519   5.829  12.385 -0.2665 -0.0117 -0.0566
 7089W        W11289   3.851   3.496  11.835  0.1243 -0.0532 -0.2108
 7090W        W11290   2.641   0.828   9.305  0.4353 -0.1809  0.0678
 7091W        W11291   1.751   3.569   0.805 -0.0773 -0.1230 -0.0538
 7092W        W11292   6.153   6.747   9.744 -0.0430  0.0657  0.0433
 7093W        W11293   3.423   2.250   1.818 -0.0122  0.1472 -0.0939
 7094W        W11294   0.576   4.171  10.076 -0.0932 -0.1662  0.2170
 7095W        W11295   8.218   9.483   1.318  0.1203 -0.0750 -0.0029
 7096W        W11296   3.624   4.476  12.670 -0.0118  0.2833 -0.2745
 7097W        W11297   8.438   0.576   3.909  0.1650 -0.0033  0.1428
 7098W        W11298   1.926   0.736   3.661 -0.4948 -0.2771  0.0944
 7099W        W11299   5.566   0.498  11.602  0.0822 -0.1802  0.3076
 7100W        W11300   2.278   9.836   2.423 -0.0190  0.0776  0.0705
 7101W        W11301   4.677   7.963   2.942  0.2407 -0.1575 -0.0066
 7102W        W11302   6.527   9.681   9.616  0.1319 -0.0435  0.2995
 7103W        W11303   4.932   3.588   4.211  0.0685 -0.1976  0.0390
 7104W        W11304   9.870   2.253  13.364 -0.0903 -0.2841  0.1617
 7105W        W11305   3.378   7.639  11.675  0.0818  0.0559  0.0389
 7106W        W11306   0.341   4.400   9.500 -0.1300 -0.0327 -0.0071
 7107W        W11307   5.237   7.143  12.304 -0.2199 -0.0721  0.0596
 7108W        W11308   1.227   2.789  12.565 -0.0109 -0.0003 -0.0668
 7109W        W11309   4.170   2.274  11.153  0.2108 -0.0289 -0.0582
 7110W        W11310   8.795   0.272  12.327 -0.2812  0.2447 -0.0080
 7111W        W11311   6.027   5.805   8.651 -0.1290 -0.4098  0.1236
 7112W        W11312   1.773   5.875   0.463 -0.2237  0.0337  0.1573
 7113W        W11313   8.495   2.055   4.995 -0.2771 -0.1948 -0.1929
 7114W        W11314   6.350   3.526   1.721  0.0349  0.1266  0.0457
 7115W        W11315   4.255  10.015   1.229  0.0928  0.1858  0.0779
 7116W        W11316   2.694  10.426  13.010 -0.1640  0.0159  0.0876
 7117W        W11317   7.681   0.312   1.875 -0.0084  0.6389  0.0565
 7118W        W11318   0.303   4.353  10.467 -0.0247  0.0741 -0.0704
 7119W        W11319   3.093   8.006   2.203 -0.1983  0.0951  0.0876
 7120W        W11320   9.648   4.274   9.566 -0.0517  0.0045  0.0664
 7121W        W11321   6.684   9.790  10.592 -0.3445  0.0055  0.0428
 7122W        W11322   7.001   3.727   0.048  0.2036 -0.1344 -0.1436
 7123W        W11323   5.117   9.417   0.275  0.1380 -0.1159 -0.0982
 7124W        W11324   8.088   0.068   1.652 -0.1464 -0.2693 -0.2099
 7125W        W11325   2.281   9.979  12.030 -0.0790  0.1220 -0.1688
 7126W        W11326   9.048   2.855   1.435 -0.0187  0.4915 -0.1773
 7127W        W11327   3.054  10.112   3.991  0.2135  0.0559 -0.4052
 7128W        W11328   2.253   8.569  12.003  0.0449 -0.1696  0.0458
 7129W        W11329   0.627   7.143  12.431  0.2520 -0.3150  0.0007
 7130W        W11330   8.930   8.276   9.685 -0.0526  0.0177 -0.1901
 7131W        W11331   2.456   7.347  12.242  0.0089 -0.2328 -0.1208
 7132W        W11332   1.132   3.244   4.760 -0.0875 -0.1042 -0.0112
 7133W        W11333   2.262   3.391   1.602 -0.1073  0.1527  0.1361
 7134W        W11334   7.823   2.258  13.351 -0.0471  0.2094 -0.4834
 7135W        W11335   9.971   8.690  11.282 -0.5510 -0.2694 -0.2640
 7136W        W11336   7.639   6.535   3.244 -0.1371 -0.1540  0.2628
 7137W        W11337   4.383   4.070   0.652  0.0001 -0.1595  0.0844
 7138W        W11338   3.084   8.969   0.221 -0.1381 -0.1202  0.0359
 7139W        W11339   8.865   5.150   0.030  0.5875 -0.1512 -0.0010
 7140W        W11340   3.872   6.719   4.015 -0.4408  0.0063  0.3238
 7141W        W11341   1.138   6.191  11.040  0.2894 -0.1854 -0.0632
 7142W        W11342   7.720   4.780   2.164  0.0669 -0.0193  0.1031
 7143W        W11343   6.433   7.068   4.015  0.2102  0.0416  0.1109
 7144W        W11344   6.266   3.664  12.333 -0.0488  0.1154  0.1819
 7145W        W11345   2.374   7.726   3.131 -0.1242  0.1100  0.0989
 7146W        W11346   4.419   4.905   3.209 -0.1304  0.3899  0.0865
 7147W        W11347   1.883   5.537  10.714  0.0663  0.0590 -0.1655
 7148W        W11348   4.036   0.189   0.356  0.0201  0.0303 -0.2932
 7149W        W11349   0.647   0.104  12.246  0.2834  0.0100  0.2586
 7150W        W11350   2.279   7.361   1.029 -0.2297  0.2410  0.2061
 7151W        W11351   1.259   5.197  10.663 -0.0099  0.6915 -0.1386
 7152W        W11352   1.743   3.242   0.048  0.0154  0.1424 -0.0295
 7153W        W11353   3.754   3.854   3.742  0.6254 -0.0463  0.0641
 7154W        W11354   1.557   8.319   3.832  0.2654  0.0165 -0.2915
 7155W        W11355   4.287   7.440   9.907 -0.2622  0.1368  0.1170
 7156W        W11356   1.904   2.955   3.608  0.1220  0.0667  0.0063
 7157W        W11357   2.775   8.192   0.814  0.0912 -0.1435  0.1928
 7158W        W11358   4.789   8.777  10.148 -0.1074  0.1283 -0.1533
 7159W        W11359   6.545   8.747   1.350 -0.0672 -0.0451 -0.0392
 7160W        W11360   6.929   4.328  12.280  0.0622  0.2459  0.0617
 7161W        W11361   2.271   4.745   3.431 -0.0033 -0.0740 -0.0911
 7162W        W11362   9.620   8.578   3.813 -0.0187  0.0120  0.2273
 7163W        W11363   5.843   2.633   1.870 -0.1222 -0.2644  0.2148
 7164W        W11364   3.039   0.172   2.323 -0.2177  0.0614 -0.1755
 7165W        W11365   6.216   5.719  11.999  0.3560  0.1542 -0.1830
 7166W        W11366   9.744   1.995  11.394  0.0215 -0.0846 -0.1470
 7167W        W11367   0.225   7.616  11.234 -0.2270 -0.0503  0.1222
 7168W        W11368   6.509   1.543  12.141  0.1015  0.2265  0.0629
 7169W        W11369   8.419   2.058   0.900 -0.0397 -0.2866 -0.0580
 7170W        W11370   3.105   1.490   4.009 -0.2705 -0.1252  0.1095
 7171W        W11371   3.178   1.322   3.009  0.0111  0.3830  0.0624
 7172W        W11372   3.959   7.356   0.226 -0.1444  0.3131 -0.0620
 7173W        W11373   2.137   9.982   0.470 -0.1322 -0.2027  0.1206
 7174W        W11374   6.748   6.682  11.977  0.0182  0.0735 -0.4840
 7175W        W11375   7.585   3.695  12.488  0.2150 -0.1369 -0.0949
 7176W        W11376   6.241   1.144   1.611 -0.0460  0.2173 -0.2891
 7177W        W11377   4.371   7.349   0.511 -0.1228 -0.0380  0.1501
 7178W        W11378   4.643   4.463   3.440  0.0961 -0.0831  0.2289
 7179W        W11379   9.572   3.667   1.213  0.3112 -0.5793  0.0211
 7180W        W11380   9.220   7.750   0.764  0.0310  0.0719  0.1261
 7181W        W11381   5.672   0.049   2.291 -0.1921 -0.1480  0.1412
 7182W        W11382   7.660   5.743   0.565 -0.0324 -0.0068  0.0519
 7183W        W11383   7.987   1.885   9.001 -0.2233 -0.2827  0.1966
 7184W        W11384   7.571   9.036   9.498  0.1290 -0.1925 -0.1350
 7185W        W11385   4.473   8.997   1.978  0.1063  0.1141  0.0712
 7186W        W11386   2.476   7.401   4.432 -0.0975 -0.1778  0.1571
 7187W        W11387   4.311   1.303  10.508 -0.0676 -0.3700 -0.2396
 7188W        W11388   2.374   2.554   2.733  0.2857 -0.0803  0.2057
 7189W        W11389   1.215   5.758  12.882 -0.4028 -0.3949  0.0574
 7190W        W11390   7.970   5.968   4.505 -0.0243 -0.0291  0.3477
 7191W        W11391   1.031   4.966   3.076 -0.0276 -0.0201  0.0598
 7192W        W11392   9.507   9.774   9.781 -0.3544  0.0001 -0.0376
 7193W        W11393   7.698   6.447   9.132  0.2137  0.0425  0.0659
 7194W        W11394   1.456   8.852  10.753 -0.1074 -0.0224 -0.0676
 7195W        W11395   3.651   6.351   4.137  0.1532  0.0960 -0.1123
 7196W        W11396   0.151   4.473   2.990  0.2053 -0.1513 -0.0360
 7197W        W11397   9.880   2.993   9.594  0.2044 -0.1635  0.0568
 7198W        W11398   9.837   1.831   1.109 -0.0395  0.0974 -0.2385
 7199W        W11399   4.909   7.727   3.569 -0.3964  0.0480 -0.0787
 7200W        W11400   5.354   5.068  11.858  0.0534 -0.3413 -0.0257
 7201W        W11401   5.865   6.852   0.410  0.0719  0.0076 -0.3223
 7202W        W11402   7.088  10.094   9.418  0.3020  0.1980 -0.2773
 7203W        W11403   2.106   1.325  13.042  0.1289  0.0846 -0.0322
 7204W        W11404   7.012   7.943  12.539  0.4177 -0.1517  0.2729
 7205W        W11405  10.328   9.930  11.434  0.1528  0.4120  0.0949
 7206W        W11406   0.110   2.645  10.259  0.2641 -0.0518  0.3758
 7207W        W11407  10.212   4.663   2.879 -0.0262  0.5950 -0.0219
 7208W        W11408   6.019   3.874   1.597  0.0520 -0.0097  0.2484
 7209W        W11409   0.201   0.120  12.509  0.0642 -0.1883  0.0644
 7210W        W11410   7.130   4.369   4.755  0.0168  0.0055  0.1835
 7211W        W11411   6.023   6.999  11.657  0.0283 -0.4589  0.2172
 7212W        W11412   7.328   8.625   4.022  0.0262  0.0794 -0.5194
 7213W        W11413   1.215   8.326   2.969 -0.1359 -0.0778 -0.2368
 7214W        W11414   4.287   9.710  11.658 -0.2592  0.0952 -0.1135
 7215W        W11415   4.526   9.119   9.781  0.0241  0.0308  0.1433
 7216W        W11416   6.195   1.668   2.516 -0.1805  0.4637  0.0078
 7217W        W11417   1.866   2.148   3.709  0.0337 -0.0154  0.1283
 7218W        W11418   1.465   6.856  10.872 -0.2946  0.3737  0.2957
 7219W        W11419   4.065   5.022   9.242  0.0854  0.2155  0.0650
 7220W        W11420   9.575   4.072   0.730 -0.1256  0.4345 -0.0165
 7221W        W11421   6.402   5.427  10.234 -0.0538 -0.3055  0.4103
 7222W        W11422   6.272   7.911  10.327 -0.1887 -0.2273 -0.2316
 7223W        W11423   8.259   6.500  12.373 -0.1128 -0.2706  0.0677
 7224W        W11424   9.522   6.952   0.277 -0.2196 -0.1655 -0.0899
 7225W        W11425   9.856   8.590   2.977 -0.0703 -0.1273  0.0981
 7226W        W11426   7.702   0.165  12.146 -0.0871 -0.1114  0.1436
 7227W        W11427   7.141   5.357  12.607 -0.2134 -0.1215  0.1146
 7228W        W11428   4.544   4.675  12.187 -0.0426  0.2173 -0.1121
 7229W        W11429   6.108   6.084   2.651 -0.2552 -0.1931 -0.0567
 7230W        W11430   8.720   7.812  12.441 -0.1752 -0.2710  0.1158
 7231W        W11431  10.342   5.709   2.586  0.1382 -0.0792  0.2562
 7232W        W11432  10.145   3.803  12.326  0.0861  0.0836  0.0729
 7233W        W11433   5.892   5.976   9.091 -0.0615  0.0413 -0.1469
 7234W        W11434   9.715   7.535   1.489 -0.4032 -0.0848 -0.1796
 7235W        W11435   4.788   5.489  12.666 -0.0106 -0.1857 -0.0957
 7236W        W11436   6.093   7.922   2.385  0.1214  0.1172  0.1362
 7237W        W11437   7.196   8.055  10.466 -0.1622 -0.0555  0.0182
 7238W        W11438   6.885   4.298   9.358 -0.0060  0.1757 -0.0685
 7239W        W11439   2.488   7.770  11.882  0.0300  0.2573 -0.1751
 7240W        W11440   2.240   9.386  10.485  0.0529  0.2386 -0.0538
 7241W        W11441   7.420   6.903   9.905  0.0455 -0.1106  0.2000
 7242W        W11442   7.264   8.585   2.669  0.0244 -0.0033  0.2407
 7243W        W11443   4.458   1.733   3.212 -0.2419  0.1375 -0.0557
 7244W        W11444   4.942   2.290   0.917  0.3421 -0.3053 -0.1327
 7245W        W11445   5.232   8.570  10.119 -0.0618  0.2297 -0.0213
 7246W        W11446   9.974   5.773   0.120 -0.0229 -0.0629 -0.1321
 7247W        W11447   5.704   2.941  11.923  0.0429  0.1422 -0.0017
 7248W        W11448   5.219   2.467  12.937 -0.2396  0.2150  0.2604
 7249W        W11449   5.751   6.466   9.647 -0.0231  0.0866  0.1448
 7250W        W11450   0.112   7.972  12.397 -0.0944 -0.2422 -0.0873
 7251W        W11451   4.073   8.463   4.300 -0.0670 -0.0056  0.3545
 7252W        W11452   9.499  10.359  12.478 -0.0454 -0.1532 -0.0741
 7253W        W11453   2.354   2.007   2.019  0.3556  0.1102 -0.1577
 7254W        W11454   8.705   6.938   9.038 -0.3271  0.1236 -0.0143
 7255W        W11455   7.204   6.370   1.811  0.0986  0.0456 -0.0367
 7256W        W11456   9.100   5.044   0.874  0.1276 -0.2818  0.3067
 7257W        W11457   3.090   6.311   4.333  0.1386 -0.1633  0.3535
 7258W        W11458   4.201   0.676   1.644  0.2586  0.1072 -0.1715
 7259W        W11459   1.707   9.759   1.205 -0.1550 -0.2071 -0.1299
 7260W        W11460   5.104   3.457   3.645 -0.1620 -0.1470 -0.0748
 7261W        W11461   3.249   5.222  10.735  0.1311 -0.2365  0.0043
 7262W        W11462   7.320   6.256   8.312  0.0708  0.2130  0.2880
 7263W        W11463   0.378   6.878   9.142 -0.1324 -0.3587 -0.0935
 7264W        W11464   5.876   1.756  12.761 -0.0051  0.3795  0.2220
 7265W        W11465   7.979   2.301   3.185 -0.2790  0.1206 -0.1128
 7266W        W11466   4.364   5.421   9.354  0.4151  0.0606 -0.0494
 7267W        W11467   4.150   3.738  12.222  0.3239  0.1300  0.1008
 7268W        W11468   8.289   5.377   9.569 -0.1770 -0.0929  0.0526
 7269W        W11469   8.470   6.328   1.465  0.2668 -0.1216 -0.2069
 7270W        W11470   4.078   2.303  10.653 -0.3380  0.1322  0.1775
 7271W        W11471   6.767   1.974  10.974 -0.2556  0.0904  0.0676
 7272W        W11472  10.106   1.823   3.347 -0.0294  0.0959  0.3714
 7273W        W11473   5.930   6.637  10.604  0.1326  0.1082 -0.2358
 7274W        W11474   1.814   6.401   9.663 -0.0498  0.3558 -0.1003
 7275W        W11475   7.659   6.250   0.391  0.3753 -0.2815  0.0767
 7276W        W11476   9.772   1.949  10.620 -0.1362  0.0022  0.0765
 7277W        W11477   8.376   2.228  13.269  0.2186  0.0393 -0.3301
 7278W        W11478   5.062   5.763  12.157  0.0644  0.1316  0.0219
 7279W        W11479   8.073   8.678   9.618 -0.1282  0.2861  0.1206
 7280W        W11480   0.485   6.690  12.742 -0.0145 -0.2279 -0.2827
 7281W        W11481   4.990  10.328  10.278  0.1262  0.0614 -0.0982
 7282W        W11482   7.292   2.194   0.957  0.0515  0.1629 -0.1019
 7283W        W11483   2.107   7.890  10.012 -0.0937  0.0679  0.1837
 7284W        W11484   0.250   2.877  10.721 -0.3946 -0.3789 -0.1335
 7285W        W11485   1.271   0.123   3.161 -0.0262  0.0578 -0.0519
 7286W        W11486   7.648   1.903  12.604  0.0284 -0.2362 -0.1216
 7287W        W11487   3.788   3.209  11.245  0.1810  0.2465 -0.1195
 7288W        W11488   6.868   8.815   3.498  0.1017  0.1978 -0.0137
 7289W        W11489   8.561   7.295   1.426  0.0120  0.4284  0.2126
 7290W        W11490   0.570   8.897   1.558 -0.0929  0.1997  0.1472
 7291W        W11491   3.076  10.197   9.469 -0.0427 -0.2788  0.2755
 7292W        W11492   6.223   2.162   2.778 -0.0537  0.1258  0.1475
 7293W        W11493   7.366   1.928  10.750  0.1061  0.1153 -0.2230
 7294W        W11494   5.071   4.108   9.714  0.2678  0.1011  0.3983
 7295W        W11495   9.152   6.050   2.827  0.0923 -0.0010 -0.0675
 7296W        W11496   8.921   3.806   9.161 -0.2372 -0.0424  0.2085
 7297W        W11497   3.927   8.956   0.491 -0.4498 -0.0960 -0.0015
 7298W        W11498   6.273   3.911   1.162  0.0486  0.2062  0.0012
 7299W        W11499   7.594   7.038  12.574  0.2625 -0.4970 -0.2684
 7300W        W11500   8.396   0.322  12.012  0.0756 -0.0591 -0.1085
 7301W        W11501   6.632  10.253   2.235  0.0310  0.1406 -0.0934
 7302W        W11502   9.311   5.104  12.538  0.1073 -0.1571 -0.1121
 7303W        W11503   2.140   9.448   0.241 -0.0271 -0.1435 -0.2678
 7304W        W11504   4.730   6.164  10.510  0.1535 -0.0103 -0.1320
 7305W        W11505   0.528   8.847   3.884 -0.0298  0.0218 -0.1577
 7306W        W11506   3.383   4.006   0.490  0.1244  0.0334 -0.0264
 7307W        W11507   0.772   6.968   9.728  0.0317 -0.0888 -0.0618
 7308W        W11508   7.446   8.512   2.136 -0.2000 -0.0895  0.0477
 7309W        W11509   1.639   9.394  10.791  0.1925  0.0683 -0.3043
 7310W        W11510   4.765   4.247  10.106  0.0102 -0.2024 -0.3458
 7311W        W11511   5.571   3.599  11.064 -0.0978  0.3335 -0.0867
 7312W        W11512   4.878   2.970   2.012  0.0235 -0.1569  0.2536
 7313W        W11513   0.043   6.588  11.964 -0.0188 -0.2618 -0.1244
 7314W        W11514   4.765   7.077  10.663 -0.2190  0.0549  0.0075
 7315W        W11515   5.271   4.422   4.062  0.0956 -0.1132  0.3950
 7316W        W11516   2.181   8.267   1.104  0.1765  0.0280  0.0338
 7317W        W11517   4.834   1.062  10.306  0.1130 -0.0396 -0.4025
 7318W        W11518   6.774   7.543   3.452  0.3837 -0.3713 -0.4186
 7319W        W11519   1.424   8.618   0.506  0.1681 -0.0463  0.0050
 7320W        W11520   5.555   9.821   3.458  0.0033 -0.0002 -0.0098
 7321W        W11521   4.928   0.137  12.949 -0.1685  0.1899 -0.5315
 7322W        W11522   9.457   1.726   3.136 -0.2062  0.1272  0.2690
 7323W        W11523   5.097  10.117   3.528  0.0066 -0.2120  0.1344
 7324W        W11524  10.072   9.098   0.449 -0.1048 -0.1336  0.0850
 7325W        W11525   6.220   5.494   0.436 -0.0588  0.0025  0.2058
 7326W        W11526   5.516   5.829  13.042 -0.1564 -0.5064  0.0996
 7327W        W11527   0.450   6.739  10.570 -0.1271 -0.2104 -0.4135
 7328W        W11528   5.921   9.358   8.807 -0.0265  0.1887 -0.1525
 7329W        W11529   1.318   6.372   4.414  0.2872 -0.0251 -0.1577
 7330W        W11530   9.637   2.406  12.332 -0.0374  0.0643 -0.0960
 7331W        W11531  10.355   2.986   8.100 -0.3571  0.0485 -0.2538
 7332W        W11532   2.112   4.670   2.129 -0.1201 -0.2756  0.1820
 7333W        W11533   9.196   7.308   0.052 -0.3170  0.2290 -0.1022
 7334W        W11534   8.043   6.608  10.976  0.0952  0.1324 -0.3350
 7335W        W11535   8.465   8.973   9.512 -0.0400 -0.0826  0.2063
 7336W        W11536   3.166   4.140   9.571  0.1079 -0.1296  0.2869
 7337W        W11537   2.490   5.034   3.793 -0.0636 -0.2438  0.1247
 7338W        W11538   9.963   2.197   3.845 -0.2743  0.0796 -0.2869
 7339W        W11539   0.149   2.205   2.192 -0.2613 -0.2500  0.0899
 7340W        W11540   7.096   0.226   8.639  0.1149  0.4389 -0.2318
 7341W        W11541   6.073   9.493   3.782  0.0025 -0.2132 -0.2558
 7342W        W11542   4.856   5.961  12.674  0.0093 -0.1526  0.0822
 7343W        W11543   0.886   2.982   9.836  0.1116  0.0833 -0.1240
 7344W        W11544   5.232   8.614   1.927 -0.0653  0.0289 -0.2061
 7345W        W11545   0.468   7.015  13.346 -0.1843  0.0888  0.0445
 7346W        W11546   5.830   4.055  10.961 -0.2141 -0.1048 -0.0314
 7347W        W11547   1.611   8.321  12.832  0.4859  0.2817 -0.0932
 7348W        W11548   7.390   9.819   9.149  0.0437  0.1259  0.1528
 7349W        W11549   5.703   8.811   0.877  0.1033 -0.1874  0.3647
 7350W        W11550   0.038   2.382   1.692 -0.0070 -0.2156  0.2000
 7351W        W11551   0.773   2.039   1.188 -0.0068  0.0686  0.0243
 7352W        W11552   8.723   3.634   8.743 -0.1354  0.1370 -0.1526
 7353W        W11553   9.956   9.710   0.560 -0.1234 -0.1911 -0.1878
 7354W        W11554   8.170  10.418   2.140 -0.0873 -0.1533  0.1458
 7355W        W11555   3.891   6.997  13.235  0.0538 -0.1700  0.2659
 7356W        W11556   9.639   0.945   2.629 -0.0857 -0.1205 -0.0289
 7357W        W11557   0.420   8.799  10.661 -0.0297 -0.3348 -0.2055
 7358W        W11558   0.663   1.555  12.565  0.1104 -0.0020 -0.2423
 7359W        W11559   7.707   6.840   4.366  0.2784 -0.0386  0.1685
 7360W        W11560   2.570   5.242   8.920 -0.1162  0.1338  0.0643
 7361W        W11561   4.009   8.913  12.281 -0.1935  0.1104 -0.0684
 7362W        W11562   9.111   7.336   5.111 -0.0105  0.1192 -0.1898
 7363W        W11563   3.068   7.946   1.282 -0.0721  0.1507 -0.1601
 7364W        W11564   0.876   9.044   2.969  0.0732  0.1114  0.0825
 7365W        W11565   9.211   1.405   9.243 -0.2143 -0.1054  0.0238
 7366W        W11566   3.374   2.149  11.963 -0.0935 -0.0934  0.1693
 7367W        W11567   4.289   4.901  12.771 -0.2325  0.0061  0.1530
 7368W        W11568   3.042   0.890   0.564 -0.0393  0.2087  0.2177
 7369W        W11569   8.705   0.431  11.285 -0.0461  0.1108  0.1480
 7370W        W11570   5.909   9.683   2.327 -0.5078  0.0857  0.0967
 7371W        W11571   4.165  10.113   0.685  0.4035 -0.1291  0.1940
 7372W        W11572   2.957   2.199  10.201 -0.2309 -0.2436 -0.1409
 7373W        W11573   9.916  10.243   4.051 -0.1185 -0.0856  0.0893
 7374W        W11574   3.067   6.405  11.563  0.1014  0.0926  0.1858
 7375W        W11575   6.278   8.096   0.145  0.0788  0.1881  0.0932
 7376W        W11576   1.389   2.786   0.139 -0.2881 -0.0635  0.0724
 7377W        W11577   5.049   2.000  13.051  0.0650 -0.1847  0.1501
 7378W        W11578   8.574   6.265   3.599  0.3305  0.0400 -0.4429
 7379W        W11579   1.195   5.105  12.575 -0.2029  0.0476 -0.2817
 7380W        W11580   4.738   9.622  12.481 -0.4153  0.0158  0.3162
 7381W        W11581   6.497   5.683   3.788  0.0851  0.0924  0.1595
 7382W        W11582   0.635   9.500   3.407 -0.1283 -0.2615 -0.2925
 7383W        W11583   9.245   0.239   3.447 -0.0540 -0.2845  0.1233
 7384W        W11584   1.983   9.358  11.809  0.1210 -0.1001  0.0858
 7385W        W11585   4.220   4.347  10.437  0.1148 -0.2206  0.1464
 7386W        W11586   2.773   8.209  11.940 -0.2546  0.2106  0.1760
 7387W        W11587   2.205   2.706  11.297  0.0574  0.0688 -0.0319
 7388W        W11588   5.326   7.989  10.153  0.1184 -0.1152 -0.2573
 7389W        W11589   3.940   0.440  11.640 -0.1061 -0.3224 -0.2040
 7390W        W11590   1.223   7.392   9.689 -0.0569  0.1820 -0.0088
 7391W        W11591   6.439   2.981   0.189  0.0436  0.1076 -0.1266
 7392W        W11592   2.500   6.926   0.164 -0.0532  0.3871 -0.1098
 7393W        W11593   9.212   8.565   0.810  0.1254  0.1889  0.0142
 7394W        W11594   7.753   4.053   1.231 -0.2141  0.2226  0.0069
 7395W        W11595   9.327   9.765   4.557 -0.3395 -0.1146 -0.1900
 7396W        W11596   5.829   4.915   3.068  0.0369  0.0146  0.1024
 7397W        W11597   6.298   1.438   2.073  0.0800  0.0094 -0.1054
 7398W        W11598   6.271   1.406  12.582  0.0113 -0.1485 -0.2389
 7399W        W11599   1.592   6.007  12.591  0.2261 -0.0125  0.3347
 7400W        W11600   5.151   9.558   0.971 -0.0092 -0.2503 -0.0979
 7401W        W11601   7.306   7.280   2.125 -0.1403 -0.2436 -0.2501
 7402W        W11602   2.268   1.845  11.380 -0.0297 -0.2439 -0.4870
 7403W        W11603   1.467   8.120   0.307 -0.1931  0.0403  0.1167
 7404W        W11604   4.379   1.155   2.931 -0.1720  0.1212  0.2255
 7405W        W11605   2.610   2.266   2.405  0.0608  0.2260 -0.2950
 7406W        W11606   9.433   4.431   8.800  0.0337  0.1856 -0.0723
 7407W        W11607   3.205   3.167   9.373  0.0202 -0.2403  0.0923
 7408W        W11608   3.437   2.801   1.782 -0.3051 -0.1985 -0.2855
 7409W        W11609   0.843   4.002  12.969 -0.0148  0.1052  0.1653
 7410W        W11610   2.067   0.650   1.997 -0.1112  0.2487 -0.1339
 7411W        W11611   0.819   6.891  11.477  0.0471 -0.0773 -0.1163
 7412W        W11612  10.069   8.343  11.702 -0.4244 -0.1535 -0.1533
 7413W        W11613   8.308   2.912  12.192 -0.1656  0.1608  0.3616
 7414W        W11614   2.635   4.524  12.849  0.2811  0.1433  0.0606
 7415W        W11615   3.318   7.447   1.609  0.2494  0.2572  0.0937
 7416W        W11616   3.116   4.405  12.873  0.0497  0.1622 -0.0647
 7417W        W11617   8.516   9.981  11.591  0.2034  0.2297 -0.1778
 7418W        W11618   5.156   5.213  12.899  0.0685 -0.0940  0.2844
 7419W        W11619   8.901   2.165   0.729 -0.0396 -0.2557 -0.3329
 7420W        W11620   2.883   2.248   2.885 -0.2594 -0.1845 -0.1393
 7421W        W11621   9.750   0.814   8.908  0.1714  0.0410  0.0692
 7422W        W11622   7.521   0.691   9.834 -0.0349  0.1846  0.1456
 7423W        W11623   9.920   5.060   5.134 -0.0423  0.0356 -0.3399
 7424W        W11624   6.223   6.972   3.535 -0.5372  0.0988 -0.0685
 7425W        W11625   1.822   1.488  10.300  0.2409  0.0384  0.1903
 7426W        W11626   9.656   7.181   0.741 -0.1706 -0.0443  0.1064
 7427W        W11627   2.640   7.196   0.579  0.0230 -0.1463 -0.1393
 7428W        W11628   1.940   3.838  11.879 -0.2546 -0.0972  0.0352
 7429W        W11629   0.549   1.334   0.090  0.1421 -0.0057 -0.0410
 7430W        W11630   2.807   4.958   8.603  0.0393 -0.2411 -0.1339
 7431W        W11631   8.389   3.584   4.583  0.2062  0.1040 -0.1364
 7432W        W11632   9.740   3.081   0.725 -0.0185  0.4914  0.3487
 7433W        W11633   8.583   5.890  11.111 -0.0902 -0.2643  0.1714
 7434W        W11634   6.429   5.487   2.161 -0.2467 -0.3639 -0.2094
 7435W        W11635   4.559   4.711  10.182  0.2191  0.1133 -0.1797
 7436W        W11636   6.956   5.017   3.227 -0.1410  0.1923  0.0995
 7437W        W11637   7.428   1.663   0.226  0.0119  0.0291  0.2720
 7438W        W11638   9.221   4.378   3.105  0.2189  0.0629 -0.1528
 7439W        W11639   1.903   5.854   1.195  0.3395  0.1546  0.1191
 7440W        W11640   8.017   7.951   9.427  0.0104  0.4211 -0.1703
 7441W        W11641   8.642   6.098  10.147 -0.2747 -0.0468  0.1091
 7442W        W11642  10.473   5.166  11.974 -0.1960 -0.2986  0.1341
 7443W        W11643   3.225   8.782   1.694  0.1239 -0.1066 -0.1747
 7444W        W11644   9.214   5.395   1.261  0.0301 -0.0099 -0.1487
 7445W        W11645   8.283   4.281   0.226  0.0800  0.1749 -0.0556
 7446W        W11646   3.777  10.276   9.663 -0.1738 -0.0973 -0.1738
 7447W        W11647   5.865   4.430   9.590  0.1660  0.2313 -0.2656
 7448W        W11648   8.782  10.168   8.987  0.1031 -0.2129  0.1008
 7449W        W11649   0.218   3.230  12.930  0.3325  0.0152  0.1629
 7450W        W11650   1.247   2.336  12.348  0.0286  0.0782  0.0457
 7451W        W11651   0.933   2.619   1.792  0.0750 -0.0152  0.0417
 7452W        W11652   3.674   4.887   1.266 -0.1332  0.2153 -0.0235
 7453W        W11653   4.773   3.452   1.869  0.0303 -0.3962  0.4325
 7454W        W11654   8.522   4.017  12.651 -0.1758  0.1919 -0.1570
 7455W        W11655   4.438   8.739  10.946  0.3365 -0.0810 -0.1644
 7456W        W11656   2.254   7.088   3.692 -0.4501  0.2867 -0.1960
 7457W        W11657   0.510   5.349   0.624 -0.3349 -0.0241  0.1064
 7458W        W11658   6.778   0.256   1.510 -0.0057  0.1849  0.2018
 7459W        W11659  10.398   7.003   9.330 -0.1714  0.3506 -0.1873
 7460W        W11660   6.388   9.786   2.423  0.3861 -0.1192  0.1739
 7461W        W11661   7.491  10.213  11.513  0.0478  0.0133  0.2128
 7462W        W11662   7.527   4.167   4.496  0.0237  0.2066  0.0368
 7463W        W11663   3.110   8.064   8.746 -0.1808 -0.0201  0.0724
 7464W        W11664   8.714   9.026   4.253  0.1765 -0.1951  0.1851
 7465W        W11665   8.953   7.974  13.365 -0.2513 -0.1113 -0.0096
 7466W        W11666   3.734   6.678   2.062  0.1963 -0.1125  0.0885
 7467W        W11667   8.989   4.827  10.673  0.0161 -0.0147 -0.2815
 7468W        W11668   7.352   1.815   9.237 -0.3287  0.1221  0.0494
 7469W        W11669   3.774   4.234   0.016  0.0516  0.1625  0.0964
 7470W        W11670  10.421   0.651  13.093 -0.0447 -0.4651 -0.1138
 7471W        W11671   1.898   7.748   8.581 -0.1115 -0.1572  0.3467
 7472W        W11672  10.423   5.910   4.248  0.5228  0.2852 -0.1410
 7473W        W11673   9.191   0.635  11.555  0.0021  0.1013  0.0828
 7474W        W11674   5.949   6.110   3.918 -0.0362 -0.0066  0.2438
 7475W        W11675   9.818   4.134   8.603  0.0476  0.0459 -0.0060
 7476W        W11676  10.378   9.663   4.241  0.1085 -0.1141  0.3370
 7477W        W11677   5.216   1.700  10.673  0.1386 -0.0257 -0.1831
 7478W        W11678   6.347   6.190  12.031  0.0865  0.0212 -0.1012
 7479W        W11679   9.942   7.997   0.345  0.1107  0.0101 -0.0604
 7480W        W11680   2.939   1.267  10.471 -0.0412  0.2746 -0.0057
 7481W        W11681   2.294   4.020  11.060  0.4127  0.1847 -0.1075
 7482W        W11682   1.172   1.745  12.561 -0.1084  0.2271  0.3172
 7483W        W11683   6.148   1.891  12.321  0.0238  0.0458 -0.1092
 7484W        W11684   7.948   8.397  11.431 -0.1710  0.0125 -0.3972
 7485W        W11685   3.520   8.686   0.590  0.1514 -0.0030 -0.4173
 7486W        W11686   5.767   3.612   9.856  0.0455 -0.2084  0.3157
 7487W        W11687   4.840   9.465  11.050  0.0518 -0.1721 -0.1392
 7488W        W11688   2.760   4.201   1.877  0.1773 -0.1798  0.0419
 7489W        W11689   0.823   5.591   3.286  0.3349 -0.4153 -0.5264
 7490W        W11690   2.483   0.865   9.818  0.1001  0.2967 -0.0196
 7491W        W11691   7.822   7.473  11.879  0.2021 -0.1903 -0.2645
 7492W        W11692   9.805   7.762   3.566  0.1174  0.2171 -0.0786
 7493W        W11693   0.955   8.525   2.537  0.1239  0.0612 -0.3080
 7494W        W11694   0.253  10.154  12.744  0.2464  0.1586  0.2086
 7495W        W11695   4.818   3.688   9.957  0.1099  0.0029 -0.1933
 7496W        W11696   3.908   4.542   2.184  0.0226  0.1329  0.0217
 7497W        W11697   8.980   1.799   4.799  0.1208  0.0302 -0.0457
 7498W        W11698   2.508   8.182   9.307  0.2266  0.3437 -0.1112
 7499W        W11699   4.060   5.016   2.274  0.1035  0.3289 -0.0336
 7500W        W11700   4.496   1.606  10.994  0.1632 -0.3562  0.2272
 7501W        W11701   9.520   8.143   0.663 -0.2136 -0.0266 -0.4301
 7502W        W11702   3.915   5.629  11.464 -0.0505 -0.1669 -0.3101
 7503W        W11703   6.674   7.965   3.772  0.0712 -0.0412  0.0084
 7504W        W11704   7.343   3.706   2.492  0.1027 -0.1089  0.1054
 7505W        W11705   1.471   9.396  11.678 -0.0787 -0.4519  0.3036
 7506W        W11706   2.115   1.000   1.037 -0.1953 -0.1107  0.0032
 7507W        W11707   4.041   5.593  10.678  0.1167  0.0361 -0.0845
 7508W        W11708   3.120   2.338   3.436 -0.0575 -0.0803  0.2077
 7509W        W11709   4.884   8.029  11.002 -0.0130 -0.2812  0.2699
 7510W        W11710   5.207   9.862  12.459  0.0079 -0.2263  0.2294
 7511W        W11711   8.345   3.389  11.466 -0.1067 -0.2628 -0.0447
 7512W        W11712   8.080   0.973  13.230 -0.1342  0.1638  0.0310
 7513W        W11713   4.912   2.753  13.194  0.3244  0.0357 -0.2400
 7514W        W11714   0.643   0.075   2.429 -0.0701 -0.0333  0.1402
 7515W        W11715   8.118   8.122   4.206  0.1311  0.2103  0.0208
 7516W        W11716   0.909   5.390   8.801 -0.0060 -0.0943  0.3186
 7517W        W11717   9.162   7.175   2.684  0.1538 -0.1671  0.3818
 7518W        W11718   8.756   0.471   4.296  0.1960  0.2188  0.3595
 7519W        W11719   4.197   7.912  11.162 -0.0176 -0.0450  0.1132
 7520W        W11720   5.278   5.853  11.125  0.2428  0.0175 -0.0639
 7521W        W11721   7.258   2.633   1.584  0.0651 -0.1153  0.0904
 7522W        W11722   1.749   9.255  12.872 -0.1333  0.1728  0.0224
 7523W        W11723   5.042   4.184   0.910 -0.1309 -0.3130 -0.1371
 7524W        W11724   4.591   2.171   1.299  0.5512 -0.3068 -0.0919
 7525W        W11725   9.992   7.980   2.207  0.2468 -0.0131 -0.0383
 7526W        W11726   8.081   4.428   2.354  0.0400  0.0393 -0.1962
 7527W        W11727   5.382   3.111   9.497 -0.1632 -0.0448 -0.0581
 7528W        W11728   2.934   3.726   3.431 -0.0675  0.1902  0.0424
 7529W        W11729   0.687  10.070   2.608  0.0768 -0.1318  0.1824
 7530W        W11730   8.381   8.325   2.108  0.0785  0.0482 -0.2141
 7531W        W11731   8.089   7.462  10.843 -0.0438  0.1122  0.0090
 7532W        W11732   8.788   3.066   4.701 -0.3425  0.0001 -0.1991
 7533W        W11733   0.212   1.583  12.815  0.1141 -0.3009  0.1694
 7534W        W11734   4.401   9.116   2.973 -0.2002  0.0551 -0.3010
 7535W        W11735   3.571   2.722  13.230 -0.0342  0.3159  0.1046
 7536W        W11736   7.054   6.449   3.264 -0.0252  0.0735  0.1683
 7537W        W11737   5.296   7.402   9.887  0.0303 -0.1115  0.1620
 7538W        W11738   3.355  10.383  11.630  0.2781 -0.2740 -0.3725
 7539W        W11739   5.522   3.100   9.018 -0.1153 -0.2497  0.3207
 7540W        W11740   3.147   9.823  13.264  0.2041 -0.2072  0.0391
 7541W        W11741   1.695   9.595   2.623  0.1138  0.2211 -0.0255
 7542W        W11742   0.264   4.345  11.030 -0.0821 -0.1813 -0.5981
 7543W        W11743   9.950   3.330  11.557 -0.0882 -0.0281 -0.1661
 7544W        W11744   9.040   2.678  11.208  0.2175  0.0328  0.0281
 7545W        W11745   9.968   5.961  10.213  0.2185  0.1066  0.0989
 7546W        W11746   3.701   7.434  12.589 -0.1744  0.1235 -0.1615
 7547W        W11747   2.367   6.277  10.804  0.2330  0.0992 -0.1674
 7548W        W11748   8.610   4.054   1.109  0.0585  0.0987 -0.1142
 7549W        W11749   9.157   6.722   0.614  0.3748 -0.0461  0.1154
 7550W        W11750   0.324   9.225  10.888  0.0659 -0.1026  0.0014
 7551W        W11751   3.314   3.198   0.570  0.1238  0.0931  0.0583
 7552W        W11752   3.108   1.907   0.286 -0.0658  0.1623  0.0911
 7553W        W11753   9.678   8.864  12.984  0.1951  0.3976 -0.1900
 7554W        W11754   4.681   4.612   2.754  0.2973 -0.4308  0.2528
 7555W        W11755   3.178   1.961  11.111 -0.1180 -0.1278 -0.0953
 7556W        W11756   7.190   6.582   9.544  0.2429  0.0479 -0.0553
 7557W        W11757  10.418   7.313   4.278  0.0615  0.0867 -0.2118
 7558W        W11758   5.762   4.480   3.899 -0.2941 -0.0955 -0.3054
 7559W        W11759   3.996   5.973   1.701 -0.0082 -0.3544  0.2615
 7560W        W11760   9.110   7.530   8.898 -0.0650  0.1860 -0.1583
 7561W        W11761   4.305   2.751  10.805 -0.2022 -0.1386 -0.0991
 7562W        W11762   8.886   4.634   2.811 -0.2495 -0.0609  0.4566
 7563W        W11763   1.074   2.390   8.202 -0.0190 -0.0866 -0.3141
 7564W        W11764   4.336   6.799  11.459  0.4807  0.0028 -0.1007
 7565W        W11765  10.315   9.593   8.403  0.5328  0.4173  0.0040
 7566W        W11766   6.118   3.503  10.866  0.0368 -0.1585 -0.1636
 7567W        W11767   6.344   6.846   0.161 -0.0496  0.1489 -0.0746
 7568W        W11768   7.228   6.957   8.948  0.1171 -0.1718 -0.2252
 7569W        W11769   0.738   4.261   4.336 -0.0819 -0.0041 -0.1650
 7570W        W11770   2.527   3.763   1.909 -0.1486 -0.1458  0.0965
 7571W        W11771  10.276   9.814   0.892  0.0015  0.3061  0.2279
 7572W        W11772   4.408   7.734   2.607  0.1394  0.2391  0.1188
 7573W        W11773   6.546   6.015   0.751  0.2253 -0.1910 -0.0791
 7574W        W11774  10.412   6.042   3.059  0.1650 -0.4225  0.1076
 7575W        W11775   2.580   8.073   1.358 -0.0398  0.0539 -0.2834
 7576W        W11776   2.638   8.264   2.331  0.1018 -0.1185 -0.1478
 7577W        W11777   1.094   8.380  10.432 -0.1152  0.0597  0.2285
 7578W        W11778   1.569   7.255   2.285 -0.3503  0.0964  0.0147
 7579W        W11779   3.903   4.049   1.892  0.2885 -0.4091 -0.1720
 7580W        W11780   8.819  10.114  13.022  0.1831  0.1034  0.1861
 7581W        W11781  10.241   5.948   0.583 -0.0604 -0.0489  0.2621
 7582W        W11782   5.278   6.591   9.292 -0.0649  0.0545  0.2568
 7583W        W11783   1.317   4.347  11.085 -0.1765  0.0984  0.1606
 7584W        W11784   9.373   3.068   1.789  0.1086  0.4279  0.0320
 7585W        W11785   6.137   5.213  11.854  0.2059  0.0170  0.2222
 7586W        W11786   2.528   9.565   9.635 -0.1821  0.1011 -0.0253
 7587W        W11787  10.346  10.302   1.243 -0.2137 -0.2157  0.3259
 7588W        W11788   4.701   7.473   2.271  0.0395  0.1192 -0.1940
 7589W        W11789   6.155   7.195   4.627 -0.2352 -0.2037  0.1927
 7590W        W11790   6.777  10.453  12.731  0.0814  0.0901 -0.0641
 7591W        W11791   0.190   0.619  12.279  0.2653 -0.0655 -0.0042
 7592W        W11792   1.494   7.628   1.442  0.1877  0.0170  0.2948
 7593W        W11793   6.037   5.603   2.656  0.0435 -0.0704  0.1232
 7594W        W11794   0.089   1.324   4.260  0.3128 -0.3468  0.4828
 7595W        W11795  10.075   7.206   3.050  0.1904 -0.0700  0.0513
 7596W        W11796   9.549   7.235  11.302 -0.2244  0.1262 -0.0493
 7597W        W11797   2.500   7.876  12.852 -0.0133 -0.1509  0.0083
 7598W        W11798   9.249  10.273  11.015 -0.1358  0.0832 -0.0051
 7599W        W11799   5.356   8.083   1.728  0.2519  0.2964 -0.2533
 7600W        W11800   9.503   6.200  10.767  0.2765  0.0595  0.2212
 7601W        W11801   1.418   5.679   2.913 -0.1226 -0.0410 -0.1848
 7602W        W11802   1.014   9.377  10.090 -0.0863 -0.1824  0.1253
 7603W        W11803   1.391   6.847  12.425 -0.2096  0.0849  0.2060
 7604W        W11804   8.478   3.674   3.927  0.3077 -0.1565 -0.2065
 7605W        W11805   7.646   5.939  11.449 -0.2572  0.3607  0.2475
 7606W        W11806   0.709   8.927  11.934  0.4404 -0.1508  0.4853
 7607W        W11807   5.590   5.021  11.135  0.1791  0.0645  0.2942
 7608W        W11808   3.299   6.378   9.561  0.1060  0.1077 -0.1873
 7609W        W11809   6.216   8.281   1.501 -0.0591  0.1426 -0.3644
 7610W        W11810   9.341   3.426  11.291  0.0093 -0.0134  0.1697
 7611W        W11811   1.854   8.116   0.725  0.1722  0.1901 -0.1876
 7612W        W11812   5.768   5.044   4.270 -0.0489 -0.3569  0.2340
 7613W        W11813   5.443   4.692  10.772  0.0079  0.1046  0.0683
 7614W        W11814   0.013   1.720   2.292 -0.2984  0.1556 -0.1093
 7615W        W11815   9.995   7.923   4.210  0.3569 -0.0361  0.4615
 7616W        W11816   9.488   4.461   2.090  0.2773  0.1676 -0.0325
 7617W        W11817   1.638   1.473  13.281  0.3200 -0.0005 -0.0712
 7618W        W11818   0.896   9.321  12.769 -0.2779 -0.0987 -0.0338
 7619W        W11819   2.541   2.698  10.521 -0.0699  0.2350  0.1394
 7620W        W11820   1.127  10.102  10.913 -0.0495  0.1944  0.1327
 7621W        W11821   5.946   9.298  12.462  0.2969 -0.0036  0.0322
 7622W        W11822   5.402   7.974  11.748  0.2337 -0.0291  0.1960
 7623W        W11823   4.003   0.242   1.122 -0.0450  0.0554 -0.0657
 7624W        W11824   9.461   9.240   0.869  0.0938  0.0416 -0.1105
 7625W        W11825   0.002   9.548  13.089  0.2171 -0.0286 -0.1532
 7626W        W11826   5.910   1.107  12.451  0.0248  0.2367  0.1882
 7627W        W11827   7.918   8.699   4.225  0.0848 -0.2812  0.2515
 7628W        W11828   4.144   9.482  11.065 -0.3456  0.0586 -0.0364
 7629W        W11829   8.889   0.255  10.341  0.2548 -0.1723 -0.4543
 7630W        W11830   1.344   1.830  12.069 -0.1141 -0.2400  0.2287
 7631W        W11831   0.483   8.948   0.217 -0.1476  0.3293 -0.0686
 7632W        W11832  10.343   6.733  10.881  0.0270 -0.0351  0.1781
 7633W        W11833   8.754   3.689   9.631  0.1359 -0.0015  0.0161
 7634W        W11834   6.276   1.581   9.132 -0.0745  0.1274  0.0071
 7635W        W11835   0.458   8.485   0.306 -0.1502  0.0130  0.0055
 7636W        W11836   4.114   9.874   9.278  0.1584  0.1247  0.3498
 7637W        W11837   7.073   3.680  12.578 -0.0300 -0.1396 -0.0774
 7638W        W11838   2.575   9.620   2.859 -0.2070  0.0029 -0.2495
 7639W        W11839   7.654   3.708   5.261 -0.1365  0.0403  0.1168
 7640W        W11840   5.509   8.585   3.734  0.1088  0.1893 -0.0569
 7641W        W11841   6.665   6.638   9.677 -0.3336 -0.0982  0.2751
 7642W        W11842   9.788   6.372   8.823  0.0076 -0.1030  0.1196
 7643W        W11843   0.360   1.420   0.541  0.1121 -0.2218  0.2975
 7644W        W11844   4.132   0.737  11.206 -0.0092 -0.1687 -0.1813
 7645W        W11845   6.068   1.390  11.938 -0.3788 -0.4377  0.1014
 7646W        W11846   4.742   3.507  13.293  0.0521  0.0667  0.0710
 7647W        W11847   4.232   5.841   4.634 -0.4012 -0.1894 -0.3427
 7648W        W11848   0.152   3.045   9.358 -0.0546  0.1499 -0.1824
 7649W        W11849   9.929   9.863   2.601 -0.0962 -0.0299  0.0442
 7650W        W11850   1.281   7.833   9.176 -0.2798  0.0166  0.0745
 7651W        W11851   7.021   7.265   9.796  0.0385  0.1509  0.4085
 7652W        W11852   2.372   0.413   9.649 -0.0905  0.1422 -0.0638
 7653W        W11853   8.913   5.512   5.052  0.0447 -0.2303 -0.1346
 7654W        W11854   4.439   9.355   2.342  0.0663  0.0709  0.2192
 7655W        W11855   7.806   4.693   2.701  0.1448  0.2262 -0.1289
 7656W        W11856   6.764   0.797  10.020 -0.2305 -0.1927  0.1030
 7657W        W11857   9.002   1.191   3.721 -0.3128 -0.0990 -0.0545
 7658W        W11858   3.382   5.823   2.374  0.4041  0.1596 -0.1294
 7659W        W11859   8.081   0.391   0.620  0.3018 -0.0529 -0.0836
 7660W        W11860   8.630   1.995  11.353  0.0385 -0.2425  0.0010
 7661W        W11861   9.854   2.666  13.086 -0.1457 -0.5378 -0.0545
 7662W        W11862   4.641   6.341   3.569 -0.0925  0.1676 -0.0421
 7663W        W11863   0.088   1.672   9.563 -0.0701  0.2063  0.0780
 7664W        W11864   7.656  10.032   0.060  0.1971  0.4237  0.4223
 7665W        W11865   1.732   4.234   2.017  0.3116  0.1555  0.1321
 7666W        W11866   8.776   5.989   0.757  0.0714 -0.3254 -0.1960
 7667W        W11867   4.216   3.060   8.657  0.1032  0.3520 -0.1464
 7668W        W11868   6.977   0.445  11.156 -0.2603 -0.1108  0.0534
 7669W        W11869   1.735   0.882  10.340 -0.0885  0.0796  0.1111
 7670W        W11870   2.155   3.755  10.435  0.3496  0.0832  0.0360
 7671W        W11871   3.851   1.879  11.920  0.0026 -0.0912  0.0522
 7672W        W11872   3.509   0.555  12.438  0.0156  0.0775 -0.1389
 7673W        W11873   5.833   2.815   3.505  0.0662 -0.0931 -0.1214
 7674W        W11874  10.143   2.752  11.407  0.0222  0.0677  0.3211
 7675W        W11875   0.219   1.917   9.102 -0.0844  0.0550  0.0324
 7676W        W11876   4.523   6.919  10.085 -0.1969 -0.2771 -0.0167
 7677W        W11877   9.011   0.447   4.715 -0.0276  0.0157  0.1296
 7678W        W11878   7.477   5.529   2.192  0.0974 -0.2193 -0.5986
 7679W        W11879   9.115   8.131  11.808 -0.1316  0.3061 -0.0325
 7680W        W11880   2.279   3.783   2.313 -0.3049 -0.1588  0.1775
 7681W        W11881  10.043   8.631   1.924  0.1513  0.0360  0.0705
 7682W        W11882   1.333   9.750   2.163 -0.1404  0.1548  0.2274
 7683W        W11883  10.139   7.577  12.537  0.1654 -0.0480  0.1340
 7684W        W11884   4.782   2.195   4.292 -0.0743  0.1716  0.3754
 7685W        W11885   4.756   9.540   0.662  0.0709  0.0102  0.1193
 7686W        W11886   3.457  10.266   0.044 -0.1462 -0.2583 -0.0435
 7687W        W11887   1.750   6.679   4.472  0.0160 -0.0463 -0.0094
 7688W        W11888   3.024   7.743   3.818 -0.0320 -0.3298  0.3519
 7689W        W11889   6.509   6.042  10.128 -0.0823 -0.0521 -0.0027
 7690W        W11890   7.690  10.146  12.143 -0.1590  0.0846  0.2562
 7691W        W11891   9.930   8.047   9.220 -0.1058  0.1109  0.0281
 7692W        W11892   5.278   2.636  10.067 -0.1649  0.0347 -0.0777
 7693W        W11893   4.959   3.078   3.944 -0.1108  0.0438  0.1029
 7694W        W11894   7.857   8.779  13.099  0.1545  0.1761 -0.2030
 7695W        W11895   6.468   5.598   8.834 -0.0752  0.1241 -0.0133
 7696W        W11896   1.158   7.340   9.155  0.0962 -0.2429 -0.2713
 7697W        W11897   3.433   4.546   9.937  0.0526 -0.0009 -0.0850
 7698W        W11898   9.010   3.776   3.755 -0.1174  0.0466  0.2423
 7699W        W11899   2.820   1.323   9.367  0.2651 -0.0050  0.0165
 7700W        W11900   9.868   8.800  10.448  0.1722 -0.1463 -0.2496
 7701W        W11901   8.662   7.378  13.323 -0.2292 -0.1122  0.0498
 7702W        W11902   6.329   0.938   2.065  0.0940  0.3065  0.0864
 7703W        W11903   1.975   3.726  11.269  0.3804 -0.0255  0.2550
 7704W        W11904   0.979   2.526   4.240  0.0907 -0.0802 -0.0597
 7705W        W11905   7.774   7.832  10.693 -0.0129 -0.2879 -0.1923
 7706W        W11906   3.134   1.695  10.217 -0.0858 -0.0100  0.0166
 7707W        W11907   0.588   2.817  10.263 -0.2124  0.2653 -0.3805
 7708W        W11908   7.479   7.638  12.560 -0.1820 -0.1637  0.0563
 7709W        W11909   2.715   3.466   2.503  0.1252 -0.0953  0.2455
 7710W        W11910   4.162   4.355   3.852  0.0341  0.0853 -0.3440
 7711W        W11911   4.405   2.673   1.385 -0.1454 -0.0619  0.0937
 7712W        W11912   9.510   2.190   3.675  0.0153  0.2699  0.2792
 7713W        W11913   7.358   3.576   9.444  0.1019 -0.1012  0.2844
 7714W        W11914   3.460   5.856  12.906 -0.0019  0.2145 -0.1578
 7715W        W11915   2.122   2.922  10.825 -0.0764  0.2863  0.3469
 7716W        W11916   4.496  10.282   3.102  0.1627 -0.1027 -0.0982
 7717W        W11917   9.976   0.214   1.014 -0.1909 -0.1031  0.0023
 7718W        W11918   0.015   3.476   9.815 -0.1361 -0.0816 -0.3274
 7719W        W11919   9.050   2.428   2.479 -0.1044  0.3339  0.0289
 7720W        W11920   4.049   6.359   8.740  0.0335  0.0167  0.0098
 7721W        W11921   2.838   4.070   0.312  0.0152 -0.1565 -0.2133
 7722W        W11922   3.761   8.702   1.769  0.1762 -0.1688  0.0209
 7723W        W11923   7.575   9.517   0.106  0.2063 -0.2825 -0.1949
 7724W        W11924   2.417   7.174   1.518 -0.1297 -0.1551 -0.0758
 7725W        W11925   0.012   7.969  10.452 -0.0389 -0.0479  0.1905
 7726W        W11926   7.723   9.777   1.588  0.1940  0.1334  0.1022
 7727W        W11927   9.289   8.485   9.323 -0.1828  0.0358 -0.2148
 7728W        W11928   5.174   2.560   0.498 -0.4781 -0.0949 -0.1048
 7729W        W11929   2.663   8.166   1.835  0.0313  0.3121  0.1896
 7730W        W11930   1.876   7.057   4.113  0.0438  0.2015  0.2689
 7731W        W11931  10.249   1.305   1.837 -0.0727  0.0673 -0.2645
 7732W        W11932   2.728   4.677   0.773  0.0153 -0.2815 -0.0432
 7733W        W11933   5.253   5.664  12.657  0.0495  0.0527  0.0503
 7734W        W11934   3.536   7.367   2.674  0.0658 -0.1155 -0.1916
 7735W        W11935   4.877  10.362  12.198  0.0865 -0.2488 -0.4157
 7736W        W11936   4.179   3.999  11.673  0.1387  0.0676  0.3017
 7737W        W11937   1.931   8.576   3.507  0.0613 -0.0535 -0.0419
 7738W        W11938   4.372   6.093  13.204  0.2042  0.1081 -0.0014
 7739W        W11939   3.890   9.724  12.852 -0.0760  0.1240  0.2308
 7740W        W11940   5.535   2.863   0.611 -0.1423  0.0642  0.1041
 7741W        W11941   2.990  10.112  11.387 -0.0801  0.0515 -0.1326
 7742W        W11942   5.413   7.478   0.356  0.1194 -0.0407 -0.3366
 7743W        W11943   7.693   4.194   1.953  0.0434 -0.1216 -0.3264
 7744W        W11944   4.799   7.484   9.856 -0.1830 -0.0294 -0.0382
 7745W        W11945   2.716   1.240  13.042  0.0600 -0.0798 -0.0461
 7746W        W11946   4.997   0.759   3.146  0.1939 -0.0061  0.2261
 7747W        W11947   0.307   3.568   4.612 -0.0447  0.0661 -0.3062
 7748W        W11948   8.125   4.761  11.069 -0.0909  0.2148  0.0019
 7749W        W11949   4.153   9.105  10.741  0.1467  0.0528  0.2373
 7750W        W11950   7.869   4.942   9.056 -0.0293  0.2901  0.3736
 7751W        W11951   3.104   5.955   9.710  0.0513  0.0564 -0.2208
 7752W        W11952   1.135   0.936  11.391 -0.0827  0.2122  0.1774
 7753W        W11953   9.213   9.383   3.955  0.1616  0.0163  0.1334
 7754W        W11954   6.756   0.209   2.042  0.1816  0.1051 -0.0962
 7755W        W11955   8.651   4.096  10.523 -0.0154  0.2244 -0.0619
 7756W        W11956   2.025   2.183   0.357  0.1625  0.3751 -0.2625
 7757W        W11957   8.107   5.041   2.433  0.1538  0.2206  0.0322
 7758W        W11958   7.323   5.100   9.438 -0.2945 -0.0918  0.3582
 7759W        W11959   5.346   3.911   2.281 -0.0132 -0.2042  0.1241
 7760W        W11960   6.907   1.518   3.650  0.2412  0.1497 -0.1738
 7761W        W11961   0.567   1.907   4.803  0.0860 -0.5099  0.0582
 7762W        W11962   1.470   2.090   8.396 -0.1615 -0.3647  0.3005
 7763W        W11963   9.711   5.171  10.192 -0.3189 -0.3595  0.3631
 7764W        W11964   0.790   5.927   0.468 -0.0546  0.1495 -0.1677
 7765W        W11965   3.841  10.455  10.364  0.0672 -0.2227  0.2975
 7766W        W11966   1.774   8.656   2.994 -0.0920  0.1895 -0.1697
 7767W        W11967   5.859   5.399  11.031 -0.0636 -0.2936 -0.2777
 7768W        W11968   2.814   5.899   1.254  0.0890 -0.1299  0.3663
 7769W        W11969   6.712  10.430   0.324  0.1773  0.0659  0.0533
 7770W        W11970   3.537   8.849   0.044 -0.1891 -0.0735  0.0072
 7771W        W11971   5.445   9.333  10.169  0.0058 -0.1599 -0.3122
 7772W        W11972   4.875   1.289  10.753  0.1735 -0.1301 -0.4200
 7773W        W11973   7.392   1.815  11.831 -0.0399  0.3860  0.1779
 7774W        W11974   6.704   8.695  10.055 -0.3068  0.1207  0.0933
 7775W        W11975   6.893   7.545   4.007  0.4096 -0.0008  0.0604
 7776W        W11976   5.943   1.791  11.049 -0.1474 -0.1572 -0.1181
 7777W        W11977   0.677   3.458   0.679  0.2283  0.1203 -0.0388
 7778W        W11978   3.815   6.971   0.498 -0.0497 -0.0290  0.1413
 7779W        W11979   2.865   4.366  11.944 -0.0662 -0.1538 -0.2780
 7780W        W11980   0.223   4.889   2.564  0.0098  0.1109  0.0369
 7781W        W11981  10.065   3.105  13.193 -0.2252 -0.2947 -0.2546
 7782W        W11982   1.984   3.503   3.578 -0.0020  0.2791  0.0629
 7783W        W11983   6.356   6.932   2.126  0.3102 -0.1196  0.0917
 7784W        W11984   2.694   6.567   8.749  0.2202 -0.0130  0.0648
 7785W        W11985   7.976   7.813   4.951  0.0943  0.4348  0.2741
 7786W        W11986   0.748   9.259   4.133  0.0343  0.1538  0.3235
 7787W        W11987   7.076   6.086   4.907  0.1205  0.1524  0.1250
 7788W        W11988   0.567  10.199   0.787  0.0547 -0.2106  0.0778
 7789W        W11989   1.367   5.724   8.598  0.1199  0.0995  0.0335
 7790W        W11990   1.797   9.136   2.863 -0.0465  0.1892 -0.0512
 7791W        W11991   1.845   0.769  10.828  0.2062 -0.1226  0.2362
 7792W        W11992   4.863   5.755   3.961 -0.2689 -0.1278 -0.0959
 7793W        W11993   3.656   7.453   0.604 -0.1988 -0.2442 -0.3406
 7794W        W11994   2.897   9.236  13.038 -0.2655 -0.2604 -0.2994
 7795W        W11995   3.112  10.043   2.130  0.0980  0.1289  0.3104
 7796W        W11996   0.016   8.613   0.177 -0.0344 -0.0857  0.0545
 7797W        W11997   8.402   5.077  11.599  0.2164  0.4347  0.0328
 7798W        W11998   4.256   3.695   2.038 -0.1162  0.2498  0.0047
 7799W        W11999   6.067   8.387  12.235 -0.2168  0.0439  0.1261
 7800W        W12000   2.099   3.003   2.613 -0.2717  0.1449 -0.0595
 7801W        W12001   9.598   4.614  13.254 -0.3573  0.0615 -0.1601
 7802W        W12002   0.589   9.826  12.311 -0.0826  0.2545  0.0264
 7803W        W12003   8.530   1.247  10.377  0.1719  0.2040  0.2777
 7804W        W12004  10.222   2.779   0.755 -0.1506 -0.0481 -0.1421
 7805W        W12005   9.367   1.043   0.055  0.2307  0.7316  0.0761
 7806W        W12006   4.496   7.750  12.739 -0.1669 -0.0338 -0.0564
 7807W        W12007   4.571   4.224   2.990 -0.0955  0.1871  0.4282
 7808W        W12008   0.327   7.690   9.798  0.1064 -0.1295 -0.0566
 7809W        W12009   0.438   5.519   9.670  0.0534 -0.0333  0.0569
 7810W        W12010   1.981   0.620  11.319 -0.3897  0.0995  0.0777
 7811W        W12011   3.465   7.642  10.288  0.2054 -0.0364 -0.0142
 7812W        W12012   6.539   8.356  12.254 -0.1219  0.2518 -0.0854
 7813W        W12013   6.465   9.409  12.507 -0.0947 -0.0010 -0.0221
 7814W        W12014   4.189  10.330   2.237  0.3946  0.1910 -0.0107
 7815W        W12015   4.034   6.908  10.178 -0.1650  0.1873  0.1409
 7816W        W12016   0.736   6.401  11.292  0.0668 -0.2167  0.2182
 7817W        W12017   2.395   1.340  12.655 -0.0202  0.1761 -0.0733
 7818W        W12018   9.138   4.369   9.651  0.1455  0.1373 -0.0524
 7819W        W12019   8.863   5.071   9.334  0.0474 -0.0065  0.1315
 7820W        W12020   7.248   7.544  10.686 -0.1743 -0.0952  0.3394
 7821W        W12021   6.395   1.716   1.028 -0.3560  0.0729 -0.0982
 7822W        W12022   9.781   5.153   9.304  0.0291 -0.2039  0.2085
 7823W        W12023   8.867   7.953  10.096  0.0614 -0.2998 -0.4952
 7824W        W12024   0.271   4.717   3.429  0.2167  0.0240  0.2614
 7825W        W12025   2.854   1.682   1.231  0.0243 -0.0154 -0.3779
 7826W        W12026   0.354   8.418  12.357  0.0306  0.0255 -0.1039
 7827W        W12027   6.377   2.975   2.387  0.4251 -0.3632 -0.0944
 7828W        W12028   3.209   4.670   1.065 -0.4040 -0.3244 -0.0335
 7829W        W12029   9.576   5.103   3.586  0.3974  0.0269 -0.0465
 7830W        W12030   0.514   3.896  10.820 -0.1953 -0.0118  0.0107
 7831W        W12031   5.957   2.141   9.960 -0.0195  0.0000  0.6101
 7832W        W12032   2.986   3.929  12.156 -0.0622  0.0461  0.1674
 7833W        W12033   2.864   0.379  13.087 -0.2969 -0.2123  0.0252
 7834W        W12034   2.475   4.827   0.330  0.0117  0.1005 -0.1957
 7835W        W12035   1.714   1.185   3.079  0.2622  0.0036 -0.0330
 7836W        W12036   5.301   5.830  11.742  0.2647  0.1018  0.1982
 7837W        W12037   9.749   9.110   3.757 -0.2711  0.0594 -0.2372
 7838W        W12038   5.120   8.515  11.923 -0.2962 -0.2542 -0.1229
 7839W        W12039   3.153   2.320   0.522  0.0420 -0.3659  0.0094
 7840W        W12040   2.048   9.755   4.196 -0.2720 -0.2993 -0.0071
 7841W        W12041   8.461   2.215   1.459 -0.0386  0.0634  0.0883
 7842W        W12042   4.854   3.413  11.393 -0.0892  0.1565  0.1440
 7843W        W12043   0.766   6.186   1.427  0.1693  0.4121  0.0048
 7844W        W12044   1.269   7.763  13.372 -0.0128 -0.4572 -0.1070
 7845W        W12045   0.693   5.926  10.260 -0.1015 -0.1574 -0.3760
 7846W        W12046   9.938   0.674   0.682  0.2634  0.0375  0.1017
 7847W        W12047   4.005   0.667   9.593  0.3275 -0.4114  0.0792
 7848W        W12048   7.304   6.655   4.136 -0.3263 -0.0206  0.2475
 7849W        W12049   9.615   3.113  10.383  0.0799 -0.1035  0.1946
 7850W        W12050   0.089   2.546  11.090 -0.2803 -0.2028  0.2697
 7851W        W12051   1.734   3.365   1.312  0.2025  0.3445 -0.0251
 7852W        W12052   0.224   9.729   2.588 -0.0048 -0.0835  0.0424
 7853W        W12053   1.679   1.040   1.252  0.0500 -0.0101 -0.0642
 7854W        W12054   5.605   9.230  11.331 -0.0265 -0.1916 -0.1795
 7855W        W12055   2.590   5.595   7.803 -0.1728 -0.0551 -0.1378
 7856W        W12056   4.852   6.903   9.322 -0.1515  0.2239  0.1180
 7857W        W12057   7.182   9.933  13.312 -0.2352  0.2203 -0.0657
 7858W        W12058   5.615   1.407  10.665 -0.0194  0.2086  0.0378
 7859W        W12059   8.822   6.492  12.154  0.2999 -0.0894  0.1770
 7860W        W12060   2.437   4.596  11.779  0.1941 -0.3539 -0.1255
 7861W        W12061   2.281   1.263   3.435  0.1981  0.0532  0.1010
 7862W        W12062   3.203   6.314  10.513  0.3959 -0.0998 -0.1766
 7863W        W12063   5.248   3.080   3.181  0.1672  0.0108  0.3240
 7864W        W12064   2.755   8.625   1.619 -0.1137 -0.4789 -0.0276
 7865W        W12065   6.127   4.633   4.737  0.3206  0.0115  0.1043
 7866W        W12066   9.646   7.460  12.734  0.1630 -0.0183  0.2302
 7867W        W12067   9.789   3.568   3.012  0.0158  0.0577  0.1790
 7868W        W12068   3.088   1.842  11.586  0.2209 -0.0954  0.2794
 7869W        W12069   5.509   8.898  13.355  0.0959 -0.1578 -0.0637
 7870W        W12070   5.351   5.057   0.259 -0.0235 -0.1147  0.0641
 7871W        W12071   5.912   0.359  13.193 -0.1875 -0.2622 -0.2805
 7872W        W12072   3.588   6.689  11.528 -0.0191  0.1378  0.2362
 7873W        W12073   8.908   5.633   8.513 -0.2875 -0.1048  0.0949
 7874W        W12074   8.395   3.180   4.183 -0.2902 -0.1577  0.3616
 7875W        W12075   9.657   7.356  13.274  0.0051  0.0421  0.1714
 7876W        W12076   9.796   0.096   9.423 -0.1325 -0.5314 -0.0469
 7877W        W12077   2.049   2.525   2.197  0.1309 -0.0731  0.1138
 7878W        W12078   4.671   6.338  12.339  0.2434 -0.2717  0.1641
 7879W        W12079   7.623   2.373  12.692 -0.0248 -0.0547 -0.0751
 7880W        W12080   9.282   8.010  11.331  0.2261  0.1921  0.2227
 7881W        W12081   8.742   1.787   3.631  0.0226  0.4980  0.0368
 7882W        W12082   7.547   5.486   9.689  0.0510 -0.1871 -0.0612
 7883W        W12083   9.306   2.731   2.204  0.1187 -0.2680  0.0750
 7884W        W12084   9.324   9.907  12.826 -0.3294 -0.0196 -0.1320
 7885W        W12085  10.007   1.469  10.704 -0.1027  0.2326  0.0541
 7886W        W12086   7.938   0.403   2.300  0.3251 -0.2871 -0.0382
 7887W        W12087   6.956   4.647   2.264  0.5024 -0.3161 -0.0624
 7888W        W12088   7.311  10.353   1.044 -0.0684  0.2898 -0.1283
 7889W        W12089   2.945   2.143   2.020 -0.0001  0.2432 -0.1264
 7890W        W12090   5.238   8.479   0.142  0.2927 -0.2749  0.4673
 7891W        W12091   5.224   7.896   2.609 -0.2300  0.0212  0.3378
 7892W        W12092   0.070   8.663   3.205 -0.1546  0.2643  0.0392
 7893W        W12093   6.991   2.314   9.864 -0.0637 -0.1038  0.2807
 7894W        W12094   8.590   0.533  13.221 -0.1045 -0.0602  0.2806
 7895W        W12095   0.789   1.773   2.767  0.0859 -0.1941  0.2538
 7896W        W12096   7.058   8.546  13.036 -0.0202 -0.0412  0.0820
 7897W        W12097   3.198   6.008   9.233  0.2903  0.0043  0.0044
 7898W        W12098   3.865   1.250   0.433 -0.3054  0.4813 -0.3785
 7899W        W12099   7.852   2.535  11.801  0.0012  0.3213 -0.0098
 7900W        W12100   0.958   7.857   1.676  0.1653 -0.1915  0.4484
 7901W        W12101   8.765   6.444   0.463 -0.0061  0.0542 -0.0053
 7902W        W12102   5.392   8.675  12.345 -0.2847 -0.0255 -0.1426
 7903W        W12103   2.267   3.410   0.862  0.0039  0.0639  0.1636
 7904W        W12104   3.283   5.524   9.404 -0.2616 -0.1373 -0.2398
 7905W        W12105   2.213   0.186   1.609 -0.2144 -0.0684 -0.0225
 7906W        W12106   3.172   4.060   1.122  0.3191 -0.3194  0.4278
 7907W        W12107   5.259   7.002   0.379  0.0487 -0.2070 -0.2626
 7908W        W12108   3.846   8.239   3.877  0.0313  0.0900  0.0185
 7909W        W12109   6.544   0.478   0.420 -0.2298  0.0678  0.0948
 7910W        W12110   7.800   5.944   2.494 -0.0371  0.2704  0.2890
 7911W        W12111   8.083   5.652   0.280  0.0029 -0.0894  0.5716
 7912W        W12112   0.438   5.343  11.827  0.5077  0.1164 -0.0297
 7913W        W12113   2.308   1.264   9.224 -0.0214  0.0750 -0.2599
 7914W        W12114   7.586   0.661   3.698  0.1690 -0.3989  0.0241
 7915W        W12115   7.134   1.929   0.458 -0.1188  0.0989 -0.4806
 7916W        W12116  10.408   8.392   1.076  0.1509 -0.0262  0.3821
 7917W        W12117   9.260   6.812  11.822  0.1526  0.1078 -0.1592
 7918W        W12118   8.853   8.832   0.614 -0.2025  0.3181 -0.1409
 7919W        W12119   1.788   8.897  11.170 -0.0110  0.2972 -0.0323
 7920W        W12120   7.576   0.460  10.792 -0.1945 -0.0427  0.1094
 7921W        W12121   6.261   3.625   4.722  0.0261  0.1130 -0.0869
 7922W        W12122   1.287   5.668  10.322  0.0038  0.1450 -0.0902
 7923W        W12123   9.154   7.170  12.957  0.1237  0.0428 -0.1461
 7924W        W12124   3.103   7.139   2.736  0.2005 -0.1989  0.3023
 7925W        W12125   0.754   2.184   2.210  0.0447 -0.4266  0.1189
 7926W        W12126   5.810   6.508   0.907 -0.0939 -0.2493  0.1710
 7927W        W12127   2.063   2.715  13.032  0.1835 -0.1649  0.0110
 7928W        W12128   6.858   3.000  10.511  0.1483  0.0233 -0.0833
 7929W        W12129   6.620   7.549  10.094 -0.0960  0.3234  0.1059
 7930W        W12130   6.236   9.071  12.818  0.1167 -0.2426 -0.0215
 7931W        W12131   0.599   6.454   2.535 -0.1729  0.0362 -0.1376
 7932W        W12132   6.168   1.450   0.714 -0.0359  0.3272 -0.2483
 7933W        W12133   0.832   7.965  10.994  0.2876 -0.0560 -0.0163
 7934W        W12134   5.569   7.489   9.517  0.0670  0.2708  0.1994
 7935W        W12135   9.070   5.722   9.064  0.3097 -0.3677  0.0772
 7936W        W12136   0.748   9.720   1.882  0.3617  0.0433 -0.0695
 7937W        W12137   0.008   1.487  11.849  0.0880 -0.1009  0.0415
 7938W        W12138   5.854   0.599   9.693 -0.1751  0.0579  0.1221
 7939W        W12139   9.241   6.263  12.325 -0.0469 -0.1733  0.4383
 7940W        W12140   9.535   5.302  12.097 -0.0508  0.0580  0.0426
 7941W        W12141   6.455   0.673  13.334  0.2768 -0.0490 -0.0197
 7942W        W12142   3.439   6.874   8.878 -0.1134 -0.0264 -0.0585
 7943W        W12143   7.590   1.645   9.665 -0.2616  0.3739  0.0503
 7944W        W12144   1.464   2.341   0.392 -0.3078 -0.1262  0.0325
 7945W        W12145   6.419   9.556   1.431 -0.0024  0.1000 -0.1345
 7946W        W12146   7.991   8.096   3.158 -0.0245 -0.1108  0.0536
 7947W        W12147   9.005   8.213   0.546  0.0474 -0.2655 -0.0891
 7948W        W12148   5.354   4.104  10.911 -0.1681  0.1347 -0.0344
 7949W        W12149   9.957   4.894   3.908 -0.2464  0.0002 -0.0458
 7950W        W12150   4.388   4.654  13.223  0.1566  0.0549 -0.3399
 7951W        W12151   5.407   2.896   3.804  0.1059  0.0265 -0.1731
 7952W        W12152   8.062   9.117  10.420 -0.0844  0.0483  0.2283
 7953W        W12153   6.897   7.458   1.278  0.2234 -0.2187  0.2028
 7954W        W12154   7.438   9.396   2.487 -0.0785  0.0825  0.1340
 7955W        W12155   8.649   5.888   8.208  0.1232  0.2519 -0.1082
 7956W        W12156   7.775   6.923   2.522  0.1027  0.0035  0.0901
 7957W        W12157  10.353   6.341   5.040  0.2458 -0.2787 -0.0397
 7958W        W12158   4.092   5.719   4.063  0.0308  0.0399 -0.0322
 7959W        W12159   8.637   6.032   9.047  0.1534 -0.1053 -0.0538
 7960W        W12160  10.123   2.756  10.812 -0.0632  0.0582  0.0981
 7961W        W12161   5.389   6.716  11.504 -0.1933 -0.4011  0.1766
 7962W        W12162   8.784   5.012  10.130  0.1259  0.3222 -0.2146
 7963W        W12163   1.969   9.407   2.245 -0.1859 -0.1677 -0.0430
 7964W        W12164   6.017   4.137   0.783 -0.0585  0.0285 -0.2135
 7965W        W12165   6.993  10.395  13.303  0.0991 -0.0813 -0.0392
 7966W        W12166   8.243   0.374  11.512 -0.0510 -0.1736 -0.1117
 7967W        W12167   7.959   3.690  11.138  0.0944  0.0718 -0.2189
 7968W        W12168   0.647   1.503   2.334 -0.4446 -0.0095 -0.2508
 7969W        W12169   7.353   7.660  11.855  0.0865 -0.0207  0.0604
 7970W        W12170  10.022   9.740   8.886 -0.3374  0.1246  0.0083
 7971W        W12171   9.355   1.743   1.710  0.1100 -0.2145 -0.1010
 7972W        W12172   0.091   3.156  10.281  0.1794 -0.1984 -0.0002
 7973W        W12173   5.166   0.284  12.312 -0.1515 -0.3878  0.1507
 7974W        W12174   9.821   2.850   5.150 -0.3058  0.1210  0.1352
 7975W        W12175   8.128   4.815   4.628  0.3842  0.0610 -0.0344
 7976W        W12176   2.897   7.297   2.201 -0.2534 -0.3164 -0.1733
 7977W        W12177   3.703   6.008  10.588 -0.3287  0.2157  0.2705
 7978W        W12178   2.137   5.841  11.990 -0.2016 -0.0287  0.1175
 7979W        W12179   6.667   4.599   0.492  0.1007 -0.1537  0.1481
 7980W        W12180   6.456   7.390   0.104 -0.1611 -0.1970  0.0076
 7981W        W12181   5.956   3.318   0.634  0.3304  0.1047  0.1436
 7982W        W12182   6.182   8.287  11.319  0.2333  0.1404  0.0269
 7983W        W12183   0.832   7.714   2.744  0.0226 -0.2943  0.1463
 7984W        W12184   2.122   7.455   4.026 -0.2897  0.0492 -0.0910
 7985W        W12185   9.008  10.414   2.578 -0.0381 -0.2575 -0.2577
 7986W        W12186   9.670   5.134   8.462  0.1019 -0.1785  0.0353
 7987W        W12187   3.212   0.823   1.042  0.0133  0.2060 -0.1046
 7988W        W12188  10.183   5.393   0.801  0.1091 -0.0052  0.2970
 7989W        W12189   8.332   5.184   0.010  0.4223 -0.1269 -0.6482
 7990W        W12190   5.292   0.537   1.524 -0.2428  0.2002  0.1053
 7991W        W12191   2.527   6.384  12.287 -0.0472 -0.1144 -0.0624
 7992W        W12192   0.858   6.907   0.816  0.2279  0.0177  0.1798
 7993W        W12193   3.349   8.025  10.649 -0.0907  0.1453  0.0419
 7994W        W12194   6.491   2.739  10.694 -0.0181 -0.0523 -0.0513
 7995W        W12195   9.601   6.972  12.640  0.2868  0.3233 -0.2916
 7996W        W12196  10.309   4.019  12.969 -0.0661 -0.0202 -0.2643
 7997W        W12197   6.759   2.829   3.320 -0.0247 -0.0573 -0.2068
 7998W        W12198   4.898   8.327   1.143  0.2694  0.3403  0.1463
 7999W        W12199   5.753  10.063  11.726 -0.0407  0.0781  0.4305
 8000W        W12200   6.910   3.807   9.205 -0.0734  0.2559  0.3011
 8001W        W12201   6.389   3.395   2.694 -0.1992  0.5401  0.1761
 8002W        W12202   3.386   3.429  11.465 -0.0783 -0.1183  0.2804
 8003W        W12203   3.345   8.520  10.854  0.1210  0.4920 -0.2771
 8004W        W12204   5.301   1.255  12.074 -0.0326 -0.0154  0.0212
 8005W        W12205   5.275  10.440   3.977  0.0326 -0.3141 -0.1716
 8006W        W12206   3.936   4.720   9.628  0.1105 -0.3275  0.0572
 8007W        W12207   5.189   8.396  12.706 -0.0566  0.1126  0.0956
 8008W        W12208   5.919   7.359   3.639 -0.2690 -0.0724  0.2352
 8009W        W12209   4.187   2.626   8.951  0.0920  0.2454  0.1145
 8010W        W12210   6.972   8.195   2.738 -0.2403 -0.2296 -0.3914
 8011W        W12211   9.375   2.120  13.240 -0.3013 -0.0025 -0.1019
 8012W        W12212   5.364   7.105   1.293  0.1022 -0.1766 -0.2060
 8013W        W12213   1.832   6.207   2.215  0.3752  0.2342  0.1363
 8014W        W12214   4.419   8.179  10.696  0.4279  0.3151  0.2639
 8015W        W12215   3.868   9.778  12.021 -0.0627 -0.1056 -0.2112
 8016W        W12216   1.683   1.023   0.702 -0.1068 -0.1811  0.0436
 8017W        W12217   5.954   8.496   2.849 -0.0049  0.1057  0.2835
 8018W        W12218   8.721   4.979  12.521  0.0663 -0.2375  0.2410
 8019W        W12219   8.023   5.964  11.807 -0.1643  0.0769  0.0075
 8020W        W12220   9.809   5.853   8.945  0.0849  0.0448  0.0670
 8021W        W12221   2.042   8.329   9.473  0.0580 -0.4263 -0.0806
 8022W        W12222   8.765   3.158   2.828  0.2284 -0.0151 -0.0254
 8023W        W12223   0.854   5.535   9.984  0.2055 -0.0250  0.0482
 8024W        W12224   1.742  10.142   0.792  0.1310 -0.0221 -0.3617
 8025W        W12225   9.271   9.053  12.704 -0.1425 -0.0080 -0.1327
 8026W        W12226   4.165   0.680   2.145  0.2317 -0.1712  0.0363
 8027W        W12227  10.431   8.510  12.067  0.2069  0.1552 -0.0195
 8028W        W12228   4.503   6.793  12.831 -0.2410 -0.1469  0.1539
 8029W        W12229   9.829   9.142  12.550 -0.2204  0.3992  0.1700
 8030W        W12230   1.646   2.770   2.065  0.0977 -0.2280  0.2841
 8031W        W12231   1.862   5.194   9.463  0.2100  0.3065 -0.3173
 8032W        W12232   2.937   6.073   2.218 -0.3528 -0.1059  0.0133
 8033W        W12233   7.982   6.462  11.895 -0.1575  0.0070 -0.1584
 8034W        W12234   3.543   3.825   2.835 -0.0047  0.0002  0.1379
 8035W        W12235  10.322   3.526   4.571 -0.0453 -0.5790 -0.0622
 8036W        W12236   1.173   2.231   4.739  0.0273  0.1045 -0.2194
 8037W        W12237  10.057   9.614  11.744  0.2501  0.3139  0.1182
 8038W        W12238   0.964   4.813   1.686 -0.0285 -0.0435  0.1373
 8039W        W12239   9.870   7.983   2.749 -0.2087  0.1255 -0.1017
 8040W        W12240   8.158   0.444   0.105  0.1888  0.2014 -0.2133
 8041W        W12241   1.177   1.860  11.034  0.0214  0.0833 -0.2124
 8042W        W12242   7.040   9.495  12.020  0.0932  0.1497  0.0561
 8043W        W12243   7.359   7.439   4.375  0.0312 -0.2619  0.2397
 8044W        W12244   2.822   8.496  11.049  0.0595  0.1544  0.0469
 8045W        W12245   2.657   0.785  13.212 -0.2275  0.1948  0.4920
 8046W        W12246   1.346   5.988   4.022 -0.0375  0.0517  0.1100
 8047W        W12247   9.173   1.636   3.819 -0.1621  0.0027 -0.0752
 8048W        W12248   7.893   5.062   9.574  0.2308  0.1193 -0.0788
 8049W        W12249   7.633   8.317  10.444 -0.1245  0.0013 -0.0904
 8050W        W12250   1.939   1.749   1.732 -0.0998  0.1402  0.1273
 8051W        W12251   8.729   8.549   3.897  0.1513  0.0692  0.3024
 8052W        W12252   6.420   8.140   8.992 -0.1995  0.1742 -0.0758
 8053W        W12253   5.400   7.941   3.996  0.2314  0.2698 -0.0363
 8054W        W12254   9.104   3.453   1.613  0.0702  0.3804  0.0237
 8055W        W12255   5.861   6.697  11.304 -0.0110 -0.1251 -0.0582
 8056W        W12256   9.720   6.618   0.584  0.0253 -0.0842 -0.3779
 8057W        W12257   7.655   7.844   1.502 -0.0848 -0.1879  0.0191
 8058W        W12258   7.586   8.479   8.214  0.2497  0.3834 -0.1017
 8059W        W12259   4.112   3.328  10.893 -0.1390 -0.0382 -0.1188
 8060W        W12260   5.556  10.071   1.551  0.2278  0.1741  0.0338
 8061W        W12261   5.584   4.065   9.783 -0.0735  0.1609 -0.0097
 8062W        W12262   6.551   3.217  10.121  0.2726  0.1444 -0.2508
 8063W        W12263   9.357   5.164   4.313 -0.0227 -0.1085 -0.0884
 8064W        W12264   4.739   6.435  13.154 -0.0257 -0.1223  0.1489
 8065W        W12265   4.602   2.267   3.403  0.0436  0.1115  0.1263
 8066W        W12266   9.188   2.569   4.464  0.1735  0.0609 -0.1454
 8067W        W12267   9.163   3.304  10.393  0.1559  0.0147  0.1527
 8068W        W12268   0.447   0.088  10.779  0.0624  0.2660 -0.1468
 8069W        W12269   8.281   5.612   1.287  0.5019 -0.1137 -0.0785
 8070W        W12270  10.180   8.457   3.433 -0.0321  0.1628  0.1580
 8071W        W12271   8.131   7.271   2.702  0.1299 -0.0901 -0.0850
 8072W        W12272   1.262   0.772   5.170 -0.0290  0.2898  0.0145
 8073W        W12273   4.234   9.179   3.728 -0.0899 -0.3363  0.0160
 8074W        W12274   9.823   5.993   3.436 -0.2911 -0.0738 -0.0135
 8075W        W12275   4.018   5.347  11.080 -0.0556 -0.0505 -0.0061
 8076W        W12276   8.845   1.975  13.291 -0.3539  0.2241 -0.2632
 8077W        W12277   2.808   4.801   9.131 -0.1351  0.1051 -0.0546
 8078W        W12278   2.479   9.502   8.713 -0.0933 -0.1273  0.3159
 8079W        W12279   1.490   2.469  11.936  0.1043  0.2707 -0.0434
 8080W        W12280   2.837   5.475   0.991  0.0464 -0.0192  0.1975
 8081W        W12281   6.960   6.797  10.647  0.0988  0.0301  0.1036
 8082W        W12282   4.249   4.112   1.560  0.1058 -0.0613  0.1218
 8083W        W12283   1.584   9.383   0.270  0.1383 -0.0018 -0.1712
 8084W        W12284   5.930   1.061   3.260  0.1453  0.1782  0.4568
 8085W        W12285   6.424   9.387  11.137 -0.0711  0.1161 -0.2845
 8086W        W12286   7.106   8.701  11.178  0.1681  0.1651 -0.0628
 8087W        W12287  10.133   8.485   9.430 -0.6203 -0.0013  0.0050
 8088W        W12288   4.176   2.390   3.626 -0.1356 -0.0565 -0.1933
 8089W        W12289   3.862   6.473  10.666  0.0237 -0.0127  0.0347
 8090W        W12290   1.310   4.555   9.687 -0.0237  0.0178  0.0437
 8091W        W12291   6.290   1.477  11.200  0.1257 -0.1667 -0.0070
 8092W        W12292   2.995   7.491   9.495  0.3596 -0.4107  0.2687
 8093W        W12293   1.167   2.798   1.326  0.1197  0.2393 -0.0601
 8094W        W12294   8.635   9.821   2.092  0.1315  0.2034 -0.3376
 8095W        W12295   3.387   2.528  10.085  0.3517  0.1284  0.0365
 8096W        W12296   3.408   0.302   0.821  0.2614 -0.2535 -0.0447
 8097W        W12297   4.782   8.931  11.752 -0.3678  0.0577 -0.1598
 8098W        W12298   8.435   7.420   0.375 -0.1596  0.2316 -0.2522
 8099W        W12299   8.392   1.156   2.424 -0.2415 -0.0064  0.1116
 8100W        W12300   6.110   0.711  10.795  0.2094  0.1000  0.0130
 8101W        W12301   2.479   9.064  11.936 -0.2846  0.1282 -0.0475
 8102W        W12302   3.227   3.248   2.015 -0.2980  0.1787  0.0485
 8103W        W12303   3.939   6.693   4.543 -0.3395  0.1173  0.4400
 8104W        W12304   2.589  10.425   1.479  0.0114 -0.0974 -0.2468
 8105W        W12305   2.099   0.362   2.974 -0.1279 -0.2720  0.1893
 8106W        W12306   3.736   0.678   2.387  0.2617  0.2728 -0.2125
 8107W        W12307   4.859   0.707   9.954  0.1635  0.1979 -0.3002
 8108W        W12308   1.283   8.207   0.847 -0.1451  0.0634  0.0983
 8109W        W12309   5.458   3.962   0.013 -0.2986  0.0473 -0.0741
 8110W        W12310   4.770   2.009  11.863  0.0975  0.3747 -0.2605
 8111W        W12311   4.942   4.950  12.068  0.0247  0.1901  0.0514
 8112W        W12312   7.447   7.149   3.991  0.0518  0.2552 -0.2281
 8113W        W12313   9.212   1.320  11.146  0.0888  0.0631  0.0982
 8114W        W12314   5.159   2.976   1.395  0.4079  0.3952  0.1591
 8115W        W12315   1.407   3.059   3.650  0.0444  0.1866 -0.0645
 8116W        W12316   1.069   2.537   9.299  0.0637 -0.0484  0.2111
 8117W        W12317   3.196   0.443  10.210  0.0787  0.3038 -0.1700
 8118W        W12318   8.021   7.949   3.634  0.0337 -0.1617  0.2167
 8119W        W12319   9.702   3.095   0.206 -0.1311  0.1149  0.3228
 8120W        W12320   7.975   8.711  11.859 -0.3087  0.2492 -0.0388
 8121W        W12321   1.753   7.271   9.918  0.3280 -0.0342  0.0604
 8122W        W12322   0.745   8.543   9.193  0.0194 -0.0698 -0.6055
 8123W        W12323   9.805   4.200  11.158 -0.0159  0.0986 -0.0093
 8124W        W12324   1.343   9.896   0.467  0.1165 -0.0553 -0.0828
 8125W        W12325   1.004   5.793   9.562  0.1677  0.1369  0.0702
 8126W        W12326  10.353   0.236   0.645 -0.0527  0.1706 -0.1466
 8127W        W12327   3.662   6.115   2.616  0.1302 -0.1375 -0.0197
 8128W        W12328   2.467  10.261  12.490 -0.2201 -0.0867  0.4668
 8129W        W12329   9.750   9.371   9.614 -0.0488  0.1519 -0.0050
 8130W        W12330   4.333   4.274   0.185  0.1929  0.2240  0.2378
 8131W        W12331   8.210  10.087   0.217 -0.2522  0.2901  0.0942
 8132W        W12332   0.354   5.378  13.161  0.1466  0.3349 -0.0933
 8133W        W12333   1.730   5.654  11.210 -0.0222 -0.0300  0.0210
 8134W        W12334   1.629   3.281   2.767  0.1018  0.0300 -0.1139
 8135W        W12335   4.962   4.757   5.018  0.0156 -0.1380 -0.1040
 8136W        W12336   5.088   1.806   0.150  0.1651 -0.0020 -0.2060
 8137W        W12337   3.772   5.358   0.922  0.0560  0.0400 -0.0218
 8138W        W12338   8.905   8.270  12.249  0.4397 -0.0144 -0.3115
 8139W        W12339   6.574   2.482   2.469  0.0355 -0.3941  0.2710
 8140W        W12340   8.244   6.119   3.991  0.0991 -0.2563  0.2070
 8141W        W12341   2.942   3.270   3.724 -0.2217 -0.1390  0.0129
 8142W        W12342   9.960   6.873   3.440  0.4761 -0.2735 -0.0800
 8143W        W12343   8.118   1.391  13.001  0.1554  0.2621 -0.0086
 8144W        W12344   7.249   3.833   0.872 -0.0032  0.0230 -0.2768
 8145W        W12345   5.617  10.077   2.460 -0.0560  0.2737  0.2426
 8146W        W12346   3.508   7.881   1.942 -0.2582 -0.1916 -0.0928
 8147W        W12347   8.775   4.742  11.715  0.2306 -0.2599  0.0821
 8148W        W12348   9.466   2.255  11.889  0.0004 -0.0281 -0.0057
 8149W        W12349   0.276   8.822  11.645 -0.2354  0.1024 -0.2733
 8150W        W12350   7.371   5.718   8.340  0.1164 -0.1924 -0.2544
 8151W        W12351   9.806   4.677  11.107  0.4242 -0.2427 -0.1398
 8152W        W12352   1.419   7.697  11.357  0.0774 -0.0404 -0.0781
 8153W        W12353  10.083   7.169   8.878 -0.1109 -0.0547  0.0133
 8154W        W12354   9.008   2.260   5.262 -0.1421  0.1894 -0.0814
 8155W        W12355   7.352  10.086   3.588 -0.1174  0.1119 -0.0976
 8156W        W12356   5.292   3.685   9.754  0.2328  0.1395 -0.1329
 8157W        W12357   2.844   4.361   9.933 -0.0360 -0.2808 -0.1457
 8158W        W12358   1.170   2.698  11.655  0.1027 -0.3404  0.0079
 8159W        W12359   0.231   3.150   4.352  0.1673 -0.0319 -0.0515
 8160W        W12360   4.655   3.877  12.313 -0.1530 -0.0387  0.2246
 8161W        W12361   1.288   2.326  12.818 -0.0804 -0.0290 -0.2551
 8162W        W12362   7.609   2.625   2.915  0.1336 -0.0599  0.1477
 8163W        W12363  10.082   8.474  10.837  0.2613  0.1661  0.1890
 8164W        W12364   2.115   2.123   8.696 -0.3787  0.0562 -0.3414
 8165W        W12365   2.952   3.454  11.978 -0.2333  0.1723  0.3740
 8166W        W12366   1.768   8.278   9.910 -0.0337  0.0929  0.1119
 8167W        W12367  10.200   3.001   0.311 -0.0193  0.1547  0.3809
 8168W        W12368   6.022   7.557  11.109 -0.1124  0.0654  0.1503
 8169W        W12369   6.619   5.107   5.525 -0.0689 -0.0621 -0.3655
 8170W        W12370   3.297   7.313   3.592  0.1572 -0.0667  0.1464
 8171W        W12371   8.140   6.290   2.863  0.0866  0.0666  0.2022
 8172W        W12372   7.550   6.571  10.976  0.3693  0.2272 -0.1216
 8173W        W12373   6.997  10.028  11.771  0.2661  0.1607 -0.1839
 8174W        W12374   8.715   4.116   3.027  0.2598 -0.2070  0.1384
 8175W        W12375   9.333   4.629  10.941  0.0987  0.2611 -0.0710
 8176W        W12376   0.919   3.571   0.254  0.2964  0.0483 -0.1832
 8177W        W12377   6.870   2.022  10.245 -0.2795  0.3308 -0.1057
 8178W        W12378   6.058   9.636   0.355 -0.0457  0.3629  0.1419
 8179W        W12379  10.072   0.955   9.290  0.1999  0.1031  0.3030
 8180W        W12380   5.437   7.515   2.873 -0.3310  0.0891  0.2162
 8181W        W12381   6.792   5.625   0.433 -0.3979  0.2031  0.0981
 8182W        W12382   0.752   7.035  11.021 -0.0489 -0.1995 -0.1842
 8183W        W12383   9.165   4.905  11.388  0.0344  0.1112 -0.0216
 8184W        W12384   6.964   2.434   3.572  0.0965  0.3173  0.3615
 8185W        W12385   8.969   3.967  11.576 -0.0448 -0.1669 -0.0708
 8186W        W12386   0.388   7.748   2.377 -0.3481  0.3134 -0.0518
 8187W        W12387   9.201   7.821   1.799 -0.0230 -0.0768  0.0215
 8188W        W12388   9.592   6.372  11.879  0.2999 -0.1158  0.0074
 8189W        W12389   0.152   8.115  13.356 -0.0275 -0.0156 -0.0607
 8190W        W12390   5.216   5.129   1.456 -0.1953  0.2241 -0.0832
 8191W        W12391   2.766   4.894  11.468  0.3025 -0.1242  0.1623
 8192W        W12392   0.163   3.031   1.601 -0.1377  0.2598 -0.1538
 8193W        W12393   5.552   6.933  11.950  0.3915 -0.0414 -0.2339
 8194W        W12394   4.857   4.463   9.313 -0.4309  0.1318  0.0940
 8195W        W12395   9.965   2.679   2.545 -0.0040 -0.3330 -0.2139
 8196W        W12396   4.660   4.041   3.665  0.0711 -0.1042  0.0105
 8197W        W12397   8.491   1.290   1.086 -0.1201 -0.2755  0.0294
 8198W        W12398   2.163   6.746   8.883 -0.1716  0.0703  0.1739
 8199W        W12399   8.379   9.540   4.102 -0.1065 -0.3479 -0.0788
 8200W        W12400  10.437   1.374   4.999 -0.0115 -0.0047  0.0959
 8201W        W12401   8.632   5.617   0.306 -0.0246  0.0363  0.0683
 8202W        W12402   6.452   4.429   9.512  0.1570  0.1227 -0.3636
 8203W        W12403   9.243   3.281  11.922  0.1340 -0.1663 -0.3369
 8204W        W12404   9.200   7.954   9.284  0.0822  0.2313 -0.1280
 8205W        W12405   1.432   2.899   9.646 -0.1976 -0.3235  0.1676
 8206W        W12406   9.561   1.343  10.499  0.0680  0.1556  0.1339
 8207W        W12407   7.361   6.427  10.120 -0.0813 -0.3210 -0.0401
 8208W        W12408   2.864   4.926  10.518 -0.0744 -0.1771 -0.0716
 8209W        W12409   7.051   8.712   1.378 -0.0686 -0.2582 -0.1484
 8210W        W12410   6.940   1.591   1.038  0.4619  0.0058  0.4085
 8211W        W12411   3.247   4.702  10.792  0.0065 -0.1901 -0.0895
 8212W        W12412   6.706   5.100   2.250 -0.0670  0.1481  0.1072
 8213W        W12413   2.023   2.245  11.158 -0.0292  0.1188  0.2436
 8214W        W12414   5.447   9.782   2.861 -0.1297 -0.2204  0.0246
 8215W        W12415   5.666   5.203  10.638 -0.0261  0.4342  0.3033
 8216W        W12416   6.427   1.220   2.479  0.2569  0.0765  0.2016
 8217W        W12417   5.336  10.275   9.373 -0.0606  0.1036  0.1170
 8218W        W12418   8.390   8.346  11.177 -0.1593 -0.2904  0.0695
 8219W        W12419  10.127   5.621   1.417 -0.0727  0.3399 -0.0470
 8220W        W12420   3.783   8.128  13.367 -0.1104  0.0300  0.2999
 8221W        W12421   4.624   7.993  13.147  0.2785 -0.1659 -0.1923
 8222W        W12422   0.548  10.377   3.322 -0.1961  0.2019 -0.0485
 8223W        W12423   7.311   0.495  12.010  0.0497  0.0365  0.1869
 8224W        W12424   6.222   9.519  10.607 -0.0163  0.0313 -0.3556
 8225W        W12425   7.789   7.966  12.240  0.2306 -0.0675 -0.1042
 8226W        W12426   7.038   2.340   3.064 -0.3118 -0.1590  0.2077
 8227W        W12427   2.497   3.365  12.491 -0.4031  0.4133  0.1044
 8228W        W12428   0.740   0.479  12.496  0.0299 -0.1215 -0.0716
 8229W        W12429   9.968   0.066   1.490 -0.2192 -0.0288  0.1120
 8230W        W12430   4.888   7.364   0.020  0.1866 -0.0951  0.2153
 8231W        W12431   4.438   6.090   1.505 -0.0769  0.3263 -0.1579
 8232W        W12432   5.129   2.109   1.346 -0.3060 -0.2629 -0.0221
 8233W        W12433   1.414   9.694  11.121 -0.1073 -0.0130  0.0898
 8234W        W12434   2.643   0.802   0.924  0.1620  0.0432 -0.0810
 8235W        W12435   8.651  10.378   1.792 -0.2082  0.1188  0.4907
 8236W        W12436   2.516   3.625   1.240  0.0149  0.0455  0.2346
 8237W        W12437   7.427   3.712   1.357  0.2009  0.1167 -0.4322
 8238W        W12438   0.944   2.387   2.658 -0.0455 -0.0573  0.2382
 8239W        W12439   6.291  10.336  10.924  0.2337  0.0416  0.2893
 8240W        W12440   1.547   7.446  10.549 -0.0082 -0.1640 -0.1412
 8241W        W12441   1.694   2.594  12.498  0.2515 -0.0518 -0.0268
 8242W        W12442   6.665   5.119  12.579 -0.0240 -0.3524  0.0154
 8243W        W12443   7.806   9.289   1.629  0.2490 -0.0642 -0.0296
 8244W        W12444   5.428   6.724  12.450 -0.1866 -0.1702  0.1530
 8245W        W12445   1.699   3.925   3.594 -0.0085 -0.4343  0.1792
 8246W        W12446   8.123   8.471   8.548  0.1035 -0.2634  0.0292
 8247W        W12447   6.274   0.046   1.207  0.0473  0.1513 -0.3114
 8248W        W12448   6.865   4.430  13.132  0.1145  0.2937  0.2469
 8249W        W12449   3.257   7.613  12.588  0.2619 -0.0415 -0.2861
 8250W        W12450   0.118   7.274   3.839 -0.1240  0.0463 -0.3720
 8251W        W12451   7.421   9.829   0.896  0.2669 -0.3068  0.1993
 8252W        W12452   3.346   9.812   2.789  0.1460  0.0319  0.0893
 8253W        W12453   6.162   8.637  11.806 -0.0571  0.2187  0.1018
 8254W        W12454   4.453   0.501  10.157  0.2572 -0.2106 -0.0584
 8255W        W12455   0.605   5.189   1.653 -0.0245 -0.0254 -0.1000
 8256W        W12456   1.295   4.405   1.808 -0.0370 -0.0358 -0.0349
 8257W        W12457   9.995   3.498   4.128  0.1224  0.0900 -0.1450
 8258W        W12458   3.931   1.647   0.165 -0.1867  0.0269  0.3014
 8259W        W12459   3.822   9.749   9.706 -0.3152 -0.4261  0.2968
 8260W        W12460   0.471   4.851   0.576  0.0941  0.0068  0.0480
 8261W        W12461   7.181   7.405   3.128 -0.1423 -0.1798 -0.2144
 8262W        W12462  10.379   8.041   8.906  0.1757  0.2326  0.0804
 8263W        W12463   3.562   7.617   0.071  0.0805 -0.0208  0.0416
 8264W        W12464   0.655   4.597   8.871  0.2406  0.1710 -0.0738
 8265W        W12465   6.312   0.215   2.346  0.1576  0.1343 -0.0843
 8266W        W12466  10.484   5.938   1.520  0.5122 -0.0870  0.1888
 8267W        W12467   3.156   2.790   0.357 -0.1273  0.1709 -0.4192
 8268W        W12468  10.139   8.831  12.297 -0.6352 -0.1350 -0.1363
 8269W        W12469   9.730   8.752  11.792  0.1363  0.0305  0.0287
 8270W        W12470   6.197   0.886   9.335  0.0304  0.0621  0.0579
 8271W        W12471   4.924   6.222  11.837 -0.0839  0.2506 -0.0966
 8272W        W12472   6.732   9.713  13.108 -0.0178 -0.2078 -0.0680
 8273W        W12473   8.107   8.533   0.061 -0.0500  0.1088 -0.2308
 8274W        W12474  10.253   3.573   5.365  0.4811 -0.2152  0.0409
 8275W        W12475   8.917   5.501   0.842 -0.1166 -0.1242  0.0094
 8276W        W12476   4.467   7.097   9.568  0.1569 -0.0629  0.1144
 8277W        W12477   5.653   8.347  11.449  0.0869 -0.3796 -0.1254
 8278W        W12478   9.336   3.520   4.077  0.2422 -0.1595  0.1120
 8279W        W12479   4.066   5.858   9.357  0.0612 -0.1394  0.0616
 8280W        W12480   4.219   2.038   1.663  0.1617  0.0213 -0.0994
 8281W        W12481   6.625   8.072   9.488  0.2202 -0.1063  0.2149
 8282W        W12482   2.148   0.420  10.584 -0.0523  0.0584 -0.3039
 8283W        W12483   0.889   1.505   3.194  0.0722 -0.1377 -0.1717
 8284W        W12484   3.766   5.443   9.317 -0.1667 -0.0628  0.2065
 8285W        W12485   7.671   8.288  11.003  0.0577  0.0735  0.0046
 8286W        W12486   7.462   4.368   0.391 -0.0702 -0.3893 -0.0928
 8287W        W12487   6.147   4.272  11.586  0.0780  0.2403  0.2756
 8288W        W12488  10.062   7.516   5.101  0.0151 -0.2208  0.0592
 8289W        W12489   6.077   7.875   1.222  0.1410  0.3091 -0.3370
 8290W        W12490   5.355   1.393   1.884 -0.1197  0.0337  0.1714
 8291W        W12491   4.651   9.822   1.542  0.1073  0.2223  0.1702
 8292W        W12492   3.424   8.357   9.448 -0.1565 -0.0072 -0.0257
 8293W        W12493   2.060   6.044   9.999 -0.1103 -0.0852  0.0465
 8294W        W12494   9.078  10.495   9.340  0.0904  0.1924 -0.1137
 8295W        W12495   5.426   9.481  12.737 -0.1147 -0.0668  0.1636
 8296W        W12496  10.375   9.227   9.870 -0.1187 -0.2398 -0.0546
 8297W        W12497   4.202   8.641  10.494 -0.2054 -0.2597  0.2798
 8298W        W12498   6.960   1.085   0.894 -0.2769 -0.2531 -0.3045
 8299W        W12499   8.606   1.270  13.015  0.1227  0.3808 -0.0364
 8300W        W12500   1.817   1.624   9.548  0.0598  0.1421  0.1128
 8301W        W12501   5.767   0.250   1.361 -0.1325 -0.2317 -0.0627
 8302W        W12502   5.905   0.051   0.373 -0.0418 -0.3155  0.2084
 8303W        W12503   5.309   8.929  12.784  0.2138  0.1221 -0.0666
 8304W        W12504   4.194   3.433  11.417 -0.0722  0.2667 -0.0834
 8305W        W12505   4.495   2.303  11.609 -0.1380  0.0662  0.1050
 8306W        W12506   7.628   8.052   9.751 -0.0007 -0.3269  0.2598
 8307W        W12507   0.957   5.974   2.627  0.1295  0.0737 -0.2202
 8308W        W12508   5.543   3.165   1.037  0.0976 -0.3487  0.0063
 8309W        W12509   8.668   3.647   2.990  0.1452  0.2852 -0.0844
 8310W        W12510   7.793   3.809   2.249  0.1072  0.1280 -0.0493
 8311W        W12511   5.312   0.916  10.127  0.0717  0.1101 -0.0603
 8312W        W12512   9.630   6.140   2.892 -0.1772 -0.5577  0.2332
 8313W        W12513   6.731   1.886  12.401  0.1310 -0.1222  0.2207
 8314W        W12514   2.810   9.314  11.223  0.1163 -0.2991 -0.1858
 8315W        W12515   7.046   9.594   9.473 -0.0757  0.1806 -0.1386
 8316W        W12516   4.497   2.937   2.936  0.0227  0.3194 -0.1498
 8317W        W12517   7.114   2.918   2.933  0.1016  0.1456 -0.0878
 8318W        W12518   1.343   1.013   2.648 -0.0810 -0.0465  0.2056
 8319W        W12519   0.348   6.522  13.251 -0.2113  0.1212  0.2150
 8320W        W12520   3.355   0.851  11.747 -0.1538  0.1743 -0.0853
 8321W        W12521   8.456   5.769   1.758  0.0065  0.0283 -0.0563
 8322W        W12522  10.423   1.442  12.368 -0.2300  0.2066  0.2359
 8323W        W12523   7.971   9.552  12.554 -0.0431  0.0590  0.1138
 8324W        W12524   7.647   2.446   1.286  0.0068  0.3600  0.0207
 8325W        W12525   7.518   0.872   9.266  0.0327 -0.1528 -0.2549
 8326W        W12526   5.307   8.651   9.231 -0.1343 -0.1813  0.2745
 8327W        W12527   2.109   8.300  12.847  0.0141 -0.0158  0.0422
 8328W        W12528   8.979   7.625   1.322 -0.0152 -0.1064 -0.1445
 8329W        W12529   8.657   2.179  12.881 -0.1436  0.1979 -0.0833
 8330W        W12530   0.858   9.365  12.206 -0.0082 -0.0135 -0.0224
 8331W        W12531   6.051   8.007   4.481 -0.1310  0.1302  0.0149
 8332W        W12532   0.066   5.256   0.340 -0.2655 -0.0110  0.2189
 8333W        W12533   6.892   5.643   0.894  0.1971  0.0409  0.2396
 8334W        W12534   8.771   3.364   9.168  0.2961  0.1680  0.2673
 8335W        W12535   2.696   9.452   1.618 -0.1602 -0.3861 -0.0112
 8336W        W12536   8.507   9.843  10.439 -0.0301 -0.3255  0.4815
 8337W        W12537   7.100   1.775   2.820  0.1121  0.2232  0.4687
 8338W        W12538   9.340   7.977  10.816 -0.1019 -0.1058  0.0364
 8339W        W12539   1.017   5.114   2.362  0.3211 -0.2773  0.0601
 8340W        W12540   1.926   6.603  13.159 -0.0388 -0.0658 -0.0186
 8341W        W12541  10.299   6.583   3.067  0.0385 -0.0192 -0.1885
 8342W        W12542   2.526   6.903  12.980  0.1365  0.2150 -0.2718
 8343W        W12543   6.775   1.732  11.409  0.0308  0.1074  0.0455
 8344W        W12544   7.400   6.017   2.780 -0.1290  0.1582 -0.4899
 8345W        W12545   9.440   3.142   1.284 -0.0050 -0.0796  0.1783
 8346W        W12546   4.789   4.471   0.540  0.0756  0.0309  0.1880
 8347W        W12547   6.929   7.075   2.707 -0.3035 -0.2263  0.0540
 8348W        W12548   8.749   7.565   9.223 -0.0973  0.3237 -0.0916
 8349W        W12549   2.330   0.886   8.894 -0.0648 -0.2549 -0.2947
 8350W        W12550   7.439   0.917   0.506  0.1168 -0.0439 -0.2968
 8351W        W12551   9.122   5.877  10.584  0.0145  0.1003 -0.0371
 8352W        W12552  10.400   1.342  10.448 -0.0153 -0.1214  0.3134
 8353W        W12553   2.827   5.713   3.166  0.0532 -0.1650  0.0395
 8354W        W12554   0.146   4.748   9.090  0.2137  0.2550  0.0696
 8355W        W12555   7.878   2.233   0.867 -0.0234  0.1196 -0.1087
 8356W        W12556   5.652   5.076   1.143 -0.2584  0.2433 -0.0385
 8357W        W12557   6.623   8.775  12.933  0.1043  0.0498 -0.7562
 8358W        W12558   5.839   5.243   0.130 -0.1938  0.0462 -0.2467
 8359W        W12559   5.359   1.263  11.136 -0.2696 -0.0159 -0.0701
 8360W        W12560   0.689   1.060  10.130 -0.0676  0.2077 -0.1901
 8361W        W12561   6.329   3.639   9.894  0.1989  0.2457 -0.0857
 8362W        W12562   7.845   2.928   9.772 -0.1829 -0.1375 -0.0964
 8363W        W12563   5.601   7.460   2.030  0.1184  0.6582 -0.0529
 8364W        W12564   5.548   9.087   0.427  0.1744 -0.0122  0.2699
 8365W        W12565   7.813   0.034   4.445 -0.0006  0.0455 -0.2309
 8366W        W12566  10.282   7.417   1.530  0.2307 -0.0543 -0.0166
 8367W        W12567   4.883   9.060   3.148 -0.4096 -0.0621 -0.0736
 8368W        W12568   3.055   7.252  10.075 -0.0945  0.0815 -0.0197
 8369W        W12569   5.809   9.023   3.793  0.1530 -0.0063 -0.2504
 8370W        W12570   1.255   6.197   2.146 -0.1517  0.4738 -0.0995
 8371W        W12571   2.568   9.481   3.660 -0.1661  0.0639  0.2345
 8372W        W12572   7.315   8.349   3.507  0.2773 -0.4200  0.2558
 8373W        W12573   7.473   1.246  12.481  0.3794  0.0324  0.0828
 8374W        W12574   3.562   3.258   2.944  0.1901  0.1918  0.0947
 8375W        W12575   1.757   4.486  10.152 -0.0485 -0.1225  0.0634
 8376W        W12576   5.189   7.896  10.643 -0.0770  0.0421 -0.0838
 8377W        W12577   2.958   5.315  12.459 -0.1302 -0.0566 -0.0907
 8378W        W12578   1.295   1.034   4.447  0.2511 -0.0329  0.0587
 8379W        W12579   1.564   9.310  10.234 -0.1279 -0.0244  0.0272
 8380W        W12580  10.302   0.760   2.525  0.2338 -0.0680 -0.4242
 8381W        W12581   0.801   8.396  12.196 -0.2203 -0.1372  0.0427
 8382W        W12582   6.990   0.376   0.158 -0.1156  0.1075 -0.0155
 8383W        W12583   7.538   8.366  13.143  0.1286 -0.3117  0.0474
 8384W        W12584   0.912   3.709   9.085 -0.3563  0.0739  0.0210
 8385W        W12585   4.286   6.355  10.161 -0.2133 -0.1401  0.0430
 8386W        W12586   9.327   7.014  10.852 -0.2681 -0.0344 -0.1928
 8387W        W12587   1.159   7.178  12.713  0.2918 -0.0632  0.2073
 8388W        W12588   0.880   6.030  11.512  0.1303 -0.1321 -0.0615
 8389W        W12589   8.155   4.987  10.639 -0.2602 -0.2573 -0.4382
 8390W        W12590   0.577   0.412   1.217  0.0088 -0.3008  0.0485
 8391W        W12591   3.343   2.679   9.512 -0.2157 -0.0515 -0.3074
 8392W        W12592   2.547   3.016  11.018 -0.5380 -0.0175 -0.0165
 8393W        W12593   1.139   0.595   2.993 -0.1123 -0.0254  0.3456
 8394W        W12594   5.565   6.255  11.379  0.1375  0.1190 -0.1455
 8395W        W12595   8.027  10.013   3.583  0.1774  0.0493 -0.0189
 8396W        W12596   3.606   5.210  13.103  0.0635  0.2586  0.0121
 8397W        W12597   6.385   2.244   8.727 -0.0153 -0.0571  0.1439
 8398W        W12598   4.701   1.535   0.495  0.0288  0.0923  0.0842
 8399W        W12599   6.342   9.991   1.867  0.1244 -0.1670 -0.0578
 8400W        W12600   9.964   1.021   9.811  0.0351  0.2145  0.1003
 8401W        W12601   0.171   8.385  10.911  0.0458  0.0477  0.0641
 8402W        W12602   9.002   7.627   2.804  0.1930 -0.0916 -0.2146
 8403W        W12603   9.723   4.509   3.018  0.1983  0.1048  0.0773
 8404W        W12604  10.339   0.244   2.587  0.0154 -0.3446 -0.1000
 8405W        W12605   1.497   7.675   0.604 -0.0460 -0.1331 -0.0157
 8406W        W12606   4.947   8.247   9.332 -0.1655  0.2527  0.0624
 8407W        W12607  10.176   7.454  10.649 -0.0960  0.2646 -0.2542
 8408W        W12608   5.546   0.260   1.863  0.0457 -0.0990  0.1593
 8409W        W12609   6.568   5.630   4.821  0.1290  0.1033 -0.1652
 8410W        W12610   0.471   0.853   1.924  0.2077  0.0132 -0.0074
 8411W        W12611   7.579   2.910  10.168 -0.1466 -0.1466 -0.1167
 8412W        W12612   4.958   1.570  11.150  0.0521  0.0097  0.1783
 8413W        W12613   4.512   7.149   3.573 -0.0182  0.0569  0.1393
 8414W        W12614   5.743   0.195   3.261 -0.2889 -0.3014 -0.0046
 8415W        W12615   5.920   1.887   0.711 -0.0161  0.0971 -0.1237
 8416W        W12616  10.489   6.929   3.505  0.2052 -0.0399  0.0334
 8417W        W12617   7.168   8.090  13.325  0.3801  0.0268 -0.0366
 8418W        W12618   8.450   6.252  11.923 -0.0088  0.2754  0.0668
 8419W        W12619   2.984   6.038  12.492  0.0709  0.1884  0.0328
 8420W        W12620   4.431   9.013   1.485 -0.2784  0.1638 -0.0702
 8421W        W12621   8.684   2.641  12.694 -0.1189  0.3388 -0.0055
 8422W        W12622   4.691   6.984   2.219 -0.0622  0.3356 -0.0932
 8423W        W12623   1.138   8.126  11.365 -0.0107 -0.0015 -0.0062
 8424W        W12624   8.520   8.505   1.596 -0.2243  0.3020  0.1665
 8425W        W12625   8.819   2.210   3.202  0.0651 -0.0647 -0.3691
 8426W        W12626   1.362   6.919   4.252  0.1109 -0.1096  0.1407
 8427W        W12627   6.844   4.108   3.121  0.1737 -0.0863 -0.0618
 8428W        W12628   1.113   9.344   1.930 -0.1780  0.0411 -0.0761
 8429W        W12629   0.347   2.779  11.981  0.2112 -0.1735 -0.0862
 8430W        W12630   6.143   3.031  10.889  0.0175  0.0609  0.1636
 8431W        W12631   1.508   8.934   9.328 -0.0717  0.0859  0.3189
 8432W        W12632   6.984   3.713  11.220  0.0275  0.0607 -0.1969
 8433W        W12633  10.162   2.381  10.475 -0.0655 -0.0578 -0.2845
 8434W        W12634   0.861   3.675   1.137 -0.1066 -0.0907 -0.3866
 8435W        W12635   5.194   6.030   8.111  0.0724  0.4391 -0.1023
 8436W        W12636   7.335   3.227   2.625 -0.2063 -0.2773 -0.0941
 8437W        W12637  10.004   4.670   9.461 -0.2908 -0.5769 -0.0523
 8438W        W12638   8.174   0.937  10.600  0.0172  0.0962 -0.3448
 8439W        W12639   9.194   2.824  10.425 -0.2022  0.1469  0.2881
 8440W        W12640   8.526   2.160   5.562  0.1792  0.5685 -0.1750
 8441W        W12641   8.756   9.263  12.091  0.0022 -0.0548  0.2070
 8442W        W12642   0.138   6.721   0.256 -0.0003  0.0054 -0.3376
 8443W        W12643   4.926   2.537   1.572  0.0044 -0.2809 -0.0643
 8444W        W12644  10.460   6.646  12.607  0.1099  0.1880 -0.2716
 8445W        W12645  10.354   6.171  10.919  0.1349 -0.1902  0.2295
 8446W        W12646   6.063   6.433   9.194  0.1477 -0.0676 -0.1256
 8447W        W12647   3.135   5.572   1.427  0.1402  0.1037 -0.2690
 8448W        W12648   2.051   3.368   9.424 -0.1949  0.1737 -0.1553
 8449W        W12649   8.753   4.620   3.316  0.1657  0.0559  0.0753
 8450W        W12650   3.575   7.923   1.456 -0.1760  0.0759 -0.1708
 8451W        W12651   0.084   5.308  10.513 -0.0293  0.0080 -0.1902
 8452W        W12652   4.411   7.063  13.301 -0.1433 -0.0232 -0.0839
 8453W        W12653  10.360   0.406   2.082 -0.1319  0.1837  0.0829
 8454W        W12654   1.369   0.409  12.711  0.1552  0.3391 -0.0861
 8455W        W12655   9.794   2.937   1.615 -0.3526  0.3469 -0.0768
 8456W        W12656   4.834   6.655   2.598  0.0104 -0.2032  0.0311
 8457W        W12657   6.499   2.360  12.503  0.0060  0.1162 -0.4031
 8458W        W12658   4.042   1.817  11.023 -0.0962 -0.1128  0.0704
 8459W        W12659   3.734   7.146   3.824  0.0581 -0.0727  0.0666
 8460W        W12660   0.901   1.756   1.883  0.2956  0.2674 -0.0377
 8461W        W12661   2.587   9.578   2.106 -0.0352 -0.1615 -0.0463
 8462W        W12662   5.585   5.661   2.885 -0.2543  0.0519  0.0192
 8463W        W12663   8.803   3.561  11.318  0.3525 -0.0954 -0.1491
 8464W        W12664   5.424   6.383  11.886  0.1076  0.0209  0.3338
 8465W        W12665   2.493   4.756   2.405  0.0337 -0.0038  0.1384
 8466W        W12666   2.011   5.339  12.069 -0.1526 -0.1916  0.1078
 8467W        W12667   2.828   5.927  10.157  0.2594  0.0484 -0.0591
 8468W        W12668   4.747   2.013  11.207 -0.0975  0.4772  0.1570
 8469W        W12669   1.130   0.245   1.114  0.1622 -0.2415 -0.0894
 8470W        W12670   2.383   5.816   1.509  0.3990 -0.2869  0.0827
 8471W        W12671  10.275   9.274   1.465  0.4289  0.2307 -0.0673
 8472W        W12672   4.538   0.771  10.596 -0.2976 -0.1935 -0.1461
 8473W        W12673   7.878   9.890   9.893  0.1037 -0.3015 -0.0767
 8474W        W12674   0.725   7.718   0.907 -0.2193  0.0280  0.1141
 8475W        W12675   2.199   9.214  11.061 -0.0806 -0.2350 -0.1105
 8476W        W12676   5.207   7.295   5.025 -0.0808  0.0236 -0.1433
 8477W        W12677   0.528   2.432   3.558 -0.2087 -0.1472 -0.1907
 8478W        W12678   6.208   9.867   4.205  0.2453 -0.1204 -0.1653
 8479W        W12679   0.400   4.879  10.532 -0.2040  0.4014  0.1720
 8480W        W12680   7.131   5.057  10.008 -0.2729 -0.0553 -0.1561
 8481W        W12681   5.651   3.036  11.001 -0.1815  0.0392  0.1762
 8482W        W12682   0.422   3.415   1.172 -0.1437  0.0672 -0.0597
 8483W        W12683   8.790   5.348   9.740  0.2522  0.2429 -0.3090
 8484W        W12684   6.310   5.475  12.719  0.1670  0.0285  0.1584
 8485W        W12685   2.724   3.240   3.281  0.3744  0.0358  0.1026
 8486W        W12686   1.237  10.164   3.822  0.0095 -0.0599  0.1970
 8487W        W12687   6.978   1.362  10.160  0.1414  0.0518  0.1568
 8488W        W12688   6.529   3.296   3.350  0.1707  0.2173 -0.0573
 8489W        W12689   7.196   9.278   9.096 -0.1713 -0.1714 -0.1322
 8490W        W12690   8.817   3.644  11.883  0.0741 -0.2290 -0.1976
 8491W        W12691   4.423   3.165   9.149  0.0978 -0.2185  0.2052
 8492W        W12692   2.757   2.142   1.008 -0.2121  0.0295  0.0271
 8493W        W12693   6.828   9.859   1.085 -0.4284 -0.1615  0.0711
 8494W        W12694   8.710   6.876   2.599  0.1916 -0.0971  0.1760
 8495W        W12695   1.155   9.259   9.537  0.2669  0.2602  0.3245
 8496W        W12696   1.989   0.825   8.488  0.1900 -0.1333  0.0660
 8497W        W12697   2.893   1.885   3.236  0.0876 -0.2000 -0.1759
 8498W        W12698   1.422   9.737   9.619 -0.1573 -0.0570 -0.0898
 8499W        W12699   8.125   2.111   0.447 -0.2733  0.0464  0.0993
 8500W        W12700   6.289   0.071   3.174  0.1056  0.0176 -0.0582
 8501W        W12701   1.936   4.106   3.955 -0.0914  0.0467 -0.1819
 8502W        W12702   7.553   3.153   3.110  0.2517  0.1019  0.0948
 8503W        W12703   9.776   4.978   0.377  0.1490  0.0178 -0.1256
 8504W        W12704   5.941   7.372  12.001 -0.1295  0.1422 -0.3282
 8505W        W12705   5.814   3.698   0.934  0.0595 -0.0575  0.2366
 8506W        W12706   8.275   3.343  10.493  0.0001 -0.0165  0.0542
 8507W        W12707   4.564   7.097   1.785  0.0840  0.1077 -0.2089
 8508W        W12708   2.193  10.273   4.082 -0.0070  0.1109  0.0861
 8509W        W12709   6.283   2.225   1.118  0.2076  0.1279 -0.1108
 8510W        W12710   9.198   9.317  11.330 -0.0844 -0.2463 -0.2401
 8511W        W12711   1.699   1.538  12.685 -0.0202  0.0973 -0.3630
 8512W        W12712   3.192   1.141  12.111  0.1231  0.0706 -0.1490
 8513W        W12713   9.479   6.242  10.238  0.0678 -0.2365  0.0856
 8514W        W12714   7.466   3.245   9.766  0.1563  0.1449  0.0311
 8515W        W12715   7.457   8.658  12.777 -0.1450  0.0307 -0.0447
 8516W        W12716   7.243   6.153   0.008 -0.0413  0.2760 -0.0905
 8517W        W12717   4.623   8.466  11.835 -0.0940 -0.3403 -0.1570
 8518W        W12718   7.718   8.778  10.662  0.0358  0.0461  0.1370
 8519W        W12719   2.775   0.152  12.184  0.0066  0.2105 -0.0265
 8520W        W12720   8.689   3.999  11.078  0.1649  0.1687 -0.1380
 8521W        W12721   8.958   1.393   1.388  0.2271 -0.0205 -0.1218
 8522W        W12722   8.076   5.144   1.330  0.0799  0.0599  0.1109
 8523W        W12723   2.456   3.296  10.592  0.1179 -0.2107 -0.0171
 8524W        W12724  10.267   0.889   0.116  0.0874  0.0550 -0.1422
 8525W        W12725   5.335   7.019  10.151 -0.0844  0.4152 -0.0217
 8526W        W12726   7.230   0.669   1.514 -0.0774 -0.0028  0.2958
 8527W        W12727   1.243   1.919  11.552 -0.1041  0.1454 -0.1439
 8528W        W12728   0.209   2.934   3.457  0.0145 -0.1073 -0.0852
 8529W        W12729   5.762   8.577   9.630 -0.2251  0.2535  0.1327
 8530W        W12730   7.214   1.119   0.117  0.0262 -0.0118 -0.1589
 8531W        W12731   6.533   9.319  12.012  0.0867 -0.3006 -0.0021
 8532W        W12732   9.610   2.744   9.988 -0.5136  0.0642 -0.2135
 8533W        W12733   3.053   8.656   0.713 -0.0370  0.1215 -0.0770
 8534W        W12734   8.935   8.914   3.201 -0.1656 -0.1126  0.1407
 8535ION    NA+12735   0.132   5.059   1.911 -0.0812 -0.0665 -0.3390
 8536ION    NA+12736   5.414   4.746   4.871 -0.0194 -0.0691  0.3262
 8537ION    NA+12737  10.221  10.052   4.652  0.1724  0.0946  0.0511
 8538ION    NA+12738   8.645   7.252   2.880 -0.2172  0.1793  0.2038
 8539ION    NA+12739  10.165   3.379  12.788  0.0588  0.1889 -0.0106
 8540ION    NA+12740   7.319   1.837   1.983  0.1235 -0.0988  0.3551
 8541ION    NA+12741  10.240   6.412   4.033  0.2378  0.0969 -0.1889
 8542ION    NA+12742   2.146   5.862  11.071  0.1009  0.0738 -0.0027
 8543ION    NA+12743   7.489   4.834  11.301 -0.1498  0.2366  0.0058
 8544ION    NA+12744   2.786   5.543   9.834 -0.1598  0.1043  0.0841
 8545ION    NA+12745   9.787   2.135   1.875  0.2339  0.0531  0.2414
 8546ION    NA+12746   1.027   9.923   8.462  0.0255  0.0218  0.0365
 8547ION    NA+12747   8.235   4.042   2.023  0.1054  0.0525 -0.1381
 8548ION    NA+12748   0.506   3.387   3.552  0.2388  0.1284  0.1181
 8549ION    NA+12749   8.138   6.543  13.243  0.0993 -0.2220 -0.4019
 8550ION    NA+12750   4.384   9.632  12.833  0.0615 -0.0497  0.2488
 8551ION    NA+12751  10.128   2.274   2.953  0.1649  0.2397  0.2439
 8552ION    NA+12752   1.655   4.764   1.920  0.2217 -0.0151  0.0688
 8553ION    NA+12753   8.978   0.666   3.759  0.0344  0.1623 -0.3654
 8554ION    NA+12754   0.022   8.035  11.879 -0.2111  0.2127 -0.1467
 8555ION    NA+12755   0.924   8.803   1.964 -0.1561 -0.2420  0.3409
 8556ION    NA+12756   4.128   1.377   3.879  0.2151  0.2836 -0.3802
 8557ION    NA+12757   2.457   2.799   2.243 -0.2044  0.0273  0.1131
 8558ION    NA+12758   2.330   6.177   1.156 -0.2301  0.0622  0.0157
 8559ION    NA+12759   6.930   0.657   0.649 -0.1610  0.3091 -0.0924
 8560ION    NA+12760   4.860   3.708   1.371 -0.0691 -0.3740 -0.0470
 8561ION    NA+12761   0.573   7.530   3.258  0.0570 -0.3356 -0.0417
 8562ION    NA+12762   2.433   5.191  12.355 -0.2825  0.2301 -0.1625
 8563ION    NA+12763   8.286   3.103   4.643  0.0629 -0.0907 -0.0540
 8564ION    NA+12764   2.882   3.832   9.918  0.2508 -0.2607  0.2198
 8565ION    NA+12765   8.030   5.100  12.136  0.0461 -0.5743 -0.1369
 8566ION    NA+12766   3.476   9.352   9.693  0.0916 -0.0852 -0.2085
 8567ION    NA+12767   1.714   2.601   9.994 -0.0828 -0.2567 -0.3784
 8568ION    NA+12768   0.452   8.945   8.382  0.1892  0.1709  0.0060
 8569ION    NA+12769   6.247   2.505   0.144  0.1343  0.1677  0.0366
 8570ION    NA+12770   2.143   9.922   8.740 -0.1785 -0.0565  0.0802
 8571ION    NA+12771   9.781   9.996   3.598  0.2388 -0.1107  0.0776
 8572ION    NA+12772   0.410   2.110   9.524 -0.0733 -0.2047 -0.4413
 8573ION    NA+12773   3.067   3.076  11.653 -0.2395 -0.1816 -0.1460
 8574ION    NA+12774   8.416   3.135   2.439  0.0462  0.1138 -0.1307
 8575ION    NA+12775   4.406  10.352   3.601  0.3869 -0.2984  0.4749
 8576ION    NA+12776   5.886  10.428   9.357 -0.2310  0.0818  0.1855
 8577ION    NA+12777   5.031   7.049  11.110  0.1303  0.2504 -0.0056
 8578ION    NA+12778   0.136   4.492   4.821 -0.0306 -0.0598 -0.0899
 8579ION    NA+12779   2.465   1.704  13.044  0.1254 -0.0816 -0.2419
 8580ION    NA+12780   9.696   8.315   9.574  0.1563  0.1724  0.1593
 8581ION    NA+12781   0.930   3.762   2.852 -0.0659  0.0016 -0.1554
 8582ION    NA+12782   2.126   4.161   0.184  0.1638 -0.0325  0.2629
 8583ION    NA+12783   1.747   5.253   3.330  0.1445 -0.1506  0.0558
 8584ION    NA+12784   1.358   3.388   8.274  0.0429 -0.2349 -0.1012
 8585ION    NA+12785   7.789   4.729  12.890 -0.0343 -0.1534 -0.2636
 8586ION    NA+12786   0.241   0.547   4.444 -0.0701 -0.0010 -0.1733
 8587ION    NA+12787   2.451   3.673   4.503  0.0418 -0.1904  0.0530
 8588ION    NA+12788   9.267  10.186   4.815 -0.0827 -0.1698  0.1077
 8589ION    NA+12789   1.680   2.912   3.103  0.0090  0.0990 -0.0850
 8590ION    NA+12790   4.895   3.985   0.187  0.0447  0.0333 -0.4897
 8591ION    NA+12791   9.545   6.459   9.777 -0.4898  0.0420  0.2001
 8592ION    NA+12792   4.790  10.174   9.839  0.0828  0.1009 -0.0604
 8593ION    NA+12793   2.657   1.055   1.877 -0.2421 -0.0305 -0.1202
 8594ION    NA+12794   4.174   2.884  11.340 -0.0556  0.2065 -0.1353
 8595ION    NA+12795  10.183   3.804   8.438  0.0542  0.0909 -0.2702
 8596ION    NA+12796   8.915   6.999  10.438 -0.0909 -0.2210  0.1728
 8597ION    NA+12797   2.124   7.342   8.291  0.0082 -0.0710  0.0314
 8598ION    NA+12798  10.218   5.517  10.099 -0.0222 -0.0011  0.3542
 8599ION    NA+12799   8.105   8.292  10.783 -0.2791 -0.0177 -0.0677
 8600ION    NA+12800   1.879   4.227   2.987  0.0389  0.1762  0.0936
 8601ION    NA+12801   8.275   5.807  12.773  0.4008 -0.3613  0.0739
 8602ION    NA+12802   1.529   7.867   3.515  0.0265  0.2140 -0.0222
 8603ION    NA+12803   2.963   3.729   3.912  0.1086 -0.0744 -0.3296
 8604ION    NA+12804  10.107   9.557  12.350  0.2191 -0.0421 -0.1796
 8605ION    NA+12805   0.109   2.629   8.361  0.0430  0.1061  0.0673
 8606ION    NA+12806   0.063   1.260   2.425 -0.0189 -0.0957  0.0879
 8607ION    NA+12807   6.751   9.132   4.490  0.2615 -0.0598  0.1034
 8608ION    NA+12808   2.781   1.534   2.825 -0.3879 -0.0409 -0.0654
 8609ION    NA+12809   4.699   7.765  10.539  0.2477  0.1119  0.0844
 8610ION    NA+12810   7.563   2.794   2.428  0.0987 -0.0712 -0.1405
 8611ION    NA+12811   6.812   9.280   8.754 -0.1219  0.3781  0.0155
 8612ION    NA+12812   4.895   9.612   2.072  0.1709  0.1657 -0.0560
 8613ION    NA+12813   5.518   0.357   9.310  0.0467 -0.0330 -0.3066
 8614ION    NA+12814   0.147   9.031   3.603  0.2209 -0.0100 -0.3479
 8615ION    NA+12815   5.036   3.746   8.682 -0.0764 -0.1179  0.1279
 8616ION    NA+12816   6.118   1.698   3.689 -0.0850  0.0566 -0.0676
 8617ION    NA+12817  10.262   8.279   2.992 -0.1231  0.2264  0.1924
 8618ION    NA+12818  10.209   6.615   8.498  0.0360 -0.0728 -0.1184
 8619ION    NA+12819   9.897   5.756   2.321  0.1495 -0.0237 -0.1447
 8620ION    NA+12820   2.731   2.987  13.137  0.1418 -0.2472 -0.0136
 8621ION    NA+12821  10.375   4.682  11.268  0.2482  0.0343 -0.1583
 8622ION    NA+12822   7.764   0.799  10.295 -0.4421 -0.0188 -0.0350
 8623ION    NA+12823   1.613   9.673  12.697  0.0940  0.0708 -0.0803
 8624ION    NA+12824   2.621   1.168   0.599  0.0698 -0.0065 -0.0332
 8625ION    CL-12825   4.386   3.622   1.534  0.3662  0.1528 -0.0376
 8626ION    CL-12826   1.776   7.903   9.044  0.1068  0.1558  0.2973
 8627ION    CL-12827   3.145   1.187   1.960  0.1445 -0.0444  0.0850
 8628ION    CL-12828   8.373   5.290  12.516  0.0149  0.0754  0.3995
 8629ION    CL-12829   1.983   6.167  12.367 -0.2002 -0.0611 -0.2159
 8630ION    CL-12830   1.690   0.068   9.126 -0.0918  0.1753 -0.2672
 8631ION    CL-12831   8.167   6.004  13.216  0.0660  0.0965 -0.3034
 8632ION    CL-12832   6.431   4.416  12.475 -0.0700 -0.0610  0.0759
 8633ION    CL-12833   9.399   7.072  10.281 -0.0314  0.0025  0.1437
 8634ION    CL-12834   5.667   1.920   3.866  0.1908 -0.2560 -0.2320
 8635ION    CL-12835   2.377   2.864   0.781 -0.0410  0.0137  0.1978
 8636ION    CL-12836   0.564   7.291   2.857  0.1647  0.0161 -0.1381
 8637ION    CL-12837   7.239   2.580   2.074 -0.2804  0.2206 -0.0980
 8638ION    CL-12838   8.457   2.704   2.146  0.0589  0.2104 -0.0691
 8639ION    CL-12839   7.729   3.538   2.835  0.0417 -0.4171  0.0895
 8640ION    CL-12840   1.292   5.389   3.300  0.1070 -0.1683  0.0848
 8641ION    CL-12841   4.301   9.854   0.259 -0.0966 -0.0193 -0.0156
 8642ION    CL-12842   8.164  10.431   9.247 -0.0041 -0.0120 -0.1206
 8643ION    CL-12843   7.352   4.914  12.761 -0.3091 -0.1239 -0.0313
 8644ION    CL-12844   3.072   3.460  13.025  0.1278  0.0381  0.2155
 8645ION    CL-12845  10.158   8.662   3.906  0.1612 -0.0953 -0.0292
 8646ION    CL-12846   9.063   9.378   4.853  0.1601 -0.3333 -0.1766
 8647ION    CL-12847   8.400   2.127   3.478  0.1933 -0.1812 -0.0616
 8648ION    CL-12848   0.783   3.657  12.088 -0.0533 -0.0479  0.1446
 8649ION    CL-12849   0.250   4.285   9.034 -0.0967  0.2169 -0.0541
 8650ION    CL-12850   8.897   6.830   3.070 -0.4012  0.0702 -0.1350
 8651ION    CL-12851   4.451   3.757   0.209 -0.2548 -0.1595 -0.0534
 8652ION    CL-12852   0.810   7.616   4.264 -0.2671  0.1055 -0.2492
 8653ION    CL-12853   8.302   8.995  13.360 -0.0404 -0.0854  0.0146
 8654ION    CL-12854   5.067   7.525   4.113  0.3242 -0.1848  0.2653
 8655ION    CL-12855   2.267   1.766   3.251  0.2462 -0.0180 -0.0547
 8656ION    CL-12856   7.010   1.509   2.225  0.3366  0.0686  0.0560
 8657ION    CL-12857   4.434   9.176  12.524  0.0628 -0.1477  0.0704
 8658ION    CL-12858   3.165   0.232  12.662  0.4465  0.2823 -0.0843
 8659ION    CL-12859   0.008   2.403   0.562 -0.0288 -0.4640 -0.0489
 8660ION    CL-12860   6.396   2.892   9.577 -0.0238 -0.1466  0.4238
 8661ION    CL-12861   1.302   9.706  10.519 -0.2180 -0.0504 -0.0164
 8662ION    CL-12862   3.842   2.986  11.684  0.1012 -0.3736  0.2835
 8663ION    CL-12863   8.126   3.511   1.981  0.2159  0.0259 -0.0657
 8664ION    CL-12864  10.228   5.414   2.116 -0.2400  0.2343 -0.2026
 8665ION    CL-12865   1.108   3.331   2.808  0.1686  0.0384  0.0039
 8666ION    CL-12866   9.454   4.789   4.048  0.2249 -0.0460 -0.3659
 8667ION    CL-12867   6.783   0.994   0.285 -0.0549 -0.2495 -0.2469
 8668ION    CL-12868   9.320   4.943   2.265 -0.2120  0.0746  0.3154
 8669ION    CL-12869   0.981   8.355   3.956 -0.0551  0.0696  0.0368
 8670ION    CL-12870   9.386   4.741   9.339  0.0719 -0.4193 -0.2071
 8671ION    CL-12871   1.304   7.777   3.029 -0.0698  0.1380 -0.1498
 8672ION    CL-12872   0.136   3.212   3.049 -0.3439  0.0207 -0.1473
 8673ION    CL-12873   6.381   2.415  13.052 -0.1716  0.0135  0.2823
 8674ION    CL-12874   3.310   1.700   3.369  0.1665 -0.1144 -0.2760
 8675ION    CL-12875   3.537   2.539   1.353 -0.1385 -0.4177 -0.2161
 8676ION    CL-12876   8.250   7.042  11.103 -0.0125  0.0045 -0.0815
 8677ION    CL-12877   4.531   9.921   2.193  0.0479 -0.0992  0.2545
 8678ION    CL-12878   0.694   7.265   9.280  0.0478 -0.0438 -0.1914
 8679ION    CL-12879  10.487   2.279   2.648 -0.3698 -0.1552 -0.2493
 8680ION    CL-12880   0.148   2.452   9.185 -0.0938 -0.0208 -0.1021
 8681ION    CL-12881   0.989   4.606   3.904 -0.0861  0.2176 -0.0541
 8682ION    CL-12882   8.271   1.526   2.814  0.1007  0.3502  0.0555
 8683ION    CL-12883   2.418   8.436   3.326 -0.3155 -0.0156 -0.1678
 8684ION    CL-12884   0.950   9.042   2.442  0.2456  0.2347  0.0581
 8685ION    CL-12885   5.560   5.982   4.790 -0.1632 -0.0593  0.1168
 8686ION    CL-12886   7.938   7.039   4.021 -0.0281  0.0066  0.2248
 8687ION    CL-12887   6.624   7.950   2.442  0.0532 -0.3120 -0.2410
 8688ION    CL-12888   0.576   4.516   2.449 -0.1573  0.0680 -0.0857
 8689ION    CL-12889   5.068   1.000   1.680 -0.2688 -0.1541 -0.2358
 8690ION    CL-12890   3.952   3.998   9.030  0.0231 -0.2513 -0.1810
 8691ION    CL-12891   4.617   9.998  10.302  0.2221 -0.0941 -0.3429
 8692ION    CL-12892   1.937   5.003   3.732  0.0909  0.1034 -0.0251
 8693ION    CL-12893   9.185   0.262   3.945  0.2767 -0.1586  0.1077
 8694ION    CL-12894   3.300  10.312  10.203  0.2148 -0.3711 -0.2664
 8695ION    CL-12895   7.183  10.431   9.801  0.1187  0.1872  0.0022
 8696ION    CL-12896   0.878   7.648  10.528 -0.2437 -0.0794  0.1091
 8697ION    CL-12897   1.940   4.144   2.488 -0.1718 -0.4475  0.2072
 8698ION    CL-12898   4.377   8.753  11.544 -0.0987  0.1613  0.0695
 8699ION    CL-12899   3.853   7.781   9.903  0.1813 -0.2356 -0.1476
 8700ION    CL-12900  10.325   9.461   3.538 -0.2410  0.1298 -0.0761
 8701ION    CL-12901   4.465   5.593  10.959  0.0491 -0.2145  0.2002
 8702ION    CL-12902  10.122   1.226   3.998  0.1492 -0.2257 -0.1680
 8703ION    CL-12903   0.324   7.650  11.695 -0.1666  0.2377  0.2606
 8704ION    CL-12904   2.165   2.795  10.185 -0.2341 -0.0018 -0.2097
 8705ION    CL-12905   1.401   1.913   9.728  0.3412 -0.1432 -0.3761
 8706ION    CL-12906   7.952   7.462   9.415 -0.0365 -0.0570  0.4365
 8707ION    CL-12907   2.516   4.154  10.262  0.2557  0.2860 -0.0169
 8708ION    CL-12908   4.960   7.365  10.320 -0.1273 -0.2163  0.0049
 8709ION    CL-12909   2.565   2.973   1.707 -0.1408  0.0156 -0.1733
 8710ION    CL-12910   5.024   4.219   1.404  0.1521 -0.0261  0.0536
 8711ION    CL-12911   3.802   0.412  10.889 -0.3599 -0.5103 -0.2332
 8712ION    CL-12912   0.949   2.278   3.827 -0.2194  0.2175  0.0912
 8713ION    CL-12913   0.576  10.186  11.288 -0.1297  0.1865 -0.1877
 8714ION    CL-12914   3.107   7.948   9.352  0.1189  0.0652  0.0577
  10.49967  10.49967  13.39484
